Protein in INSANE! Membrane UpperLeaflet>POPC=1.0 LowerLeaflet>POPC=1.0
244992
   81AUC    AUC    1   3.200  34.052   7.502
   82AUC    AUC    2   3.446  34.052   7.350
   83AUC    AUC    3   3.446  34.052   7.653
   84AUC    AUC    4   2.955  34.052   7.350
   85AUC    AUC    5   2.955  34.052   7.653
   86AUC    AUC    6   3.048  34.297   7.502
   87AUC    AUC    7   3.352  34.297   7.502
   88AUC    AUC    8   3.048  33.806   7.502
   89AUC    AUC    9   3.352  33.806   7.502
   90AUC    AUC   10   3.200  33.900   7.747
   91AUC    AUC   11   3.200  34.203   7.747
   92AUC    AUC   12   3.200  33.900   7.256
   93AUC    AUC   13   3.200  34.203   7.256
   94AUC    AUC   14   3.691  34.052   7.198
   95AUC    AUC   15   3.691  34.052   7.502
   96AUC    AUC   16   3.691  34.052   7.805
   97AUC    AUC   17   2.709  34.052   7.198
   98AUC    AUC   18   2.709  34.052   7.502
   99AUC    AUC   19   2.709  34.052   7.805
  100AUC    AUC   20   2.897  34.542   7.502
  101AUC    AUC   21   3.200  34.542   7.502
  102AUC    AUC   22   3.503  34.542   7.502
  103AUC    AUC   23   2.897  33.561   7.502
  104AUC    AUC   24   3.200  33.561   7.502
  105AUC    AUC   25   3.503  33.561   7.502
  106AUC    AUC   26   3.200  33.748   7.992
  107AUC    AUC   27   3.200  34.052   7.992
  108AUC    AUC   28   3.200  34.355   7.992
  109AUC    AUC   29   3.200  33.748   7.011
  110AUC    AUC   30   3.200  34.052   7.011
  111AUC    AUC   31   3.200  34.355   7.011
  112AUC    AUC   32   3.446  33.900   7.899
  113AUC    AUC   33   3.446  34.203   7.899
  114AUC    AUC   34   3.446  33.900   7.105
  115AUC    AUC   35   3.446  34.203   7.105
  116AUC    AUC   36   2.955  33.900   7.899
  117AUC    AUC   37   2.955  34.203   7.899
  118AUC    AUC   38   2.955  33.900   7.105
  119AUC    AUC   39   2.955  34.203   7.105
  120AUC    AUC   40   3.597  34.297   7.350
  121AUC    AUC   41   3.597  34.297   7.653
  122AUC    AUC   42   2.803  34.297   7.350
  123AUC    AUC   43   2.803  34.297   7.653
  124AUC    AUC   44   3.597  33.806   7.350
  125AUC    AUC   45   3.597  33.806   7.653
  126AUC    AUC   46   2.803  33.806   7.350
  127AUC    AUC   47   2.803  33.806   7.653
  128AUC    AUC   48   3.048  34.449   7.747
  129AUC    AUC   49   3.352  34.449   7.747
  130AUC    AUC   50   3.048  33.654   7.747
  131AUC    AUC   51   3.352  33.654   7.747
  132AUC    AUC   52   3.048  34.449   7.256
  133AUC    AUC   53   3.352  34.449   7.256
  134AUC    AUC   54   3.048  33.654   7.256
  135AUC    AUC   55   3.352  33.654   7.256
  136AUSL   AUS   56   3.609  34.052   8.082
  137AUSL   AUS   57   3.465  33.635   8.012
  138AUL    AUL   58   3.691  33.748   8.296
  139THSLK    S   59   3.579  33.447   8.156
  140ETHY    C1   60   3.645  33.062   8.391
  141ETHY    C1   61   3.788  32.654   8.710
  142ETHY    C1   62   3.997  32.318   9.066
  143ETHY    C1   63   4.263  32.060   9.450
  144ETHY    C1   64   4.579  31.884   9.855
  145THSLK    S   65   3.705  34.002   8.326
  146ETHY    C1   66   3.921  33.816   8.681
  147ETHY    C1   67   4.196  33.681   9.124
  148ETHY    C1   68   4.477  33.651   9.575
  149ETHY    C1   69   4.755  33.720  10.025
  150ETHY    C1   70   5.024  33.888  10.466
  151AUSL   AUS   71   3.364  33.900   8.175
  152AUSL   AUS   72   3.037  34.203   8.175
  153AUL    AUL   73   3.200  34.052   8.483
  154THSLK    S   74   3.442  33.847   8.417
  155ETHY    C1   75   3.519  33.597   8.790
  156ETHY    C1   76   3.635  33.380   9.269
  157ETHY    C1   77   3.772  33.264   9.769
  158ETHY    C1   78   3.922  33.246  10.281
  159ETHY    C1   79   4.081  33.327  10.794
  160THSLK    S   80   2.950  34.160   8.431
  161ETHY    C1   81   2.868  34.048   8.864
  162ETHY    C1   82   2.754  34.002   9.388
  163ETHY    C1   83   2.622  34.060   9.901
  164ETHY    C1   84   2.471  34.213  10.389
  165ETHY    C1   85   2.305  34.457  10.844
  166AUSL   AUS   86   3.364  34.203   8.175
  167AUSL   AUS   87   3.710  34.316   7.918
  168AUL    AUL   88   3.691  34.355   8.296
  169THSLK    S   89   3.451  34.257   8.414
  170ETHY    C1   90   3.532  34.508   8.786
  171ETHY    C1   91   3.646  34.724   9.265
  172ETHY    C1   92   3.779  34.840   9.767
  173ETHY    C1   93   3.929  34.858  10.279
  174ETHY    C1   94   4.095  34.778  10.789
  175THSLK    S   95   3.884  34.418   8.080
  176ETHY    C1   96   4.248  34.428   8.354
  177ETHY    C1   97   4.664  34.530   8.680
  178ETHY    C1   98   5.044  34.729   8.995
  179ETHY    C1   99   5.379  35.016   9.296
  180ETHY    C1  100   5.660  35.384   9.577
  181AUSL   AUS  101   3.609  34.052   6.922
  182AUSL   AUS  102   3.465  34.468   6.992
  183AUL    AUL  103   3.691  34.355   6.707
  184THSLK    S  104   3.712  34.002   6.681
  185ETHY    C1  105   3.933  33.816   6.329
  186ETHY    C1  106   4.206  33.681   5.885
  187ETHY    C1  107   4.484  33.651   5.432
  188ETHY    C1  108   4.762  33.720   4.982
  189ETHY    C1  109   5.036  33.888   4.545
  190THSLK    S  110   3.643  34.583   6.825
  191ETHY    C1  111   3.931  34.688   6.488
  192ETHY    C1  112   4.231  34.892   6.090
  193ETHY    C1  113   4.474  35.180   5.714
  194ETHY    C1  114   4.658  35.544   5.371
  195ETHY    C1  115   4.782  35.975   5.065
  196AUSL   AUS  116   3.364  33.900   6.828
  197AUSL   AUS  117   3.710  33.787   7.085
  198AUL    AUL  118   3.691  33.748   6.707
  199THSLK    S  119   3.847  33.595   6.944
  200ETHY    C1  120   4.055  33.252   6.729
  201ETHY    C1  121   4.356  32.910   6.442
  202ETHY    C1  122   4.707  32.657   6.133
  203ETHY    C1  123   5.101  32.495   5.812
  204ETHY    C1  124   5.530  32.424   5.486
  205THSLK    S  125   3.451  33.846   6.590
  206ETHY    C1  126   3.532  33.595   6.217
  207ETHY    C1  127   3.646  33.379   5.738
  208ETHY    C1  128   3.779  33.263   5.236
  209ETHY    C1  129   3.929  33.245   4.725
  210ETHY    C1  130   4.095  33.325   4.214
  211AUSL   AUS  131   3.364  34.203   6.828
  212AUSL   AUS  132   3.037  33.900   6.828
  213AUL    AUL  133   3.200  34.052   6.520
  214THSLK    S  134   2.942  33.846   6.592
  215ETHY    C1  135   2.805  33.598   6.235
  216ETHY    C1  136   2.645  33.384   5.767
  217ETHY    C1  137   2.498  33.269   5.269
  218ETHY    C1  138   2.371  33.250   4.751
  219ETHY    C1  139   2.266  33.326   4.224
  220THSLK    S  140   3.467  34.161   6.578
  221ETHY    C1  141   3.608  34.046   6.160
  222ETHY    C1  142   3.766  33.999   5.647
  223ETHY    C1  143   3.909  34.055   5.138
  224ETHY    C1  144   4.037  34.209   4.643
  225ETHY    C1  145   4.148  34.457   4.174
  226AUSL   AUS  146   2.791  34.052   8.082
  227AUSL   AUS  147   2.935  34.468   8.012
  228AUL    AUL  148   2.709  34.355   8.296
  229THSLK    S  149   2.688  34.002   8.322
  230ETHY    C1  150   2.467  33.816   8.674
  231ETHY    C1  151   2.194  33.681   9.118
  232ETHY    C1  152   1.917  33.651   9.571
  233ETHY    C1  153   1.639  33.720  10.021
  234ETHY    C1  154   1.364  33.888  10.458
  235THSLK    S  155   2.815  34.597   8.202
  236ETHY    C1  156   2.746  34.766   8.620
  237ETHY    C1  157   2.604  35.019   9.073
  238ETHY    C1  158   2.398  35.320   9.460
  239ETHY    C1  159   2.131  35.659   9.775
  240ETHY    C1  160   1.811  36.026  10.013
  241AUSL   AUS  161   3.037  33.900   8.175
  242AUSL   AUS  162   2.690  33.787   7.918
  243AUL    AUL  163   2.709  33.748   8.296
  244THSLK    S  164   2.512  33.623   8.029
  245ETHY    C1  165   2.144  33.370   8.125
  246ETHY    C1  166   1.729  33.091   8.323
  247ETHY    C1  167   1.351  32.851   8.611
  248ETHY    C1  168   1.017  32.655   8.978
  249ETHY    C1  169   0.731  32.509   9.415
  250THSLK    S  170   2.934  33.848   8.410
  251ETHY    C1  171   2.792  33.601   8.766
  252ETHY    C1  172   2.634  33.386   9.233
  253ETHY    C1  173   2.491  33.270   9.733
  254ETHY    C1  174   2.364  33.252  10.250
  255ETHY    C1  175   2.252  33.330  10.775
  256AUSL   AUS  176   2.791  34.052   6.922
  257AUSL   AUS  177   2.935  33.635   6.992
  258AUL    AUL  178   2.709  33.748   6.707
  259THSLK    S  179   2.696  34.002   6.677
  260ETHY    C1  180   2.479  33.816   6.322
  261ETHY    C1  181   2.204  33.681   5.879
  262ETHY    C1  182   1.923  33.651   5.429
  263ETHY    C1  183   1.645  33.720   4.978
  264ETHY    C1  184   1.377  33.888   4.537
  265THSLK    S  185   2.763  33.461   6.872
  266ETHY    C1  186   2.478  33.140   6.717
  267ETHY    C1  187   2.177  32.781   6.453
  268ETHY    C1  188   1.932  32.458   6.109
  269ETHY    C1  189   1.748  32.175   5.696
  270ETHY    C1  190   1.629  31.935   5.223
  271AUSL   AUS  191   3.037  34.203   6.828
  272AUSL   AUS  192   2.690  34.316   7.085
  273AUL    AUL  193   2.709  34.355   6.707
  274THSLK    S  194   2.559  34.446   6.893
  275ETHY    C1  195   2.353  34.546   6.499
  276ETHY    C1  196   2.051  34.710   6.085
  277ETHY    C1  197   1.697  34.922   5.748
  278ETHY    C1  198   1.304  35.176   5.494
  279ETHY    C1  199   0.879  35.469   5.324
  280THSLK    S  200   2.958  34.162   6.571
  281ETHY    C1  201   2.881  34.050   6.136
  282ETHY    C1  202   2.765  34.005   5.612
  283ETHY    C1  203   2.629  34.061   5.101
  284ETHY    C1  204   2.479  34.215   4.613
  285ETHY    C1  205   2.319  34.460   4.156
  286AUSL   AUS  206   3.780  34.461   7.502
  287AUSL   AUS  207   3.710  34.316   7.085
  288AUL    AUL  208   3.994  34.542   7.198
  289THSLK    S  209   3.889  34.419   6.930
  290ETHY    C1  210   4.256  34.430   6.659
  291ETHY    C1  211   4.671  34.532   6.332
  292ETHY    C1  212   5.049  34.730   6.014
  293ETHY    C1  213   5.383  35.017   5.713
  294ETHY    C1  214   5.669  35.387   5.438
  295THSLK    S  215   4.048  34.517   7.506
  296ETHY    C1  216   4.500  34.578   7.508
  297ETHY    C1  217   5.014  34.737   7.507
  298ETHY    C1  218   5.482  34.991   7.505
  299ETHY    C1  219   5.895  35.328   7.506
  300ETHY    C1  220   6.247  35.742   7.509
  301AUSL   AUS  221   3.874  34.215   7.350
  302AUSL   AUS  222   3.874  33.888   7.653
  303AUL    AUL  223   4.182  34.052   7.502
  304THSLK    S  224   4.133  34.258   7.348
  305ETHY    C1  225   4.578  34.188   7.278
  306ETHY    C1  226   5.109  34.195   7.190
  307ETHY    C1  227   5.622  34.305   7.101
  308ETHY    C1  228   6.107  34.511   7.017
  309ETHY    C1  229   6.554  34.808   6.940
  310THSLK    S  230   4.106  33.750   7.662
  311ETHY    C1  231   4.452  33.461   7.728
  312ETHY    C1  232   4.913  33.194   7.809
  313ETHY    C1  233   5.410  33.025   7.892
  314ETHY    C1  234   5.931  32.953   7.980
  315ETHY    C1  235   6.466  32.979   8.071
  316AUSL   AUS  236   3.874  34.215   7.653
  317AUSL   AUS  237   3.617  34.562   7.766
  318AUL    AUL  238   3.994  34.542   7.805
  319THSLK    S  239   3.800  34.681   7.926
  320ETHY    C1  240   4.172  34.836   8.139
  321ETHY    C1  241   4.572  35.101   8.385
  322ETHY    C1  242   4.906  35.445   8.615
  323ETHY    C1  243   5.168  35.858   8.827
  324ETHY    C1  244   5.355  36.330   9.019
  325THSLK    S  245   4.132  34.258   7.664
  326ETHY    C1  246   4.576  34.188   7.738
  327ETHY    C1  247   5.107  34.195   7.825
  328ETHY    C1  248   5.621  34.305   7.910
  329ETHY    C1  249   6.105  34.511   7.994
  330ETHY    C1  250   6.552  34.808   8.078
  331AUSL   AUS  251   2.620  34.461   7.502
  332AUSL   AUS  252   2.690  34.316   7.918
  333AUL    AUL  253   2.406  34.542   7.805
  334THSLK    S  254   2.554  34.439   8.109
  335ETHY    C1  255   2.345  34.535   8.503
  336ETHY    C1  256   2.044  34.701   8.917
  337ETHY    C1  257   1.693  34.916   9.254
  338ETHY    C1  258   1.299  35.170   9.509
  339ETHY    C1  259   0.870  35.457   9.678
  340THSLK    S  260   2.404  34.601   7.506
  341ETHY    C1  261   2.148  34.979   7.508
  342ETHY    C1  262   1.775  35.367   7.507
  343ETHY    C1  263   1.339  35.673   7.505
  344ETHY    C1  264   0.853  35.891   7.506
  345ETHY    C1  265   0.326  36.021   7.509
  346AUSL   AUS  266   2.526  34.215   7.350
  347AUSL   AUS  267   2.784  34.562   7.237
  348AUL    AUL  268   2.406  34.542   7.198
  349THSLK    S  269   2.295  34.330   7.303
  350ETHY    C1  270   1.948  34.518   7.075
  351ETHY    C1  271   1.488  34.710   6.872
  352ETHY    C1  272   0.990  34.860   6.758
  353ETHY    C1  273   0.469  34.970   6.733
  354ETHY    C1  274  -0.065  35.040   6.796
  355THSLK    S  275   2.668  34.727   7.058
  356ETHY    C1  276   2.552  35.043   6.750
  357ETHY    C1  277   2.338  35.421   6.432
  358ETHY    C1  278   2.046  35.790   6.183
  359ETHY    C1  279   1.688  36.143   6.008
  360ETHY    C1  280   1.270  36.476   5.909
  361AUSL   AUS  281   2.526  34.215   7.653
  362AUSL   AUS  282   2.526  33.888   7.350
  363AUL    AUL  283   2.218  34.052   7.502
  364THSLK    S  284   2.268  33.814   7.390
  365ETHY    C1  285   1.824  33.779   7.486
  366ETHY    C1  286   1.293  33.698   7.518
  367ETHY    C1  287   0.779  33.573   7.458
  368ETHY    C1  288   0.295  33.405   7.311
  369ETHY    C1  289  -0.152  33.198   7.083
  370THSLK    S  290   2.293  34.322   7.704
  371ETHY    C1  291   1.946  34.506   7.935
  372ETHY    C1  292   1.486  34.699   8.137
  373ETHY    C1  293   0.989  34.854   8.249
  374ETHY    C1  294   0.468  34.964   8.274
  375ETHY    C1  295  -0.068  35.027   8.213
  376AUSL   AUS  296   3.780  33.642   7.502
  377AUSL   AUS  297   3.710  33.787   7.918
  378AUL    AUL  298   3.994  33.561   7.805
  379THSLK    S  299   3.996  33.502   7.506
  380ETHY    C1  300   4.252  33.124   7.508
  381ETHY    C1  301   4.625  32.736   7.507
  382ETHY    C1  302   5.061  32.430   7.505
  383ETHY    C1  303   5.547  32.212   7.506
  384ETHY    C1  304   6.074  32.082   7.509
  385THSLK    S  305   3.842  33.597   8.066
  386ETHY    C1  306   4.047  33.254   8.285
  387ETHY    C1  307   4.349  32.912   8.570
  388ETHY    C1  308   4.703  32.659   8.877
  389ETHY    C1  309   5.097  32.496   9.198
  390ETHY    C1  310   5.521  32.426   9.529
  391AUSL   AUS  311   3.874  33.888   7.350
  392AUSL   AUS  312   3.617  33.541   7.237
  393AUL    AUL  313   3.994  33.561   7.198
  394THSLK    S  314   4.107  33.750   7.350
  395ETHY    C1  315   4.455  33.461   7.289
  396ETHY    C1  316   4.914  33.194   7.206
  397ETHY    C1  317   5.411  33.025   7.118
  398ETHY    C1  318   5.933  32.953   7.031
  399ETHY    C1  319   6.468  32.979   6.947
  400THSLK    S  320   3.736  33.351   7.104
  401ETHY    C1  321   3.853  32.934   6.963
  402ETHY    C1  322   4.067  32.480   6.765
  403ETHY    C1  323   4.357  32.094   6.543
  404ETHY    C1  324   4.716  31.779   6.306
  405ETHY    C1  325   5.136  31.540   6.058
  406AUSL   AUS  326   2.620  33.642   7.502
  407AUSL   AUS  327   2.690  33.787   7.085
  408AUL    AUL  328   2.406  33.561   7.198
  409THSLK    S  329   2.517  33.616   6.973
  410ETHY    C1  330   2.152  33.359   6.877
  411ETHY    C1  331   1.736  33.082   6.679
  412ETHY    C1  332   1.356  32.845   6.392
  413ETHY    C1  333   1.022  32.649   6.025
  414ETHY    C1  334   0.740  32.497   5.587
  415THSLK    S  335   2.352  33.586   7.506
  416ETHY    C1  336   1.900  33.525   7.508
  417ETHY    C1  337   1.386  33.366   7.507
  418ETHY    C1  338   0.918  33.112   7.505
  419ETHY    C1  339   0.505  32.775   7.506
  420ETHY    C1  340   0.153  32.361   7.509
  421AUSL   AUS  341   2.526  33.888   7.653
  422AUSL   AUS  342   2.784  33.541   7.766
  423AUL    AUL  343   2.406  33.561   7.805
  424THSLK    S  344   2.596  33.397   7.880
  425ETHY    C1  345   2.222  33.140   7.926
  426ETHY    C1  346   1.824  32.800   8.052
  427ETHY    C1  347   1.491  32.438   8.255
  428ETHY    C1  348   1.229  32.064   8.529
  429ETHY    C1  349   1.038  31.686   8.870
  430THSLK    S  350   2.267  33.821   7.617
  431ETHY    C1  351   1.822  33.791   7.524
  432ETHY    C1  352   1.291  33.709   7.490
  433ETHY    C1  353   0.778  33.580   7.549
  434ETHY    C1  354   0.294  33.412   7.696
  435ETHY    C1  355  -0.154  33.210   7.928
  436AUSL   AUS  356   3.200  34.632   7.911
  437AUSL   AUS  357   2.784  34.562   7.766
  438AUL    AUL  358   2.897  34.846   7.992
  439THSLK    S  359   2.664  34.721   7.950
  440ETHY    C1  360   2.547  35.033   8.261
  441ETHY    C1  361   2.333  35.413   8.578
  442ETHY    C1  362   2.043  35.784   8.824
  443ETHY    C1  363   1.685  36.138   9.000
  444ETHY    C1  364   1.264  36.466   9.102
  445THSLK    S  365   3.240  34.858   8.035
  446ETHY    C1  366   3.397  35.160   8.339
  447ETHY    C1  367   3.512  35.566   8.672
  448ETHY    C1  368   3.539  36.010   8.964
  449ETHY    C1  369   3.479  36.479   9.211
  450ETHY    C1  370   3.335  36.963   9.410
  451AUSL   AUS  371   3.048  34.725   7.665
  452AUSL   AUS  372   3.352  34.725   7.338
  453AUL    AUL  373   3.200  35.033   7.502
  454THSLK    S  374   3.089  34.973   7.774
  455ETHY    C1  375   3.198  35.383   7.942
  456ETHY    C1  376   3.242  35.890   8.118
  457ETHY    C1  377   3.185  36.398   8.265
  458ETHY    C1  378   3.032  36.895   8.383
  459ETHY    C1  379   2.789  37.372   8.472
  460THSLK    S  380   3.405  34.960   7.241
  461ETHY    C1  381   3.650  35.316   7.094
  462ETHY    C1  382   3.863  35.781   6.927
  463ETHY    C1  383   3.978  36.279   6.779
  464ETHY    C1  384   3.998  36.798   6.655
  465ETHY    C1  385   3.923  37.327   6.558
  466AUSL   AUS  386   3.352  34.725   7.665
  467AUSL   AUS  387   3.465  34.468   8.012
  468AUL    AUL  388   3.503  34.846   7.992
  469THSLK    S  389   3.637  34.581   8.184
  470ETHY    C1  390   3.922  34.684   8.524
  471ETHY    C1  391   4.224  34.888   8.921
  472ETHY    C1  392   4.469  35.178   9.294
  473ETHY    C1  393   4.653  35.541   9.638
  474ETHY    C1  394   4.772  35.971   9.948
  475THSLK    S  395   3.403  34.959   7.771
  476ETHY    C1  396   3.647  35.313   7.922
  477ETHY    C1  397   3.860  35.779   8.087
  478ETHY    C1  398   3.976  36.278   8.231
  479ETHY    C1  399   3.995  36.796   8.356
  480ETHY    C1  400   3.920  37.324   8.458
  481AUSL   AUS  401   3.200  33.472   7.911
  482AUSL   AUS  402   3.617  33.541   7.766
  483AUL    AUL  403   3.503  33.257   7.992
  484THSLK    S  404   3.156  33.217   7.990
  485ETHY    C1  405   2.996  32.813   8.128
  486ETHY    C1  406   2.882  32.332   8.341
  487ETHY    C1  407   2.857  31.871   8.605
  488ETHY    C1  408   2.916  31.441   8.915
  489ETHY    C1  409   3.057  31.049   9.263
  490THSLK    S  410   3.732  33.352   7.908
  491ETHY    C1  411   3.848  32.936   8.052
  492ETHY    C1  412   4.062  32.483   8.248
  493ETHY    C1  413   4.354  32.095   8.467
  494ETHY    C1  414   4.713  31.780   8.705
  495ETHY    C1  415   5.130  31.543   8.958
  496AUSL   AUS  416   3.048  33.378   7.665
  497AUSL   AUS  417   2.935  33.635   8.012
  498AUL    AUL  418   2.897  33.257   7.992
  499THSLK    S  419   2.995  33.138   7.745
  500ETHY    C1  420   2.750  32.757   7.801
  501ETHY    C1  421   2.537  32.272   7.897
  502ETHY    C1  422   2.422  31.769   8.025
  503ETHY    C1  423   2.403  31.260   8.186
  504ETHY    C1  424   2.477  30.757   8.374
  505THSLK    S  425   2.757  33.467   8.133
  506ETHY    C1  426   2.469  33.149   8.289
  507ETHY    C1  427   2.169  32.789   8.552
  508ETHY    C1  428   1.926  32.463   8.896
  509ETHY    C1  429   1.742  32.180   9.309
  510ETHY    C1  430   1.618  31.946   9.783
  511AUSL   AUS  431   3.352  33.378   7.665
  512AUSL   AUS  432   3.048  33.378   7.338
  513AUL    AUL  433   3.200  33.070   7.502
  514THSLK    S  434   2.997  33.135   7.266
  515ETHY    C1  435   2.753  32.753   7.215
  516ETHY    C1  436   2.540  32.269   7.117
  517ETHY    C1  437   2.424  31.767   6.984
  518ETHY    C1  438   2.405  31.258   6.825
  519ETHY    C1  439   2.481  30.753   6.642
  520THSLK    S  440   3.309  33.122   7.749
  521ETHY    C1  441   3.199  32.686   7.821
  522ETHY    C1  442   3.156  32.160   7.928
  523ETHY    C1  443   3.213  31.648   8.059
  524ETHY    C1  444   3.366  31.160   8.213
  525ETHY    C1  445   3.608  30.707   8.388
  526AUSL   AUS  446   3.200  34.632   7.093
  527AUSL   AUS  447   3.617  34.562   7.237
  528AUL    AUL  448   3.503  34.846   7.011
  529THSLK    S  449   3.244  34.862   6.975
  530ETHY    C1  450   3.404  35.166   6.674
  531ETHY    C1  451   3.518  35.571   6.339
  532ETHY    C1  452   3.543  36.014   6.045
  533ETHY    C1  453   3.484  36.483   5.798
  534ETHY    C1  454   3.343  36.970   5.604
  535THSLK    S  455   3.804  34.683   7.085
  536ETHY    C1  456   4.178  34.839   6.876
  537ETHY    C1  457   4.576  35.103   6.629
  538ETHY    C1  458   4.909  35.447   6.395
  539ETHY    C1  459   5.171  35.859   6.184
  540ETHY    C1  460   5.362  36.333   5.998
  541AUSL   AUS  461   3.048  34.725   7.338
  542AUSL   AUS  462   2.935  34.468   6.992
  543AUL    AUL  463   2.897  34.846   7.011
  544THSLK    S  464   3.091  34.976   7.237
  545ETHY    C1  465   3.201  35.387   7.074
  546ETHY    C1  466   3.244  35.893   6.896
  547ETHY    C1  467   3.187  36.401   6.745
  548ETHY    C1  468   3.034  36.898   6.627
  549ETHY    C1  469   2.792  37.377   6.545
  550THSLK    S  470   2.821  34.603   6.802
  551ETHY    C1  471   2.755  34.775   6.385
  552ETHY    C1  472   2.612  35.027   5.932
  553ETHY    C1  473   2.403  35.326   5.544
  554ETHY    C1  474   2.137  35.664   5.230
  555ETHY    C1  475   1.821  36.037   4.993
  556AUSL   AUS  476   3.200  33.472   7.093
  557AUSL   AUS  477   2.784  33.541   7.237
  558AUL    AUL  478   2.897  33.257   7.011
  559THSLK    S  479   2.600  33.391   7.128
  560ETHY    C1  480   2.228  33.130   7.085
  561ETHY    C1  481   1.829  32.792   6.958
  562ETHY    C1  482   1.494  32.433   6.753
  563ETHY    C1  483   1.232  32.059   6.478
  564ETHY    C1  484   1.045  31.676   6.142
  565THSLK    S  485   3.160  33.213   7.019
  566ETHY    C1  486   3.003  32.807   6.885
  567ETHY    C1  487   2.888  32.327   6.671
  568ETHY    C1  488   2.861  31.868   6.404
  569ETHY    C1  489   2.921  31.437   6.094
  570ETHY    C1  490   3.065  31.042   5.751
  571AUSL   AUS  491   3.352  33.378   7.338
  572AUSL   AUS  492   3.465  33.635   6.992
  573AUL    AUL  493   3.503  33.257   7.011
  574THSLK    S  494   3.311  33.121   7.262
  575ETHY    C1  495   3.202  32.683   7.195
  576ETHY    C1  496   3.159  32.157   7.086
  577ETHY    C1  497   3.215  31.646   6.951
  578ETHY    C1  498   3.368  31.158   6.798
  579ETHY    C1  499   3.612  30.704   6.629
  580THSLK    S  500   3.585  33.445   6.853
  581ETHY    C1  501   3.654  33.059   6.621
  582ETHY    C1  502   3.796  32.651   6.300
  583ETHY    C1  503   4.003  32.315   5.942
  584ETHY    C1  504   4.269  32.058   5.559
  585ETHY    C1  505   4.589  31.880   5.158
  586AUC    AUC  506  40.695  19.259   7.502
  587AUC    AUC  507  40.941  19.259   7.350
  588AUC    AUC  508  40.941  19.259   7.653
  589AUC    AUC  509  40.450  19.259   7.350
  590AUC    AUC  510  40.450  19.259   7.653
  591AUC    AUC  511  40.543  19.504   7.502
  592AUC    AUC  512  40.847  19.504   7.502
  593AUC    AUC  513  40.543  19.013   7.502
  594AUC    AUC  514  40.847  19.013   7.502
  595AUC    AUC  515  40.695  19.107   7.747
  596AUC    AUC  516  40.695  19.410   7.747
  597AUC    AUC  517  40.695  19.107   7.256
  598AUC    AUC  518  40.695  19.410   7.256
  599AUC    AUC  519  41.186  19.259   7.198
  600AUC    AUC  520  41.186  19.259   7.502
  601AUC    AUC  521  41.186  19.259   7.805
  602AUC    AUC  522  40.204  19.259   7.198
  603AUC    AUC  523  40.204  19.259   7.502
  604AUC    AUC  524  40.204  19.259   7.805
  605AUC    AUC  525  40.392  19.749   7.502
  606AUC    AUC  526  40.695  19.749   7.502
  607AUC    AUC  527  40.998  19.749   7.502
  608AUC    AUC  528  40.392  18.768   7.502
  609AUC    AUC  529  40.695  18.768   7.502
  610AUC    AUC  530  40.998  18.768   7.502
  611AUC    AUC  531  40.695  18.955   7.992
  612AUC    AUC  532  40.695  19.259   7.992
  613AUC    AUC  533  40.695  19.562   7.992
  614AUC    AUC  534  40.695  18.955   7.011
  615AUC    AUC  535  40.695  19.259   7.011
  616AUC    AUC  536  40.695  19.562   7.011
  617AUC    AUC  537  40.941  19.107   7.899
  618AUC    AUC  538  40.941  19.410   7.899
  619AUC    AUC  539  40.941  19.107   7.105
  620AUC    AUC  540  40.941  19.410   7.105
  621AUC    AUC  541  40.450  19.107   7.899
  622AUC    AUC  542  40.450  19.410   7.899
  623AUC    AUC  543  40.450  19.107   7.105
  624AUC    AUC  544  40.450  19.410   7.105
  625AUC    AUC  545  41.092  19.504   7.350
  626AUC    AUC  546  41.092  19.504   7.653
  627AUC    AUC  547  40.298  19.504   7.350
  628AUC    AUC  548  40.298  19.504   7.653
  629AUC    AUC  549  41.092  19.013   7.350
  630AUC    AUC  550  41.092  19.013   7.653
  631AUC    AUC  551  40.298  19.013   7.350
  632AUC    AUC  552  40.298  19.013   7.653
  633AUC    AUC  553  40.543  19.656   7.747
  634AUC    AUC  554  40.847  19.656   7.747
  635AUC    AUC  555  40.543  18.861   7.747
  636AUC    AUC  556  40.847  18.861   7.747
  637AUC    AUC  557  40.543  19.656   7.256
  638AUC    AUC  558  40.847  19.656   7.256
  639AUC    AUC  559  40.543  18.861   7.256
  640AUC    AUC  560  40.847  18.861   7.256
  641AUSL   AUS  561  41.104  19.259   8.082
  642AUSL   AUS  562  40.960  18.842   8.012
  643AUL    AUL  563  41.186  18.955   8.296
  644THSLK    S  564  41.074  18.654   8.156
  645ETHY    C1  565  41.140  18.269   8.391
  646ETHY    C1  566  41.283  17.861   8.710
  647ETHY    C1  567  41.492  17.525   9.066
  648ETHY    C1  568  41.758  17.267   9.450
  649ETHY    C1  569  42.074  17.091   9.855
  650THSLK    S  570  41.200  19.209   8.326
  651ETHY    C1  571  41.416  19.023   8.681
  652ETHY    C1  572  41.691  18.888   9.124
  653ETHY    C1  573  41.972  18.858   9.575
  654ETHY    C1  574  42.250  18.927  10.025
  655ETHY    C1  575  42.519  19.095  10.466
  656AUSL   AUS  576  40.859  19.107   8.175
  657AUSL   AUS  577  40.532  19.410   8.175
  658AUL    AUL  578  40.695  19.259   8.483
  659THSLK    S  579  40.937  19.054   8.417
  660ETHY    C1  580  41.014  18.804   8.790
  661ETHY    C1  581  41.130  18.587   9.269
  662ETHY    C1  582  41.267  18.471   9.769
  663ETHY    C1  583  41.417  18.453  10.281
  664ETHY    C1  584  41.576  18.534  10.794
  665THSLK    S  585  40.445  19.367   8.431
  666ETHY    C1  586  40.363  19.255   8.864
  667ETHY    C1  587  40.249  19.209   9.388
  668ETHY    C1  588  40.117  19.267   9.901
  669ETHY    C1  589  39.966  19.420  10.389
  670ETHY    C1  590  39.800  19.664  10.844
  671AUSL   AUS  591  40.859  19.410   8.175
  672AUSL   AUS  592  41.205  19.523   7.918
  673AUL    AUL  593  41.186  19.562   8.296
  674THSLK    S  594  40.946  19.464   8.414
  675ETHY    C1  595  41.027  19.715   8.786
  676ETHY    C1  596  41.141  19.931   9.265
  677ETHY    C1  597  41.274  20.047   9.767
  678ETHY    C1  598  41.424  20.065  10.279
  679ETHY    C1  599  41.590  19.985  10.789
  680THSLK    S  600  41.379  19.625   8.080
  681ETHY    C1  601  41.743  19.635   8.354
  682ETHY    C1  602  42.159  19.737   8.680
  683ETHY    C1  603  42.539  19.936   8.995
  684ETHY    C1  604  42.874  20.223   9.296
  685ETHY    C1  605  43.155  20.591   9.577
  686AUSL   AUS  606  41.104  19.259   6.922
  687AUSL   AUS  607  40.960  19.675   6.992
  688AUL    AUL  608  41.186  19.562   6.707
  689THSLK    S  609  41.207  19.209   6.681
  690ETHY    C1  610  41.428  19.023   6.329
  691ETHY    C1  611  41.701  18.888   5.885
  692ETHY    C1  612  41.979  18.858   5.432
  693ETHY    C1  613  42.257  18.927   4.982
  694ETHY    C1  614  42.531  19.095   4.545
  695THSLK    S  615  41.138  19.790   6.825
  696ETHY    C1  616  41.426  19.895   6.488
  697ETHY    C1  617  41.726  20.099   6.090
  698ETHY    C1  618  41.969  20.387   5.714
  699ETHY    C1  619  42.153  20.751   5.371
  700ETHY    C1  620  42.277  21.182   5.065
  701AUSL   AUS  621  40.859  19.107   6.828
  702AUSL   AUS  622  41.205  18.994   7.085
  703AUL    AUL  623  41.186  18.955   6.707
  704THSLK    S  624  41.342  18.802   6.944
  705ETHY    C1  625  41.550  18.459   6.729
  706ETHY    C1  626  41.851  18.117   6.442
  707ETHY    C1  627  42.202  17.864   6.133
  708ETHY    C1  628  42.596  17.702   5.812
  709ETHY    C1  629  43.025  17.631   5.486
  710THSLK    S  630  40.946  19.053   6.590
  711ETHY    C1  631  41.027  18.802   6.217
  712ETHY    C1  632  41.141  18.586   5.738
  713ETHY    C1  633  41.274  18.470   5.236
  714ETHY    C1  634  41.424  18.452   4.725
  715ETHY    C1  635  41.590  18.532   4.214
  716AUSL   AUS  636  40.859  19.410   6.828
  717AUSL   AUS  637  40.532  19.107   6.828
  718AUL    AUL  638  40.695  19.259   6.520
  719THSLK    S  639  40.437  19.053   6.592
  720ETHY    C1  640  40.300  18.805   6.235
  721ETHY    C1  641  40.140  18.591   5.767
  722ETHY    C1  642  39.993  18.476   5.269
  723ETHY    C1  643  39.866  18.457   4.751
  724ETHY    C1  644  39.761  18.533   4.224
  725THSLK    S  645  40.962  19.368   6.578
  726ETHY    C1  646  41.103  19.253   6.160
  727ETHY    C1  647  41.261  19.206   5.647
  728ETHY    C1  648  41.404  19.262   5.138
  729ETHY    C1  649  41.532  19.416   4.643
  730ETHY    C1  650  41.643  19.664   4.174
  731AUSL   AUS  651  40.286  19.259   8.082
  732AUSL   AUS  652  40.430  19.675   8.012
  733AUL    AUL  653  40.204  19.562   8.296
  734THSLK    S  654  40.183  19.209   8.322
  735ETHY    C1  655  39.962  19.023   8.674
  736ETHY    C1  656  39.689  18.888   9.118
  737ETHY    C1  657  39.412  18.858   9.571
  738ETHY    C1  658  39.134  18.927  10.021
  739ETHY    C1  659  38.859  19.095  10.458
  740THSLK    S  660  40.310  19.804   8.202
  741ETHY    C1  661  40.241  19.973   8.620
  742ETHY    C1  662  40.099  20.226   9.073
  743ETHY    C1  663  39.893  20.527   9.460
  744ETHY    C1  664  39.626  20.866   9.775
  745ETHY    C1  665  39.306  21.233  10.013
  746AUSL   AUS  666  40.532  19.107   8.175
  747AUSL   AUS  667  40.185  18.994   7.918
  748AUL    AUL  668  40.204  18.955   8.296
  749THSLK    S  669  40.007  18.830   8.029
  750ETHY    C1  670  39.639  18.577   8.125
  751ETHY    C1  671  39.224  18.298   8.323
  752ETHY    C1  672  38.846  18.058   8.611
  753ETHY    C1  673  38.512  17.862   8.978
  754ETHY    C1  674  38.226  17.716   9.415
  755THSLK    S  675  40.429  19.055   8.410
  756ETHY    C1  676  40.287  18.808   8.766
  757ETHY    C1  677  40.129  18.593   9.233
  758ETHY    C1  678  39.986  18.477   9.733
  759ETHY    C1  679  39.859  18.459  10.250
  760ETHY    C1  680  39.747  18.537  10.775
  761AUSL   AUS  681  40.286  19.259   6.922
  762AUSL   AUS  682  40.430  18.842   6.992
  763AUL    AUL  683  40.204  18.955   6.707
  764THSLK    S  684  40.191  19.209   6.677
  765ETHY    C1  685  39.974  19.023   6.322
  766ETHY    C1  686  39.699  18.888   5.879
  767ETHY    C1  687  39.418  18.858   5.429
  768ETHY    C1  688  39.140  18.927   4.978
  769ETHY    C1  689  38.872  19.095   4.537
  770THSLK    S  690  40.258  18.668   6.872
  771ETHY    C1  691  39.973  18.347   6.717
  772ETHY    C1  692  39.672  17.988   6.453
  773ETHY    C1  693  39.427  17.665   6.109
  774ETHY    C1  694  39.243  17.382   5.696
  775ETHY    C1  695  39.124  17.142   5.223
  776AUSL   AUS  696  40.532  19.410   6.828
  777AUSL   AUS  697  40.185  19.523   7.085
  778AUL    AUL  698  40.204  19.562   6.707
  779THSLK    S  699  40.054  19.653   6.893
  780ETHY    C1  700  39.848  19.753   6.499
  781ETHY    C1  701  39.546  19.917   6.085
  782ETHY    C1  702  39.192  20.129   5.748
  783ETHY    C1  703  38.799  20.383   5.494
  784ETHY    C1  704  38.374  20.676   5.324
  785THSLK    S  705  40.453  19.369   6.571
  786ETHY    C1  706  40.376  19.257   6.136
  787ETHY    C1  707  40.260  19.212   5.612
  788ETHY    C1  708  40.124  19.268   5.101
  789ETHY    C1  709  39.974  19.422   4.613
  790ETHY    C1  710  39.814  19.667   4.156
  791AUSL   AUS  711  41.275  19.668   7.502
  792AUSL   AUS  712  41.205  19.523   7.085
  793AUL    AUL  713  41.489  19.749   7.198
  794THSLK    S  714  41.384  19.626   6.930
  795ETHY    C1  715  41.751  19.637   6.659
  796ETHY    C1  716  42.166  19.739   6.332
  797ETHY    C1  717  42.544  19.937   6.014
  798ETHY    C1  718  42.878  20.224   5.713
  799ETHY    C1  719  43.164  20.594   5.438
  800THSLK    S  720  41.543  19.724   7.506
  801ETHY    C1  721  41.995  19.785   7.508
  802ETHY    C1  722  42.509  19.944   7.507
  803ETHY    C1  723  42.977  20.198   7.505
  804ETHY    C1  724  43.390  20.535   7.506
  805ETHY    C1  725  43.742  20.949   7.509
  806AUSL   AUS  726  41.369  19.422   7.350
  807AUSL   AUS  727  41.369  19.095   7.653
  808AUL    AUL  728  41.677  19.259   7.502
  809THSLK    S  729  41.628  19.465   7.348
  810ETHY    C1  730  42.073  19.395   7.278
  811ETHY    C1  731  42.604  19.402   7.190
  812ETHY    C1  732  43.117  19.512   7.101
  813ETHY    C1  733  43.602  19.718   7.017
  814ETHY    C1  734  44.049  20.015   6.940
  815THSLK    S  735  41.601  18.957   7.662
  816ETHY    C1  736  41.947  18.668   7.728
  817ETHY    C1  737  42.408  18.401   7.809
  818ETHY    C1  738  42.905  18.232   7.892
  819ETHY    C1  739  43.426  18.160   7.980
  820ETHY    C1  740  43.961  18.186   8.071
  821AUSL   AUS  741  41.369  19.422   7.653
  822AUSL   AUS  742  41.112  19.769   7.766
  823AUL    AUL  743  41.489  19.749   7.805
  824THSLK    S  744  41.295  19.888   7.926
  825ETHY    C1  745  41.667  20.043   8.139
  826ETHY    C1  746  42.067  20.308   8.385
  827ETHY    C1  747  42.401  20.652   8.615
  828ETHY    C1  748  42.663  21.065   8.827
  829ETHY    C1  749  42.850  21.537   9.019
  830THSLK    S  750  41.627  19.465   7.664
  831ETHY    C1  751  42.071  19.395   7.738
  832ETHY    C1  752  42.602  19.402   7.825
  833ETHY    C1  753  43.116  19.512   7.910
  834ETHY    C1  754  43.600  19.718   7.994
  835ETHY    C1  755  44.047  20.015   8.078
  836AUSL   AUS  756  40.115  19.668   7.502
  837AUSL   AUS  757  40.185  19.523   7.918
  838AUL    AUL  758  39.901  19.749   7.805
  839THSLK    S  759  40.049  19.646   8.109
  840ETHY    C1  760  39.840  19.742   8.503
  841ETHY    C1  761  39.539  19.908   8.917
  842ETHY    C1  762  39.188  20.123   9.254
  843ETHY    C1  763  38.794  20.377   9.509
  844ETHY    C1  764  38.365  20.664   9.678
  845THSLK    S  765  39.899  19.808   7.506
  846ETHY    C1  766  39.643  20.186   7.508
  847ETHY    C1  767  39.270  20.574   7.507
  848ETHY    C1  768  38.834  20.880   7.505
  849ETHY    C1  769  38.348  21.098   7.506
  850ETHY    C1  770  37.821  21.228   7.509
  851AUSL   AUS  771  40.021  19.422   7.350
  852AUSL   AUS  772  40.279  19.769   7.237
  853AUL    AUL  773  39.901  19.749   7.198
  854THSLK    S  774  39.790  19.537   7.303
  855ETHY    C1  775  39.443  19.725   7.075
  856ETHY    C1  776  38.983  19.917   6.872
  857ETHY    C1  777  38.485  20.067   6.758
  858ETHY    C1  778  37.964  20.177   6.733
  859ETHY    C1  779  37.430  20.247   6.796
  860THSLK    S  780  40.163  19.934   7.058
  861ETHY    C1  781  40.047  20.250   6.750
  862ETHY    C1  782  39.833  20.628   6.432
  863ETHY    C1  783  39.541  20.997   6.183
  864ETHY    C1  784  39.183  21.350   6.008
  865ETHY    C1  785  38.765  21.683   5.909
  866AUSL   AUS  786  40.021  19.422   7.653
  867AUSL   AUS  787  40.021  19.095   7.350
  868AUL    AUL  788  39.713  19.259   7.502
  869THSLK    S  789  39.763  19.021   7.390
  870ETHY    C1  790  39.319  18.986   7.486
  871ETHY    C1  791  38.788  18.905   7.518
  872ETHY    C1  792  38.274  18.780   7.458
  873ETHY    C1  793  37.790  18.612   7.311
  874ETHY    C1  794  37.343  18.405   7.083
  875THSLK    S  795  39.788  19.529   7.704
  876ETHY    C1  796  39.441  19.713   7.935
  877ETHY    C1  797  38.981  19.906   8.137
  878ETHY    C1  798  38.484  20.061   8.249
  879ETHY    C1  799  37.963  20.171   8.274
  880ETHY    C1  800  37.427  20.234   8.213
  881AUSL   AUS  801  41.275  18.849   7.502
  882AUSL   AUS  802  41.205  18.994   7.918
  883AUL    AUL  803  41.489  18.768   7.805
  884THSLK    S  804  41.491  18.709   7.506
  885ETHY    C1  805  41.747  18.331   7.508
  886ETHY    C1  806  42.120  17.943   7.507
  887ETHY    C1  807  42.556  17.637   7.505
  888ETHY    C1  808  43.042  17.419   7.506
  889ETHY    C1  809  43.569  17.289   7.509
  890THSLK    S  810  41.337  18.804   8.066
  891ETHY    C1  811  41.542  18.461   8.285
  892ETHY    C1  812  41.844  18.119   8.570
  893ETHY    C1  813  42.198  17.866   8.877
  894ETHY    C1  814  42.592  17.703   9.198
  895ETHY    C1  815  43.016  17.633   9.529
  896AUSL   AUS  816  41.369  19.095   7.350
  897AUSL   AUS  817  41.112  18.748   7.237
  898AUL    AUL  818  41.489  18.768   7.198
  899THSLK    S  819  41.602  18.957   7.350
  900ETHY    C1  820  41.950  18.668   7.289
  901ETHY    C1  821  42.409  18.401   7.206
  902ETHY    C1  822  42.906  18.232   7.118
  903ETHY    C1  823  43.428  18.160   7.031
  904ETHY    C1  824  43.963  18.186   6.947
  905THSLK    S  825  41.231  18.558   7.104
  906ETHY    C1  826  41.348  18.141   6.963
  907ETHY    C1  827  41.562  17.687   6.765
  908ETHY    C1  828  41.852  17.301   6.543
  909ETHY    C1  829  42.211  16.986   6.306
  910ETHY    C1  830  42.631  16.747   6.058
  911AUSL   AUS  831  40.115  18.849   7.502
  912AUSL   AUS  832  40.185  18.994   7.085
  913AUL    AUL  833  39.901  18.768   7.198
  914THSLK    S  834  40.012  18.823   6.973
  915ETHY    C1  835  39.647  18.566   6.877
  916ETHY    C1  836  39.231  18.289   6.679
  917ETHY    C1  837  38.851  18.052   6.392
  918ETHY    C1  838  38.517  17.856   6.025
  919ETHY    C1  839  38.235  17.704   5.587
  920THSLK    S  840  39.847  18.793   7.506
  921ETHY    C1  841  39.395  18.732   7.508
  922ETHY    C1  842  38.881  18.573   7.507
  923ETHY    C1  843  38.413  18.319   7.505
  924ETHY    C1  844  38.000  17.982   7.506
  925ETHY    C1  845  37.648  17.568   7.509
  926AUSL   AUS  846  40.021  19.095   7.653
  927AUSL   AUS  847  40.279  18.748   7.766
  928AUL    AUL  848  39.901  18.768   7.805
  929THSLK    S  849  40.091  18.604   7.880
  930ETHY    C1  850  39.717  18.347   7.926
  931ETHY    C1  851  39.319  18.007   8.052
  932ETHY    C1  852  38.986  17.645   8.255
  933ETHY    C1  853  38.724  17.271   8.529
  934ETHY    C1  854  38.533  16.893   8.870
  935THSLK    S  855  39.762  19.028   7.617
  936ETHY    C1  856  39.317  18.998   7.524
  937ETHY    C1  857  38.786  18.916   7.490
  938ETHY    C1  858  38.273  18.787   7.549
  939ETHY    C1  859  37.789  18.619   7.696
  940ETHY    C1  860  37.341  18.417   7.928
  941AUSL   AUS  861  40.695  19.839   7.911
  942AUSL   AUS  862  40.279  19.769   7.766
  943AUL    AUL  863  40.392  20.053   7.992
  944THSLK    S  864  40.159  19.928   7.950
  945ETHY    C1  865  40.042  20.240   8.261
  946ETHY    C1  866  39.828  20.620   8.578
  947ETHY    C1  867  39.538  20.991   8.824
  948ETHY    C1  868  39.180  21.345   9.000
  949ETHY    C1  869  38.759  21.673   9.102
  950THSLK    S  870  40.735  20.065   8.035
  951ETHY    C1  871  40.892  20.367   8.339
  952ETHY    C1  872  41.007  20.773   8.672
  953ETHY    C1  873  41.034  21.217   8.964
  954ETHY    C1  874  40.974  21.686   9.211
  955ETHY    C1  875  40.830  22.170   9.410
  956AUSL   AUS  876  40.543  19.932   7.665
  957AUSL   AUS  877  40.847  19.932   7.338
  958AUL    AUL  878  40.695  20.240   7.502
  959THSLK    S  879  40.584  20.180   7.774
  960ETHY    C1  880  40.693  20.590   7.942
  961ETHY    C1  881  40.737  21.097   8.118
  962ETHY    C1  882  40.680  21.605   8.265
  963ETHY    C1  883  40.527  22.102   8.383
  964ETHY    C1  884  40.284  22.579   8.472
  965THSLK    S  885  40.900  20.167   7.241
  966ETHY    C1  886  41.145  20.523   7.094
  967ETHY    C1  887  41.358  20.988   6.927
  968ETHY    C1  888  41.473  21.486   6.779
  969ETHY    C1  889  41.493  22.005   6.655
  970ETHY    C1  890  41.418  22.534   6.558
  971AUSL   AUS  891  40.847  19.932   7.665
  972AUSL   AUS  892  40.960  19.675   8.012
  973AUL    AUL  893  40.998  20.053   7.992
  974THSLK    S  894  41.132  19.788   8.184
  975ETHY    C1  895  41.417  19.891   8.524
  976ETHY    C1  896  41.719  20.095   8.921
  977ETHY    C1  897  41.964  20.385   9.294
  978ETHY    C1  898  42.148  20.748   9.638
  979ETHY    C1  899  42.267  21.178   9.948
  980THSLK    S  900  40.898  20.166   7.771
  981ETHY    C1  901  41.142  20.520   7.922
  982ETHY    C1  902  41.355  20.986   8.087
  983ETHY    C1  903  41.471  21.485   8.231
  984ETHY    C1  904  41.490  22.003   8.356
  985ETHY    C1  905  41.415  22.531   8.458
  986AUSL   AUS  906  40.695  18.679   7.911
  987AUSL   AUS  907  41.112  18.748   7.766
  988AUL    AUL  908  40.998  18.464   7.992
  989THSLK    S  909  40.651  18.424   7.990
  990ETHY    C1  910  40.491  18.020   8.128
  991ETHY    C1  911  40.377  17.539   8.341
  992ETHY    C1  912  40.352  17.078   8.605
  993ETHY    C1  913  40.411  16.648   8.915
  994ETHY    C1  914  40.552  16.256   9.263
  995THSLK    S  915  41.227  18.559   7.908
  996ETHY    C1  916  41.343  18.143   8.052
  997ETHY    C1  917  41.557  17.690   8.248
  998ETHY    C1  918  41.849  17.302   8.467
  999ETHY    C1  919  42.208  16.987   8.705
 1000ETHY    C1  920  42.625  16.750   8.958
 1001AUSL   AUS  921  40.543  18.585   7.665
 1002AUSL   AUS  922  40.430  18.842   8.012
 1003AUL    AUL  923  40.392  18.464   7.992
 1004THSLK    S  924  40.490  18.345   7.745
 1005ETHY    C1  925  40.245  17.964   7.801
 1006ETHY    C1  926  40.032  17.479   7.897
 1007ETHY    C1  927  39.917  16.976   8.025
 1008ETHY    C1  928  39.898  16.467   8.186
 1009ETHY    C1  929  39.972  15.964   8.374
 1010THSLK    S  930  40.252  18.674   8.133
 1011ETHY    C1  931  39.964  18.356   8.289
 1012ETHY    C1  932  39.664  17.996   8.552
 1013ETHY    C1  933  39.421  17.670   8.896
 1014ETHY    C1  934  39.237  17.387   9.309
 1015ETHY    C1  935  39.113  17.153   9.783
 1016AUSL   AUS  936  40.847  18.585   7.665
 1017AUSL   AUS  937  40.543  18.585   7.338
 1018AUL    AUL  938  40.695  18.277   7.502
 1019THSLK    S  939  40.492  18.342   7.266
 1020ETHY    C1  940  40.248  17.960   7.215
 1021ETHY    C1  941  40.035  17.476   7.117
 1022ETHY    C1  942  39.919  16.974   6.984
 1023ETHY    C1  943  39.900  16.465   6.825
 1024ETHY    C1  944  39.976  15.960   6.642
 1025THSLK    S  945  40.804  18.329   7.749
 1026ETHY    C1  946  40.694  17.893   7.821
 1027ETHY    C1  947  40.651  17.367   7.928
 1028ETHY    C1  948  40.708  16.855   8.059
 1029ETHY    C1  949  40.861  16.367   8.213
 1030ETHY    C1  950  41.103  15.914   8.388
 1031AUSL   AUS  951  40.695  19.839   7.093
 1032AUSL   AUS  952  41.112  19.769   7.237
 1033AUL    AUL  953  40.998  20.053   7.011
 1034THSLK    S  954  40.739  20.069   6.975
 1035ETHY    C1  955  40.899  20.373   6.674
 1036ETHY    C1  956  41.013  20.778   6.339
 1037ETHY    C1  957  41.038  21.221   6.045
 1038ETHY    C1  958  40.979  21.690   5.798
 1039ETHY    C1  959  40.838  22.177   5.604
 1040THSLK    S  960  41.299  19.890   7.085
 1041ETHY    C1  961  41.673  20.046   6.876
 1042ETHY    C1  962  42.071  20.310   6.629
 1043ETHY    C1  963  42.404  20.654   6.395
 1044ETHY    C1  964  42.666  21.066   6.184
 1045ETHY    C1  965  42.857  21.540   5.998
 1046AUSL   AUS  966  40.543  19.932   7.338
 1047AUSL   AUS  967  40.430  19.675   6.992
 1048AUL    AUL  968  40.392  20.053   7.011
 1049THSLK    S  969  40.586  20.183   7.237
 1050ETHY    C1  970  40.696  20.594   7.074
 1051ETHY    C1  971  40.739  21.100   6.896
 1052ETHY    C1  972  40.682  21.608   6.745
 1053ETHY    C1  973  40.529  22.105   6.627
 1054ETHY    C1  974  40.287  22.584   6.545
 1055THSLK    S  975  40.316  19.810   6.802
 1056ETHY    C1  976  40.250  19.982   6.385
 1057ETHY    C1  977  40.107  20.234   5.932
 1058ETHY    C1  978  39.898  20.533   5.544
 1059ETHY    C1  979  39.632  20.871   5.230
 1060ETHY    C1  980  39.316  21.244   4.993
 1061AUSL   AUS  981  40.695  18.679   7.093
 1062AUSL   AUS  982  40.279  18.748   7.237
 1063AUL    AUL  983  40.392  18.464   7.011
 1064THSLK    S  984  40.095  18.598   7.128
 1065ETHY    C1  985  39.723  18.337   7.085
 1066ETHY    C1  986  39.324  17.999   6.958
 1067ETHY    C1  987  38.989  17.640   6.753
 1068ETHY    C1  988  38.727  17.266   6.478
 1069ETHY    C1  989  38.540  16.883   6.142
 1070THSLK    S  990  40.655  18.420   7.019
 1071ETHY    C1  991  40.498  18.014   6.885
 1072ETHY    C1  992  40.383  17.534   6.671
 1073ETHY    C1  993  40.356  17.075   6.404
 1074ETHY    C1  994  40.416  16.644   6.094
 1075ETHY    C1  995  40.560  16.249   5.751
 1076AUSL   AUS  996  40.847  18.585   7.338
 1077AUSL   AUS  997  40.960  18.842   6.992
 1078AUL    AUL  998  40.998  18.464   7.011
 1079THSLK    S  999  40.806  18.328   7.262
 1080ETHY    C1 1000  40.697  17.890   7.195
 1081ETHY    C1 1001  40.654  17.364   7.086
 1082ETHY    C1 1002  40.710  16.853   6.951
 1083ETHY    C1 1003  40.863  16.365   6.798
 1084ETHY    C1 1004  41.107  15.911   6.629
 1085THSLK    S 1005  41.080  18.652   6.853
 1086ETHY    C1 1006  41.149  18.266   6.621
 1087ETHY    C1 1007  41.291  17.858   6.300
 1088ETHY    C1 1008  41.498  17.522   5.942
 1089ETHY    C1 1009  41.764  17.265   5.559
 1090ETHY    C1 1010  42.084  17.087   5.158
 1091AUC    AUC 1011  22.807  -0.198   7.502
 1092AUC    AUC 1012  23.053  -0.198   7.350
 1093AUC    AUC 1013  23.053  -0.198   7.653
 1094AUC    AUC 1014  22.562  -0.198   7.350
 1095AUC    AUC 1015  22.562  -0.198   7.653
 1096AUC    AUC 1016  22.655   0.047   7.502
 1097AUC    AUC 1017  22.959   0.047   7.502
 1098AUC    AUC 1018  22.655  -0.444   7.502
 1099AUC    AUC 1019  22.959  -0.444   7.502
 1100AUC    AUC 1020  22.807  -0.350   7.747
 1101AUC    AUC 1021  22.807  -0.047   7.747
 1102AUC    AUC 1022  22.807  -0.350   7.256
 1103AUC    AUC 1023  22.807  -0.047   7.256
 1104AUC    AUC 1024  23.298  -0.198   7.198
 1105AUC    AUC 1025  23.298  -0.198   7.502
 1106AUC    AUC 1026  23.298  -0.198   7.805
 1107AUC    AUC 1027  22.316  -0.198   7.198
 1108AUC    AUC 1028  22.316  -0.198   7.502
 1109AUC    AUC 1029  22.316  -0.198   7.805
 1110AUC    AUC 1030  22.504   0.292   7.502
 1111AUC    AUC 1031  22.807   0.292   7.502
 1112AUC    AUC 1032  23.110   0.292   7.502
 1113AUC    AUC 1033  22.504  -0.689   7.502
 1114AUC    AUC 1034  22.807  -0.689   7.502
 1115AUC    AUC 1035  23.110  -0.689   7.502
 1116AUC    AUC 1036  22.807  -0.502   7.992
 1117AUC    AUC 1037  22.807  -0.198   7.992
 1118AUC    AUC 1038  22.807   0.105   7.992
 1119AUC    AUC 1039  22.807  -0.502   7.011
 1120AUC    AUC 1040  22.807  -0.198   7.011
 1121AUC    AUC 1041  22.807   0.105   7.011
 1122AUC    AUC 1042  23.053  -0.350   7.899
 1123AUC    AUC 1043  23.053  -0.047   7.899
 1124AUC    AUC 1044  23.053  -0.350   7.105
 1125AUC    AUC 1045  23.053  -0.047   7.105
 1126AUC    AUC 1046  22.562  -0.350   7.899
 1127AUC    AUC 1047  22.562  -0.047   7.899
 1128AUC    AUC 1048  22.562  -0.350   7.105
 1129AUC    AUC 1049  22.562  -0.047   7.105
 1130AUC    AUC 1050  23.204   0.047   7.350
 1131AUC    AUC 1051  23.204   0.047   7.653
 1132AUC    AUC 1052  22.410   0.047   7.350
 1133AUC    AUC 1053  22.410   0.047   7.653
 1134AUC    AUC 1054  23.204  -0.444   7.350
 1135AUC    AUC 1055  23.204  -0.444   7.653
 1136AUC    AUC 1056  22.410  -0.444   7.350
 1137AUC    AUC 1057  22.410  -0.444   7.653
 1138AUC    AUC 1058  22.655   0.199   7.747
 1139AUC    AUC 1059  22.959   0.199   7.747
 1140AUC    AUC 1060  22.655  -0.596   7.747
 1141AUC    AUC 1061  22.959  -0.596   7.747
 1142AUC    AUC 1062  22.655   0.199   7.256
 1143AUC    AUC 1063  22.959   0.199   7.256
 1144AUC    AUC 1064  22.655  -0.596   7.256
 1145AUC    AUC 1065  22.959  -0.596   7.256
 1146AUSL   AUS 1066  23.216  -0.198   8.082
 1147AUSL   AUS 1067  23.072  -0.615   8.012
 1148AUL    AUL 1068  23.298  -0.502   8.296
 1149THSLK    S 1069  23.186  -0.803   8.156
 1150ETHY    C1 1070  23.252  -1.188   8.391
 1151ETHY    C1 1071  23.395  -1.596   8.710
 1152ETHY    C1 1072  23.604  -1.932   9.066
 1153ETHY    C1 1073  23.870  -2.190   9.450
 1154ETHY    C1 1074  24.186  -2.366   9.855
 1155THSLK    S 1075  23.312  -0.248   8.326
 1156ETHY    C1 1076  23.528  -0.434   8.681
 1157ETHY    C1 1077  23.803  -0.569   9.124
 1158ETHY    C1 1078  24.084  -0.599   9.575
 1159ETHY    C1 1079  24.362  -0.530  10.025
 1160ETHY    C1 1080  24.631  -0.362  10.466
 1161AUSL   AUS 1081  22.971  -0.350   8.175
 1162AUSL   AUS 1082  22.644  -0.047   8.175
 1163AUL    AUL 1083  22.807  -0.198   8.483
 1164THSLK    S 1084  23.049  -0.403   8.417
 1165ETHY    C1 1085  23.126  -0.653   8.790
 1166ETHY    C1 1086  23.242  -0.870   9.269
 1167ETHY    C1 1087  23.379  -0.986   9.769
 1168ETHY    C1 1088  23.529  -1.004  10.281
 1169ETHY    C1 1089  23.688  -0.923  10.794
 1170THSLK    S 1090  22.557  -0.090   8.431
 1171ETHY    C1 1091  22.475  -0.202   8.864
 1172ETHY    C1 1092  22.361  -0.248   9.388
 1173ETHY    C1 1093  22.229  -0.190   9.901
 1174ETHY    C1 1094  22.078  -0.037  10.389
 1175ETHY    C1 1095  21.912   0.207  10.844
 1176AUSL   AUS 1096  22.971  -0.047   8.175
 1177AUSL   AUS 1097  23.317   0.066   7.918
 1178AUL    AUL 1098  23.298   0.105   8.296
 1179THSLK    S 1099  23.058   0.007   8.414
 1180ETHY    C1 1100  23.139   0.258   8.786
 1181ETHY    C1 1101  23.253   0.474   9.265
 1182ETHY    C1 1102  23.386   0.590   9.767
 1183ETHY    C1 1103  23.536   0.608  10.279
 1184ETHY    C1 1104  23.702   0.528  10.789
 1185THSLK    S 1105  23.491   0.168   8.080
 1186ETHY    C1 1106  23.855   0.178   8.354
 1187ETHY    C1 1107  24.271   0.280   8.680
 1188ETHY    C1 1108  24.651   0.479   8.995
 1189ETHY    C1 1109  24.986   0.766   9.296
 1190ETHY    C1 1110  25.267   1.134   9.577
 1191AUSL   AUS 1111  23.216  -0.198   6.922
 1192AUSL   AUS 1112  23.072   0.218   6.992
 1193AUL    AUL 1113  23.298   0.105   6.707
 1194THSLK    S 1114  23.319  -0.248   6.681
 1195ETHY    C1 1115  23.540  -0.434   6.329
 1196ETHY    C1 1116  23.813  -0.569   5.885
 1197ETHY    C1 1117  24.091  -0.599   5.432
 1198ETHY    C1 1118  24.369  -0.530   4.982
 1199ETHY    C1 1119  24.643  -0.362   4.545
 1200THSLK    S 1120  23.250   0.333   6.825
 1201ETHY    C1 1121  23.538   0.438   6.488
 1202ETHY    C1 1122  23.838   0.642   6.090
 1203ETHY    C1 1123  24.081   0.930   5.714
 1204ETHY    C1 1124  24.265   1.294   5.371
 1205ETHY    C1 1125  24.389   1.725   5.065
 1206AUSL   AUS 1126  22.971  -0.350   6.828
 1207AUSL   AUS 1127  23.317  -0.463   7.085
 1208AUL    AUL 1128  23.298  -0.502   6.707
 1209THSLK    S 1129  23.454  -0.655   6.944
 1210ETHY    C1 1130  23.662  -0.998   6.729
 1211ETHY    C1 1131  23.963  -1.340   6.442
 1212ETHY    C1 1132  24.314  -1.593   6.133
 1213ETHY    C1 1133  24.708  -1.755   5.812
 1214ETHY    C1 1134  25.137  -1.826   5.486
 1215THSLK    S 1135  23.058  -0.404   6.590
 1216ETHY    C1 1136  23.139  -0.655   6.217
 1217ETHY    C1 1137  23.253  -0.871   5.738
 1218ETHY    C1 1138  23.386  -0.987   5.236
 1219ETHY    C1 1139  23.536  -1.005   4.725
 1220ETHY    C1 1140  23.702  -0.925   4.214
 1221AUSL   AUS 1141  22.971  -0.047   6.828
 1222AUSL   AUS 1142  22.644  -0.350   6.828
 1223AUL    AUL 1143  22.807  -0.198   6.520
 1224THSLK    S 1144  22.549  -0.404   6.592
 1225ETHY    C1 1145  22.412  -0.652   6.235
 1226ETHY    C1 1146  22.252  -0.866   5.767
 1227ETHY    C1 1147  22.105  -0.981   5.269
 1228ETHY    C1 1148  21.978  -1.000   4.751
 1229ETHY    C1 1149  21.873  -0.924   4.224
 1230THSLK    S 1150  23.074  -0.089   6.578
 1231ETHY    C1 1151  23.215  -0.204   6.160
 1232ETHY    C1 1152  23.373  -0.251   5.647
 1233ETHY    C1 1153  23.516  -0.195   5.138
 1234ETHY    C1 1154  23.644  -0.041   4.643
 1235ETHY    C1 1155  23.755   0.207   4.174
 1236AUSL   AUS 1156  22.398  -0.198   8.082
 1237AUSL   AUS 1157  22.542   0.218   8.012
 1238AUL    AUL 1158  22.316   0.105   8.296
 1239THSLK    S 1159  22.295  -0.248   8.322
 1240ETHY    C1 1160  22.074  -0.434   8.674
 1241ETHY    C1 1161  21.801  -0.569   9.118
 1242ETHY    C1 1162  21.524  -0.599   9.571
 1243ETHY    C1 1163  21.246  -0.530  10.021
 1244ETHY    C1 1164  20.971  -0.362  10.458
 1245THSLK    S 1165  22.422   0.347   8.202
 1246ETHY    C1 1166  22.353   0.516   8.620
 1247ETHY    C1 1167  22.211   0.769   9.073
 1248ETHY    C1 1168  22.005   1.070   9.460
 1249ETHY    C1 1169  21.738   1.409   9.775
 1250ETHY    C1 1170  21.418   1.776  10.013
 1251AUSL   AUS 1171  22.644  -0.350   8.175
 1252AUSL   AUS 1172  22.297  -0.463   7.918
 1253AUL    AUL 1173  22.316  -0.502   8.296
 1254THSLK    S 1174  22.119  -0.627   8.029
 1255ETHY    C1 1175  21.751  -0.880   8.125
 1256ETHY    C1 1176  21.336  -1.159   8.323
 1257ETHY    C1 1177  20.958  -1.399   8.611
 1258ETHY    C1 1178  20.624  -1.595   8.978
 1259ETHY    C1 1179  20.338  -1.741   9.415
 1260THSLK    S 1180  22.541  -0.402   8.410
 1261ETHY    C1 1181  22.399  -0.649   8.766
 1262ETHY    C1 1182  22.241  -0.864   9.233
 1263ETHY    C1 1183  22.098  -0.980   9.733
 1264ETHY    C1 1184  21.971  -0.998  10.250
 1265ETHY    C1 1185  21.859  -0.920  10.775
 1266AUSL   AUS 1186  22.398  -0.198   6.922
 1267AUSL   AUS 1187  22.542  -0.615   6.992
 1268AUL    AUL 1188  22.316  -0.502   6.707
 1269THSLK    S 1189  22.303  -0.248   6.677
 1270ETHY    C1 1190  22.086  -0.434   6.322
 1271ETHY    C1 1191  21.811  -0.569   5.879
 1272ETHY    C1 1192  21.530  -0.599   5.429
 1273ETHY    C1 1193  21.252  -0.530   4.978
 1274ETHY    C1 1194  20.984  -0.362   4.537
 1275THSLK    S 1195  22.370  -0.789   6.872
 1276ETHY    C1 1196  22.085  -1.110   6.717
 1277ETHY    C1 1197  21.784  -1.469   6.453
 1278ETHY    C1 1198  21.539  -1.792   6.109
 1279ETHY    C1 1199  21.355  -2.075   5.696
 1280ETHY    C1 1200  21.236  -2.315   5.223
 1281AUSL   AUS 1201  22.644  -0.047   6.828
 1282AUSL   AUS 1202  22.297   0.066   7.085
 1283AUL    AUL 1203  22.316   0.105   6.707
 1284THSLK    S 1204  22.166   0.196   6.893
 1285ETHY    C1 1205  21.960   0.296   6.499
 1286ETHY    C1 1206  21.658   0.460   6.085
 1287ETHY    C1 1207  21.304   0.672   5.748
 1288ETHY    C1 1208  20.911   0.926   5.494
 1289ETHY    C1 1209  20.486   1.219   5.324
 1290THSLK    S 1210  22.565  -0.088   6.571
 1291ETHY    C1 1211  22.488  -0.200   6.136
 1292ETHY    C1 1212  22.372  -0.245   5.612
 1293ETHY    C1 1213  22.236  -0.189   5.101
 1294ETHY    C1 1214  22.086  -0.035   4.613
 1295ETHY    C1 1215  21.926   0.210   4.156
 1296AUSL   AUS 1216  23.387   0.211   7.502
 1297AUSL   AUS 1217  23.317   0.066   7.085
 1298AUL    AUL 1218  23.601   0.292   7.198
 1299THSLK    S 1219  23.496   0.169   6.930
 1300ETHY    C1 1220  23.863   0.180   6.659
 1301ETHY    C1 1221  24.278   0.282   6.332
 1302ETHY    C1 1222  24.656   0.480   6.014
 1303ETHY    C1 1223  24.990   0.767   5.713
 1304ETHY    C1 1224  25.276   1.137   5.438
 1305THSLK    S 1225  23.655   0.267   7.506
 1306ETHY    C1 1226  24.107   0.328   7.508
 1307ETHY    C1 1227  24.621   0.487   7.507
 1308ETHY    C1 1228  25.089   0.741   7.505
 1309ETHY    C1 1229  25.502   1.078   7.506
 1310ETHY    C1 1230  25.854   1.492   7.509
 1311AUSL   AUS 1231  23.481  -0.035   7.350
 1312AUSL   AUS 1232  23.481  -0.362   7.653
 1313AUL    AUL 1233  23.789  -0.198   7.502
 1314THSLK    S 1234  23.740   0.008   7.348
 1315ETHY    C1 1235  24.185  -0.062   7.278
 1316ETHY    C1 1236  24.716  -0.055   7.190
 1317ETHY    C1 1237  25.229   0.055   7.101
 1318ETHY    C1 1238  25.714   0.261   7.017
 1319ETHY    C1 1239  26.161   0.558   6.940
 1320THSLK    S 1240  23.713  -0.500   7.662
 1321ETHY    C1 1241  24.059  -0.789   7.728
 1322ETHY    C1 1242  24.520  -1.056   7.809
 1323ETHY    C1 1243  25.017  -1.225   7.892
 1324ETHY    C1 1244  25.538  -1.297   7.980
 1325ETHY    C1 1245  26.073  -1.271   8.071
 1326AUSL   AUS 1246  23.481  -0.035   7.653
 1327AUSL   AUS 1247  23.224   0.312   7.766
 1328AUL    AUL 1248  23.601   0.292   7.805
 1329THSLK    S 1249  23.407   0.431   7.926
 1330ETHY    C1 1250  23.779   0.586   8.139
 1331ETHY    C1 1251  24.179   0.851   8.385
 1332ETHY    C1 1252  24.513   1.195   8.615
 1333ETHY    C1 1253  24.775   1.608   8.827
 1334ETHY    C1 1254  24.962   2.080   9.019
 1335THSLK    S 1255  23.739   0.008   7.664
 1336ETHY    C1 1256  24.183  -0.062   7.738
 1337ETHY    C1 1257  24.714  -0.055   7.825
 1338ETHY    C1 1258  25.228   0.055   7.910
 1339ETHY    C1 1259  25.712   0.261   7.994
 1340ETHY    C1 1260  26.159   0.558   8.078
 1341AUSL   AUS 1261  22.227   0.211   7.502
 1342AUSL   AUS 1262  22.297   0.066   7.918
 1343AUL    AUL 1263  22.013   0.292   7.805
 1344THSLK    S 1264  22.161   0.189   8.109
 1345ETHY    C1 1265  21.952   0.285   8.503
 1346ETHY    C1 1266  21.651   0.451   8.917
 1347ETHY    C1 1267  21.300   0.666   9.254
 1348ETHY    C1 1268  20.906   0.920   9.509
 1349ETHY    C1 1269  20.477   1.207   9.678
 1350THSLK    S 1270  22.011   0.351   7.506
 1351ETHY    C1 1271  21.755   0.729   7.508
 1352ETHY    C1 1272  21.382   1.117   7.507
 1353ETHY    C1 1273  20.946   1.423   7.505
 1354ETHY    C1 1274  20.460   1.641   7.506
 1355ETHY    C1 1275  19.933   1.771   7.509
 1356AUSL   AUS 1276  22.133  -0.035   7.350
 1357AUSL   AUS 1277  22.391   0.312   7.237
 1358AUL    AUL 1278  22.013   0.292   7.198
 1359THSLK    S 1279  21.902   0.080   7.303
 1360ETHY    C1 1280  21.555   0.268   7.075
 1361ETHY    C1 1281  21.095   0.460   6.872
 1362ETHY    C1 1282  20.597   0.610   6.758
 1363ETHY    C1 1283  20.076   0.720   6.733
 1364ETHY    C1 1284  19.542   0.790   6.796
 1365THSLK    S 1285  22.275   0.477   7.058
 1366ETHY    C1 1286  22.159   0.793   6.750
 1367ETHY    C1 1287  21.945   1.171   6.432
 1368ETHY    C1 1288  21.653   1.540   6.183
 1369ETHY    C1 1289  21.295   1.893   6.008
 1370ETHY    C1 1290  20.877   2.226   5.909
 1371AUSL   AUS 1291  22.133  -0.035   7.653
 1372AUSL   AUS 1292  22.133  -0.362   7.350
 1373AUL    AUL 1293  21.825  -0.198   7.502
 1374THSLK    S 1294  21.875  -0.436   7.390
 1375ETHY    C1 1295  21.431  -0.471   7.486
 1376ETHY    C1 1296  20.900  -0.552   7.518
 1377ETHY    C1 1297  20.386  -0.677   7.458
 1378ETHY    C1 1298  19.902  -0.845   7.311
 1379ETHY    C1 1299  19.455  -1.052   7.083
 1380THSLK    S 1300  21.900   0.072   7.704
 1381ETHY    C1 1301  21.553   0.256   7.935
 1382ETHY    C1 1302  21.093   0.449   8.137
 1383ETHY    C1 1303  20.596   0.604   8.249
 1384ETHY    C1 1304  20.075   0.714   8.274
 1385ETHY    C1 1305  19.539   0.777   8.213
 1386AUSL   AUS 1306  23.387  -0.608   7.502
 1387AUSL   AUS 1307  23.317  -0.463   7.918
 1388AUL    AUL 1308  23.601  -0.689   7.805
 1389THSLK    S 1309  23.603  -0.748   7.506
 1390ETHY    C1 1310  23.859  -1.126   7.508
 1391ETHY    C1 1311  24.232  -1.514   7.507
 1392ETHY    C1 1312  24.668  -1.820   7.505
 1393ETHY    C1 1313  25.154  -2.038   7.506
 1394ETHY    C1 1314  25.681  -2.168   7.509
 1395THSLK    S 1315  23.449  -0.653   8.066
 1396ETHY    C1 1316  23.654  -0.996   8.285
 1397ETHY    C1 1317  23.956  -1.338   8.570
 1398ETHY    C1 1318  24.310  -1.591   8.877
 1399ETHY    C1 1319  24.704  -1.754   9.198
 1400ETHY    C1 1320  25.128  -1.824   9.529
 1401AUSL   AUS 1321  23.481  -0.362   7.350
 1402AUSL   AUS 1322  23.224  -0.709   7.237
 1403AUL    AUL 1323  23.601  -0.689   7.198
 1404THSLK    S 1324  23.714  -0.500   7.350
 1405ETHY    C1 1325  24.062  -0.789   7.289
 1406ETHY    C1 1326  24.521  -1.056   7.206
 1407ETHY    C1 1327  25.018  -1.225   7.118
 1408ETHY    C1 1328  25.540  -1.297   7.031
 1409ETHY    C1 1329  26.075  -1.271   6.947
 1410THSLK    S 1330  23.343  -0.899   7.104
 1411ETHY    C1 1331  23.460  -1.316   6.963
 1412ETHY    C1 1332  23.674  -1.770   6.765
 1413ETHY    C1 1333  23.964  -2.156   6.543
 1414ETHY    C1 1334  24.323  -2.471   6.306
 1415ETHY    C1 1335  24.743  -2.710   6.058
 1416AUSL   AUS 1336  22.227  -0.608   7.502
 1417AUSL   AUS 1337  22.297  -0.463   7.085
 1418AUL    AUL 1338  22.013  -0.689   7.198
 1419THSLK    S 1339  22.124  -0.634   6.973
 1420ETHY    C1 1340  21.759  -0.891   6.877
 1421ETHY    C1 1341  21.343  -1.168   6.679
 1422ETHY    C1 1342  20.963  -1.405   6.392
 1423ETHY    C1 1343  20.629  -1.601   6.025
 1424ETHY    C1 1344  20.347  -1.753   5.587
 1425THSLK    S 1345  21.959  -0.664   7.506
 1426ETHY    C1 1346  21.507  -0.725   7.508
 1427ETHY    C1 1347  20.993  -0.884   7.507
 1428ETHY    C1 1348  20.525  -1.138   7.505
 1429ETHY    C1 1349  20.112  -1.475   7.506
 1430ETHY    C1 1350  19.760  -1.889   7.509
 1431AUSL   AUS 1351  22.133  -0.362   7.653
 1432AUSL   AUS 1352  22.391  -0.709   7.766
 1433AUL    AUL 1353  22.013  -0.689   7.805
 1434THSLK    S 1354  22.203  -0.853   7.880
 1435ETHY    C1 1355  21.829  -1.110   7.926
 1436ETHY    C1 1356  21.431  -1.450   8.052
 1437ETHY    C1 1357  21.098  -1.812   8.255
 1438ETHY    C1 1358  20.836  -2.186   8.529
 1439ETHY    C1 1359  20.645  -2.564   8.870
 1440THSLK    S 1360  21.874  -0.429   7.617
 1441ETHY    C1 1361  21.429  -0.459   7.524
 1442ETHY    C1 1362  20.898  -0.541   7.490
 1443ETHY    C1 1363  20.385  -0.670   7.549
 1444ETHY    C1 1364  19.901  -0.838   7.696
 1445ETHY    C1 1365  19.453  -1.040   7.928
 1446AUSL   AUS 1366  22.807   0.382   7.911
 1447AUSL   AUS 1367  22.391   0.312   7.766
 1448AUL    AUL 1368  22.504   0.596   7.992
 1449THSLK    S 1369  22.271   0.471   7.950
 1450ETHY    C1 1370  22.154   0.783   8.261
 1451ETHY    C1 1371  21.940   1.163   8.578
 1452ETHY    C1 1372  21.650   1.534   8.824
 1453ETHY    C1 1373  21.292   1.888   9.000
 1454ETHY    C1 1374  20.871   2.216   9.102
 1455THSLK    S 1375  22.847   0.608   8.035
 1456ETHY    C1 1376  23.004   0.910   8.339
 1457ETHY    C1 1377  23.119   1.316   8.672
 1458ETHY    C1 1378  23.146   1.760   8.964
 1459ETHY    C1 1379  23.086   2.229   9.211
 1460ETHY    C1 1380  22.942   2.713   9.410
 1461AUSL   AUS 1381  22.655   0.475   7.665
 1462AUSL   AUS 1382  22.959   0.475   7.338
 1463AUL    AUL 1383  22.807   0.783   7.502
 1464THSLK    S 1384  22.696   0.723   7.774
 1465ETHY    C1 1385  22.805   1.133   7.942
 1466ETHY    C1 1386  22.849   1.640   8.118
 1467ETHY    C1 1387  22.792   2.148   8.265
 1468ETHY    C1 1388  22.639   2.645   8.383
 1469ETHY    C1 1389  22.396   3.122   8.472
 1470THSLK    S 1390  23.012   0.710   7.241
 1471ETHY    C1 1391  23.257   1.066   7.094
 1472ETHY    C1 1392  23.470   1.531   6.927
 1473ETHY    C1 1393  23.585   2.029   6.779
 1474ETHY    C1 1394  23.605   2.548   6.655
 1475ETHY    C1 1395  23.530   3.077   6.558
 1476AUSL   AUS 1396  22.959   0.475   7.665
 1477AUSL   AUS 1397  23.072   0.218   8.012
 1478AUL    AUL 1398  23.110   0.596   7.992
 1479THSLK    S 1399  23.244   0.331   8.184
 1480ETHY    C1 1400  23.529   0.434   8.524
 1481ETHY    C1 1401  23.831   0.638   8.921
 1482ETHY    C1 1402  24.076   0.928   9.294
 1483ETHY    C1 1403  24.260   1.291   9.638
 1484ETHY    C1 1404  24.379   1.721   9.948
 1485THSLK    S 1405  23.010   0.709   7.771
 1486ETHY    C1 1406  23.254   1.063   7.922
 1487ETHY    C1 1407  23.467   1.529   8.087
 1488ETHY    C1 1408  23.583   2.028   8.231
 1489ETHY    C1 1409  23.602   2.546   8.356
 1490ETHY    C1 1410  23.527   3.074   8.458
 1491AUSL   AUS 1411  22.807  -0.778   7.911
 1492AUSL   AUS 1412  23.224  -0.709   7.766
 1493AUL    AUL 1413  23.110  -0.993   7.992
 1494THSLK    S 1414  22.763  -1.033   7.990
 1495ETHY    C1 1415  22.603  -1.437   8.128
 1496ETHY    C1 1416  22.489  -1.918   8.341
 1497ETHY    C1 1417  22.464  -2.379   8.605
 1498ETHY    C1 1418  22.523  -2.809   8.915
 1499ETHY    C1 1419  22.664  -3.201   9.263
 1500THSLK    S 1420  23.339  -0.898   7.908
 1501ETHY    C1 1421  23.455  -1.314   8.052
 1502ETHY    C1 1422  23.669  -1.767   8.248
 1503ETHY    C1 1423  23.961  -2.155   8.467
 1504ETHY    C1 1424  24.320  -2.470   8.705
 1505ETHY    C1 1425  24.737  -2.707   8.958
 1506AUSL   AUS 1426  22.655  -0.872   7.665
 1507AUSL   AUS 1427  22.542  -0.615   8.012
 1508AUL    AUL 1428  22.504  -0.993   7.992
 1509THSLK    S 1429  22.602  -1.112   7.745
 1510ETHY    C1 1430  22.357  -1.493   7.801
 1511ETHY    C1 1431  22.144  -1.978   7.897
 1512ETHY    C1 1432  22.029  -2.481   8.025
 1513ETHY    C1 1433  22.010  -2.990   8.186
 1514ETHY    C1 1434  22.084  -3.493   8.374
 1515THSLK    S 1435  22.364  -0.783   8.133
 1516ETHY    C1 1436  22.076  -1.101   8.289
 1517ETHY    C1 1437  21.776  -1.461   8.552
 1518ETHY    C1 1438  21.533  -1.787   8.896
 1519ETHY    C1 1439  21.349  -2.070   9.309
 1520ETHY    C1 1440  21.225  -2.304   9.783
 1521AUSL   AUS 1441  22.959  -0.872   7.665
 1522AUSL   AUS 1442  22.655  -0.872   7.338
 1523AUL    AUL 1443  22.807  -1.180   7.502
 1524THSLK    S 1444  22.604  -1.115   7.266
 1525ETHY    C1 1445  22.360  -1.497   7.215
 1526ETHY    C1 1446  22.147  -1.981   7.117
 1527ETHY    C1 1447  22.031  -2.483   6.984
 1528ETHY    C1 1448  22.012  -2.992   6.825
 1529ETHY    C1 1449  22.088  -3.497   6.642
 1530THSLK    S 1450  22.916  -1.128   7.749
 1531ETHY    C1 1451  22.806  -1.564   7.821
 1532ETHY    C1 1452  22.763  -2.090   7.928
 1533ETHY    C1 1453  22.820  -2.602   8.059
 1534ETHY    C1 1454  22.973  -3.090   8.213
 1535ETHY    C1 1455  23.215  -3.543   8.388
 1536AUSL   AUS 1456  22.807   0.382   7.093
 1537AUSL   AUS 1457  23.224   0.312   7.237
 1538AUL    AUL 1458  23.110   0.596   7.011
 1539THSLK    S 1459  22.851   0.612   6.975
 1540ETHY    C1 1460  23.011   0.916   6.674
 1541ETHY    C1 1461  23.125   1.321   6.339
 1542ETHY    C1 1462  23.150   1.764   6.045
 1543ETHY    C1 1463  23.091   2.233   5.798
 1544ETHY    C1 1464  22.950   2.720   5.604
 1545THSLK    S 1465  23.411   0.433   7.085
 1546ETHY    C1 1466  23.785   0.589   6.876
 1547ETHY    C1 1467  24.183   0.853   6.629
 1548ETHY    C1 1468  24.516   1.197   6.395
 1549ETHY    C1 1469  24.778   1.609   6.184
 1550ETHY    C1 1470  24.969   2.083   5.998
 1551AUSL   AUS 1471  22.655   0.475   7.338
 1552AUSL   AUS 1472  22.542   0.218   6.992
 1553AUL    AUL 1473  22.504   0.596   7.011
 1554THSLK    S 1474  22.698   0.726   7.237
 1555ETHY    C1 1475  22.808   1.137   7.074
 1556ETHY    C1 1476  22.851   1.643   6.896
 1557ETHY    C1 1477  22.794   2.151   6.745
 1558ETHY    C1 1478  22.641   2.648   6.627
 1559ETHY    C1 1479  22.399   3.127   6.545
 1560THSLK    S 1480  22.428   0.353   6.802
 1561ETHY    C1 1481  22.362   0.525   6.385
 1562ETHY    C1 1482  22.219   0.777   5.932
 1563ETHY    C1 1483  22.010   1.076   5.544
 1564ETHY    C1 1484  21.744   1.414   5.230
 1565ETHY    C1 1485  21.428   1.787   4.993
 1566AUSL   AUS 1486  22.807  -0.778   7.093
 1567AUSL   AUS 1487  22.391  -0.709   7.237
 1568AUL    AUL 1488  22.504  -0.993   7.011
 1569THSLK    S 1489  22.207  -0.859   7.128
 1570ETHY    C1 1490  21.835  -1.120   7.085
 1571ETHY    C1 1491  21.436  -1.458   6.958
 1572ETHY    C1 1492  21.101  -1.817   6.753
 1573ETHY    C1 1493  20.839  -2.191   6.478
 1574ETHY    C1 1494  20.652  -2.574   6.142
 1575THSLK    S 1495  22.767  -1.037   7.019
 1576ETHY    C1 1496  22.610  -1.443   6.885
 1577ETHY    C1 1497  22.495  -1.923   6.671
 1578ETHY    C1 1498  22.468  -2.382   6.404
 1579ETHY    C1 1499  22.528  -2.813   6.094
 1580ETHY    C1 1500  22.672  -3.208   5.751
 1581AUSL   AUS 1501  22.959  -0.872   7.338
 1582AUSL   AUS 1502  23.072  -0.615   6.992
 1583AUL    AUL 1503  23.110  -0.993   7.011
 1584THSLK    S 1504  22.918  -1.129   7.262
 1585ETHY    C1 1505  22.809  -1.567   7.195
 1586ETHY    C1 1506  22.766  -2.093   7.086
 1587ETHY    C1 1507  22.822  -2.604   6.951
 1588ETHY    C1 1508  22.975  -3.092   6.798
 1589ETHY    C1 1509  23.219  -3.546   6.629
 1590THSLK    S 1510  23.192  -0.805   6.853
 1591ETHY    C1 1511  23.261  -1.191   6.621
 1592ETHY    C1 1512  23.403  -1.599   6.300
 1593ETHY    C1 1513  23.610  -1.935   5.942
 1594ETHY    C1 1514  23.876  -2.192   5.559
 1595ETHY    C1 1515  24.196  -2.370   5.158
 1596AUC    AUC 1516  15.347  14.186   7.502
 1597AUC    AUC 1517  15.593  14.186   7.350
 1598AUC    AUC 1518  15.593  14.186   7.653
 1599AUC    AUC 1519  15.102  14.186   7.350
 1600AUC    AUC 1520  15.102  14.186   7.653
 1601AUC    AUC 1521  15.195  14.431   7.502
 1602AUC    AUC 1522  15.499  14.431   7.502
 1603AUC    AUC 1523  15.195  13.940   7.502
 1604AUC    AUC 1524  15.499  13.940   7.502
 1605AUC    AUC 1525  15.347  14.034   7.747
 1606AUC    AUC 1526  15.347  14.337   7.747
 1607AUC    AUC 1527  15.347  14.034   7.256
 1608AUC    AUC 1528  15.347  14.337   7.256
 1609AUC    AUC 1529  15.838  14.186   7.198
 1610AUC    AUC 1530  15.838  14.186   7.502
 1611AUC    AUC 1531  15.838  14.186   7.805
 1612AUC    AUC 1532  14.856  14.186   7.198
 1613AUC    AUC 1533  14.856  14.186   7.502
 1614AUC    AUC 1534  14.856  14.186   7.805
 1615AUC    AUC 1535  15.044  14.676   7.502
 1616AUC    AUC 1536  15.347  14.676   7.502
 1617AUC    AUC 1537  15.650  14.676   7.502
 1618AUC    AUC 1538  15.044  13.695   7.502
 1619AUC    AUC 1539  15.347  13.695   7.502
 1620AUC    AUC 1540  15.650  13.695   7.502
 1621AUC    AUC 1541  15.347  13.882   7.992
 1622AUC    AUC 1542  15.347  14.186   7.992
 1623AUC    AUC 1543  15.347  14.489   7.992
 1624AUC    AUC 1544  15.347  13.882   7.011
 1625AUC    AUC 1545  15.347  14.186   7.011
 1626AUC    AUC 1546  15.347  14.489   7.011
 1627AUC    AUC 1547  15.593  14.034   7.899
 1628AUC    AUC 1548  15.593  14.337   7.899
 1629AUC    AUC 1549  15.593  14.034   7.105
 1630AUC    AUC 1550  15.593  14.337   7.105
 1631AUC    AUC 1551  15.102  14.034   7.899
 1632AUC    AUC 1552  15.102  14.337   7.899
 1633AUC    AUC 1553  15.102  14.034   7.105
 1634AUC    AUC 1554  15.102  14.337   7.105
 1635AUC    AUC 1555  15.744  14.431   7.350
 1636AUC    AUC 1556  15.744  14.431   7.653
 1637AUC    AUC 1557  14.950  14.431   7.350
 1638AUC    AUC 1558  14.950  14.431   7.653
 1639AUC    AUC 1559  15.744  13.940   7.350
 1640AUC    AUC 1560  15.744  13.940   7.653
 1641AUC    AUC 1561  14.950  13.940   7.350
 1642AUC    AUC 1562  14.950  13.940   7.653
 1643AUC    AUC 1563  15.195  14.583   7.747
 1644AUC    AUC 1564  15.499  14.583   7.747
 1645AUC    AUC 1565  15.195  13.788   7.747
 1646AUC    AUC 1566  15.499  13.788   7.747
 1647AUC    AUC 1567  15.195  14.583   7.256
 1648AUC    AUC 1568  15.499  14.583   7.256
 1649AUC    AUC 1569  15.195  13.788   7.256
 1650AUC    AUC 1570  15.499  13.788   7.256
 1651AUSL   AUS 1571  15.756  14.186   8.082
 1652AUSL   AUS 1572  15.612  13.769   8.012
 1653AUL    AUL 1573  15.838  13.882   8.296
 1654THSLK    S 1574  15.726  13.581   8.156
 1655ETHY    C1 1575  15.792  13.196   8.391
 1656ETHY    C1 1576  15.935  12.788   8.710
 1657ETHY    C1 1577  16.144  12.452   9.066
 1658ETHY    C1 1578  16.410  12.194   9.450
 1659ETHY    C1 1579  16.726  12.018   9.855
 1660THSLK    S 1580  15.852  14.136   8.326
 1661ETHY    C1 1581  16.068  13.950   8.681
 1662ETHY    C1 1582  16.343  13.815   9.124
 1663ETHY    C1 1583  16.624  13.785   9.575
 1664ETHY    C1 1584  16.902  13.854  10.025
 1665ETHY    C1 1585  17.171  14.022  10.466
 1666AUSL   AUS 1586  15.511  14.034   8.175
 1667AUSL   AUS 1587  15.184  14.337   8.175
 1668AUL    AUL 1588  15.347  14.186   8.483
 1669THSLK    S 1589  15.589  13.981   8.417
 1670ETHY    C1 1590  15.666  13.731   8.790
 1671ETHY    C1 1591  15.782  13.514   9.269
 1672ETHY    C1 1592  15.919  13.398   9.769
 1673ETHY    C1 1593  16.069  13.380  10.281
 1674ETHY    C1 1594  16.228  13.461  10.794
 1675THSLK    S 1595  15.097  14.294   8.431
 1676ETHY    C1 1596  15.015  14.182   8.864
 1677ETHY    C1 1597  14.901  14.136   9.388
 1678ETHY    C1 1598  14.769  14.194   9.901
 1679ETHY    C1 1599  14.618  14.347  10.389
 1680ETHY    C1 1600  14.452  14.591  10.844
 1681AUSL   AUS 1601  15.511  14.337   8.175
 1682AUSL   AUS 1602  15.857  14.450   7.918
 1683AUL    AUL 1603  15.838  14.489   8.296
 1684THSLK    S 1604  15.598  14.391   8.414
 1685ETHY    C1 1605  15.679  14.642   8.786
 1686ETHY    C1 1606  15.793  14.858   9.265
 1687ETHY    C1 1607  15.926  14.974   9.767
 1688ETHY    C1 1608  16.076  14.992  10.279
 1689ETHY    C1 1609  16.242  14.912  10.789
 1690THSLK    S 1610  16.031  14.552   8.080
 1691ETHY    C1 1611  16.395  14.562   8.354
 1692ETHY    C1 1612  16.811  14.664   8.680
 1693ETHY    C1 1613  17.191  14.863   8.995
 1694ETHY    C1 1614  17.526  15.150   9.296
 1695ETHY    C1 1615  17.807  15.518   9.577
 1696AUSL   AUS 1616  15.756  14.186   6.922
 1697AUSL   AUS 1617  15.612  14.602   6.992
 1698AUL    AUL 1618  15.838  14.489   6.707
 1699THSLK    S 1619  15.859  14.136   6.681
 1700ETHY    C1 1620  16.080  13.950   6.329
 1701ETHY    C1 1621  16.353  13.815   5.885
 1702ETHY    C1 1622  16.631  13.785   5.432
 1703ETHY    C1 1623  16.909  13.854   4.982
 1704ETHY    C1 1624  17.183  14.022   4.545
 1705THSLK    S 1625  15.790  14.717   6.825
 1706ETHY    C1 1626  16.078  14.822   6.488
 1707ETHY    C1 1627  16.378  15.026   6.090
 1708ETHY    C1 1628  16.621  15.314   5.714
 1709ETHY    C1 1629  16.805  15.678   5.371
 1710ETHY    C1 1630  16.929  16.109   5.065
 1711AUSL   AUS 1631  15.511  14.034   6.828
 1712AUSL   AUS 1632  15.857  13.921   7.085
 1713AUL    AUL 1633  15.838  13.882   6.707
 1714THSLK    S 1634  15.994  13.729   6.944
 1715ETHY    C1 1635  16.202  13.386   6.729
 1716ETHY    C1 1636  16.503  13.044   6.442
 1717ETHY    C1 1637  16.854  12.791   6.133
 1718ETHY    C1 1638  17.248  12.629   5.812
 1719ETHY    C1 1639  17.677  12.558   5.486
 1720THSLK    S 1640  15.598  13.980   6.590
 1721ETHY    C1 1641  15.679  13.729   6.217
 1722ETHY    C1 1642  15.793  13.513   5.738
 1723ETHY    C1 1643  15.926  13.397   5.236
 1724ETHY    C1 1644  16.076  13.379   4.725
 1725ETHY    C1 1645  16.242  13.459   4.214
 1726AUSL   AUS 1646  15.511  14.337   6.828
 1727AUSL   AUS 1647  15.184  14.034   6.828
 1728AUL    AUL 1648  15.347  14.186   6.520
 1729THSLK    S 1649  15.089  13.980   6.592
 1730ETHY    C1 1650  14.952  13.732   6.235
 1731ETHY    C1 1651  14.792  13.518   5.767
 1732ETHY    C1 1652  14.645  13.403   5.269
 1733ETHY    C1 1653  14.518  13.384   4.751
 1734ETHY    C1 1654  14.413  13.460   4.224
 1735THSLK    S 1655  15.614  14.295   6.578
 1736ETHY    C1 1656  15.755  14.180   6.160
 1737ETHY    C1 1657  15.913  14.133   5.647
 1738ETHY    C1 1658  16.056  14.189   5.138
 1739ETHY    C1 1659  16.184  14.343   4.643
 1740ETHY    C1 1660  16.295  14.591   4.174
 1741AUSL   AUS 1661  14.938  14.186   8.082
 1742AUSL   AUS 1662  15.082  14.602   8.012
 1743AUL    AUL 1663  14.856  14.489   8.296
 1744THSLK    S 1664  14.835  14.136   8.322
 1745ETHY    C1 1665  14.614  13.950   8.674
 1746ETHY    C1 1666  14.341  13.815   9.118
 1747ETHY    C1 1667  14.064  13.785   9.571
 1748ETHY    C1 1668  13.786  13.854  10.021
 1749ETHY    C1 1669  13.511  14.022  10.458
 1750THSLK    S 1670  14.962  14.731   8.202
 1751ETHY    C1 1671  14.893  14.900   8.620
 1752ETHY    C1 1672  14.751  15.153   9.073
 1753ETHY    C1 1673  14.545  15.454   9.460
 1754ETHY    C1 1674  14.278  15.793   9.775
 1755ETHY    C1 1675  13.958  16.160  10.013
 1756AUSL   AUS 1676  15.184  14.034   8.175
 1757AUSL   AUS 1677  14.837  13.921   7.918
 1758AUL    AUL 1678  14.856  13.882   8.296
 1759THSLK    S 1679  14.659  13.757   8.029
 1760ETHY    C1 1680  14.291  13.504   8.125
 1761ETHY    C1 1681  13.876  13.225   8.323
 1762ETHY    C1 1682  13.498  12.985   8.611
 1763ETHY    C1 1683  13.164  12.789   8.978
 1764ETHY    C1 1684  12.878  12.643   9.415
 1765THSLK    S 1685  15.081  13.982   8.410
 1766ETHY    C1 1686  14.939  13.735   8.766
 1767ETHY    C1 1687  14.781  13.520   9.233
 1768ETHY    C1 1688  14.638  13.404   9.733
 1769ETHY    C1 1689  14.511  13.386  10.250
 1770ETHY    C1 1690  14.399  13.464  10.775
 1771AUSL   AUS 1691  14.938  14.186   6.922
 1772AUSL   AUS 1692  15.082  13.769   6.992
 1773AUL    AUL 1693  14.856  13.882   6.707
 1774THSLK    S 1694  14.843  14.136   6.677
 1775ETHY    C1 1695  14.626  13.950   6.322
 1776ETHY    C1 1696  14.351  13.815   5.879
 1777ETHY    C1 1697  14.070  13.785   5.429
 1778ETHY    C1 1698  13.792  13.854   4.978
 1779ETHY    C1 1699  13.524  14.022   4.537
 1780THSLK    S 1700  14.910  13.595   6.872
 1781ETHY    C1 1701  14.625  13.274   6.717
 1782ETHY    C1 1702  14.324  12.915   6.453
 1783ETHY    C1 1703  14.079  12.592   6.109
 1784ETHY    C1 1704  13.895  12.309   5.696
 1785ETHY    C1 1705  13.776  12.069   5.223
 1786AUSL   AUS 1706  15.184  14.337   6.828
 1787AUSL   AUS 1707  14.837  14.450   7.085
 1788AUL    AUL 1708  14.856  14.489   6.707
 1789THSLK    S 1709  14.706  14.580   6.893
 1790ETHY    C1 1710  14.500  14.680   6.499
 1791ETHY    C1 1711  14.198  14.844   6.085
 1792ETHY    C1 1712  13.844  15.056   5.748
 1793ETHY    C1 1713  13.451  15.310   5.494
 1794ETHY    C1 1714  13.026  15.603   5.324
 1795THSLK    S 1715  15.105  14.296   6.571
 1796ETHY    C1 1716  15.028  14.184   6.136
 1797ETHY    C1 1717  14.912  14.139   5.612
 1798ETHY    C1 1718  14.776  14.195   5.101
 1799ETHY    C1 1719  14.626  14.349   4.613
 1800ETHY    C1 1720  14.466  14.594   4.156
 1801AUSL   AUS 1721  15.927  14.595   7.502
 1802AUSL   AUS 1722  15.857  14.450   7.085
 1803AUL    AUL 1723  16.141  14.676   7.198
 1804THSLK    S 1724  16.036  14.553   6.930
 1805ETHY    C1 1725  16.403  14.564   6.659
 1806ETHY    C1 1726  16.818  14.666   6.332
 1807ETHY    C1 1727  17.196  14.864   6.014
 1808ETHY    C1 1728  17.530  15.151   5.713
 1809ETHY    C1 1729  17.816  15.521   5.438
 1810THSLK    S 1730  16.195  14.651   7.506
 1811ETHY    C1 1731  16.647  14.712   7.508
 1812ETHY    C1 1732  17.161  14.871   7.507
 1813ETHY    C1 1733  17.629  15.125   7.505
 1814ETHY    C1 1734  18.042  15.462   7.506
 1815ETHY    C1 1735  18.394  15.876   7.509
 1816AUSL   AUS 1736  16.021  14.349   7.350
 1817AUSL   AUS 1737  16.021  14.022   7.653
 1818AUL    AUL 1738  16.329  14.186   7.502
 1819THSLK    S 1739  16.280  14.392   7.348
 1820ETHY    C1 1740  16.725  14.322   7.278
 1821ETHY    C1 1741  17.256  14.329   7.190
 1822ETHY    C1 1742  17.769  14.439   7.101
 1823ETHY    C1 1743  18.254  14.645   7.017
 1824ETHY    C1 1744  18.701  14.942   6.940
 1825THSLK    S 1745  16.253  13.884   7.662
 1826ETHY    C1 1746  16.599  13.595   7.728
 1827ETHY    C1 1747  17.060  13.328   7.809
 1828ETHY    C1 1748  17.557  13.159   7.892
 1829ETHY    C1 1749  18.078  13.087   7.980
 1830ETHY    C1 1750  18.613  13.113   8.071
 1831AUSL   AUS 1751  16.021  14.349   7.653
 1832AUSL   AUS 1752  15.764  14.696   7.766
 1833AUL    AUL 1753  16.141  14.676   7.805
 1834THSLK    S 1754  15.947  14.815   7.926
 1835ETHY    C1 1755  16.319  14.970   8.139
 1836ETHY    C1 1756  16.719  15.235   8.385
 1837ETHY    C1 1757  17.053  15.579   8.615
 1838ETHY    C1 1758  17.315  15.992   8.827
 1839ETHY    C1 1759  17.502  16.464   9.019
 1840THSLK    S 1760  16.279  14.392   7.664
 1841ETHY    C1 1761  16.723  14.322   7.738
 1842ETHY    C1 1762  17.254  14.329   7.825
 1843ETHY    C1 1763  17.768  14.439   7.910
 1844ETHY    C1 1764  18.252  14.645   7.994
 1845ETHY    C1 1765  18.699  14.942   8.078
 1846AUSL   AUS 1766  14.767  14.595   7.502
 1847AUSL   AUS 1767  14.837  14.450   7.918
 1848AUL    AUL 1768  14.553  14.676   7.805
 1849THSLK    S 1769  14.701  14.573   8.109
 1850ETHY    C1 1770  14.492  14.669   8.503
 1851ETHY    C1 1771  14.191  14.835   8.917
 1852ETHY    C1 1772  13.840  15.050   9.254
 1853ETHY    C1 1773  13.446  15.304   9.509
 1854ETHY    C1 1774  13.017  15.591   9.678
 1855THSLK    S 1775  14.551  14.735   7.506
 1856ETHY    C1 1776  14.295  15.113   7.508
 1857ETHY    C1 1777  13.922  15.501   7.507
 1858ETHY    C1 1778  13.486  15.807   7.505
 1859ETHY    C1 1779  13.000  16.025   7.506
 1860ETHY    C1 1780  12.473  16.155   7.509
 1861AUSL   AUS 1781  14.673  14.349   7.350
 1862AUSL   AUS 1782  14.931  14.696   7.237
 1863AUL    AUL 1783  14.553  14.676   7.198
 1864THSLK    S 1784  14.442  14.464   7.303
 1865ETHY    C1 1785  14.095  14.652   7.075
 1866ETHY    C1 1786  13.635  14.844   6.872
 1867ETHY    C1 1787  13.137  14.994   6.758
 1868ETHY    C1 1788  12.616  15.104   6.733
 1869ETHY    C1 1789  12.082  15.174   6.796
 1870THSLK    S 1790  14.815  14.861   7.058
 1871ETHY    C1 1791  14.699  15.177   6.750
 1872ETHY    C1 1792  14.485  15.555   6.432
 1873ETHY    C1 1793  14.193  15.924   6.183
 1874ETHY    C1 1794  13.835  16.277   6.008
 1875ETHY    C1 1795  13.417  16.610   5.909
 1876AUSL   AUS 1796  14.673  14.349   7.653
 1877AUSL   AUS 1797  14.673  14.022   7.350
 1878AUL    AUL 1798  14.365  14.186   7.502
 1879THSLK    S 1799  14.415  13.948   7.390
 1880ETHY    C1 1800  13.971  13.913   7.486
 1881ETHY    C1 1801  13.440  13.832   7.518
 1882ETHY    C1 1802  12.926  13.707   7.458
 1883ETHY    C1 1803  12.442  13.539   7.311
 1884ETHY    C1 1804  11.995  13.332   7.083
 1885THSLK    S 1805  14.440  14.456   7.704
 1886ETHY    C1 1806  14.093  14.640   7.935
 1887ETHY    C1 1807  13.633  14.833   8.137
 1888ETHY    C1 1808  13.136  14.988   8.249
 1889ETHY    C1 1809  12.615  15.098   8.274
 1890ETHY    C1 1810  12.079  15.161   8.213
 1891AUSL   AUS 1811  15.927  13.776   7.502
 1892AUSL   AUS 1812  15.857  13.921   7.918
 1893AUL    AUL 1813  16.141  13.695   7.805
 1894THSLK    S 1814  16.143  13.636   7.506
 1895ETHY    C1 1815  16.399  13.258   7.508
 1896ETHY    C1 1816  16.772  12.870   7.507
 1897ETHY    C1 1817  17.208  12.564   7.505
 1898ETHY    C1 1818  17.694  12.346   7.506
 1899ETHY    C1 1819  18.221  12.216   7.509
 1900THSLK    S 1820  15.989  13.731   8.066
 1901ETHY    C1 1821  16.194  13.388   8.285
 1902ETHY    C1 1822  16.496  13.046   8.570
 1903ETHY    C1 1823  16.850  12.793   8.877
 1904ETHY    C1 1824  17.244  12.630   9.198
 1905ETHY    C1 1825  17.668  12.560   9.529
 1906AUSL   AUS 1826  16.021  14.022   7.350
 1907AUSL   AUS 1827  15.764  13.675   7.237
 1908AUL    AUL 1828  16.141  13.695   7.198
 1909THSLK    S 1829  16.254  13.884   7.350
 1910ETHY    C1 1830  16.602  13.595   7.289
 1911ETHY    C1 1831  17.061  13.328   7.206
 1912ETHY    C1 1832  17.558  13.159   7.118
 1913ETHY    C1 1833  18.080  13.087   7.031
 1914ETHY    C1 1834  18.615  13.113   6.947
 1915THSLK    S 1835  15.883  13.485   7.104
 1916ETHY    C1 1836  16.000  13.068   6.963
 1917ETHY    C1 1837  16.214  12.614   6.765
 1918ETHY    C1 1838  16.504  12.228   6.543
 1919ETHY    C1 1839  16.863  11.913   6.306
 1920ETHY    C1 1840  17.283  11.674   6.058
 1921AUSL   AUS 1841  14.767  13.776   7.502
 1922AUSL   AUS 1842  14.837  13.921   7.085
 1923AUL    AUL 1843  14.553  13.695   7.198
 1924THSLK    S 1844  14.664  13.750   6.973
 1925ETHY    C1 1845  14.299  13.493   6.877
 1926ETHY    C1 1846  13.883  13.216   6.679
 1927ETHY    C1 1847  13.503  12.979   6.392
 1928ETHY    C1 1848  13.169  12.783   6.025
 1929ETHY    C1 1849  12.887  12.631   5.587
 1930THSLK    S 1850  14.499  13.720   7.506
 1931ETHY    C1 1851  14.047  13.659   7.508
 1932ETHY    C1 1852  13.533  13.500   7.507
 1933ETHY    C1 1853  13.065  13.246   7.505
 1934ETHY    C1 1854  12.652  12.909   7.506
 1935ETHY    C1 1855  12.300  12.495   7.509
 1936AUSL   AUS 1856  14.673  14.022   7.653
 1937AUSL   AUS 1857  14.931  13.675   7.766
 1938AUL    AUL 1858  14.553  13.695   7.805
 1939THSLK    S 1859  14.743  13.531   7.880
 1940ETHY    C1 1860  14.369  13.274   7.926
 1941ETHY    C1 1861  13.971  12.934   8.052
 1942ETHY    C1 1862  13.638  12.572   8.255
 1943ETHY    C1 1863  13.376  12.198   8.529
 1944ETHY    C1 1864  13.185  11.820   8.870
 1945THSLK    S 1865  14.414  13.955   7.617
 1946ETHY    C1 1866  13.969  13.925   7.524
 1947ETHY    C1 1867  13.438  13.843   7.490
 1948ETHY    C1 1868  12.925  13.714   7.549
 1949ETHY    C1 1869  12.441  13.546   7.696
 1950ETHY    C1 1870  11.993  13.344   7.928
 1951AUSL   AUS 1871  15.347  14.766   7.911
 1952AUSL   AUS 1872  14.931  14.696   7.766
 1953AUL    AUL 1873  15.044  14.980   7.992
 1954THSLK    S 1874  14.811  14.855   7.950
 1955ETHY    C1 1875  14.694  15.167   8.261
 1956ETHY    C1 1876  14.480  15.547   8.578
 1957ETHY    C1 1877  14.190  15.918   8.824
 1958ETHY    C1 1878  13.832  16.272   9.000
 1959ETHY    C1 1879  13.411  16.600   9.102
 1960THSLK    S 1880  15.387  14.992   8.035
 1961ETHY    C1 1881  15.544  15.294   8.339
 1962ETHY    C1 1882  15.659  15.700   8.672
 1963ETHY    C1 1883  15.686  16.144   8.964
 1964ETHY    C1 1884  15.626  16.613   9.211
 1965ETHY    C1 1885  15.482  17.097   9.410
 1966AUSL   AUS 1886  15.195  14.859   7.665
 1967AUSL   AUS 1887  15.499  14.859   7.338
 1968AUL    AUL 1888  15.347  15.167   7.502
 1969THSLK    S 1889  15.236  15.107   7.774
 1970ETHY    C1 1890  15.345  15.517   7.942
 1971ETHY    C1 1891  15.389  16.024   8.118
 1972ETHY    C1 1892  15.332  16.532   8.265
 1973ETHY    C1 1893  15.179  17.029   8.383
 1974ETHY    C1 1894  14.936  17.506   8.472
 1975THSLK    S 1895  15.552  15.094   7.241
 1976ETHY    C1 1896  15.797  15.450   7.094
 1977ETHY    C1 1897  16.010  15.915   6.927
 1978ETHY    C1 1898  16.125  16.413   6.779
 1979ETHY    C1 1899  16.145  16.932   6.655
 1980ETHY    C1 1900  16.070  17.461   6.558
 1981AUSL   AUS 1901  15.499  14.859   7.665
 1982AUSL   AUS 1902  15.612  14.602   8.012
 1983AUL    AUL 1903  15.650  14.980   7.992
 1984THSLK    S 1904  15.784  14.715   8.184
 1985ETHY    C1 1905  16.069  14.818   8.524
 1986ETHY    C1 1906  16.371  15.022   8.921
 1987ETHY    C1 1907  16.616  15.312   9.294
 1988ETHY    C1 1908  16.800  15.675   9.638
 1989ETHY    C1 1909  16.919  16.105   9.948
 1990THSLK    S 1910  15.550  15.093   7.771
 1991ETHY    C1 1911  15.794  15.447   7.922
 1992ETHY    C1 1912  16.007  15.913   8.087
 1993ETHY    C1 1913  16.123  16.412   8.231
 1994ETHY    C1 1914  16.142  16.930   8.356
 1995ETHY    C1 1915  16.067  17.458   8.458
 1996AUSL   AUS 1916  15.347  13.606   7.911
 1997AUSL   AUS 1917  15.764  13.675   7.766
 1998AUL    AUL 1918  15.650  13.391   7.992
 1999THSLK    S 1919  15.303  13.351   7.990
 2000ETHY    C1 1920  15.143  12.947   8.128
 2001ETHY    C1 1921  15.029  12.466   8.341
 2002ETHY    C1 1922  15.004  12.005   8.605
 2003ETHY    C1 1923  15.063  11.575   8.915
 2004ETHY    C1 1924  15.204  11.183   9.263
 2005THSLK    S 1925  15.879  13.486   7.908
 2006ETHY    C1 1926  15.995  13.070   8.052
 2007ETHY    C1 1927  16.209  12.617   8.248
 2008ETHY    C1 1928  16.501  12.229   8.467
 2009ETHY    C1 1929  16.860  11.914   8.705
 2010ETHY    C1 1930  17.277  11.677   8.958
 2011AUSL   AUS 1931  15.195  13.512   7.665
 2012AUSL   AUS 1932  15.082  13.769   8.012
 2013AUL    AUL 1933  15.044  13.391   7.992
 2014THSLK    S 1934  15.142  13.272   7.745
 2015ETHY    C1 1935  14.897  12.891   7.801
 2016ETHY    C1 1936  14.684  12.406   7.897
 2017ETHY    C1 1937  14.569  11.903   8.025
 2018ETHY    C1 1938  14.550  11.394   8.186
 2019ETHY    C1 1939  14.624  10.891   8.374
 2020THSLK    S 1940  14.904  13.601   8.133
 2021ETHY    C1 1941  14.616  13.283   8.289
 2022ETHY    C1 1942  14.316  12.923   8.552
 2023ETHY    C1 1943  14.073  12.597   8.896
 2024ETHY    C1 1944  13.889  12.314   9.309
 2025ETHY    C1 1945  13.765  12.080   9.783
 2026AUSL   AUS 1946  15.499  13.512   7.665
 2027AUSL   AUS 1947  15.195  13.512   7.338
 2028AUL    AUL 1948  15.347  13.204   7.502
 2029THSLK    S 1949  15.144  13.269   7.266
 2030ETHY    C1 1950  14.900  12.887   7.215
 2031ETHY    C1 1951  14.687  12.403   7.117
 2032ETHY    C1 1952  14.571  11.901   6.984
 2033ETHY    C1 1953  14.552  11.392   6.825
 2034ETHY    C1 1954  14.628  10.887   6.642
 2035THSLK    S 1955  15.456  13.256   7.749
 2036ETHY    C1 1956  15.346  12.820   7.821
 2037ETHY    C1 1957  15.303  12.294   7.928
 2038ETHY    C1 1958  15.360  11.782   8.059
 2039ETHY    C1 1959  15.513  11.294   8.213
 2040ETHY    C1 1960  15.755  10.841   8.388
 2041AUSL   AUS 1961  15.347  14.766   7.093
 2042AUSL   AUS 1962  15.764  14.696   7.237
 2043AUL    AUL 1963  15.650  14.980   7.011
 2044THSLK    S 1964  15.391  14.996   6.975
 2045ETHY    C1 1965  15.551  15.300   6.674
 2046ETHY    C1 1966  15.665  15.705   6.339
 2047ETHY    C1 1967  15.690  16.148   6.045
 2048ETHY    C1 1968  15.631  16.617   5.798
 2049ETHY    C1 1969  15.490  17.104   5.604
 2050THSLK    S 1970  15.951  14.817   7.085
 2051ETHY    C1 1971  16.325  14.973   6.876
 2052ETHY    C1 1972  16.723  15.237   6.629
 2053ETHY    C1 1973  17.056  15.581   6.395
 2054ETHY    C1 1974  17.318  15.993   6.184
 2055ETHY    C1 1975  17.509  16.467   5.998
 2056AUSL   AUS 1976  15.195  14.859   7.338
 2057AUSL   AUS 1977  15.082  14.602   6.992
 2058AUL    AUL 1978  15.044  14.980   7.011
 2059THSLK    S 1979  15.238  15.110   7.237
 2060ETHY    C1 1980  15.348  15.521   7.074
 2061ETHY    C1 1981  15.391  16.027   6.896
 2062ETHY    C1 1982  15.334  16.535   6.745
 2063ETHY    C1 1983  15.181  17.032   6.627
 2064ETHY    C1 1984  14.939  17.511   6.545
 2065THSLK    S 1985  14.968  14.737   6.802
 2066ETHY    C1 1986  14.902  14.909   6.385
 2067ETHY    C1 1987  14.759  15.161   5.932
 2068ETHY    C1 1988  14.550  15.460   5.544
 2069ETHY    C1 1989  14.284  15.798   5.230
 2070ETHY    C1 1990  13.968  16.171   4.993
 2071AUSL   AUS 1991  15.347  13.606   7.093
 2072AUSL   AUS 1992  14.931  13.675   7.237
 2073AUL    AUL 1993  15.044  13.391   7.011
 2074THSLK    S 1994  14.747  13.525   7.128
 2075ETHY    C1 1995  14.375  13.264   7.085
 2076ETHY    C1 1996  13.976  12.926   6.958
 2077ETHY    C1 1997  13.641  12.567   6.753
 2078ETHY    C1 1998  13.379  12.193   6.478
 2079ETHY    C1 1999  13.192  11.810   6.142
 2080THSLK    S 2000  15.307  13.347   7.019
 2081ETHY    C1 2001  15.150  12.941   6.885
 2082ETHY    C1 2002  15.035  12.461   6.671
 2083ETHY    C1 2003  15.008  12.002   6.404
 2084ETHY    C1 2004  15.068  11.571   6.094
 2085ETHY    C1 2005  15.212  11.176   5.751
 2086AUSL   AUS 2006  15.499  13.512   7.338
 2087AUSL   AUS 2007  15.612  13.769   6.992
 2088AUL    AUL 2008  15.650  13.391   7.011
 2089THSLK    S 2009  15.458  13.255   7.262
 2090ETHY    C1 2010  15.349  12.817   7.195
 2091ETHY    C1 2011  15.306  12.291   7.086
 2092ETHY    C1 2012  15.362  11.780   6.951
 2093ETHY    C1 2013  15.515  11.292   6.798
 2094ETHY    C1 2014  15.759  10.838   6.629
 2095THSLK    S 2015  15.732  13.579   6.853
 2096ETHY    C1 2016  15.801  13.193   6.621
 2097ETHY    C1 2017  15.943  12.785   6.300
 2098ETHY    C1 2018  16.150  12.449   5.942
 2099ETHY    C1 2019  16.416  12.192   5.559
 2100ETHY    C1 2020  16.736  12.014   5.158
 2101AUC    AUC 2021  41.180   5.248   7.502
 2102AUC    AUC 2022  41.426   5.248   7.350
 2103AUC    AUC 2023  41.426   5.248   7.653
 2104AUC    AUC 2024  40.935   5.248   7.350
 2105AUC    AUC 2025  40.935   5.248   7.653
 2106AUC    AUC 2026  41.028   5.493   7.502
 2107AUC    AUC 2027  41.332   5.493   7.502
 2108AUC    AUC 2028  41.028   5.002   7.502
 2109AUC    AUC 2029  41.332   5.002   7.502
 2110AUC    AUC 2030  41.180   5.096   7.747
 2111AUC    AUC 2031  41.180   5.399   7.747
 2112AUC    AUC 2032  41.180   5.096   7.256
 2113AUC    AUC 2033  41.180   5.399   7.256
 2114AUC    AUC 2034  41.671   5.248   7.198
 2115AUC    AUC 2035  41.671   5.248   7.502
 2116AUC    AUC 2036  41.671   5.248   7.805
 2117AUC    AUC 2037  40.689   5.248   7.198
 2118AUC    AUC 2038  40.689   5.248   7.502
 2119AUC    AUC 2039  40.689   5.248   7.805
 2120AUC    AUC 2040  40.877   5.738   7.502
 2121AUC    AUC 2041  41.180   5.738   7.502
 2122AUC    AUC 2042  41.483   5.738   7.502
 2123AUC    AUC 2043  40.877   4.757   7.502
 2124AUC    AUC 2044  41.180   4.757   7.502
 2125AUC    AUC 2045  41.483   4.757   7.502
 2126AUC    AUC 2046  41.180   4.944   7.992
 2127AUC    AUC 2047  41.180   5.248   7.992
 2128AUC    AUC 2048  41.180   5.551   7.992
 2129AUC    AUC 2049  41.180   4.944   7.011
 2130AUC    AUC 2050  41.180   5.248   7.011
 2131AUC    AUC 2051  41.180   5.551   7.011
 2132AUC    AUC 2052  41.426   5.096   7.899
 2133AUC    AUC 2053  41.426   5.399   7.899
 2134AUC    AUC 2054  41.426   5.096   7.105
 2135AUC    AUC 2055  41.426   5.399   7.105
 2136AUC    AUC 2056  40.935   5.096   7.899
 2137AUC    AUC 2057  40.935   5.399   7.899
 2138AUC    AUC 2058  40.935   5.096   7.105
 2139AUC    AUC 2059  40.935   5.399   7.105
 2140AUC    AUC 2060  41.577   5.493   7.350
 2141AUC    AUC 2061  41.577   5.493   7.653
 2142AUC    AUC 2062  40.783   5.493   7.350
 2143AUC    AUC 2063  40.783   5.493   7.653
 2144AUC    AUC 2064  41.577   5.002   7.350
 2145AUC    AUC 2065  41.577   5.002   7.653
 2146AUC    AUC 2066  40.783   5.002   7.350
 2147AUC    AUC 2067  40.783   5.002   7.653
 2148AUC    AUC 2068  41.028   5.645   7.747
 2149AUC    AUC 2069  41.332   5.645   7.747
 2150AUC    AUC 2070  41.028   4.850   7.747
 2151AUC    AUC 2071  41.332   4.850   7.747
 2152AUC    AUC 2072  41.028   5.645   7.256
 2153AUC    AUC 2073  41.332   5.645   7.256
 2154AUC    AUC 2074  41.028   4.850   7.256
 2155AUC    AUC 2075  41.332   4.850   7.256
 2156AUSL   AUS 2076  41.589   5.248   8.082
 2157AUSL   AUS 2077  41.445   4.831   8.012
 2158AUL    AUL 2078  41.671   4.944   8.296
 2159THSLK    S 2079  41.559   4.643   8.156
 2160ETHY    C1 2080  41.625   4.258   8.391
 2161ETHY    C1 2081  41.768   3.850   8.710
 2162ETHY    C1 2082  41.977   3.514   9.066
 2163ETHY    C1 2083  42.243   3.256   9.450
 2164ETHY    C1 2084  42.559   3.080   9.855
 2165THSLK    S 2085  41.685   5.198   8.326
 2166ETHY    C1 2086  41.901   5.012   8.681
 2167ETHY    C1 2087  42.176   4.877   9.124
 2168ETHY    C1 2088  42.457   4.847   9.575
 2169ETHY    C1 2089  42.735   4.916  10.025
 2170ETHY    C1 2090  43.004   5.084  10.466
 2171AUSL   AUS 2091  41.344   5.096   8.175
 2172AUSL   AUS 2092  41.017   5.399   8.175
 2173AUL    AUL 2093  41.180   5.248   8.483
 2174THSLK    S 2094  41.422   5.043   8.417
 2175ETHY    C1 2095  41.499   4.793   8.790
 2176ETHY    C1 2096  41.615   4.576   9.269
 2177ETHY    C1 2097  41.752   4.460   9.769
 2178ETHY    C1 2098  41.902   4.442  10.281
 2179ETHY    C1 2099  42.061   4.523  10.794
 2180THSLK    S 2100  40.930   5.356   8.431
 2181ETHY    C1 2101  40.848   5.244   8.864
 2182ETHY    C1 2102  40.734   5.198   9.388
 2183ETHY    C1 2103  40.602   5.256   9.901
 2184ETHY    C1 2104  40.451   5.409  10.389
 2185ETHY    C1 2105  40.285   5.653  10.844
 2186AUSL   AUS 2106  41.344   5.399   8.175
 2187AUSL   AUS 2107  41.690   5.512   7.918
 2188AUL    AUL 2108  41.671   5.551   8.296
 2189THSLK    S 2109  41.431   5.453   8.414
 2190ETHY    C1 2110  41.512   5.704   8.786
 2191ETHY    C1 2111  41.626   5.920   9.265
 2192ETHY    C1 2112  41.759   6.036   9.767
 2193ETHY    C1 2113  41.909   6.054  10.279
 2194ETHY    C1 2114  42.075   5.974  10.789
 2195THSLK    S 2115  41.864   5.614   8.080
 2196ETHY    C1 2116  42.228   5.624   8.354
 2197ETHY    C1 2117  42.644   5.726   8.680
 2198ETHY    C1 2118  43.024   5.925   8.995
 2199ETHY    C1 2119  43.359   6.212   9.296
 2200ETHY    C1 2120  43.640   6.580   9.577
 2201AUSL   AUS 2121  41.589   5.248   6.922
 2202AUSL   AUS 2122  41.445   5.664   6.992
 2203AUL    AUL 2123  41.671   5.551   6.707
 2204THSLK    S 2124  41.692   5.198   6.681
 2205ETHY    C1 2125  41.913   5.012   6.329
 2206ETHY    C1 2126  42.186   4.877   5.885
 2207ETHY    C1 2127  42.464   4.847   5.432
 2208ETHY    C1 2128  42.742   4.916   4.982
 2209ETHY    C1 2129  43.016   5.084   4.545
 2210THSLK    S 2130  41.623   5.779   6.825
 2211ETHY    C1 2131  41.911   5.884   6.488
 2212ETHY    C1 2132  42.211   6.088   6.090
 2213ETHY    C1 2133  42.454   6.376   5.714
 2214ETHY    C1 2134  42.638   6.740   5.371
 2215ETHY    C1 2135  42.762   7.171   5.065
 2216AUSL   AUS 2136  41.344   5.096   6.828
 2217AUSL   AUS 2137  41.690   4.983   7.085
 2218AUL    AUL 2138  41.671   4.944   6.707
 2219THSLK    S 2139  41.827   4.791   6.944
 2220ETHY    C1 2140  42.035   4.448   6.729
 2221ETHY    C1 2141  42.336   4.106   6.442
 2222ETHY    C1 2142  42.687   3.853   6.133
 2223ETHY    C1 2143  43.081   3.691   5.812
 2224ETHY    C1 2144  43.510   3.620   5.486
 2225THSLK    S 2145  41.431   5.042   6.590
 2226ETHY    C1 2146  41.512   4.791   6.217
 2227ETHY    C1 2147  41.626   4.575   5.738
 2228ETHY    C1 2148  41.759   4.459   5.236
 2229ETHY    C1 2149  41.909   4.441   4.725
 2230ETHY    C1 2150  42.075   4.521   4.214
 2231AUSL   AUS 2151  41.344   5.399   6.828
 2232AUSL   AUS 2152  41.017   5.096   6.828
 2233AUL    AUL 2153  41.180   5.248   6.520
 2234THSLK    S 2154  40.922   5.042   6.592
 2235ETHY    C1 2155  40.785   4.794   6.235
 2236ETHY    C1 2156  40.625   4.580   5.767
 2237ETHY    C1 2157  40.478   4.465   5.269
 2238ETHY    C1 2158  40.351   4.446   4.751
 2239ETHY    C1 2159  40.246   4.522   4.224
 2240THSLK    S 2160  41.447   5.357   6.578
 2241ETHY    C1 2161  41.588   5.242   6.160
 2242ETHY    C1 2162  41.746   5.195   5.647
 2243ETHY    C1 2163  41.889   5.251   5.138
 2244ETHY    C1 2164  42.017   5.405   4.643
 2245ETHY    C1 2165  42.128   5.653   4.174
 2246AUSL   AUS 2166  40.771   5.248   8.082
 2247AUSL   AUS 2167  40.915   5.664   8.012
 2248AUL    AUL 2168  40.689   5.551   8.296
 2249THSLK    S 2169  40.668   5.198   8.322
 2250ETHY    C1 2170  40.447   5.012   8.674
 2251ETHY    C1 2171  40.174   4.877   9.118
 2252ETHY    C1 2172  39.897   4.847   9.571
 2253ETHY    C1 2173  39.619   4.916  10.021
 2254ETHY    C1 2174  39.344   5.084  10.458
 2255THSLK    S 2175  40.795   5.793   8.202
 2256ETHY    C1 2176  40.726   5.962   8.620
 2257ETHY    C1 2177  40.584   6.215   9.073
 2258ETHY    C1 2178  40.378   6.516   9.460
 2259ETHY    C1 2179  40.111   6.855   9.775
 2260ETHY    C1 2180  39.791   7.222  10.013
 2261AUSL   AUS 2181  41.017   5.096   8.175
 2262AUSL   AUS 2182  40.670   4.983   7.918
 2263AUL    AUL 2183  40.689   4.944   8.296
 2264THSLK    S 2184  40.492   4.819   8.029
 2265ETHY    C1 2185  40.124   4.566   8.125
 2266ETHY    C1 2186  39.709   4.287   8.323
 2267ETHY    C1 2187  39.331   4.047   8.611
 2268ETHY    C1 2188  38.997   3.851   8.978
 2269ETHY    C1 2189  38.711   3.705   9.415
 2270THSLK    S 2190  40.914   5.044   8.410
 2271ETHY    C1 2191  40.772   4.797   8.766
 2272ETHY    C1 2192  40.614   4.582   9.233
 2273ETHY    C1 2193  40.471   4.466   9.733
 2274ETHY    C1 2194  40.344   4.448  10.250
 2275ETHY    C1 2195  40.232   4.526  10.775
 2276AUSL   AUS 2196  40.771   5.248   6.922
 2277AUSL   AUS 2197  40.915   4.831   6.992
 2278AUL    AUL 2198  40.689   4.944   6.707
 2279THSLK    S 2199  40.676   5.198   6.677
 2280ETHY    C1 2200  40.459   5.012   6.322
 2281ETHY    C1 2201  40.184   4.877   5.879
 2282ETHY    C1 2202  39.903   4.847   5.429
 2283ETHY    C1 2203  39.625   4.916   4.978
 2284ETHY    C1 2204  39.357   5.084   4.537
 2285THSLK    S 2205  40.743   4.657   6.872
 2286ETHY    C1 2206  40.458   4.336   6.717
 2287ETHY    C1 2207  40.157   3.977   6.453
 2288ETHY    C1 2208  39.912   3.654   6.109
 2289ETHY    C1 2209  39.728   3.371   5.696
 2290ETHY    C1 2210  39.609   3.131   5.223
 2291AUSL   AUS 2211  41.017   5.399   6.828
 2292AUSL   AUS 2212  40.670   5.512   7.085
 2293AUL    AUL 2213  40.689   5.551   6.707
 2294THSLK    S 2214  40.539   5.642   6.893
 2295ETHY    C1 2215  40.333   5.742   6.499
 2296ETHY    C1 2216  40.031   5.906   6.085
 2297ETHY    C1 2217  39.677   6.118   5.748
 2298ETHY    C1 2218  39.284   6.372   5.494
 2299ETHY    C1 2219  38.859   6.665   5.324
 2300THSLK    S 2220  40.938   5.358   6.571
 2301ETHY    C1 2221  40.861   5.246   6.136
 2302ETHY    C1 2222  40.745   5.201   5.612
 2303ETHY    C1 2223  40.609   5.257   5.101
 2304ETHY    C1 2224  40.459   5.411   4.613
 2305ETHY    C1 2225  40.299   5.656   4.156
 2306AUSL   AUS 2226  41.760   5.657   7.502
 2307AUSL   AUS 2227  41.690   5.512   7.085
 2308AUL    AUL 2228  41.974   5.738   7.198
 2309THSLK    S 2229  41.869   5.615   6.930
 2310ETHY    C1 2230  42.236   5.626   6.659
 2311ETHY    C1 2231  42.651   5.728   6.332
 2312ETHY    C1 2232  43.029   5.926   6.014
 2313ETHY    C1 2233  43.363   6.213   5.713
 2314ETHY    C1 2234  43.649   6.583   5.438
 2315THSLK    S 2235  42.028   5.713   7.506
 2316ETHY    C1 2236  42.480   5.774   7.508
 2317ETHY    C1 2237  42.994   5.933   7.507
 2318ETHY    C1 2238  43.462   6.187   7.505
 2319ETHY    C1 2239  43.875   6.524   7.506
 2320ETHY    C1 2240  44.227   6.938   7.509
 2321AUSL   AUS 2241  41.854   5.411   7.350
 2322AUSL   AUS 2242  41.854   5.084   7.653
 2323AUL    AUL 2243  42.162   5.248   7.502
 2324THSLK    S 2244  42.113   5.454   7.348
 2325ETHY    C1 2245  42.558   5.384   7.278
 2326ETHY    C1 2246  43.089   5.391   7.190
 2327ETHY    C1 2247  43.602   5.501   7.101
 2328ETHY    C1 2248  44.087   5.707   7.017
 2329ETHY    C1 2249  44.534   6.004   6.940
 2330THSLK    S 2250  42.086   4.946   7.662
 2331ETHY    C1 2251  42.432   4.657   7.728
 2332ETHY    C1 2252  42.893   4.390   7.809
 2333ETHY    C1 2253  43.390   4.221   7.892
 2334ETHY    C1 2254  43.911   4.149   7.980
 2335ETHY    C1 2255  44.446   4.175   8.071
 2336AUSL   AUS 2256  41.854   5.411   7.653
 2337AUSL   AUS 2257  41.597   5.758   7.766
 2338AUL    AUL 2258  41.974   5.738   7.805
 2339THSLK    S 2259  41.780   5.877   7.926
 2340ETHY    C1 2260  42.152   6.032   8.139
 2341ETHY    C1 2261  42.552   6.297   8.385
 2342ETHY    C1 2262  42.886   6.641   8.615
 2343ETHY    C1 2263  43.148   7.054   8.827
 2344ETHY    C1 2264  43.335   7.526   9.019
 2345THSLK    S 2265  42.112   5.454   7.664
 2346ETHY    C1 2266  42.556   5.384   7.738
 2347ETHY    C1 2267  43.087   5.391   7.825
 2348ETHY    C1 2268  43.601   5.501   7.910
 2349ETHY    C1 2269  44.085   5.707   7.994
 2350ETHY    C1 2270  44.532   6.004   8.078
 2351AUSL   AUS 2271  40.600   5.657   7.502
 2352AUSL   AUS 2272  40.670   5.512   7.918
 2353AUL    AUL 2273  40.386   5.738   7.805
 2354THSLK    S 2274  40.534   5.635   8.109
 2355ETHY    C1 2275  40.325   5.731   8.503
 2356ETHY    C1 2276  40.024   5.897   8.917
 2357ETHY    C1 2277  39.673   6.112   9.254
 2358ETHY    C1 2278  39.279   6.366   9.509
 2359ETHY    C1 2279  38.850   6.653   9.678
 2360THSLK    S 2280  40.384   5.797   7.506
 2361ETHY    C1 2281  40.128   6.175   7.508
 2362ETHY    C1 2282  39.755   6.563   7.507
 2363ETHY    C1 2283  39.319   6.869   7.505
 2364ETHY    C1 2284  38.833   7.087   7.506
 2365ETHY    C1 2285  38.306   7.217   7.509
 2366AUSL   AUS 2286  40.506   5.411   7.350
 2367AUSL   AUS 2287  40.764   5.758   7.237
 2368AUL    AUL 2288  40.386   5.738   7.198
 2369THSLK    S 2289  40.275   5.526   7.303
 2370ETHY    C1 2290  39.928   5.714   7.075
 2371ETHY    C1 2291  39.468   5.906   6.872
 2372ETHY    C1 2292  38.970   6.056   6.758
 2373ETHY    C1 2293  38.449   6.166   6.733
 2374ETHY    C1 2294  37.915   6.236   6.796
 2375THSLK    S 2295  40.648   5.923   7.058
 2376ETHY    C1 2296  40.532   6.239   6.750
 2377ETHY    C1 2297  40.318   6.617   6.432
 2378ETHY    C1 2298  40.026   6.986   6.183
 2379ETHY    C1 2299  39.668   7.339   6.008
 2380ETHY    C1 2300  39.250   7.672   5.909
 2381AUSL   AUS 2301  40.506   5.411   7.653
 2382AUSL   AUS 2302  40.506   5.084   7.350
 2383AUL    AUL 2303  40.198   5.248   7.502
 2384THSLK    S 2304  40.248   5.010   7.390
 2385ETHY    C1 2305  39.804   4.975   7.486
 2386ETHY    C1 2306  39.273   4.894   7.518
 2387ETHY    C1 2307  38.759   4.769   7.458
 2388ETHY    C1 2308  38.275   4.601   7.311
 2389ETHY    C1 2309  37.828   4.394   7.083
 2390THSLK    S 2310  40.273   5.518   7.704
 2391ETHY    C1 2311  39.926   5.702   7.935
 2392ETHY    C1 2312  39.466   5.895   8.137
 2393ETHY    C1 2313  38.969   6.050   8.249
 2394ETHY    C1 2314  38.448   6.160   8.274
 2395ETHY    C1 2315  37.912   6.223   8.213
 2396AUSL   AUS 2316  41.760   4.838   7.502
 2397AUSL   AUS 2317  41.690   4.983   7.918
 2398AUL    AUL 2318  41.974   4.757   7.805
 2399THSLK    S 2319  41.976   4.698   7.506
 2400ETHY    C1 2320  42.232   4.320   7.508
 2401ETHY    C1 2321  42.605   3.932   7.507
 2402ETHY    C1 2322  43.041   3.626   7.505
 2403ETHY    C1 2323  43.527   3.408   7.506
 2404ETHY    C1 2324  44.054   3.278   7.509
 2405THSLK    S 2325  41.822   4.793   8.066
 2406ETHY    C1 2326  42.027   4.450   8.285
 2407ETHY    C1 2327  42.329   4.108   8.570
 2408ETHY    C1 2328  42.683   3.855   8.877
 2409ETHY    C1 2329  43.077   3.692   9.198
 2410ETHY    C1 2330  43.501   3.622   9.529
 2411AUSL   AUS 2331  41.854   5.084   7.350
 2412AUSL   AUS 2332  41.597   4.737   7.237
 2413AUL    AUL 2333  41.974   4.757   7.198
 2414THSLK    S 2334  42.087   4.946   7.350
 2415ETHY    C1 2335  42.435   4.657   7.289
 2416ETHY    C1 2336  42.894   4.390   7.206
 2417ETHY    C1 2337  43.391   4.221   7.118
 2418ETHY    C1 2338  43.913   4.149   7.031
 2419ETHY    C1 2339  44.448   4.175   6.947
 2420THSLK    S 2340  41.716   4.547   7.104
 2421ETHY    C1 2341  41.833   4.130   6.963
 2422ETHY    C1 2342  42.047   3.676   6.765
 2423ETHY    C1 2343  42.337   3.290   6.543
 2424ETHY    C1 2344  42.696   2.975   6.306
 2425ETHY    C1 2345  43.116   2.736   6.058
 2426AUSL   AUS 2346  40.600   4.838   7.502
 2427AUSL   AUS 2347  40.670   4.983   7.085
 2428AUL    AUL 2348  40.386   4.757   7.198
 2429THSLK    S 2349  40.497   4.812   6.973
 2430ETHY    C1 2350  40.132   4.555   6.877
 2431ETHY    C1 2351  39.716   4.278   6.679
 2432ETHY    C1 2352  39.336   4.041   6.392
 2433ETHY    C1 2353  39.002   3.845   6.025
 2434ETHY    C1 2354  38.720   3.693   5.587
 2435THSLK    S 2355  40.332   4.782   7.506
 2436ETHY    C1 2356  39.880   4.721   7.508
 2437ETHY    C1 2357  39.366   4.562   7.507
 2438ETHY    C1 2358  38.898   4.308   7.505
 2439ETHY    C1 2359  38.485   3.971   7.506
 2440ETHY    C1 2360  38.133   3.557   7.509
 2441AUSL   AUS 2361  40.506   5.084   7.653
 2442AUSL   AUS 2362  40.764   4.737   7.766
 2443AUL    AUL 2363  40.386   4.757   7.805
 2444THSLK    S 2364  40.576   4.593   7.880
 2445ETHY    C1 2365  40.202   4.336   7.926
 2446ETHY    C1 2366  39.804   3.996   8.052
 2447ETHY    C1 2367  39.471   3.634   8.255
 2448ETHY    C1 2368  39.209   3.260   8.529
 2449ETHY    C1 2369  39.018   2.882   8.870
 2450THSLK    S 2370  40.247   5.017   7.617
 2451ETHY    C1 2371  39.802   4.987   7.524
 2452ETHY    C1 2372  39.271   4.905   7.490
 2453ETHY    C1 2373  38.758   4.776   7.549
 2454ETHY    C1 2374  38.274   4.608   7.696
 2455ETHY    C1 2375  37.826   4.406   7.928
 2456AUSL   AUS 2376  41.180   5.828   7.911
 2457AUSL   AUS 2377  40.764   5.758   7.766
 2458AUL    AUL 2378  40.877   6.042   7.992
 2459THSLK    S 2379  40.644   5.917   7.950
 2460ETHY    C1 2380  40.527   6.229   8.261
 2461ETHY    C1 2381  40.313   6.609   8.578
 2462ETHY    C1 2382  40.023   6.980   8.824
 2463ETHY    C1 2383  39.665   7.334   9.000
 2464ETHY    C1 2384  39.244   7.662   9.102
 2465THSLK    S 2385  41.220   6.054   8.035
 2466ETHY    C1 2386  41.377   6.356   8.339
 2467ETHY    C1 2387  41.492   6.762   8.672
 2468ETHY    C1 2388  41.519   7.206   8.964
 2469ETHY    C1 2389  41.459   7.675   9.211
 2470ETHY    C1 2390  41.315   8.159   9.410
 2471AUSL   AUS 2391  41.028   5.921   7.665
 2472AUSL   AUS 2392  41.332   5.921   7.338
 2473AUL    AUL 2393  41.180   6.229   7.502
 2474THSLK    S 2394  41.069   6.169   7.774
 2475ETHY    C1 2395  41.178   6.579   7.942
 2476ETHY    C1 2396  41.222   7.086   8.118
 2477ETHY    C1 2397  41.165   7.594   8.265
 2478ETHY    C1 2398  41.012   8.091   8.383
 2479ETHY    C1 2399  40.769   8.568   8.472
 2480THSLK    S 2400  41.385   6.156   7.241
 2481ETHY    C1 2401  41.630   6.512   7.094
 2482ETHY    C1 2402  41.843   6.977   6.927
 2483ETHY    C1 2403  41.958   7.475   6.779
 2484ETHY    C1 2404  41.978   7.994   6.655
 2485ETHY    C1 2405  41.903   8.523   6.558
 2486AUSL   AUS 2406  41.332   5.921   7.665
 2487AUSL   AUS 2407  41.445   5.664   8.012
 2488AUL    AUL 2408  41.483   6.042   7.992
 2489THSLK    S 2409  41.617   5.777   8.184
 2490ETHY    C1 2410  41.902   5.880   8.524
 2491ETHY    C1 2411  42.204   6.084   8.921
 2492ETHY    C1 2412  42.449   6.374   9.294
 2493ETHY    C1 2413  42.633   6.737   9.638
 2494ETHY    C1 2414  42.752   7.167   9.948
 2495THSLK    S 2415  41.383   6.155   7.771
 2496ETHY    C1 2416  41.627   6.509   7.922
 2497ETHY    C1 2417  41.840   6.975   8.087
 2498ETHY    C1 2418  41.956   7.474   8.231
 2499ETHY    C1 2419  41.975   7.992   8.356
 2500ETHY    C1 2420  41.900   8.520   8.458
 2501AUSL   AUS 2421  41.180   4.668   7.911
 2502AUSL   AUS 2422  41.597   4.737   7.766
 2503AUL    AUL 2423  41.483   4.453   7.992
 2504THSLK    S 2424  41.136   4.413   7.990
 2505ETHY    C1 2425  40.976   4.009   8.128
 2506ETHY    C1 2426  40.862   3.528   8.341
 2507ETHY    C1 2427  40.837   3.067   8.605
 2508ETHY    C1 2428  40.896   2.637   8.915
 2509ETHY    C1 2429  41.037   2.245   9.263
 2510THSLK    S 2430  41.712   4.548   7.908
 2511ETHY    C1 2431  41.828   4.132   8.052
 2512ETHY    C1 2432  42.042   3.679   8.248
 2513ETHY    C1 2433  42.334   3.291   8.467
 2514ETHY    C1 2434  42.693   2.976   8.705
 2515ETHY    C1 2435  43.110   2.739   8.958
 2516AUSL   AUS 2436  41.028   4.574   7.665
 2517AUSL   AUS 2437  40.915   4.831   8.012
 2518AUL    AUL 2438  40.877   4.453   7.992
 2519THSLK    S 2439  40.975   4.334   7.745
 2520ETHY    C1 2440  40.730   3.953   7.801
 2521ETHY    C1 2441  40.517   3.468   7.897
 2522ETHY    C1 2442  40.402   2.965   8.025
 2523ETHY    C1 2443  40.383   2.456   8.186
 2524ETHY    C1 2444  40.457   1.953   8.374
 2525THSLK    S 2445  40.737   4.663   8.133
 2526ETHY    C1 2446  40.449   4.345   8.289
 2527ETHY    C1 2447  40.149   3.985   8.552
 2528ETHY    C1 2448  39.906   3.659   8.896
 2529ETHY    C1 2449  39.722   3.376   9.309
 2530ETHY    C1 2450  39.598   3.142   9.783
 2531AUSL   AUS 2451  41.332   4.574   7.665
 2532AUSL   AUS 2452  41.028   4.574   7.338
 2533AUL    AUL 2453  41.180   4.266   7.502
 2534THSLK    S 2454  40.977   4.331   7.266
 2535ETHY    C1 2455  40.733   3.949   7.215
 2536ETHY    C1 2456  40.520   3.465   7.117
 2537ETHY    C1 2457  40.404   2.963   6.984
 2538ETHY    C1 2458  40.385   2.454   6.825
 2539ETHY    C1 2459  40.461   1.949   6.642
 2540THSLK    S 2460  41.289   4.318   7.749
 2541ETHY    C1 2461  41.179   3.882   7.821
 2542ETHY    C1 2462  41.136   3.356   7.928
 2543ETHY    C1 2463  41.193   2.844   8.059
 2544ETHY    C1 2464  41.346   2.356   8.213
 2545ETHY    C1 2465  41.588   1.903   8.388
 2546AUSL   AUS 2466  41.180   5.828   7.093
 2547AUSL   AUS 2467  41.597   5.758   7.237
 2548AUL    AUL 2468  41.483   6.042   7.011
 2549THSLK    S 2469  41.224   6.058   6.975
 2550ETHY    C1 2470  41.384   6.362   6.674
 2551ETHY    C1 2471  41.498   6.767   6.339
 2552ETHY    C1 2472  41.523   7.210   6.045
 2553ETHY    C1 2473  41.464   7.679   5.798
 2554ETHY    C1 2474  41.323   8.166   5.604
 2555THSLK    S 2475  41.784   5.879   7.085
 2556ETHY    C1 2476  42.158   6.035   6.876
 2557ETHY    C1 2477  42.556   6.299   6.629
 2558ETHY    C1 2478  42.889   6.643   6.395
 2559ETHY    C1 2479  43.151   7.055   6.184
 2560ETHY    C1 2480  43.342   7.529   5.998
 2561AUSL   AUS 2481  41.028   5.921   7.338
 2562AUSL   AUS 2482  40.915   5.664   6.992
 2563AUL    AUL 2483  40.877   6.042   7.011
 2564THSLK    S 2484  41.071   6.172   7.237
 2565ETHY    C1 2485  41.181   6.583   7.074
 2566ETHY    C1 2486  41.224   7.089   6.896
 2567ETHY    C1 2487  41.167   7.597   6.745
 2568ETHY    C1 2488  41.014   8.094   6.627
 2569ETHY    C1 2489  40.772   8.573   6.545
 2570THSLK    S 2490  40.801   5.799   6.802
 2571ETHY    C1 2491  40.735   5.971   6.385
 2572ETHY    C1 2492  40.592   6.223   5.932
 2573ETHY    C1 2493  40.383   6.522   5.544
 2574ETHY    C1 2494  40.117   6.860   5.230
 2575ETHY    C1 2495  39.801   7.233   4.993
 2576AUSL   AUS 2496  41.180   4.668   7.093
 2577AUSL   AUS 2497  40.764   4.737   7.237
 2578AUL    AUL 2498  40.877   4.453   7.011
 2579THSLK    S 2499  40.580   4.587   7.128
 2580ETHY    C1 2500  40.208   4.326   7.085
 2581ETHY    C1 2501  39.809   3.988   6.958
 2582ETHY    C1 2502  39.474   3.629   6.753
 2583ETHY    C1 2503  39.212   3.255   6.478
 2584ETHY    C1 2504  39.025   2.872   6.142
 2585THSLK    S 2505  41.140   4.409   7.019
 2586ETHY    C1 2506  40.983   4.003   6.885
 2587ETHY    C1 2507  40.868   3.523   6.671
 2588ETHY    C1 2508  40.841   3.064   6.404
 2589ETHY    C1 2509  40.901   2.633   6.094
 2590ETHY    C1 2510  41.045   2.238   5.751
 2591AUSL   AUS 2511  41.332   4.574   7.338
 2592AUSL   AUS 2512  41.445   4.831   6.992
 2593AUL    AUL 2513  41.483   4.453   7.011
 2594THSLK    S 2514  41.291   4.317   7.262
 2595ETHY    C1 2515  41.182   3.879   7.195
 2596ETHY    C1 2516  41.139   3.353   7.086
 2597ETHY    C1 2517  41.195   2.842   6.951
 2598ETHY    C1 2518  41.348   2.354   6.798
 2599ETHY    C1 2519  41.592   1.900   6.629
 2600THSLK    S 2520  41.565   4.641   6.853
 2601ETHY    C1 2521  41.634   4.255   6.621
 2602ETHY    C1 2522  41.776   3.847   6.300
 2603ETHY    C1 2523  41.983   3.511   5.942
 2604ETHY    C1 2524  42.249   3.254   5.559
 2605ETHY    C1 2525  42.569   3.076   5.158
 2606AUC    AUC 2526  14.057  42.983   7.502
 2607AUC    AUC 2527  14.303  42.983   7.350
 2608AUC    AUC 2528  14.303  42.983   7.653
 2609AUC    AUC 2529  13.812  42.983   7.350
 2610AUC    AUC 2530  13.812  42.983   7.653
 2611AUC    AUC 2531  13.905  43.228   7.502
 2612AUC    AUC 2532  14.209  43.228   7.502
 2613AUC    AUC 2533  13.905  42.737   7.502
 2614AUC    AUC 2534  14.209  42.737   7.502
 2615AUC    AUC 2535  14.057  42.831   7.747
 2616AUC    AUC 2536  14.057  43.134   7.747
 2617AUC    AUC 2537  14.057  42.831   7.256
 2618AUC    AUC 2538  14.057  43.134   7.256
 2619AUC    AUC 2539  14.548  42.983   7.198
 2620AUC    AUC 2540  14.548  42.983   7.502
 2621AUC    AUC 2541  14.548  42.983   7.805
 2622AUC    AUC 2542  13.566  42.983   7.198
 2623AUC    AUC 2543  13.566  42.983   7.502
 2624AUC    AUC 2544  13.566  42.983   7.805
 2625AUC    AUC 2545  13.754  43.473   7.502
 2626AUC    AUC 2546  14.057  43.473   7.502
 2627AUC    AUC 2547  14.360  43.473   7.502
 2628AUC    AUC 2548  13.754  42.492   7.502
 2629AUC    AUC 2549  14.057  42.492   7.502
 2630AUC    AUC 2550  14.360  42.492   7.502
 2631AUC    AUC 2551  14.057  42.679   7.992
 2632AUC    AUC 2552  14.057  42.983   7.992
 2633AUC    AUC 2553  14.057  43.286   7.992
 2634AUC    AUC 2554  14.057  42.679   7.011
 2635AUC    AUC 2555  14.057  42.983   7.011
 2636AUC    AUC 2556  14.057  43.286   7.011
 2637AUC    AUC 2557  14.303  42.831   7.899
 2638AUC    AUC 2558  14.303  43.134   7.899
 2639AUC    AUC 2559  14.303  42.831   7.105
 2640AUC    AUC 2560  14.303  43.134   7.105
 2641AUC    AUC 2561  13.812  42.831   7.899
 2642AUC    AUC 2562  13.812  43.134   7.899
 2643AUC    AUC 2563  13.812  42.831   7.105
 2644AUC    AUC 2564  13.812  43.134   7.105
 2645AUC    AUC 2565  14.454  43.228   7.350
 2646AUC    AUC 2566  14.454  43.228   7.653
 2647AUC    AUC 2567  13.660  43.228   7.350
 2648AUC    AUC 2568  13.660  43.228   7.653
 2649AUC    AUC 2569  14.454  42.737   7.350
 2650AUC    AUC 2570  14.454  42.737   7.653
 2651AUC    AUC 2571  13.660  42.737   7.350
 2652AUC    AUC 2572  13.660  42.737   7.653
 2653AUC    AUC 2573  13.905  43.380   7.747
 2654AUC    AUC 2574  14.209  43.380   7.747
 2655AUC    AUC 2575  13.905  42.585   7.747
 2656AUC    AUC 2576  14.209  42.585   7.747
 2657AUC    AUC 2577  13.905  43.380   7.256
 2658AUC    AUC 2578  14.209  43.380   7.256
 2659AUC    AUC 2579  13.905  42.585   7.256
 2660AUC    AUC 2580  14.209  42.585   7.256
 2661AUSL   AUS 2581  14.466  42.983   8.082
 2662AUSL   AUS 2582  14.322  42.566   8.012
 2663AUL    AUL 2583  14.548  42.679   8.296
 2664THSLK    S 2584  14.436  42.378   8.156
 2665ETHY    C1 2585  14.502  41.993   8.391
 2666ETHY    C1 2586  14.645  41.585   8.710
 2667ETHY    C1 2587  14.854  41.249   9.066
 2668ETHY    C1 2588  15.120  40.991   9.450
 2669ETHY    C1 2589  15.436  40.815   9.855
 2670THSLK    S 2590  14.562  42.933   8.326
 2671ETHY    C1 2591  14.778  42.747   8.681
 2672ETHY    C1 2592  15.053  42.612   9.124
 2673ETHY    C1 2593  15.334  42.582   9.575
 2674ETHY    C1 2594  15.612  42.651  10.025
 2675ETHY    C1 2595  15.881  42.819  10.466
 2676AUSL   AUS 2596  14.221  42.831   8.175
 2677AUSL   AUS 2597  13.894  43.134   8.175
 2678AUL    AUL 2598  14.057  42.983   8.483
 2679THSLK    S 2599  14.299  42.778   8.417
 2680ETHY    C1 2600  14.376  42.528   8.790
 2681ETHY    C1 2601  14.492  42.311   9.269
 2682ETHY    C1 2602  14.629  42.195   9.769
 2683ETHY    C1 2603  14.779  42.177  10.281
 2684ETHY    C1 2604  14.938  42.258  10.794
 2685THSLK    S 2605  13.807  43.091   8.431
 2686ETHY    C1 2606  13.725  42.979   8.864
 2687ETHY    C1 2607  13.611  42.933   9.388
 2688ETHY    C1 2608  13.479  42.991   9.901
 2689ETHY    C1 2609  13.328  43.144  10.389
 2690ETHY    C1 2610  13.162  43.388  10.844
 2691AUSL   AUS 2611  14.221  43.134   8.175
 2692AUSL   AUS 2612  14.567  43.247   7.918
 2693AUL    AUL 2613  14.548  43.286   8.296
 2694THSLK    S 2614  14.308  43.188   8.414
 2695ETHY    C1 2615  14.389  43.439   8.786
 2696ETHY    C1 2616  14.503  43.655   9.265
 2697ETHY    C1 2617  14.636  43.771   9.767
 2698ETHY    C1 2618  14.786  43.789  10.279
 2699ETHY    C1 2619  14.952  43.709  10.789
 2700THSLK    S 2620  14.741  43.349   8.080
 2701ETHY    C1 2621  15.105  43.359   8.354
 2702ETHY    C1 2622  15.521  43.461   8.680
 2703ETHY    C1 2623  15.901  43.660   8.995
 2704ETHY    C1 2624  16.236  43.947   9.296
 2705ETHY    C1 2625  16.517  44.315   9.577
 2706AUSL   AUS 2626  14.466  42.983   6.922
 2707AUSL   AUS 2627  14.322  43.399   6.992
 2708AUL    AUL 2628  14.548  43.286   6.707
 2709THSLK    S 2629  14.569  42.933   6.681
 2710ETHY    C1 2630  14.790  42.747   6.329
 2711ETHY    C1 2631  15.063  42.612   5.885
 2712ETHY    C1 2632  15.341  42.582   5.432
 2713ETHY    C1 2633  15.619  42.651   4.982
 2714ETHY    C1 2634  15.893  42.819   4.545
 2715THSLK    S 2635  14.500  43.514   6.825
 2716ETHY    C1 2636  14.788  43.619   6.488
 2717ETHY    C1 2637  15.088  43.823   6.090
 2718ETHY    C1 2638  15.331  44.111   5.714
 2719ETHY    C1 2639  15.515  44.475   5.371
 2720ETHY    C1 2640  15.639  44.906   5.065
 2721AUSL   AUS 2641  14.221  42.831   6.828
 2722AUSL   AUS 2642  14.567  42.718   7.085
 2723AUL    AUL 2643  14.548  42.679   6.707
 2724THSLK    S 2644  14.704  42.526   6.944
 2725ETHY    C1 2645  14.912  42.183   6.729
 2726ETHY    C1 2646  15.213  41.841   6.442
 2727ETHY    C1 2647  15.564  41.588   6.133
 2728ETHY    C1 2648  15.958  41.426   5.812
 2729ETHY    C1 2649  16.387  41.355   5.486
 2730THSLK    S 2650  14.308  42.777   6.590
 2731ETHY    C1 2651  14.389  42.526   6.217
 2732ETHY    C1 2652  14.503  42.310   5.738
 2733ETHY    C1 2653  14.636  42.194   5.236
 2734ETHY    C1 2654  14.786  42.176   4.725
 2735ETHY    C1 2655  14.952  42.256   4.214
 2736AUSL   AUS 2656  14.221  43.134   6.828
 2737AUSL   AUS 2657  13.894  42.831   6.828
 2738AUL    AUL 2658  14.057  42.983   6.520
 2739THSLK    S 2659  13.799  42.777   6.592
 2740ETHY    C1 2660  13.662  42.529   6.235
 2741ETHY    C1 2661  13.502  42.315   5.767
 2742ETHY    C1 2662  13.355  42.200   5.269
 2743ETHY    C1 2663  13.228  42.181   4.751
 2744ETHY    C1 2664  13.123  42.257   4.224
 2745THSLK    S 2665  14.324  43.092   6.578
 2746ETHY    C1 2666  14.465  42.977   6.160
 2747ETHY    C1 2667  14.623  42.930   5.647
 2748ETHY    C1 2668  14.766  42.986   5.138
 2749ETHY    C1 2669  14.894  43.140   4.643
 2750ETHY    C1 2670  15.005  43.388   4.174
 2751AUSL   AUS 2671  13.648  42.983   8.082
 2752AUSL   AUS 2672  13.792  43.399   8.012
 2753AUL    AUL 2673  13.566  43.286   8.296
 2754THSLK    S 2674  13.545  42.933   8.322
 2755ETHY    C1 2675  13.324  42.747   8.674
 2756ETHY    C1 2676  13.051  42.612   9.118
 2757ETHY    C1 2677  12.774  42.582   9.571
 2758ETHY    C1 2678  12.496  42.651  10.021
 2759ETHY    C1 2679  12.221  42.819  10.458
 2760THSLK    S 2680  13.672  43.528   8.202
 2761ETHY    C1 2681  13.603  43.697   8.620
 2762ETHY    C1 2682  13.461  43.950   9.073
 2763ETHY    C1 2683  13.255  44.251   9.460
 2764ETHY    C1 2684  12.988  44.590   9.775
 2765ETHY    C1 2685  12.668  44.957  10.013
 2766AUSL   AUS 2686  13.894  42.831   8.175
 2767AUSL   AUS 2687  13.547  42.718   7.918
 2768AUL    AUL 2688  13.566  42.679   8.296
 2769THSLK    S 2689  13.369  42.554   8.029
 2770ETHY    C1 2690  13.001  42.301   8.125
 2771ETHY    C1 2691  12.586  42.022   8.323
 2772ETHY    C1 2692  12.208  41.782   8.611
 2773ETHY    C1 2693  11.874  41.586   8.978
 2774ETHY    C1 2694  11.588  41.440   9.415
 2775THSLK    S 2695  13.791  42.779   8.410
 2776ETHY    C1 2696  13.649  42.532   8.766
 2777ETHY    C1 2697  13.491  42.317   9.233
 2778ETHY    C1 2698  13.348  42.201   9.733
 2779ETHY    C1 2699  13.221  42.183  10.250
 2780ETHY    C1 2700  13.109  42.261  10.775
 2781AUSL   AUS 2701  13.648  42.983   6.922
 2782AUSL   AUS 2702  13.792  42.566   6.992
 2783AUL    AUL 2703  13.566  42.679   6.707
 2784THSLK    S 2704  13.553  42.933   6.677
 2785ETHY    C1 2705  13.336  42.747   6.322
 2786ETHY    C1 2706  13.061  42.612   5.879
 2787ETHY    C1 2707  12.780  42.582   5.429
 2788ETHY    C1 2708  12.502  42.651   4.978
 2789ETHY    C1 2709  12.234  42.819   4.537
 2790THSLK    S 2710  13.620  42.392   6.872
 2791ETHY    C1 2711  13.335  42.071   6.717
 2792ETHY    C1 2712  13.034  41.712   6.453
 2793ETHY    C1 2713  12.789  41.389   6.109
 2794ETHY    C1 2714  12.605  41.106   5.696
 2795ETHY    C1 2715  12.486  40.866   5.223
 2796AUSL   AUS 2716  13.894  43.134   6.828
 2797AUSL   AUS 2717  13.547  43.247   7.085
 2798AUL    AUL 2718  13.566  43.286   6.707
 2799THSLK    S 2719  13.416  43.377   6.893
 2800ETHY    C1 2720  13.210  43.477   6.499
 2801ETHY    C1 2721  12.908  43.641   6.085
 2802ETHY    C1 2722  12.554  43.853   5.748
 2803ETHY    C1 2723  12.161  44.107   5.494
 2804ETHY    C1 2724  11.736  44.400   5.324
 2805THSLK    S 2725  13.815  43.093   6.571
 2806ETHY    C1 2726  13.738  42.981   6.136
 2807ETHY    C1 2727  13.622  42.936   5.612
 2808ETHY    C1 2728  13.486  42.992   5.101
 2809ETHY    C1 2729  13.336  43.146   4.613
 2810ETHY    C1 2730  13.176  43.391   4.156
 2811AUSL   AUS 2731  14.637  43.392   7.502
 2812AUSL   AUS 2732  14.567  43.247   7.085
 2813AUL    AUL 2733  14.851  43.473   7.198
 2814THSLK    S 2734  14.746  43.350   6.930
 2815ETHY    C1 2735  15.113  43.361   6.659
 2816ETHY    C1 2736  15.528  43.463   6.332
 2817ETHY    C1 2737  15.906  43.661   6.014
 2818ETHY    C1 2738  16.240  43.948   5.713
 2819ETHY    C1 2739  16.526  44.318   5.438
 2820THSLK    S 2740  14.905  43.448   7.506
 2821ETHY    C1 2741  15.357  43.509   7.508
 2822ETHY    C1 2742  15.871  43.668   7.507
 2823ETHY    C1 2743  16.339  43.922   7.505
 2824ETHY    C1 2744  16.752  44.259   7.506
 2825ETHY    C1 2745  17.104  44.673   7.509
 2826AUSL   AUS 2746  14.731  43.146   7.350
 2827AUSL   AUS 2747  14.731  42.819   7.653
 2828AUL    AUL 2748  15.039  42.983   7.502
 2829THSLK    S 2749  14.990  43.189   7.348
 2830ETHY    C1 2750  15.435  43.119   7.278
 2831ETHY    C1 2751  15.966  43.126   7.190
 2832ETHY    C1 2752  16.479  43.236   7.101
 2833ETHY    C1 2753  16.964  43.442   7.017
 2834ETHY    C1 2754  17.411  43.739   6.940
 2835THSLK    S 2755  14.963  42.681   7.662
 2836ETHY    C1 2756  15.309  42.392   7.728
 2837ETHY    C1 2757  15.770  42.125   7.809
 2838ETHY    C1 2758  16.267  41.956   7.892
 2839ETHY    C1 2759  16.788  41.884   7.980
 2840ETHY    C1 2760  17.323  41.910   8.071
 2841AUSL   AUS 2761  14.731  43.146   7.653
 2842AUSL   AUS 2762  14.474  43.493   7.766
 2843AUL    AUL 2763  14.851  43.473   7.805
 2844THSLK    S 2764  14.657  43.612   7.926
 2845ETHY    C1 2765  15.029  43.767   8.139
 2846ETHY    C1 2766  15.429  44.032   8.385
 2847ETHY    C1 2767  15.763  44.376   8.615
 2848ETHY    C1 2768  16.025  44.789   8.827
 2849ETHY    C1 2769  16.212  45.261   9.019
 2850THSLK    S 2770  14.989  43.189   7.664
 2851ETHY    C1 2771  15.433  43.119   7.738
 2852ETHY    C1 2772  15.964  43.126   7.825
 2853ETHY    C1 2773  16.478  43.236   7.910
 2854ETHY    C1 2774  16.962  43.442   7.994
 2855ETHY    C1 2775  17.409  43.739   8.078
 2856AUSL   AUS 2776  13.477  43.392   7.502
 2857AUSL   AUS 2777  13.547  43.247   7.918
 2858AUL    AUL 2778  13.263  43.473   7.805
 2859THSLK    S 2779  13.411  43.370   8.109
 2860ETHY    C1 2780  13.202  43.466   8.503
 2861ETHY    C1 2781  12.901  43.632   8.917
 2862ETHY    C1 2782  12.550  43.847   9.254
 2863ETHY    C1 2783  12.156  44.101   9.509
 2864ETHY    C1 2784  11.727  44.388   9.678
 2865THSLK    S 2785  13.261  43.532   7.506
 2866ETHY    C1 2786  13.005  43.910   7.508
 2867ETHY    C1 2787  12.632  44.298   7.507
 2868ETHY    C1 2788  12.196  44.604   7.505
 2869ETHY    C1 2789  11.710  44.822   7.506
 2870ETHY    C1 2790  11.183  44.952   7.509
 2871AUSL   AUS 2791  13.383  43.146   7.350
 2872AUSL   AUS 2792  13.641  43.493   7.237
 2873AUL    AUL 2793  13.263  43.473   7.198
 2874THSLK    S 2794  13.152  43.261   7.303
 2875ETHY    C1 2795  12.805  43.449   7.075
 2876ETHY    C1 2796  12.345  43.641   6.872
 2877ETHY    C1 2797  11.847  43.791   6.758
 2878ETHY    C1 2798  11.326  43.901   6.733
 2879ETHY    C1 2799  10.792  43.971   6.796
 2880THSLK    S 2800  13.525  43.658   7.058
 2881ETHY    C1 2801  13.409  43.974   6.750
 2882ETHY    C1 2802  13.195  44.352   6.432
 2883ETHY    C1 2803  12.903  44.721   6.183
 2884ETHY    C1 2804  12.545  45.074   6.008
 2885ETHY    C1 2805  12.127  45.407   5.909
 2886AUSL   AUS 2806  13.383  43.146   7.653
 2887AUSL   AUS 2807  13.383  42.819   7.350
 2888AUL    AUL 2808  13.075  42.983   7.502
 2889THSLK    S 2809  13.125  42.745   7.390
 2890ETHY    C1 2810  12.681  42.710   7.486
 2891ETHY    C1 2811  12.150  42.629   7.518
 2892ETHY    C1 2812  11.636  42.504   7.458
 2893ETHY    C1 2813  11.152  42.336   7.311
 2894ETHY    C1 2814  10.705  42.129   7.083
 2895THSLK    S 2815  13.150  43.253   7.704
 2896ETHY    C1 2816  12.803  43.437   7.935
 2897ETHY    C1 2817  12.343  43.630   8.137
 2898ETHY    C1 2818  11.846  43.785   8.249
 2899ETHY    C1 2819  11.325  43.895   8.274
 2900ETHY    C1 2820  10.789  43.958   8.213
 2901AUSL   AUS 2821  14.637  42.573   7.502
 2902AUSL   AUS 2822  14.567  42.718   7.918
 2903AUL    AUL 2823  14.851  42.492   7.805
 2904THSLK    S 2824  14.853  42.433   7.506
 2905ETHY    C1 2825  15.109  42.055   7.508
 2906ETHY    C1 2826  15.482  41.667   7.507
 2907ETHY    C1 2827  15.918  41.361   7.505
 2908ETHY    C1 2828  16.404  41.143   7.506
 2909ETHY    C1 2829  16.931  41.013   7.509
 2910THSLK    S 2830  14.699  42.528   8.066
 2911ETHY    C1 2831  14.904  42.185   8.285
 2912ETHY    C1 2832  15.206  41.843   8.570
 2913ETHY    C1 2833  15.560  41.590   8.877
 2914ETHY    C1 2834  15.954  41.427   9.198
 2915ETHY    C1 2835  16.378  41.357   9.529
 2916AUSL   AUS 2836  14.731  42.819   7.350
 2917AUSL   AUS 2837  14.474  42.472   7.237
 2918AUL    AUL 2838  14.851  42.492   7.198
 2919THSLK    S 2839  14.964  42.681   7.350
 2920ETHY    C1 2840  15.312  42.392   7.289
 2921ETHY    C1 2841  15.771  42.125   7.206
 2922ETHY    C1 2842  16.268  41.956   7.118
 2923ETHY    C1 2843  16.790  41.884   7.031
 2924ETHY    C1 2844  17.325  41.910   6.947
 2925THSLK    S 2845  14.593  42.282   7.104
 2926ETHY    C1 2846  14.710  41.865   6.963
 2927ETHY    C1 2847  14.924  41.411   6.765
 2928ETHY    C1 2848  15.214  41.025   6.543
 2929ETHY    C1 2849  15.573  40.710   6.306
 2930ETHY    C1 2850  15.993  40.471   6.058
 2931AUSL   AUS 2851  13.477  42.573   7.502
 2932AUSL   AUS 2852  13.547  42.718   7.085
 2933AUL    AUL 2853  13.263  42.492   7.198
 2934THSLK    S 2854  13.374  42.547   6.973
 2935ETHY    C1 2855  13.009  42.290   6.877
 2936ETHY    C1 2856  12.593  42.013   6.679
 2937ETHY    C1 2857  12.213  41.776   6.392
 2938ETHY    C1 2858  11.879  41.580   6.025
 2939ETHY    C1 2859  11.597  41.428   5.587
 2940THSLK    S 2860  13.209  42.517   7.506
 2941ETHY    C1 2861  12.757  42.456   7.508
 2942ETHY    C1 2862  12.243  42.297   7.507
 2943ETHY    C1 2863  11.775  42.043   7.505
 2944ETHY    C1 2864  11.362  41.706   7.506
 2945ETHY    C1 2865  11.010  41.292   7.509
 2946AUSL   AUS 2866  13.383  42.819   7.653
 2947AUSL   AUS 2867  13.641  42.472   7.766
 2948AUL    AUL 2868  13.263  42.492   7.805
 2949THSLK    S 2869  13.453  42.328   7.880
 2950ETHY    C1 2870  13.079  42.071   7.926
 2951ETHY    C1 2871  12.681  41.731   8.052
 2952ETHY    C1 2872  12.348  41.369   8.255
 2953ETHY    C1 2873  12.086  40.995   8.529
 2954ETHY    C1 2874  11.895  40.617   8.870
 2955THSLK    S 2875  13.124  42.752   7.617
 2956ETHY    C1 2876  12.679  42.722   7.524
 2957ETHY    C1 2877  12.148  42.640   7.490
 2958ETHY    C1 2878  11.635  42.511   7.549
 2959ETHY    C1 2879  11.151  42.343   7.696
 2960ETHY    C1 2880  10.703  42.141   7.928
 2961AUSL   AUS 2881  14.057  43.563   7.911
 2962AUSL   AUS 2882  13.641  43.493   7.766
 2963AUL    AUL 2883  13.754  43.777   7.992
 2964THSLK    S 2884  13.521  43.652   7.950
 2965ETHY    C1 2885  13.404  43.964   8.261
 2966ETHY    C1 2886  13.190  44.344   8.578
 2967ETHY    C1 2887  12.900  44.715   8.824
 2968ETHY    C1 2888  12.542  45.069   9.000
 2969ETHY    C1 2889  12.121  45.397   9.102
 2970THSLK    S 2890  14.097  43.789   8.035
 2971ETHY    C1 2891  14.254  44.091   8.339
 2972ETHY    C1 2892  14.369  44.497   8.672
 2973ETHY    C1 2893  14.396  44.941   8.964
 2974ETHY    C1 2894  14.336  45.410   9.211
 2975ETHY    C1 2895  14.192  45.894   9.410
 2976AUSL   AUS 2896  13.905  43.656   7.665
 2977AUSL   AUS 2897  14.209  43.656   7.338
 2978AUL    AUL 2898  14.057  43.964   7.502
 2979THSLK    S 2899  13.946  43.904   7.774
 2980ETHY    C1 2900  14.055  44.314   7.942
 2981ETHY    C1 2901  14.099  44.821   8.118
 2982ETHY    C1 2902  14.042  45.329   8.265
 2983ETHY    C1 2903  13.889  45.826   8.383
 2984ETHY    C1 2904  13.646  46.303   8.472
 2985THSLK    S 2905  14.262  43.891   7.241
 2986ETHY    C1 2906  14.507  44.247   7.094
 2987ETHY    C1 2907  14.720  44.712   6.927
 2988ETHY    C1 2908  14.835  45.210   6.779
 2989ETHY    C1 2909  14.855  45.729   6.655
 2990ETHY    C1 2910  14.780  46.258   6.558
 2991AUSL   AUS 2911  14.209  43.656   7.665
 2992AUSL   AUS 2912  14.322  43.399   8.012
 2993AUL    AUL 2913  14.360  43.777   7.992
 2994THSLK    S 2914  14.494  43.512   8.184
 2995ETHY    C1 2915  14.779  43.615   8.524
 2996ETHY    C1 2916  15.081  43.819   8.921
 2997ETHY    C1 2917  15.326  44.109   9.294
 2998ETHY    C1 2918  15.510  44.472   9.638
 2999ETHY    C1 2919  15.629  44.902   9.948
 3000THSLK    S 2920  14.260  43.890   7.771
 3001ETHY    C1 2921  14.504  44.244   7.922
 3002ETHY    C1 2922  14.717  44.710   8.087
 3003ETHY    C1 2923  14.833  45.209   8.231
 3004ETHY    C1 2924  14.852  45.727   8.356
 3005ETHY    C1 2925  14.777  46.255   8.458
 3006AUSL   AUS 2926  14.057  42.403   7.911
 3007AUSL   AUS 2927  14.474  42.472   7.766
 3008AUL    AUL 2928  14.360  42.188   7.992
 3009THSLK    S 2929  14.013  42.148   7.990
 3010ETHY    C1 2930  13.853  41.744   8.128
 3011ETHY    C1 2931  13.739  41.263   8.341
 3012ETHY    C1 2932  13.714  40.802   8.605
 3013ETHY    C1 2933  13.773  40.372   8.915
 3014ETHY    C1 2934  13.914  39.980   9.263
 3015THSLK    S 2935  14.589  42.283   7.908
 3016ETHY    C1 2936  14.705  41.867   8.052
 3017ETHY    C1 2937  14.919  41.414   8.248
 3018ETHY    C1 2938  15.211  41.026   8.467
 3019ETHY    C1 2939  15.570  40.711   8.705
 3020ETHY    C1 2940  15.987  40.474   8.958
 3021AUSL   AUS 2941  13.905  42.309   7.665
 3022AUSL   AUS 2942  13.792  42.566   8.012
 3023AUL    AUL 2943  13.754  42.188   7.992
 3024THSLK    S 2944  13.852  42.069   7.745
 3025ETHY    C1 2945  13.607  41.688   7.801
 3026ETHY    C1 2946  13.394  41.203   7.897
 3027ETHY    C1 2947  13.279  40.700   8.025
 3028ETHY    C1 2948  13.260  40.191   8.186
 3029ETHY    C1 2949  13.334  39.688   8.374
 3030THSLK    S 2950  13.614  42.398   8.133
 3031ETHY    C1 2951  13.326  42.080   8.289
 3032ETHY    C1 2952  13.026  41.720   8.552
 3033ETHY    C1 2953  12.783  41.394   8.896
 3034ETHY    C1 2954  12.599  41.111   9.309
 3035ETHY    C1 2955  12.475  40.877   9.783
 3036AUSL   AUS 2956  14.209  42.309   7.665
 3037AUSL   AUS 2957  13.905  42.309   7.338
 3038AUL    AUL 2958  14.057  42.001   7.502
 3039THSLK    S 2959  13.854  42.066   7.266
 3040ETHY    C1 2960  13.610  41.684   7.215
 3041ETHY    C1 2961  13.397  41.200   7.117
 3042ETHY    C1 2962  13.281  40.698   6.984
 3043ETHY    C1 2963  13.262  40.189   6.825
 3044ETHY    C1 2964  13.338  39.684   6.642
 3045THSLK    S 2965  14.166  42.053   7.749
 3046ETHY    C1 2966  14.056  41.617   7.821
 3047ETHY    C1 2967  14.013  41.091   7.928
 3048ETHY    C1 2968  14.070  40.579   8.059
 3049ETHY    C1 2969  14.223  40.091   8.213
 3050ETHY    C1 2970  14.465  39.638   8.388
 3051AUSL   AUS 2971  14.057  43.563   7.093
 3052AUSL   AUS 2972  14.474  43.493   7.237
 3053AUL    AUL 2973  14.360  43.777   7.011
 3054THSLK    S 2974  14.101  43.793   6.975
 3055ETHY    C1 2975  14.261  44.097   6.674
 3056ETHY    C1 2976  14.375  44.502   6.339
 3057ETHY    C1 2977  14.400  44.945   6.045
 3058ETHY    C1 2978  14.341  45.414   5.798
 3059ETHY    C1 2979  14.200  45.901   5.604
 3060THSLK    S 2980  14.661  43.614   7.085
 3061ETHY    C1 2981  15.035  43.770   6.876
 3062ETHY    C1 2982  15.433  44.034   6.629
 3063ETHY    C1 2983  15.766  44.378   6.395
 3064ETHY    C1 2984  16.028  44.790   6.184
 3065ETHY    C1 2985  16.219  45.264   5.998
 3066AUSL   AUS 2986  13.905  43.656   7.338
 3067AUSL   AUS 2987  13.792  43.399   6.992
 3068AUL    AUL 2988  13.754  43.777   7.011
 3069THSLK    S 2989  13.948  43.907   7.237
 3070ETHY    C1 2990  14.058  44.318   7.074
 3071ETHY    C1 2991  14.101  44.824   6.896
 3072ETHY    C1 2992  14.044  45.332   6.745
 3073ETHY    C1 2993  13.891  45.829   6.627
 3074ETHY    C1 2994  13.649  46.308   6.545
 3075THSLK    S 2995  13.678  43.534   6.802
 3076ETHY    C1 2996  13.612  43.706   6.385
 3077ETHY    C1 2997  13.469  43.958   5.932
 3078ETHY    C1 2998  13.260  44.257   5.544
 3079ETHY    C1 2999  12.994  44.595   5.230
 3080ETHY    C1 3000  12.678  44.968   4.993
 3081AUSL   AUS 3001  14.057  42.403   7.093
 3082AUSL   AUS 3002  13.641  42.472   7.237
 3083AUL    AUL 3003  13.754  42.188   7.011
 3084THSLK    S 3004  13.457  42.322   7.128
 3085ETHY    C1 3005  13.085  42.061   7.085
 3086ETHY    C1 3006  12.686  41.723   6.958
 3087ETHY    C1 3007  12.351  41.364   6.753
 3088ETHY    C1 3008  12.089  40.990   6.478
 3089ETHY    C1 3009  11.902  40.607   6.142
 3090THSLK    S 3010  14.017  42.144   7.019
 3091ETHY    C1 3011  13.860  41.738   6.885
 3092ETHY    C1 3012  13.745  41.258   6.671
 3093ETHY    C1 3013  13.718  40.799   6.404
 3094ETHY    C1 3014  13.778  40.368   6.094
 3095ETHY    C1 3015  13.922  39.973   5.751
 3096AUSL   AUS 3016  14.209  42.309   7.338
 3097AUSL   AUS 3017  14.322  42.566   6.992
 3098AUL    AUL 3018  14.360  42.188   7.011
 3099THSLK    S 3019  14.168  42.052   7.262
 3100ETHY    C1 3020  14.059  41.614   7.195
 3101ETHY    C1 3021  14.016  41.088   7.086
 3102ETHY    C1 3022  14.072  40.577   6.951
 3103ETHY    C1 3023  14.225  40.089   6.798
 3104ETHY    C1 3024  14.469  39.635   6.629
 3105THSLK    S 3025  14.442  42.376   6.853
 3106ETHY    C1 3026  14.511  41.990   6.621
 3107ETHY    C1 3027  14.653  41.582   6.300
 3108ETHY    C1 3028  14.860  41.246   5.942
 3109ETHY    C1 3029  15.126  40.989   5.559
 3110ETHY    C1 3030  15.446  40.811   5.158
 3111AUC    AUC 3031  18.499  26.715   7.502
 3112AUC    AUC 3032  18.745  26.715   7.350
 3113AUC    AUC 3033  18.745  26.715   7.653
 3114AUC    AUC 3034  18.254  26.715   7.350
 3115AUC    AUC 3035  18.254  26.715   7.653
 3116AUC    AUC 3036  18.347  26.960   7.502
 3117AUC    AUC 3037  18.651  26.960   7.502
 3118AUC    AUC 3038  18.347  26.469   7.502
 3119AUC    AUC 3039  18.651  26.469   7.502
 3120AUC    AUC 3040  18.499  26.563   7.747
 3121AUC    AUC 3041  18.499  26.866   7.747
 3122AUC    AUC 3042  18.499  26.563   7.256
 3123AUC    AUC 3043  18.499  26.866   7.256
 3124AUC    AUC 3044  18.990  26.715   7.198
 3125AUC    AUC 3045  18.990  26.715   7.502
 3126AUC    AUC 3046  18.990  26.715   7.805
 3127AUC    AUC 3047  18.008  26.715   7.198
 3128AUC    AUC 3048  18.008  26.715   7.502
 3129AUC    AUC 3049  18.008  26.715   7.805
 3130AUC    AUC 3050  18.196  27.205   7.502
 3131AUC    AUC 3051  18.499  27.205   7.502
 3132AUC    AUC 3052  18.802  27.205   7.502
 3133AUC    AUC 3053  18.196  26.224   7.502
 3134AUC    AUC 3054  18.499  26.224   7.502
 3135AUC    AUC 3055  18.802  26.224   7.502
 3136AUC    AUC 3056  18.499  26.411   7.992
 3137AUC    AUC 3057  18.499  26.715   7.992
 3138AUC    AUC 3058  18.499  27.018   7.992
 3139AUC    AUC 3059  18.499  26.411   7.011
 3140AUC    AUC 3060  18.499  26.715   7.011
 3141AUC    AUC 3061  18.499  27.018   7.011
 3142AUC    AUC 3062  18.745  26.563   7.899
 3143AUC    AUC 3063  18.745  26.866   7.899
 3144AUC    AUC 3064  18.745  26.563   7.105
 3145AUC    AUC 3065  18.745  26.866   7.105
 3146AUC    AUC 3066  18.254  26.563   7.899
 3147AUC    AUC 3067  18.254  26.866   7.899
 3148AUC    AUC 3068  18.254  26.563   7.105
 3149AUC    AUC 3069  18.254  26.866   7.105
 3150AUC    AUC 3070  18.896  26.960   7.350
 3151AUC    AUC 3071  18.896  26.960   7.653
 3152AUC    AUC 3072  18.102  26.960   7.350
 3153AUC    AUC 3073  18.102  26.960   7.653
 3154AUC    AUC 3074  18.896  26.469   7.350
 3155AUC    AUC 3075  18.896  26.469   7.653
 3156AUC    AUC 3076  18.102  26.469   7.350
 3157AUC    AUC 3077  18.102  26.469   7.653
 3158AUC    AUC 3078  18.347  27.112   7.747
 3159AUC    AUC 3079  18.651  27.112   7.747
 3160AUC    AUC 3080  18.347  26.317   7.747
 3161AUC    AUC 3081  18.651  26.317   7.747
 3162AUC    AUC 3082  18.347  27.112   7.256
 3163AUC    AUC 3083  18.651  27.112   7.256
 3164AUC    AUC 3084  18.347  26.317   7.256
 3165AUC    AUC 3085  18.651  26.317   7.256
 3166AUSL   AUS 3086  18.908  26.715   8.082
 3167AUSL   AUS 3087  18.764  26.298   8.012
 3168AUL    AUL 3088  18.990  26.411   8.296
 3169THSLK    S 3089  18.878  26.110   8.156
 3170ETHY    C1 3090  18.944  25.725   8.391
 3171ETHY    C1 3091  19.087  25.317   8.710
 3172ETHY    C1 3092  19.296  24.981   9.066
 3173ETHY    C1 3093  19.562  24.723   9.450
 3174ETHY    C1 3094  19.878  24.547   9.855
 3175THSLK    S 3095  19.004  26.665   8.326
 3176ETHY    C1 3096  19.220  26.479   8.681
 3177ETHY    C1 3097  19.495  26.344   9.124
 3178ETHY    C1 3098  19.776  26.314   9.575
 3179ETHY    C1 3099  20.054  26.383  10.025
 3180ETHY    C1 3100  20.323  26.551  10.466
 3181AUSL   AUS 3101  18.663  26.563   8.175
 3182AUSL   AUS 3102  18.336  26.866   8.175
 3183AUL    AUL 3103  18.499  26.715   8.483
 3184THSLK    S 3104  18.741  26.510   8.417
 3185ETHY    C1 3105  18.818  26.260   8.790
 3186ETHY    C1 3106  18.934  26.043   9.269
 3187ETHY    C1 3107  19.071  25.927   9.769
 3188ETHY    C1 3108  19.221  25.909  10.281
 3189ETHY    C1 3109  19.380  25.990  10.794
 3190THSLK    S 3110  18.249  26.823   8.431
 3191ETHY    C1 3111  18.167  26.711   8.864
 3192ETHY    C1 3112  18.053  26.665   9.388
 3193ETHY    C1 3113  17.921  26.723   9.901
 3194ETHY    C1 3114  17.770  26.876  10.389
 3195ETHY    C1 3115  17.604  27.120  10.844
 3196AUSL   AUS 3116  18.663  26.866   8.175
 3197AUSL   AUS 3117  19.009  26.979   7.918
 3198AUL    AUL 3118  18.990  27.018   8.296
 3199THSLK    S 3119  18.750  26.920   8.414
 3200ETHY    C1 3120  18.831  27.171   8.786
 3201ETHY    C1 3121  18.945  27.387   9.265
 3202ETHY    C1 3122  19.078  27.503   9.767
 3203ETHY    C1 3123  19.228  27.521  10.279
 3204ETHY    C1 3124  19.394  27.441  10.789
 3205THSLK    S 3125  19.183  27.081   8.080
 3206ETHY    C1 3126  19.547  27.091   8.354
 3207ETHY    C1 3127  19.963  27.193   8.680
 3208ETHY    C1 3128  20.343  27.392   8.995
 3209ETHY    C1 3129  20.678  27.679   9.296
 3210ETHY    C1 3130  20.959  28.047   9.577
 3211AUSL   AUS 3131  18.908  26.715   6.922
 3212AUSL   AUS 3132  18.764  27.131   6.992
 3213AUL    AUL 3133  18.990  27.018   6.707
 3214THSLK    S 3134  19.011  26.665   6.681
 3215ETHY    C1 3135  19.232  26.479   6.329
 3216ETHY    C1 3136  19.505  26.344   5.885
 3217ETHY    C1 3137  19.783  26.314   5.432
 3218ETHY    C1 3138  20.061  26.383   4.982
 3219ETHY    C1 3139  20.335  26.551   4.545
 3220THSLK    S 3140  18.942  27.246   6.825
 3221ETHY    C1 3141  19.230  27.351   6.488
 3222ETHY    C1 3142  19.530  27.555   6.090
 3223ETHY    C1 3143  19.773  27.843   5.714
 3224ETHY    C1 3144  19.957  28.207   5.371
 3225ETHY    C1 3145  20.081  28.638   5.065
 3226AUSL   AUS 3146  18.663  26.563   6.828
 3227AUSL   AUS 3147  19.009  26.450   7.085
 3228AUL    AUL 3148  18.990  26.411   6.707
 3229THSLK    S 3149  19.146  26.258   6.944
 3230ETHY    C1 3150  19.354  25.915   6.729
 3231ETHY    C1 3151  19.655  25.573   6.442
 3232ETHY    C1 3152  20.006  25.320   6.133
 3233ETHY    C1 3153  20.400  25.158   5.812
 3234ETHY    C1 3154  20.829  25.087   5.486
 3235THSLK    S 3155  18.750  26.509   6.590
 3236ETHY    C1 3156  18.831  26.258   6.217
 3237ETHY    C1 3157  18.945  26.042   5.738
 3238ETHY    C1 3158  19.078  25.926   5.236
 3239ETHY    C1 3159  19.228  25.908   4.725
 3240ETHY    C1 3160  19.394  25.988   4.214
 3241AUSL   AUS 3161  18.663  26.866   6.828
 3242AUSL   AUS 3162  18.336  26.563   6.828
 3243AUL    AUL 3163  18.499  26.715   6.520
 3244THSLK    S 3164  18.241  26.509   6.592
 3245ETHY    C1 3165  18.104  26.261   6.235
 3246ETHY    C1 3166  17.944  26.047   5.767
 3247ETHY    C1 3167  17.797  25.932   5.269
 3248ETHY    C1 3168  17.670  25.913   4.751
 3249ETHY    C1 3169  17.565  25.989   4.224
 3250THSLK    S 3170  18.766  26.824   6.578
 3251ETHY    C1 3171  18.907  26.709   6.160
 3252ETHY    C1 3172  19.065  26.662   5.647
 3253ETHY    C1 3173  19.208  26.718   5.138
 3254ETHY    C1 3174  19.336  26.872   4.643
 3255ETHY    C1 3175  19.447  27.120   4.174
 3256AUSL   AUS 3176  18.090  26.715   8.082
 3257AUSL   AUS 3177  18.234  27.131   8.012
 3258AUL    AUL 3178  18.008  27.018   8.296
 3259THSLK    S 3179  17.987  26.665   8.322
 3260ETHY    C1 3180  17.766  26.479   8.674
 3261ETHY    C1 3181  17.493  26.344   9.118
 3262ETHY    C1 3182  17.216  26.314   9.571
 3263ETHY    C1 3183  16.938  26.383  10.021
 3264ETHY    C1 3184  16.663  26.551  10.458
 3265THSLK    S 3185  18.114  27.260   8.202
 3266ETHY    C1 3186  18.045  27.429   8.620
 3267ETHY    C1 3187  17.903  27.682   9.073
 3268ETHY    C1 3188  17.697  27.983   9.460
 3269ETHY    C1 3189  17.430  28.322   9.775
 3270ETHY    C1 3190  17.110  28.689  10.013
 3271AUSL   AUS 3191  18.336  26.563   8.175
 3272AUSL   AUS 3192  17.989  26.450   7.918
 3273AUL    AUL 3193  18.008  26.411   8.296
 3274THSLK    S 3194  17.811  26.286   8.029
 3275ETHY    C1 3195  17.443  26.033   8.125
 3276ETHY    C1 3196  17.028  25.754   8.323
 3277ETHY    C1 3197  16.650  25.514   8.611
 3278ETHY    C1 3198  16.316  25.318   8.978
 3279ETHY    C1 3199  16.030  25.172   9.415
 3280THSLK    S 3200  18.233  26.511   8.410
 3281ETHY    C1 3201  18.091  26.264   8.766
 3282ETHY    C1 3202  17.933  26.049   9.233
 3283ETHY    C1 3203  17.790  25.933   9.733
 3284ETHY    C1 3204  17.663  25.915  10.250
 3285ETHY    C1 3205  17.551  25.993  10.775
 3286AUSL   AUS 3206  18.090  26.715   6.922
 3287AUSL   AUS 3207  18.234  26.298   6.992
 3288AUL    AUL 3208  18.008  26.411   6.707
 3289THSLK    S 3209  17.995  26.665   6.677
 3290ETHY    C1 3210  17.778  26.479   6.322
 3291ETHY    C1 3211  17.503  26.344   5.879
 3292ETHY    C1 3212  17.222  26.314   5.429
 3293ETHY    C1 3213  16.944  26.383   4.978
 3294ETHY    C1 3214  16.676  26.551   4.537
 3295THSLK    S 3215  18.062  26.124   6.872
 3296ETHY    C1 3216  17.777  25.803   6.717
 3297ETHY    C1 3217  17.476  25.444   6.453
 3298ETHY    C1 3218  17.231  25.121   6.109
 3299ETHY    C1 3219  17.047  24.838   5.696
 3300ETHY    C1 3220  16.928  24.598   5.223
 3301AUSL   AUS 3221  18.336  26.866   6.828
 3302AUSL   AUS 3222  17.989  26.979   7.085
 3303AUL    AUL 3223  18.008  27.018   6.707
 3304THSLK    S 3224  17.858  27.109   6.893
 3305ETHY    C1 3225  17.652  27.209   6.499
 3306ETHY    C1 3226  17.350  27.373   6.085
 3307ETHY    C1 3227  16.996  27.585   5.748
 3308ETHY    C1 3228  16.603  27.839   5.494
 3309ETHY    C1 3229  16.178  28.132   5.324
 3310THSLK    S 3230  18.257  26.825   6.571
 3311ETHY    C1 3231  18.180  26.713   6.136
 3312ETHY    C1 3232  18.064  26.668   5.612
 3313ETHY    C1 3233  17.928  26.724   5.101
 3314ETHY    C1 3234  17.778  26.878   4.613
 3315ETHY    C1 3235  17.618  27.123   4.156
 3316AUSL   AUS 3236  19.079  27.124   7.502
 3317AUSL   AUS 3237  19.009  26.979   7.085
 3318AUL    AUL 3238  19.293  27.205   7.198
 3319THSLK    S 3239  19.188  27.082   6.930
 3320ETHY    C1 3240  19.555  27.093   6.659
 3321ETHY    C1 3241  19.970  27.195   6.332
 3322ETHY    C1 3242  20.348  27.393   6.014
 3323ETHY    C1 3243  20.682  27.680   5.713
 3324ETHY    C1 3244  20.968  28.050   5.438
 3325THSLK    S 3245  19.347  27.180   7.506
 3326ETHY    C1 3246  19.799  27.241   7.508
 3327ETHY    C1 3247  20.313  27.400   7.507
 3328ETHY    C1 3248  20.781  27.654   7.505
 3329ETHY    C1 3249  21.194  27.991   7.506
 3330ETHY    C1 3250  21.546  28.405   7.509
 3331AUSL   AUS 3251  19.173  26.878   7.350
 3332AUSL   AUS 3252  19.173  26.551   7.653
 3333AUL    AUL 3253  19.481  26.715   7.502
 3334THSLK    S 3254  19.432  26.921   7.348
 3335ETHY    C1 3255  19.877  26.851   7.278
 3336ETHY    C1 3256  20.408  26.858   7.190
 3337ETHY    C1 3257  20.921  26.968   7.101
 3338ETHY    C1 3258  21.406  27.174   7.017
 3339ETHY    C1 3259  21.853  27.471   6.940
 3340THSLK    S 3260  19.405  26.413   7.662
 3341ETHY    C1 3261  19.751  26.124   7.728
 3342ETHY    C1 3262  20.212  25.857   7.809
 3343ETHY    C1 3263  20.709  25.688   7.892
 3344ETHY    C1 3264  21.230  25.616   7.980
 3345ETHY    C1 3265  21.765  25.642   8.071
 3346AUSL   AUS 3266  19.173  26.878   7.653
 3347AUSL   AUS 3267  18.916  27.225   7.766
 3348AUL    AUL 3268  19.293  27.205   7.805
 3349THSLK    S 3269  19.099  27.344   7.926
 3350ETHY    C1 3270  19.471  27.499   8.139
 3351ETHY    C1 3271  19.871  27.764   8.385
 3352ETHY    C1 3272  20.205  28.108   8.615
 3353ETHY    C1 3273  20.467  28.521   8.827
 3354ETHY    C1 3274  20.654  28.993   9.019
 3355THSLK    S 3275  19.431  26.921   7.664
 3356ETHY    C1 3276  19.875  26.851   7.738
 3357ETHY    C1 3277  20.406  26.858   7.825
 3358ETHY    C1 3278  20.920  26.968   7.910
 3359ETHY    C1 3279  21.404  27.174   7.994
 3360ETHY    C1 3280  21.851  27.471   8.078
 3361AUSL   AUS 3281  17.919  27.124   7.502
 3362AUSL   AUS 3282  17.989  26.979   7.918
 3363AUL    AUL 3283  17.705  27.205   7.805
 3364THSLK    S 3284  17.853  27.102   8.109
 3365ETHY    C1 3285  17.644  27.198   8.503
 3366ETHY    C1 3286  17.343  27.364   8.917
 3367ETHY    C1 3287  16.992  27.579   9.254
 3368ETHY    C1 3288  16.598  27.833   9.509
 3369ETHY    C1 3289  16.169  28.120   9.678
 3370THSLK    S 3290  17.703  27.264   7.506
 3371ETHY    C1 3291  17.447  27.642   7.508
 3372ETHY    C1 3292  17.074  28.030   7.507
 3373ETHY    C1 3293  16.638  28.336   7.505
 3374ETHY    C1 3294  16.152  28.554   7.506
 3375ETHY    C1 3295  15.625  28.684   7.509
 3376AUSL   AUS 3296  17.825  26.878   7.350
 3377AUSL   AUS 3297  18.083  27.225   7.237
 3378AUL    AUL 3298  17.705  27.205   7.198
 3379THSLK    S 3299  17.594  26.993   7.303
 3380ETHY    C1 3300  17.247  27.181   7.075
 3381ETHY    C1 3301  16.787  27.373   6.872
 3382ETHY    C1 3302  16.289  27.523   6.758
 3383ETHY    C1 3303  15.768  27.633   6.733
 3384ETHY    C1 3304  15.234  27.703   6.796
 3385THSLK    S 3305  17.967  27.390   7.058
 3386ETHY    C1 3306  17.851  27.706   6.750
 3387ETHY    C1 3307  17.637  28.084   6.432
 3388ETHY    C1 3308  17.345  28.453   6.183
 3389ETHY    C1 3309  16.987  28.806   6.008
 3390ETHY    C1 3310  16.569  29.139   5.909
 3391AUSL   AUS 3311  17.825  26.878   7.653
 3392AUSL   AUS 3312  17.825  26.551   7.350
 3393AUL    AUL 3313  17.517  26.715   7.502
 3394THSLK    S 3314  17.567  26.477   7.390
 3395ETHY    C1 3315  17.123  26.442   7.486
 3396ETHY    C1 3316  16.592  26.361   7.518
 3397ETHY    C1 3317  16.078  26.236   7.458
 3398ETHY    C1 3318  15.594  26.068   7.311
 3399ETHY    C1 3319  15.147  25.861   7.083
 3400THSLK    S 3320  17.592  26.985   7.704
 3401ETHY    C1 3321  17.245  27.169   7.935
 3402ETHY    C1 3322  16.785  27.362   8.137
 3403ETHY    C1 3323  16.288  27.517   8.249
 3404ETHY    C1 3324  15.767  27.627   8.274
 3405ETHY    C1 3325  15.231  27.690   8.213
 3406AUSL   AUS 3326  19.079  26.305   7.502
 3407AUSL   AUS 3327  19.009  26.450   7.918
 3408AUL    AUL 3328  19.293  26.224   7.805
 3409THSLK    S 3329  19.295  26.165   7.506
 3410ETHY    C1 3330  19.551  25.787   7.508
 3411ETHY    C1 3331  19.924  25.399   7.507
 3412ETHY    C1 3332  20.360  25.093   7.505
 3413ETHY    C1 3333  20.846  24.875   7.506
 3414ETHY    C1 3334  21.373  24.745   7.509
 3415THSLK    S 3335  19.141  26.260   8.066
 3416ETHY    C1 3336  19.346  25.917   8.285
 3417ETHY    C1 3337  19.648  25.575   8.570
 3418ETHY    C1 3338  20.002  25.322   8.877
 3419ETHY    C1 3339  20.396  25.159   9.198
 3420ETHY    C1 3340  20.820  25.089   9.529
 3421AUSL   AUS 3341  19.173  26.551   7.350
 3422AUSL   AUS 3342  18.916  26.204   7.237
 3423AUL    AUL 3343  19.293  26.224   7.198
 3424THSLK    S 3344  19.406  26.413   7.350
 3425ETHY    C1 3345  19.754  26.124   7.289
 3426ETHY    C1 3346  20.213  25.857   7.206
 3427ETHY    C1 3347  20.710  25.688   7.118
 3428ETHY    C1 3348  21.232  25.616   7.031
 3429ETHY    C1 3349  21.767  25.642   6.947
 3430THSLK    S 3350  19.035  26.014   7.104
 3431ETHY    C1 3351  19.152  25.597   6.963
 3432ETHY    C1 3352  19.366  25.143   6.765
 3433ETHY    C1 3353  19.656  24.757   6.543
 3434ETHY    C1 3354  20.015  24.442   6.306
 3435ETHY    C1 3355  20.435  24.203   6.058
 3436AUSL   AUS 3356  17.919  26.305   7.502
 3437AUSL   AUS 3357  17.989  26.450   7.085
 3438AUL    AUL 3358  17.705  26.224   7.198
 3439THSLK    S 3359  17.816  26.279   6.973
 3440ETHY    C1 3360  17.451  26.022   6.877
 3441ETHY    C1 3361  17.035  25.745   6.679
 3442ETHY    C1 3362  16.655  25.508   6.392
 3443ETHY    C1 3363  16.321  25.312   6.025
 3444ETHY    C1 3364  16.039  25.160   5.587
 3445THSLK    S 3365  17.651  26.249   7.506
 3446ETHY    C1 3366  17.199  26.188   7.508
 3447ETHY    C1 3367  16.685  26.029   7.507
 3448ETHY    C1 3368  16.217  25.775   7.505
 3449ETHY    C1 3369  15.804  25.438   7.506
 3450ETHY    C1 3370  15.452  25.024   7.509
 3451AUSL   AUS 3371  17.825  26.551   7.653
 3452AUSL   AUS 3372  18.083  26.204   7.766
 3453AUL    AUL 3373  17.705  26.224   7.805
 3454THSLK    S 3374  17.895  26.060   7.880
 3455ETHY    C1 3375  17.521  25.803   7.926
 3456ETHY    C1 3376  17.123  25.463   8.052
 3457ETHY    C1 3377  16.790  25.101   8.255
 3458ETHY    C1 3378  16.528  24.727   8.529
 3459ETHY    C1 3379  16.337  24.349   8.870
 3460THSLK    S 3380  17.566  26.484   7.617
 3461ETHY    C1 3381  17.121  26.454   7.524
 3462ETHY    C1 3382  16.590  26.372   7.490
 3463ETHY    C1 3383  16.077  26.243   7.549
 3464ETHY    C1 3384  15.593  26.075   7.696
 3465ETHY    C1 3385  15.145  25.873   7.928
 3466AUSL   AUS 3386  18.499  27.295   7.911
 3467AUSL   AUS 3387  18.083  27.225   7.766
 3468AUL    AUL 3388  18.196  27.509   7.992
 3469THSLK    S 3389  17.963  27.384   7.950
 3470ETHY    C1 3390  17.846  27.696   8.261
 3471ETHY    C1 3391  17.632  28.076   8.578
 3472ETHY    C1 3392  17.342  28.447   8.824
 3473ETHY    C1 3393  16.984  28.801   9.000
 3474ETHY    C1 3394  16.563  29.129   9.102
 3475THSLK    S 3395  18.539  27.521   8.035
 3476ETHY    C1 3396  18.696  27.823   8.339
 3477ETHY    C1 3397  18.811  28.229   8.672
 3478ETHY    C1 3398  18.838  28.673   8.964
 3479ETHY    C1 3399  18.778  29.142   9.211
 3480ETHY    C1 3400  18.634  29.626   9.410
 3481AUSL   AUS 3401  18.347  27.388   7.665
 3482AUSL   AUS 3402  18.651  27.388   7.338
 3483AUL    AUL 3403  18.499  27.696   7.502
 3484THSLK    S 3404  18.388  27.636   7.774
 3485ETHY    C1 3405  18.497  28.046   7.942
 3486ETHY    C1 3406  18.541  28.553   8.118
 3487ETHY    C1 3407  18.484  29.061   8.265
 3488ETHY    C1 3408  18.331  29.558   8.383
 3489ETHY    C1 3409  18.088  30.035   8.472
 3490THSLK    S 3410  18.704  27.623   7.241
 3491ETHY    C1 3411  18.949  27.979   7.094
 3492ETHY    C1 3412  19.162  28.444   6.927
 3493ETHY    C1 3413  19.277  28.942   6.779
 3494ETHY    C1 3414  19.297  29.461   6.655
 3495ETHY    C1 3415  19.222  29.990   6.558
 3496AUSL   AUS 3416  18.651  27.388   7.665
 3497AUSL   AUS 3417  18.764  27.131   8.012
 3498AUL    AUL 3418  18.802  27.509   7.992
 3499THSLK    S 3419  18.936  27.244   8.184
 3500ETHY    C1 3420  19.221  27.347   8.524
 3501ETHY    C1 3421  19.523  27.551   8.921
 3502ETHY    C1 3422  19.768  27.841   9.294
 3503ETHY    C1 3423  19.952  28.204   9.638
 3504ETHY    C1 3424  20.071  28.634   9.948
 3505THSLK    S 3425  18.702  27.622   7.771
 3506ETHY    C1 3426  18.946  27.976   7.922
 3507ETHY    C1 3427  19.159  28.442   8.087
 3508ETHY    C1 3428  19.275  28.941   8.231
 3509ETHY    C1 3429  19.294  29.459   8.356
 3510ETHY    C1 3430  19.219  29.987   8.458
 3511AUSL   AUS 3431  18.499  26.135   7.911
 3512AUSL   AUS 3432  18.916  26.204   7.766
 3513AUL    AUL 3433  18.802  25.920   7.992
 3514THSLK    S 3434  18.455  25.880   7.990
 3515ETHY    C1 3435  18.295  25.476   8.128
 3516ETHY    C1 3436  18.181  24.995   8.341
 3517ETHY    C1 3437  18.156  24.534   8.605
 3518ETHY    C1 3438  18.215  24.104   8.915
 3519ETHY    C1 3439  18.356  23.712   9.263
 3520THSLK    S 3440  19.031  26.015   7.908
 3521ETHY    C1 3441  19.147  25.599   8.052
 3522ETHY    C1 3442  19.361  25.146   8.248
 3523ETHY    C1 3443  19.653  24.758   8.467
 3524ETHY    C1 3444  20.012  24.443   8.705
 3525ETHY    C1 3445  20.429  24.206   8.958
 3526AUSL   AUS 3446  18.347  26.041   7.665
 3527AUSL   AUS 3447  18.234  26.298   8.012
 3528AUL    AUL 3448  18.196  25.920   7.992
 3529THSLK    S 3449  18.294  25.801   7.745
 3530ETHY    C1 3450  18.049  25.420   7.801
 3531ETHY    C1 3451  17.836  24.935   7.897
 3532ETHY    C1 3452  17.721  24.432   8.025
 3533ETHY    C1 3453  17.702  23.923   8.186
 3534ETHY    C1 3454  17.776  23.420   8.374
 3535THSLK    S 3455  18.056  26.130   8.133
 3536ETHY    C1 3456  17.768  25.812   8.289
 3537ETHY    C1 3457  17.468  25.452   8.552
 3538ETHY    C1 3458  17.225  25.126   8.896
 3539ETHY    C1 3459  17.041  24.843   9.309
 3540ETHY    C1 3460  16.917  24.609   9.783
 3541AUSL   AUS 3461  18.651  26.041   7.665
 3542AUSL   AUS 3462  18.347  26.041   7.338
 3543AUL    AUL 3463  18.499  25.733   7.502
 3544THSLK    S 3464  18.296  25.798   7.266
 3545ETHY    C1 3465  18.052  25.416   7.215
 3546ETHY    C1 3466  17.839  24.932   7.117
 3547ETHY    C1 3467  17.723  24.430   6.984
 3548ETHY    C1 3468  17.704  23.921   6.825
 3549ETHY    C1 3469  17.780  23.416   6.642
 3550THSLK    S 3470  18.608  25.785   7.749
 3551ETHY    C1 3471  18.498  25.349   7.821
 3552ETHY    C1 3472  18.455  24.823   7.928
 3553ETHY    C1 3473  18.512  24.311   8.059
 3554ETHY    C1 3474  18.665  23.823   8.213
 3555ETHY    C1 3475  18.907  23.370   8.388
 3556AUSL   AUS 3476  18.499  27.295   7.093
 3557AUSL   AUS 3477  18.916  27.225   7.237
 3558AUL    AUL 3478  18.802  27.509   7.011
 3559THSLK    S 3479  18.543  27.525   6.975
 3560ETHY    C1 3480  18.703  27.829   6.674
 3561ETHY    C1 3481  18.817  28.234   6.339
 3562ETHY    C1 3482  18.842  28.677   6.045
 3563ETHY    C1 3483  18.783  29.146   5.798
 3564ETHY    C1 3484  18.642  29.633   5.604
 3565THSLK    S 3485  19.103  27.346   7.085
 3566ETHY    C1 3486  19.477  27.502   6.876
 3567ETHY    C1 3487  19.875  27.766   6.629
 3568ETHY    C1 3488  20.208  28.110   6.395
 3569ETHY    C1 3489  20.470  28.522   6.184
 3570ETHY    C1 3490  20.661  28.996   5.998
 3571AUSL   AUS 3491  18.347  27.388   7.338
 3572AUSL   AUS 3492  18.234  27.131   6.992
 3573AUL    AUL 3493  18.196  27.509   7.011
 3574THSLK    S 3494  18.390  27.639   7.237
 3575ETHY    C1 3495  18.500  28.050   7.074
 3576ETHY    C1 3496  18.543  28.556   6.896
 3577ETHY    C1 3497  18.486  29.064   6.745
 3578ETHY    C1 3498  18.333  29.561   6.627
 3579ETHY    C1 3499  18.091  30.040   6.545
 3580THSLK    S 3500  18.120  27.266   6.802
 3581ETHY    C1 3501  18.054  27.438   6.385
 3582ETHY    C1 3502  17.911  27.690   5.932
 3583ETHY    C1 3503  17.702  27.989   5.544
 3584ETHY    C1 3504  17.436  28.327   5.230
 3585ETHY    C1 3505  17.120  28.700   4.993
 3586AUSL   AUS 3506  18.499  26.135   7.093
 3587AUSL   AUS 3507  18.083  26.204   7.237
 3588AUL    AUL 3508  18.196  25.920   7.011
 3589THSLK    S 3509  17.899  26.054   7.128
 3590ETHY    C1 3510  17.527  25.793   7.085
 3591ETHY    C1 3511  17.128  25.455   6.958
 3592ETHY    C1 3512  16.793  25.096   6.753
 3593ETHY    C1 3513  16.531  24.722   6.478
 3594ETHY    C1 3514  16.344  24.339   6.142
 3595THSLK    S 3515  18.459  25.876   7.019
 3596ETHY    C1 3516  18.302  25.470   6.885
 3597ETHY    C1 3517  18.187  24.990   6.671
 3598ETHY    C1 3518  18.160  24.531   6.404
 3599ETHY    C1 3519  18.220  24.100   6.094
 3600ETHY    C1 3520  18.364  23.705   5.751
 3601AUSL   AUS 3521  18.651  26.041   7.338
 3602AUSL   AUS 3522  18.764  26.298   6.992
 3603AUL    AUL 3523  18.802  25.920   7.011
 3604THSLK    S 3524  18.610  25.784   7.262
 3605ETHY    C1 3525  18.501  25.346   7.195
 3606ETHY    C1 3526  18.458  24.820   7.086
 3607ETHY    C1 3527  18.514  24.309   6.951
 3608ETHY    C1 3528  18.667  23.821   6.798
 3609ETHY    C1 3529  18.911  23.367   6.629
 3610THSLK    S 3530  18.884  26.108   6.853
 3611ETHY    C1 3531  18.953  25.722   6.621
 3612ETHY    C1 3532  19.095  25.314   6.300
 3613ETHY    C1 3533  19.302  24.978   5.942
 3614ETHY    C1 3534  19.568  24.721   5.559
 3615ETHY    C1 3535  19.888  24.543   5.158
 3616AUC    AUC 3536  16.432  34.695   7.502
 3617AUC    AUC 3537  16.678  34.695   7.350
 3618AUC    AUC 3538  16.678  34.695   7.653
 3619AUC    AUC 3539  16.187  34.695   7.350
 3620AUC    AUC 3540  16.187  34.695   7.653
 3621AUC    AUC 3541  16.280  34.940   7.502
 3622AUC    AUC 3542  16.584  34.940   7.502
 3623AUC    AUC 3543  16.280  34.449   7.502
 3624AUC    AUC 3544  16.584  34.449   7.502
 3625AUC    AUC 3545  16.432  34.543   7.747
 3626AUC    AUC 3546  16.432  34.846   7.747
 3627AUC    AUC 3547  16.432  34.543   7.256
 3628AUC    AUC 3548  16.432  34.846   7.256
 3629AUC    AUC 3549  16.923  34.695   7.198
 3630AUC    AUC 3550  16.923  34.695   7.502
 3631AUC    AUC 3551  16.923  34.695   7.805
 3632AUC    AUC 3552  15.941  34.695   7.198
 3633AUC    AUC 3553  15.941  34.695   7.502
 3634AUC    AUC 3554  15.941  34.695   7.805
 3635AUC    AUC 3555  16.129  35.185   7.502
 3636AUC    AUC 3556  16.432  35.185   7.502
 3637AUC    AUC 3557  16.735  35.185   7.502
 3638AUC    AUC 3558  16.129  34.204   7.502
 3639AUC    AUC 3559  16.432  34.204   7.502
 3640AUC    AUC 3560  16.735  34.204   7.502
 3641AUC    AUC 3561  16.432  34.391   7.992
 3642AUC    AUC 3562  16.432  34.695   7.992
 3643AUC    AUC 3563  16.432  34.998   7.992
 3644AUC    AUC 3564  16.432  34.391   7.011
 3645AUC    AUC 3565  16.432  34.695   7.011
 3646AUC    AUC 3566  16.432  34.998   7.011
 3647AUC    AUC 3567  16.678  34.543   7.899
 3648AUC    AUC 3568  16.678  34.846   7.899
 3649AUC    AUC 3569  16.678  34.543   7.105
 3650AUC    AUC 3570  16.678  34.846   7.105
 3651AUC    AUC 3571  16.187  34.543   7.899
 3652AUC    AUC 3572  16.187  34.846   7.899
 3653AUC    AUC 3573  16.187  34.543   7.105
 3654AUC    AUC 3574  16.187  34.846   7.105
 3655AUC    AUC 3575  16.829  34.940   7.350
 3656AUC    AUC 3576  16.829  34.940   7.653
 3657AUC    AUC 3577  16.035  34.940   7.350
 3658AUC    AUC 3578  16.035  34.940   7.653
 3659AUC    AUC 3579  16.829  34.449   7.350
 3660AUC    AUC 3580  16.829  34.449   7.653
 3661AUC    AUC 3581  16.035  34.449   7.350
 3662AUC    AUC 3582  16.035  34.449   7.653
 3663AUC    AUC 3583  16.280  35.092   7.747
 3664AUC    AUC 3584  16.584  35.092   7.747
 3665AUC    AUC 3585  16.280  34.297   7.747
 3666AUC    AUC 3586  16.584  34.297   7.747
 3667AUC    AUC 3587  16.280  35.092   7.256
 3668AUC    AUC 3588  16.584  35.092   7.256
 3669AUC    AUC 3589  16.280  34.297   7.256
 3670AUC    AUC 3590  16.584  34.297   7.256
 3671AUSL   AUS 3591  16.841  34.695   8.082
 3672AUSL   AUS 3592  16.697  34.278   8.012
 3673AUL    AUL 3593  16.923  34.391   8.296
 3674THSLK    S 3594  16.811  34.090   8.156
 3675ETHY    C1 3595  16.877  33.705   8.391
 3676ETHY    C1 3596  17.020  33.297   8.710
 3677ETHY    C1 3597  17.229  32.961   9.066
 3678ETHY    C1 3598  17.495  32.703   9.450
 3679ETHY    C1 3599  17.811  32.527   9.855
 3680THSLK    S 3600  16.937  34.645   8.326
 3681ETHY    C1 3601  17.153  34.459   8.681
 3682ETHY    C1 3602  17.428  34.324   9.124
 3683ETHY    C1 3603  17.709  34.294   9.575
 3684ETHY    C1 3604  17.987  34.363  10.025
 3685ETHY    C1 3605  18.256  34.531  10.466
 3686AUSL   AUS 3606  16.596  34.543   8.175
 3687AUSL   AUS 3607  16.269  34.846   8.175
 3688AUL    AUL 3608  16.432  34.695   8.483
 3689THSLK    S 3609  16.674  34.490   8.417
 3690ETHY    C1 3610  16.751  34.240   8.790
 3691ETHY    C1 3611  16.867  34.023   9.269
 3692ETHY    C1 3612  17.004  33.907   9.769
 3693ETHY    C1 3613  17.154  33.889  10.281
 3694ETHY    C1 3614  17.313  33.970  10.794
 3695THSLK    S 3615  16.182  34.803   8.431
 3696ETHY    C1 3616  16.100  34.691   8.864
 3697ETHY    C1 3617  15.986  34.645   9.388
 3698ETHY    C1 3618  15.854  34.703   9.901
 3699ETHY    C1 3619  15.703  34.856  10.389
 3700ETHY    C1 3620  15.537  35.100  10.844
 3701AUSL   AUS 3621  16.596  34.846   8.175
 3702AUSL   AUS 3622  16.942  34.959   7.918
 3703AUL    AUL 3623  16.923  34.998   8.296
 3704THSLK    S 3624  16.683  34.900   8.414
 3705ETHY    C1 3625  16.764  35.151   8.786
 3706ETHY    C1 3626  16.878  35.367   9.265
 3707ETHY    C1 3627  17.011  35.483   9.767
 3708ETHY    C1 3628  17.161  35.501  10.279
 3709ETHY    C1 3629  17.327  35.421  10.789
 3710THSLK    S 3630  17.116  35.061   8.080
 3711ETHY    C1 3631  17.480  35.071   8.354
 3712ETHY    C1 3632  17.896  35.173   8.680
 3713ETHY    C1 3633  18.276  35.372   8.995
 3714ETHY    C1 3634  18.611  35.659   9.296
 3715ETHY    C1 3635  18.892  36.027   9.577
 3716AUSL   AUS 3636  16.841  34.695   6.922
 3717AUSL   AUS 3637  16.697  35.111   6.992
 3718AUL    AUL 3638  16.923  34.998   6.707
 3719THSLK    S 3639  16.944  34.645   6.681
 3720ETHY    C1 3640  17.165  34.459   6.329
 3721ETHY    C1 3641  17.438  34.324   5.885
 3722ETHY    C1 3642  17.716  34.294   5.432
 3723ETHY    C1 3643  17.994  34.363   4.982
 3724ETHY    C1 3644  18.268  34.531   4.545
 3725THSLK    S 3645  16.875  35.226   6.825
 3726ETHY    C1 3646  17.163  35.331   6.488
 3727ETHY    C1 3647  17.463  35.535   6.090
 3728ETHY    C1 3648  17.706  35.823   5.714
 3729ETHY    C1 3649  17.890  36.187   5.371
 3730ETHY    C1 3650  18.014  36.618   5.065
 3731AUSL   AUS 3651  16.596  34.543   6.828
 3732AUSL   AUS 3652  16.942  34.430   7.085
 3733AUL    AUL 3653  16.923  34.391   6.707
 3734THSLK    S 3654  17.079  34.238   6.944
 3735ETHY    C1 3655  17.287  33.895   6.729
 3736ETHY    C1 3656  17.588  33.553   6.442
 3737ETHY    C1 3657  17.939  33.300   6.133
 3738ETHY    C1 3658  18.333  33.138   5.812
 3739ETHY    C1 3659  18.762  33.067   5.486
 3740THSLK    S 3660  16.683  34.489   6.590
 3741ETHY    C1 3661  16.764  34.238   6.217
 3742ETHY    C1 3662  16.878  34.022   5.738
 3743ETHY    C1 3663  17.011  33.906   5.236
 3744ETHY    C1 3664  17.161  33.888   4.725
 3745ETHY    C1 3665  17.327  33.968   4.214
 3746AUSL   AUS 3666  16.596  34.846   6.828
 3747AUSL   AUS 3667  16.269  34.543   6.828
 3748AUL    AUL 3668  16.432  34.695   6.520
 3749THSLK    S 3669  16.174  34.489   6.592
 3750ETHY    C1 3670  16.037  34.241   6.235
 3751ETHY    C1 3671  15.877  34.027   5.767
 3752ETHY    C1 3672  15.730  33.912   5.269
 3753ETHY    C1 3673  15.603  33.893   4.751
 3754ETHY    C1 3674  15.498  33.969   4.224
 3755THSLK    S 3675  16.699  34.804   6.578
 3756ETHY    C1 3676  16.840  34.689   6.160
 3757ETHY    C1 3677  16.998  34.642   5.647
 3758ETHY    C1 3678  17.141  34.698   5.138
 3759ETHY    C1 3679  17.269  34.852   4.643
 3760ETHY    C1 3680  17.380  35.100   4.174
 3761AUSL   AUS 3681  16.023  34.695   8.082
 3762AUSL   AUS 3682  16.167  35.111   8.012
 3763AUL    AUL 3683  15.941  34.998   8.296
 3764THSLK    S 3684  15.920  34.645   8.322
 3765ETHY    C1 3685  15.699  34.459   8.674
 3766ETHY    C1 3686  15.426  34.324   9.118
 3767ETHY    C1 3687  15.149  34.294   9.571
 3768ETHY    C1 3688  14.871  34.363  10.021
 3769ETHY    C1 3689  14.596  34.531  10.458
 3770THSLK    S 3690  16.047  35.240   8.202
 3771ETHY    C1 3691  15.978  35.409   8.620
 3772ETHY    C1 3692  15.836  35.662   9.073
 3773ETHY    C1 3693  15.630  35.963   9.460
 3774ETHY    C1 3694  15.363  36.302   9.775
 3775ETHY    C1 3695  15.043  36.669  10.013
 3776AUSL   AUS 3696  16.269  34.543   8.175
 3777AUSL   AUS 3697  15.922  34.430   7.918
 3778AUL    AUL 3698  15.941  34.391   8.296
 3779THSLK    S 3699  15.744  34.266   8.029
 3780ETHY    C1 3700  15.376  34.013   8.125
 3781ETHY    C1 3701  14.961  33.734   8.323
 3782ETHY    C1 3702  14.583  33.494   8.611
 3783ETHY    C1 3703  14.249  33.298   8.978
 3784ETHY    C1 3704  13.963  33.152   9.415
 3785THSLK    S 3705  16.166  34.491   8.410
 3786ETHY    C1 3706  16.024  34.244   8.766
 3787ETHY    C1 3707  15.866  34.029   9.233
 3788ETHY    C1 3708  15.723  33.913   9.733
 3789ETHY    C1 3709  15.596  33.895  10.250
 3790ETHY    C1 3710  15.484  33.973  10.775
 3791AUSL   AUS 3711  16.023  34.695   6.922
 3792AUSL   AUS 3712  16.167  34.278   6.992
 3793AUL    AUL 3713  15.941  34.391   6.707
 3794THSLK    S 3714  15.928  34.645   6.677
 3795ETHY    C1 3715  15.711  34.459   6.322
 3796ETHY    C1 3716  15.436  34.324   5.879
 3797ETHY    C1 3717  15.155  34.294   5.429
 3798ETHY    C1 3718  14.877  34.363   4.978
 3799ETHY    C1 3719  14.609  34.531   4.537
 3800THSLK    S 3720  15.995  34.104   6.872
 3801ETHY    C1 3721  15.710  33.783   6.717
 3802ETHY    C1 3722  15.409  33.424   6.453
 3803ETHY    C1 3723  15.164  33.101   6.109
 3804ETHY    C1 3724  14.980  32.818   5.696
 3805ETHY    C1 3725  14.861  32.578   5.223
 3806AUSL   AUS 3726  16.269  34.846   6.828
 3807AUSL   AUS 3727  15.922  34.959   7.085
 3808AUL    AUL 3728  15.941  34.998   6.707
 3809THSLK    S 3729  15.791  35.089   6.893
 3810ETHY    C1 3730  15.585  35.189   6.499
 3811ETHY    C1 3731  15.283  35.353   6.085
 3812ETHY    C1 3732  14.929  35.565   5.748
 3813ETHY    C1 3733  14.536  35.819   5.494
 3814ETHY    C1 3734  14.111  36.112   5.324
 3815THSLK    S 3735  16.190  34.805   6.571
 3816ETHY    C1 3736  16.113  34.693   6.136
 3817ETHY    C1 3737  15.997  34.648   5.612
 3818ETHY    C1 3738  15.861  34.704   5.101
 3819ETHY    C1 3739  15.711  34.858   4.613
 3820ETHY    C1 3740  15.551  35.103   4.156
 3821AUSL   AUS 3741  17.012  35.104   7.502
 3822AUSL   AUS 3742  16.942  34.959   7.085
 3823AUL    AUL 3743  17.226  35.185   7.198
 3824THSLK    S 3744  17.121  35.062   6.930
 3825ETHY    C1 3745  17.488  35.073   6.659
 3826ETHY    C1 3746  17.903  35.175   6.332
 3827ETHY    C1 3747  18.281  35.373   6.014
 3828ETHY    C1 3748  18.615  35.660   5.713
 3829ETHY    C1 3749  18.901  36.030   5.438
 3830THSLK    S 3750  17.280  35.160   7.506
 3831ETHY    C1 3751  17.732  35.221   7.508
 3832ETHY    C1 3752  18.246  35.380   7.507
 3833ETHY    C1 3753  18.714  35.634   7.505
 3834ETHY    C1 3754  19.127  35.971   7.506
 3835ETHY    C1 3755  19.479  36.385   7.509
 3836AUSL   AUS 3756  17.106  34.858   7.350
 3837AUSL   AUS 3757  17.106  34.531   7.653
 3838AUL    AUL 3758  17.414  34.695   7.502
 3839THSLK    S 3759  17.365  34.901   7.348
 3840ETHY    C1 3760  17.810  34.831   7.278
 3841ETHY    C1 3761  18.341  34.838   7.190
 3842ETHY    C1 3762  18.854  34.948   7.101
 3843ETHY    C1 3763  19.339  35.154   7.017
 3844ETHY    C1 3764  19.786  35.451   6.940
 3845THSLK    S 3765  17.338  34.393   7.662
 3846ETHY    C1 3766  17.684  34.104   7.728
 3847ETHY    C1 3767  18.145  33.837   7.809
 3848ETHY    C1 3768  18.642  33.668   7.892
 3849ETHY    C1 3769  19.163  33.596   7.980
 3850ETHY    C1 3770  19.698  33.622   8.071
 3851AUSL   AUS 3771  17.106  34.858   7.653
 3852AUSL   AUS 3772  16.849  35.205   7.766
 3853AUL    AUL 3773  17.226  35.185   7.805
 3854THSLK    S 3774  17.032  35.324   7.926
 3855ETHY    C1 3775  17.404  35.479   8.139
 3856ETHY    C1 3776  17.804  35.744   8.385
 3857ETHY    C1 3777  18.138  36.088   8.615
 3858ETHY    C1 3778  18.400  36.501   8.827
 3859ETHY    C1 3779  18.587  36.973   9.019
 3860THSLK    S 3780  17.364  34.901   7.664
 3861ETHY    C1 3781  17.808  34.831   7.738
 3862ETHY    C1 3782  18.339  34.838   7.825
 3863ETHY    C1 3783  18.853  34.948   7.910
 3864ETHY    C1 3784  19.337  35.154   7.994
 3865ETHY    C1 3785  19.784  35.451   8.078
 3866AUSL   AUS 3786  15.852  35.104   7.502
 3867AUSL   AUS 3787  15.922  34.959   7.918
 3868AUL    AUL 3788  15.638  35.185   7.805
 3869THSLK    S 3789  15.786  35.082   8.109
 3870ETHY    C1 3790  15.577  35.178   8.503
 3871ETHY    C1 3791  15.276  35.344   8.917
 3872ETHY    C1 3792  14.925  35.559   9.254
 3873ETHY    C1 3793  14.531  35.813   9.509
 3874ETHY    C1 3794  14.102  36.100   9.678
 3875THSLK    S 3795  15.636  35.244   7.506
 3876ETHY    C1 3796  15.380  35.622   7.508
 3877ETHY    C1 3797  15.007  36.010   7.507
 3878ETHY    C1 3798  14.571  36.316   7.505
 3879ETHY    C1 3799  14.085  36.534   7.506
 3880ETHY    C1 3800  13.558  36.664   7.509
 3881AUSL   AUS 3801  15.758  34.858   7.350
 3882AUSL   AUS 3802  16.016  35.205   7.237
 3883AUL    AUL 3803  15.638  35.185   7.198
 3884THSLK    S 3804  15.527  34.973   7.303
 3885ETHY    C1 3805  15.180  35.161   7.075
 3886ETHY    C1 3806  14.720  35.353   6.872
 3887ETHY    C1 3807  14.222  35.503   6.758
 3888ETHY    C1 3808  13.701  35.613   6.733
 3889ETHY    C1 3809  13.167  35.683   6.796
 3890THSLK    S 3810  15.900  35.370   7.058
 3891ETHY    C1 3811  15.784  35.686   6.750
 3892ETHY    C1 3812  15.570  36.064   6.432
 3893ETHY    C1 3813  15.278  36.433   6.183
 3894ETHY    C1 3814  14.920  36.786   6.008
 3895ETHY    C1 3815  14.502  37.119   5.909
 3896AUSL   AUS 3816  15.758  34.858   7.653
 3897AUSL   AUS 3817  15.758  34.531   7.350
 3898AUL    AUL 3818  15.450  34.695   7.502
 3899THSLK    S 3819  15.500  34.457   7.390
 3900ETHY    C1 3820  15.056  34.422   7.486
 3901ETHY    C1 3821  14.525  34.341   7.518
 3902ETHY    C1 3822  14.011  34.216   7.458
 3903ETHY    C1 3823  13.527  34.048   7.311
 3904ETHY    C1 3824  13.080  33.841   7.083
 3905THSLK    S 3825  15.525  34.965   7.704
 3906ETHY    C1 3826  15.178  35.149   7.935
 3907ETHY    C1 3827  14.718  35.342   8.137
 3908ETHY    C1 3828  14.221  35.497   8.249
 3909ETHY    C1 3829  13.700  35.607   8.274
 3910ETHY    C1 3830  13.164  35.670   8.213
 3911AUSL   AUS 3831  17.012  34.285   7.502
 3912AUSL   AUS 3832  16.942  34.430   7.918
 3913AUL    AUL 3833  17.226  34.204   7.805
 3914THSLK    S 3834  17.228  34.145   7.506
 3915ETHY    C1 3835  17.484  33.767   7.508
 3916ETHY    C1 3836  17.857  33.379   7.507
 3917ETHY    C1 3837  18.293  33.073   7.505
 3918ETHY    C1 3838  18.779  32.855   7.506
 3919ETHY    C1 3839  19.306  32.725   7.509
 3920THSLK    S 3840  17.074  34.240   8.066
 3921ETHY    C1 3841  17.279  33.897   8.285
 3922ETHY    C1 3842  17.581  33.555   8.570
 3923ETHY    C1 3843  17.935  33.302   8.877
 3924ETHY    C1 3844  18.329  33.139   9.198
 3925ETHY    C1 3845  18.753  33.069   9.529
 3926AUSL   AUS 3846  17.106  34.531   7.350
 3927AUSL   AUS 3847  16.849  34.184   7.237
 3928AUL    AUL 3848  17.226  34.204   7.198
 3929THSLK    S 3849  17.339  34.393   7.350
 3930ETHY    C1 3850  17.687  34.104   7.289
 3931ETHY    C1 3851  18.146  33.837   7.206
 3932ETHY    C1 3852  18.643  33.668   7.118
 3933ETHY    C1 3853  19.165  33.596   7.031
 3934ETHY    C1 3854  19.700  33.622   6.947
 3935THSLK    S 3855  16.968  33.994   7.104
 3936ETHY    C1 3856  17.085  33.577   6.963
 3937ETHY    C1 3857  17.299  33.123   6.765
 3938ETHY    C1 3858  17.589  32.737   6.543
 3939ETHY    C1 3859  17.948  32.422   6.306
 3940ETHY    C1 3860  18.368  32.183   6.058
 3941AUSL   AUS 3861  15.852  34.285   7.502
 3942AUSL   AUS 3862  15.922  34.430   7.085
 3943AUL    AUL 3863  15.638  34.204   7.198
 3944THSLK    S 3864  15.749  34.259   6.973
 3945ETHY    C1 3865  15.384  34.002   6.877
 3946ETHY    C1 3866  14.968  33.725   6.679
 3947ETHY    C1 3867  14.588  33.488   6.392
 3948ETHY    C1 3868  14.254  33.292   6.025
 3949ETHY    C1 3869  13.972  33.140   5.587
 3950THSLK    S 3870  15.584  34.229   7.506
 3951ETHY    C1 3871  15.132  34.168   7.508
 3952ETHY    C1 3872  14.618  34.009   7.507
 3953ETHY    C1 3873  14.150  33.755   7.505
 3954ETHY    C1 3874  13.737  33.418   7.506
 3955ETHY    C1 3875  13.385  33.004   7.509
 3956AUSL   AUS 3876  15.758  34.531   7.653
 3957AUSL   AUS 3877  16.016  34.184   7.766
 3958AUL    AUL 3878  15.638  34.204   7.805
 3959THSLK    S 3879  15.828  34.040   7.880
 3960ETHY    C1 3880  15.454  33.783   7.926
 3961ETHY    C1 3881  15.056  33.443   8.052
 3962ETHY    C1 3882  14.723  33.081   8.255
 3963ETHY    C1 3883  14.461  32.707   8.529
 3964ETHY    C1 3884  14.270  32.329   8.870
 3965THSLK    S 3885  15.499  34.464   7.617
 3966ETHY    C1 3886  15.054  34.434   7.524
 3967ETHY    C1 3887  14.523  34.352   7.490
 3968ETHY    C1 3888  14.010  34.223   7.549
 3969ETHY    C1 3889  13.526  34.055   7.696
 3970ETHY    C1 3890  13.078  33.853   7.928
 3971AUSL   AUS 3891  16.432  35.275   7.911
 3972AUSL   AUS 3892  16.016  35.205   7.766
 3973AUL    AUL 3893  16.129  35.489   7.992
 3974THSLK    S 3894  15.896  35.364   7.950
 3975ETHY    C1 3895  15.779  35.676   8.261
 3976ETHY    C1 3896  15.565  36.056   8.578
 3977ETHY    C1 3897  15.275  36.427   8.824
 3978ETHY    C1 3898  14.917  36.781   9.000
 3979ETHY    C1 3899  14.496  37.109   9.102
 3980THSLK    S 3900  16.472  35.501   8.035
 3981ETHY    C1 3901  16.629  35.803   8.339
 3982ETHY    C1 3902  16.744  36.209   8.672
 3983ETHY    C1 3903  16.771  36.653   8.964
 3984ETHY    C1 3904  16.711  37.122   9.211
 3985ETHY    C1 3905  16.567  37.606   9.410
 3986AUSL   AUS 3906  16.280  35.368   7.665
 3987AUSL   AUS 3907  16.584  35.368   7.338
 3988AUL    AUL 3908  16.432  35.676   7.502
 3989THSLK    S 3909  16.321  35.616   7.774
 3990ETHY    C1 3910  16.430  36.026   7.942
 3991ETHY    C1 3911  16.474  36.533   8.118
 3992ETHY    C1 3912  16.417  37.041   8.265
 3993ETHY    C1 3913  16.264  37.538   8.383
 3994ETHY    C1 3914  16.021  38.015   8.472
 3995THSLK    S 3915  16.637  35.603   7.241
 3996ETHY    C1 3916  16.882  35.959   7.094
 3997ETHY    C1 3917  17.095  36.424   6.927
 3998ETHY    C1 3918  17.210  36.922   6.779
 3999ETHY    C1 3919  17.230  37.441   6.655
 4000ETHY    C1 3920  17.155  37.970   6.558
 4001AUSL   AUS 3921  16.584  35.368   7.665
 4002AUSL   AUS 3922  16.697  35.111   8.012
 4003AUL    AUL 3923  16.735  35.489   7.992
 4004THSLK    S 3924  16.869  35.224   8.184
 4005ETHY    C1 3925  17.154  35.327   8.524
 4006ETHY    C1 3926  17.456  35.531   8.921
 4007ETHY    C1 3927  17.701  35.821   9.294
 4008ETHY    C1 3928  17.885  36.184   9.638
 4009ETHY    C1 3929  18.004  36.614   9.948
 4010THSLK    S 3930  16.635  35.602   7.771
 4011ETHY    C1 3931  16.879  35.956   7.922
 4012ETHY    C1 3932  17.092  36.422   8.087
 4013ETHY    C1 3933  17.208  36.921   8.231
 4014ETHY    C1 3934  17.227  37.439   8.356
 4015ETHY    C1 3935  17.152  37.967   8.458
 4016AUSL   AUS 3936  16.432  34.115   7.911
 4017AUSL   AUS 3937  16.849  34.184   7.766
 4018AUL    AUL 3938  16.735  33.900   7.992
 4019THSLK    S 3939  16.388  33.860   7.990
 4020ETHY    C1 3940  16.228  33.456   8.128
 4021ETHY    C1 3941  16.114  32.975   8.341
 4022ETHY    C1 3942  16.089  32.514   8.605
 4023ETHY    C1 3943  16.148  32.084   8.915
 4024ETHY    C1 3944  16.289  31.692   9.263
 4025THSLK    S 3945  16.964  33.995   7.908
 4026ETHY    C1 3946  17.080  33.579   8.052
 4027ETHY    C1 3947  17.294  33.126   8.248
 4028ETHY    C1 3948  17.586  32.738   8.467
 4029ETHY    C1 3949  17.945  32.423   8.705
 4030ETHY    C1 3950  18.362  32.186   8.958
 4031AUSL   AUS 3951  16.280  34.021   7.665
 4032AUSL   AUS 3952  16.167  34.278   8.012
 4033AUL    AUL 3953  16.129  33.900   7.992
 4034THSLK    S 3954  16.227  33.781   7.745
 4035ETHY    C1 3955  15.982  33.400   7.801
 4036ETHY    C1 3956  15.769  32.915   7.897
 4037ETHY    C1 3957  15.654  32.412   8.025
 4038ETHY    C1 3958  15.635  31.903   8.186
 4039ETHY    C1 3959  15.709  31.400   8.374
 4040THSLK    S 3960  15.989  34.110   8.133
 4041ETHY    C1 3961  15.701  33.792   8.289
 4042ETHY    C1 3962  15.401  33.432   8.552
 4043ETHY    C1 3963  15.158  33.106   8.896
 4044ETHY    C1 3964  14.974  32.823   9.309
 4045ETHY    C1 3965  14.850  32.589   9.783
 4046AUSL   AUS 3966  16.584  34.021   7.665
 4047AUSL   AUS 3967  16.280  34.021   7.338
 4048AUL    AUL 3968  16.432  33.713   7.502
 4049THSLK    S 3969  16.229  33.778   7.266
 4050ETHY    C1 3970  15.985  33.396   7.215
 4051ETHY    C1 3971  15.772  32.912   7.117
 4052ETHY    C1 3972  15.656  32.410   6.984
 4053ETHY    C1 3973  15.637  31.901   6.825
 4054ETHY    C1 3974  15.713  31.396   6.642
 4055THSLK    S 3975  16.541  33.765   7.749
 4056ETHY    C1 3976  16.431  33.329   7.821
 4057ETHY    C1 3977  16.388  32.803   7.928
 4058ETHY    C1 3978  16.445  32.291   8.059
 4059ETHY    C1 3979  16.598  31.803   8.213
 4060ETHY    C1 3980  16.840  31.350   8.388
 4061AUSL   AUS 3981  16.432  35.275   7.093
 4062AUSL   AUS 3982  16.849  35.205   7.237
 4063AUL    AUL 3983  16.735  35.489   7.011
 4064THSLK    S 3984  16.476  35.505   6.975
 4065ETHY    C1 3985  16.636  35.809   6.674
 4066ETHY    C1 3986  16.750  36.214   6.339
 4067ETHY    C1 3987  16.775  36.657   6.045
 4068ETHY    C1 3988  16.716  37.126   5.798
 4069ETHY    C1 3989  16.575  37.613   5.604
 4070THSLK    S 3990  17.036  35.326   7.085
 4071ETHY    C1 3991  17.410  35.482   6.876
 4072ETHY    C1 3992  17.808  35.746   6.629
 4073ETHY    C1 3993  18.141  36.090   6.395
 4074ETHY    C1 3994  18.403  36.502   6.184
 4075ETHY    C1 3995  18.594  36.976   5.998
 4076AUSL   AUS 3996  16.280  35.368   7.338
 4077AUSL   AUS 3997  16.167  35.111   6.992
 4078AUL    AUL 3998  16.129  35.489   7.011
 4079THSLK    S 3999  16.323  35.619   7.237
 4080ETHY    C1 4000  16.433  36.030   7.074
 4081ETHY    C1 4001  16.476  36.536   6.896
 4082ETHY    C1 4002  16.419  37.044   6.745
 4083ETHY    C1 4003  16.266  37.541   6.627
 4084ETHY    C1 4004  16.024  38.020   6.545
 4085THSLK    S 4005  16.053  35.246   6.802
 4086ETHY    C1 4006  15.987  35.418   6.385
 4087ETHY    C1 4007  15.844  35.670   5.932
 4088ETHY    C1 4008  15.635  35.969   5.544
 4089ETHY    C1 4009  15.369  36.307   5.230
 4090ETHY    C1 4010  15.053  36.680   4.993
 4091AUSL   AUS 4011  16.432  34.115   7.093
 4092AUSL   AUS 4012  16.016  34.184   7.237
 4093AUL    AUL 4013  16.129  33.900   7.011
 4094THSLK    S 4014  15.832  34.034   7.128
 4095ETHY    C1 4015  15.460  33.773   7.085
 4096ETHY    C1 4016  15.061  33.435   6.958
 4097ETHY    C1 4017  14.726  33.076   6.753
 4098ETHY    C1 4018  14.464  32.702   6.478
 4099ETHY    C1 4019  14.277  32.319   6.142
 4100THSLK    S 4020  16.392  33.856   7.019
 4101ETHY    C1 4021  16.235  33.450   6.885
 4102ETHY    C1 4022  16.120  32.970   6.671
 4103ETHY    C1 4023  16.093  32.511   6.404
 4104ETHY    C1 4024  16.153  32.080   6.094
 4105ETHY    C1 4025  16.297  31.685   5.751
 4106AUSL   AUS 4026  16.584  34.021   7.338
 4107AUSL   AUS 4027  16.697  34.278   6.992
 4108AUL    AUL 4028  16.735  33.900   7.011
 4109THSLK    S 4029  16.543  33.764   7.262
 4110ETHY    C1 4030  16.434  33.326   7.195
 4111ETHY    C1 4031  16.391  32.800   7.086
 4112ETHY    C1 4032  16.447  32.289   6.951
 4113ETHY    C1 4033  16.600  31.801   6.798
 4114ETHY    C1 4034  16.844  31.347   6.629
 4115THSLK    S 4035  16.817  34.088   6.853
 4116ETHY    C1 4036  16.886  33.702   6.621
 4117ETHY    C1 4037  17.028  33.294   6.300
 4118ETHY    C1 4038  17.235  32.958   5.942
 4119ETHY    C1 4039  17.501  32.701   5.559
 4120ETHY    C1 4040  17.821  32.523   5.158
 4121AUC    AUC 4041  30.646  40.459   7.502
 4122AUC    AUC 4042  30.892  40.459   7.350
 4123AUC    AUC 4043  30.892  40.459   7.653
 4124AUC    AUC 4044  30.401  40.459   7.350
 4125AUC    AUC 4045  30.401  40.459   7.653
 4126AUC    AUC 4046  30.494  40.704   7.502
 4127AUC    AUC 4047  30.798  40.704   7.502
 4128AUC    AUC 4048  30.494  40.213   7.502
 4129AUC    AUC 4049  30.798  40.213   7.502
 4130AUC    AUC 4050  30.646  40.307   7.747
 4131AUC    AUC 4051  30.646  40.610   7.747
 4132AUC    AUC 4052  30.646  40.307   7.256
 4133AUC    AUC 4053  30.646  40.610   7.256
 4134AUC    AUC 4054  31.137  40.459   7.198
 4135AUC    AUC 4055  31.137  40.459   7.502
 4136AUC    AUC 4056  31.137  40.459   7.805
 4137AUC    AUC 4057  30.155  40.459   7.198
 4138AUC    AUC 4058  30.155  40.459   7.502
 4139AUC    AUC 4059  30.155  40.459   7.805
 4140AUC    AUC 4060  30.343  40.949   7.502
 4141AUC    AUC 4061  30.646  40.949   7.502
 4142AUC    AUC 4062  30.949  40.949   7.502
 4143AUC    AUC 4063  30.343  39.968   7.502
 4144AUC    AUC 4064  30.646  39.968   7.502
 4145AUC    AUC 4065  30.949  39.968   7.502
 4146AUC    AUC 4066  30.646  40.155   7.992
 4147AUC    AUC 4067  30.646  40.459   7.992
 4148AUC    AUC 4068  30.646  40.762   7.992
 4149AUC    AUC 4069  30.646  40.155   7.011
 4150AUC    AUC 4070  30.646  40.459   7.011
 4151AUC    AUC 4071  30.646  40.762   7.011
 4152AUC    AUC 4072  30.892  40.307   7.899
 4153AUC    AUC 4073  30.892  40.610   7.899
 4154AUC    AUC 4074  30.892  40.307   7.105
 4155AUC    AUC 4075  30.892  40.610   7.105
 4156AUC    AUC 4076  30.401  40.307   7.899
 4157AUC    AUC 4077  30.401  40.610   7.899
 4158AUC    AUC 4078  30.401  40.307   7.105
 4159AUC    AUC 4079  30.401  40.610   7.105
 4160AUC    AUC 4080  31.043  40.704   7.350
 4161AUC    AUC 4081  31.043  40.704   7.653
 4162AUC    AUC 4082  30.249  40.704   7.350
 4163AUC    AUC 4083  30.249  40.704   7.653
 4164AUC    AUC 4084  31.043  40.213   7.350
 4165AUC    AUC 4085  31.043  40.213   7.653
 4166AUC    AUC 4086  30.249  40.213   7.350
 4167AUC    AUC 4087  30.249  40.213   7.653
 4168AUC    AUC 4088  30.494  40.856   7.747
 4169AUC    AUC 4089  30.798  40.856   7.747
 4170AUC    AUC 4090  30.494  40.061   7.747
 4171AUC    AUC 4091  30.798  40.061   7.747
 4172AUC    AUC 4092  30.494  40.856   7.256
 4173AUC    AUC 4093  30.798  40.856   7.256
 4174AUC    AUC 4094  30.494  40.061   7.256
 4175AUC    AUC 4095  30.798  40.061   7.256
 4176AUSL   AUS 4096  31.055  40.459   8.082
 4177AUSL   AUS 4097  30.911  40.042   8.012
 4178AUL    AUL 4098  31.137  40.155   8.296
 4179THSLK    S 4099  31.025  39.854   8.156
 4180ETHY    C1 4100  31.091  39.469   8.391
 4181ETHY    C1 4101  31.234  39.061   8.710
 4182ETHY    C1 4102  31.443  38.725   9.066
 4183ETHY    C1 4103  31.709  38.467   9.450
 4184ETHY    C1 4104  32.025  38.291   9.855
 4185THSLK    S 4105  31.151  40.409   8.326
 4186ETHY    C1 4106  31.367  40.223   8.681
 4187ETHY    C1 4107  31.642  40.088   9.124
 4188ETHY    C1 4108  31.923  40.058   9.575
 4189ETHY    C1 4109  32.201  40.127  10.025
 4190ETHY    C1 4110  32.470  40.295  10.466
 4191AUSL   AUS 4111  30.810  40.307   8.175
 4192AUSL   AUS 4112  30.483  40.610   8.175
 4193AUL    AUL 4113  30.646  40.459   8.483
 4194THSLK    S 4114  30.888  40.254   8.417
 4195ETHY    C1 4115  30.965  40.004   8.790
 4196ETHY    C1 4116  31.081  39.787   9.269
 4197ETHY    C1 4117  31.218  39.671   9.769
 4198ETHY    C1 4118  31.368  39.653  10.281
 4199ETHY    C1 4119  31.527  39.734  10.794
 4200THSLK    S 4120  30.396  40.567   8.431
 4201ETHY    C1 4121  30.314  40.455   8.864
 4202ETHY    C1 4122  30.200  40.409   9.388
 4203ETHY    C1 4123  30.068  40.467   9.901
 4204ETHY    C1 4124  29.917  40.620  10.389
 4205ETHY    C1 4125  29.751  40.864  10.844
 4206AUSL   AUS 4126  30.810  40.610   8.175
 4207AUSL   AUS 4127  31.156  40.723   7.918
 4208AUL    AUL 4128  31.137  40.762   8.296
 4209THSLK    S 4129  30.897  40.664   8.414
 4210ETHY    C1 4130  30.978  40.915   8.786
 4211ETHY    C1 4131  31.092  41.131   9.265
 4212ETHY    C1 4132  31.225  41.247   9.767
 4213ETHY    C1 4133  31.375  41.265  10.279
 4214ETHY    C1 4134  31.541  41.185  10.789
 4215THSLK    S 4135  31.330  40.825   8.080
 4216ETHY    C1 4136  31.694  40.835   8.354
 4217ETHY    C1 4137  32.110  40.937   8.680
 4218ETHY    C1 4138  32.490  41.136   8.995
 4219ETHY    C1 4139  32.825  41.423   9.296
 4220ETHY    C1 4140  33.106  41.791   9.577
 4221AUSL   AUS 4141  31.055  40.459   6.922
 4222AUSL   AUS 4142  30.911  40.875   6.992
 4223AUL    AUL 4143  31.137  40.762   6.707
 4224THSLK    S 4144  31.158  40.409   6.681
 4225ETHY    C1 4145  31.379  40.223   6.329
 4226ETHY    C1 4146  31.652  40.088   5.885
 4227ETHY    C1 4147  31.930  40.058   5.432
 4228ETHY    C1 4148  32.208  40.127   4.982
 4229ETHY    C1 4149  32.482  40.295   4.545
 4230THSLK    S 4150  31.089  40.990   6.825
 4231ETHY    C1 4151  31.377  41.095   6.488
 4232ETHY    C1 4152  31.677  41.299   6.090
 4233ETHY    C1 4153  31.920  41.587   5.714
 4234ETHY    C1 4154  32.104  41.951   5.371
 4235ETHY    C1 4155  32.228  42.382   5.065
 4236AUSL   AUS 4156  30.810  40.307   6.828
 4237AUSL   AUS 4157  31.156  40.194   7.085
 4238AUL    AUL 4158  31.137  40.155   6.707
 4239THSLK    S 4159  31.293  40.002   6.944
 4240ETHY    C1 4160  31.501  39.659   6.729
 4241ETHY    C1 4161  31.802  39.317   6.442
 4242ETHY    C1 4162  32.153  39.064   6.133
 4243ETHY    C1 4163  32.547  38.902   5.812
 4244ETHY    C1 4164  32.976  38.831   5.486
 4245THSLK    S 4165  30.897  40.253   6.590
 4246ETHY    C1 4166  30.978  40.002   6.217
 4247ETHY    C1 4167  31.092  39.786   5.738
 4248ETHY    C1 4168  31.225  39.670   5.236
 4249ETHY    C1 4169  31.375  39.652   4.725
 4250ETHY    C1 4170  31.541  39.732   4.214
 4251AUSL   AUS 4171  30.810  40.610   6.828
 4252AUSL   AUS 4172  30.483  40.307   6.828
 4253AUL    AUL 4173  30.646  40.459   6.520
 4254THSLK    S 4174  30.388  40.253   6.592
 4255ETHY    C1 4175  30.251  40.005   6.235
 4256ETHY    C1 4176  30.091  39.791   5.767
 4257ETHY    C1 4177  29.944  39.676   5.269
 4258ETHY    C1 4178  29.817  39.657   4.751
 4259ETHY    C1 4179  29.712  39.733   4.224
 4260THSLK    S 4180  30.913  40.568   6.578
 4261ETHY    C1 4181  31.054  40.453   6.160
 4262ETHY    C1 4182  31.212  40.406   5.647
 4263ETHY    C1 4183  31.355  40.462   5.138
 4264ETHY    C1 4184  31.483  40.616   4.643
 4265ETHY    C1 4185  31.594  40.864   4.174
 4266AUSL   AUS 4186  30.237  40.459   8.082
 4267AUSL   AUS 4187  30.381  40.875   8.012
 4268AUL    AUL 4188  30.155  40.762   8.296
 4269THSLK    S 4189  30.134  40.409   8.322
 4270ETHY    C1 4190  29.913  40.223   8.674
 4271ETHY    C1 4191  29.640  40.088   9.118
 4272ETHY    C1 4192  29.363  40.058   9.571
 4273ETHY    C1 4193  29.085  40.127  10.021
 4274ETHY    C1 4194  28.810  40.295  10.458
 4275THSLK    S 4195  30.261  41.004   8.202
 4276ETHY    C1 4196  30.192  41.173   8.620
 4277ETHY    C1 4197  30.050  41.426   9.073
 4278ETHY    C1 4198  29.844  41.727   9.460
 4279ETHY    C1 4199  29.577  42.066   9.775
 4280ETHY    C1 4200  29.257  42.433  10.013
 4281AUSL   AUS 4201  30.483  40.307   8.175
 4282AUSL   AUS 4202  30.136  40.194   7.918
 4283AUL    AUL 4203  30.155  40.155   8.296
 4284THSLK    S 4204  29.958  40.030   8.029
 4285ETHY    C1 4205  29.590  39.777   8.125
 4286ETHY    C1 4206  29.175  39.498   8.323
 4287ETHY    C1 4207  28.797  39.258   8.611
 4288ETHY    C1 4208  28.463  39.062   8.978
 4289ETHY    C1 4209  28.177  38.916   9.415
 4290THSLK    S 4210  30.380  40.255   8.410
 4291ETHY    C1 4211  30.238  40.008   8.766
 4292ETHY    C1 4212  30.080  39.793   9.233
 4293ETHY    C1 4213  29.937  39.677   9.733
 4294ETHY    C1 4214  29.810  39.659  10.250
 4295ETHY    C1 4215  29.698  39.737  10.775
 4296AUSL   AUS 4216  30.237  40.459   6.922
 4297AUSL   AUS 4217  30.381  40.042   6.992
 4298AUL    AUL 4218  30.155  40.155   6.707
 4299THSLK    S 4219  30.142  40.409   6.677
 4300ETHY    C1 4220  29.925  40.223   6.322
 4301ETHY    C1 4221  29.650  40.088   5.879
 4302ETHY    C1 4222  29.369  40.058   5.429
 4303ETHY    C1 4223  29.091  40.127   4.978
 4304ETHY    C1 4224  28.823  40.295   4.537
 4305THSLK    S 4225  30.209  39.868   6.872
 4306ETHY    C1 4226  29.924  39.547   6.717
 4307ETHY    C1 4227  29.623  39.188   6.453
 4308ETHY    C1 4228  29.378  38.865   6.109
 4309ETHY    C1 4229  29.194  38.582   5.696
 4310ETHY    C1 4230  29.075  38.342   5.223
 4311AUSL   AUS 4231  30.483  40.610   6.828
 4312AUSL   AUS 4232  30.136  40.723   7.085
 4313AUL    AUL 4233  30.155  40.762   6.707
 4314THSLK    S 4234  30.005  40.853   6.893
 4315ETHY    C1 4235  29.799  40.953   6.499
 4316ETHY    C1 4236  29.497  41.117   6.085
 4317ETHY    C1 4237  29.143  41.329   5.748
 4318ETHY    C1 4238  28.750  41.583   5.494
 4319ETHY    C1 4239  28.325  41.876   5.324
 4320THSLK    S 4240  30.404  40.569   6.571
 4321ETHY    C1 4241  30.327  40.457   6.136
 4322ETHY    C1 4242  30.211  40.412   5.612
 4323ETHY    C1 4243  30.075  40.468   5.101
 4324ETHY    C1 4244  29.925  40.622   4.613
 4325ETHY    C1 4245  29.765  40.867   4.156
 4326AUSL   AUS 4246  31.226  40.868   7.502
 4327AUSL   AUS 4247  31.156  40.723   7.085
 4328AUL    AUL 4248  31.440  40.949   7.198
 4329THSLK    S 4249  31.335  40.826   6.930
 4330ETHY    C1 4250  31.702  40.837   6.659
 4331ETHY    C1 4251  32.117  40.939   6.332
 4332ETHY    C1 4252  32.495  41.137   6.014
 4333ETHY    C1 4253  32.829  41.424   5.713
 4334ETHY    C1 4254  33.115  41.794   5.438
 4335THSLK    S 4255  31.494  40.924   7.506
 4336ETHY    C1 4256  31.946  40.985   7.508
 4337ETHY    C1 4257  32.460  41.144   7.507
 4338ETHY    C1 4258  32.928  41.398   7.505
 4339ETHY    C1 4259  33.341  41.735   7.506
 4340ETHY    C1 4260  33.693  42.149   7.509
 4341AUSL   AUS 4261  31.320  40.622   7.350
 4342AUSL   AUS 4262  31.320  40.295   7.653
 4343AUL    AUL 4263  31.628  40.459   7.502
 4344THSLK    S 4264  31.579  40.665   7.348
 4345ETHY    C1 4265  32.024  40.595   7.278
 4346ETHY    C1 4266  32.555  40.602   7.190
 4347ETHY    C1 4267  33.068  40.712   7.101
 4348ETHY    C1 4268  33.553  40.918   7.017
 4349ETHY    C1 4269  34.000  41.215   6.940
 4350THSLK    S 4270  31.552  40.157   7.662
 4351ETHY    C1 4271  31.898  39.868   7.728
 4352ETHY    C1 4272  32.359  39.601   7.809
 4353ETHY    C1 4273  32.856  39.432   7.892
 4354ETHY    C1 4274  33.377  39.360   7.980
 4355ETHY    C1 4275  33.912  39.386   8.071
 4356AUSL   AUS 4276  31.320  40.622   7.653
 4357AUSL   AUS 4277  31.063  40.969   7.766
 4358AUL    AUL 4278  31.440  40.949   7.805
 4359THSLK    S 4279  31.246  41.088   7.926
 4360ETHY    C1 4280  31.618  41.243   8.139
 4361ETHY    C1 4281  32.018  41.508   8.385
 4362ETHY    C1 4282  32.352  41.852   8.615
 4363ETHY    C1 4283  32.614  42.265   8.827
 4364ETHY    C1 4284  32.801  42.737   9.019
 4365THSLK    S 4285  31.578  40.665   7.664
 4366ETHY    C1 4286  32.022  40.595   7.738
 4367ETHY    C1 4287  32.553  40.602   7.825
 4368ETHY    C1 4288  33.067  40.712   7.910
 4369ETHY    C1 4289  33.551  40.918   7.994
 4370ETHY    C1 4290  33.998  41.215   8.078
 4371AUSL   AUS 4291  30.066  40.868   7.502
 4372AUSL   AUS 4292  30.136  40.723   7.918
 4373AUL    AUL 4293  29.852  40.949   7.805
 4374THSLK    S 4294  30.000  40.846   8.109
 4375ETHY    C1 4295  29.791  40.942   8.503
 4376ETHY    C1 4296  29.490  41.108   8.917
 4377ETHY    C1 4297  29.139  41.323   9.254
 4378ETHY    C1 4298  28.745  41.577   9.509
 4379ETHY    C1 4299  28.316  41.864   9.678
 4380THSLK    S 4300  29.850  41.008   7.506
 4381ETHY    C1 4301  29.594  41.386   7.508
 4382ETHY    C1 4302  29.221  41.774   7.507
 4383ETHY    C1 4303  28.785  42.080   7.505
 4384ETHY    C1 4304  28.299  42.298   7.506
 4385ETHY    C1 4305  27.772  42.428   7.509
 4386AUSL   AUS 4306  29.972  40.622   7.350
 4387AUSL   AUS 4307  30.230  40.969   7.237
 4388AUL    AUL 4308  29.852  40.949   7.198
 4389THSLK    S 4309  29.741  40.737   7.303
 4390ETHY    C1 4310  29.394  40.925   7.075
 4391ETHY    C1 4311  28.934  41.117   6.872
 4392ETHY    C1 4312  28.436  41.267   6.758
 4393ETHY    C1 4313  27.915  41.377   6.733
 4394ETHY    C1 4314  27.381  41.447   6.796
 4395THSLK    S 4315  30.114  41.134   7.058
 4396ETHY    C1 4316  29.998  41.450   6.750
 4397ETHY    C1 4317  29.784  41.828   6.432
 4398ETHY    C1 4318  29.492  42.197   6.183
 4399ETHY    C1 4319  29.134  42.550   6.008
 4400ETHY    C1 4320  28.716  42.883   5.909
 4401AUSL   AUS 4321  29.972  40.622   7.653
 4402AUSL   AUS 4322  29.972  40.295   7.350
 4403AUL    AUL 4323  29.664  40.459   7.502
 4404THSLK    S 4324  29.714  40.221   7.390
 4405ETHY    C1 4325  29.270  40.186   7.486
 4406ETHY    C1 4326  28.739  40.105   7.518
 4407ETHY    C1 4327  28.225  39.980   7.458
 4408ETHY    C1 4328  27.741  39.812   7.311
 4409ETHY    C1 4329  27.294  39.605   7.083
 4410THSLK    S 4330  29.739  40.729   7.704
 4411ETHY    C1 4331  29.392  40.913   7.935
 4412ETHY    C1 4332  28.932  41.106   8.137
 4413ETHY    C1 4333  28.435  41.261   8.249
 4414ETHY    C1 4334  27.914  41.371   8.274
 4415ETHY    C1 4335  27.378  41.434   8.213
 4416AUSL   AUS 4336  31.226  40.049   7.502
 4417AUSL   AUS 4337  31.156  40.194   7.918
 4418AUL    AUL 4338  31.440  39.968   7.805
 4419THSLK    S 4339  31.442  39.909   7.506
 4420ETHY    C1 4340  31.698  39.531   7.508
 4421ETHY    C1 4341  32.071  39.143   7.507
 4422ETHY    C1 4342  32.507  38.837   7.505
 4423ETHY    C1 4343  32.993  38.619   7.506
 4424ETHY    C1 4344  33.520  38.489   7.509
 4425THSLK    S 4345  31.288  40.004   8.066
 4426ETHY    C1 4346  31.493  39.661   8.285
 4427ETHY    C1 4347  31.795  39.319   8.570
 4428ETHY    C1 4348  32.149  39.066   8.877
 4429ETHY    C1 4349  32.543  38.903   9.198
 4430ETHY    C1 4350  32.967  38.833   9.529
 4431AUSL   AUS 4351  31.320  40.295   7.350
 4432AUSL   AUS 4352  31.063  39.948   7.237
 4433AUL    AUL 4353  31.440  39.968   7.198
 4434THSLK    S 4354  31.553  40.157   7.350
 4435ETHY    C1 4355  31.901  39.868   7.289
 4436ETHY    C1 4356  32.360  39.601   7.206
 4437ETHY    C1 4357  32.857  39.432   7.118
 4438ETHY    C1 4358  33.379  39.360   7.031
 4439ETHY    C1 4359  33.914  39.386   6.947
 4440THSLK    S 4360  31.182  39.758   7.104
 4441ETHY    C1 4361  31.299  39.341   6.963
 4442ETHY    C1 4362  31.513  38.887   6.765
 4443ETHY    C1 4363  31.803  38.501   6.543
 4444ETHY    C1 4364  32.162  38.186   6.306
 4445ETHY    C1 4365  32.582  37.947   6.058
 4446AUSL   AUS 4366  30.066  40.049   7.502
 4447AUSL   AUS 4367  30.136  40.194   7.085
 4448AUL    AUL 4368  29.852  39.968   7.198
 4449THSLK    S 4369  29.963  40.023   6.973
 4450ETHY    C1 4370  29.598  39.766   6.877
 4451ETHY    C1 4371  29.182  39.489   6.679
 4452ETHY    C1 4372  28.802  39.252   6.392
 4453ETHY    C1 4373  28.468  39.056   6.025
 4454ETHY    C1 4374  28.186  38.904   5.587
 4455THSLK    S 4375  29.798  39.993   7.506
 4456ETHY    C1 4376  29.346  39.932   7.508
 4457ETHY    C1 4377  28.832  39.773   7.507
 4458ETHY    C1 4378  28.364  39.519   7.505
 4459ETHY    C1 4379  27.951  39.182   7.506
 4460ETHY    C1 4380  27.599  38.768   7.509
 4461AUSL   AUS 4381  29.972  40.295   7.653
 4462AUSL   AUS 4382  30.230  39.948   7.766
 4463AUL    AUL 4383  29.852  39.968   7.805
 4464THSLK    S 4384  30.042  39.804   7.880
 4465ETHY    C1 4385  29.668  39.547   7.926
 4466ETHY    C1 4386  29.270  39.207   8.052
 4467ETHY    C1 4387  28.937  38.845   8.255
 4468ETHY    C1 4388  28.675  38.471   8.529
 4469ETHY    C1 4389  28.484  38.093   8.870
 4470THSLK    S 4390  29.713  40.228   7.617
 4471ETHY    C1 4391  29.268  40.198   7.524
 4472ETHY    C1 4392  28.737  40.116   7.490
 4473ETHY    C1 4393  28.224  39.987   7.549
 4474ETHY    C1 4394  27.740  39.819   7.696
 4475ETHY    C1 4395  27.292  39.617   7.928
 4476AUSL   AUS 4396  30.646  41.039   7.911
 4477AUSL   AUS 4397  30.230  40.969   7.766
 4478AUL    AUL 4398  30.343  41.253   7.992
 4479THSLK    S 4399  30.110  41.128   7.950
 4480ETHY    C1 4400  29.993  41.440   8.261
 4481ETHY    C1 4401  29.779  41.820   8.578
 4482ETHY    C1 4402  29.489  42.191   8.824
 4483ETHY    C1 4403  29.131  42.545   9.000
 4484ETHY    C1 4404  28.710  42.873   9.102
 4485THSLK    S 4405  30.686  41.265   8.035
 4486ETHY    C1 4406  30.843  41.567   8.339
 4487ETHY    C1 4407  30.958  41.973   8.672
 4488ETHY    C1 4408  30.985  42.417   8.964
 4489ETHY    C1 4409  30.925  42.886   9.211
 4490ETHY    C1 4410  30.781  43.370   9.410
 4491AUSL   AUS 4411  30.494  41.132   7.665
 4492AUSL   AUS 4412  30.798  41.132   7.338
 4493AUL    AUL 4413  30.646  41.440   7.502
 4494THSLK    S 4414  30.535  41.380   7.774
 4495ETHY    C1 4415  30.644  41.790   7.942
 4496ETHY    C1 4416  30.688  42.297   8.118
 4497ETHY    C1 4417  30.631  42.805   8.265
 4498ETHY    C1 4418  30.478  43.302   8.383
 4499ETHY    C1 4419  30.235  43.779   8.472
 4500THSLK    S 4420  30.851  41.367   7.241
 4501ETHY    C1 4421  31.096  41.723   7.094
 4502ETHY    C1 4422  31.309  42.188   6.927
 4503ETHY    C1 4423  31.424  42.686   6.779
 4504ETHY    C1 4424  31.444  43.205   6.655
 4505ETHY    C1 4425  31.369  43.734   6.558
 4506AUSL   AUS 4426  30.798  41.132   7.665
 4507AUSL   AUS 4427  30.911  40.875   8.012
 4508AUL    AUL 4428  30.949  41.253   7.992
 4509THSLK    S 4429  31.083  40.988   8.184
 4510ETHY    C1 4430  31.368  41.091   8.524
 4511ETHY    C1 4431  31.670  41.295   8.921
 4512ETHY    C1 4432  31.915  41.585   9.294
 4513ETHY    C1 4433  32.099  41.948   9.638
 4514ETHY    C1 4434  32.218  42.378   9.948
 4515THSLK    S 4435  30.849  41.366   7.771
 4516ETHY    C1 4436  31.093  41.720   7.922
 4517ETHY    C1 4437  31.306  42.186   8.087
 4518ETHY    C1 4438  31.422  42.685   8.231
 4519ETHY    C1 4439  31.441  43.203   8.356
 4520ETHY    C1 4440  31.366  43.731   8.458
 4521AUSL   AUS 4441  30.646  39.879   7.911
 4522AUSL   AUS 4442  31.063  39.948   7.766
 4523AUL    AUL 4443  30.949  39.664   7.992
 4524THSLK    S 4444  30.602  39.624   7.990
 4525ETHY    C1 4445  30.442  39.220   8.128
 4526ETHY    C1 4446  30.328  38.739   8.341
 4527ETHY    C1 4447  30.303  38.278   8.605
 4528ETHY    C1 4448  30.362  37.848   8.915
 4529ETHY    C1 4449  30.503  37.456   9.263
 4530THSLK    S 4450  31.178  39.759   7.908
 4531ETHY    C1 4451  31.294  39.343   8.052
 4532ETHY    C1 4452  31.508  38.890   8.248
 4533ETHY    C1 4453  31.800  38.502   8.467
 4534ETHY    C1 4454  32.159  38.187   8.705
 4535ETHY    C1 4455  32.576  37.950   8.958
 4536AUSL   AUS 4456  30.494  39.785   7.665
 4537AUSL   AUS 4457  30.381  40.042   8.012
 4538AUL    AUL 4458  30.343  39.664   7.992
 4539THSLK    S 4459  30.441  39.545   7.745
 4540ETHY    C1 4460  30.196  39.164   7.801
 4541ETHY    C1 4461  29.983  38.679   7.897
 4542ETHY    C1 4462  29.868  38.176   8.025
 4543ETHY    C1 4463  29.849  37.667   8.186
 4544ETHY    C1 4464  29.923  37.164   8.374
 4545THSLK    S 4465  30.203  39.874   8.133
 4546ETHY    C1 4466  29.915  39.556   8.289
 4547ETHY    C1 4467  29.615  39.196   8.552
 4548ETHY    C1 4468  29.372  38.870   8.896
 4549ETHY    C1 4469  29.188  38.587   9.309
 4550ETHY    C1 4470  29.064  38.353   9.783
 4551AUSL   AUS 4471  30.798  39.785   7.665
 4552AUSL   AUS 4472  30.494  39.785   7.338
 4553AUL    AUL 4473  30.646  39.477   7.502
 4554THSLK    S 4474  30.443  39.542   7.266
 4555ETHY    C1 4475  30.199  39.160   7.215
 4556ETHY    C1 4476  29.986  38.676   7.117
 4557ETHY    C1 4477  29.870  38.174   6.984
 4558ETHY    C1 4478  29.851  37.665   6.825
 4559ETHY    C1 4479  29.927  37.160   6.642
 4560THSLK    S 4480  30.755  39.529   7.749
 4561ETHY    C1 4481  30.645  39.093   7.821
 4562ETHY    C1 4482  30.602  38.567   7.928
 4563ETHY    C1 4483  30.659  38.055   8.059
 4564ETHY    C1 4484  30.812  37.567   8.213
 4565ETHY    C1 4485  31.054  37.114   8.388
 4566AUSL   AUS 4486  30.646  41.039   7.093
 4567AUSL   AUS 4487  31.063  40.969   7.237
 4568AUL    AUL 4488  30.949  41.253   7.011
 4569THSLK    S 4489  30.690  41.269   6.975
 4570ETHY    C1 4490  30.850  41.573   6.674
 4571ETHY    C1 4491  30.964  41.978   6.339
 4572ETHY    C1 4492  30.989  42.421   6.045
 4573ETHY    C1 4493  30.930  42.890   5.798
 4574ETHY    C1 4494  30.789  43.377   5.604
 4575THSLK    S 4495  31.250  41.090   7.085
 4576ETHY    C1 4496  31.624  41.246   6.876
 4577ETHY    C1 4497  32.022  41.510   6.629
 4578ETHY    C1 4498  32.355  41.854   6.395
 4579ETHY    C1 4499  32.617  42.266   6.184
 4580ETHY    C1 4500  32.808  42.740   5.998
 4581AUSL   AUS 4501  30.494  41.132   7.338
 4582AUSL   AUS 4502  30.381  40.875   6.992
 4583AUL    AUL 4503  30.343  41.253   7.011
 4584THSLK    S 4504  30.537  41.383   7.237
 4585ETHY    C1 4505  30.647  41.794   7.074
 4586ETHY    C1 4506  30.690  42.300   6.896
 4587ETHY    C1 4507  30.633  42.808   6.745
 4588ETHY    C1 4508  30.480  43.305   6.627
 4589ETHY    C1 4509  30.238  43.784   6.545
 4590THSLK    S 4510  30.267  41.010   6.802
 4591ETHY    C1 4511  30.201  41.182   6.385
 4592ETHY    C1 4512  30.058  41.434   5.932
 4593ETHY    C1 4513  29.849  41.733   5.544
 4594ETHY    C1 4514  29.583  42.071   5.230
 4595ETHY    C1 4515  29.267  42.444   4.993
 4596AUSL   AUS 4516  30.646  39.879   7.093
 4597AUSL   AUS 4517  30.230  39.948   7.237
 4598AUL    AUL 4518  30.343  39.664   7.011
 4599THSLK    S 4519  30.046  39.798   7.128
 4600ETHY    C1 4520  29.674  39.537   7.085
 4601ETHY    C1 4521  29.275  39.199   6.958
 4602ETHY    C1 4522  28.940  38.840   6.753
 4603ETHY    C1 4523  28.678  38.466   6.478
 4604ETHY    C1 4524  28.491  38.083   6.142
 4605THSLK    S 4525  30.606  39.620   7.019
 4606ETHY    C1 4526  30.449  39.214   6.885
 4607ETHY    C1 4527  30.334  38.734   6.671
 4608ETHY    C1 4528  30.307  38.275   6.404
 4609ETHY    C1 4529  30.367  37.844   6.094
 4610ETHY    C1 4530  30.511  37.449   5.751
 4611AUSL   AUS 4531  30.798  39.785   7.338
 4612AUSL   AUS 4532  30.911  40.042   6.992
 4613AUL    AUL 4533  30.949  39.664   7.011
 4614THSLK    S 4534  30.757  39.528   7.262
 4615ETHY    C1 4535  30.648  39.090   7.195
 4616ETHY    C1 4536  30.605  38.564   7.086
 4617ETHY    C1 4537  30.661  38.053   6.951
 4618ETHY    C1 4538  30.814  37.565   6.798
 4619ETHY    C1 4539  31.058  37.111   6.629
 4620THSLK    S 4540  31.031  39.852   6.853
 4621ETHY    C1 4541  31.100  39.466   6.621
 4622ETHY    C1 4542  31.242  39.058   6.300
 4623ETHY    C1 4543  31.449  38.722   5.942
 4624ETHY    C1 4544  31.715  38.465   5.559
 4625ETHY    C1 4545  32.035  38.287   5.158
 4626AUC    AUC 4546  22.149   8.402   7.502
 4627AUC    AUC 4547  22.395   8.402   7.350
 4628AUC    AUC 4548  22.395   8.402   7.653
 4629AUC    AUC 4549  21.904   8.402   7.350
 4630AUC    AUC 4550  21.904   8.402   7.653
 4631AUC    AUC 4551  21.997   8.647   7.502
 4632AUC    AUC 4552  22.301   8.647   7.502
 4633AUC    AUC 4553  21.997   8.156   7.502
 4634AUC    AUC 4554  22.301   8.156   7.502
 4635AUC    AUC 4555  22.149   8.250   7.747
 4636AUC    AUC 4556  22.149   8.553   7.747
 4637AUC    AUC 4557  22.149   8.250   7.256
 4638AUC    AUC 4558  22.149   8.553   7.256
 4639AUC    AUC 4559  22.640   8.402   7.198
 4640AUC    AUC 4560  22.640   8.402   7.502
 4641AUC    AUC 4561  22.640   8.402   7.805
 4642AUC    AUC 4562  21.658   8.402   7.198
 4643AUC    AUC 4563  21.658   8.402   7.502
 4644AUC    AUC 4564  21.658   8.402   7.805
 4645AUC    AUC 4565  21.846   8.892   7.502
 4646AUC    AUC 4566  22.149   8.892   7.502
 4647AUC    AUC 4567  22.452   8.892   7.502
 4648AUC    AUC 4568  21.846   7.911   7.502
 4649AUC    AUC 4569  22.149   7.911   7.502
 4650AUC    AUC 4570  22.452   7.911   7.502
 4651AUC    AUC 4571  22.149   8.098   7.992
 4652AUC    AUC 4572  22.149   8.402   7.992
 4653AUC    AUC 4573  22.149   8.705   7.992
 4654AUC    AUC 4574  22.149   8.098   7.011
 4655AUC    AUC 4575  22.149   8.402   7.011
 4656AUC    AUC 4576  22.149   8.705   7.011
 4657AUC    AUC 4577  22.395   8.250   7.899
 4658AUC    AUC 4578  22.395   8.553   7.899
 4659AUC    AUC 4579  22.395   8.250   7.105
 4660AUC    AUC 4580  22.395   8.553   7.105
 4661AUC    AUC 4581  21.904   8.250   7.899
 4662AUC    AUC 4582  21.904   8.553   7.899
 4663AUC    AUC 4583  21.904   8.250   7.105
 4664AUC    AUC 4584  21.904   8.553   7.105
 4665AUC    AUC 4585  22.546   8.647   7.350
 4666AUC    AUC 4586  22.546   8.647   7.653
 4667AUC    AUC 4587  21.752   8.647   7.350
 4668AUC    AUC 4588  21.752   8.647   7.653
 4669AUC    AUC 4589  22.546   8.156   7.350
 4670AUC    AUC 4590  22.546   8.156   7.653
 4671AUC    AUC 4591  21.752   8.156   7.350
 4672AUC    AUC 4592  21.752   8.156   7.653
 4673AUC    AUC 4593  21.997   8.799   7.747
 4674AUC    AUC 4594  22.301   8.799   7.747
 4675AUC    AUC 4595  21.997   8.004   7.747
 4676AUC    AUC 4596  22.301   8.004   7.747
 4677AUC    AUC 4597  21.997   8.799   7.256
 4678AUC    AUC 4598  22.301   8.799   7.256
 4679AUC    AUC 4599  21.997   8.004   7.256
 4680AUC    AUC 4600  22.301   8.004   7.256
 4681AUSL   AUS 4601  22.558   8.402   8.082
 4682AUSL   AUS 4602  22.414   7.985   8.012
 4683AUL    AUL 4603  22.640   8.098   8.296
 4684THSLK    S 4604  22.528   7.797   8.156
 4685ETHY    C1 4605  22.594   7.412   8.391
 4686ETHY    C1 4606  22.737   7.004   8.710
 4687ETHY    C1 4607  22.946   6.668   9.066
 4688ETHY    C1 4608  23.212   6.410   9.450
 4689ETHY    C1 4609  23.528   6.234   9.855
 4690THSLK    S 4610  22.654   8.352   8.326
 4691ETHY    C1 4611  22.870   8.166   8.681
 4692ETHY    C1 4612  23.145   8.031   9.124
 4693ETHY    C1 4613  23.426   8.001   9.575
 4694ETHY    C1 4614  23.704   8.070  10.025
 4695ETHY    C1 4615  23.973   8.238  10.466
 4696AUSL   AUS 4616  22.313   8.250   8.175
 4697AUSL   AUS 4617  21.986   8.553   8.175
 4698AUL    AUL 4618  22.149   8.402   8.483
 4699THSLK    S 4619  22.391   8.197   8.417
 4700ETHY    C1 4620  22.468   7.947   8.790
 4701ETHY    C1 4621  22.584   7.730   9.269
 4702ETHY    C1 4622  22.721   7.614   9.769
 4703ETHY    C1 4623  22.871   7.596  10.281
 4704ETHY    C1 4624  23.030   7.677  10.794
 4705THSLK    S 4625  21.899   8.510   8.431
 4706ETHY    C1 4626  21.817   8.398   8.864
 4707ETHY    C1 4627  21.703   8.352   9.388
 4708ETHY    C1 4628  21.571   8.410   9.901
 4709ETHY    C1 4629  21.420   8.563  10.389
 4710ETHY    C1 4630  21.254   8.807  10.844
 4711AUSL   AUS 4631  22.313   8.553   8.175
 4712AUSL   AUS 4632  22.659   8.666   7.918
 4713AUL    AUL 4633  22.640   8.705   8.296
 4714THSLK    S 4634  22.400   8.607   8.414
 4715ETHY    C1 4635  22.481   8.858   8.786
 4716ETHY    C1 4636  22.595   9.074   9.265
 4717ETHY    C1 4637  22.728   9.190   9.767
 4718ETHY    C1 4638  22.878   9.208  10.279
 4719ETHY    C1 4639  23.044   9.128  10.789
 4720THSLK    S 4640  22.833   8.768   8.080
 4721ETHY    C1 4641  23.197   8.778   8.354
 4722ETHY    C1 4642  23.613   8.880   8.680
 4723ETHY    C1 4643  23.993   9.079   8.995
 4724ETHY    C1 4644  24.328   9.366   9.296
 4725ETHY    C1 4645  24.609   9.734   9.577
 4726AUSL   AUS 4646  22.558   8.402   6.922
 4727AUSL   AUS 4647  22.414   8.818   6.992
 4728AUL    AUL 4648  22.640   8.705   6.707
 4729THSLK    S 4649  22.661   8.352   6.681
 4730ETHY    C1 4650  22.882   8.166   6.329
 4731ETHY    C1 4651  23.155   8.031   5.885
 4732ETHY    C1 4652  23.433   8.001   5.432
 4733ETHY    C1 4653  23.711   8.070   4.982
 4734ETHY    C1 4654  23.985   8.238   4.545
 4735THSLK    S 4655  22.592   8.933   6.825
 4736ETHY    C1 4656  22.880   9.038   6.488
 4737ETHY    C1 4657  23.180   9.242   6.090
 4738ETHY    C1 4658  23.423   9.530   5.714
 4739ETHY    C1 4659  23.607   9.894   5.371
 4740ETHY    C1 4660  23.731  10.325   5.065
 4741AUSL   AUS 4661  22.313   8.250   6.828
 4742AUSL   AUS 4662  22.659   8.137   7.085
 4743AUL    AUL 4663  22.640   8.098   6.707
 4744THSLK    S 4664  22.796   7.945   6.944
 4745ETHY    C1 4665  23.004   7.602   6.729
 4746ETHY    C1 4666  23.305   7.260   6.442
 4747ETHY    C1 4667  23.656   7.007   6.133
 4748ETHY    C1 4668  24.050   6.845   5.812
 4749ETHY    C1 4669  24.479   6.774   5.486
 4750THSLK    S 4670  22.400   8.196   6.590
 4751ETHY    C1 4671  22.481   7.945   6.217
 4752ETHY    C1 4672  22.595   7.729   5.738
 4753ETHY    C1 4673  22.728   7.613   5.236
 4754ETHY    C1 4674  22.878   7.595   4.725
 4755ETHY    C1 4675  23.044   7.675   4.214
 4756AUSL   AUS 4676  22.313   8.553   6.828
 4757AUSL   AUS 4677  21.986   8.250   6.828
 4758AUL    AUL 4678  22.149   8.402   6.520
 4759THSLK    S 4679  21.891   8.196   6.592
 4760ETHY    C1 4680  21.754   7.948   6.235
 4761ETHY    C1 4681  21.594   7.734   5.767
 4762ETHY    C1 4682  21.447   7.619   5.269
 4763ETHY    C1 4683  21.320   7.600   4.751
 4764ETHY    C1 4684  21.215   7.676   4.224
 4765THSLK    S 4685  22.416   8.511   6.578
 4766ETHY    C1 4686  22.557   8.396   6.160
 4767ETHY    C1 4687  22.715   8.349   5.647
 4768ETHY    C1 4688  22.858   8.405   5.138
 4769ETHY    C1 4689  22.986   8.559   4.643
 4770ETHY    C1 4690  23.097   8.807   4.174
 4771AUSL   AUS 4691  21.740   8.402   8.082
 4772AUSL   AUS 4692  21.884   8.818   8.012
 4773AUL    AUL 4693  21.658   8.705   8.296
 4774THSLK    S 4694  21.637   8.352   8.322
 4775ETHY    C1 4695  21.416   8.166   8.674
 4776ETHY    C1 4696  21.143   8.031   9.118
 4777ETHY    C1 4697  20.866   8.001   9.571
 4778ETHY    C1 4698  20.588   8.070  10.021
 4779ETHY    C1 4699  20.313   8.238  10.458
 4780THSLK    S 4700  21.764   8.947   8.202
 4781ETHY    C1 4701  21.695   9.116   8.620
 4782ETHY    C1 4702  21.553   9.369   9.073
 4783ETHY    C1 4703  21.347   9.670   9.460
 4784ETHY    C1 4704  21.080  10.009   9.775
 4785ETHY    C1 4705  20.760  10.376  10.013
 4786AUSL   AUS 4706  21.986   8.250   8.175
 4787AUSL   AUS 4707  21.639   8.137   7.918
 4788AUL    AUL 4708  21.658   8.098   8.296
 4789THSLK    S 4709  21.461   7.973   8.029
 4790ETHY    C1 4710  21.093   7.720   8.125
 4791ETHY    C1 4711  20.678   7.441   8.323
 4792ETHY    C1 4712  20.300   7.201   8.611
 4793ETHY    C1 4713  19.966   7.005   8.978
 4794ETHY    C1 4714  19.680   6.859   9.415
 4795THSLK    S 4715  21.883   8.198   8.410
 4796ETHY    C1 4716  21.741   7.951   8.766
 4797ETHY    C1 4717  21.583   7.736   9.233
 4798ETHY    C1 4718  21.440   7.620   9.733
 4799ETHY    C1 4719  21.313   7.602  10.250
 4800ETHY    C1 4720  21.201   7.680  10.775
 4801AUSL   AUS 4721  21.740   8.402   6.922
 4802AUSL   AUS 4722  21.884   7.985   6.992
 4803AUL    AUL 4723  21.658   8.098   6.707
 4804THSLK    S 4724  21.645   8.352   6.677
 4805ETHY    C1 4725  21.428   8.166   6.322
 4806ETHY    C1 4726  21.153   8.031   5.879
 4807ETHY    C1 4727  20.872   8.001   5.429
 4808ETHY    C1 4728  20.594   8.070   4.978
 4809ETHY    C1 4729  20.326   8.238   4.537
 4810THSLK    S 4730  21.712   7.811   6.872
 4811ETHY    C1 4731  21.427   7.490   6.717
 4812ETHY    C1 4732  21.126   7.131   6.453
 4813ETHY    C1 4733  20.881   6.808   6.109
 4814ETHY    C1 4734  20.697   6.525   5.696
 4815ETHY    C1 4735  20.578   6.285   5.223
 4816AUSL   AUS 4736  21.986   8.553   6.828
 4817AUSL   AUS 4737  21.639   8.666   7.085
 4818AUL    AUL 4738  21.658   8.705   6.707
 4819THSLK    S 4739  21.508   8.796   6.893
 4820ETHY    C1 4740  21.302   8.896   6.499
 4821ETHY    C1 4741  21.000   9.060   6.085
 4822ETHY    C1 4742  20.646   9.272   5.748
 4823ETHY    C1 4743  20.253   9.526   5.494
 4824ETHY    C1 4744  19.828   9.819   5.324
 4825THSLK    S 4745  21.907   8.512   6.571
 4826ETHY    C1 4746  21.830   8.400   6.136
 4827ETHY    C1 4747  21.714   8.355   5.612
 4828ETHY    C1 4748  21.578   8.411   5.101
 4829ETHY    C1 4749  21.428   8.565   4.613
 4830ETHY    C1 4750  21.268   8.810   4.156
 4831AUSL   AUS 4751  22.729   8.811   7.502
 4832AUSL   AUS 4752  22.659   8.666   7.085
 4833AUL    AUL 4753  22.943   8.892   7.198
 4834THSLK    S 4754  22.838   8.769   6.930
 4835ETHY    C1 4755  23.205   8.780   6.659
 4836ETHY    C1 4756  23.620   8.882   6.332
 4837ETHY    C1 4757  23.998   9.080   6.014
 4838ETHY    C1 4758  24.332   9.367   5.713
 4839ETHY    C1 4759  24.618   9.737   5.438
 4840THSLK    S 4760  22.997   8.867   7.506
 4841ETHY    C1 4761  23.449   8.928   7.508
 4842ETHY    C1 4762  23.963   9.087   7.507
 4843ETHY    C1 4763  24.431   9.341   7.505
 4844ETHY    C1 4764  24.844   9.678   7.506
 4845ETHY    C1 4765  25.196  10.092   7.509
 4846AUSL   AUS 4766  22.823   8.565   7.350
 4847AUSL   AUS 4767  22.823   8.238   7.653
 4848AUL    AUL 4768  23.131   8.402   7.502
 4849THSLK    S 4769  23.082   8.608   7.348
 4850ETHY    C1 4770  23.527   8.538   7.278
 4851ETHY    C1 4771  24.058   8.545   7.190
 4852ETHY    C1 4772  24.571   8.655   7.101
 4853ETHY    C1 4773  25.056   8.861   7.017
 4854ETHY    C1 4774  25.503   9.158   6.940
 4855THSLK    S 4775  23.055   8.100   7.662
 4856ETHY    C1 4776  23.401   7.811   7.728
 4857ETHY    C1 4777  23.862   7.544   7.809
 4858ETHY    C1 4778  24.359   7.375   7.892
 4859ETHY    C1 4779  24.880   7.303   7.980
 4860ETHY    C1 4780  25.415   7.329   8.071
 4861AUSL   AUS 4781  22.823   8.565   7.653
 4862AUSL   AUS 4782  22.566   8.912   7.766
 4863AUL    AUL 4783  22.943   8.892   7.805
 4864THSLK    S 4784  22.749   9.031   7.926
 4865ETHY    C1 4785  23.121   9.186   8.139
 4866ETHY    C1 4786  23.521   9.451   8.385
 4867ETHY    C1 4787  23.855   9.795   8.615
 4868ETHY    C1 4788  24.117  10.208   8.827
 4869ETHY    C1 4789  24.304  10.680   9.019
 4870THSLK    S 4790  23.081   8.608   7.664
 4871ETHY    C1 4791  23.525   8.538   7.738
 4872ETHY    C1 4792  24.056   8.545   7.825
 4873ETHY    C1 4793  24.570   8.655   7.910
 4874ETHY    C1 4794  25.054   8.861   7.994
 4875ETHY    C1 4795  25.501   9.158   8.078
 4876AUSL   AUS 4796  21.569   8.811   7.502
 4877AUSL   AUS 4797  21.639   8.666   7.918
 4878AUL    AUL 4798  21.355   8.892   7.805
 4879THSLK    S 4799  21.503   8.789   8.109
 4880ETHY    C1 4800  21.294   8.885   8.503
 4881ETHY    C1 4801  20.993   9.051   8.917
 4882ETHY    C1 4802  20.642   9.266   9.254
 4883ETHY    C1 4803  20.248   9.520   9.509
 4884ETHY    C1 4804  19.819   9.807   9.678
 4885THSLK    S 4805  21.353   8.951   7.506
 4886ETHY    C1 4806  21.097   9.329   7.508
 4887ETHY    C1 4807  20.724   9.717   7.507
 4888ETHY    C1 4808  20.288  10.023   7.505
 4889ETHY    C1 4809  19.802  10.241   7.506
 4890ETHY    C1 4810  19.275  10.371   7.509
 4891AUSL   AUS 4811  21.475   8.565   7.350
 4892AUSL   AUS 4812  21.733   8.912   7.237
 4893AUL    AUL 4813  21.355   8.892   7.198
 4894THSLK    S 4814  21.244   8.680   7.303
 4895ETHY    C1 4815  20.897   8.868   7.075
 4896ETHY    C1 4816  20.437   9.060   6.872
 4897ETHY    C1 4817  19.939   9.210   6.758
 4898ETHY    C1 4818  19.418   9.320   6.733
 4899ETHY    C1 4819  18.884   9.390   6.796
 4900THSLK    S 4820  21.617   9.077   7.058
 4901ETHY    C1 4821  21.501   9.393   6.750
 4902ETHY    C1 4822  21.287   9.771   6.432
 4903ETHY    C1 4823  20.995  10.140   6.183
 4904ETHY    C1 4824  20.637  10.493   6.008
 4905ETHY    C1 4825  20.219  10.826   5.909
 4906AUSL   AUS 4826  21.475   8.565   7.653
 4907AUSL   AUS 4827  21.475   8.238   7.350
 4908AUL    AUL 4828  21.167   8.402   7.502
 4909THSLK    S 4829  21.217   8.164   7.390
 4910ETHY    C1 4830  20.773   8.129   7.486
 4911ETHY    C1 4831  20.242   8.048   7.518
 4912ETHY    C1 4832  19.728   7.923   7.458
 4913ETHY    C1 4833  19.244   7.755   7.311
 4914ETHY    C1 4834  18.797   7.548   7.083
 4915THSLK    S 4835  21.242   8.672   7.704
 4916ETHY    C1 4836  20.895   8.856   7.935
 4917ETHY    C1 4837  20.435   9.049   8.137
 4918ETHY    C1 4838  19.938   9.204   8.249
 4919ETHY    C1 4839  19.417   9.314   8.274
 4920ETHY    C1 4840  18.881   9.377   8.213
 4921AUSL   AUS 4841  22.729   7.992   7.502
 4922AUSL   AUS 4842  22.659   8.137   7.918
 4923AUL    AUL 4843  22.943   7.911   7.805
 4924THSLK    S 4844  22.945   7.852   7.506
 4925ETHY    C1 4845  23.201   7.474   7.508
 4926ETHY    C1 4846  23.574   7.086   7.507
 4927ETHY    C1 4847  24.010   6.780   7.505
 4928ETHY    C1 4848  24.496   6.562   7.506
 4929ETHY    C1 4849  25.023   6.432   7.509
 4930THSLK    S 4850  22.791   7.947   8.066
 4931ETHY    C1 4851  22.996   7.604   8.285
 4932ETHY    C1 4852  23.298   7.262   8.570
 4933ETHY    C1 4853  23.652   7.009   8.877
 4934ETHY    C1 4854  24.046   6.846   9.198
 4935ETHY    C1 4855  24.470   6.776   9.529
 4936AUSL   AUS 4856  22.823   8.238   7.350
 4937AUSL   AUS 4857  22.566   7.891   7.237
 4938AUL    AUL 4858  22.943   7.911   7.198
 4939THSLK    S 4859  23.056   8.100   7.350
 4940ETHY    C1 4860  23.404   7.811   7.289
 4941ETHY    C1 4861  23.863   7.544   7.206
 4942ETHY    C1 4862  24.360   7.375   7.118
 4943ETHY    C1 4863  24.882   7.303   7.031
 4944ETHY    C1 4864  25.417   7.329   6.947
 4945THSLK    S 4865  22.685   7.701   7.104
 4946ETHY    C1 4866  22.802   7.284   6.963
 4947ETHY    C1 4867  23.016   6.830   6.765
 4948ETHY    C1 4868  23.306   6.444   6.543
 4949ETHY    C1 4869  23.665   6.129   6.306
 4950ETHY    C1 4870  24.085   5.890   6.058
 4951AUSL   AUS 4871  21.569   7.992   7.502
 4952AUSL   AUS 4872  21.639   8.137   7.085
 4953AUL    AUL 4873  21.355   7.911   7.198
 4954THSLK    S 4874  21.466   7.966   6.973
 4955ETHY    C1 4875  21.101   7.709   6.877
 4956ETHY    C1 4876  20.685   7.432   6.679
 4957ETHY    C1 4877  20.305   7.195   6.392
 4958ETHY    C1 4878  19.971   6.999   6.025
 4959ETHY    C1 4879  19.689   6.847   5.587
 4960THSLK    S 4880  21.301   7.936   7.506
 4961ETHY    C1 4881  20.849   7.875   7.508
 4962ETHY    C1 4882  20.335   7.716   7.507
 4963ETHY    C1 4883  19.867   7.462   7.505
 4964ETHY    C1 4884  19.454   7.125   7.506
 4965ETHY    C1 4885  19.102   6.711   7.509
 4966AUSL   AUS 4886  21.475   8.238   7.653
 4967AUSL   AUS 4887  21.733   7.891   7.766
 4968AUL    AUL 4888  21.355   7.911   7.805
 4969THSLK    S 4889  21.545   7.747   7.880
 4970ETHY    C1 4890  21.171   7.490   7.926
 4971ETHY    C1 4891  20.773   7.150   8.052
 4972ETHY    C1 4892  20.440   6.788   8.255
 4973ETHY    C1 4893  20.178   6.414   8.529
 4974ETHY    C1 4894  19.987   6.036   8.870
 4975THSLK    S 4895  21.216   8.171   7.617
 4976ETHY    C1 4896  20.771   8.141   7.524
 4977ETHY    C1 4897  20.240   8.059   7.490
 4978ETHY    C1 4898  19.727   7.930   7.549
 4979ETHY    C1 4899  19.243   7.762   7.696
 4980ETHY    C1 4900  18.795   7.560   7.928
 4981AUSL   AUS 4901  22.149   8.982   7.911
 4982AUSL   AUS 4902  21.733   8.912   7.766
 4983AUL    AUL 4903  21.846   9.196   7.992
 4984THSLK    S 4904  21.613   9.071   7.950
 4985ETHY    C1 4905  21.496   9.383   8.261
 4986ETHY    C1 4906  21.282   9.763   8.578
 4987ETHY    C1 4907  20.992  10.134   8.824
 4988ETHY    C1 4908  20.634  10.488   9.000
 4989ETHY    C1 4909  20.213  10.816   9.102
 4990THSLK    S 4910  22.189   9.208   8.035
 4991ETHY    C1 4911  22.346   9.510   8.339
 4992ETHY    C1 4912  22.461   9.916   8.672
 4993ETHY    C1 4913  22.488  10.360   8.964
 4994ETHY    C1 4914  22.428  10.829   9.211
 4995ETHY    C1 4915  22.284  11.313   9.410
 4996AUSL   AUS 4916  21.997   9.075   7.665
 4997AUSL   AUS 4917  22.301   9.075   7.338
 4998AUL    AUL 4918  22.149   9.383   7.502
 4999THSLK    S 4919  22.038   9.323   7.774
 5000ETHY    C1 4920  22.147   9.733   7.942
 5001ETHY    C1 4921  22.191  10.240   8.118
 5002ETHY    C1 4922  22.134  10.748   8.265
 5003ETHY    C1 4923  21.981  11.245   8.383
 5004ETHY    C1 4924  21.738  11.722   8.472
 5005THSLK    S 4925  22.354   9.310   7.241
 5006ETHY    C1 4926  22.599   9.666   7.094
 5007ETHY    C1 4927  22.812  10.131   6.927
 5008ETHY    C1 4928  22.927  10.629   6.779
 5009ETHY    C1 4929  22.947  11.148   6.655
 5010ETHY    C1 4930  22.872  11.677   6.558
 5011AUSL   AUS 4931  22.301   9.075   7.665
 5012AUSL   AUS 4932  22.414   8.818   8.012
 5013AUL    AUL 4933  22.452   9.196   7.992
 5014THSLK    S 4934  22.586   8.931   8.184
 5015ETHY    C1 4935  22.871   9.034   8.524
 5016ETHY    C1 4936  23.173   9.238   8.921
 5017ETHY    C1 4937  23.418   9.528   9.294
 5018ETHY    C1 4938  23.602   9.891   9.638
 5019ETHY    C1 4939  23.721  10.321   9.948
 5020THSLK    S 4940  22.352   9.309   7.771
 5021ETHY    C1 4941  22.596   9.663   7.922
 5022ETHY    C1 4942  22.809  10.129   8.087
 5023ETHY    C1 4943  22.925  10.628   8.231
 5024ETHY    C1 4944  22.944  11.146   8.356
 5025ETHY    C1 4945  22.869  11.674   8.458
 5026AUSL   AUS 4946  22.149   7.822   7.911
 5027AUSL   AUS 4947  22.566   7.891   7.766
 5028AUL    AUL 4948  22.452   7.607   7.992
 5029THSLK    S 4949  22.105   7.567   7.990
 5030ETHY    C1 4950  21.945   7.163   8.128
 5031ETHY    C1 4951  21.831   6.682   8.341
 5032ETHY    C1 4952  21.806   6.221   8.605
 5033ETHY    C1 4953  21.865   5.791   8.915
 5034ETHY    C1 4954  22.006   5.399   9.263
 5035THSLK    S 4955  22.681   7.702   7.908
 5036ETHY    C1 4956  22.797   7.286   8.052
 5037ETHY    C1 4957  23.011   6.833   8.248
 5038ETHY    C1 4958  23.303   6.445   8.467
 5039ETHY    C1 4959  23.662   6.130   8.705
 5040ETHY    C1 4960  24.079   5.893   8.958
 5041AUSL   AUS 4961  21.997   7.728   7.665
 5042AUSL   AUS 4962  21.884   7.985   8.012
 5043AUL    AUL 4963  21.846   7.607   7.992
 5044THSLK    S 4964  21.944   7.488   7.745
 5045ETHY    C1 4965  21.699   7.107   7.801
 5046ETHY    C1 4966  21.486   6.622   7.897
 5047ETHY    C1 4967  21.371   6.119   8.025
 5048ETHY    C1 4968  21.352   5.610   8.186
 5049ETHY    C1 4969  21.426   5.107   8.374
 5050THSLK    S 4970  21.706   7.817   8.133
 5051ETHY    C1 4971  21.418   7.499   8.289
 5052ETHY    C1 4972  21.118   7.139   8.552
 5053ETHY    C1 4973  20.875   6.813   8.896
 5054ETHY    C1 4974  20.691   6.530   9.309
 5055ETHY    C1 4975  20.567   6.296   9.783
 5056AUSL   AUS 4976  22.301   7.728   7.665
 5057AUSL   AUS 4977  21.997   7.728   7.338
 5058AUL    AUL 4978  22.149   7.420   7.502
 5059THSLK    S 4979  21.946   7.485   7.266
 5060ETHY    C1 4980  21.702   7.103   7.215
 5061ETHY    C1 4981  21.489   6.619   7.117
 5062ETHY    C1 4982  21.373   6.117   6.984
 5063ETHY    C1 4983  21.354   5.608   6.825
 5064ETHY    C1 4984  21.430   5.103   6.642
 5065THSLK    S 4985  22.258   7.472   7.749
 5066ETHY    C1 4986  22.148   7.036   7.821
 5067ETHY    C1 4987  22.105   6.510   7.928
 5068ETHY    C1 4988  22.162   5.998   8.059
 5069ETHY    C1 4989  22.315   5.510   8.213
 5070ETHY    C1 4990  22.557   5.057   8.388
 5071AUSL   AUS 4991  22.149   8.982   7.093
 5072AUSL   AUS 4992  22.566   8.912   7.237
 5073AUL    AUL 4993  22.452   9.196   7.011
 5074THSLK    S 4994  22.193   9.212   6.975
 5075ETHY    C1 4995  22.353   9.516   6.674
 5076ETHY    C1 4996  22.467   9.921   6.339
 5077ETHY    C1 4997  22.492  10.364   6.045
 5078ETHY    C1 4998  22.433  10.833   5.798
 5079ETHY    C1 4999  22.292  11.320   5.604
 5080THSLK    S 5000  22.753   9.033   7.085
 5081ETHY    C1 5001  23.127   9.189   6.876
 5082ETHY    C1 5002  23.525   9.453   6.629
 5083ETHY    C1 5003  23.858   9.797   6.395
 5084ETHY    C1 5004  24.120  10.209   6.184
 5085ETHY    C1 5005  24.311  10.683   5.998
 5086AUSL   AUS 5006  21.997   9.075   7.338
 5087AUSL   AUS 5007  21.884   8.818   6.992
 5088AUL    AUL 5008  21.846   9.196   7.011
 5089THSLK    S 5009  22.040   9.326   7.237
 5090ETHY    C1 5010  22.150   9.737   7.074
 5091ETHY    C1 5011  22.193  10.243   6.896
 5092ETHY    C1 5012  22.136  10.751   6.745
 5093ETHY    C1 5013  21.983  11.248   6.627
 5094ETHY    C1 5014  21.741  11.727   6.545
 5095THSLK    S 5015  21.770   8.953   6.802
 5096ETHY    C1 5016  21.704   9.125   6.385
 5097ETHY    C1 5017  21.561   9.377   5.932
 5098ETHY    C1 5018  21.352   9.676   5.544
 5099ETHY    C1 5019  21.086  10.014   5.230
 5100ETHY    C1 5020  20.770  10.387   4.993
 5101AUSL   AUS 5021  22.149   7.822   7.093
 5102AUSL   AUS 5022  21.733   7.891   7.237
 5103AUL    AUL 5023  21.846   7.607   7.011
 5104THSLK    S 5024  21.549   7.741   7.128
 5105ETHY    C1 5025  21.177   7.480   7.085
 5106ETHY    C1 5026  20.778   7.142   6.958
 5107ETHY    C1 5027  20.443   6.783   6.753
 5108ETHY    C1 5028  20.181   6.409   6.478
 5109ETHY    C1 5029  19.994   6.026   6.142
 5110THSLK    S 5030  22.109   7.563   7.019
 5111ETHY    C1 5031  21.952   7.157   6.885
 5112ETHY    C1 5032  21.837   6.677   6.671
 5113ETHY    C1 5033  21.810   6.218   6.404
 5114ETHY    C1 5034  21.870   5.787   6.094
 5115ETHY    C1 5035  22.014   5.392   5.751
 5116AUSL   AUS 5036  22.301   7.728   7.338
 5117AUSL   AUS 5037  22.414   7.985   6.992
 5118AUL    AUL 5038  22.452   7.607   7.011
 5119THSLK    S 5039  22.260   7.471   7.262
 5120ETHY    C1 5040  22.151   7.033   7.195
 5121ETHY    C1 5041  22.108   6.507   7.086
 5122ETHY    C1 5042  22.164   5.996   6.951
 5123ETHY    C1 5043  22.317   5.508   6.798
 5124ETHY    C1 5044  22.561   5.054   6.629
 5125THSLK    S 5045  22.534   7.795   6.853
 5126ETHY    C1 5046  22.603   7.409   6.621
 5127ETHY    C1 5047  22.745   7.001   6.300
 5128ETHY    C1 5048  22.952   6.665   5.942
 5129ETHY    C1 5049  23.218   6.408   5.559
 5130ETHY    C1 5050  23.538   6.230   5.158
 5131POPC   NC3 5051  22.139  15.210   9.453
 5131POPC   PO4 5052  22.184  15.210   9.153
 5131POPC   GL1 5053  22.149  15.224   8.853
 5131POPC   GL2 5054  22.109  15.250   8.853
 5131POPC   C1A 5055  22.207  15.172   8.553
 5131POPC   D2A 5056  22.176  15.138   8.253
 5131POPC   C3A 5057  22.174  15.206   7.953
 5131POPC   C4A 5058  22.132  15.148   7.653
 5131POPC   C1B 5059  22.017  15.344   8.553
 5131POPC   C2B 5060  21.974  15.362   8.253
 5131POPC   C3B 5061  22.030  15.417   7.953
 5131POPC   C4B 5062  22.036  15.383   7.653
 5132POPC   NC3 5063  39.962  40.041   9.453
 5132POPC   PO4 5064  40.007  39.974   9.153
 5132POPC   GL1 5065  39.976  39.975   8.853
 5132POPC   GL2 5066  39.968  39.962   8.853
 5132POPC   C1A 5067  40.003  40.015   8.553
 5132POPC   D2A 5068  40.045  40.025   8.253
 5132POPC   C3A 5069  40.050  39.991   7.953
 5132POPC   C4A 5070  39.978  40.034   7.653
 5132POPC   C1B 5071  39.875  39.797   8.553
 5132POPC   C2B 5072  39.887  39.867   8.253
 5132POPC   C3B 5073  39.860  39.793   7.953
 5132POPC   C4B 5074  39.878  39.801   7.653
 5133POPC   NC3 5075  29.951  32.291   9.453
 5133POPC   PO4 5076  29.961  32.241   9.153
 5133POPC   GL1 5077  29.908  32.231   8.853
 5133POPC   GL2 5078  30.003  32.299   8.853
 5133POPC   C1A 5079  29.912  32.271   8.553
 5133POPC   D2A 5080  29.920  32.289   8.253
 5133POPC   C3A 5081  29.884  32.247   7.953
 5133POPC   C4A 5082  29.943  32.222   7.653
 5133POPC   C1B 5083  30.128  32.337   8.553
 5133POPC   C2B 5084  30.212  32.321   8.253
 5133POPC   C3B 5085  30.131  32.341   7.953
 5133POPC   C4B 5086  30.153  32.291   7.653
 5134POPC   NC3 5087  13.628   9.758   9.453
 5134POPC   PO4 5088  13.650   9.703   9.153
 5134POPC   GL1 5089  13.643   9.748   8.853
 5134POPC   GL2 5090  13.580   9.612   8.853
 5134POPC   C1A 5091  13.612   9.753   8.553
 5134POPC   D2A 5092  13.654   9.748   8.253
 5134POPC   C3A 5093  13.662   9.735   7.953
 5134POPC   C4A 5094  13.608   9.722   7.653
 5134POPC   C1B 5095  13.456   9.608   8.553
 5134POPC   C2B 5096  13.447   9.537   8.253
 5134POPC   C3B 5097  13.428   9.588   7.953
 5134POPC   C4B 5098  13.462   9.558   7.653
 5135POPC   NC3 5099  19.798  17.492   9.453
 5135POPC   PO4 5100  19.791  17.469   9.153
 5135POPC   GL1 5101  19.805  17.506   8.853
 5135POPC   GL2 5102  19.920  17.415   8.853
 5135POPC   C1A 5103  19.797  17.486   8.553
 5135POPC   D2A 5104  19.831  17.493   8.253
 5135POPC   C3A 5105  19.833  17.496   7.953
 5135POPC   C4A 5106  19.854  17.515   7.653
 5135POPC   C1B 5107  19.888  17.240   8.553
 5135POPC   C2B 5108  19.882  17.297   8.253
 5135POPC   C3B 5109  19.907  17.307   7.953
 5135POPC   C4B 5110  19.929  17.303   7.653
 5136POPC   NC3 5111  30.737   9.705   9.453
 5136POPC   PO4 5112  30.662   9.767   9.153
 5136POPC   GL1 5113  30.657   9.792   8.853
 5136POPC   GL2 5114  30.568   9.763   8.853
 5136POPC   C1A 5115  30.664   9.775   8.553
 5136POPC   D2A 5116  30.659   9.711   8.253
 5136POPC   C3A 5117  30.718   9.724   7.953
 5136POPC   C4A 5118  30.718   9.717   7.653
 5136POPC   C1B 5119  30.416   9.882   8.553
 5136POPC   C2B 5120  30.425   9.841   8.253
 5136POPC   C3B 5121  30.475   9.874   7.953
 5136POPC   C4B 5122  30.449   9.832   7.653
 5137POPC   NC3 5123  33.020  31.444   9.453
 5137POPC   PO4 5124  32.991  31.445   9.153
 5137POPC   GL1 5125  32.998  31.446   8.853
 5137POPC   GL2 5126  32.904  31.417   8.853
 5137POPC   C1A 5127  33.068  31.451   8.553
 5137POPC   D2A 5128  33.001  31.476   8.253
 5137POPC   C3A 5129  33.006  31.462   7.953
 5137POPC   C4A 5130  33.038  31.431   7.653
 5137POPC   C1B 5131  32.844  31.240   8.553
 5137POPC   C2B 5132  32.883  31.274   8.253
 5137POPC   C3B 5133  32.908  31.220   7.953
 5137POPC   C4B 5134  32.875  31.296   7.653
 5138POPC   NC3 5135  44.621  29.138   9.453
 5138POPC   PO4 5136  44.668  29.097   9.153
 5138POPC   GL1 5137  44.679  29.188   8.853
 5138POPC   GL2 5138  44.734  29.211   8.853
 5138POPC   C1A 5139  44.651  29.144   8.553
 5138POPC   D2A 5140  44.654  29.172   8.253
 5138POPC   C3A 5141  44.707  29.136   7.953
 5138POPC   C4A 5142  44.671  29.136   7.653
 5138POPC   C1B 5143  44.916  29.181   8.553
 5138POPC   C2B 5144  44.888  29.224   8.253
 5138POPC   C3B 5145  44.929  29.209   7.953
 5138POPC   C4B 5146  44.910  29.210   7.653
 5139POPC   NC3 5147  32.201  14.360   9.453
 5139POPC   PO4 5148  32.228  14.391   9.153
 5139POPC   GL1 5149  32.265  14.439   8.853
 5139POPC   GL2 5150  32.077  14.357   8.853
 5139POPC   C1A 5151  32.243  14.377   8.553
 5139POPC   D2A 5152  32.247  14.384   8.253
 5139POPC   C3A 5153  32.282  14.440   7.953
 5139POPC   C4A 5154  32.292  14.389   7.653
 5139POPC   C1B 5155  31.978  14.353   8.553
 5139POPC   C2B 5156  32.037  14.394   8.253
 5139POPC   C3B 5157  32.000  14.422   7.953
 5139POPC   C4B 5158  31.983  14.366   7.653
 5140POPC   NC3 5159   1.233  38.438   9.453
 5140POPC   PO4 5160   1.177  38.407   9.153
 5140POPC   GL1 5161   1.193  38.480   8.853
 5140POPC   GL2 5162   1.120  38.472   8.853
 5140POPC   C1A 5163   1.254  38.427   8.553
 5140POPC   D2A 5164   1.204  38.451   8.253
 5140POPC   C3A 5165   1.174  38.470   7.953
 5140POPC   C4A 5166   1.200  38.427   7.653
 5140POPC   C1B 5167   0.980  38.438   8.553
 5140POPC   C2B 5168   0.941  38.499   8.253
 5140POPC   C3B 5169   0.949  38.473   7.953
 5140POPC   C4B 5170   0.959  38.435   7.653
 5141POPC   NC3 5171  15.954  21.362   9.453
 5141POPC   PO4 5172  15.927  21.346   9.153
 5141POPC   GL1 5173  15.945  21.340   8.853
 5141POPC   GL2 5174  15.822  21.448   8.853
 5141POPC   C1A 5175  15.973  21.407   8.553
 5141POPC   D2A 5176  15.991  21.425   8.253
 5141POPC   C3A 5177  16.005  21.428   7.953
 5141POPC   C4A 5178  15.920  21.346   7.653
 5141POPC   C1B 5179  15.774  21.532   8.553
 5141POPC   C2B 5180  15.807  21.557   8.253
 5141POPC   C3B 5181  15.770  21.575   7.953
 5141POPC   C4B 5182  15.793  21.557   7.653
 5142POPC   NC3 5183  27.543  37.646   9.453
 5142POPC   PO4 5184  27.627  37.702   9.153
 5142POPC   GL1 5185  27.565  37.667   8.853
 5142POPC   GL2 5186  27.470  37.758   8.853
 5142POPC   C1A 5187  27.611  37.700   8.553
 5142POPC   D2A 5188  27.619  37.700   8.253
 5142POPC   C3A 5189  27.555  37.678   7.953
 5142POPC   C4A 5190  27.569  37.681   7.653
 5142POPC   C1B 5191  27.353  37.827   8.553
 5142POPC   C2B 5192  27.428  37.787   8.253
 5142POPC   C3B 5193  27.410  37.834   7.953
 5142POPC   C4B 5194  27.382  37.831   7.653
 5143POPC   NC3 5195  32.231  22.912   9.453
 5143POPC   PO4 5196  32.275  22.940   9.153
 5143POPC   GL1 5197  32.223  22.950   8.853
 5143POPC   GL2 5198  32.165  22.929   8.853
 5143POPC   C1A 5199  32.239  22.945   8.553
 5143POPC   D2A 5200  32.260  22.917   8.253
 5143POPC   C3A 5201  32.243  22.979   7.953
 5143POPC   C4A 5202  32.295  22.940   7.653
 5143POPC   C1B 5203  31.988  22.958   8.553
 5143POPC   C2B 5204  31.983  22.948   8.253
 5143POPC   C3B 5205  32.001  23.007   7.953
 5143POPC   C4B 5206  31.984  22.967   7.653
 5144POPC   NC3 5207  26.062  33.015   9.453
 5144POPC   PO4 5208  26.051  32.985   9.153
 5144POPC   GL1 5209  25.997  33.058   8.853
 5144POPC   GL2 5210  25.915  33.069   8.853
 5144POPC   C1A 5211  26.024  32.983   8.553
 5144POPC   D2A 5212  26.015  33.059   8.253
 5144POPC   C3A 5213  26.025  33.051   7.953
 5144POPC   C4A 5214  26.088  33.069   7.653
 5144POPC   C1B 5215  25.811  33.016   8.553
 5144POPC   C2B 5216  25.829  33.084   8.253
 5144POPC   C3B 5217  25.841  33.032   7.953
 5144POPC   C4B 5218  25.775  33.003   7.653
 5145POPC   NC3 5219   2.757  13.626   9.453
 5145POPC   PO4 5220   2.781  13.650   9.153
 5145POPC   GL1 5221   2.766  13.620   8.853
 5145POPC   GL2 5222   2.879  13.584   8.853
 5145POPC   C1A 5223   2.786  13.625   8.553
 5145POPC   D2A 5224   2.810  13.674   8.253
 5145POPC   C3A 5225   2.726  13.596   7.953
 5145POPC   C4A 5226   2.780  13.650   7.653
 5145POPC   C1B 5227   2.975  13.586   8.553
 5145POPC   C2B 5228   2.961  13.564   8.253
 5145POPC   C3B 5229   3.049  13.581   7.953
 5145POPC   C4B 5230   3.033  13.499   7.653
 5146POPC   NC3 5231   2.735  38.493   9.453
 5146POPC   PO4 5232   2.792  38.410   9.153
 5146POPC   GL1 5233   2.804  38.485   8.853
 5146POPC   GL2 5234   2.766  38.532   8.853
 5146POPC   C1A 5235   2.805  38.478   8.553
 5146POPC   D2A 5236   2.807  38.431   8.253
 5146POPC   C3A 5237   2.763  38.422   7.953
 5146POPC   C4A 5238   2.719  38.454   7.653
 5146POPC   C1B 5239   2.754  38.697   8.553
 5146POPC   C2B 5240   2.716  38.738   8.253
 5146POPC   C3B 5241   2.689  38.722   7.953
 5146POPC   C4B 5242   2.737  38.684   7.653
 5147POPC   NC3 5243  16.740   5.128   9.453
 5147POPC   PO4 5244  16.772   5.139   9.153
 5147POPC   GL1 5245  16.754   5.102   8.853
 5147POPC   GL2 5246  16.595   4.983   8.853
 5147POPC   C1A 5247  16.697   5.111   8.553
 5147POPC   D2A 5248  16.711   5.075   8.253
 5147POPC   C3A 5249  16.725   5.061   7.953
 5147POPC   C4A 5250  16.727   5.128   7.653
 5147POPC   C1B 5251  16.595   4.940   8.553
 5147POPC   C2B 5252  16.510   4.923   8.253
 5147POPC   C3B 5253  16.589   4.934   7.953
 5147POPC   C4B 5254  16.595   4.900   7.653
 5148POPC   NC3 5255   7.397   5.843   9.453
 5148POPC   PO4 5256   7.390   5.906   9.153
 5148POPC   GL1 5257   7.418   5.917   8.853
 5148POPC   GL2 5258   7.519   5.888   8.853
 5148POPC   C1A 5259   7.424   5.834   8.553
 5148POPC   D2A 5260   7.456   5.882   8.253
 5148POPC   C3A 5261   7.390   5.908   7.953
 5148POPC   C4A 5262   7.378   5.872   7.653
 5148POPC   C1B 5263   7.697   5.818   8.553
 5148POPC   C2B 5264   7.677   5.855   8.253
 5148POPC   C3B 5265   7.700   5.874   7.953
 5148POPC   C4B 5266   7.682   5.820   7.653
 5149POPC   NC3 5267   0.407   2.016   9.453
 5149POPC   PO4 5268   0.389   2.026   9.153
 5149POPC   GL1 5269   0.468   2.005   8.853
 5149POPC   GL2 5270   0.591   1.899   8.853
 5149POPC   C1A 5271   0.398   2.031   8.553
 5149POPC   D2A 5272   0.456   1.956   8.253
 5149POPC   C3A 5273   0.435   1.958   7.953
 5149POPC   C4A 5274   0.404   1.947   7.653
 5149POPC   C1B 5275   0.670   1.839   8.553
 5149POPC   C2B 5276   0.611   1.863   8.253
 5149POPC   C3B 5277   0.614   1.906   7.953
 5149POPC   C4B 5278   0.644   1.915   7.653
 5150POPC   NC3 5279  19.042  30.733   9.453
 5150POPC   PO4 5280  19.067  30.675   9.153
 5150POPC   GL1 5281  19.040  30.745   8.853
 5150POPC   GL2 5282  19.201  30.589   8.853
 5150POPC   C1A 5283  19.045  30.685   8.553
 5150POPC   D2A 5284  19.083  30.740   8.253
 5150POPC   C3A 5285  19.019  30.648   7.953
 5150POPC   C4A 5286  19.060  30.673   7.653
 5150POPC   C1B 5287  19.272  30.577   8.553
 5150POPC   C2B 5288  19.233  30.493   8.253
 5150POPC   C3B 5289  19.226  30.512   7.953
 5150POPC   C4B 5290  19.264  30.567   7.653
 5151POPC   NC3 5291  31.424  42.288   9.453
 5151POPC   PO4 5292  31.501  42.343   9.153
 5151POPC   GL1 5293  31.505  42.344   8.853
 5151POPC   GL2 5294  31.621  42.357   8.853
 5151POPC   C1A 5295  31.502  42.376   8.553
 5151POPC   D2A 5296  31.434  42.351   8.253
 5151POPC   C3A 5297  31.470  42.333   7.953
 5151POPC   C4A 5298  31.427  42.340   7.653
 5151POPC   C1B 5299  31.683  42.306   8.553
 5151POPC   C2B 5300  31.732  42.311   8.253
 5151POPC   C3B 5301  31.772  42.351   7.953
 5151POPC   C4B 5302  31.712  42.377   7.653
 5152POPC   NC3 5303  29.153  11.300   9.453
 5152POPC   PO4 5304  29.137  11.324   9.153
 5152POPC   GL1 5305  29.114  11.323   8.853
 5152POPC   GL2 5306  29.247  11.319   8.853
 5152POPC   C1A 5307  29.190  11.316   8.553
 5152POPC   D2A 5308  29.194  11.285   8.253
 5152POPC   C3A 5309  29.178  11.316   7.953
 5152POPC   C4A 5310  29.153  11.269   7.653
 5152POPC   C1B 5311  29.411  11.363   8.553
 5152POPC   C2B 5312  29.395  11.359   8.253
 5152POPC   C3B 5313  29.411  11.286   7.953
 5152POPC   C4B 5314  29.355  11.339   7.653
 5153POPC   NC3 5315  25.312  29.139   9.453
 5153POPC   PO4 5316  25.263  29.188   9.153
 5153POPC   GL1 5317  25.225  29.101   8.853
 5153POPC   GL2 5318  25.287  29.223   8.853
 5153POPC   C1A 5319  25.238  29.162   8.553
 5153POPC   D2A 5320  25.315  29.120   8.253
 5153POPC   C3A 5321  25.254  29.099   7.953
 5153POPC   C4A 5322  25.273  29.095   7.653
 5153POPC   C1B 5323  25.229  29.389   8.553
 5153POPC   C2B 5324  25.260  29.391   8.253
 5153POPC   C3B 5325  25.198  29.402   7.953
 5153POPC   C4B 5326  25.177  29.406   7.653
 5154POPC   NC3 5327  21.359  21.342   9.453
 5154POPC   PO4 5328  21.402  21.396   9.153
 5154POPC   GL1 5329  21.398  21.360   8.853
 5154POPC   GL2 5330  21.517  21.433   8.853
 5154POPC   C1A 5331  21.411  21.424   8.553
 5154POPC   D2A 5332  21.420  21.423   8.253
 5154POPC   C3A 5333  21.394  21.412   7.953
 5154POPC   C4A 5334  21.424  21.359   7.653
 5154POPC   C1B 5335  21.626  21.472   8.553
 5154POPC   C2B 5336  21.645  21.500   8.253
 5154POPC   C3B 5337  21.626  21.535   7.953
 5154POPC   C4B 5338  21.583  21.498   7.653
 5155POPC   NC3 5339  41.553  38.418   9.453
 5155POPC   PO4 5340  41.517  38.434   9.153
 5155POPC   GL1 5341  41.545  38.487   8.853
 5155POPC   GL2 5342  41.503  38.602   8.853
 5155POPC   C1A 5343  41.522  38.492   8.553
 5155POPC   D2A 5344  41.545  38.414   8.253
 5155POPC   C3A 5345  41.601  38.467   7.953
 5155POPC   C4A 5346  41.562  38.435   7.653
 5155POPC   C1B 5347  41.549  38.720   8.553
 5155POPC   C2B 5348  41.491  38.743   8.253
 5155POPC   C3B 5349  41.528  38.747   7.953
 5155POPC   C4B 5350  41.481  38.658   7.653
 5156POPC   NC3 5351  19.815  20.604   9.453
 5156POPC   PO4 5352  19.799  20.609   9.153
 5156POPC   GL1 5353  19.867  20.570   8.853
 5156POPC   GL2 5354  19.922  20.544   8.853
 5156POPC   C1A 5355  19.854  20.634   8.553
 5156POPC   D2A 5356  19.876  20.647   8.253
 5156POPC   C3A 5357  19.869  20.623   7.953
 5156POPC   C4A 5358  19.798  20.565   7.653
 5156POPC   C1B 5359  20.065  20.535   8.553
 5156POPC   C2B 5360  20.039  20.516   8.253
 5156POPC   C3B 5361  20.066  20.538   7.953
 5156POPC   C4B 5362  20.040  20.576   7.653
 5157POPC   NC3 5363   3.574  22.154   9.453
 5157POPC   PO4 5364   3.557  22.170   9.153
 5157POPC   GL1 5365   3.579  22.131   8.853
 5157POPC   GL2 5366   3.506  22.236   8.853
 5157POPC   C1A 5367   3.538  22.197   8.553
 5157POPC   D2A 5368   3.575  22.200   8.253
 5157POPC   C3A 5369   3.563  22.132   7.953
 5157POPC   C4A 5370   3.560  22.203   7.653
 5157POPC   C1B 5371   3.451  22.362   8.553
 5157POPC   C2B 5372   3.490  22.451   8.253
 5157POPC   C3B 5373   3.511  22.433   7.953
 5157POPC   C4B 5374   3.434  22.448   7.653
 5158POPC   NC3 5375  25.999   3.516   9.453
 5158POPC   PO4 5376  26.004   3.557   9.153
 5158POPC   GL1 5377  26.016   3.561   8.853
 5158POPC   GL2 5378  26.073   3.451   8.853
 5158POPC   C1A 5379  26.044   3.507   8.553
 5158POPC   D2A 5380  25.996   3.510   8.253
 5158POPC   C3A 5381  26.009   3.563   7.953
 5158POPC   C4A 5382  26.033   3.572   7.653
 5158POPC   C1B 5383  26.023   3.308   8.553
 5158POPC   C2B 5384  25.994   3.298   8.253
 5158POPC   C3B 5385  26.026   3.293   7.953
 5158POPC   C4B 5386  26.021   3.275   7.653
 5159POPC   NC3 5387  27.589  40.818   9.453
 5159POPC   PO4 5388  27.562  40.755   9.153
 5159POPC   GL1 5389  27.611  40.802   8.853
 5159POPC   GL2 5390  27.575  40.670   8.853
 5159POPC   C1A 5391  27.545  40.822   8.553
 5159POPC   D2A 5392  27.629  40.736   8.253
 5159POPC   C3A 5393  27.617  40.764   7.953
 5159POPC   C4A 5394  27.564  40.790   7.653
 5159POPC   C1B 5395  27.472  40.544   8.553
 5159POPC   C2B 5396  27.514  40.609   8.253
 5159POPC   C3B 5397  27.501  40.549   7.953
 5159POPC   C4B 5398  27.462  40.559   7.653
 5160POPC   NC3 5399  42.352  39.218   9.453
 5160POPC   PO4 5400  42.320  39.221   9.153
 5160POPC   GL1 5401  42.367  39.274   8.853
 5160POPC   GL2 5402  42.495  39.154   8.853
 5160POPC   C1A 5403  42.308  39.249   8.553
 5160POPC   D2A 5404  42.371  39.242   8.253
 5160POPC   C3A 5405  42.299  39.254   7.953
 5160POPC   C4A 5406  42.320  39.274   7.653
 5160POPC   C1B 5407  42.553  39.134   8.553
 5160POPC   C2B 5408  42.618  39.123   8.253
 5160POPC   C3B 5409  42.532  39.140   7.953
 5160POPC   C4B 5410  42.603  39.170   7.653
 5161POPC   NC3 5411  29.876  14.365   9.453
 5161POPC   PO4 5412  29.969  14.413   9.153
 5161POPC   GL1 5413  29.910  14.376   8.853
 5161POPC   GL2 5414  29.778  14.405   8.853
 5161POPC   C1A 5415  29.888  14.421   8.553
 5161POPC   D2A 5416  29.938  14.447   8.253
 5161POPC   C3A 5417  29.909  14.421   7.953
 5161POPC   C4A 5418  29.901  14.416   7.653
 5161POPC   C1B 5419  29.678  14.494   8.553
 5161POPC   C2B 5420  29.673  14.548   8.253
 5161POPC   C3B 5421  29.740  14.534   7.953
 5161POPC   C4B 5422  29.655  14.509   7.653
 5162POPC   NC3 5423  15.132   8.188   9.453
 5162POPC   PO4 5424  15.146   8.238   9.153
 5162POPC   GL1 5425  15.161   8.158   8.853
 5162POPC   GL2 5426  15.263   8.203   8.853
 5162POPC   C1A 5427  15.209   8.191   8.553
 5162POPC   D2A 5428  15.201   8.212   8.253
 5162POPC   C3A 5429  15.223   8.171   7.953
 5162POPC   C4A 5430  15.154   8.188   7.653
 5162POPC   C1B 5431  15.458   8.187   8.553
 5162POPC   C2B 5432  15.443   8.139   8.253
 5162POPC   C3B 5433  15.435   8.205   7.953
 5162POPC   C4B 5434  15.413   8.193   7.653
 5163POPC   NC3 5435  20.584  13.630   9.453
 5163POPC   PO4 5436  20.637  13.584   9.153
 5163POPC   GL1 5437  20.563  13.668   8.853
 5163POPC   GL2 5438  20.629  13.713   8.853
 5163POPC   C1A 5439  20.580  13.617   8.553
 5163POPC   D2A 5440  20.585  13.634   8.253
 5163POPC   C3A 5441  20.602  13.590   7.953
 5163POPC   C4A 5442  20.595  13.598   7.653
 5163POPC   C1B 5443  20.600  13.883   8.553
 5163POPC   C2B 5444  20.541  13.914   8.253
 5163POPC   C3B 5445  20.524  13.891   7.953
 5163POPC   C4B 5446  20.584  13.836   7.653
 5164POPC   NC3 5447  33.026  10.498   9.453
 5164POPC   PO4 5448  33.031  10.527   9.153
 5164POPC   GL1 5449  33.011  10.526   8.853
 5164POPC   GL2 5450  33.052  10.631   8.853
 5164POPC   C1A 5451  32.981  10.552   8.553
 5164POPC   D2A 5452  33.061  10.535   8.253
 5164POPC   C3A 5453  33.039  10.523   7.953
 5164POPC   C4A 5454  32.996  10.481   7.653
 5164POPC   C1B 5455  33.111  10.794   8.553
 5164POPC   C2B 5456  33.162  10.730   8.253
 5164POPC   C3B 5457  33.153  10.709   7.953
 5164POPC   C4B 5458  33.099  10.783   7.653
 5165POPC   NC3 5459  21.355  14.394   9.453
 5165POPC   PO4 5460  21.430  14.434   9.153
 5165POPC   GL1 5461  21.383  14.440   8.853
 5165POPC   GL2 5462  21.426  14.482   8.853
 5165POPC   C1A 5463  21.404  14.368   8.553
 5165POPC   D2A 5464  21.366  14.359   8.253
 5165POPC   C3A 5465  21.435  14.388   7.953
 5165POPC   C4A 5466  21.350  14.370   7.653
 5165POPC   C1B 5467  21.343  14.699   8.553
 5165POPC   C2B 5468  21.405  14.606   8.253
 5165POPC   C3B 5469  21.408  14.627   7.953
 5165POPC   C4B 5470  21.405  14.634   7.653
 5166POPC   NC3 5471   0.426   9.746   9.453
 5166POPC   PO4 5472   0.482   9.790   9.153
 5166POPC   GL1 5473   0.460   9.783   8.853
 5166POPC   GL2 5474   0.504   9.870   8.853
 5166POPC   C1A 5475   0.405   9.711   8.553
 5166POPC   D2A 5476   0.417   9.718   8.253
 5166POPC   C3A 5477   0.440   9.713   7.953
 5166POPC   C4A 5478   0.398   9.745   7.653
 5166POPC   C1B 5479   0.565   9.912   8.553
 5166POPC   C2B 5480   0.560   9.979   8.253
 5166POPC   C3B 5481   0.575   9.933   7.953
 5166POPC   C4B 5482   0.622   9.951   7.653
 5167POPC   NC3 5483  14.365  38.495   9.453
 5167POPC   PO4 5484  14.369  38.417   9.153
 5167POPC   GL1 5485  14.394  38.492   8.853
 5167POPC   GL2 5486  14.369  38.623   8.853
 5167POPC   C1A 5487  14.396  38.422   8.553
 5167POPC   D2A 5488  14.416  38.462   8.253
 5167POPC   C3A 5489  14.424  38.441   7.953
 5167POPC   C4A 5490  14.380  38.406   7.653
 5167POPC   C1B 5491  14.310  38.659   8.553
 5167POPC   C2B 5492  14.345  38.663   8.253
 5167POPC   C3B 5493  14.298  38.679   7.953
 5167POPC   C4B 5494  14.306  38.694   7.653
 5168POPC   NC3 5495  13.664  10.498   9.453
 5168POPC   PO4 5496  13.583  10.477   9.153
 5168POPC   GL1 5497  13.675  10.545   8.853
 5168POPC   GL2 5498  13.631  10.629   8.853
 5168POPC   C1A 5499  13.606  10.519   8.553
 5168POPC   D2A 5500  13.598  10.557   8.253
 5168POPC   C3A 5501  13.669  10.489   7.953
 5168POPC   C4A 5502  13.640  10.533   7.653
 5168POPC   C1B 5503  13.676  10.756   8.553
 5168POPC   C2B 5504  13.677  10.778   8.253
 5168POPC   C3B 5505  13.748  10.732   7.953
 5168POPC   C4B 5506  13.731  10.751   7.653
 5169POPC   NC3 5507   0.397  42.323   9.453
 5169POPC   PO4 5508   0.460  42.295   9.153
 5169POPC   GL1 5509   0.440  42.349   8.853
 5169POPC   GL2 5510   0.373  42.235   8.853
 5169POPC   C1A 5511   0.444  42.307   8.553
 5169POPC   D2A 5512   0.393  42.376   8.253
 5169POPC   C3A 5513   0.419  42.375   7.953
 5169POPC   C4A 5514   0.425  42.368   7.653
 5169POPC   C1B 5515   0.260  42.094   8.553
 5169POPC   C2B 5516   0.335  42.172   8.253
 5169POPC   C3B 5517   0.323  42.109   7.953
 5169POPC   C4B 5518   0.290  42.073   7.653
 5170POPC   NC3 5519  21.360  26.854   9.453
 5170POPC   PO4 5520  21.384  26.838   9.153
 5170POPC   GL1 5521  21.363  26.832   8.853
 5170POPC   GL2 5522  21.324  26.888   8.853
 5170POPC   C1A 5523  21.392  26.812   8.553
 5170POPC   D2A 5524  21.423  26.833   8.253
 5170POPC   C3A 5525  21.372  26.781   7.953
 5170POPC   C4A 5526  21.403  26.822   7.653
 5170POPC   C1B 5527  21.202  26.981   8.553
 5170POPC   C2B 5528  21.197  27.007   8.253
 5170POPC   C3B 5529  21.213  27.013   7.953
 5170POPC   C4B 5530  21.243  27.033   7.653
 5171POPC   NC3 5531  39.976  39.213   9.453
 5171POPC   PO4 5532  40.053  39.268   9.153
 5171POPC   GL1 5533  40.009  39.255   8.853
 5171POPC   GL2 5534  40.070  39.099   8.853
 5171POPC   C1A 5535  40.029  39.193   8.553
 5171POPC   D2A 5536  40.035  39.273   8.253
 5171POPC   C3A 5537  40.011  39.236   7.953
 5171POPC   C4A 5538  40.036  39.217   7.653
 5171POPC   C1B 5539  40.038  38.954   8.553
 5171POPC   C2B 5540  40.062  39.037   8.253
 5171POPC   C3B 5541  40.065  38.972   7.953
 5171POPC   C4B 5542  40.049  38.986   7.653
 5172POPC   NC3 5543   8.176  40.042   9.453
 5172POPC   PO4 5544   8.209  39.960   9.153
 5172POPC   GL1 5545   8.169  39.983   8.853
 5172POPC   GL2 5546   8.095  40.100   8.853
 5172POPC   C1A 5547   8.207  40.003   8.553
 5172POPC   D2A 5548   8.177  39.975   8.253
 5172POPC   C3A 5549   8.238  39.993   7.953
 5172POPC   C4A 5550   8.168  39.966   7.653
 5172POPC   C1B 5551   8.064  40.147   8.553
 5172POPC   C2B 5552   8.065  40.173   8.253
 5172POPC   C3B 5553   7.977  40.179   7.953
 5172POPC   C4B 5554   8.047  40.168   7.653
 5173POPC   NC3 5555  40.055  29.953   9.453
 5173POPC   PO4 5556  39.978  29.893   9.153
 5173POPC   GL1 5557  39.968  29.925   8.853
 5173POPC   GL2 5558  40.020  29.762   8.853
 5173POPC   C1A 5559  39.961  29.876   8.553
 5173POPC   D2A 5560  39.996  29.894   8.253
 5173POPC   C3A 5561  40.051  29.909   7.953
 5173POPC   C4A 5562  40.027  29.941   7.653
 5173POPC   C1B 5563  40.145  29.660   8.553
 5173POPC   C2B 5564  40.059  29.665   8.253
 5173POPC   C3B 5565  40.062  29.731   7.953
 5173POPC   C4B 5566  40.129  29.642   7.653
 5174POPC   NC3 5567   1.208   5.876   9.453
 5174POPC   PO4 5568   1.263   5.914   9.153
 5174POPC   GL1 5569   1.248   5.917   8.853
 5174POPC   GL2 5570   1.308   5.816   8.853
 5174POPC   C1A 5571   1.193   5.830   8.553
 5174POPC   D2A 5572   1.226   5.861   8.253
 5174POPC   C3A 5573   1.257   5.838   7.953
 5174POPC   C4A 5574   1.193   5.900   7.653
 5174POPC   C1B 5575   1.414   5.753   8.553
 5174POPC   C2B 5576   1.468   5.809   8.253
 5174POPC   C3B 5577   1.411   5.743   7.953
 5174POPC   C4B 5578   1.486   5.744   7.653
 5175POPC   NC3 5579  27.630  21.429   9.453
 5175POPC   PO4 5580  27.614  21.409   9.153
 5175POPC   GL1 5581  27.627  21.426   8.853
 5175POPC   GL2 5582  27.720  21.250   8.853
 5175POPC   C1A 5583  27.558  21.346   8.553
 5175POPC   D2A 5584  27.604  21.404   8.253
 5175POPC   C3A 5585  27.619  21.395   7.953
 5175POPC   C4A 5586  27.613  21.372   7.653
 5175POPC   C1B 5587  27.724  21.222   8.553
 5175POPC   C2B 5588  27.715  21.228   8.253
 5175POPC   C3B 5589  27.799  21.222   7.953
 5175POPC   C4B 5590  27.802  21.244   7.653
 5176POPC   NC3 5591   2.738  12.076   9.453
 5176POPC   PO4 5592   2.723  12.065   9.153
 5176POPC   GL1 5593   2.761  12.078   8.853
 5176POPC   GL2 5594   2.778  12.210   8.853
 5176POPC   C1A 5595   2.774  12.070   8.553
 5176POPC   D2A 5596   2.761  12.107   8.253
 5176POPC   C3A 5597   2.786  12.073   7.953
 5176POPC   C4A 5598   2.815  12.110   7.653
 5176POPC   C1B 5599   2.812  12.346   8.553
 5176POPC   C2B 5600   2.798  12.329   8.253
 5176POPC   C3B 5601   2.862  12.351   7.953
 5176POPC   C4B 5602   2.892  12.306   7.653
 5177POPC   NC3 5603  22.203   3.498   9.453
 5177POPC   PO4 5604  22.166   3.555   9.153
 5177POPC   GL1 5605  22.204   3.540   8.853
 5177POPC   GL2 5606  22.320   3.542   8.853
 5177POPC   C1A 5607  22.124   3.528   8.553
 5177POPC   D2A 5608  22.135   3.527   8.253
 5177POPC   C3A 5609  22.188   3.516   7.953
 5177POPC   C4A 5610  22.209   3.517   7.653
 5177POPC   C1B 5611  22.353   3.589   8.553
 5177POPC   C2B 5612  22.420   3.640   8.253
 5177POPC   C3B 5613  22.390   3.649   7.953
 5177POPC   C4B 5614  22.407   3.624   7.653
 5178POPC   NC3 5615  25.259  28.366   9.453
 5178POPC   PO4 5616  25.239  28.351   9.153
 5178POPC   GL1 5617  25.292  28.320   8.853
 5178POPC   GL2 5618  25.205  28.408   8.853
 5178POPC   C1A 5619  25.217  28.357   8.553
 5178POPC   D2A 5620  25.256  28.327   8.253
 5178POPC   C3A 5621  25.281  28.337   7.953
 5178POPC   C4A 5622  25.247  28.377   7.653
 5178POPC   C1B 5623  25.053  28.495   8.553
 5178POPC   C2B 5624  25.043  28.492   8.253
 5178POPC   C3B 5625  25.019  28.543   7.953
 5178POPC   C4B 5626  25.027  28.510   7.653
 5179POPC   NC3 5627  42.294  21.429   9.453
 5179POPC   PO4 5628  42.377  21.420   9.153
 5179POPC   GL1 5629  42.350  21.359   8.853
 5179POPC   GL2 5630  42.413  21.250   8.853
 5179POPC   C1A 5631  42.297  21.409   8.553
 5179POPC   D2A 5632  42.353  21.383   8.253
 5179POPC   C3A 5633  42.331  21.395   7.953
 5179POPC   C4A 5634  42.337  21.428   7.653
 5179POPC   C1B 5635  42.475  21.131   8.553
 5179POPC   C2B 5636  42.441  21.151   8.253
 5179POPC   C3B 5637  42.476  21.116   7.953
 5179POPC   C4B 5638  42.414  21.139   7.653
 5180POPC   NC3 5639  19.098  13.644   9.453
 5180POPC   PO4 5640  19.077  13.592   9.153
 5180POPC   GL1 5641  19.085  13.643   8.853
 5180POPC   GL2 5642  19.188  13.714   8.853
 5180POPC   C1A 5643  19.022  13.582   8.553
 5180POPC   D2A 5644  19.034  13.658   8.253
 5180POPC   C3A 5645  19.098  13.615   7.953
 5180POPC   C4A 5646  19.043  13.668   7.653
 5180POPC   C1B 5647  19.239  13.765   8.553
 5180POPC   C2B 5648  19.318  13.774   8.253
 5180POPC   C3B 5649  19.297  13.705   7.953
 5180POPC   C4B 5650  19.256  13.764   7.653
 5181POPC   NC3 5651  43.921  10.519   9.453
 5181POPC   PO4 5652  43.842  10.491   9.153
 5181POPC   GL1 5653  43.893  10.499   8.853
 5181POPC   GL2 5654  44.026  10.481   8.853
 5181POPC   C1A 5655  43.865  10.550   8.553
 5181POPC   D2A 5656  43.883  10.504   8.253
 5181POPC   C3A 5657  43.910  10.522   7.953
 5181POPC   C4A 5658  43.876  10.485   7.653
 5181POPC   C1B 5659  44.109  10.339   8.553
 5181POPC   C2B 5660  44.099  10.435   8.253
 5181POPC   C3B 5661  44.142  10.389   7.953
 5181POPC   C4B 5662  44.069  10.429   7.653
 5182POPC   NC3 5663  29.920  21.404   9.453
 5182POPC   PO4 5664  29.890  21.359   9.153
 5182POPC   GL1 5665  29.872  21.361   8.853
 5182POPC   GL2 5666  30.029  21.263   8.853
 5182POPC   C1A 5667  29.947  21.413   8.553
 5182POPC   D2A 5668  29.908  21.387   8.253
 5182POPC   C3A 5669  29.890  21.425   7.953
 5182POPC   C4A 5670  29.962  21.337   7.653
 5182POPC   C1B 5671  30.024  21.157   8.553
 5182POPC   C2B 5672  30.095  21.134   8.253
 5182POPC   C3B 5673  30.082  21.166   7.953
 5182POPC   C4B 5674  30.050  21.150   7.653
 5183POPC   NC3 5675   5.892  16.700   9.453
 5183POPC   PO4 5676   5.885  16.688   9.153
 5183POPC   GL1 5677   5.886  16.722   8.853
 5183POPC   GL2 5678   5.816  16.815   8.853
 5183POPC   C1A 5679   5.884  16.773   8.553
 5183POPC   D2A 5680   5.889  16.722   8.253
 5183POPC   C3A 5681   5.883  16.698   7.953
 5183POPC   C4A 5682   5.843  16.764   7.653
 5183POPC   C1B 5683   5.824  17.016   8.553
 5183POPC   C2B 5684   5.895  16.963   8.253
 5183POPC   C3B 5685   5.893  16.949   7.953
 5183POPC   C4B 5686   5.862  16.942   7.653
 5184POPC   NC3 5687  36.876  26.778   9.453
 5184POPC   PO4 5688  36.890  26.781   9.153
 5184POPC   GL1 5689  36.932  26.846   8.853
 5184POPC   GL2 5690  36.765  26.770   8.853
 5184POPC   C1A 5691  36.940  26.854   8.553
 5184POPC   D2A 5692  36.934  26.814   8.253
 5184POPC   C3A 5693  36.888  26.866   7.953
 5184POPC   C4A 5694  36.926  26.858   7.653
 5184POPC   C1B 5695  36.679  26.822   8.553
 5184POPC   C2B 5696  36.614  26.753   8.253
 5184POPC   C3B 5697  36.614  26.758   7.953
 5184POPC   C4B 5698  36.615  26.815   7.653
 5185POPC   NC3 5699  33.042  43.064   9.453
 5185POPC   PO4 5700  32.976  43.154   9.153
 5185POPC   GL1 5701  33.045  43.096   8.853
 5185POPC   GL2 5702  32.893  43.086   8.853
 5185POPC   C1A 5703  33.017  43.105   8.553
 5185POPC   D2A 5704  32.989  43.072   8.253
 5185POPC   C3A 5705  33.007  43.078   7.953
 5185POPC   C4A 5706  33.000  43.093   7.653
 5185POPC   C1B 5707  32.752  43.139   8.553
 5185POPC   C2B 5708  32.755  43.177   8.253
 5185POPC   C3B 5709  32.753  43.165   7.953
 5185POPC   C4B 5710  32.761  43.159   7.653
 5186POPC   NC3 5711  29.964  12.109   9.453
 5186POPC   PO4 5712  29.943  12.077   9.153
 5186POPC   GL1 5713  29.880  12.084   8.853
 5186POPC   GL2 5714  30.065  12.035   8.853
 5186POPC   C1A 5715  29.940  12.074   8.553
 5186POPC   D2A 5716  29.969  12.091   8.253
 5186POPC   C3A 5717  29.899  12.078   7.953
 5186POPC   C4A 5718  29.943  12.122   7.653
 5186POPC   C1B 5719  30.155  11.887   8.553
 5186POPC   C2B 5720  30.079  11.984   8.253
 5186POPC   C3B 5721  30.095  11.973   7.953
 5186POPC   C4B 5722  30.079  11.948   7.653
 5187POPC   NC3 5723   9.778   5.054   9.453
 5187POPC   PO4 5724   9.712   5.077   9.153
 5187POPC   GL1 5725   9.785   5.092   8.853
 5187POPC   GL2 5726   9.705   5.027   8.853
 5187POPC   C1A 5727   9.726   5.106   8.553
 5187POPC   D2A 5728   9.775   5.078   8.253
 5187POPC   C3A 5729   9.712   5.113   7.953
 5187POPC   C4A 5730   9.753   5.085   7.653
 5187POPC   C1B 5731   9.565   4.892   8.553
 5187POPC   C2B 5732   9.568   4.914   8.253
 5187POPC   C3B 5733   9.576   4.919   7.953
 5187POPC   C4B 5734   9.555   4.933   7.653
 5188POPC   NC3 5735   2.726   2.035   9.453
 5188POPC   PO4 5736   2.778   1.969   9.153
 5188POPC   GL1 5737   2.773   2.012   8.853
 5188POPC   GL2 5738   2.826   1.924   8.853
 5188POPC   C1A 5739   2.744   2.015   8.553
 5188POPC   D2A 5740   2.736   2.022   8.253
 5188POPC   C3A 5741   2.732   2.015   7.953
 5188POPC   C4A 5742   2.805   1.948   7.653
 5188POPC   C1B 5743   2.961   1.833   8.553
 5188POPC   C2B 5744   2.981   1.782   8.253
 5188POPC   C3B 5745   2.923   1.765   7.953
 5188POPC   C4B 5746   2.889   1.832   7.653
 5189POPC   NC3 5747   5.850   5.141   9.453
 5189POPC   PO4 5748   5.876   5.114   9.153
 5189POPC   GL1 5749   5.890   5.133   8.853
 5189POPC   GL2 5750   6.002   5.087   8.853
 5189POPC   C1A 5751   5.888   5.068   8.553
 5189POPC   D2A 5752   5.903   5.126   8.253
 5189POPC   C3A 5753   5.884   5.083   7.953
 5189POPC   C4A 5754   5.852   5.143   7.653
 5189POPC   C1B 5755   6.094   5.080   8.553
 5189POPC   C2B 5756   6.139   5.066   8.253
 5189POPC   C3B 5757   6.079   5.074   7.953
 5189POPC   C4B 5758   6.115   5.019   7.653
 5190POPC   NC3 5759  13.588   8.159   9.453
 5190POPC   PO4 5760  13.612   8.243   9.153
 5190POPC   GL1 5761  13.636   8.218   8.853
 5190POPC   GL2 5762  13.479   8.249   8.853
 5190POPC   C1A 5763  13.581   8.188   8.553
 5190POPC   D2A 5764  13.667   8.215   8.253
 5190POPC   C3A 5765  13.593   8.178   7.953
 5190POPC   C4A 5766  13.624   8.212   7.653
 5190POPC   C1B 5767  13.391   8.212   8.553
 5190POPC   C2B 5768  13.389   8.212   8.253
 5190POPC   C3B 5769  13.372   8.269   7.953
 5190POPC   C4B 5770  13.410   8.238   7.653
 5191POPC   NC3 5771  35.361   2.734   9.453
 5191POPC   PO4 5772  35.352   2.724   9.153
 5191POPC   GL1 5773  35.321   2.750   8.853
 5191POPC   GL2 5774  35.472   2.690   8.853
 5191POPC   C1A 5775  35.334   2.728   8.553
 5191POPC   D2A 5776  35.302   2.758   8.253
 5191POPC   C3A 5777  35.311   2.814   7.953
 5191POPC   C4A 5778  35.345   2.761   7.653
 5191POPC   C1B 5779  35.472   2.548   8.553
 5191POPC   C2B 5780  35.503   2.596   8.253
 5191POPC   C3B 5781  35.526   2.523   7.953
 5191POPC   C4B 5782  35.490   2.608   7.653
 5192POPC   NC3 5783  15.180  10.490   9.453
 5192POPC   PO4 5784  15.211  10.537   9.153
 5192POPC   GL1 5785  15.226  10.503   8.853
 5192POPC   GL2 5786  15.330  10.527   8.853
 5192POPC   C1A 5787  15.178  10.477   8.553
 5192POPC   D2A 5788  15.165  10.530   8.253
 5192POPC   C3A 5789  15.168  10.551   7.953
 5192POPC   C4A 5790  15.210  10.498   7.653
 5192POPC   C1B 5791  15.448  10.443   8.553
 5192POPC   C2B 5792  15.378  10.508   8.253
 5192POPC   C3B 5793  15.424  10.445   7.953
 5192POPC   C4B 5794  15.401  10.431   7.653
 5193POPC   NC3 5795  43.885  16.746   9.453
 5193POPC   PO4 5796  43.898  16.684   9.153
 5193POPC   GL1 5797  43.866  16.727   8.853
 5193POPC   GL2 5798  43.992  16.791   8.853
 5193POPC   C1A 5799  43.885  16.717   8.553
 5193POPC   D2A 5800  43.866  16.707   8.253
 5193POPC   C3A 5801  43.930  16.688   7.953
 5193POPC   C4A 5802  43.917  16.692   7.653
 5193POPC   C1B 5803  44.147  16.838   8.553
 5193POPC   C2B 5804  44.089  16.795   8.253
 5193POPC   C3B 5805  44.166  16.785   7.953
 5193POPC   C4B 5806  44.160  16.826   7.653
 5194POPC   NC3 5807  17.506   5.886   9.453
 5194POPC   PO4 5808  17.471   5.858   9.153
 5194POPC   GL1 5809  17.468   5.870   8.853
 5194POPC   GL2 5810  17.459   5.989   8.853
 5194POPC   C1A 5811  17.489   5.858   8.553
 5194POPC   D2A 5812  17.477   5.915   8.253
 5194POPC   C3A 5813  17.538   5.821   7.953
 5194POPC   C4A 5814  17.523   5.903   7.653
 5194POPC   C1B 5815  17.333   6.091   8.553
 5194POPC   C2B 5816  17.361   6.070   8.253
 5194POPC   C3B 5817  17.313   6.096   7.953
 5194POPC   C4B 5818  17.352   6.098   7.653
 5195POPC   NC3 5819  22.199  19.868   9.453
 5195POPC   PO4 5820  22.135  19.843   9.153
 5195POPC   GL1 5821  22.148  19.871   8.853
 5195POPC   GL2 5822  22.239  19.915   8.853
 5195POPC   C1A 5823  22.210  19.840   8.553
 5195POPC   D2A 5824  22.211  19.877   8.253
 5195POPC   C3A 5825  22.113  19.857   7.953
 5195POPC   C4A 5826  22.190  19.788   7.653
 5195POPC   C1B 5827  22.316  20.057   8.553
 5195POPC   C2B 5828  22.270  20.007   8.253
 5195POPC   C3B 5829  22.308  20.005   7.953
 5195POPC   C4B 5830  22.287  20.007   7.653
 5196POPC   NC3 5831  19.010  12.834   9.453
 5196POPC   PO4 5832  19.089  12.900   9.153
 5196POPC   GL1 5833  19.014  12.835   8.853
 5196POPC   GL2 5834  18.911  12.890   8.853
 5196POPC   C1A 5835  19.059  12.846   8.553
 5196POPC   D2A 5836  19.059  12.890   8.253
 5196POPC   C3A 5837  19.034  12.813   7.953
 5196POPC   C4A 5838  19.032  12.879   7.653
 5196POPC   C1B 5839  18.869  12.892   8.553
 5196POPC   C2B 5840  18.854  12.963   8.253
 5196POPC   C3B 5841  18.780  12.944   7.953
 5196POPC   C4B 5842  18.850  12.955   7.653
 5197POPC   NC3 5843  32.978   6.647   9.453
 5197POPC   PO4 5844  33.005   6.608   9.153
 5197POPC   GL1 5845  33.044   6.681   8.853
 5197POPC   GL2 5846  32.954   6.565   8.853
 5197POPC   C1A 5847  33.006   6.690   8.553
 5197POPC   D2A 5848  33.059   6.647   8.253
 5197POPC   C3A 5849  32.985   6.667   7.953
 5197POPC   C4A 5850  33.041   6.674   7.653
 5197POPC   C1B 5851  32.876   6.442   8.553
 5197POPC   C2B 5852  32.914   6.467   8.253
 5197POPC   C3B 5853  32.891   6.427   7.953
 5197POPC   C4B 5854  32.860   6.445   7.653
 5198POPC   NC3 5855  35.380  39.248   9.453
 5198POPC   PO4 5856  35.353  39.251   9.153
 5198POPC   GL1 5857  35.397  39.188   8.853
 5198POPC   GL2 5858  35.343  39.149   8.853
 5198POPC   C1A 5859  35.384  39.225   8.553
 5198POPC   D2A 5860  35.356  39.185   8.253
 5198POPC   C3A 5861  35.302  39.247   7.953
 5198POPC   C4A 5862  35.387  39.222   7.653
 5198POPC   C1B 5863  35.338  39.012   8.553
 5198POPC   C2B 5864  35.333  39.006   8.253
 5198POPC   C3B 5865  35.341  38.959   7.953
 5198POPC   C4B 5866  35.382  38.983   7.653
 5199POPC   NC3 5867  26.058  11.269   9.453
 5199POPC   PO4 5868  26.010  11.320   9.153
 5199POPC   GL1 5869  26.071  11.342   8.853
 5199POPC   GL2 5870  25.979  11.375   8.853
 5199POPC   C1A 5871  26.053  11.258   8.553
 5199POPC   D2A 5872  26.046  11.250   8.253
 5199POPC   C3A 5873  26.063  11.259   7.953
 5199POPC   C4A 5874  26.050  11.324   7.653
 5199POPC   C1B 5875  25.992  11.509   8.553
 5199POPC   C2B 5876  26.026  11.528   8.253
 5199POPC   C3B 5877  25.951  11.526   7.953
 5199POPC   C4B 5878  26.019  11.529   7.653
 5200POPC   NC3 5879  34.544  36.931   9.453
 5200POPC   PO4 5880  34.601  36.918   9.153
 5200POPC   GL1 5881  34.568  36.893   8.853
 5200POPC   GL2 5882  34.482  37.040   8.853
 5200POPC   C1A 5883  34.530  36.881   8.553
 5200POPC   D2A 5884  34.554  36.943   8.253
 5200POPC   C3A 5885  34.547  36.937   7.953
 5200POPC   C4A 5886  34.618  36.938   7.653
 5200POPC   C1B 5887  34.427  37.096   8.553
 5200POPC   C2B 5888  34.397  37.122   8.253
 5200POPC   C3B 5889  34.453  37.063   7.953
 5200POPC   C4B 5890  34.440  37.076   7.653
 5201POPC   NC3 5891  29.115  30.672   9.453
 5201POPC   PO4 5892  29.166  30.736   9.153
 5201POPC   GL1 5893  29.176  30.730   8.853
 5201POPC   GL2 5894  29.141  30.845   8.853
 5201POPC   C1A 5895  29.186  30.717   8.553
 5201POPC   D2A 5896  29.192  30.741   8.253
 5201POPC   C3A 5897  29.115  30.700   7.953
 5201POPC   C4A 5898  29.121  30.669   7.653
 5201POPC   C1B 5899  29.280  30.962   8.553
 5201POPC   C2B 5900  29.187  30.901   8.253
 5201POPC   C3B 5901  29.254  30.932   7.953
 5201POPC   C4B 5902  29.252  30.881   7.653
 5202POPC   NC3 5903  39.974  22.182   9.453
 5202POPC   PO4 5904  40.011  22.128   9.153
 5202POPC   GL1 5905  39.960  22.179   8.853
 5202POPC   GL2 5906  40.100  22.079   8.853
 5202POPC   C1A 5907  39.966  22.178   8.553
 5202POPC   D2A 5908  39.967  22.131   8.253
 5202POPC   C3A 5909  40.051  22.148   7.953
 5202POPC   C4A 5910  39.982  22.148   7.653
 5202POPC   C1B 5911  40.155  21.941   8.553
 5202POPC   C2B 5912  40.099  21.947   8.253
 5202POPC   C3B 5913  40.120  21.937   7.953
 5202POPC   C4B 5914  40.112  21.913   7.653
 5203POPC   NC3 5915   1.941  28.399   9.453
 5203POPC   PO4 5916   1.947  28.402   9.153
 5203POPC   GL1 5917   2.022  28.360   8.853
 5203POPC   GL2 5918   2.109  28.452   8.853
 5203POPC   C1A 5919   2.023  28.337   8.553
 5203POPC   D2A 5920   1.978  28.370   8.253
 5203POPC   C3A 5921   2.012  28.352   7.953
 5203POPC   C4A 5922   2.015  28.343   7.653
 5203POPC   C1B 5923   2.131  28.582   8.553
 5203POPC   C2B 5924   2.194  28.562   8.253
 5203POPC   C3B 5925   2.167  28.592   7.953
 5203POPC   C4B 5926   2.175  28.500   7.653
 5204POPC   NC3 5927  26.786   0.460   9.453
 5204POPC   PO4 5928  26.840   0.436   9.153
 5204POPC   GL1 5929  26.861   0.459   8.853
 5204POPC   GL2 5930  26.667   0.507   8.853
 5204POPC   C1A 5931  26.769   0.464   8.553
 5204POPC   D2A 5932  26.806   0.478   8.253
 5204POPC   C3A 5933  26.825   0.450   7.953
 5204POPC   C4A 5934  26.815   0.396   7.653
 5204POPC   C1B 5935  26.621   0.517   8.553
 5204POPC   C2B 5936  26.576   0.565   8.253
 5204POPC   C3B 5937  26.548   0.540   7.953
 5204POPC   C4B 5938  26.562   0.476   7.653
 5205POPC   NC3 5939  31.433  44.711   9.453
 5205POPC   PO4 5940  31.471  44.676   9.153
 5205POPC   GL1 5941  31.497  44.688   8.853
 5205POPC   GL2 5942  31.358  44.703   8.853
 5205POPC   C1A 5943  31.503  44.645   8.553
 5205POPC   D2A 5944  31.455  44.671   8.253
 5205POPC   C3A 5945  31.484  44.640   7.953
 5205POPC   C4A 5946  31.486  44.679   7.653
 5205POPC   C1B 5947  31.275  44.794   8.553
 5205POPC   C2B 5948  31.279  44.856   8.253
 5205POPC   C3B 5949  31.293  44.776   7.953
 5205POPC   C4B 5950  31.235  44.809   7.653
 5206POPC   NC3 5951   9.744  43.888   9.453
 5206POPC   PO4 5952   9.785  43.849   9.153
 5206POPC   GL1 5953   9.730  43.931   8.853
 5206POPC   GL2 5954   9.841  43.941   8.853
 5206POPC   C1A 5955   9.759  43.857   8.553
 5206POPC   D2A 5956   9.760  43.869   8.253
 5206POPC   C3A 5957   9.774  43.920   7.953
 5206POPC   C4A 5958   9.719  43.861   7.653
 5206POPC   C1B 5959   9.945  44.094   8.553
 5206POPC   C2B 5960   9.954  44.084   8.253
 5206POPC   C3B 5961   9.904  44.072   7.953
 5206POPC   C4B 5962   9.962  44.091   7.653
 5207POPC   NC3 5963  34.602  42.314   9.453
 5207POPC   PO4 5964  34.551  42.380   9.153
 5207POPC   GL1 5965  34.577  42.358   8.853
 5207POPC   GL2 5966  34.639  42.239   8.853
 5207POPC   C1A 5967  34.619  42.285   8.553
 5207POPC   D2A 5968  34.594  42.337   8.253
 5207POPC   C3A 5969  34.604  42.308   7.953
 5207POPC   C4A 5970  34.563  42.345   7.653
 5207POPC   C1B 5971  34.690  42.154   8.553
 5207POPC   C2B 5972  34.717  42.155   8.253
 5207POPC   C3B 5973  34.723  42.147   7.953
 5207POPC   C4B 5974  34.775  42.125   7.653
 5208POPC   NC3 5975  29.189  16.693   9.453
 5208POPC   PO4 5976  29.184  16.722   9.153
 5208POPC   GL1 5977  29.126  16.743   8.853
 5208POPC   GL2 5978  29.100  16.814   8.853
 5208POPC   C1A 5979  29.114  16.776   8.553
 5208POPC   D2A 5980  29.178  16.736   8.253
 5208POPC   C3A 5981  29.165  16.761   7.953
 5208POPC   C4A 5982  29.183  16.724   7.653
 5208POPC   C1B 5983  29.005  16.868   8.553
 5208POPC   C2B 5984  28.942  16.891   8.253
 5208POPC   C3B 5985  28.947  16.918   7.953
 5208POPC   C4B 5986  29.004  16.882   7.653
 5209POPC   NC3 5987  29.961  16.773   9.453
 5209POPC   PO4 5988  29.902  16.702   9.153
 5209POPC   GL1 5989  29.895  16.723   8.853
 5209POPC   GL2 5990  29.862  16.582   8.853
 5209POPC   C1A 5991  29.949  16.698   8.553
 5209POPC   D2A 5992  29.888  16.741   8.253
 5209POPC   C3A 5993  29.901  16.734   7.953
 5209POPC   C4A 5994  29.883  16.684   7.653
 5209POPC   C1B 5995  29.930  16.509   8.553
 5209POPC   C2B 5996  29.863  16.525   8.253
 5209POPC   C3B 5997  29.882  16.445   7.953
 5209POPC   C4B 5998  29.871  16.522   7.653
 5210POPC   NC3 5999   0.474  39.259   9.453
 5210POPC   PO4 6000   0.426  39.278   9.153
 5210POPC   GL1 6001   0.437  39.235   8.853
 5210POPC   GL2 6002   0.519  39.196   8.853
 5210POPC   C1A 6003   0.433  39.270   8.553
 5210POPC   D2A 6004   0.431  39.260   8.253
 5210POPC   C3A 6005   0.471  39.206   7.953
 5210POPC   C4A 6006   0.423  39.257   7.653
 5210POPC   C1B 6007   0.639  39.120   8.553
 5210POPC   C2B 6008   0.646  39.080   8.253
 5210POPC   C3B 6009   0.688  39.110   7.953
 5210POPC   C4B 6010   0.605  39.069   7.653
 5211POPC   NC3 6011  15.988  29.883   9.453
 5211POPC   PO4 6012  15.962  29.948   9.153
 5211POPC   GL1 6013  15.926  29.959   8.853
 5211POPC   GL2 6014  16.044  30.002   8.853
 5211POPC   C1A 6015  15.961  29.915   8.553
 5211POPC   D2A 6016  15.923  29.968   8.253
 5211POPC   C3A 6017  15.998  29.893   7.953
 5211POPC   C4A 6018  15.947  29.900   7.653
 5211POPC   C1B 6019  16.208  29.998   8.553
 5211POPC   C2B 6020  16.164  29.995   8.253
 5211POPC   C3B 6021  16.225  29.985   7.953
 5211POPC   C4B 6022  16.145  30.015   7.653
 5212POPC   NC3 6023  36.139  35.347   9.453
 5212POPC   PO4 6024  36.089  35.386   9.153
 5212POPC   GL1 6025  36.138  35.369   8.853
 5212POPC   GL2 6026  36.029  35.448   8.853
 5212POPC   C1A 6027  36.173  35.322   8.553
 5212POPC   D2A 6028  36.136  35.314   8.253
 5212POPC   C3A 6029  36.115  35.376   7.953
 5212POPC   C4A 6030  36.133  35.340   7.653
 5212POPC   C1B 6031  35.884  35.466   8.553
 5212POPC   C2B 6032  35.909  35.458   8.253
 5212POPC   C3B 6033  35.955  35.492   7.953
 5212POPC   C4B 6034  35.974  35.519   7.653
 5213POPC   NC3 6035  43.845  34.580   9.453
 5213POPC   PO4 6036  43.911  34.611   9.153
 5213POPC   GL1 6037  43.911  34.581   8.853
 5213POPC   GL2 6038  43.738  34.560   8.853
 5213POPC   C1A 6039  43.883  34.588   8.553
 5213POPC   D2A 6040  43.927  34.614   8.253
 5213POPC   C3A 6041  43.899  34.588   7.953
 5213POPC   C4A 6042  43.885  34.589   7.653
 5213POPC   C1B 6043  43.682  34.436   8.553
 5213POPC   C2B 6044  43.664  34.495   8.253
 5213POPC   C3B 6045  43.703  34.451   7.953
 5213POPC   C4B 6046  43.715  34.419   7.653
 5214POPC   NC3 6047  33.759   5.853   9.453
 5214POPC   PO4 6048  33.794   5.876   9.153
 5214POPC   GL1 6049  33.833   5.869   8.853
 5214POPC   GL2 6050  33.696   5.878   8.853
 5214POPC   C1A 6051  33.826   5.867   8.553
 5214POPC   D2A 6052  33.784   5.855   8.253
 5214POPC   C3A 6053  33.842   5.889   7.953
 5214POPC   C4A 6054  33.845   5.904   7.653
 5214POPC   C1B 6055  33.578   5.839   8.553
 5214POPC   C2B 6056  33.583   5.855   8.253
 5214POPC   C3B 6057  33.551   5.819   7.953
 5214POPC   C4B 6058  33.556   5.799   7.653
 5215POPC   NC3 6059  31.439  15.155   9.453
 5215POPC   PO4 6060  31.435  15.176   9.153
 5215POPC   GL1 6061  31.424  15.170   8.853
 5215POPC   GL2 6062  31.594  15.290   8.853
 5215POPC   C1A 6063  31.499  15.187   8.553
 5215POPC   D2A 6064  31.463  15.137   8.253
 5215POPC   C3A 6065  31.494  15.172   7.953
 5215POPC   C4A 6066  31.473  15.130   7.653
 5215POPC   C1B 6067  31.663  15.350   8.553
 5215POPC   C2B 6068  31.680  15.390   8.253
 5215POPC   C3B 6069  31.631  15.395   7.953
 5215POPC   C4B 6070  31.641  15.330   7.653
 5216POPC   NC3 6071  32.255  36.117   9.453
 5216POPC   PO4 6072  32.244  36.124   9.153
 5216POPC   GL1 6073  32.250  36.080   8.853
 5216POPC   GL2 6074  32.127  36.137   8.853
 5216POPC   C1A 6075  32.279  36.112   8.553
 5216POPC   D2A 6076  32.273  36.147   8.253
 5216POPC   C3A 6077  32.258  36.109   7.953
 5216POPC   C4A 6078  32.272  36.091   7.653
 5216POPC   C1B 6079  31.993  36.126   8.553
 5216POPC   C2B 6080  32.041  36.093   8.253
 5216POPC   C3B 6081  31.987  36.151   7.953
 5216POPC   C4B 6082  31.968  36.067   7.653
 5217POPC   NC3 6083  11.305  16.781   9.453
 5217POPC   PO4 6084  11.274  16.720   9.153
 5217POPC   GL1 6085  11.304  16.760   8.853
 5217POPC   GL2 6086  11.334  16.898   8.853
 5217POPC   C1A 6087  11.337  16.766   8.553
 5217POPC   D2A 6088  11.282  16.778   8.253
 5217POPC   C3A 6089  11.322  16.781   7.953
 5217POPC   C4A 6090  11.294  16.682   7.653
 5217POPC   C1B 6091  11.320  16.974   8.553
 5217POPC   C2B 6092  11.383  16.998   8.253
 5217POPC   C3B 6093  11.341  16.937   7.953
 5217POPC   C4B 6094  11.411  16.934   7.653
 5218POPC   NC3 6095   9.015  30.706   9.453
 5218POPC   PO4 6096   8.969  30.676   9.153
 5218POPC   GL1 6097   8.928  30.662   8.853
 5218POPC   GL2 6098   8.991  30.793   8.853
 5218POPC   C1A 6099   8.958  30.704   8.553
 5218POPC   D2A 6100   8.980  30.712   8.253
 5218POPC   C3A 6101   8.943  30.712   7.953
 5218POPC   C4A 6102   9.009  30.685   7.653
 5218POPC   C1B 6103   8.905  30.991   8.553
 5218POPC   C2B 6104   8.895  30.950   8.253
 5218POPC   C3B 6105   8.910  30.957   7.953
 5218POPC   C4B 6106   8.909  30.970   7.653
 5219POPC   NC3 6107  27.620  23.737   9.453
 5219POPC   PO4 6108  27.545  23.734   9.153
 5219POPC   GL1 6109  27.587  23.682   8.853
 5219POPC   GL2 6110  27.590  23.838   8.853
 5219POPC   C1A 6111  27.632  23.721   8.553
 5219POPC   D2A 6112  27.591  23.707   8.253
 5219POPC   C3A 6113  27.633  23.699   7.953
 5219POPC   C4A 6114  27.598  23.761   7.653
 5219POPC   C1B 6115  27.628  23.999   8.553
 5219POPC   C2B 6116  27.621  23.966   8.253
 5219POPC   C3B 6117  27.623  24.012   7.953
 5219POPC   C4B 6118  27.579  23.915   7.653
 5220POPC   NC3 6119  36.894  36.135   9.453
 5220POPC   PO4 6120  36.863  36.089   9.153
 5220POPC   GL1 6121  36.948  36.132   8.853
 5220POPC   GL2 6122  36.931  36.235   8.853
 5220POPC   C1A 6123  36.872  36.089   8.553
 5220POPC   D2A 6124  36.879  36.086   8.253
 5220POPC   C3A 6125  36.945  36.105   7.953
 5220POPC   C4A 6126  36.928  36.104   7.653
 5220POPC   C1B 6127  37.065  36.354   8.553
 5220POPC   C2B 6128  37.062  36.371   8.253
 5220POPC   C3B 6129  37.011  36.300   7.953
 5220POPC   C4B 6130  36.995  36.382   7.653
 5221POPC   NC3 6131   2.748  15.195   9.453
 5221POPC   PO4 6132   2.772  15.220   9.153
 5221POPC   GL1 6133   2.753  15.132   8.853
 5221POPC   GL2 6134   2.818  15.314   8.853
 5221POPC   C1A 6135   2.770  15.171   8.553
 5221POPC   D2A 6136   2.786  15.146   8.253
 5221POPC   C3A 6137   2.723  15.223   7.953
 5221POPC   C4A 6138   2.809  15.182   7.653
 5221POPC   C1B 6139   2.802  15.432   8.553
 5221POPC   C2B 6140   2.751  15.453   8.253
 5221POPC   C3B 6141   2.813  15.385   7.953
 5221POPC   C4B 6142   2.801  15.444   7.653
 5222POPC   NC3 6143   2.727  19.069   9.453
 5222POPC   PO4 6144   2.716  19.045   9.153
 5222POPC   GL1 6145   2.794  19.026   8.853
 5222POPC   GL2 6146   2.734  18.970   8.853
 5222POPC   C1A 6147   2.718  19.056   8.553
 5222POPC   D2A 6148   2.795  19.043   8.253
 5222POPC   C3A 6149   2.733  19.053   7.953
 5222POPC   C4A 6150   2.777  19.063   7.653
 5222POPC   C1B 6151   2.729  18.760   8.553
 5222POPC   C2B 6152   2.802  18.775   8.253
 5222POPC   C3B 6153   2.742  18.853   7.953
 5222POPC   C4B 6154   2.714  18.775   7.653
 5223POPC   NC3 6155  33.038  38.407   9.453
 5223POPC   PO4 6156  33.069  38.476   9.153
 5223POPC   GL1 6157  33.026  38.443   8.853
 5223POPC   GL2 6158  32.953  38.576   8.853
 5223POPC   C1A 6159  32.995  38.487   8.553
 5223POPC   D2A 6160  33.024  38.407   8.253
 5223POPC   C3A 6161  32.985  38.412   7.953
 5223POPC   C4A 6162  33.033  38.482   7.653
 5223POPC   C1B 6163  32.919  38.698   8.553
 5223POPC   C2B 6164  32.937  38.634   8.253
 5223POPC   C3B 6165  32.876  38.638   7.953
 5223POPC   C4B 6166  32.916  38.666   7.653
 5224POPC   NC3 6167  21.346  40.788   9.453
 5224POPC   PO4 6168  21.341  40.749   9.153
 5224POPC   GL1 6169  21.380  40.810   8.853
 5224POPC   GL2 6170  21.471  40.756   8.853
 5224POPC   C1A 6171  21.347  40.778   8.553
 5224POPC   D2A 6172  21.362  40.814   8.253
 5224POPC   C3A 6173  21.341  40.818   7.953
 5224POPC   C4A 6174  21.342  40.821   7.653
 5224POPC   C1B 6175  21.587  40.725   8.553
 5224POPC   C2B 6176  21.590  40.783   8.253
 5224POPC   C3B 6177  21.613  40.738   7.953
 5224POPC   C4B 6178  21.658  40.763   7.653
 5225POPC   NC3 6179   1.260   7.440   9.453
 5225POPC   PO4 6180   1.250   7.389   9.153
 5225POPC   GL1 6181   1.242   7.388   8.853
 5225POPC   GL2 6182   1.121   7.472   8.853
 5225POPC   C1A 6183   1.218   7.457   8.553
 5225POPC   D2A 6184   1.178   7.412   8.253
 5225POPC   C3A 6185   1.186   7.453   7.953
 5225POPC   C4A 6186   1.168   7.467   7.653
 5225POPC   C1B 6187   0.948   7.431   8.553
 5225POPC   C2B 6188   0.946   7.410   8.253
 5225POPC   C3B 6189   0.998   7.467   7.953
 5225POPC   C4B 6190   0.994   7.406   7.653
 5226POPC   NC3 6191  39.222  26.768   9.453
 5226POPC   PO4 6192  39.254  26.795   9.153
 5226POPC   GL1 6193  39.261  26.797   8.853
 5226POPC   GL2 6194  39.219  26.972   8.853
 5226POPC   C1A 6195  39.183  26.792   8.553
 5226POPC   D2A 6196  39.182  26.808   8.253
 5226POPC   C3A 6197  39.254  26.784   7.953
 5226POPC   C4A 6198  39.279  26.831   7.653
 5226POPC   C1B 6199  39.140  27.093   8.553
 5226POPC   C2B 6200  39.171  27.047   8.253
 5226POPC   C3B 6201  39.161  27.056   7.953
 5226POPC   C4B 6202  39.177  27.057   7.653
 5227POPC   NC3 6203  33.821  37.716   9.453
 5227POPC   PO4 6204  33.813  37.689   9.153
 5227POPC   GL1 6205  33.796  37.682   8.853
 5227POPC   GL2 6206  33.914  37.771   8.853
 5227POPC   C1A 6207  33.816  37.678   8.553
 5227POPC   D2A 6208  33.784  37.668   8.253
 5227POPC   C3A 6209  33.837  37.714   7.953
 5227POPC   C4A 6210  33.821  37.668   7.653
 5227POPC   C1B 6211  33.942  37.824   8.553
 5227POPC   C2B 6212  33.996  37.863   8.253
 5227POPC   C3B 6213  33.983  37.880   7.953
 5227POPC   C4B 6214  33.932  37.830   7.653
 5228POPC   NC3 6215  11.325   5.113   9.453
 5228POPC   PO4 6216  11.254   5.069   9.153
 5228POPC   GL1 6217  11.330   5.077   8.853
 5228POPC   GL2 6218  11.410   5.183   8.853
 5228POPC   C1A 6219  11.334   5.111   8.553
 5228POPC   D2A 6220  11.259   5.115   8.253
 5228POPC   C3A 6221  11.265   5.044   7.953
 5228POPC   C4A 6222  11.272   5.128   7.653
 5228POPC   C1B 6223  11.534   5.273   8.553
 5228POPC   C2B 6224  11.497   5.219   8.253
 5228POPC   C3B 6225  11.475   5.225   7.953
 5228POPC   C4B 6226  11.539   5.245   7.653
 5229POPC   NC3 6227   3.563  40.765   9.453
 5229POPC   PO4 6228   3.521  40.759   9.153
 5229POPC   GL1 6229   3.515  40.796   8.853
 5229POPC   GL2 6230   3.536  40.916   8.853
 5229POPC   C1A 6231   3.498  40.755   8.553
 5229POPC   D2A 6232   3.499  40.823   8.253
 5229POPC   C3A 6233   3.516  40.752   7.953
 5229POPC   C4A 6234   3.555  40.734   7.653
 5229POPC   C1B 6235   3.485  41.000   8.553
 5229POPC   C2B 6236   3.509  41.072   8.253
 5229POPC   C3B 6237   3.542  41.031   7.953
 5229POPC   C4B 6238   3.508  41.019   7.653
 5230POPC   NC3 6239  11.319  38.420   9.453
 5230POPC   PO4 6240  11.274  38.498   9.153
 5230POPC   GL1 6241  11.347  38.432   8.853
 5230POPC   GL2 6242  11.205  38.573   8.853
 5230POPC   C1A 6243  11.305  38.497   8.553
 5230POPC   D2A 6244  11.319  38.453   8.253
 5230POPC   C3A 6245  11.343  38.497   7.953
 5230POPC   C4A 6246  11.338  38.448   7.653
 5230POPC   C1B 6247  11.148  38.669   8.553
 5230POPC   C2B 6248  11.179  38.636   8.253
 5230POPC   C3B 6249  11.180  38.625   7.953
 5230POPC   C4B 6250  11.133  38.669   7.653
 5231POPC   NC3 6251   4.268  26.855   9.453
 5231POPC   PO4 6252   4.295  26.831   9.153
 5231POPC   GL1 6253   4.353  26.784   8.853
 5231POPC   GL2 6254   4.373  26.898   8.853
 5231POPC   C1A 6255   4.332  26.852   8.553
 5231POPC   D2A 6256   4.363  26.769   8.253
 5231POPC   C3A 6257   4.314  26.862   7.953
 5231POPC   C4A 6258   4.328  26.804   7.653
 5231POPC   C1B 6259   4.341  27.103   8.553
 5231POPC   C2B 6260   4.409  27.020   8.253
 5231POPC   C3B 6261   4.343  27.056   7.953
 5231POPC   C4B 6262   4.335  27.057   7.653
 5232POPC   NC3 6263  22.988  38.451   9.453
 5232POPC   PO4 6264  22.926  38.421   9.153
 5232POPC   GL1 6265  22.956  38.482   8.853
 5232POPC   GL2 6266  22.776  38.395   8.853
 5232POPC   C1A 6267  22.910  38.498   8.553
 5232POPC   D2A 6268  22.916  38.489   8.253
 5232POPC   C3A 6269  22.891  38.486   7.953
 5232POPC   C4A 6270  22.893  38.495   7.653
 5232POPC   C1B 6271  22.672  38.398   8.553
 5232POPC   C2B 6272  22.663  38.362   8.253
 5232POPC   C3B 6273  22.706  38.401   7.953
 5232POPC   C4B 6274  22.662  38.377   7.653
 5233POPC   NC3 6275  13.603  14.436   9.453
 5233POPC   PO4 6276  13.628  14.445   9.153
 5233POPC   GL1 6277  13.646  14.447   8.853
 5233POPC   GL2 6278  13.560  14.245   8.853
 5233POPC   C1A 6279  13.603  14.371   8.553
 5233POPC   D2A 6280  13.670  14.371   8.253
 5233POPC   C3A 6281  13.595  14.416   7.953
 5233POPC   C4A 6282  13.612  14.437   7.653
 5233POPC   C1B 6283  13.572  14.182   8.553
 5233POPC   C2B 6284  13.545  14.173   8.253
 5233POPC   C3B 6285  13.538  14.149   7.953
 5233POPC   C4B 6286  13.557  14.152   7.653
 5234POPC   NC3 6287   8.229  43.106   9.453
 5234POPC   PO4 6288   8.159  43.125   9.153
 5234POPC   GL1 6289   8.211  43.150   8.853
 5234POPC   GL2 6290   8.298  43.152   8.853
 5234POPC   C1A 6291   8.243  43.156   8.553
 5234POPC   D2A 6292   8.241  43.143   8.253
 5234POPC   C3A 6293   8.168  43.107   7.953
 5234POPC   C4A 6294   8.171  43.105   7.653
 5234POPC   C1B 6295   8.406  43.118   8.553
 5234POPC   C2B 6296   8.423  43.074   8.253
 5234POPC   C3B 6297   8.489  43.071   7.953
 5234POPC   C4B 6298   8.403  43.125   7.653
 5235POPC   NC3 6299  11.290   4.284   9.453
 5235POPC   PO4 6300  11.279   4.365   9.153
 5235POPC   GL1 6301  11.289   4.300   8.853
 5235POPC   GL2 6302  11.406   4.351   8.853
 5235POPC   C1A 6303  11.251   4.284   8.553
 5235POPC   D2A 6304  11.298   4.310   8.253
 5235POPC   C3A 6305  11.321   4.330   7.953
 5235POPC   C4A 6306  11.306   4.292   7.653
 5235POPC   C1B 6307  11.546   4.346   8.553
 5235POPC   C2B 6308  11.527   4.297   8.253
 5235POPC   C3B 6309  11.551   4.356   7.953
 5235POPC   C4B 6310  11.525   4.377   7.653
 5236POPC   NC3 6311  20.597  29.947   9.453
 5236POPC   PO4 6312  20.578  29.881   9.153
 5236POPC   GL1 6313  20.561  29.926   8.853
 5236POPC   GL2 6314  20.492  29.883   8.853
 5236POPC   C1A 6315  20.597  29.919   8.553
 5236POPC   D2A 6316  20.617  29.901   8.253
 5236POPC   C3A 6317  20.566  29.923   7.953
 5236POPC   C4A 6318  20.632  29.892   7.653
 5236POPC   C1B 6319  20.337  29.894   8.553
 5236POPC   C2B 6320  20.347  29.877   8.253
 5236POPC   C3B 6321  20.379  29.843   7.953
 5236POPC   C4B 6322  20.341  29.921   7.653
 5237POPC   NC3 6323   0.411  10.492   9.453
 5237POPC   PO4 6324   0.443  10.516   9.153
 5237POPC   GL1 6325   0.453  10.572   8.853
 5237POPC   GL2 6326   0.580  10.621   8.853
 5237POPC   C1A 6327   0.441  10.545   8.553
 5237POPC   D2A 6328   0.395  10.573   8.253
 5237POPC   C3A 6329   0.451  10.567   7.953
 5237POPC   C4A 6330   0.453  10.571   7.653
 5237POPC   C1B 6331   0.669  10.599   8.553
 5237POPC   C2B 6332   0.683  10.664   8.253
 5237POPC   C3B 6333   0.620  10.631   7.953
 5237POPC   C4B 6334   0.701  10.591   7.653
 5238POPC   NC3 6335  13.636  32.231   9.453
 5238POPC   PO4 6336  13.637  32.207   9.153
 5238POPC   GL1 6337  13.632  32.227   8.853
 5238POPC   GL2 6338  13.466  32.234   8.853
 5238POPC   C1A 6339  13.587  32.296   8.553
 5238POPC   D2A 6340  13.608  32.215   8.253
 5238POPC   C3A 6341  13.582  32.239   7.953
 5238POPC   C4A 6342  13.628  32.235   7.653
 5238POPC   C1B 6343  13.423  32.268   8.553
 5238POPC   C2B 6344  13.415  32.193   8.253
 5238POPC   C3B 6345  13.349  32.246   7.953
 5238POPC   C4B 6346  13.389  32.244   7.653
 5239POPC   NC3 6347  30.670  44.685   9.453
 5239POPC   PO4 6348  30.694  44.680   9.153
 5239POPC   GL1 6349  30.705  44.678   8.853
 5239POPC   GL2 6350  30.618  44.676   8.853
 5239POPC   C1A 6351  30.683  44.705   8.553
 5239POPC   D2A 6352  30.669  44.707   8.253
 5239POPC   C3A 6353  30.710  44.637   7.953
 5239POPC   C4A 6354  30.677  44.644   7.653
 5239POPC   C1B 6355  30.425  44.719   8.553
 5239POPC   C2B 6356  30.408  44.632   8.253
 5239POPC   C3B 6357  30.398  44.708   7.953
 5239POPC   C4B 6358  30.472  44.722   7.653
 5240POPC   NC3 6359  43.936  36.089   9.453
 5240POPC   PO4 6360  43.850  36.114   9.153
 5240POPC   GL1 6361  43.928  36.151   8.853
 5240POPC   GL2 6362  43.776  36.123   8.853
 5240POPC   C1A 6363  43.866  36.114   8.553
 5240POPC   D2A 6364  43.850  36.102   8.253
 5240POPC   C3A 6365  43.892  36.101   7.953
 5240POPC   C4A 6366  43.921  36.167   7.653
 5240POPC   C1B 6367  43.634  36.145   8.553
 5240POPC   C2B 6368  43.634  36.154   8.253
 5240POPC   C3B 6369  43.589  36.117   7.953
 5240POPC   C4B 6370  43.634  36.083   7.653
 5241POPC   NC3 6371  37.683  33.772   9.453
 5241POPC   PO4 6372  37.649  33.776   9.153
 5241POPC   GL1 6373  37.687  33.777   8.853
 5241POPC   GL2 6374  37.628  33.656   8.853
 5241POPC   C1A 6375  37.632  33.822   8.553
 5241POPC   D2A 6376  37.632  33.844   8.253
 5241POPC   C3A 6377  37.671  33.833   7.953
 5241POPC   C4A 6378  37.670  33.771   7.653
 5241POPC   C1B 6379  37.633  33.556   8.553
 5241POPC   C2B 6380  37.622  33.516   8.253
 5241POPC   C3B 6381  37.627  33.535   7.953
 5241POPC   C4B 6382  37.564  33.556   7.653
 5242POPC   NC3 6383  36.886  23.708   9.453
 5242POPC   PO4 6384  36.884  23.695   9.153
 5242POPC   GL1 6385  36.942  23.722   8.853
 5242POPC   GL2 6386  36.818  23.715   8.853
 5242POPC   C1A 6387  36.890  23.724   8.553
 5242POPC   D2A 6388  36.898  23.729   8.253
 5242POPC   C3A 6389  36.856  23.685   7.953
 5242POPC   C4A 6390  36.890  23.689   7.653
 5242POPC   C1B 6391  36.647  23.691   8.553
 5242POPC   C2B 6392  36.702  23.687   8.253
 5242POPC   C3B 6393  36.645  23.711   7.953
 5242POPC   C4B 6394  36.642  23.667   7.653
 5243POPC   NC3 6395   2.762   5.142   9.453
 5243POPC   PO4 6396   2.812   5.065   9.153
 5243POPC   GL1 6397   2.744   5.136   8.853
 5243POPC   GL2 6398   2.877   5.016   8.853
 5243POPC   C1A 6399   2.717   5.087   8.553
 5243POPC   D2A 6400   2.807   5.046   8.253
 5243POPC   C3A 6401   2.797   5.049   7.953
 5243POPC   C4A 6402   2.769   5.080   7.653
 5243POPC   C1B 6403   3.011   4.966   8.553
 5243POPC   C2B 6404   3.014   4.923   8.253
 5243POPC   C3B 6405   2.923   4.965   7.953
 5243POPC   C4B 6406   2.994   4.950   7.653
 5244POPC   NC3 6407  11.339  24.513   9.453
 5244POPC   PO4 6408  11.298  24.505   9.153
 5244POPC   GL1 6409  11.288  24.482   8.853
 5244POPC   GL2 6410  11.330  24.377   8.853
 5244POPC   C1A 6411  11.274  24.469   8.553
 5244POPC   D2A 6412  11.286  24.446   8.253
 5244POPC   C3A 6413  11.319  24.446   7.953
 5244POPC   C4A 6414  11.278  24.508   7.653
 5244POPC   C1B 6415  11.242  24.219   8.553
 5244POPC   C2B 6416  11.282  24.245   8.253
 5244POPC   C3B 6417  11.242  24.286   7.953
 5244POPC   C4B 6418  11.250  24.291   7.653
 5245POPC   NC3 6419  25.224  22.954   9.453
 5245POPC   PO4 6420  25.299  22.900   9.153
 5245POPC   GL1 6421  25.268  22.947   8.853
 5245POPC   GL2 6422  25.208  23.042   8.853
 5245POPC   C1A 6423  25.216  22.918   8.553
 5245POPC   D2A 6424  25.298  22.898   8.253
 5245POPC   C3A 6425  25.226  22.979   7.953
 5245POPC   C4A 6426  25.263  22.965   7.653
 5245POPC   C1B 6427  25.042  23.101   8.553
 5245POPC   C2B 6428  25.020  23.076   8.253
 5245POPC   C3B 6429  25.039  23.046   7.953
 5245POPC   C4B 6430  25.041  23.075   7.653
 5246POPC   NC3 6431  36.895  26.075   9.453
 5246POPC   PO4 6432  36.943  26.039   9.153
 5246POPC   GL1 6433  36.904  26.078   8.853
 5246POPC   GL2 6434  36.854  26.197   8.853
 5246POPC   C1A 6435  36.904  26.049   8.553
 5246POPC   D2A 6436  36.854  26.074   8.253
 5246POPC   C3A 6437  36.892  26.085   7.953
 5246POPC   C4A 6438  36.863  26.047   7.653
 5246POPC   C1B 6439  36.769  26.310   8.553
 5246POPC   C2B 6440  36.814  26.257   8.253
 5246POPC   C3B 6441  36.765  26.310   7.953
 5246POPC   C4B 6442  36.753  26.292   7.653
 5247POPC   NC3 6443   1.201  13.632   9.453
 5247POPC   PO4 6444   1.239  13.630   9.153
 5247POPC   GL1 6445   1.184  13.627   8.853
 5247POPC   GL2 6446   1.189  13.456   8.853
 5247POPC   C1A 6447   1.247  13.618   8.553
 5247POPC   D2A 6448   1.196  13.636   8.253
 5247POPC   C3A 6449   1.185  13.604   7.953
 5247POPC   C4A 6450   1.263  13.619   7.653
 5247POPC   C1B 6451   1.143  13.408   8.553
 5247POPC   C2B 6452   1.234  13.412   8.253
 5247POPC   C3B 6453   1.178  13.399   7.953
 5247POPC   C4B 6454   1.174  13.356   7.653
 5248POPC   NC3 6455  24.461   2.032   9.453
 5248POPC   PO4 6456  24.534   1.950   9.153
 5248POPC   GL1 6457  24.528   1.985   8.853
 5248POPC   GL2 6458  24.585   2.074   8.853
 5248POPC   C1A 6459  24.465   2.022   8.553
 5248POPC   D2A 6460  24.533   2.006   8.253
 5248POPC   C3A 6461  24.502   1.975   7.953
 5248POPC   C4A 6462  24.492   2.021   7.653
 5248POPC   C1B 6463  24.719   2.143   8.553
 5248POPC   C2B 6464  24.675   2.135   8.253
 5248POPC   C3B 6465  24.702   2.182   7.953
 5248POPC   C4B 6466  24.673   2.177   7.653
 5249POPC   NC3 6467  26.040  36.942   9.453
 5249POPC   PO4 6468  26.000  36.897   9.153
 5249POPC   GL1 6469  26.018  36.930   8.853
 5249POPC   GL2 6470  25.996  36.974   8.853
 5249POPC   C1A 6471  26.023  36.916   8.553
 5249POPC   D2A 6472  26.011  36.938   8.253
 5249POPC   C3A 6473  26.058  36.940   7.953
 5249POPC   C4A 6474  25.993  36.895   7.653
 5249POPC   C1B 6475  25.905  37.089   8.553
 5249POPC   C2B 6476  25.832  37.074   8.253
 5249POPC   C3B 6477  25.834  37.104   7.953
 5249POPC   C4B 6478  25.847  37.074   7.653
 5250POPC   NC3 6479  36.170   8.205   9.453
 5250POPC   PO4 6480  36.120   8.241   9.153
 5250POPC   GL1 6481  36.143   8.188   8.853
 5250POPC   GL2 6482  36.026   8.244   8.853
 5250POPC   C1A 6483  36.091   8.246   8.553
 5250POPC   D2A 6484  36.155   8.203   8.253
 5250POPC   C3A 6485  36.122   8.194   7.953
 5250POPC   C4A 6486  36.090   8.225   7.653
 5250POPC   C1B 6487  35.884   8.290   8.553
 5250POPC   C2B 6488  35.891   8.276   8.253
 5250POPC   C3B 6489  35.909   8.344   7.953
 5250POPC   C4B 6490  35.903   8.292   7.653
 5251POPC   NC3 6491  14.451  10.542   9.453
 5251POPC   PO4 6492  14.372  10.571   9.153
 5251POPC   GL1 6493  14.359  10.485   8.853
 5251POPC   GL2 6494  14.541  10.510   8.853
 5251POPC   C1A 6495  14.407  10.565   8.553
 5251POPC   D2A 6496  14.365  10.505   8.253
 5251POPC   C3A 6497  14.406  10.572   7.953
 5251POPC   C4A 6498  14.407  10.492   7.653
 5251POPC   C1B 6499  14.669  10.503   8.553
 5251POPC   C2B 6500  14.657  10.529   8.253
 5251POPC   C3B 6501  14.640  10.510   7.953
 5251POPC   C4B 6502  14.678  10.468   7.653
 5252POPC   NC3 6503  12.040  35.343   9.453
 5252POPC   PO4 6504  12.084  35.323   9.153
 5252POPC   GL1 6505  12.101  35.323   8.853
 5252POPC   GL2 6506  11.957  35.332   8.853
 5252POPC   C1A 6507  12.118  35.370   8.553
 5252POPC   D2A 6508  12.056  35.328   8.253
 5252POPC   C3A 6509  12.030  35.400   7.953
 5252POPC   C4A 6510  12.106  35.368   7.653
 5252POPC   C1B 6511  11.800  35.302   8.553
 5252POPC   C2B 6512  11.806  35.299   8.253
 5252POPC   C3B 6513  11.799  35.357   7.953
 5252POPC   C4B 6514  11.843  35.319   7.653
 5253POPC   NC3 6515  26.091  27.548   9.453
 5253POPC   PO4 6516  26.079  27.609   9.153
 5253POPC   GL1 6517  26.009  27.548   8.853
 5253POPC   GL2 6518  26.177  27.663   8.853
 5253POPC   C1A 6519  26.007  27.620   8.553
 5253POPC   D2A 6520  26.075  27.555   8.253
 5253POPC   C3A 6521  26.026  27.588   7.953
 5253POPC   C4A 6522  26.081  27.635   7.653
 5253POPC   C1B 6523  26.165  27.785   8.553
 5253POPC   C2B 6524  26.262  27.762   8.253
 5253POPC   C3B 6525  26.200  27.735   7.953
 5253POPC   C4B 6526  26.191  27.809   7.653
 5254POPC   NC3 6527   2.811  25.263   9.453
 5254POPC   PO4 6528   2.808  25.242   9.153
 5254POPC   GL1 6529   2.811  25.238   8.853
 5254POPC   GL2 6530   2.628  25.256   8.853
 5254POPC   C1A 6531   2.763  25.310   8.553
 5254POPC   D2A 6532   2.734  25.292   8.253
 5254POPC   C3A 6533   2.769  25.220   7.953
 5254POPC   C4A 6534   2.776  25.293   7.653
 5254POPC   C1B 6535   2.545  25.244   8.553
 5254POPC   C2B 6536   2.495  25.268   8.253
 5254POPC   C3B 6537   2.555  25.193   7.953
 5254POPC   C4B 6538   2.554  25.248   7.653
 5255POPC   NC3 6539  15.154  36.919   9.453
 5255POPC   PO4 6540  15.191  36.856   9.153
 5255POPC   GL1 6541  15.172  36.902   8.853
 5255POPC   GL2 6542  15.071  37.009   8.853
 5255POPC   C1A 6543  15.160  36.884   8.553
 5255POPC   D2A 6544  15.204  36.912   8.253
 5255POPC   C3A 6545  15.176  36.931   7.953
 5255POPC   C4A 6546  15.133  36.943   7.653
 5255POPC   C1B 6547  15.107  37.082   8.553
 5255POPC   C2B 6548  15.035  37.081   8.253
 5255POPC   C3B 6549  15.102  37.154   7.953
 5255POPC   C4B 6550  15.049  37.081   7.653
 5256POPC   NC3 6551  29.933   1.999   9.453
 5256POPC   PO4 6552  29.915   2.030   9.153
 5256POPC   GL1 6553  29.892   1.957   8.853
 5256POPC   GL2 6554  29.916   2.142   8.853
 5256POPC   C1A 6555  29.884   1.994   8.553
 5256POPC   D2A 6556  29.877   2.011   8.253
 5256POPC   C3A 6557  29.957   1.963   7.953
 5256POPC   C4A 6558  29.922   1.994   7.653
 5256POPC   C1B 6559  29.917   2.240   8.553
 5256POPC   C2B 6560  29.915   2.233   8.253
 5256POPC   C3B 6561  29.906   2.212   7.953
 5256POPC   C4B 6562  29.865   2.281   7.653
 5257POPC   NC3 6563  35.399  25.302   9.453
 5257POPC   PO4 6564  35.318  25.308   9.153
 5257POPC   GL1 6565  35.309  25.302   8.853
 5257POPC   GL2 6566  35.233  25.258   8.853
 5257POPC   C1A 6567  35.400  25.258   8.553
 5257POPC   D2A 6568  35.305  25.236   8.253
 5257POPC   C3A 6569  35.319  25.235   7.953
 5257POPC   C4A 6570  35.399  25.275   7.653
 5257POPC   C1B 6571  35.132  25.324   8.553
 5257POPC   C2B 6572  35.107  25.319   8.253
 5257POPC   C3B 6573  35.081  25.319   7.953
 5257POPC   C4B 6574  35.070  25.264   7.653
 5258POPC   NC3 6575  19.852  33.071   9.453
 5258POPC   PO4 6576  19.789  33.040   9.153
 5258POPC   GL1 6577  19.810  33.071   8.853
 5258POPC   GL2 6578  19.825  33.180   8.853
 5258POPC   C1A 6579  19.803  33.027   8.553
 5258POPC   D2A 6580  19.865  33.066   8.253
 5258POPC   C3A 6581  19.836  33.038   7.953
 5258POPC   C4A 6582  19.834  33.040   7.653
 5258POPC   C1B 6583  19.852  33.266   8.553
 5258POPC   C2B 6584  19.890  33.267   8.253
 5258POPC   C3B 6585  19.851  33.276   7.953
 5258POPC   C4B 6586  19.883  33.228   7.653
 5259POPC   NC3 6587  27.603  39.182   9.453
 5259POPC   PO4 6588  27.558  39.242   9.153
 5259POPC   GL1 6589  27.604  39.209   8.853
 5259POPC   GL2 6590  27.588  39.123   8.853
 5259POPC   C1A 6591  27.595  39.205   8.553
 5259POPC   D2A 6592  27.575  39.268   8.253
 5259POPC   C3A 6593  27.635  39.268   7.953
 5259POPC   C4A 6594  27.586  39.201   7.653
 5259POPC   C1B 6595  27.621  39.024   8.553
 5259POPC   C2B 6596  27.612  38.940   8.253
 5259POPC   C3B 6597  27.617  38.984   7.953
 5259POPC   C4B 6598  27.591  38.977   7.653
 5260POPC   NC3 6599  39.278  29.180   9.453
 5260POPC   PO4 6600  39.213  29.121   9.153
 5260POPC   GL1 6601  39.281  29.169   8.853
 5260POPC   GL2 6602  39.074  29.151   8.853
 5260POPC   C1A 6603  39.216  29.127   8.553
 5260POPC   D2A 6604  39.186  29.109   8.253
 5260POPC   C3A 6605  39.185  29.156   7.953
 5260POPC   C4A 6606  39.244  29.143   7.653
 5260POPC   C1B 6607  38.986  29.087   8.553
 5260POPC   C2B 6608  38.944  29.059   8.253
 5260POPC   C3B 6609  38.969  29.088   7.953
 5260POPC   C4B 6610  38.980  29.057   7.653
 5261POPC   NC3 6611  31.516  33.033   9.453
 5261POPC   PO4 6612  31.443  33.049   9.153
 5261POPC   GL1 6613  31.516  33.026   8.853
 5261POPC   GL2 6614  31.377  32.957   8.853
 5261POPC   C1A 6615  31.491  33.067   8.553
 5261POPC   D2A 6616  31.501  33.062   8.253
 5261POPC   C3A 6617  31.447  33.043   7.953
 5261POPC   C4A 6618  31.426  33.025   7.653
 5261POPC   C1B 6619  31.273  32.922   8.553
 5261POPC   C2B 6620  31.276  32.870   8.253
 5261POPC   C3B 6621  31.288  32.851   7.953
 5261POPC   C4B 6622  31.264  32.909   7.653
 5262POPC   NC3 6623  14.418  26.085   9.453
 5262POPC   PO4 6624  14.379  26.050   9.153
 5262POPC   GL1 6625  14.437  26.015   8.853
 5262POPC   GL2 6626  14.533  26.071   8.853
 5262POPC   C1A 6627  14.376  26.023   8.553
 5262POPC   D2A 6628  14.372  26.074   8.253
 5262POPC   C3A 6629  14.449  26.086   7.953
 5262POPC   C4A 6630  14.360  26.002   7.653
 5262POPC   C1B 6631  14.606  26.096   8.553
 5262POPC   C2B 6632  14.612  26.043   8.253
 5262POPC   C3B 6633  14.650  26.065   7.953
 5262POPC   C4B 6634  14.650  26.092   7.653
 5263POPC   NC3 6635   1.976  24.513   9.453
 5263POPC   PO4 6636   2.026  24.472   9.153
 5263POPC   GL1 6637   2.035  24.509   8.853
 5263POPC   GL2 6638   2.039  24.400   8.853
 5263POPC   C1A 6639   2.013  24.475   8.553
 5263POPC   D2A 6640   1.954  24.529   8.253
 5263POPC   C3A 6641   1.942  24.523   7.953
 5263POPC   C4A 6642   2.003  24.528   7.653
 5263POPC   C1B 6643   2.116  24.241   8.553
 5263POPC   C2B 6644   2.137  24.253   8.253
 5263POPC   C3B 6645   2.159  24.236   7.953
 5263POPC   C4B 6646   2.165  24.272   7.653
 5264POPC   NC3 6647  26.069  38.411   9.453
 5264POPC   PO4 6648  26.042  38.498   9.153
 5264POPC   GL1 6649  26.043  38.504   8.853
 5264POPC   GL2 6650  26.069  38.282   8.853
 5264POPC   C1A 6651  26.066  38.448   8.553
 5264POPC   D2A 6652  26.040  38.435   8.253
 5264POPC   C3A 6653  26.035  38.406   7.953
 5264POPC   C4A 6654  26.074  38.416   7.653
 5264POPC   C1B 6655  25.983  38.235   8.553
 5264POPC   C2B 6656  26.025  38.244   8.253
 5264POPC   C3B 6657  25.991  38.168   7.953
 5264POPC   C4B 6658  26.049  38.249   7.653
 5265POPC   NC3 6659  36.154  10.488   9.453
 5265POPC   PO4 6660  36.161  10.479   9.153
 5265POPC   GL1 6661  36.102  10.530   8.853
 5265POPC   GL2 6662  36.205  10.435   8.853
 5265POPC   C1A 6663  36.172  10.555   8.553
 5265POPC   D2A 6664  36.139  10.480   8.253
 5265POPC   C3A 6665  36.140  10.508   7.953
 5265POPC   C4A 6666  36.122  10.551   7.653
 5265POPC   C1B 6667  36.347  10.435   8.553
 5265POPC   C2B 6668  36.353  10.360   8.253
 5265POPC   C3B 6669  36.328  10.403   7.953
 5265POPC   C4B 6670  36.293  10.362   7.653
 5266POPC   NC3 6671  26.771   2.787   9.453
 5266POPC   PO4 6672  26.857   2.799   9.153
 5266POPC   GL1 6673  26.804   2.797   8.853
 5266POPC   GL2 6674  26.830   2.869   8.853
 5266POPC   C1A 6675  26.786   2.791   8.553
 5266POPC   D2A 6676  26.805   2.718   8.253
 5266POPC   C3A 6677  26.842   2.727   7.953
 5266POPC   C4A 6678  26.847   2.731   7.653
 5266POPC   C1B 6679  26.767   2.988   8.553
 5266POPC   C2B 6680  26.748   3.035   8.253
 5266POPC   C3B 6681  26.818   3.012   7.953
 5266POPC   C4B 6682  26.840   3.021   7.653
 5267POPC   NC3 6683  23.745  40.748   9.453
 5267POPC   PO4 6684  23.716  40.829   9.153
 5267POPC   GL1 6685  23.712  40.811   8.853
 5267POPC   GL2 6686  23.593  40.724   8.853
 5267POPC   C1A 6687  23.733  40.808   8.553
 5267POPC   D2A 6688  23.684  40.831   8.253
 5267POPC   C3A 6689  23.756  40.742   7.953
 5267POPC   C4A 6690  23.721  40.763   7.653
 5267POPC   C1B 6691  23.589  40.596   8.553
 5267POPC   C2B 6692  23.581  40.595   8.253
 5267POPC   C3B 6693  23.568  40.563   7.953
 5267POPC   C4B 6694  23.592  40.562   7.653
 5268POPC   NC3 6695  44.681  40.799   9.453
 5268POPC   PO4 6696  44.652  40.767   9.153
 5268POPC   GL1 6697  44.649  40.756   8.853
 5268POPC   GL2 6698  44.519  40.748   8.853
 5268POPC   C1A 6699  44.638  40.807   8.553
 5268POPC   D2A 6700  44.638  40.752   8.253
 5268POPC   C3A 6701  44.627  40.814   7.953
 5268POPC   C4A 6702  44.708  40.809   7.653
 5268POPC   C1B 6703  44.404  40.738   8.553
 5268POPC   C2B 6704  44.409  40.775   8.253
 5268POPC   C3B 6705  44.419  40.793   7.953
 5268POPC   C4B 6706  44.432  40.719   7.653
 5269POPC   NC3 6707  19.821  22.918   9.453
 5269POPC   PO4 6708  19.807  22.954   9.153
 5269POPC   GL1 6709  19.813  22.945   8.853
 5269POPC   GL2 6710  19.706  22.909   8.853
 5269POPC   C1A 6711  19.874  22.953   8.553
 5269POPC   D2A 6712  19.840  22.911   8.253
 5269POPC   C3A 6713  19.814  22.905   7.953
 5269POPC   C4A 6714  19.860  22.899   7.653
 5269POPC   C1B 6715  19.548  22.920   8.553
 5269POPC   C2B 6716  19.608  22.885   8.253
 5269POPC   C3B 6717  19.549  22.888   7.953
 5269POPC   C4B 6718  19.580  22.873   7.653
 5270POPC   NC3 6719   1.200  29.918   9.453
 5270POPC   PO4 6720   1.227  29.945   9.153
 5270POPC   GL1 6721   1.217  29.951   8.853
 5270POPC   GL2 6722   1.320  29.922   8.853
 5270POPC   C1A 6723   1.230  29.963   8.553
 5270POPC   D2A 6724   1.246  29.871   8.253
 5270POPC   C3A 6725   1.213  29.912   7.953
 5270POPC   C4A 6726   1.210  29.922   7.653
 5270POPC   C1B 6727   1.441  29.827   8.553
 5270POPC   C2B 6728   1.495  29.893   8.253
 5270POPC   C3B 6729   1.459  29.847   7.953
 5270POPC   C4B 6730   1.497  29.863   7.653
 5271POPC   NC3 6731  24.508  38.503   9.453
 5271POPC   PO4 6732  24.472  38.411   9.153
 5271POPC   GL1 6733  24.513  38.452   8.853
 5271POPC   GL2 6734  24.592  38.557   8.853
 5271POPC   C1A 6735  24.474  38.420   8.553
 5271POPC   D2A 6736  24.464  38.481   8.253
 5271POPC   C3A 6737  24.481  38.483   7.953
 5271POPC   C4A 6738  24.481  38.454   7.653
 5271POPC   C1B 6739  24.636  38.691   8.553
 5271POPC   C2B 6740  24.574  38.642   8.253
 5271POPC   C3B 6741  24.643  38.699   7.953
 5271POPC   C4B 6742  24.633  38.705   7.653
 5272POPC   NC3 6743  33.816  29.111   9.453
 5272POPC   PO4 6744  33.844  29.143   9.153
 5272POPC   GL1 6745  33.752  29.098   8.853
 5272POPC   GL2 6746  33.793  28.982   8.853
 5272POPC   C1A 6747  33.830  29.153   8.553
 5272POPC   D2A 6748  33.818  29.138   8.253
 5272POPC   C3A 6749  33.829  29.154   7.953
 5272POPC   C4A 6750  33.841  29.186   7.653
 5272POPC   C1B 6751  33.697  28.921   8.553
 5272POPC   C2B 6752  33.694  28.944   8.253
 5272POPC   C3B 6753  33.706  28.917   7.953
 5272POPC   C4B 6754  33.674  28.949   7.653
 5273POPC   NC3 6755  32.277  44.632   9.453
 5273POPC   PO4 6756  32.227  44.636   9.153
 5273POPC   GL1 6757  32.223  44.695   8.853
 5273POPC   GL2 6758  32.207  44.569   8.853
 5273POPC   C1A 6759  32.223  44.655   8.553
 5273POPC   D2A 6760  32.219  44.687   8.253
 5273POPC   C3A 6761  32.270  44.680   7.953
 5273POPC   C4A 6762  32.293  44.702   7.653
 5273POPC   C1B 6763  32.179  44.440   8.553
 5273POPC   C2B 6764  32.201  44.418   8.253
 5273POPC   C3B 6765  32.180  44.415   7.953
 5273POPC   C4B 6766  32.218  44.450   7.653
 5274POPC   NC3 6767  11.288  18.240   9.453
 5274POPC   PO4 6768  11.269  18.290   9.153
 5274POPC   GL1 6769  11.273  18.261   8.853
 5274POPC   GL2 6770  11.287  18.358   8.853
 5274POPC   C1A 6771  11.301  18.272   8.553
 5274POPC   D2A 6772  11.270  18.249   8.253
 5274POPC   C3A 6773  11.325  18.257   7.953
 5274POPC   C4A 6774  11.298  18.238   7.653
 5274POPC   C1B 6775  11.215  18.524   8.553
 5274POPC   C2B 6776  11.259  18.501   8.253
 5274POPC   C3B 6777  11.239  18.560   7.953
 5274POPC   C4B 6778  11.183  18.555   7.653
 5275POPC   NC3 6779  29.900  15.996   9.453
 5275POPC   PO4 6780  29.871  15.932   9.153
 5275POPC   GL1 6781  29.906  15.914   8.853
 5275POPC   GL2 6782  29.800  16.033   8.853
 5275POPC   C1A 6783  29.916  15.994   8.553
 5275POPC   D2A 6784  29.881  15.908   8.253
 5275POPC   C3A 6785  29.893  15.951   7.953
 5275POPC   C4A 6786  29.943  15.944   7.653
 5275POPC   C1B 6787  29.737  16.106   8.553
 5275POPC   C2B 6788  29.690  16.157   8.253
 5275POPC   C3B 6789  29.749  16.120   7.953
 5275POPC   C4B 6790  29.761  16.083   7.653
 5276POPC   NC3 6791  14.415   8.246   9.453
 5276POPC   PO4 6792  14.358   8.180   9.153
 5276POPC   GL1 6793  14.379   8.217   8.853
 5276POPC   GL2 6794  14.476   8.286   8.853
 5276POPC   C1A 6795  14.444   8.209   8.553
 5276POPC   D2A 6796  14.365   8.201   8.253
 5276POPC   C3A 6797  14.426   8.170   7.953
 5276POPC   C4A 6798  14.405   8.213   7.653
 5276POPC   C1B 6799  14.505   8.462   8.553
 5276POPC   C2B 6800  14.539   8.397   8.253
 5276POPC   C3B 6801  14.493   8.417   7.953
 5276POPC   C4B 6802  14.485   8.378   7.653
 5277POPC   NC3 6803  36.100   1.963   9.453
 5277POPC   PO4 6804  36.092   1.981   9.153
 5277POPC   GL1 6805  36.144   2.003   8.853
 5277POPC   GL2 6806  36.262   2.054   8.853
 5277POPC   C1A 6807  36.170   2.037   8.553
 5277POPC   D2A 6808  36.080   1.972   8.253
 5277POPC   C3A 6809  36.171   1.986   7.953
 5277POPC   C4A 6810  36.130   2.002   7.653
 5277POPC   C1B 6811  36.357   2.186   8.553
 5277POPC   C2B 6812  36.357   2.190   8.253
 5277POPC   C3B 6813  36.364   2.152   7.953
 5277POPC   C4B 6814  36.301   2.160   7.653
 5278POPC   NC3 6815  28.372   6.672   9.453
 5278POPC   PO4 6816  28.354   6.625   9.153
 5278POPC   GL1 6817  28.371   6.674   8.853
 5278POPC   GL2 6818  28.329   6.809   8.853
 5278POPC   C1A 6819  28.357   6.628   8.553
 5278POPC   D2A 6820  28.341   6.632   8.253
 5278POPC   C3A 6821  28.356   6.658   7.953
 5278POPC   C4A 6822  28.325   6.674   7.653
 5278POPC   C1B 6823  28.313   6.850   8.553
 5278POPC   C2B 6824  28.325   6.905   8.253
 5278POPC   C3B 6825  28.268   6.863   7.953
 5278POPC   C4B 6826  28.291   6.841   7.653
 5279POPC   NC3 6827  41.556  28.332   9.453
 5279POPC   PO4 6828  41.531  28.368   9.153
 5279POPC   GL1 6829  41.570  28.364   8.853
 5279POPC   GL2 6830  41.462  28.450   8.853
 5279POPC   C1A 6831  41.585  28.368   8.553
 5279POPC   D2A 6832  41.540  28.394   8.253
 5279POPC   C3A 6833  41.544  28.419   7.953
 5279POPC   C4A 6834  41.516  28.344   7.653
 5279POPC   C1B 6835  41.361  28.442   8.553
 5279POPC   C2B 6836  41.294  28.392   8.253
 5279POPC   C3B 6837  41.274  28.480   7.953
 5279POPC   C4B 6838  41.322  28.415   7.653
 5280POPC   NC3 6839  15.975   3.590   9.453
 5280POPC   PO4 6840  15.953   3.558   9.153
 5280POPC   GL1 6841  15.963   3.568   8.853
 5280POPC   GL2 6842  16.038   3.474   8.853
 5280POPC   C1A 6843  15.957   3.514   8.553
 5280POPC   D2A 6844  16.003   3.526   8.253
 5280POPC   C3A 6845  15.921   3.585   7.953
 5280POPC   C4A 6846  15.945   3.532   7.653
 5280POPC   C1B 6847  16.119   3.335   8.553
 5280POPC   C2B 6848  16.043   3.289   8.253
 5280POPC   C3B 6849  16.105   3.350   7.953
 5280POPC   C4B 6850  16.066   3.286   7.653
 5281POPC   NC3 6851   9.735  42.347   9.453
 5281POPC   PO4 6852   9.742  42.379   9.153
 5281POPC   GL1 6853   9.728  42.362   8.853
 5281POPC   GL2 6854   9.623  42.314   8.853
 5281POPC   C1A 6855   9.759  42.285   8.553
 5281POPC   D2A 6856   9.730  42.378   8.253
 5281POPC   C3A 6857   9.711  42.308   7.953
 5281POPC   C4A 6858   9.764  42.319   7.653
 5281POPC   C1B 6859   9.542  42.233   8.553
 5281POPC   C2B 6860   9.563  42.236   8.253
 5281POPC   C3B 6861   9.559  42.188   7.953
 5281POPC   C4B 6862   9.507  42.200   7.653
 5282POPC   NC3 6863   2.018  12.872   9.453
 5282POPC   PO4 6864   1.945  12.879   9.153
 5282POPC   GL1 6865   2.008  12.864   8.853
 5282POPC   GL2 6866   2.108  12.803   8.853
 5282POPC   C1A 6867   1.947  12.802   8.553
 5282POPC   D2A 6868   1.980  12.891   8.253
 5282POPC   C3A 6869   1.963  12.831   7.953
 5282POPC   C4A 6870   2.030  12.846   7.653
 5282POPC   C1B 6871   2.136  12.681   8.553
 5282POPC   C2B 6872   2.185  12.696   8.253
 5282POPC   C3B 6873   2.102  12.685   7.953
 5282POPC   C4B 6874   2.184  12.654   7.653
 5283POPC   NC3 6875  33.786  22.120   9.453
 5283POPC   PO4 6876  33.810  22.136   9.153
 5283POPC   GL1 6877  33.754  22.160   8.853
 5283POPC   GL2 6878  33.897  22.048   8.853
 5283POPC   C1A 6879  33.752  22.197   8.553
 5283POPC   D2A 6880  33.782  22.208   8.253
 5283POPC   C3A 6881  33.843  22.127   7.953
 5283POPC   C4A 6882  33.771  22.204   7.653
 5283POPC   C1B 6883  34.014  21.990   8.553
 5283POPC   C2B 6884  33.991  21.985   8.253
 5283POPC   C3B 6885  34.029  22.016   7.953
 5283POPC   C4B 6886  34.030  21.953   7.653
 5284POPC   NC3 6887  11.328  10.533   9.453
 5284POPC   PO4 6888  11.279  10.499   9.153
 5284POPC   GL1 6889  11.269  10.510   8.853
 5284POPC   GL2 6890  11.398  10.661   8.853
 5284POPC   C1A 6891  11.349  10.565   8.553
 5284POPC   D2A 6892  11.312  10.475   8.253
 5284POPC   C3A 6893  11.310  10.523   7.953
 5284POPC   C4A 6894  11.259  10.480   7.653
 5284POPC   C1B 6895  11.398  10.724   8.553
 5284POPC   C2B 6896  11.384  10.712   8.253
 5284POPC   C3B 6897  11.395  10.742   7.953
 5284POPC   C4B 6898  11.478  10.781   7.653
 5285POPC   NC3 6899   5.123  28.407   9.453
 5285POPC   PO4 6900   5.086  28.388   9.153
 5285POPC   GL1 6901   5.102  28.344   8.853
 5285POPC   GL2 6902   5.178  28.497   8.853
 5285POPC   C1A 6903   5.076  28.386   8.553
 5285POPC   D2A 6904   5.117  28.360   8.253
 5285POPC   C3A 6905   5.061  28.348   7.953
 5285POPC   C4A 6906   5.123  28.373   7.653
 5285POPC   C1B 6907   5.291  28.569   8.553
 5285POPC   C2B 6908   5.225  28.559   8.253
 5285POPC   C3B 6909   5.229  28.565   7.953
 5285POPC   C4B 6910   5.211  28.525   7.653
 5286POPC   NC3 6911  32.281  33.798   9.453
 5286POPC   PO4 6912  32.255  33.810   9.153
 5286POPC   GL1 6913  32.263  33.781   8.853
 5286POPC   GL2 6914  32.273  33.703   8.853
 5286POPC   C1A 6915  32.296  33.811   8.553
 5286POPC   D2A 6916  32.294  33.849   8.253
 5286POPC   C3A 6917  32.273  33.807   7.953
 5286POPC   C4A 6918  32.263  33.777   7.653
 5286POPC   C1B 6919  32.351  33.584   8.553
 5286POPC   C2B 6920  32.320  33.603   8.253
 5286POPC   C3B 6921  32.359  33.541   7.953
 5286POPC   C4B 6922  32.382  33.535   7.653
 5287POPC   NC3 6923  43.151  12.813   9.453
 5287POPC   PO4 6924  43.135  12.873   9.153
 5287POPC   GL1 6925  43.108  12.888   8.853
 5287POPC   GL2 6926  43.224  12.849   8.853
 5287POPC   C1A 6927  43.117  12.878   8.553
 5287POPC   D2A 6928  43.099  12.803   8.253
 5287POPC   C3A 6929  43.145  12.860   7.953
 5287POPC   C4A 6930  43.116  12.885   7.653
 5287POPC   C1B 6931  43.373  12.737   8.553
 5287POPC   C2B 6932  43.320  12.714   8.253
 5287POPC   C3B 6933  43.351  12.773   7.953
 5287POPC   C4B 6934  43.347  12.788   7.653
 5288POPC   NC3 6935  40.790  37.646   9.453
 5288POPC   PO4 6936  40.804  37.653   9.153
 5288POPC   GL1 6937  40.785  37.645   8.853
 5288POPC   GL2 6938  40.894  37.550   8.853
 5288POPC   C1A 6939  40.748  37.662   8.553
 5288POPC   D2A 6940  40.751  37.644   8.253
 5288POPC   C3A 6941  40.749  37.672   7.953
 5288POPC   C4A 6942  40.769  37.687   7.653
 5288POPC   C1B 6943  40.996  37.512   8.553
 5288POPC   C2B 6944  40.938  37.472   8.253
 5288POPC   C3B 6945  40.996  37.474   7.953
 5288POPC   C4B 6946  40.950  37.470   7.653
 5289POPC   NC3 6947  25.272  38.433   9.453
 5289POPC   PO4 6948  25.302  38.466   9.153
 5289POPC   GL1 6949  25.221  38.485   8.853
 5289POPC   GL2 6950  25.346  38.369   8.853
 5289POPC   C1A 6951  25.275  38.414   8.553
 5289POPC   D2A 6952  25.293  38.409   8.253
 5289POPC   C3A 6953  25.313  38.496   7.953
 5289POPC   C4A 6954  25.228  38.487   7.653
 5289POPC   C1B 6955  25.531  38.309   8.553
 5289POPC   C2B 6956  25.492  38.407   8.253
 5289POPC   C3B 6957  25.462  38.368   7.953
 5289POPC   C4B 6958  25.528  38.326   7.653
 5290POPC   NC3 6959  31.512  36.941   9.453
 5290POPC   PO4 6960  31.520  36.934   9.153
 5290POPC   GL1 6961  31.453  36.924   8.853
 5290POPC   GL2 6962  31.524  37.017   8.853
 5290POPC   C1A 6963  31.516  36.935   8.553
 5290POPC   D2A 6964  31.486  36.894   8.253
 5290POPC   C3A 6965  31.483  36.910   7.953
 5290POPC   C4A 6966  31.462  36.925   7.653
 5290POPC   C1B 6967  31.646  37.045   8.553
 5290POPC   C2B 6968  31.667  37.093   8.253
 5290POPC   C3B 6969  31.691  37.092   7.953
 5290POPC   C4B 6970  31.617  37.110   7.653
 5291POPC   NC3 6971  27.578  27.638   9.453
 5291POPC   PO4 6972  27.627  27.609   9.153
 5291POPC   GL1 6973  27.636  27.582   8.853
 5291POPC   GL2 6974  27.462  27.642   8.853
 5291POPC   C1A 6975  27.613  27.593   8.553
 5291POPC   D2A 6976  27.570  27.580   8.253
 5291POPC   C3A 6977  27.629  27.632   7.953
 5291POPC   C4A 6978  27.580  27.619   7.653
 5291POPC   C1B 6979  27.414  27.718   8.553
 5291POPC   C2B 6980  27.356  27.744   8.253
 5291POPC   C3B 6981  27.431  27.726   7.953
 5291POPC   C4B 6982  27.424  27.765   7.653
 5292POPC   NC3 6983  11.333  23.735   9.453
 5292POPC   PO4 6984  11.304  23.750   9.153
 5292POPC   GL1 6985  11.337  23.711   8.853
 5292POPC   GL2 6986  11.159  23.705   8.853
 5292POPC   C1A 6987  11.295  23.725   8.553
 5292POPC   D2A 6988  11.315  23.702   8.253
 5292POPC   C3A 6989  11.321  23.710   7.953
 5292POPC   C4A 6990  11.266  23.698   7.653
 5292POPC   C1B 6991  11.085  23.715   8.553
 5292POPC   C2B 6992  11.097  23.683   8.253
 5292POPC   C3B 6993  11.091  23.686   7.953
 5292POPC   C4B 6994  11.104  23.685   7.653
 5293POPC   NC3 6995  11.342   2.038   9.453
 5293POPC   PO4 6996  11.286   2.020   9.153
 5293POPC   GL1 6997  11.270   1.990   8.853
 5293POPC   GL2 6998  11.356   1.956   8.853
 5293POPC   C1A 6999  11.279   1.949   8.553
 5293POPC   D2A 7000  11.337   2.039   8.253
 5293POPC   C3A 7001  11.336   2.026   7.953
 5293POPC   C4A 7002  11.331   2.018   7.653
 5293POPC   C1B 7003  11.539   1.843   8.553
 5293POPC   C2B 7004  11.557   1.891   8.253
 5293POPC   C3B 7005  11.546   1.869   7.953
 5293POPC   C4B 7006  11.501   1.878   7.653
 5294POPC   NC3 7007  34.598  38.476   9.453
 5294POPC   PO4 7008  34.623  38.494   9.153
 5294POPC   GL1 7009  34.602  38.411   8.853
 5294POPC   GL2 7010  34.501  38.341   8.853
 5294POPC   C1A 7011  34.535  38.435   8.553
 5294POPC   D2A 7012  34.556  38.425   8.253
 5294POPC   C3A 7013  34.597  38.472   7.953
 5294POPC   C4A 7014  34.553  38.501   7.653
 5294POPC   C1B 7015  34.398  38.249   8.553
 5294POPC   C2B 7016  34.360  38.244   8.253
 5294POPC   C3B 7017  34.430  38.310   7.953
 5294POPC   C4B 7018  34.357  38.314   7.653
 5295POPC   NC3 7019   3.548   9.702   9.453
 5295POPC   PO4 7020   3.557   9.793   9.153
 5295POPC   GL1 7021   3.523   9.700   8.853
 5295POPC   GL2 7022   3.667   9.832   8.853
 5295POPC   C1A 7023   3.510   9.784   8.553
 5295POPC   D2A 7024   3.574   9.758   8.253
 5295POPC   C3A 7025   3.584   9.730   7.953
 5295POPC   C4A 7026   3.576   9.747   7.653
 5295POPC   C1B 7027   3.692   9.912   8.553
 5295POPC   C2B 7028   3.672   9.969   8.253
 5295POPC   C3B 7029   3.688   9.934   7.953
 5295POPC   C4B 7030   3.763   9.916   7.653
 5296POPC   NC3 7031  29.939  15.144   9.453
 5296POPC   PO4 7032  29.962  15.217   9.153
 5296POPC   GL1 7033  29.936  15.223   8.853
 5296POPC   GL2 7034  30.007  15.263   8.853
 5296POPC   C1A 7035  29.952  15.180   8.553
 5296POPC   D2A 7036  29.895  15.227   8.253
 5296POPC   C3A 7037  29.968  15.216   7.953
 5296POPC   C4A 7038  29.887  15.134   7.653
 5296POPC   C1B 7039  30.168  15.254   8.553
 5296POPC   C2B 7040  30.178  15.301   8.253
 5296POPC   C3B 7041  30.197  15.240   7.953
 5296POPC   C4B 7042  30.170  15.246   7.653
 5297POPC   NC3 7043  42.354  36.151   9.453
 5297POPC   PO4 7044  42.319  36.097   9.153
 5297POPC   GL1 7045  42.380  36.121   8.853
 5297POPC   GL2 7046  42.300  36.237   8.853
 5297POPC   C1A 7047  42.291  36.093   8.553
 5297POPC   D2A 7048  42.362  36.130   8.253
 5297POPC   C3A 7049  42.317  36.120   7.953
 5297POPC   C4A 7050  42.354  36.156   7.653
 5297POPC   C1B 7051  42.290  36.410   8.553
 5297POPC   C2B 7052  42.213  36.332   8.253
 5297POPC   C3B 7053  42.301  36.363   7.953
 5297POPC   C4B 7054  42.274  36.365   7.653
 5298POPC   NC3 7055  22.928  35.317   9.453
 5298POPC   PO4 7056  22.957  35.396   9.153
 5298POPC   GL1 7057  22.944  35.329   8.853
 5298POPC   GL2 7058  22.819  35.387   8.853
 5298POPC   C1A 7059  22.984  35.344   8.553
 5298POPC   D2A 7060  22.949  35.360   8.253
 5298POPC   C3A 7061  22.932  35.400   7.953
 5298POPC   C4A 7062  22.959  35.401   7.653
 5298POPC   C1B 7063  22.731  35.483   8.553
 5298POPC   C2B 7064  22.665  35.461   8.253
 5298POPC   C3B 7065  22.748  35.464   7.953
 5298POPC   C4B 7066  22.679  35.393   7.653
 5299POPC   NC3 7067  36.131  27.635   9.453
 5299POPC   PO4 7068  36.080  27.555   9.153
 5299POPC   GL1 7069  36.092  27.602   8.853
 5299POPC   GL2 7070  35.990  27.550   8.853
 5299POPC   C1A 7071  36.135  27.613   8.553
 5299POPC   D2A 7072  36.096  27.637   8.253
 5299POPC   C3A 7073  36.090  27.601   7.953
 5299POPC   C4A 7074  36.173  27.614   7.653
 5299POPC   C1B 7075  35.905  27.632   8.553
 5299POPC   C2B 7076  35.880  27.626   8.253
 5299POPC   C3B 7077  35.906  27.631   7.953
 5299POPC   C4B 7078  35.927  27.600   7.653
 5300POPC   NC3 7079  19.100  36.941   9.453
 5300POPC   PO4 7080  19.073  36.915   9.153
 5300POPC   GL1 7081  19.072  36.918   8.853
 5300POPC   GL2 7082  19.084  37.060   8.853
 5300POPC   C1A 7083  19.074  36.907   8.553
 5300POPC   D2A 7084  19.029  36.929   8.253
 5300POPC   C3A 7085  19.102  36.912   7.953
 5300POPC   C4A 7086  19.036  36.865   7.653
 5300POPC   C1B 7087  19.136  37.159   8.553
 5300POPC   C2B 7088  19.147  37.150   8.253
 5300POPC   C3B 7089  19.097  37.100   7.953
 5300POPC   C4B 7090  19.118  37.130   7.653
 5301POPC   NC3 7091  24.440  36.931   9.453
 5301POPC   PO4 7092  24.443  36.916   9.153
 5301POPC   GL1 7093  24.526  36.907   8.853
 5301POPC   GL2 7094  24.533  37.007   8.853
 5301POPC   C1A 7095  24.446  36.907   8.553
 5301POPC   D2A 7096  24.535  36.898   8.253
 5301POPC   C3A 7097  24.486  36.891   7.953
 5301POPC   C4A 7098  24.538  36.896   7.653
 5301POPC   C1B 7099  24.630  37.158   8.553
 5301POPC   C2B 7100  24.544  37.120   8.253
 5301POPC   C3B 7101  24.617  37.161   7.953
 5301POPC   C4B 7102  24.568  37.171   7.653
 5302POPC   NC3 7103  26.010  19.875   9.453
 5302POPC   PO4 7104  26.044  19.803   9.153
 5302POPC   GL1 7105  26.013  19.855   8.853
 5302POPC   GL2 7106  25.995  19.945   8.853
 5302POPC   C1A 7107  26.064  19.827   8.553
 5302POPC   D2A 7108  25.992  19.880   8.253
 5302POPC   C3A 7109  26.027  19.820   7.953
 5302POPC   C4A 7110  26.018  19.811   7.653
 5302POPC   C1B 7111  25.861  20.021   8.553
 5302POPC   C2B 7112  25.916  20.043   8.253
 5302POPC   C3B 7113  25.901  20.032   7.953
 5302POPC   C4B 7114  25.914  20.015   7.653
 5303POPC   NC3 7115  40.801  13.632   9.453
 5303POPC   PO4 7116  40.795  13.664   9.153
 5303POPC   GL1 7117  40.764  13.636   8.853
 5303POPC   GL2 7118  40.863  13.566   8.853
 5303POPC   C1A 7119  40.808  13.616   8.553
 5303POPC   D2A 7120  40.819  13.649   8.253
 5303POPC   C3A 7121  40.746  13.637   7.953
 5303POPC   C4A 7122  40.769  13.658   7.653
 5303POPC   C1B 7123  40.921  13.434   8.553
 5303POPC   C2B 7124  40.921  13.482   8.253
 5303POPC   C3B 7125  40.909  13.427   7.953
 5303POPC   C4B 7126  40.978  13.470   7.653
 5304POPC   NC3 7127   1.242  27.625   9.453
 5304POPC   PO4 7128   1.213  27.603   9.153
 5304POPC   GL1 7129   1.247  27.573   8.853
 5304POPC   GL2 7130   1.293  27.625   8.853
 5304POPC   C1A 7131   1.181  27.611   8.553
 5304POPC   D2A 7132   1.243  27.579   8.253
 5304POPC   C3A 7133   1.172  27.609   7.953
 5304POPC   C4A 7134   1.217  27.604   7.653
 5304POPC   C1B 7135   1.388  27.739   8.553
 5304POPC   C2B 7136   1.397  27.787   8.253
 5304POPC   C3B 7137   1.366  27.742   7.953
 5304POPC   C4B 7138   1.441  27.794   7.653
 5305POPC   NC3 7139  35.324  26.056   9.453
 5305POPC   PO4 7140  35.396  26.035   9.153
 5305POPC   GL1 7141  35.393  26.009   8.853
 5305POPC   GL2 7142  35.323  25.921   8.853
 5305POPC   C1A 7143  35.308  26.003   8.553
 5305POPC   D2A 7144  35.330  26.015   8.253
 5305POPC   C3A 7145  35.313  26.011   7.953
 5305POPC   C4A 7146  35.389  26.056   7.653
 5305POPC   C1B 7147  35.241  25.844   8.553
 5305POPC   C2B 7148  35.268  25.834   8.253
 5305POPC   C3B 7149  35.314  25.782   7.953
 5305POPC   C4B 7150  35.258  25.779   7.653
 5306POPC   NC3 7151   8.231   6.621   9.453
 5306POPC   PO4 7152   8.177   6.658   9.153
 5306POPC   GL1 7153   8.202   6.623   8.853
 5306POPC   GL2 7154   8.086   6.702   8.853
 5306POPC   C1A 7155   8.165   6.644   8.553
 5306POPC   D2A 7156   8.182   6.690   8.253
 5306POPC   C3A 7157   8.151   6.664   7.953
 5306POPC   C4A 7158   8.179   6.641   7.653
 5306POPC   C1B 7159   7.969   6.693   8.553
 5306POPC   C2B 7160   7.918   6.755   8.253
 5306POPC   C3B 7161   7.998   6.684   7.953
 5306POPC   C4B 7162   7.921   6.769   7.653
 5307POPC   NC3 7163  41.570  27.557   9.453
 5307POPC   PO4 7164  41.576  27.563   9.153
 5307POPC   GL1 7165  41.536  27.615   8.853
 5307POPC   GL2 7166  41.422  27.674   8.853
 5307POPC   C1A 7167  41.581  27.641   8.553
 5307POPC   D2A 7168  41.566  27.579   8.253
 5307POPC   C3A 7169  41.523  27.592   7.953
 5307POPC   C4A 7170  41.608  27.558   7.653
 5307POPC   C1B 7171  41.363  27.642   8.553
 5307POPC   C2B 7172  41.357  27.627   8.253
 5307POPC   C3B 7173  41.304  27.687   7.953
 5307POPC   C4B 7174  41.270  27.687   7.653
 5308POPC   NC3 7175   7.415  23.761   9.453
 5308POPC   PO4 7176   7.453  23.674   9.153
 5308POPC   GL1 7177   7.403  23.682   8.853
 5308POPC   GL2 7178   7.575  23.702   8.853
 5308POPC   C1A 7179   7.459  23.763   8.553
 5308POPC   D2A 7180   7.424  23.697   8.253
 5308POPC   C3A 7181   7.434  23.753   7.953
 5308POPC   C4A 7182   7.427  23.750   7.653
 5308POPC   C1B 7183   7.676  23.642   8.553
 5308POPC   C2B 7184   7.673  23.598   8.253
 5308POPC   C3B 7185   7.640  23.650   7.953
 5308POPC   C4B 7186   7.687  23.653   7.653
 5309POPC   NC3 7187   4.277  15.226   9.453
 5309POPC   PO4 7188   4.282  15.211   9.153
 5309POPC   GL1 7189   4.330  15.204   8.853
 5309POPC   GL2 7190   4.244  15.090   8.853
 5309POPC   C1A 7191   4.271  15.168   8.553
 5309POPC   D2A 7192   4.293  15.189   8.253
 5309POPC   C3A 7193   4.306  15.181   7.953
 5309POPC   C4A 7194   4.333  15.137   7.653
 5309POPC   C1B 7195   4.197  14.988   8.553
 5309POPC   C2B 7196   4.257  14.919   8.253
 5309POPC   C3B 7197   4.270  14.967   7.953
 5309POPC   C4B 7198   4.194  14.989   7.653
 5310POPC   NC3 7199  30.677  18.247   9.453
 5310POPC   PO4 7200  30.718  18.258   9.153
 5310POPC   GL1 7201  30.722  18.234   8.853
 5310POPC   GL2 7202  30.590  18.370   8.853
 5310POPC   C1A 7203  30.722  18.309   8.553
 5310POPC   D2A 7204  30.701  18.263   8.253
 5310POPC   C3A 7205  30.714  18.249   7.953
 5310POPC   C4A 7206  30.706  18.288   7.653
 5310POPC   C1B 7207  30.471  18.396   8.553
 5310POPC   C2B 7208  30.487  18.401   8.253
 5310POPC   C3B 7209  30.460  18.399   7.953
 5310POPC   C4B 7210  30.510  18.365   7.653
 5311POPC   NC3 7211  33.024  18.251   9.453
 5311POPC   PO4 7212  33.005  18.300   9.153
 5311POPC   GL1 7213  32.991  18.323   8.853
 5311POPC   GL2 7214  32.988  18.362   8.853
 5311POPC   C1A 7215  33.043  18.254   8.553
 5311POPC   D2A 7216  33.024  18.246   8.253
 5311POPC   C3A 7217  32.992  18.259   7.953
 5311POPC   C4A 7218  33.072  18.264   7.653
 5311POPC   C1B 7219  33.080  18.542   8.553
 5311POPC   C2B 7220  33.080  18.567   8.253
 5311POPC   C3B 7221  33.008  18.560   7.953
 5311POPC   C4B 7222  33.022  18.488   7.653
 5312POPC   NC3 7223  40.793   8.197   9.453
 5312POPC   PO4 7224  40.767   8.213   9.153
 5312POPC   GL1 7225  40.752   8.225   8.853
 5312POPC   GL2 7226  40.861   8.074   8.853
 5312POPC   C1A 7227  40.802   8.194   8.553
 5312POPC   D2A 7228  40.810   8.177   8.253
 5312POPC   C3A 7229  40.796   8.180   7.953
 5312POPC   C4A 7230  40.748   8.189   7.653
 5312POPC   C1B 7231  40.953   8.029   8.553
 5312POPC   C2B 7232  40.932   8.007   8.253
 5312POPC   C3B 7233  41.000   8.020   7.953
 5312POPC   C4B 7234  40.976   7.981   7.653
 5313POPC   NC3 7235  25.238  37.707   9.453
 5313POPC   PO4 7236  25.299  37.669   9.153
 5313POPC   GL1 7237  25.248  37.671   8.853
 5313POPC   GL2 7238  25.150  37.651   8.853
 5313POPC   C1A 7239  25.267  37.723   8.553
 5313POPC   D2A 7240  25.234  37.694   8.253
 5313POPC   C3A 7241  25.279  37.651   7.953
 5313POPC   C4A 7242  25.221  37.696   7.653
 5313POPC   C1B 7243  25.048  37.676   8.553
 5313POPC   C2B 7244  25.041  37.625   8.253
 5313POPC   C3B 7245  25.022  37.628   7.953
 5313POPC   C4B 7246  24.987  37.660   7.653
 5314POPC   NC3 7247  40.824  12.874   9.453
 5314POPC   PO4 7248  40.821  12.893   9.153
 5314POPC   GL1 7249  40.824  12.880   8.853
 5314POPC   GL2 7250  40.697  12.919   8.853
 5314POPC   C1A 7251  40.751  12.829   8.553
 5314POPC   D2A 7252  40.819  12.891   8.253
 5314POPC   C3A 7253  40.778  12.869   7.953
 5314POPC   C4A 7254  40.771  12.840   7.653
 5314POPC   C1B 7255  40.579  13.057   8.553
 5314POPC   C2B 7256  40.567  13.045   8.253
 5314POPC   C3B 7257  40.561  12.977   7.953
 5314POPC   C4B 7258  40.545  13.023   7.653
 5315POPC   NC3 7259  12.035   6.695   9.453
 5315POPC   PO4 7260  12.094   6.673   9.153
 5315POPC   GL1 7261  12.092   6.635   8.853
 5315POPC   GL2 7262  12.111   6.530   8.853
 5315POPC   C1A 7263  12.041   6.635   8.553
 5315POPC   D2A 7264  12.060   6.664   8.253
 5315POPC   C3A 7265  12.109   6.657   7.953
 5315POPC   C4A 7266  12.066   6.663   7.653
 5315POPC   C1B 7267  12.105   6.404   8.553
 5315POPC   C2B 7268  12.112   6.434   8.253
 5315POPC   C3B 7269  12.070   6.354   7.953
 5315POPC   C4B 7270  12.108   6.373   7.653
 5316POPC   NC3 7271   9.706  33.782   9.453
 5316POPC   PO4 7272   9.774  33.802   9.153
 5316POPC   GL1 7273   9.719  33.812   8.853
 5316POPC   GL2 7274   9.616  33.764   8.853
 5316POPC   C1A 7275   9.741  33.802   8.553
 5316POPC   D2A 7276   9.794  33.803   8.253
 5316POPC   C3A 7277   9.781  33.793   7.953
 5316POPC   C4A 7278   9.775  33.788   7.653
 5316POPC   C1B 7279   9.513  33.673   8.553
 5316POPC   C2B 7280   9.486  33.695   8.253
 5316POPC   C3B 7281   9.543  33.700   7.953
 5316POPC   C4B 7282   9.494  33.681   7.653
 5317POPC   NC3 7283  37.701  40.013   9.453
 5317POPC   PO4 7284  37.667  40.021   9.153
 5317POPC   GL1 7285  37.707  39.982   8.853
 5317POPC   GL2 7286  37.518  40.026   8.853
 5317POPC   C1A 7287  37.684  40.014   8.553
 5317POPC   D2A 7288  37.678  40.011   8.253
 5317POPC   C3A 7289  37.655  40.001   7.953
 5317POPC   C4A 7290  37.705  40.026   7.653
 5317POPC   C1B 7291  37.477  39.953   8.553
 5317POPC   C2B 7292  37.384  40.021   8.253
 5317POPC   C3B 7293  37.411  39.966   7.953
 5317POPC   C4B 7294  37.434  39.986   7.653
 5318POPC   NC3 7295  39.958   9.015   9.453
 5318POPC   PO4 7296  40.027   8.956   9.153
 5318POPC   GL1 7297  40.017   8.997   8.853
 5318POPC   GL2 7298  39.885   9.027   8.853
 5318POPC   C1A 7299  40.032   8.971   8.553
 5318POPC   D2A 7300  39.983   8.977   8.253
 5318POPC   C3A 7301  40.016   8.976   7.953
 5318POPC   C4A 7302  39.989   9.011   7.653
 5318POPC   C1B 7303  39.804   9.162   8.553
 5318POPC   C2B 7304  39.796   9.136   8.253
 5318POPC   C3B 7305  39.799   9.145   7.953
 5318POPC   C4B 7306  39.860   9.148   7.653
 5319POPC   NC3 7307  38.478  14.396   9.453
 5319POPC   PO4 7308  38.424  14.410   9.153
 5319POPC   GL1 7309  38.459  14.437   8.853
 5319POPC   GL2 7310  38.499  14.369   8.853
 5319POPC   C1A 7311  38.428  14.410   8.553
 5319POPC   D2A 7312  38.482  14.383   8.253
 5319POPC   C3A 7313  38.451  14.408   7.953
 5319POPC   C4A 7314  38.450  14.391   7.653
 5319POPC   C1B 7315  38.640  14.199   8.553
 5319POPC   C2B 7316  38.671  14.234   8.253
 5319POPC   C3B 7317  38.624  14.265   7.953
 5319POPC   C4B 7318  38.664  14.278   7.653
 5320POPC   NC3 7319  33.833  30.739   9.453
 5320POPC   PO4 7320  33.798  30.708   9.153
 5320POPC   GL1 7321  33.841  30.687   8.853
 5320POPC   GL2 7322  33.711  30.791   8.853
 5320POPC   C1A 7323  33.810  30.695   8.553
 5320POPC   D2A 7324  33.781  30.738   8.253
 5320POPC   C3A 7325  33.802  30.663   7.953
 5320POPC   C4A 7326  33.841  30.695   7.653
 5320POPC   C1B 7327  33.599  30.880   8.553
 5320POPC   C2B 7328  33.594  30.854   8.253
 5320POPC   C3B 7329  33.584  30.850   7.953
 5320POPC   C4B 7330  33.609  30.844   7.653
 5321POPC   NC3 7331  31.478   6.627   9.453
 5321POPC   PO4 7332  31.461   6.641   9.153
 5321POPC   GL1 7333  31.423   6.597   8.853
 5321POPC   GL2 7334  31.532   6.505   8.853
 5321POPC   C1A 7335  31.484   6.691   8.553
 5321POPC   D2A 7336  31.521   6.661   8.253
 5321POPC   C3A 7337  31.520   6.615   7.953
 5321POPC   C4A 7338  31.437   6.607   7.653
 5321POPC   C1B 7339  31.562   6.412   8.553
 5321POPC   C2B 7340  31.566   6.436   8.253
 5321POPC   C3B 7341  31.617   6.394   7.953
 5321POPC   C4B 7342  31.576   6.431   7.653
 5322POPC   NC3 7343  10.505  43.062   9.453
 5322POPC   PO4 7344  10.543  43.126   9.153
 5322POPC   GL1 7345  10.552  43.149   8.853
 5322POPC   GL2 7346  10.613  43.200   8.853
 5322POPC   C1A 7347  10.539  43.077   8.553
 5322POPC   D2A 7348  10.558  43.147   8.253
 5322POPC   C3A 7349  10.475  43.134   7.953
 5322POPC   C4A 7350  10.488  43.085   7.653
 5322POPC   C1B 7351  10.697  43.319   8.553
 5322POPC   C2B 7352  10.741  43.325   8.253
 5322POPC   C3B 7353  10.698  43.246   7.953
 5322POPC   C4B 7354  10.733  43.245   7.653
 5323POPC   NC3 7355  40.786  43.925   9.453
 5323POPC   PO4 7356  40.824  43.893   9.153
 5323POPC   GL1 7357  40.754  43.899   8.853
 5323POPC   GL2 7358  40.821  43.715   8.853
 5323POPC   C1A 7359  40.806  43.887   8.553
 5323POPC   D2A 7360  40.755  43.873   8.253
 5323POPC   C3A 7361  40.818  43.903   7.953
 5323POPC   C4A 7362  40.829  43.871   7.653
 5323POPC   C1B 7363  40.827  43.656   8.553
 5323POPC   C2B 7364  40.762  43.638   8.253
 5323POPC   C3B 7365  40.833  43.625   7.953
 5323POPC   C4B 7366  40.847  43.608   7.653
 5324POPC   NC3 7367  24.448  29.098   9.453
 5324POPC   PO4 7368  24.509  29.108   9.153
 5324POPC   GL1 7369  24.515  29.146   8.853
 5324POPC   GL2 7370  24.600  29.148   8.853
 5324POPC   C1A 7371  24.495  29.167   8.553
 5324POPC   D2A 7372  24.527  29.113   8.253
 5324POPC   C3A 7373  24.504  29.187   7.953
 5324POPC   C4A 7374  24.481  29.152   7.653
 5324POPC   C1B 7375  24.738  29.211   8.553
 5324POPC   C2B 7376  24.720  29.174   8.253
 5324POPC   C3B 7377  24.700  29.205   7.953
 5324POPC   C4B 7378  24.751  29.247   7.653
 5325POPC   NC3 7379   8.230  26.030   9.453
 5325POPC   PO4 7380   8.246  26.076   9.153
 5325POPC   GL1 7381   8.228  26.067   8.853
 5325POPC   GL2 7382   8.243  25.971   8.853
 5325POPC   C1A 7383   8.186  26.088   8.553
 5325POPC   D2A 7384   8.239  26.057   8.253
 5325POPC   C3A 7385   8.228  26.025   7.953
 5325POPC   C4A 7386   8.167  26.069   7.653
 5325POPC   C1B 7387   8.339  25.827   8.553
 5325POPC   C2B 7388   8.333  25.816   8.253
 5325POPC   C3B 7389   8.289  25.839   7.953
 5325POPC   C4B 7390   8.308  25.860   7.653
 5326POPC   NC3 7391  19.080   5.894   9.453
 5326POPC   PO4 7392  19.026   5.828   9.153
 5326POPC   GL1 7393  19.014   5.859   8.853
 5326POPC   GL2 7394  19.207   5.881   8.853
 5326POPC   C1A 7395  19.063   5.846   8.553
 5326POPC   D2A 7396  19.092   5.889   8.253
 5326POPC   C3A 7397  19.100   5.874   7.953
 5326POPC   C4A 7398  19.025   5.869   7.653
 5326POPC   C1B 7399  19.295   5.964   8.553
 5326POPC   C2B 7400  19.267   5.915   8.253
 5326POPC   C3B 7401  19.260   5.972   7.953
 5326POPC   C4B 7402  19.254   5.958   7.653
 5327POPC   NC3 7403  22.153  19.051   9.453
 5327POPC   PO4 7404  22.113  19.081   9.153
 5327POPC   GL1 7405  22.196  19.054   8.853
 5327POPC   GL2 7406  22.061  19.154   8.853
 5327POPC   C1A 7407  22.118  19.104   8.553
 5327POPC   D2A 7408  22.164  19.012   8.253
 5327POPC   C3A 7409  22.158  19.080   7.953
 5327POPC   C4A 7410  22.144  19.085   7.653
 5327POPC   C1B 7411  22.005  19.195   8.553
 5327POPC   C2B 7412  22.004  19.184   8.253
 5327POPC   C3B 7413  21.966  19.177   7.953
 5327POPC   C4B 7414  21.928  19.157   7.653
 5328POPC   NC3 7415   7.433  39.273   9.453
 5328POPC   PO4 7416   7.430  39.237   9.153
 5328POPC   GL1 7417   7.397  39.266   8.853
 5328POPC   GL2 7418   7.493  39.173   8.853
 5328POPC   C1A 7419   7.450  39.230   8.553
 5328POPC   D2A 7420   7.435  39.187   8.253
 5328POPC   C3A 7421   7.434  39.262   7.953
 5328POPC   C4A 7422   7.465  39.258   7.653
 5328POPC   C1B 7423   7.593  39.050   8.553
 5328POPC   C2B 7424   7.587  38.976   8.253
 5328POPC   C3B 7425   7.526  39.030   7.953
 5328POPC   C4B 7426   7.580  39.008   7.653
 5329POPC   NC3 7427  44.691  25.239   9.453
 5329POPC   PO4 7428  44.631  25.269   9.153
 5329POPC   GL1 7429  44.672  25.275   8.853
 5329POPC   GL2 7430  44.747  25.290   8.853
 5329POPC   C1A 7431  44.710  25.256   8.553
 5329POPC   D2A 7432  44.634  25.218   8.253
 5329POPC   C3A 7433  44.634  25.258   7.953
 5329POPC   C4A 7434  44.658  25.230   7.653
 5329POPC   C1B 7435  44.952  25.324   8.553
 5329POPC   C2B 7436  44.888  25.313   8.253
 5329POPC   C3B 7437  44.926  25.296   7.953
 5329POPC   C4B 7438  44.914  25.331   7.653
 5330POPC   NC3 7439   9.703   7.429   9.453
 5330POPC   PO4 7440   9.733   7.382   9.153
 5330POPC   GL1 7441   9.751   7.450   8.853
 5330POPC   GL2 7442   9.634   7.474   8.853
 5330POPC   C1A 7443   9.721   7.373   8.553
 5330POPC   D2A 7444   9.759   7.376   8.253
 5330POPC   C3A 7445   9.733   7.451   7.953
 5330POPC   C4A 7446   9.734   7.456   7.653
 5330POPC   C1B 7447   9.579   7.558   8.553
 5330POPC   C2B 7448   9.519   7.571   8.253
 5330POPC   C3B 7449   9.541   7.581   7.953
 5330POPC   C4B 7450   9.524   7.523   7.653
 5331POPC   NC3 7451   1.957  39.242   9.453
 5331POPC   PO4 7452   2.002  39.201   9.153
 5331POPC   GL1 7453   1.997  39.217   8.853
 5331POPC   GL2 7454   2.134  39.229   8.853
 5331POPC   C1A 7455   1.947  39.194   8.553
 5331POPC   D2A 7456   1.942  39.272   8.253
 5331POPC   C3A 7457   2.008  39.220   7.953
 5331POPC   C4A 7458   1.975  39.256   7.653
 5331POPC   C1B 7459   2.238  39.180   8.553
 5331POPC   C2B 7460   2.214  39.182   8.253
 5331POPC   C3B 7461   2.205  39.164   7.953
 5331POPC   C4B 7462   2.226  39.185   7.653
 5332POPC   NC3 7463  25.259  32.221   9.453
 5332POPC   PO4 7464  25.255  32.203   9.153
 5332POPC   GL1 7465  25.295  32.201   8.853
 5332POPC   GL2 7466  25.382  32.292   8.853
 5332POPC   C1A 7467  25.268  32.263   8.553
 5332POPC   D2A 7468  25.256  32.279   8.253
 5332POPC   C3A 7469  25.274  32.244   7.953
 5332POPC   C4A 7470  25.293  32.289   7.653
 5332POPC   C1B 7471  25.488  32.286   8.553
 5332POPC   C2B 7472  25.490  32.278   8.253
 5332POPC   C3B 7473  25.521  32.277   7.953
 5332POPC   C4B 7474  25.517  32.266   7.653
 5333POPC   NC3 7475  10.499  27.597   9.453
 5333POPC   PO4 7476  10.527  27.572   9.153
 5333POPC   GL1 7477  10.503  27.634   8.853
 5333POPC   GL2 7478  10.650  27.665   8.853
 5333POPC   C1A 7479  10.542  27.548   8.553
 5333POPC   D2A 7480  10.554  27.561   8.253
 5333POPC   C3A 7481  10.554  27.590   7.953
 5333POPC   C4A 7482  10.549  27.632   7.653
 5333POPC   C1B 7483  10.736  27.655   8.553
 5333POPC   C2B 7484  10.733  27.622   8.253
 5333POPC   C3B 7485  10.714  27.709   7.953
 5333POPC   C4B 7486  10.721  27.658   7.653
 5334POPC   NC3 7487   8.223  22.159   9.453
 5334POPC   PO4 7488   8.214  22.168   9.153
 5334POPC   GL1 7489   8.220  22.150   8.853
 5334POPC   GL2 7490   8.092  22.096   8.853
 5334POPC   C1A 7491   8.200  22.175   8.553
 5334POPC   D2A 7492   8.233  22.143   8.253
 5334POPC   C3A 7493   8.227  22.209   7.953
 5334POPC   C4A 7494   8.179  22.130   7.653
 5334POPC   C1B 7495   8.031  21.932   8.553
 5334POPC   C2B 7496   8.060  21.978   8.253
 5334POPC   C3B 7497   7.985  21.954   7.953
 5334POPC   C4B 7498   8.022  22.008   7.653
 5335POPC   NC3 7499  17.483   6.687   9.453
 5335POPC   PO4 7500  17.482   6.645   9.153
 5335POPC   GL1 7501  17.507   6.628   8.853
 5335POPC   GL2 7502  17.397   6.620   8.853
 5335POPC   C1A 7503  17.514   6.612   8.553
 5335POPC   D2A 7504  17.488   6.650   8.253
 5335POPC   C3A 7505  17.498   6.604   7.953
 5335POPC   C4A 7506  17.543   6.605   7.653
 5335POPC   C1B 7507  17.276   6.620   8.553
 5335POPC   C2B 7508  17.253   6.600   8.253
 5335POPC   C3B 7509  17.261   6.653   7.953
 5335POPC   C4B 7510  17.222   6.567   7.653
 5336POPC   NC3 7511   1.980   0.466   9.453
 5336POPC   PO4 7512   1.957   0.485   9.153
 5336POPC   GL1 7513   1.966   0.439   8.853
 5336POPC   GL2 7514   2.058   0.456   8.853
 5336POPC   C1A 7515   1.949   0.482   8.553
 5336POPC   D2A 7516   1.968   0.408   8.253
 5336POPC   C3A 7517   1.977   0.393   7.953
 5336POPC   C4A 7518   2.012   0.456   7.653
 5336POPC   C1B 7519   2.264   0.561   8.553
 5336POPC   C2B 7520   2.221   0.550   8.253
 5336POPC   C3B 7521   2.256   0.531   7.953
 5336POPC   C4B 7522   2.208   0.488   7.653
 5337POPC   NC3 7523  36.129   9.702   9.453
 5337POPC   PO4 7524  36.107   9.728   9.153
 5337POPC   GL1 7525  36.120   9.715   8.853
 5337POPC   GL2 7526  36.088   9.655   8.853
 5337POPC   C1A 7527  36.148   9.750   8.553
 5337POPC   D2A 7528  36.127   9.750   8.253
 5337POPC   C3A 7529  36.132   9.790   7.953
 5337POPC   C4A 7530  36.146   9.716   7.653
 5337POPC   C1B 7531  36.138   9.524   8.553
 5337POPC   C2B 7532  36.164   9.497   8.253
 5337POPC   C3B 7533  36.088   9.531   7.953
 5337POPC   C4B 7534  36.098   9.525   7.653
 5338POPC   NC3 7535  36.891   8.948   9.453
 5338POPC   PO4 7536  36.946   8.966   9.153
 5338POPC   GL1 7537  36.899   8.995   8.853
 5338POPC   GL2 7538  36.818   8.932   8.853
 5338POPC   C1A 7539  36.889   8.990   8.553
 5338POPC   D2A 7540  36.888   8.991   8.253
 5338POPC   C3A 7541  36.886   8.943   7.953
 5338POPC   C4A 7542  36.873   9.009   7.653
 5338POPC   C1B 7543  36.750   8.794   8.553
 5338POPC   C2B 7544  36.692   8.829   8.253
 5338POPC   C3B 7545  36.752   8.782   7.953
 5338POPC   C4B 7546  36.713   8.860   7.653
 5339POPC   NC3 7547  39.961  33.021   9.453
 5339POPC   PO4 7548  39.970  33.071   9.153
 5339POPC   GL1 7549  39.992  32.997   8.853
 5339POPC   GL2 7550  40.101  33.026   8.853
 5339POPC   C1A 7551  39.985  33.046   8.553
 5339POPC   D2A 7552  40.046  33.034   8.253
 5339POPC   C3A 7553  40.002  32.975   7.953
 5339POPC   C4A 7554  39.986  33.004   7.653
 5339POPC   C1B 7555  40.251  33.006   8.553
 5339POPC   C2B 7556  40.297  33.048   8.253
 5339POPC   C3B 7557  40.277  33.007   7.953
 5339POPC   C4B 7558  40.280  33.043   7.653
 5340POPC   NC3 7559  17.473  17.534   9.453
 5340POPC   PO4 7560  17.465  17.503   9.153
 5340POPC   GL1 7561  17.526  17.509   8.853
 5340POPC   GL2 7562  17.636  17.435   8.853
 5340POPC   C1A 7563  17.542  17.483   8.553
 5340POPC   D2A 7564  17.530  17.523   8.253
 5340POPC   C3A 7565  17.493  17.482   7.953
 5340POPC   C4A 7566  17.461  17.543   7.653
 5340POPC   C1B 7567  17.661  17.303   8.553
 5340POPC   C2B 7568  17.732  17.335   8.253
 5340POPC   C3B 7569  17.674  17.359   7.953
 5340POPC   C4B 7570  17.721  17.386   7.653
 5341POPC   NC3 7571  29.145  44.675   9.453
 5341POPC   PO4 7572  29.163  44.634   9.153
 5341POPC   GL1 7573  29.112  44.648   8.853
 5341POPC   GL2 7574  29.057  44.643   8.853
 5341POPC   C1A 7575  29.154  44.707   8.553
 5341POPC   D2A 7576  29.177  44.663   8.253
 5341POPC   C3A 7577  29.179  44.667   7.953
 5341POPC   C4A 7578  29.179  44.705   7.653
 5341POPC   C1B 7579  28.937  44.617   8.553
 5341POPC   C2B 7580  28.944  44.559   8.253
 5341POPC   C3B 7581  28.897  44.562   7.953
 5341POPC   C4B 7582  28.888  44.591   7.653
 5342POPC   NC3 7583  16.702  42.325   9.453
 5342POPC   PO4 7584  16.767  42.312   9.153
 5342POPC   GL1 7585  16.741  42.358   8.853
 5342POPC   GL2 7586  16.819  42.388   8.853
 5342POPC   C1A 7587  16.773  42.354   8.553
 5342POPC   D2A 7588  16.723  42.368   8.253
 5342POPC   C3A 7589  16.776  42.312   7.953
 5342POPC   C4A 7590  16.780  42.332   7.653
 5342POPC   C1B 7591  16.846  42.513   8.553
 5342POPC   C2B 7592  16.920  42.564   8.253
 5342POPC   C3B 7593  16.854  42.555   7.953
 5342POPC   C4B 7594  16.885  42.500   7.653
 5343POPC   NC3 7595  22.205  13.656   9.453
 5343POPC   PO4 7596  22.185  13.602   9.153
 5343POPC   GL1 7597  22.203  13.601   8.853
 5343POPC   GL2 7598  22.232  13.721   8.853
 5343POPC   C1A 7599  22.140  13.632   8.553
 5343POPC   D2A 7600  22.185  13.671   8.253
 5343POPC   C3A 7601  22.189  13.628   7.953
 5343POPC   C4A 7602  22.140  13.596   7.653
 5343POPC   C1B 7603  22.266  13.811   8.553
 5343POPC   C2B 7604  22.238  13.842   8.253
 5343POPC   C3B 7605  22.243  13.846   7.953
 5343POPC   C4B 7606  22.284  13.840   7.653
 5344POPC   NC3 7607  36.175  26.075   9.453
 5344POPC   PO4 7608  36.114  25.997   9.153
 5344POPC   GL1 7609  36.113  26.085   8.853
 5344POPC   GL2 7610  36.159  26.139   8.853
 5344POPC   C1A 7611  36.128  26.027   8.553
 5344POPC   D2A 7612  36.087  26.000   8.253
 5344POPC   C3A 7613  36.111  26.064   7.953
 5344POPC   C4A 7614  36.105  26.030   7.653
 5344POPC   C1B 7615  36.203  26.288   8.553
 5344POPC   C2B 7616  36.229  26.284   8.253
 5344POPC   C3B 7617  36.222  26.273   7.953
 5344POPC   C4B 7618  36.179  26.295   7.653
 5345POPC   NC3 7619  42.291  43.856   9.453
 5345POPC   PO4 7620  42.294  43.874   9.153
 5345POPC   GL1 7621  42.368  43.918   8.853
 5345POPC   GL2 7622  42.449  44.026   8.853
 5345POPC   C1A 7623  42.327  43.904   8.553
 5345POPC   D2A 7624  42.314  43.888   8.253
 5345POPC   C3A 7625  42.326  43.888   7.953
 5345POPC   C4A 7626  42.353  43.862   7.653
 5345POPC   C1B 7627  42.469  44.101   8.553
 5345POPC   C2B 7628  42.492  44.069   8.253
 5345POPC   C3B 7629  42.493  44.052   7.953
 5345POPC   C4B 7630  42.494  44.124   7.653
 5346POPC   NC3 7631  26.016  40.774   9.453
 5346POPC   PO4 7632  26.026  40.810   9.153
 5346POPC   GL1 7633  26.049  40.762   8.853
 5346POPC   GL2 7634  25.946  40.840   8.853
 5346POPC   C1A 7635  26.062  40.762   8.553
 5346POPC   D2A 7636  26.031  40.779   8.253
 5346POPC   C3A 7637  26.011  40.820   7.953
 5346POPC   C4A 7638  26.013  40.754   7.653
 5346POPC   C1B 7639  25.768  40.845   8.553
 5346POPC   C2B 7640  25.788  40.765   8.253
 5346POPC   C3B 7641  25.780  40.761   7.953
 5346POPC   C4B 7642  25.791  40.766   7.653
 5347POPC   NC3 7643  19.818   4.292   9.453
 5347POPC   PO4 7644  19.865   4.287   9.153
 5347POPC   GL1 7645  19.798   4.316   8.853
 5347POPC   GL2 7646  19.741   4.453   8.853
 5347POPC   C1A 7647  19.857   4.271   8.553
 5347POPC   D2A 7648  19.806   4.306   8.253
 5347POPC   C3A 7649  19.872   4.300   7.953
 5347POPC   C4A 7650  19.881   4.302   7.653
 5347POPC   C1B 7651  19.711   4.583   8.553
 5347POPC   C2B 7652  19.725   4.513   8.253
 5347POPC   C3B 7653  19.695   4.574   7.953
 5347POPC   C4B 7654  19.710   4.502   7.653
 5348POPC   NC3 7655  16.733  40.771   9.453
 5348POPC   PO4 7656  16.779  40.761   9.153
 5348POPC   GL1 7657  16.751  40.752   8.853
 5348POPC   GL2 7658  16.865  40.767   8.853
 5348POPC   C1A 7659  16.743  40.811   8.553
 5348POPC   D2A 7660  16.771  40.825   8.253
 5348POPC   C3A 7661  16.700  40.823   7.953
 5348POPC   C4A 7662  16.697  40.754   7.653
 5348POPC   C1B 7663  16.990  40.826   8.553
 5348POPC   C2B 7664  17.014  40.861   8.253
 5348POPC   C3B 7665  17.008  40.876   7.953
 5348POPC   C4B 7666  17.018  40.856   7.653
 5349POPC   NC3 7667   4.354   7.425   9.453
 5349POPC   PO4 7668   4.350   7.447   9.153
 5349POPC   GL1 7669   4.362   7.392   8.853
 5349POPC   GL2 7670   4.262   7.461   8.853
 5349POPC   C1A 7671   4.333   7.435   8.553
 5349POPC   D2A 7672   4.351   7.425   8.253
 5349POPC   C3A 7673   4.357   7.432   7.953
 5349POPC   C4A 7674   4.349   7.402   7.653
 5349POPC   C1B 7675   4.180   7.541   8.553
 5349POPC   C2B 7676   4.124   7.582   8.253
 5349POPC   C3B 7677   4.135   7.571   7.953
 5349POPC   C4B 7678   4.124   7.598   7.653
 5350POPC   NC3 7679  10.492  30.654   9.453
 5350POPC   PO4 7680  10.508  30.726   9.153
 5350POPC   GL1 7681  10.494  30.713   8.853
 5350POPC   GL2 7682  10.350  30.696   8.853
 5350POPC   C1A 7683  10.538  30.683   8.553
 5350POPC   D2A 7684  10.556  30.678   8.253
 5350POPC   C3A 7685  10.494  30.719   7.953
 5350POPC   C4A 7686  10.533  30.746   7.653
 5350POPC   C1B 7687  10.293  30.679   8.553
 5350POPC   C2B 7688  10.283  30.673   8.253
 5350POPC   C3B 7689  10.258  30.712   7.953
 5350POPC   C4B 7690  10.275  30.757   7.653
 5351POPC   NC3 7691  12.087  15.178   9.453
 5351POPC   PO4 7692  12.085  15.227   9.153
 5351POPC   GL1 7693  12.108  15.196   8.853
 5351POPC   GL2 7694  12.152  15.100   8.853
 5351POPC   C1A 7695  12.062  15.156   8.553
 5351POPC   D2A 7696  12.056  15.178   8.253
 5351POPC   C3A 7697  12.108  15.196   7.953
 5351POPC   C4A 7698  12.126  15.145   7.653
 5351POPC   C1B 7699  12.350  15.060   8.553
 5351POPC   C2B 7700  12.351  15.075   8.253
 5351POPC   C3B 7701  12.291  15.056   7.953
 5351POPC   C4B 7702  12.324  15.049   7.653
 5352POPC   NC3 7703  37.712  19.827   9.453
 5352POPC   PO4 7704  37.720  19.833   9.153
 5352POPC   GL1 7705  37.696  19.816   8.853
 5352POPC   GL2 7706  37.547  19.837   8.853
 5352POPC   C1A 7707  37.655  19.830   8.553
 5352POPC   D2A 7708  37.678  19.832   8.253
 5352POPC   C3A 7709  37.686  19.867   7.953
 5352POPC   C4A 7710  37.702  19.855   7.653
 5352POPC   C1B 7711  37.395  19.846   8.553
 5352POPC   C2B 7712  37.386  19.850   8.253
 5352POPC   C3B 7713  37.388  19.852   7.953
 5352POPC   C4B 7714  37.413  19.836   7.653
 5353POPC   NC3 7715   4.357  11.271   9.453
 5353POPC   PO4 7716   4.359  11.332   9.153
 5353POPC   GL1 7717   4.294  11.310   8.853
 5353POPC   GL2 7718   4.407  11.213   8.853
 5353POPC   C1A 7719   4.278  11.346   8.553
 5353POPC   D2A 7720   4.293  11.253   8.253
 5353POPC   C3A 7721   4.294  11.253   7.953
 5353POPC   C4A 7722   4.306  11.294   7.653
 5353POPC   C1B 7723   4.486  11.085   8.553
 5353POPC   C2B 7724   4.430  11.107   8.253
 5353POPC   C3B 7725   4.417  11.065   7.953
 5353POPC   C4B 7726   4.474  11.111   7.653
 5354POPC   NC3 7727  26.091   6.605   9.453
 5354POPC   PO4 7728  26.053   6.674   9.153
 5354POPC   GL1 7729  26.001   6.604   8.853
 5354POPC   GL2 7730  25.902   6.634   8.853
 5354POPC   C1A 7731  26.075   6.615   8.553
 5354POPC   D2A 7732  26.072   6.642   8.253
 5354POPC   C3A 7733  26.040   6.656   7.953
 5354POPC   C4A 7734  26.068   6.629   7.653
 5354POPC   C1B 7735  25.818   6.528   8.553
 5354POPC   C2B 7736  25.840   6.532   8.253
 5354POPC   C3B 7737  25.782   6.527   7.953
 5354POPC   C4B 7738  25.780   6.544   7.653
 5355POPC   NC3 7739  13.665  16.743   9.453
 5355POPC   PO4 7740  13.621  16.727   9.153
 5355POPC   GL1 7741  13.659  16.699   8.853
 5355POPC   GL2 7742  13.756  16.735   8.853
 5355POPC   C1A 7743  13.594  16.688   8.553
 5355POPC   D2A 7744  13.603  16.721   8.253
 5355POPC   C3A 7745  13.594  16.699   7.953
 5355POPC   C4A 7746  13.645  16.747   7.653
 5355POPC   C1B 7747  13.903  16.778   8.553
 5355POPC   C2B 7748  13.920  16.777   8.253
 5355POPC   C3B 7749  13.887  16.774   7.953
 5355POPC   C4B 7750  13.838  16.741   7.653
 5356POPC   NC3 7751  35.397  28.396   9.453
 5356POPC   PO4 7752  35.375  28.338   9.153
 5356POPC   GL1 7753  35.330  28.358   8.853
 5356POPC   GL2 7754  35.386  28.453   8.853
 5356POPC   C1A 7755  35.365  28.392   8.553
 5356POPC   D2A 7756  35.401  28.330   8.253
 5356POPC   C3A 7757  35.333  28.403   7.953
 5356POPC   C4A 7758  35.338  28.364   7.653
 5356POPC   C1B 7759  35.348  28.612   8.553
 5356POPC   C2B 7760  35.295  28.586   8.253
 5356POPC   C3B 7761  35.316  28.604   7.953
 5356POPC   C4B 7762  35.333  28.614   7.653
 5357POPC   NC3 7763  17.530   1.209   9.453
 5357POPC   PO4 7764  17.529   1.219   9.153
 5357POPC   GL1 7765  17.482   1.206   8.853
 5357POPC   GL2 7766  17.517   1.353   8.853
 5357POPC   C1A 7767  17.458   1.239   8.553
 5357POPC   D2A 7768  17.494   1.178   8.253
 5357POPC   C3A 7769  17.537   1.185   7.953
 5357POPC   C4A 7770  17.479   1.259   7.653
 5357POPC   C1B 7771  17.450   1.475   8.553
 5357POPC   C2B 7772  17.465   1.492   8.253
 5357POPC   C3B 7773  17.529   1.470   7.953
 5357POPC   C4B 7774  17.457   1.490   7.653
 5358POPC   NC3 7775  42.290  31.426   9.453
 5358POPC   PO4 7776  42.362  31.478   9.153
 5358POPC   GL1 7777  42.382  31.505   8.853
 5358POPC   GL2 7778  42.330  31.591   8.853
 5358POPC   C1A 7779  42.367  31.519   8.553
 5358POPC   D2A 7780  42.323  31.489   8.253
 5358POPC   C3A 7781  42.339  31.434   7.953
 5358POPC   C4A 7782  42.371  31.512   7.653
 5358POPC   C1B 7783  42.394  31.720   8.553
 5358POPC   C2B 7784  42.381  31.680   8.253
 5358POPC   C3B 7785  42.326  31.713   7.953
 5358POPC   C4B 7786  42.389  31.687   7.653
 5359POPC   NC3 7787   2.810  19.809   9.453
 5359POPC   PO4 7788   2.787  19.844   9.153
 5359POPC   GL1 7789   2.743  19.862   8.853
 5359POPC   GL2 7790   2.849  19.731   8.853
 5359POPC   C1A 7791   2.758  19.881   8.553
 5359POPC   D2A 7792   2.761  19.809   8.253
 5359POPC   C3A 7793   2.814  19.867   7.953
 5359POPC   C4A 7794   2.815  19.847   7.653
 5359POPC   C1B 7795   2.977  19.694   8.553
 5359POPC   C2B 7796   2.971  19.725   8.253
 5359POPC   C3B 7797   2.942  19.651   7.953
 5359POPC   C4B 7798   2.982  19.648   7.653
 5360POPC   NC3 7799  38.478  24.455   9.453
 5360POPC   PO4 7800  38.477  24.504   9.153
 5360POPC   GL1 7801  38.407  24.518   8.853
 5360POPC   GL2 7802  38.375  24.545   8.853
 5360POPC   C1A 7803  38.448  24.452   8.553
 5360POPC   D2A 7804  38.405  24.501   8.253
 5360POPC   C3A 7805  38.412  24.453   7.953
 5360POPC   C4A 7806  38.470  24.461   7.653
 5360POPC   C1B 7807  38.210  24.531   8.553
 5360POPC   C2B 7808  38.209  24.496   8.253
 5360POPC   C3B 7809  38.234  24.506   7.953
 5360POPC   C4B 7810  38.170  24.547   7.653
 5361POPC   NC3 7811  33.009   0.411   9.453
 5361POPC   PO4 7812  32.995   0.440   9.153
 5361POPC   GL1 7813  32.975   0.432   8.853
 5361POPC   GL2 7814  32.964   0.579   8.853
 5361POPC   C1A 7815  33.006   0.453   8.553
 5361POPC   D2A 7816  32.982   0.454   8.253
 5361POPC   C3A 7817  33.073   0.396   7.953
 5361POPC   C4A 7818  33.010   0.400   7.653
 5361POPC   C1B 7819  32.958   0.731   8.553
 5361POPC   C2B 7820  33.018   0.729   8.253
 5361POPC   C3B 7821  32.995   0.674   7.953
 5361POPC   C4B 7822  32.999   0.665   7.653
 5362POPC   NC3 7823   8.953  35.365   9.453
 5362POPC   PO4 7824   9.022  35.399   9.153
 5362POPC   GL1 7825   9.012  35.386   8.853
 5362POPC   GL2 7826   8.994  35.500   8.853
 5362POPC   C1A 7827   9.010  35.345   8.553
 5362POPC   D2A 7828   8.976  35.355   8.253
 5362POPC   C3A 7829   8.956  35.365   7.953
 5362POPC   C4A 7830   8.950  35.388   7.653
 5362POPC   C1B 7831   9.011  35.583   8.553
 5362POPC   C2B 7832   9.057  35.604   8.253
 5362POPC   C3B 7833   8.992  35.646   7.953
 5362POPC   C4B 7834   9.012  35.585   7.653
 5363POPC   NC3 7835  30.665  26.786   9.453
 5363POPC   PO4 7836  30.672  26.772   9.153
 5363POPC   GL1 7837  30.745  26.784   8.853
 5363POPC   GL2 7838  30.574  26.761   8.853
 5363POPC   C1A 7839  30.729  26.797   8.553
 5363POPC   D2A 7840  30.701  26.768   8.253
 5363POPC   C3A 7841  30.647  26.836   7.953
 5363POPC   C4A 7842  30.742  26.779   7.653
 5363POPC   C1B 7843  30.447  26.756   8.553
 5363POPC   C2B 7844  30.461  26.763   8.253
 5363POPC   C3B 7845  30.463  26.760   7.953
 5363POPC   C4B 7846  30.500  26.778   7.653
 5364POPC   NC3 7847  34.541  10.569   9.453
 5364POPC   PO4 7848  34.614  10.571   9.153
 5364POPC   GL1 7849  34.586  10.522   8.853
 5364POPC   GL2 7850  34.460  10.452   8.853
 5364POPC   C1A 7851  34.527  10.567   8.553
 5364POPC   D2A 7852  34.609  10.522   8.253
 5364POPC   C3A 7853  34.542  10.552   7.953
 5364POPC   C4A 7854  34.591  10.503   7.653
 5364POPC   C1B 7855  34.319  10.459   8.553
 5364POPC   C2B 7856  34.384  10.403   8.253
 5364POPC   C3B 7857  34.300  10.431   7.953
 5364POPC   C4B 7858  34.312  10.394   7.653
 5365POPC   NC3 7859  22.145   2.723   9.453
 5365POPC   PO4 7860  22.174   2.738   9.153
 5365POPC   GL1 7861  22.149   2.748   8.853
 5365POPC   GL2 7862  22.258   2.727   8.853
 5365POPC   C1A 7863  22.129   2.798   8.553
 5365POPC   D2A 7864  22.160   2.782   8.253
 5365POPC   C3A 7865  22.129   2.733   7.953
 5365POPC   C4A 7866  22.197   2.725   7.653
 5365POPC   C1B 7867  22.345   2.635   8.553
 5365POPC   C2B 7868  22.361   2.605   8.253
 5365POPC   C3B 7869  22.373   2.628   7.953
 5365POPC   C4B 7870  22.393   2.639   7.653
 5366POPC   NC3 7871   5.097  13.618   9.453
 5366POPC   PO4 7872   5.094  13.623   9.153
 5366POPC   GL1 7873   5.104  13.622   8.853
 5366POPC   GL2 7874   5.124  13.729   8.853
 5366POPC   C1A 7875   5.136  13.652   8.553
 5366POPC   D2A 7876   5.072  13.677   8.253
 5366POPC   C3A 7877   5.070  13.667   7.953
 5366POPC   C4A 7878   5.059  13.613   7.653
 5366POPC   C1B 7879   5.250  13.877   8.553
 5366POPC   C2B 7880   5.204  13.866   8.253
 5366POPC   C3B 7881   5.198  13.873   7.953
 5366POPC   C4B 7882   5.230  13.801   7.653
 5367POPC   NC3 7883  22.957  30.696   9.453
 5367POPC   PO4 7884  22.945  30.669   9.153
 5367POPC   GL1 7885  22.927  30.717   8.853
 5367POPC   GL2 7886  22.831  30.697   8.853
 5367POPC   C1A 7887  22.905  30.705   8.553
 5367POPC   D2A 7888  22.897  30.692   8.253
 5367POPC   C3A 7889  22.931  30.707   7.953
 5367POPC   C4A 7890  22.943  30.675   7.653
 5367POPC   C1B 7891  22.679  30.631   8.553
 5367POPC   C2B 7892  22.742  30.656   8.253
 5367POPC   C3B 7893  22.706  30.591   7.953
 5367POPC   C4B 7894  22.651  30.670   7.653
 5368POPC   NC3 7895  18.257  37.659   9.453
 5368POPC   PO4 7896  18.319  37.697   9.153
 5368POPC   GL1 7897  18.250  37.642   8.853
 5368POPC   GL2 7898  18.116  37.681   8.853
 5368POPC   C1A 7899  18.253  37.660   8.553
 5368POPC   D2A 7900  18.254  37.639   8.253
 5368POPC   C3A 7901  18.319  37.650   7.953
 5368POPC   C4A 7902  18.240  37.716   7.653
 5368POPC   C1B 7903  18.009  37.606   8.553
 5368POPC   C2B 7904  18.030  37.565   8.253
 5368POPC   C3B 7905  18.075  37.615   7.953
 5368POPC   C4B 7906  18.015  37.576   7.653
 5369POPC   NC3 7907   2.743  14.448   9.453
 5369POPC   PO4 7908   2.812  14.375   9.153
 5369POPC   GL1 7909   2.720  14.376   8.853
 5369POPC   GL2 7910   2.670  14.371   8.853
 5369POPC   C1A 7911   2.812  14.363   8.553
 5369POPC   D2A 7912   2.739  14.382   8.253
 5369POPC   C3A 7913   2.806  14.367   7.953
 5369POPC   C4A 7914   2.787  14.432   7.653
 5369POPC   C1B 7915   2.499  14.286   8.553
 5369POPC   C2B 7916   2.566  14.251   8.253
 5369POPC   C3B 7917   2.512  14.278   7.953
 5369POPC   C4B 7918   2.521  14.233   7.653
 5370POPC   NC3 7919   3.517   3.581   9.453
 5370POPC   PO4 7920   3.509   3.524   9.153
 5370POPC   GL1 7921   3.575   3.527   8.853
 5370POPC   GL2 7922   3.550   3.671   8.853
 5370POPC   C1A 7923   3.541   3.500   8.553
 5370POPC   D2A 7924   3.547   3.564   8.253
 5370POPC   C3A 7925   3.559   3.503   7.953
 5370POPC   C4A 7926   3.509   3.575   7.653
 5370POPC   C1B 7927   3.546   3.817   8.553
 5370POPC   C2B 7928   3.594   3.815   8.253
 5370POPC   C3B 7929   3.563   3.810   7.953
 5370POPC   C4B 7930   3.594   3.774   7.653
 5371POPC   NC3 7931  26.818  20.583   9.453
 5371POPC   PO4 7932  26.839  20.588   9.153
 5371POPC   GL1 7933  26.863  20.578   8.853
 5371POPC   GL2 7934  26.944  20.539   8.853
 5371POPC   C1A 7935  26.806  20.637   8.553
 5371POPC   D2A 7936  26.788  20.628   8.253
 5371POPC   C3A 7937  26.803  20.655   7.953
 5371POPC   C4A 7938  26.854  20.623   7.653
 5371POPC   C1B 7939  26.977  20.422   8.553
 5371POPC   C2B 7940  27.029  20.452   8.253
 5371POPC   C3B 7941  27.018  20.435   7.953
 5371POPC   C4B 7942  26.982  20.440   7.653
 5372POPC   NC3 7943  37.671  22.908   9.453
 5372POPC   PO4 7944  37.645  22.927   9.153
 5372POPC   GL1 7945  37.632  22.931   8.853
 5372POPC   GL2 7946  37.598  22.836   8.853
 5372POPC   C1A 7947  37.639  22.928   8.553
 5372POPC   D2A 7948  37.672  22.954   8.253
 5372POPC   C3A 7949  37.681  22.912   7.953
 5372POPC   C4A 7950  37.725  22.980   7.653
 5372POPC   C1B 7951  37.572  22.695   8.553
 5372POPC   C2B 7952  37.569  22.718   8.253
 5372POPC   C3B 7953  37.556  22.686   7.953
 5372POPC   C4B 7954  37.618  22.675   7.653
 5373POPC   NC3 7955  37.715  43.914   9.453
 5373POPC   PO4 7956  37.694  43.858   9.153
 5373POPC   GL1 7957  37.646  43.898   8.853
 5373POPC   GL2 7958  37.765  43.924   8.853
 5373POPC   C1A 7959  37.658  43.910   8.553
 5373POPC   D2A 7960  37.685  43.866   8.253
 5373POPC   C3A 7961  37.712  43.899   7.953
 5373POPC   C4A 7962  37.679  43.852   7.653
 5373POPC   C1B 7963  37.921  44.049   8.553
 5373POPC   C2B 7964  37.891  43.994   8.253
 5373POPC   C3B 7965  37.897  43.997   7.953
 5373POPC   C4B 7966  37.834  44.031   7.653
 5374POPC   NC3 7967  20.628  16.720   9.453
 5374POPC   PO4 7968  20.641  16.731   9.153
 5374POPC   GL1 7969  20.628  16.730   8.853
 5374POPC   GL2 7970  20.594  16.619   8.853
 5374POPC   C1A 7971  20.564  16.721   8.553
 5374POPC   D2A 7972  20.566  16.736   8.253
 5374POPC   C3A 7973  20.604  16.690   7.953
 5374POPC   C4A 7974  20.640  16.729   7.653
 5374POPC   C1B 7975  20.525  16.539   8.553
 5374POPC   C2B 7976  20.556  16.524   8.253
 5374POPC   C3B 7977  20.479  16.449   7.953
 5374POPC   C4B 7978  20.560  16.483   7.653
 5375POPC   NC3 7979  28.335  43.864   9.453
 5375POPC   PO4 7980  28.400  43.922   9.153
 5375POPC   GL1 7981  28.338  43.859   8.853
 5375POPC   GL2 7982  28.385  44.024   8.853
 5375POPC   C1A 7983  28.337  43.892   8.553
 5375POPC   D2A 7984  28.365  43.890   8.253
 5375POPC   C3A 7985  28.399  43.900   7.953
 5375POPC   C4A 7986  28.375  43.903   7.653
 5375POPC   C1B 7987  28.286  44.116   8.553
 5375POPC   C2B 7988  28.271  44.087   8.253
 5375POPC   C3B 7989  28.350  44.172   7.953
 5375POPC   C4B 7990  28.291  44.124   7.653
 5376POPC   NC3 7991  32.219  20.570   9.453
 5376POPC   PO4 7992  32.224  20.602   9.153
 5376POPC   GL1 7993  32.254  20.619   8.853
 5376POPC   GL2 7994  32.224  20.727   8.853
 5376POPC   C1A 7995  32.213  20.640   8.553
 5376POPC   D2A 7996  32.206  20.635   8.253
 5376POPC   C3A 7997  32.286  20.586   7.953
 5376POPC   C4A 7998  32.242  20.611   7.653
 5376POPC   C1B 7999  32.253  20.812   8.553
 5376POPC   C2B 8000  32.203  20.868   8.253
 5376POPC   C3B 8001  32.246  20.856   7.953
 5376POPC   C4B 8002  32.212  20.818   7.653
 5377POPC   NC3 8003  26.789  22.901   9.453
 5377POPC   PO4 8004  26.804  22.909   9.153
 5377POPC   GL1 8005  26.794  22.908   8.853
 5377POPC   GL2 8006  26.723  22.933   8.853
 5377POPC   C1A 8007  26.867  22.907   8.553
 5377POPC   D2A 8008  26.796  22.929   8.253
 5377POPC   C3A 8009  26.816  22.943   7.953
 5377POPC   C4A 8010  26.816  22.915   7.653
 5377POPC   C1B 8011  26.561  23.033   8.553
 5377POPC   C2B 8012  26.549  23.053   8.253
 5377POPC   C3B 8013  26.544  22.964   7.953
 5377POPC   C4B 8014  26.570  22.974   7.653
 5378POPC   NC3 8015   8.155   0.396   9.453
 5378POPC   PO4 8016   8.215   0.455   9.153
 5378POPC   GL1 8017   8.176   0.437   8.853
 5378POPC   GL2 8018   8.107   0.365   8.853
 5378POPC   C1A 8019   8.148   0.412   8.553
 5378POPC   D2A 8020   8.174   0.444   8.253
 5378POPC   C3A 8021   8.245   0.439   7.953
 5378POPC   C4A 8022   8.238   0.471   7.653
 5378POPC   C1B 8023   7.997   0.260   8.553
 5378POPC   C2B 8024   7.983   0.291   8.253
 5378POPC   C3B 8025   8.001   0.274   7.953
 5378POPC   C4B 8026   8.017   0.286   7.653
 5379POPC   NC3 8027   9.001  12.103   9.453
 5379POPC   PO4 8028   8.953  12.120   9.153
 5379POPC   GL1 8029   8.981  12.065   8.853
 5379POPC   GL2 8030   8.896  12.157   8.853
 5379POPC   C1A 8031   8.984  12.087   8.553
 5379POPC   D2A 8032   8.954  12.074   8.253
 5379POPC   C3A 8033   8.927  12.109   7.953
 5379POPC   C4A 8034   8.924  12.063   7.653
 5379POPC   C1B 8035   8.794  12.259   8.553
 5379POPC   C2B 8036   8.801  12.281   8.253
 5379POPC   C3B 8037   8.840  12.287   7.953
 5379POPC   C4B 8038   8.797  12.297   7.653
 5380POPC   NC3 8039  34.575   9.020   9.453
 5380POPC   PO4 8040  34.528   8.958   9.153
 5380POPC   GL1 8041  34.542   8.990   8.853
 5380POPC   GL2 8042  34.594   8.871   8.853
 5380POPC   C1A 8043  34.590   9.006   8.553
 5380POPC   D2A 8044  34.618   8.923   8.253
 5380POPC   C3A 8045  34.606   8.960   7.953
 5380POPC   C4A 8046  34.541   8.930   7.653
 5380POPC   C1B 8047  34.589   8.762   8.553
 5380POPC   C2B 8048  34.610   8.712   8.253
 5380POPC   C3B 8049  34.581   8.707   7.953
 5380POPC   C4B 8050  34.587   8.703   7.653
 5381POPC   NC3 8051   4.286   4.317   9.453
 5381POPC   PO4 8052   4.323   4.302   9.153
 5381POPC   GL1 8053   4.313   4.281   8.853
 5381POPC   GL2 8054   4.299   4.155   8.853
 5381POPC   C1A 8055   4.340   4.325   8.553
 5381POPC   D2A 8056   4.364   4.317   8.253
 5381POPC   C3A 8057   4.335   4.288   7.953
 5381POPC   C4A 8058   4.276   4.339   7.653
 5381POPC   C1B 8059   4.350   4.040   8.553
 5381POPC   C2B 8060   4.299   4.031   8.253
 5381POPC   C3B 8061   4.346   4.061   7.953
 5381POPC   C4B 8062   4.358   4.027   7.653
 5382POPC   NC3 8063  36.888  19.047   9.453
 5382POPC   PO4 8064  36.909  19.091   9.153
 5382POPC   GL1 8065  36.916  19.049   8.853
 5382POPC   GL2 8066  36.924  18.917   8.853
 5382POPC   C1A 8067  36.882  19.041   8.553
 5382POPC   D2A 8068  36.907  19.037   8.253
 5382POPC   C3A 8069  36.922  19.024   7.953
 5382POPC   C4A 8070  36.872  19.010   7.653
 5382POPC   C1B 8071  36.837  18.793   8.553
 5382POPC   C2B 8072  36.879  18.811   8.253
 5382POPC   C3B 8073  36.902  18.859   7.953
 5382POPC   C4B 8074  36.885  18.809   7.653
 5383POPC   NC3 8075  30.716  27.601   9.453
 5383POPC   PO4 8076  30.677  27.556   9.153
 5383POPC   GL1 8077  30.723  27.584   8.853
 5383POPC   GL2 8078  30.625  27.643   8.853
 5383POPC   C1A 8079  30.675  27.546   8.553
 5383POPC   D2A 8080  30.715  27.546   8.253
 5383POPC   C3A 8081  30.659  27.571   7.953
 5383POPC   C4A 8082  30.678  27.588   7.653
 5383POPC   C1B 8083  30.424  27.668   8.553
 5383POPC   C2B 8084  30.453  27.664   8.253
 5383POPC   C3B 8085  30.462  27.644   7.953
 5383POPC   C4B 8086  30.470  27.673   7.653
 5384POPC   NC3 8087  28.418   7.453   9.453
 5384POPC   PO4 8088  28.415   7.377   9.153
 5384POPC   GL1 8089  28.360   7.392   8.853
 5384POPC   GL2 8090  28.298   7.469   8.853
 5384POPC   C1A 8091  28.359   7.411   8.553
 5384POPC   D2A 8092  28.353   7.424   8.253
 5384POPC   C3A 8093  28.333   7.394   7.953
 5384POPC   C4A 8094  28.415   7.445   7.653
 5384POPC   C1B 8095  28.135   7.520   8.553
 5384POPC   C2B 8096  28.177   7.447   8.253
 5384POPC   C3B 8097  28.175   7.458   7.953
 5384POPC   C4B 8098  28.091   7.479   7.653
 5385POPC   NC3 8099  12.883  37.725   9.453
 5385POPC   PO4 8100  12.890  37.683   9.153
 5385POPC   GL1 8101  12.811  37.648   8.853
 5385POPC   GL2 8102  12.702  37.625   8.853
 5385POPC   C1A 8103  12.890  37.667   8.553
 5385POPC   D2A 8104  12.869  37.641   8.253
 5385POPC   C3A 8105  12.814  37.709   7.953
 5385POPC   C4A 8106  12.855  37.687   7.653
 5385POPC   C1B 8107  12.605  37.539   8.553
 5385POPC   C2B 8108  12.612  37.529   8.253
 5385POPC   C3B 8109  12.665  37.545   7.953
 5385POPC   C4B 8110  12.641  37.542   7.653
 5386POPC   NC3 8111   7.468  24.512   9.453
 5386POPC   PO4 8112   7.378  24.511   9.153
 5386POPC   GL1 8113   7.403  24.506   8.853
 5386POPC   GL2 8114   7.356  24.576   8.853
 5386POPC   C1A 8115   7.385  24.521   8.553
 5386POPC   D2A 8116   7.443  24.498   8.253
 5386POPC   C3A 8117   7.458  24.517   7.953
 5386POPC   C4A 8118   7.401  24.469   7.653
 5386POPC   C1B 8119   7.252  24.683   8.553
 5386POPC   C2B 8120   7.185  24.632   8.253
 5386POPC   C3B 8121   7.245  24.670   7.953
 5386POPC   C4B 8122   7.199  24.698   7.653
 5387POPC   NC3 8123  21.363  10.513   9.453
 5387POPC   PO4 8124  21.353  10.498   9.153
 5387POPC   GL1 8125  21.407  10.562   8.853
 5387POPC   GL2 8126  21.429  10.623   8.853
 5387POPC   C1A 8127  21.420  10.494   8.553
 5387POPC   D2A 8128  21.379  10.561   8.253
 5387POPC   C3A 8129  21.376  10.507   7.953
 5387POPC   C4A 8130  21.415  10.523   7.653
 5387POPC   C1B 8131  21.516  10.774   8.553
 5387POPC   C2B 8132  21.465  10.761   8.253
 5387POPC   C3B 8133  21.546  10.751   7.953
 5387POPC   C4B 8134  21.454  10.771   7.653
 5388POPC   NC3 8135  44.702  32.242   9.453
 5388POPC   PO4 8136  44.693  32.273   9.153
 5388POPC   GL1 8137  44.639  32.241   8.853
 5388POPC   GL2 8138  44.742  32.149   8.853
 5388POPC   C1A 8139  44.625  32.200   8.553
 5388POPC   D2A 8140  44.643  32.281   8.253
 5388POPC   C3A 8141  44.680  32.218   7.953
 5388POPC   C4A 8142  44.616  32.211   7.653
 5388POPC   C1B 8143  44.731  32.021   8.553
 5388POPC   C2B 8144  44.724  32.051   8.253
 5388POPC   C3B 8145  44.727  32.011   7.953
 5388POPC   C4B 8146  44.780  31.965   7.653
 5389POPC   NC3 8147  23.670  29.922   9.453
 5389POPC   PO4 8148  23.671  29.890   9.153
 5389POPC   GL1 8149  23.738  29.901   8.853
 5389POPC   GL2 8150  23.724  29.765   8.853
 5389POPC   C1A 8151  23.723  29.900   8.553
 5389POPC   D2A 8152  23.676  29.938   8.253
 5389POPC   C3A 8153  23.681  29.891   7.953
 5389POPC   C4A 8154  23.690  29.955   7.653
 5389POPC   C1B 8155  23.802  29.725   8.553
 5389POPC   C2B 8156  23.779  29.629   8.253
 5389POPC   C3B 8157  23.733  29.692   7.953
 5389POPC   C4B 8158  23.723  29.629   7.653
 5390POPC   NC3 8159  39.243   9.740   9.453
 5390POPC   PO4 8160  39.198   9.793   9.153
 5390POPC   GL1 8161  39.220   9.749   8.853
 5390POPC   GL2 8162  39.376   9.753   8.853
 5390POPC   C1A 8163  39.181   9.777   8.553
 5390POPC   D2A 8164  39.227   9.764   8.253
 5390POPC   C3A 8165  39.191   9.785   7.953
 5390POPC   C4A 8166  39.225   9.716   7.653
 5390POPC   C1B 8167  39.523   9.730   8.553
 5390POPC   C2B 8168  39.425   9.728   8.253
 5390POPC   C3B 8169  39.522   9.727   7.953
 5390POPC   C4B 8170  39.498   9.705   7.653
 5391POPC   NC3 8171  38.490  19.856   9.453
 5391POPC   PO4 8172  38.498  19.836   9.153
 5391POPC   GL1 8173  38.458  19.869   8.853
 5391POPC   GL2 8174  38.347  19.954   8.853
 5391POPC   C1A 8175  38.475  19.863   8.553
 5391POPC   D2A 8176  38.436  19.802   8.253
 5391POPC   C3A 8177  38.409  19.813   7.953
 5391POPC   C4A 8178  38.440  19.824   7.653
 5391POPC   C1B 8179  38.321  19.997   8.553
 5391POPC   C2B 8180  38.262  20.056   8.253
 5391POPC   C3B 8181  38.237  20.023   7.953
 5391POPC   C4B 8182  38.256  20.052   7.653
 5392POPC   NC3 8183  36.128  39.969   9.453
 5392POPC   PO4 8184  36.094  39.979   9.153
 5392POPC   GL1 8185  36.117  40.018   8.853
 5392POPC   GL2 8186  36.282  40.047   8.853
 5392POPC   C1A 8187  36.155  40.045   8.553
 5392POPC   D2A 8188  36.138  40.003   8.253
 5392POPC   C3A 8189  36.146  40.057   7.953
 5392POPC   C4A 8190  36.159  40.033   7.653
 5392POPC   C1B 8191  36.337  40.022   8.553
 5392POPC   C2B 8192  36.345  40.025   8.253
 5392POPC   C3B 8193  36.365  40.075   7.953
 5392POPC   C4B 8194  36.344  40.017   7.653
 5393POPC   NC3 8195  19.880   5.897   9.453
 5393POPC   PO4 8196  19.838   5.909   9.153
 5393POPC   GL1 8197  19.825   5.875   8.853
 5393POPC   GL2 8198  19.941   5.968   8.853
 5393POPC   C1A 8199  19.831   5.849   8.553
 5393POPC   D2A 8200  19.815   5.838   8.253
 5393POPC   C3A 8201  19.786   5.906   7.953
 5393POPC   C4A 8202  19.880   5.829   7.653
 5393POPC   C1B 8203  19.950   6.065   8.553
 5393POPC   C2B 8204  20.020   6.060   8.253
 5393POPC   C3B 8205  20.004   6.085   7.953
 5393POPC   C4B 8206  20.036   6.035   7.653
 5394POPC   NC3 8207   3.554   5.072   9.453
 5394POPC   PO4 8208   3.493   5.057   9.153
 5394POPC   GL1 8209   3.575   5.069   8.853
 5394POPC   GL2 8210   3.399   5.099   8.853
 5394POPC   C1A 8211   3.582   5.102   8.553
 5394POPC   D2A 8212   3.511   5.107   8.253
 5394POPC   C3A 8213   3.538   5.090   7.953
 5394POPC   C4A 8214   3.544   5.083   7.653
 5394POPC   C1B 8215   3.335   5.035   8.553
 5394POPC   C2B 8216   3.275   5.008   8.253
 5394POPC   C3B 8217   3.295   5.005   7.953
 5394POPC   C4B 8218   3.270   5.048   7.653
 5395POPC   NC3 8219  30.667  13.630   9.453
 5395POPC   PO4 8220  30.655  13.648   9.153
 5395POPC   GL1 8221  30.665  13.669   8.853
 5395POPC   GL2 8222  30.714  13.458   8.853
 5395POPC   C1A 8223  30.697  13.606   8.553
 5395POPC   D2A 8224  30.731  13.644   8.253
 5395POPC   C3A 8225  30.700  13.591   7.953
 5395POPC   C4A 8226  30.668  13.628   7.653
 5395POPC   C1B 8227  30.741  13.394   8.553
 5395POPC   C2B 8228  30.803  13.429   8.253
 5395POPC   C3B 8229  30.797  13.429   7.953
 5395POPC   C4B 8230  30.717  13.418   7.653
 5396POPC   NC3 8231  17.495  38.500   9.453
 5396POPC   PO4 8232  17.553  38.423   9.153
 5396POPC   GL1 8233  17.506  38.472   8.853
 5396POPC   GL2 8234  17.446  38.541   8.853
 5396POPC   C1A 8235  17.466  38.449   8.553
 5396POPC   D2A 8236  17.546  38.452   8.253
 5396POPC   C3A 8237  17.470  38.428   7.953
 5396POPC   C4A 8238  17.494  38.491   7.653
 5396POPC   C1B 8239  17.477  38.744   8.553
 5396POPC   C2B 8240  17.502  38.704   8.253
 5396POPC   C3B 8241  17.407  38.716   7.953
 5396POPC   C4B 8242  17.468  38.678   7.653
 5397POPC   NC3 8243  37.644  14.386   9.453
 5397POPC   PO4 8244  37.665  14.381   9.153
 5397POPC   GL1 8245  37.675  14.394   8.853
 5397POPC   GL2 8246  37.745  14.449   8.853
 5397POPC   C1A 8247  37.726  14.390   8.553
 5397POPC   D2A 8248  37.723  14.400   8.253
 5397POPC   C3A 8249  37.675  14.378   7.953
 5397POPC   C4A 8250  37.689  14.379   7.653
 5397POPC   C1B 8251  37.906  14.603   8.553
 5397POPC   C2B 8252  37.834  14.557   8.253
 5397POPC   C3B 8253  37.857  14.570   7.953
 5397POPC   C4B 8254  37.831  14.544   7.653
 5398POPC   NC3 8255   9.737  31.497   9.453
 5398POPC   PO4 8256   9.728  31.491   9.153
 5398POPC   GL1 8257   9.776  31.447   8.853
 5398POPC   GL2 8258   9.792  31.606   8.853
 5398POPC   C1A 8259   9.708  31.447   8.553
 5398POPC   D2A 8260   9.777  31.495   8.253
 5398POPC   C3A 8261   9.791  31.464   7.953
 5398POPC   C4A 8262   9.752  31.471   7.653
 5398POPC   C1B 8263   9.727  31.701   8.553
 5398POPC   C2B 8264   9.760  31.681   8.253
 5398POPC   C3B 8265   9.722  31.762   7.953
 5398POPC   C4B 8266   9.779  31.725   7.653
 5399POPC   NC3 8267  16.718  17.535   9.453
 5399POPC   PO4 8268  16.760  17.529   9.153
 5399POPC   GL1 8269  16.694  17.485   8.853
 5399POPC   GL2 8270  16.578  17.527   8.853
 5399POPC   C1A 8271  16.741  17.476   8.553
 5399POPC   D2A 8272  16.775  17.469   8.253
 5399POPC   C3A 8273  16.721  17.462   7.953
 5399POPC   C4A 8274  16.745  17.476   7.653
 5399POPC   C1B 8275  16.451  17.547   8.553
 5399POPC   C2B 8276  16.523  17.479   8.253
 5399POPC   C3B 8277  16.476  17.502   7.953
 5399POPC   C4B 8278  16.498  17.469   7.653
 5400POPC   NC3 8279  23.755   5.070   9.453
 5400POPC   PO4 8280  23.715   5.081   9.153
 5400POPC   GL1 8281  23.736   5.084   8.853
 5400POPC   GL2 8282  23.731   4.979   8.853
 5400POPC   C1A 8283  23.762   5.048   8.553
 5400POPC   D2A 8284  23.721   5.087   8.253
 5400POPC   C3A 8285  23.748   5.111   7.953
 5400POPC   C4A 8286  23.738   5.080   7.653
 5400POPC   C1B 8287  23.758   4.856   8.553
 5400POPC   C2B 8288  23.738   4.839   8.253
 5400POPC   C3B 8289  23.806   4.855   7.953
 5400POPC   C4B 8290  23.804   4.856   7.653
 5401POPC   NC3 8291  10.510  22.189   9.453
 5401POPC   PO4 8292  10.482  22.129   9.153
 5401POPC   GL1 8293  10.525  22.157   8.853
 5401POPC   GL2 8294  10.665  22.189   8.853
 5401POPC   C1A 8295  10.489  22.150   8.553
 5401POPC   D2A 8296  10.564  22.209   8.253
 5401POPC   C3A 8297  10.538  22.123   7.953
 5401POPC   C4A 8298  10.495  22.167   7.653
 5401POPC   C1B 8299  10.748  22.213   8.553
 5401POPC   C2B 8300  10.806  22.254   8.253
 5401POPC   C3B 8301  10.768  22.278   7.953
 5401POPC   C4B 8302  10.804  22.214   7.653
 5402POPC   NC3 8303  19.793   5.123   9.453
 5402POPC   PO4 8304  19.814   5.066   9.153
 5402POPC   GL1 8305  19.819   5.046   8.853
 5402POPC   GL2 8306  19.751   5.015   8.853
 5402POPC   C1A 8307  19.878   5.136   8.553
 5402POPC   D2A 8308  19.849   5.139   8.253
 5402POPC   C3A 8309  19.882   5.076   7.953
 5402POPC   C4A 8310  19.790   5.139   7.653
 5402POPC   C1B 8311  19.566   5.044   8.553
 5402POPC   C2B 8312  19.611   5.039   8.253
 5402POPC   C3B 8313  19.550   5.001   7.953
 5402POPC   C4B 8314  19.610   5.023   7.653
 5403POPC   NC3 8315  18.253  17.460   9.453
 5403POPC   PO4 8316  18.248  17.468   9.153
 5403POPC   GL1 8317  18.274  17.546   8.853
 5403POPC   GL2 8318  18.380  17.649   8.853
 5403POPC   C1A 8319  18.245  17.497   8.553
 5403POPC   D2A 8320  18.280  17.518   8.253
 5403POPC   C3A 8321  18.281  17.479   7.953
 5403POPC   C4A 8322  18.293  17.480   7.653
 5403POPC   C1B 8323  18.482  17.714   8.553
 5403POPC   C2B 8324  18.445  17.644   8.253
 5403POPC   C3B 8325  18.447  17.739   7.953
 5403POPC   C4B 8326  18.449  17.716   7.653
 5404POPC   NC3 8327  33.823  40.788   9.453
 5404POPC   PO4 8328  33.758  40.828   9.153
 5404POPC   GL1 8329  33.799  40.746   8.853
 5404POPC   GL2 8330  33.826  40.884   8.853
 5404POPC   C1A 8331  33.832  40.803   8.553
 5404POPC   D2A 8332  33.799  40.764   8.253
 5404POPC   C3A 8333  33.771  40.760   7.953
 5404POPC   C4A 8334  33.754  40.787   7.653
 5404POPC   C1B 8335  33.822  41.048   8.553
 5404POPC   C2B 8336  33.844  41.079   8.253
 5404POPC   C3B 8337  33.775  41.013   7.953
 5404POPC   C4B 8338  33.812  41.014   7.653
 5405POPC   NC3 8339   2.742   9.769   9.453
 5405POPC   PO4 8340   2.791   9.747   9.153
 5405POPC   GL1 8341   2.721   9.777   8.853
 5405POPC   GL2 8342   2.743   9.614   8.853
 5405POPC   C1A 8343   2.784   9.790   8.553
 5405POPC   D2A 8344   2.764   9.788   8.253
 5405POPC   C3A 8345   2.765   9.732   7.953
 5405POPC   C4A 8346   2.768   9.738   7.653
 5405POPC   C1B 8347   2.749   9.505   8.553
 5405POPC   C2B 8348   2.824   9.508   8.253
 5405POPC   C3B 8349   2.808   9.510   7.953
 5405POPC   C4B 8350   2.807   9.473   7.653
 5406POPC   NC3 8351  18.263  31.423   9.453
 5406POPC   PO4 8352  18.251  31.515   9.153
 5406POPC   GL1 8353  18.310  31.480   8.853
 5406POPC   GL2 8354  18.307  31.609   8.853
 5406POPC   C1A 8355  18.316  31.519   8.553
 5406POPC   D2A 8356  18.268  31.453   8.253
 5406POPC   C3A 8357  18.291  31.478   7.953
 5406POPC   C4A 8358  18.264  31.434   7.653
 5406POPC   C1B 8359  18.429  31.715   8.553
 5406POPC   C2B 8360  18.426  31.705   8.253
 5406POPC   C3B 8361  18.377  31.671   7.953
 5406POPC   C4B 8362  18.378  31.646   7.653
 5407POPC   NC3 8363   3.559  27.635   9.453
 5407POPC   PO4 8364   3.573  27.599   9.153
 5407POPC   GL1 8365   3.563  27.601   8.853
 5407POPC   GL2 8366   3.536  27.733   8.853
 5407POPC   C1A 8367   3.494  27.558   8.553
 5407POPC   D2A 8368   3.572  27.637   8.253
 5407POPC   C3A 8369   3.535  27.581   7.953
 5407POPC   C4A 8370   3.517  27.632   7.653
 5407POPC   C1B 8371   3.559  27.814   8.553
 5407POPC   C2B 8372   3.554  27.794   8.253
 5407POPC   C3B 8373   3.540  27.839   7.953
 5407POPC   C4B 8374   3.503  27.813   7.653
 5408POPC   NC3 8375  36.106  22.956   9.453
 5408POPC   PO4 8376  36.088  22.938   9.153
 5408POPC   GL1 8377  36.084  22.910   8.853
 5408POPC   GL2 8378  36.196  22.896   8.853
 5408POPC   C1A 8379  36.121  22.934   8.553
 5408POPC   D2A 8380  36.134  22.912   8.253
 5408POPC   C3A 8381  36.145  22.920   7.953
 5408POPC   C4A 8382  36.173  22.979   7.653
 5408POPC   C1B 8383  36.352  22.749   8.553
 5408POPC   C2B 8384  36.304  22.794   8.253
 5408POPC   C3B 8385  36.309  22.814   7.953
 5408POPC   C4B 8386  36.289  22.790   7.653
 5409POPC   NC3 8387  40.779   9.021   9.453
 5409POPC   PO4 8388  40.795   8.979   9.153
 5409POPC   GL1 8389  40.800   8.942   8.853
 5409POPC   GL2 8390  40.761   8.865   8.853
 5409POPC   C1A 8391  40.800   9.013   8.553
 5409POPC   D2A 8392  40.756   9.014   8.253
 5409POPC   C3A 8393  40.752   8.953   7.953
 5409POPC   C4A 8394  40.809   8.952   7.653
 5409POPC   C1B 8395  40.662   8.753   8.553
 5409POPC   C2B 8396  40.673   8.714   8.253
 5409POPC   C3B 8397  40.607   8.738   7.953
 5409POPC   C4B 8398  40.617   8.794   7.653
 5410POPC   NC3 8399  15.148  23.700   9.453
 5410POPC   PO4 8400  15.181  23.723   9.153
 5410POPC   GL1 8401  15.197  23.691   8.853
 5410POPC   GL2 8402  15.045  23.760   8.853
 5410POPC   C1A 8403  15.167  23.685   8.553
 5410POPC   D2A 8404  15.221  23.679   8.253
 5410POPC   C3A 8405  15.214  23.754   7.953
 5410POPC   C4A 8406  15.173  23.671   7.653
 5410POPC   C1B 8407  14.941  23.736   8.553
 5410POPC   C2B 8408  14.922  23.692   8.253
 5410POPC   C3B 8409  14.949  23.687   7.953
 5410POPC   C4B 8410  14.942  23.736   7.653
 5411POPC   NC3 8411  19.859  33.839   9.453
 5411POPC   PO4 8412  19.861  33.818   9.153
 5411POPC   GL1 8413  19.846  33.845   8.853
 5411POPC   GL2 8414  19.956  33.742   8.853
 5411POPC   C1A 8415  19.814  33.815   8.553
 5411POPC   D2A 8416  19.844  33.796   8.253
 5411POPC   C3A 8417  19.849  33.818   7.953
 5411POPC   C4A 8418  19.800  33.795   7.653
 5411POPC   C1B 8419  19.958  33.655   8.553
 5411POPC   C2B 8420  20.020  33.655   8.253
 5411POPC   C3B 8421  19.963  33.617   7.953
 5411POPC   C4B 8422  20.030  33.635   7.653
 5412POPC   NC3 8423  43.869  36.926   9.453
 5412POPC   PO4 8424  43.892  36.918   9.153
 5412POPC   GL1 8425  43.936  36.875   8.853
 5412POPC   GL2 8426  43.811  36.840   8.853
 5412POPC   C1A 8427  43.886  36.887   8.553
 5412POPC   D2A 8428  43.924  36.945   8.253
 5412POPC   C3A 8429  43.854  36.922   7.953
 5412POPC   C4A 8430  43.843  36.935   7.653
 5412POPC   C1B 8431  43.675  36.897   8.553
 5412POPC   C2B 8432  43.607  36.867   8.253
 5412POPC   C3B 8433  43.604  36.852   7.953
 5412POPC   C4B 8434  43.657  36.833   7.653
 5413POPC   NC3 8435  15.918  10.529   9.453
 5413POPC   PO4 8436  15.913  10.554   9.153
 5413POPC   GL1 8437  15.910  10.505   8.853
 5413POPC   GL2 8438  15.876  10.436   8.853
 5413POPC   C1A 8439  15.971  10.488   8.553
 5413POPC   D2A 8440  15.967  10.501   8.253
 5413POPC   C3A 8441  15.974  10.559   7.953
 5413POPC   C4A 8442  15.944  10.556   7.653
 5413POPC   C1B 8443  15.803  10.335   8.553
 5413POPC   C2B 8444  15.780  10.351   8.253
 5413POPC   C3B 8445  15.807  10.339   7.953
 5413POPC   C4B 8446  15.742  10.341   7.653
 5414POPC   NC3 8447  29.140  22.925   9.453
 5414POPC   PO4 8448  29.173  22.964   9.153
 5414POPC   GL1 8449  29.126  22.937   8.853
 5414POPC   GL2 8450  29.075  22.777   8.853
 5414POPC   C1A 8451  29.117  22.980   8.553
 5414POPC   D2A 8452  29.095  22.890   8.253
 5414POPC   C3A 8453  29.189  22.947   7.953
 5414POPC   C4A 8454  29.147  22.910   7.653
 5414POPC   C1B 8455  28.994  22.718   8.553
 5414POPC   C2B 8456  29.035  22.701   8.253
 5414POPC   C3B 8457  29.031  22.680   7.953
 5414POPC   C4B 8458  29.036  22.688   7.653
 5415POPC   NC3 8459  26.844  28.327   9.453
 5415POPC   PO4 8460  26.791  28.387   9.153
 5415POPC   GL1 8461  26.783  28.353   8.853
 5415POPC   GL2 8462  26.737  28.286   8.853
 5415POPC   C1A 8463  26.825  28.412   8.553
 5415POPC   D2A 8464  26.782  28.343   8.253
 5415POPC   C3A 8465  26.853  28.325   7.953
 5415POPC   C4A 8466  26.831  28.347   7.653
 5415POPC   C1B 8467  26.629  28.259   8.553
 5415POPC   C2B 8468  26.632  28.250   8.253
 5415POPC   C3B 8469  26.631  28.247   7.953
 5415POPC   C4B 8470  26.623  28.277   7.653
 5416POPC   NC3 8471   8.956  36.140   9.453
 5416POPC   PO4 8472   8.985  36.086   9.153
 5416POPC   GL1 8473   8.943  36.131   8.853
 5416POPC   GL2 8474   9.068  36.149   8.853
 5416POPC   C1A 8475   8.956  36.165   8.553
 5416POPC   D2A 8476   8.998  36.092   8.253
 5416POPC   C3A 8477   9.006  36.159   7.953
 5416POPC   C4A 8478   8.997  36.103   7.653
 5416POPC   C1B 8479   9.196  36.297   8.553
 5416POPC   C2B 8480   9.230  36.207   8.253
 5416POPC   C3B 8481   9.156  36.198   7.953
 5416POPC   C4B 8482   9.146  36.228   7.653
 5417POPC   NC3 8483  29.188  31.423   9.453
 5417POPC   PO4 8484  29.131  31.511   9.153
 5417POPC   GL1 8485  29.192  31.519   8.853
 5417POPC   GL2 8486  29.051  31.415   8.853
 5417POPC   C1A 8487  29.121  31.521   8.553
 5417POPC   D2A 8488  29.098  31.450   8.253
 5417POPC   C3A 8489  29.179  31.487   7.953
 5417POPC   C4A 8490  29.159  31.445   7.653
 5417POPC   C1B 8491  28.950  31.392   8.553
 5417POPC   C2B 8492  28.943  31.401   8.253
 5417POPC   C3B 8493  28.930  31.380   7.953
 5417POPC   C4B 8494  28.961  31.315   7.653
 5418POPC   NC3 8495  33.820  42.337   9.453
 5418POPC   PO4 8496  33.807  42.339   9.153
 5418POPC   GL1 8497  33.755  42.350   8.853
 5418POPC   GL2 8498  33.954  42.340   8.853
 5418POPC   C1A 8499  33.757  42.331   8.553
 5418POPC   D2A 8500  33.759  42.330   8.253
 5418POPC   C3A 8501  33.833  42.293   7.953
 5418POPC   C4A 8502  33.768  42.306   7.653
 5418POPC   C1B 8503  34.075  42.454   8.553
 5418POPC   C2B 8504  34.084  42.430   8.253
 5418POPC   C3B 8505  34.051  42.384   7.953
 5418POPC   C4B 8506  34.020  42.388   7.653
 5419POPC   NC3 8507  22.186  14.419   9.453
 5419POPC   PO4 8508  22.183  14.391   9.153
 5419POPC   GL1 8509  22.136  14.373   8.853
 5419POPC   GL2 8510  22.250  14.250   8.853
 5419POPC   C1A 8511  22.154  14.389   8.553
 5419POPC   D2A 8512  22.127  14.361   8.253
 5419POPC   C3A 8513  22.135  14.378   7.953
 5419POPC   C4A 8514  22.126  14.434   7.653
 5419POPC   C1B 8515  22.302  14.139   8.553
 5419POPC   C2B 8516  22.261  14.209   8.253
 5419POPC   C3B 8517  22.282  14.199   7.953
 5419POPC   C4B 8518  22.283  14.141   7.653
 5420POPC   NC3 8519  18.317  19.069   9.453
 5420POPC   PO4 8520  18.299  19.069   9.153
 5420POPC   GL1 8521  18.305  19.009   8.853
 5420POPC   GL2 8522  18.370  19.049   8.853
 5420POPC   C1A 8523  18.305  19.091   8.553
 5420POPC   D2A 8524  18.330  19.055   8.253
 5420POPC   C3A 8525  18.325  19.067   7.953
 5420POPC   C4A 8526  18.246  19.093   7.653
 5420POPC   C1B 8527  18.541  19.123   8.553
 5420POPC   C2B 8528  18.501  19.175   8.253
 5420POPC   C3B 8529  18.490  19.155   7.953
 5420POPC   C4B 8530  18.553  19.126   7.653
 5421POPC   NC3 8531  26.076  24.526   9.453
 5421POPC   PO4 8532  26.086  24.516   9.153
 5421POPC   GL1 8533  26.043  24.499   8.853
 5421POPC   GL2 8534  26.053  24.635   8.853
 5421POPC   C1A 8535  26.076  24.495   8.553
 5421POPC   D2A 8536  26.049  24.486   8.253
 5421POPC   C3A 8537  26.062  24.452   7.953
 5421POPC   C4A 8538  26.087  24.534   7.653
 5421POPC   C1B 8539  26.065  24.694   8.553
 5421POPC   C2B 8540  26.019  24.703   8.253
 5421POPC   C3B 8541  26.040  24.724   7.953
 5421POPC   C4B 8542  26.060  24.771   7.653
 5422POPC   NC3 8543   8.172  27.567   9.453
 5422POPC   PO4 8544   8.234  27.572   9.153
 5422POPC   GL1 8545   8.231  27.638   8.853
 5422POPC   GL2 8546   8.029  27.591   8.853
 5422POPC   C1A 8547   8.245  27.598   8.553
 5422POPC   D2A 8548   8.190  27.626   8.253
 5422POPC   C3A 8549   8.150  27.637   7.953
 5422POPC   C4A 8550   8.160  27.595   7.653
 5422POPC   C1B 8551   7.905  27.552   8.553
 5422POPC   C2B 8552   7.972  27.548   8.253
 5422POPC   C3B 8553   7.919  27.541   7.953
 5422POPC   C4B 8554   7.938  27.572   7.653
 5423POPC   NC3 8555  35.388  27.590   9.453
 5423POPC   PO4 8556  35.399  27.556   9.153
 5423POPC   GL1 8557  35.384  27.612   8.853
 5423POPC   GL2 8558  35.302  27.460   8.853
 5423POPC   C1A 8559  35.356  27.551   8.553
 5423POPC   D2A 8560  35.388  27.553   8.253
 5423POPC   C3A 8561  35.399  27.597   7.953
 5423POPC   C4A 8562  35.366  27.626   7.653
 5423POPC   C1B 8563  35.278  27.359   8.553
 5423POPC   C2B 8564  35.295  27.363   8.253
 5423POPC   C3B 8565  35.258  27.316   7.953
 5423POPC   C4B 8566  35.248  27.384   7.653
 5424POPC   NC3 8567   5.113  15.970   9.453
 5424POPC   PO4 8568   5.052  15.951   9.153
 5424POPC   GL1 8569   5.109  15.930   8.853
 5424POPC   GL2 8570   4.986  16.064   8.853
 5424POPC   C1A 8571   5.048  15.952   8.553
 5424POPC   D2A 8572   5.074  15.945   8.253
 5424POPC   C3A 8573   5.090  15.950   7.953
 5424POPC   C4A 8574   5.065  15.915   7.653
 5424POPC   C1B 8575   4.965  16.131   8.553
 5424POPC   C2B 8576   4.898  16.090   8.253
 5424POPC   C3B 8577   4.944  16.124   7.953
 5424POPC   C4B 8578   4.950  16.155   7.653
 5425POPC   NC3 8579   5.106  22.984   9.453
 5425POPC   PO4 8580   5.121  22.957   9.153
 5425POPC   GL1 8581   5.113  22.927   8.853
 5425POPC   GL2 8582   5.123  23.012   8.853
 5425POPC   C1A 8583   5.097  22.971   8.553
 5425POPC   D2A 8584   5.134  22.931   8.253
 5425POPC   C3A 8585   5.129  22.971   7.953
 5425POPC   C4A 8586   5.059  22.978   7.653
 5425POPC   C1B 8587   5.101  23.209   8.553
 5425POPC   C2B 8588   5.156  23.214   8.253
 5425POPC   C3B 8589   5.193  23.170   7.953
 5425POPC   C4B 8590   5.103  23.230   7.653
 5426POPC   NC3 8591  42.300  30.731   9.453
 5426POPC   PO4 8592  42.366  30.661   9.153
 5426POPC   GL1 8593  42.299  30.697   8.853
 5426POPC   GL2 8594  42.295  30.805   8.853
 5426POPC   C1A 8595  42.354  30.724   8.553
 5426POPC   D2A 8596  42.380  30.707   8.253
 5426POPC   C3A 8597  42.380  30.648   7.953
 5426POPC   C4A 8598  42.299  30.660   7.653
 5426POPC   C1B 8599  42.197  30.866   8.553
 5426POPC   C2B 8600  42.193  30.924   8.253
 5426POPC   C3B 8601  42.252  30.881   7.953
 5426POPC   C4B 8602  42.194  30.919   7.653
 5427POPC   NC3 8603  44.623  28.322   9.453
 5427POPC   PO4 8604  44.623  28.361   9.153
 5427POPC   GL1 8605  44.646  28.375   8.853
 5427POPC   GL2 8606  44.673  28.212   8.853
 5427POPC   C1A 8607  44.649  28.320   8.553
 5427POPC   D2A 8608  44.637  28.367   8.253
 5427POPC   C3A 8609  44.671  28.376   7.953
 5427POPC   C4A 8610  44.681  28.404   7.653
 5427POPC   C1B 8611  44.643  28.099   8.553
 5427POPC   C2B 8612  44.557  28.130   8.253
 5427POPC   C3B 8613  44.598  28.084   7.953
 5427POPC   C4B 8614  44.594  28.088   7.653
 5428POPC   NC3 8615  26.774  35.341   9.453
 5428POPC   PO4 8616  26.845  35.388   9.153
 5428POPC   GL1 8617  26.865  35.342   8.853
 5428POPC   GL2 8618  26.691  35.447   8.853
 5428POPC   C1A 8619  26.787  35.369   8.553
 5428POPC   D2A 8620  26.845  35.348   8.253
 5428POPC   C3A 8621  26.846  35.390   7.953
 5428POPC   C4A 8622  26.854  35.344   7.653
 5428POPC   C1B 8623  26.683  35.520   8.553
 5428POPC   C2B 8624  26.605  35.530   8.253
 5428POPC   C3B 8625  26.659  35.506   7.953
 5428POPC   C4B 8626  26.619  35.573   7.653
 5429POPC   NC3 8627  27.642   4.358   9.453
 5429POPC   PO4 8628  27.605   4.317   9.153
 5429POPC   GL1 8629  27.616   4.299   8.853
 5429POPC   GL2 8630  27.541   4.155   8.853
 5429POPC   C1A 8631  27.554   4.358   8.553
 5429POPC   D2A 8632  27.560   4.314   8.253
 5429POPC   C3A 8633  27.605   4.285   7.953
 5429POPC   C4A 8634  27.600   4.305   7.653
 5429POPC   C1B 8635  27.473   4.100   8.553
 5429POPC   C2B 8636  27.475   4.113   8.253
 5429POPC   C3B 8637  27.470   4.090   7.953
 5429POPC   C4B 8638  27.520   4.068   7.653
 5430POPC   NC3 8639   0.485  23.689   9.453
 5430POPC   PO4 8640   0.454  23.724   9.153
 5430POPC   GL1 8641   0.485  23.708   8.853
 5430POPC   GL2 8642   0.284  23.736   8.853
 5430POPC   C1A 8643   0.401  23.733   8.553
 5430POPC   D2A 8644   0.482  23.759   8.253
 5430POPC   C3A 8645   0.472  23.666   7.953
 5430POPC   C4A 8646   0.466  23.709   7.653
 5430POPC   C1B 8647   0.148  23.692   8.553
 5430POPC   C2B 8648   0.176  23.637   8.253
 5430POPC   C3B 8649   0.169  23.662   7.953
 5430POPC   C4B 8650   0.144  23.621   7.653
 5431POPC   NC3 8651  42.288  37.658   9.453
 5431POPC   PO4 8652  42.306  37.633   9.153
 5431POPC   GL1 8653  42.358  37.706   8.853
 5431POPC   GL2 8654  42.297  37.576   8.853
 5431POPC   C1A 8655  42.333  37.643   8.553
 5431POPC   D2A 8656  42.352  37.721   8.253
 5431POPC   C3A 8657  42.324  37.686   7.953
 5431POPC   C4A 8658  42.325  37.710   7.653
 5431POPC   C1B 8659  42.318  37.458   8.553
 5431POPC   C2B 8660  42.334  37.477   8.253
 5431POPC   C3B 8661  42.262  37.416   7.953
 5431POPC   C4B 8662  42.278  37.393   7.653
 5432POPC   NC3 8663   8.231  24.486   9.453
 5432POPC   PO4 8664   8.235  24.499   9.153
 5432POPC   GL1 8665   8.165  24.470   8.853
 5432POPC   GL2 8666   8.346  24.563   8.853
 5432POPC   C1A 8667   8.229  24.476   8.553
 5432POPC   D2A 8668   8.165  24.462   8.253
 5432POPC   C3A 8669   8.164  24.501   7.953
 5432POPC   C4A 8670   8.209  24.461   7.653
 5432POPC   C1B 8671   8.472  24.497   8.553
 5432POPC   C2B 8672   8.423  24.555   8.253
 5432POPC   C3B 8673   8.482  24.506   7.953
 5432POPC   C4B 8674   8.401  24.517   7.653
 5433POPC   NC3 8675  35.337  19.825   9.453
 5433POPC   PO4 8676  35.312  19.833   9.153
 5433POPC   GL1 8677  35.393  19.858   8.853
 5433POPC   GL2 8678  35.182  19.804   8.853
 5433POPC   C1A 8679  35.387  19.793   8.553
 5433POPC   D2A 8680  35.307  19.865   8.253
 5433POPC   C3A 8681  35.398  19.839   7.953
 5433POPC   C4A 8682  35.307  19.861   7.653
 5433POPC   C1B 8683  35.072  19.793   8.553
 5433POPC   C2B 8684  35.074  19.880   8.253
 5433POPC   C3B 8685  35.127  19.839   7.953
 5433POPC   C4B 8686  35.145  19.819   7.653
 5434POPC   NC3 8687   5.092  15.217   9.453
 5434POPC   PO4 8688   5.080  15.190   9.153
 5434POPC   GL1 8689   5.128  15.208   8.853
 5434POPC   GL2 8690   5.186  15.086   8.853
 5434POPC   C1A 8691   5.115  15.166   8.553
 5434POPC   D2A 8692   5.124  15.165   8.253
 5434POPC   C3A 8693   5.084  15.174   7.953
 5434POPC   C4A 8694   5.129  15.181   7.653
 5434POPC   C1B 8695   5.301  15.132   8.553
 5434POPC   C2B 8696   5.279  15.085   8.253
 5434POPC   C3B 8697   5.303  15.041   7.953
 5434POPC   C4B 8698   5.305  15.050   7.653
 5435POPC   NC3 8699   5.137  12.060   9.453
 5435POPC   PO4 8700   5.056  12.109   9.153
 5435POPC   GL1 8701   5.139  12.097   8.853
 5435POPC   GL2 8702   5.130  12.213   8.853
 5435POPC   C1A 8703   5.111  12.110   8.553
 5435POPC   D2A 8704   5.102  12.109   8.253
 5435POPC   C3A 8705   5.081  12.087   7.953
 5435POPC   C4A 8706   5.077  12.116   7.653
 5435POPC   C1B 8707   5.198  12.302   8.553
 5435POPC   C2B 8708   5.224  12.333   8.253
 5435POPC   C3B 8709   5.231  12.330   7.953
 5435POPC   C4B 8710   5.219  12.322   7.653
 5436POPC   NC3 8711  37.632  13.654   9.453
 5436POPC   PO4 8712  37.691  13.647   9.153
 5436POPC   GL1 8713  37.689  13.651   8.853
 5436POPC   GL2 8714  37.731  13.771   8.853
 5436POPC   C1A 8715  37.717  13.670   8.553
 5436POPC   D2A 8716  37.722  13.660   8.253
 5436POPC   C3A 8717  37.681  13.643   7.953
 5436POPC   C4A 8718  37.722  13.578   7.653
 5436POPC   C1B 8719  37.652  13.875   8.553
 5436POPC   C2B 8720  37.736  13.908   8.253
 5436POPC   C3B 8721  37.715  13.861   7.953
 5436POPC   C4B 8722  37.695  13.857   7.653
 5437POPC   NC3 8723  10.474   1.239   9.453
 5437POPC   PO4 8724  10.520   1.194   9.153
 5437POPC   GL1 8725  10.512   1.252   8.853
 5437POPC   GL2 8726  10.390   1.176   8.853
 5437POPC   C1A 8727  10.531   1.167   8.553
 5437POPC   D2A 8728  10.541   1.238   8.253
 5437POPC   C3A 8729  10.556   1.177   7.953
 5437POPC   C4A 8730  10.550   1.240   7.653
 5437POPC   C1B 8731  10.349   1.037   8.553
 5437POPC   C2B 8732  10.291   1.001   8.253
 5437POPC   C3B 8733  10.352   1.072   7.953
 5437POPC   C4B 8734  10.354   1.028   7.653
 5438POPC   NC3 8735  35.400  17.461   9.453
 5438POPC   PO4 8736  35.326  17.486   9.153
 5438POPC   GL1 8737  35.345  17.524   8.853
 5438POPC   GL2 8738  35.240  17.400   8.853
 5438POPC   C1A 8739  35.369  17.481   8.553
 5438POPC   D2A 8740  35.357  17.538   8.253
 5438POPC   C3A 8741  35.349  17.491   7.953
 5438POPC   C4A 8742  35.364  17.546   7.653
 5438POPC   C1B 8743  35.173  17.361   8.553
 5438POPC   C2B 8744  35.148  17.306   8.253
 5438POPC   C3B 8745  35.121  17.303   7.953
 5438POPC   C4B 8746  35.138  17.305   7.653
 5439POPC   NC3 8747  19.084  22.934   9.453
 5439POPC   PO4 8748  19.009  22.956   9.153
 5439POPC   GL1 8749  19.047  22.954   8.853
 5439POPC   GL2 8750  18.995  22.963   8.853
 5439POPC   C1A 8751  19.038  22.970   8.553
 5439POPC   D2A 8752  19.078  22.923   8.253
 5439POPC   C3A 8753  19.082  22.967   7.953
 5439POPC   C4A 8754  19.090  22.915   7.653
 5439POPC   C1B 8755  18.833  23.049   8.553
 5439POPC   C2B 8756  18.877  23.026   8.253
 5439POPC   C3B 8757  18.841  23.065   7.953
 5439POPC   C4B 8758  18.864  23.068   7.653
 5440POPC   NC3 8759   1.225   3.566   9.453
 5440POPC   PO4 8760   1.247   3.541   9.153
 5440POPC   GL1 8761   1.180   3.525   8.853
 5440POPC   GL2 8762   1.366   3.508   8.853
 5440POPC   C1A 8763   1.238   3.576   8.553
 5440POPC   D2A 8764   1.169   3.557   8.253
 5440POPC   C3A 8765   1.213   3.547   7.953
 5440POPC   C4A 8766   1.212   3.493   7.653
 5440POPC   C1B 8767   1.435   3.498   8.553
 5440POPC   C2B 8768   1.416   3.431   8.253
 5440POPC   C3B 8769   1.432   3.501   7.953
 5440POPC   C4B 8770   1.477   3.425   7.653
 5441POPC   NC3 8771  37.656  17.552   9.453
 5441POPC   PO4 8772  37.690  17.513   9.153
 5441POPC   GL1 8773  37.694  17.528   8.853
 5441POPC   GL2 8774  37.747  17.450   8.853
 5441POPC   C1A 8775  37.683  17.552   8.553
 5441POPC   D2A 8776  37.697  17.507   8.253
 5441POPC   C3A 8777  37.719  17.503   7.953
 5441POPC   C4A 8778  37.657  17.498   7.653
 5441POPC   C1B 8779  37.898  17.342   8.553
 5441POPC   C2B 8780  37.868  17.305   8.253
 5441POPC   C3B 8781  37.848  17.315   7.953
 5441POPC   C4B 8782  37.849  17.334   7.653
 5442POPC   NC3 8783  26.085  41.514   9.453
 5442POPC   PO4 8784  26.086  41.528   9.153
 5442POPC   GL1 8785  26.076  41.593   8.853
 5442POPC   GL2 8786  25.937  41.643   8.853
 5442POPC   C1A 8787  26.029  41.537   8.553
 5442POPC   D2A 8788  26.009  41.566   8.253
 5442POPC   C3A 8789  26.063  41.575   7.953
 5442POPC   C4A 8790  26.005  41.540   7.653
 5442POPC   C1B 8791  25.962  41.815   8.553
 5442POPC   C2B 8792  25.918  41.801   8.253
 5442POPC   C3B 8793  25.907  41.817   7.953
 5442POPC   C4B 8794  25.918  41.797   7.653
 5443POPC   NC3 8795   4.357   5.836   9.453
 5443POPC   PO4 8796   4.310   5.908   9.153
 5443POPC   GL1 8797   4.307   5.891   8.853
 5443POPC   GL2 8798   4.324   6.019   8.853
 5443POPC   C1A 8799   4.276   5.883   8.553
 5443POPC   D2A 8800   4.340   5.881   8.253
 5443POPC   C3A 8801   4.308   5.856   7.953
 5443POPC   C4A 8802   4.328   5.918   7.653
 5443POPC   C1B 8803   4.387   6.087   8.553
 5443POPC   C2B 8804   4.425   6.131   8.253
 5443POPC   C3B 8805   4.398   6.092   7.953
 5443POPC   C4B 8806   4.422   6.080   7.653
 5444POPC   NC3 8807  10.537  36.105   9.453
 5444POPC   PO4 8808  10.494  36.083   9.153
 5444POPC   GL1 8809  10.482  36.123   8.853
 5444POPC   GL2 8810  10.637  36.184   8.853
 5444POPC   C1A 8811  10.534  36.165   8.553
 5444POPC   D2A 8812  10.483  36.112   8.253
 5444POPC   C3A 8813  10.482  36.145   7.953
 5444POPC   C4A 8814  10.571  36.081   7.653
 5444POPC   C1B 8815  10.649  36.351   8.553
 5444POPC   C2B 8816  10.676  36.348   8.253
 5444POPC   C3B 8817  10.643  36.314   7.953
 5444POPC   C4B 8818  10.710  36.315   7.653
 5445POPC   NC3 8819  43.909  24.506   9.453
 5445POPC   PO4 8820  43.857  24.457   9.153
 5445POPC   GL1 8821  43.865  24.521   8.853
 5445POPC   GL2 8822  44.026  24.559   8.853
 5445POPC   C1A 8823  43.894  24.469   8.553
 5445POPC   D2A 8824  43.920  24.510   8.253
 5445POPC   C3A 8825  43.892  24.528   7.953
 5445POPC   C4A 8826  43.910  24.535   7.653
 5445POPC   C1B 8827  44.110  24.633   8.553
 5445POPC   C2B 8828  44.095  24.581   8.253
 5445POPC   C3B 8829  44.118  24.610   7.953
 5445POPC   C4B 8830  44.068  24.608   7.653
 5446POPC   NC3 8831   6.661  13.586   9.453
 5446POPC   PO4 8832   6.647  13.662   9.153
 5446POPC   GL1 8833   6.615  13.676   8.853
 5446POPC   GL2 8834   6.518  13.661   8.853
 5446POPC   C1A 8835   6.628  13.675   8.553
 5446POPC   D2A 8836   6.671  13.667   8.253
 5446POPC   C3A 8837   6.620  13.625   7.953
 5446POPC   C4A 8838   6.601  13.658   7.653
 5446POPC   C1B 8839   6.419  13.745   8.553
 5446POPC   C2B 8840   6.481  13.721   8.253
 5446POPC   C3B 8841   6.447  13.758   7.953
 5446POPC   C4B 8842   6.458  13.806   7.653
 5447POPC   NC3 8843   6.605  12.062   9.453
 5447POPC   PO4 8844   6.611  12.101   9.153
 5447POPC   GL1 8845   6.603  12.086   8.853
 5447POPC   GL2 8846   6.641  12.188   8.853
 5447POPC   C1A 8847   6.694  12.060   8.553
 5447POPC   D2A 8848   6.607  12.047   8.253
 5447POPC   C3A 8849   6.678  12.028   7.953
 5447POPC   C4A 8850   6.641  12.077   7.653
 5447POPC   C1B 8851   6.614  12.364   8.553
 5447POPC   C2B 8852   6.669  12.276   8.253
 5447POPC   C3B 8853   6.630  12.291   7.953
 5447POPC   C4B 8854   6.611  12.278   7.653
 5448POPC   NC3 8855  36.857  37.717   9.453
 5448POPC   PO4 8856  36.929  37.727   9.153
 5448POPC   GL1 8857  36.894  37.649   8.853
 5448POPC   GL2 8858  37.008  37.636   8.853
 5448POPC   C1A 8859  36.878  37.647   8.553
 5448POPC   D2A 8860  36.941  37.728   8.253
 5448POPC   C3A 8861  36.948  37.705   7.953
 5448POPC   C4A 8862  36.942  37.657   7.653
 5448POPC   C1B 8863  37.097  37.475   8.553
 5448POPC   C2B 8864  37.061  37.475   8.253
 5448POPC   C3B 8865  37.100  37.474   7.953
 5448POPC   C4B 8866  37.102  37.485   7.653
 5449POPC   NC3 8867  29.097  29.907   9.453
 5449POPC   PO4 8868  29.170  29.888   9.153
 5449POPC   GL1 8869  29.182  29.902   8.853
 5449POPC   GL2 8870  29.308  29.948   8.853
 5449POPC   C1A 8871  29.126  29.915   8.553
 5449POPC   D2A 8872  29.162  29.927   8.253
 5449POPC   C3A 8873  29.107  29.934   7.953
 5449POPC   C4A 8874  29.117  29.945   7.653
 5449POPC   C1B 8875  29.425  29.903   8.553
 5449POPC   C2B 8876  29.404  29.918   8.253
 5449POPC   C3B 8877  29.346  29.916   7.953
 5449POPC   C4B 8878  29.385  29.914   7.653
 5450POPC   NC3 8879  12.889   9.743   9.453
 5450POPC   PO4 8880  12.830   9.723   9.153
 5450POPC   GL1 8881  12.815   9.708   8.853
 5450POPC   GL2 8882  12.791   9.596   8.853
 5450POPC   C1A 8883  12.847   9.731   8.553
 5450POPC   D2A 8884  12.879   9.728   8.253
 5450POPC   C3A 8885  12.895   9.748   7.953
 5450POPC   C4A 8886  12.897   9.734   7.653
 5450POPC   C1B 8887  12.735   9.513   8.553
 5450POPC   C2B 8888  12.692   9.513   8.253
 5450POPC   C3B 8889  12.706   9.503   7.953
 5450POPC   C4B 8890  12.699   9.570   7.653
 5451POPC   NC3 8891  33.752  12.044   9.453
 5451POPC   PO4 8892  33.829  12.050   9.153
 5451POPC   GL1 8893  33.795  12.049   8.853
 5451POPC   GL2 8894  33.648  11.993   8.853
 5451POPC   C1A 8895  33.752  12.073   8.553
 5451POPC   D2A 8896  33.845  12.109   8.253
 5451POPC   C3A 8897  33.795  12.075   7.953
 5451POPC   C4A 8898  33.773  12.055   7.653
 5451POPC   C1B 8899  33.599  11.998   8.553
 5451POPC   C2B 8900  33.534  12.014   8.253
 5451POPC   C3B 8901  33.583  12.015   7.953
 5451POPC   C4B 8902  33.603  11.994   7.653
 5452POPC   NC3 8903   5.908   3.559   9.453
 5452POPC   PO4 8904   5.872   3.576   9.153
 5452POPC   GL1 8905   5.875   3.522   8.853
 5452POPC   GL2 8906   5.740   3.592   8.853
 5452POPC   C1A 8907   5.918   3.581   8.553
 5452POPC   D2A 8908   5.831   3.531   8.253
 5452POPC   C3A 8909   5.885   3.544   7.953
 5452POPC   C4A 8910   5.826   3.522   7.653
 5452POPC   C1B 8911   5.696   3.691   8.553
 5452POPC   C2B 8912   5.625   3.694   8.253
 5452POPC   C3B 8913   5.629   3.680   7.953
 5452POPC   C4B 8914   5.655   3.705   7.653
 5453POPC   NC3 8915   8.243  29.934   9.453
 5453POPC   PO4 8916   8.218  29.907   9.153
 5453POPC   GL1 8917   8.167  29.920   8.853
 5453POPC   GL2 8918   8.149  29.856   8.853
 5453POPC   C1A 8919   8.245  29.877   8.553
 5453POPC   D2A 8920   8.223  29.912   8.253
 5453POPC   C3A 8921   8.171  29.872   7.953
 5453POPC   C4A 8922   8.170  29.872   7.653
 5453POPC   C1B 8923   8.051  29.744   8.553
 5453POPC   C2B 8924   8.036  29.689   8.253
 5453POPC   C3B 8925   7.985  29.723   7.953
 5453POPC   C4B 8926   8.033  29.694   7.653
 5454POPC   NC3 8927  36.173  29.884   9.453
 5454POPC   PO4 8928  36.151  29.947   9.153
 5454POPC   GL1 8929  36.147  29.886   8.853
 5454POPC   GL2 8930  36.015  29.802   8.853
 5454POPC   C1A 8931  36.163  29.944   8.553
 5454POPC   D2A 8932  36.080  29.958   8.253
 5454POPC   C3A 8933  36.079  29.901   7.953
 5454POPC   C4A 8934  36.098  29.874   7.653
 5454POPC   C1B 8935  35.975  29.737   8.553
 5454POPC   C2B 8936  35.957  29.736   8.253
 5454POPC   C3B 8937  36.014  29.668   7.953
 5454POPC   C4B 8938  35.988  29.708   7.653
 5455POPC   NC3 8939  39.232  38.459   9.453
 5455POPC   PO4 8940  39.208  38.479   9.153
 5455POPC   GL1 8941  39.206  38.427   8.853
 5455POPC   GL2 8942  39.140  38.569   8.853
 5455POPC   C1A 8943  39.277  38.409   8.553
 5455POPC   D2A 8944  39.184  38.460   8.253
 5455POPC   C3A 8945  39.224  38.410   7.953
 5455POPC   C4A 8946  39.234  38.412   7.653
 5455POPC   C1B 8947  39.063  38.636   8.553
 5455POPC   C2B 8948  38.983  38.620   8.253
 5455POPC   C3B 8949  39.055  38.616   7.953
 5455POPC   C4B 8950  39.035  38.563   7.653
 5456POPC   NC3 8951  12.843  19.045   9.453
 5456POPC   PO4 8952  12.889  19.035   9.153
 5456POPC   GL1 8953  12.887  19.103   8.853
 5456POPC   GL2 8954  12.701  19.142   8.853
 5456POPC   C1A 8955  12.895  19.102   8.553
 5456POPC   D2A 8956  12.831  19.041   8.253
 5456POPC   C3A 8957  12.852  19.093   7.953
 5456POPC   C4A 8958  12.868  19.067   7.653
 5456POPC   C1B 8959  12.625  19.161   8.553
 5456POPC   C2B 8960  12.674  19.190   8.253
 5456POPC   C3B 8961  12.646  19.166   7.953
 5456POPC   C4B 8962  12.629  19.183   7.653
 5457POPC   NC3 8963  35.401  43.131   9.453
 5457POPC   PO4 8964  35.328  43.065   9.153
 5457POPC   GL1 8965  35.369  43.158   8.853
 5457POPC   GL2 8966  35.327  43.191   8.853
 5457POPC   C1A 8967  35.315  43.128   8.553
 5457POPC   D2A 8968  35.369  43.146   8.253
 5457POPC   C3A 8969  35.351  43.092   7.953
 5457POPC   C4A 8970  35.337  43.082   7.653
 5457POPC   C1B 8971  35.400  43.334   8.553
 5457POPC   C2B 8972  35.381  43.318   8.253
 5457POPC   C3B 8973  35.359  43.337   7.953
 5457POPC   C4B 8974  35.420  43.391   7.653
 5458POPC   NC3 8975  32.209   3.492   9.453
 5458POPC   PO4 8976  32.241   3.525   9.153
 5458POPC   GL1 8977  32.262   3.535   8.853
 5458POPC   GL2 8978  32.417   3.546   8.853
 5458POPC   C1A 8979  32.258   3.542   8.553
 5458POPC   D2A 8980  32.251   3.551   8.253
 5458POPC   C3A 8981  32.236   3.517   7.953
 5458POPC   C4A 8982  32.281   3.498   7.653
 5458POPC   C1B 8983  32.449   3.489   8.553
 5458POPC   C2B 8984  32.523   3.513   8.253
 5458POPC   C3B 8985  32.472   3.532   7.953
 5458POPC   C4B 8986  32.466   3.555   7.653
 5459POPC   NC3 8987  35.313  36.113   9.453
 5459POPC   PO4 8988  35.368  36.169   9.153
 5459POPC   GL1 8989  35.334  36.080   8.853
 5459POPC   GL2 8990  35.453  36.060   8.853
 5459POPC   C1A 8991  35.302  36.171   8.553
 5459POPC   D2A 8992  35.306  36.080   8.253
 5459POPC   C3A 8993  35.325  36.113   7.953
 5459POPC   C4A 8994  35.305  36.176   7.653
 5459POPC   C1B 8995  35.629  36.128   8.553
 5459POPC   C2B 8996  35.555  36.044   8.253
 5459POPC   C3B 8997  35.601  36.043   7.953
 5459POPC   C4B 8998  35.646  36.055   7.653
 5460POPC   NC3 8999  10.516  43.849   9.453
 5460POPC   PO4 9000  10.503  43.910   9.153
 5460POPC   GL1 9001  10.548  43.871   8.853
 5460POPC   GL2 9002  10.438  43.767   8.853
 5460POPC   C1A 9003  10.555  43.847   8.553
 5460POPC   D2A 9004  10.571  43.868   8.253
 5460POPC   C3A 9005  10.474  43.874   7.953
 5460POPC   C4A 9006  10.507  43.893   7.653
 5460POPC   C1B 9007  10.321  43.757   8.553
 5460POPC   C2B 9008  10.280  43.758   8.253
 5460POPC   C3B 9009  10.354  43.787   7.953
 5460POPC   C4B 9010  10.316  43.699   7.653
 5461POPC   NC3 9011  40.024  34.588   9.453
 5461POPC   PO4 9012  40.039  34.560   9.153
 5461POPC   GL1 9013  39.990  34.602   8.853
 5461POPC   GL2 9014  40.091  34.666   8.853
 5461POPC   C1A 9015  40.046  34.614   8.553
 5461POPC   D2A 9016  39.984  34.547   8.253
 5461POPC   C3A 9017  40.051  34.540   7.953
 5461POPC   C4A 9018  39.986  34.566   7.653
 5461POPC   C1B 9019  40.271  34.706   8.553
 5461POPC   C2B 9020  40.241  34.688   8.253
 5461POPC   C3B 9021  40.191  34.734   7.953
 5461POPC   C4B 9022  40.202  34.715   7.653
 5462POPC   NC3 9023   9.771  25.270   9.453
 5462POPC   PO4 9024   9.773  25.272   9.153
 5462POPC   GL1 9025   9.702  25.256   8.853
 5462POPC   GL2 9026   9.859  25.177   8.853
 5462POPC   C1A 9027   9.707  25.236   8.553
 5462POPC   D2A 9028   9.791  25.300   8.253
 5462POPC   C3A 9029   9.754  25.228   7.953
 5462POPC   C4A 9030   9.751  25.305   7.653
 5462POPC   C1B 9031   9.922  25.039   8.553
 5462POPC   C2B 9032   9.885  25.110   8.253
 5462POPC   C3B 9033   9.925  25.048   7.953
 5462POPC   C4B 9034   9.917  25.114   7.653
 5463POPC   NC3 9035  27.564  19.048   9.453
 5463POPC   PO4 9036  27.567  19.094   9.153
 5463POPC   GL1 9037  27.605  19.068   8.853
 5463POPC   GL2 9038  27.505  19.140   8.853
 5463POPC   C1A 9039  27.547  19.036   8.553
 5463POPC   D2A 9040  27.599  19.060   8.253
 5463POPC   C3A 9041  27.553  19.086   7.953
 5463POPC   C4A 9042  27.579  19.043   7.653
 5463POPC   C1B 9043  27.317  19.143   8.553
 5463POPC   C2B 9044  27.399  19.118   8.253
 5463POPC   C3B 9045  27.319  19.185   7.953
 5463POPC   C4B 9046  27.369  19.189   7.653
 5464POPC   NC3 9047  33.064  37.711   9.453
 5464POPC   PO4 9048  32.982  37.705   9.153
 5464POPC   GL1 9049  33.039  37.636   8.853
 5464POPC   GL2 9050  33.110  37.785   8.853
 5464POPC   C1A 9051  33.042  37.692   8.553
 5464POPC   D2A 9052  32.994  37.725   8.253
 5464POPC   C3A 9053  32.995  37.631   7.953
 5464POPC   C4A 9054  32.997  37.632   7.653
 5464POPC   C1B 9055  33.158  37.844   8.553
 5464POPC   C2B 9056  33.120  37.942   8.253
 5464POPC   C3B 9057  33.168  37.852   7.953
 5464POPC   C4B 9058  33.169  37.872   7.653
 5465POPC   NC3 9059  22.160   2.024   9.453
 5465POPC   PO4 9060  22.169   2.014   9.153
 5465POPC   GL1 9061  22.138   2.036   8.853
 5465POPC   GL2 9062  22.051   1.982   8.853
 5465POPC   C1A 9063  22.158   1.949   8.553
 5465POPC   D2A 9064  22.165   1.979   8.253
 5465POPC   C3A 9065  22.168   2.037   7.953
 5465POPC   C4A 9066  22.205   1.944   7.653
 5465POPC   C1B 9067  21.955   2.006   8.553
 5465POPC   C2B 9068  21.877   1.962   8.253
 5465POPC   C3B 9069  21.918   1.998   7.953
 5465POPC   C4B 9070  21.905   1.942   7.653
 5466POPC   NC3 9071  37.686  25.308   9.453
 5466POPC   PO4 9072  37.660  25.216   9.153
 5466POPC   GL1 9073  37.699  25.291   8.853
 5466POPC   GL2 9074  37.609  25.302   8.853
 5466POPC   C1A 9075  37.635  25.237   8.553
 5466POPC   D2A 9076  37.646  25.305   8.253
 5466POPC   C3A 9077  37.677  25.276   7.953
 5466POPC   C4A 9078  37.668  25.233   7.653
 5466POPC   C1B 9079  37.531  25.479   8.553
 5466POPC   C2B 9080  37.500  25.402   8.253
 5466POPC   C3B 9081  37.530  25.454   7.953
 5466POPC   C4B 9082  37.500  25.440   7.653
 5467POPC   NC3 9083  27.627  33.064   9.453
 5467POPC   PO4 9084  27.580  33.051   9.153
 5467POPC   GL1 9085  27.554  33.039   8.853
 5467POPC   GL2 9086  27.541  33.082   8.853
 5467POPC   C1A 9087  27.590  33.041   8.553
 5467POPC   D2A 9088  27.587  33.025   8.253
 5467POPC   C3A 9089  27.640  33.064   7.953
 5467POPC   C4A 9090  27.593  32.999   7.653
 5467POPC   C1B 9091  27.361  33.231   8.553
 5467POPC   C2B 9092  27.387  33.171   8.253
 5467POPC   C3B 9093  27.402  33.151   7.953
 5467POPC   C4B 9094  27.405  33.239   7.653
 5468POPC   NC3 9095  15.960  20.611   9.453
 5468POPC   PO4 9096  15.917  20.592   9.153
 5468POPC   GL1 9097  15.980  20.579   8.853
 5468POPC   GL2 9098  15.808  20.700   8.853
 5468POPC   C1A 9099  15.968  20.640   8.553
 5468POPC   D2A 9100  15.956  20.570   8.253
 5468POPC   C3A 9101  15.967  20.641   7.953
 5468POPC   C4A 9102  15.984  20.595   7.653
 5468POPC   C1B 9103  15.782  20.716   8.553
 5468POPC   C2B 9104  15.744  20.742   8.253
 5468POPC   C3B 9105  15.756  20.786   7.953
 5468POPC   C4B 9106  15.774  20.770   7.653
 5469POPC   NC3 9107   1.254  19.867   9.453
 5469POPC   PO4 9108   1.182  19.848   9.153
 5469POPC   GL1 9109   1.207  19.817   8.853
 5469POPC   GL2 9110   1.177  19.933   8.853
 5469POPC   C1A 9111   1.240  19.842   8.553
 5469POPC   D2A 9112   1.259  19.847   8.253
 5469POPC   C3A 9113   1.173  19.814   7.953
 5469POPC   C4A 9114   1.185  19.833   7.653
 5469POPC   C1B 9115   1.070  20.021   8.553
 5469POPC   C2B 9116   1.081  20.101   8.253
 5469POPC   C3B 9117   1.148  20.020   7.953
 5469POPC   C4B 9118   1.159  20.104   7.653
 5470POPC   NC3 9119  33.063  40.762   9.453
 5470POPC   PO4 9120  33.004  40.769   9.153
 5470POPC   GL1 9121  33.016  40.829   8.853
 5470POPC   GL2 9122  32.917  40.817   8.853
 5470POPC   C1A 9123  32.987  40.766   8.553
 5470POPC   D2A 9124  32.974  40.796   8.253
 5470POPC   C3A 9125  33.002  40.741   7.953
 5470POPC   C4A 9126  32.978  40.777   7.653
 5470POPC   C1B 9127  32.755  40.855   8.553
 5470POPC   C2B 9128  32.803  40.889   8.253
 5470POPC   C3B 9129  32.803  40.904   7.953
 5470POPC   C4B 9130  32.783  40.859   7.653
 5471POPC   NC3 9131  10.559  11.331   9.453
 5471POPC   PO4 9132  10.542  11.303   9.153
 5471POPC   GL1 9133  10.505  11.343   8.853
 5471POPC   GL2 9134  10.436  11.289   8.853
 5471POPC   C1A 9135  10.509  11.260   8.553
 5471POPC   D2A 9136  10.538  11.344   8.253
 5471POPC   C3A 9137  10.547  11.255   7.953
 5471POPC   C4A 9138  10.518  11.282   7.653
 5471POPC   C1B 9139  10.333  11.249   8.553
 5471POPC   C2B 9140  10.268  11.190   8.253
 5471POPC   C3B 9141  10.314  11.219   7.953
 5471POPC   C4B 9142  10.291  11.199   7.653
 5472POPC   NC3 9143  36.149  15.909   9.453
 5472POPC   PO4 9144  36.092  15.915   9.153
 5472POPC   GL1 9145  36.157  15.921   8.853
 5472POPC   GL2 9146  36.053  15.952   8.853
 5472POPC   C1A 9147  36.176  15.937   8.553
 5472POPC   D2A 9148  36.100  15.940   8.253
 5472POPC   C3A 9149  36.155  15.999   7.953
 5472POPC   C4A 9150  36.130  15.961   7.653
 5472POPC   C1B 9151  35.920  15.844   8.553
 5472POPC   C2B 9152  35.916  15.902   8.253
 5472POPC   C3B 9153  35.894  15.905   7.953
 5472POPC   C4B 9154  35.887  15.878   7.653
 5473POPC   NC3 9155  30.689   2.717   9.453
 5473POPC   PO4 9156  30.665   2.717   9.153
 5473POPC   GL1 9157  30.663   2.770   8.853
 5473POPC   GL2 9158  30.601   2.794   8.853
 5473POPC   C1A 9159  30.679   2.738   8.553
 5473POPC   D2A 9160  30.711   2.770   8.253
 5473POPC   C3A 9161  30.700   2.809   7.953
 5473POPC   C4A 9162  30.711   2.767   7.653
 5473POPC   C1B 9163  30.418   2.760   8.553
 5473POPC   C2B 9164  30.473   2.813   8.253
 5473POPC   C3B 9165  30.452   2.760   7.953
 5473POPC   C4B 9166  30.402   2.741   7.653
 5474POPC   NC3 9167   8.970  34.552   9.453
 5474POPC   PO4 9168   8.959  34.588   9.153
 5474POPC   GL1 9169   8.938  34.545   8.853
 5474POPC   GL2 9170   8.831  34.631   8.853
 5474POPC   C1A 9171   8.964  34.535   8.553
 5474POPC   D2A 9172   8.983  34.608   8.253
 5474POPC   C3A 9173   8.979  34.544   7.953
 5474POPC   C4A 9174   9.011  34.556   7.653
 5474POPC   C1B 9175   8.745  34.648   8.553
 5474POPC   C2B 9176   8.714  34.633   8.253
 5474POPC   C3B 9177   8.678  34.640   7.953
 5474POPC   C4B 9178   8.733  34.602   7.653
 5475POPC   NC3 9179  44.700   2.034   9.453
 5475POPC   PO4 9180  44.659   2.004   9.153
 5475POPC   GL1 9181  44.668   1.974   8.853
 5475POPC   GL2 9182  44.598   1.867   8.853
 5475POPC   C1A 9183  44.697   1.997   8.553
 5475POPC   D2A 9184  44.630   2.036   8.253
 5475POPC   C3A 9185  44.626   2.029   7.953
 5475POPC   C4A 9186  44.684   2.017   7.653
 5475POPC   C1B 9187  44.636   1.706   8.553
 5475POPC   C2B 9188  44.601   1.729   8.253
 5475POPC   C3B 9189  44.625   1.694   7.953
 5475POPC   C4B 9190  44.664   1.793   7.653
 5476POPC   NC3 9191  32.243  10.502   9.453
 5476POPC   PO4 9192  32.296  10.479   9.153
 5476POPC   GL1 9193  32.265  10.497   8.853
 5476POPC   GL2 9194  32.322  10.594   8.853
 5476POPC   C1A 9195  32.219  10.535   8.553
 5476POPC   D2A 9196  32.243  10.505   8.253
 5476POPC   C3A 9197  32.268  10.545   7.953
 5476POPC   C4A 9198  32.284  10.511   7.653
 5476POPC   C1B 9199  32.465  10.732   8.553
 5476POPC   C2B 9200  32.478  10.667   8.253
 5476POPC   C3B 9201  32.398  10.717   7.953
 5476POPC   C4B 9202  32.450  10.692   7.653
 5477POPC   NC3 9203  14.421  39.254   9.453
 5477POPC   PO4 9204  14.427  39.208   9.153
 5477POPC   GL1 9205  14.366  39.199   8.853
 5477POPC   GL2 9206  14.329  39.237   8.853
 5477POPC   C1A 9207  14.395  39.266   8.553
 5477POPC   D2A 9208  14.370  39.199   8.253
 5477POPC   C3A 9209  14.453  39.245   7.953
 5477POPC   C4A 9210  14.374  39.190   7.653
 5477POPC   C1B 9211  14.118  39.315   8.553
 5477POPC   C2B 9212  14.119  39.270   8.253
 5477POPC   C3B 9213  14.154  39.299   7.953
 5477POPC   C4B 9214  14.143  39.243   7.653
 5478POPC   NC3 9215  36.922  30.654   9.453
 5478POPC   PO4 9216  36.856  30.713   9.153
 5478POPC   GL1 9217  36.909  30.664   8.853
 5478POPC   GL2 9218  37.004  30.647   8.853
 5478POPC   C1A 9219  36.866  30.670   8.553
 5478POPC   D2A 9220  36.942  30.704   8.253
 5478POPC   C3A 9221  36.872  30.678   7.953
 5478POPC   C4A 9222  36.880  30.740   7.653
 5478POPC   C1B 9223  37.134  30.607   8.553
 5478POPC   C2B 9224  37.176  30.608   8.253
 5478POPC   C3B 9225  37.141  30.665   7.953
 5478POPC   C4B 9226  37.123  30.606   7.653
 5479POPC   NC3 9227   9.760  29.189   9.453
 5479POPC   PO4 9228   9.788  29.171   9.153
 5479POPC   GL1 9229   9.706  29.157   8.853
 5479POPC   GL2 9230   9.670  29.229   8.853
 5479POPC   C1A 9231   9.764  29.160   8.553
 5479POPC   D2A 9232   9.745  29.130   8.253
 5479POPC   C3A 9233   9.725  29.140   7.953
 5479POPC   C4A 9234   9.798  29.179   7.653
 5479POPC   C1B 9235   9.655  29.359   8.553
 5479POPC   C2B 9236   9.636  29.346   8.253
 5479POPC   C3B 9237   9.726  29.388   7.953
 5479POPC   C4B 9238   9.717  29.356   7.653
 5480POPC   NC3 9239  36.118  41.588   9.453
 5480POPC   PO4 9240  36.080  41.514   9.153
 5480POPC   GL1 9241  36.125  41.526   8.853
 5480POPC   GL2 9242  36.136  41.439   8.853
 5480POPC   C1A 9243  36.121  41.591   8.553
 5480POPC   D2A 9244  36.140  41.603   8.253
 5480POPC   C3A 9245  36.083  41.605   7.953
 5480POPC   C4A 9246  36.084  41.537   7.653
 5480POPC   C1B 9247  36.242  41.280   8.553
 5480POPC   C2B 9248  36.151  41.321   8.253
 5480POPC   C3B 9249  36.154  41.319   7.953
 5480POPC   C4B 9250  36.220  41.335   7.653
 5481POPC   NC3 9251  27.602   2.774   9.453
 5481POPC   PO4 9252  27.616   2.766   9.153
 5481POPC   GL1 9253  27.637   2.755   8.853
 5481POPC   GL2 9254  27.655   2.677   8.853
 5481POPC   C1A 9255  27.617   2.776   8.553
 5481POPC   D2A 9256  27.592   2.724   8.253
 5481POPC   C3A 9257  27.565   2.769   7.953
 5481POPC   C4A 9258  27.640   2.752   7.653
 5481POPC   C1B 9259  27.602   2.512   8.553
 5481POPC   C2B 9260  27.665   2.532   8.253
 5481POPC   C3B 9261  27.679   2.509   7.953
 5481POPC   C4B 9262  27.685   2.534   7.653
 5482POPC   NC3 9263  29.159  32.978   9.453
 5482POPC   PO4 9264  29.098  33.039   9.153
 5482POPC   GL1 9265  29.168  33.067   8.853
 5482POPC   GL2 9266  29.246  33.077   8.853
 5482POPC   C1A 9267  29.139  33.062   8.553
 5482POPC   D2A 9268  29.167  33.036   8.253
 5482POPC   C3A 9269  29.132  32.987   7.953
 5482POPC   C4A 9270  29.131  33.068   7.653
 5482POPC   C1B 9271  29.304  33.230   8.553
 5482POPC   C2B 9272  29.282  33.212   8.253
 5482POPC   C3B 9273  29.359  33.193   7.953
 5482POPC   C4B 9274  29.350  33.202   7.653
 5483POPC   NC3 9275  13.669  19.793   9.453
 5483POPC   PO4 9276  13.585  19.803   9.153
 5483POPC   GL1 9277  13.610  19.813   8.853
 5483POPC   GL2 9278  13.715  19.986   8.853
 5483POPC   C1A 9279  13.653  19.862   8.553
 5483POPC   D2A 9280  13.612  19.826   8.253
 5483POPC   C3A 9281  13.584  19.824   7.953
 5483POPC   C4A 9282  13.594  19.881   7.653
 5483POPC   C1B 9283  13.712  20.085   8.553
 5483POPC   C2B 9284  13.727  20.068   8.253
 5483POPC   C3B 9285  13.716  20.094   7.953
 5483POPC   C4B 9286  13.706  20.026   7.653
 5484POPC   NC3 9287  20.579  40.791   9.453
 5484POPC   PO4 9288  20.590  40.797   9.153
 5484POPC   GL1 9289  20.578  40.803   8.853
 5484POPC   GL2 9290  20.556  40.932   8.853
 5484POPC   C1A 9291  20.610  40.826   8.553
 5484POPC   D2A 9292  20.650  40.770   8.253
 5484POPC   C3A 9293  20.567  40.799   7.953
 5484POPC   C4A 9294  20.583  40.760   7.653
 5484POPC   C1B 9295  20.609  41.040   8.553
 5484POPC   C2B 9296  20.609  41.062   8.253
 5484POPC   C3B 9297  20.562  41.019   7.953
 5484POPC   C4B 9298  20.589  41.057   7.653
 5485POPC   NC3 9299   2.795   8.945   9.453
 5485POPC   PO4 9300   2.756   8.963   9.153
 5485POPC   GL1 9301   2.721   8.964   8.853
 5485POPC   GL2 9302   2.868   8.926   8.853
 5485POPC   C1A 9303   2.803   8.986   8.553
 5485POPC   D2A 9304   2.771   8.929   8.253
 5485POPC   C3A 9305   2.725   8.966   7.953
 5485POPC   C4A 9306   2.750   8.970   7.653
 5485POPC   C1B 9307   2.964   8.825   8.553
 5485POPC   C2B 9308   2.965   8.861   8.253
 5485POPC   C3B 9309   2.942   8.851   7.953
 5485POPC   C4B 9310   2.992   8.809   7.653
 5486POPC   NC3 9311  41.588  34.550   9.453
 5486POPC   PO4 9312  41.584  34.621   9.153
 5486POPC   GL1 9313  41.522  34.547   8.853
 5486POPC   GL2 9314  41.485  34.669   8.853
 5486POPC   C1A 9315  41.608  34.592   8.553
 5486POPC   D2A 9316  41.573  34.584   8.253
 5486POPC   C3A 9317  41.566  34.538   7.953
 5486POPC   C4A 9318  41.582  34.579   7.653
 5486POPC   C1B 9319  41.380  34.785   8.553
 5486POPC   C2B 9320  41.335  34.704   8.253
 5486POPC   C3B 9321  41.411  34.732   7.953
 5486POPC   C4B 9322  41.342  34.788   7.653
 5487POPC   NC3 9323  43.132  15.145   9.453
 5487POPC   PO4 9324  43.086  15.215   9.153
 5487POPC   GL1 9325  43.141  15.191   8.853
 5487POPC   GL2 9326  43.238  15.091   8.853
 5487POPC   C1A 9327  43.160  15.214   8.553
 5487POPC   D2A 9328  43.143  15.221   8.253
 5487POPC   C3A 9329  43.156  15.153   7.953
 5487POPC   C4A 9330  43.125  15.212   7.653
 5487POPC   C1B 9331  43.316  15.015   8.553
 5487POPC   C2B 9332  43.341  14.983   8.253
 5487POPC   C3B 9333  43.252  15.018   7.953
 5487POPC   C4B 9334  43.253  15.031   7.653
 5488POPC   NC3 9335  42.351  24.479   9.453
 5488POPC   PO4 9336  42.371  24.492   9.153
 5488POPC   GL1 9337  42.340  24.446   8.853
 5488POPC   GL2 9338  42.450  24.478   8.853
 5488POPC   C1A 9339  42.327  24.513   8.553
 5488POPC   D2A 9340  42.317  24.442   8.253
 5488POPC   C3A 9341  42.327  24.514   7.953
 5488POPC   C4A 9342  42.305  24.467   7.653
 5488POPC   C1B 9343  42.590  24.536   8.553
 5488POPC   C2B 9344  42.543  24.601   8.253
 5488POPC   C3B 9345  42.542  24.604   7.953
 5488POPC   C4B 9346  42.548  24.536   7.653
 5489POPC   NC3 9347  23.677  36.895   9.453
 5489POPC   PO4 9348  23.692  36.909   9.153
 5489POPC   GL1 9349  23.687  36.892   8.853
 5489POPC   GL2 9350  23.749  37.057   8.853
 5489POPC   C1A 9351  23.692  36.892   8.553
 5489POPC   D2A 9352  23.757  36.878   8.253
 5489POPC   C3A 9353  23.722  36.863   7.953
 5489POPC   C4A 9354  23.726  36.876   7.653
 5489POPC   C1B 9355  23.728  37.146   8.553
 5489POPC   C2B 9356  23.718  37.166   8.253
 5489POPC   C3B 9357  23.778  37.145   7.953
 5489POPC   C4B 9358  23.683  37.160   7.653
 5490POPC   NC3 9359   1.988  22.982   9.453
 5490POPC   PO4 9360   2.015  22.963   9.153
 5490POPC   GL1 9361   1.990  22.911   8.853
 5490POPC   GL2 9362   1.933  23.009   8.853
 5490POPC   C1A 9363   1.948  22.939   8.553
 5490POPC   D2A 9364   1.985  22.951   8.253
 5490POPC   C3A 9365   1.973  22.943   7.953
 5490POPC   C4A 9366   1.974  22.890   7.653
 5490POPC   C1B 9367   1.801  23.047   8.553
 5490POPC   C2B 9368   1.763  23.068   8.253
 5490POPC   C3B 9369   1.824  23.122   7.953
 5490POPC   C4B 9370   1.758  23.092   7.653
 5491POPC   NC3 9371  35.393  32.225   9.453
 5491POPC   PO4 9372  35.330  32.229   9.153
 5491POPC   GL1 9373  35.341  32.204   8.853
 5491POPC   GL2 9374  35.326  32.374   8.853
 5491POPC   C1A 9375  35.370  32.222   8.553
 5491POPC   D2A 9376  35.325  32.243   8.253
 5491POPC   C3A 9377  35.398  32.289   7.953
 5491POPC   C4A 9378  35.322  32.294   7.653
 5491POPC   C1B 9379  35.398  32.496   8.553
 5491POPC   C2B 9380  35.428  32.454   8.253
 5491POPC   C3B 9381  35.411  32.451   7.953
 5491POPC   C4B 9382  35.392  32.450   7.653
 5492POPC   NC3 9383  39.269  39.973   9.453
 5492POPC   PO4 9384  39.272  39.978   9.153
 5492POPC   GL1 9385  39.245  40.023   8.853
 5492POPC   GL2 9386  39.275  40.105   8.853
 5492POPC   C1A 9387  39.281  40.057   8.553
 5492POPC   D2A 9388  39.202  40.039   8.253
 5492POPC   C3A 9389  39.258  40.029   7.953
 5492POPC   C4A 9390  39.250  39.972   7.653
 5492POPC   C1B 9391  39.427  40.215   8.553
 5492POPC   C2B 9392  39.425  40.167   8.253
 5492POPC   C3B 9393  39.354  40.166   7.953
 5492POPC   C4B 9394  39.441  40.225   7.653
 5493POPC   NC3 9395  20.610  19.868   9.453
 5493POPC   PO4 9396  20.561  19.822   9.153
 5493POPC   GL1 9397  20.612  19.814   8.853
 5493POPC   GL2 9398  20.697  19.809   8.853
 5493POPC   C1A 9399  20.586  19.815   8.553
 5493POPC   D2A 9400  20.608  19.818   8.253
 5493POPC   C3A 9401  20.652  19.866   7.953
 5493POPC   C4A 9402  20.587  19.834   7.653
 5493POPC   C1B 9403  20.872  19.831   8.553
 5493POPC   C2B 9404  20.818  19.865   8.253
 5493POPC   C3B 9405  20.810  19.792   7.953
 5493POPC   C4B 9406  20.907  19.778   7.653
 5494POPC   NC3 9407  25.994  37.664   9.453
 5494POPC   PO4 9408  26.038  37.714   9.153
 5494POPC   GL1 9409  26.085  37.635   8.853
 5494POPC   GL2 9410  26.150  37.750   8.853
 5494POPC   C1A 9411  26.077  37.678   8.553
 5494POPC   D2A 9412  26.037  37.665   8.253
 5494POPC   C3A 9413  26.068  37.682   7.953
 5494POPC   C4A 9414  26.025  37.647   7.653
 5494POPC   C1B 9415  26.288  37.733   8.553
 5494POPC   C2B 9416  26.316  37.750   8.253
 5494POPC   C3B 9417  26.251  37.793   7.953
 5494POPC   C4B 9418  26.260  37.758   7.653
 5495POPC   NC3 9419   6.693  29.149   9.453
 5495POPC   PO4 9420   6.651  29.144   9.153
 5495POPC   GL1 9421   6.617  29.194   8.853
 5495POPC   GL2 9422   6.604  29.209   8.853
 5495POPC   C1A 9423   6.663  29.149   8.553
 5495POPC   D2A 9424   6.672  29.123   8.253
 5495POPC   C3A 9425   6.663  29.129   7.953
 5495POPC   C4A 9426   6.615  29.129   7.653
 5495POPC   C1B 9427   6.473  29.327   8.553
 5495POPC   C2B 9428   6.470  29.289   8.253
 5495POPC   C3B 9429   6.454  29.350   7.953
 5495POPC   C4B 9430   6.446  29.297   7.653
 5496POPC   NC3 9431  43.911  27.622   9.453
 5496POPC   PO4 9432  43.852  27.632   9.153
 5496POPC   GL1 9433  43.837  27.576   8.853
 5496POPC   GL2 9434  43.776  27.722   8.853
 5496POPC   C1A 9435  43.880  27.620   8.553
 5496POPC   D2A 9436  43.932  27.643   8.253
 5496POPC   C3A 9437  43.919  27.628   7.953
 5496POPC   C4A 9438  43.877  27.632   7.653
 5496POPC   C1B 9439  43.765  27.806   8.553
 5496POPC   C2B 9440  43.774  27.764   8.253
 5496POPC   C3B 9441  43.760  27.808   7.953
 5496POPC   C4B 9442  43.753  27.761   7.653
 5497POPC   NC3 9443  43.067  14.434   9.453
 5497POPC   PO4 9444  43.092  14.383   9.153
 5497POPC   GL1 9445  43.139  14.380   8.853
 5497POPC   GL2 9446  43.022  14.275   8.853
 5497POPC   C1A 9447  43.153  14.374   8.553
 5497POPC   D2A 9448  43.110  14.432   8.253
 5497POPC   C3A 9449  43.080  14.410   7.953
 5497POPC   C4A 9450  43.146  14.422   7.653
 5497POPC   C1B 9451  43.032  14.134   8.553
 5497POPC   C2B 9452  43.018  14.223   8.253
 5497POPC   C3B 9453  43.002  14.147   7.953
 5497POPC   C4B 9454  43.015  14.168   7.653
 5498POPC   NC3 9455  39.198  30.731   9.453
 5498POPC   PO4 9456  39.190  30.664   9.153
 5498POPC   GL1 9457  39.208  30.709   8.853
 5498POPC   GL2 9458  39.346  30.802   8.853
 5498POPC   C1A 9459  39.192  30.732   8.553
 5498POPC   D2A 9460  39.186  30.742   8.253
 5498POPC   C3A 9461  39.240  30.665   7.953
 5498POPC   C4A 9462  39.205  30.702   7.653
 5498POPC   C1B 9463  39.472  30.871   8.553
 5498POPC   C2B 9464  39.416  30.876   8.253
 5498POPC   C3B 9465  39.477  30.869   7.953
 5498POPC   C4B 9466  39.451  30.869   7.653
 5499POPC   NC3 9467  31.490   8.180   9.453
 5499POPC   PO4 9468  31.522   8.234   9.153
 5499POPC   GL1 9469  31.433   8.158   8.853
 5499POPC   GL2 9470  31.419   8.120   8.853
 5499POPC   C1A 9471  31.510   8.177   8.553
 5499POPC   D2A 9472  31.484   8.180   8.253
 5499POPC   C3A 9473  31.435   8.161   7.953
 5499POPC   C4A 9474  31.454   8.168   7.653
 5499POPC   C1B 9475  31.464   7.979   8.553
 5499POPC   C2B 9476  31.462   7.994   8.253
 5499POPC   C3B 9477  31.400   7.901   7.953
 5499POPC   C4B 9478  31.463   7.922   7.653
 5500POPC   NC3 9479  22.979   5.108   9.453
 5500POPC   PO4 9480  22.955   5.113   9.153
 5500POPC   GL1 9481  22.974   5.134   8.853
 5500POPC   GL2 9482  22.876   4.998   8.853
 5500POPC   C1A 9483  22.966   5.125   8.553
 5500POPC   D2A 9484  22.945   5.112   8.253
 5500POPC   C3A 9485  22.968   5.136   7.953
 5500POPC   C4A 9486  22.937   5.118   7.653
 5500POPC   C1B 9487  22.837   4.805   8.553
 5500POPC   C2B 9488  22.931   4.863   8.253
 5500POPC   C3B 9489  22.933   4.882   7.953
 5500POPC   C4B 9490  22.877   4.807   7.653
 5501POPC   NC3 9491  22.984  25.265   9.453
 5501POPC   PO4 9492  22.897  25.294   9.153
 5501POPC   GL1 9493  22.917  25.227   8.853
 5501POPC   GL2 9494  22.998  25.359   8.853
 5501POPC   C1A 9495  22.906  25.277   8.553
 5501POPC   D2A 9496  22.923  25.311   8.253
 5501POPC   C3A 9497  22.912  25.305   7.953
 5501POPC   C4A 9498  22.963  25.242   7.653
 5501POPC   C1B 9499  23.127  25.449   8.553
 5501POPC   C2B 9500  23.145  25.423   8.253
 5501POPC   C3B 9501  23.172  25.406   7.953
 5501POPC   C4B 9502  23.097  25.476   7.653
 5502POPC   NC3 9503  29.126   5.917   9.453
 5502POPC   PO4 9504  29.104   5.827   9.153
 5502POPC   GL1 9505  29.194   5.899   8.853
 5502POPC   GL2 9506  29.003   5.926   8.853
 5502POPC   C1A 9507  29.140   5.822   8.553
 5502POPC   D2A 9508  29.102   5.836   8.253
 5502POPC   C3A 9509  29.129   5.870   7.953
 5502POPC   C4A 9510  29.112   5.849   7.653
 5502POPC   C1B 9511  28.946   6.026   8.553
 5502POPC   C2B 9512  28.889   5.953   8.253
 5502POPC   C3B 9513  28.944   6.020   7.953
 5502POPC   C4B 9514  28.903   5.993   7.653
 5503POPC   NC3 9515   5.864  40.803   9.453
 5503POPC   PO4 9516   5.846  40.802   9.153
 5503POPC   GL1 9517   5.917  40.741   8.853
 5503POPC   GL2 9518   5.877  40.649   8.853
 5503POPC   C1A 9519   5.893  40.787   8.553
 5503POPC   D2A 9520   5.885  40.803   8.253
 5503POPC   C3A 9521   5.901  40.832   7.953
 5503POPC   C4A 9522   5.888  40.800   7.653
 5503POPC   C1B 9523   5.926  40.578   8.553
 5503POPC   C2B 9524   5.990  40.521   8.253
 5503POPC   C3B 9525   5.959  40.561   7.953
 5503POPC   C4B 9526   5.927  40.588   7.653
 5504POPC   NC3 9527  22.920  32.975   9.453
 5504POPC   PO4 9528  22.916  33.036   9.153
 5504POPC   GL1 9529  22.941  33.052   8.853
 5504POPC   GL2 9530  22.911  33.119   8.853
 5504POPC   C1A 9531  22.926  33.044   8.553
 5504POPC   D2A 9532  22.978  33.061   8.253
 5504POPC   C3A 9533  22.892  33.011   7.953
 5504POPC   C4A 9534  22.960  33.038   7.653
 5504POPC   C1B 9535  22.976  33.275   8.553
 5504POPC   C2B 9536  22.969  33.285   8.253
 5504POPC   C3B 9537  22.914  33.296   7.953
 5504POPC   C4B 9538  22.946  33.294   7.653
 5505POPC   NC3 9539  32.277  13.661   9.453
 5505POPC   PO4 9540  32.220  13.652   9.153
 5505POPC   GL1 9541  32.246  13.670   8.853
 5505POPC   GL2 9542  32.088  13.596   8.853
 5505POPC   C1A 9543  32.232  13.604   8.553
 5505POPC   D2A 9544  32.277  13.643   8.253
 5505POPC   C3A 9545  32.280  13.668   7.953
 5505POPC   C4A 9546  32.229  13.676   7.653
 5505POPC   C1B 9547  31.974  13.591   8.553
 5505POPC   C2B 9548  32.048  13.569   8.253
 5505POPC   C3B 9549  31.958  13.586   7.953
 5505POPC   C4B 9550  31.970  13.610   7.653
 5506POPC   NC3 9551  15.909   5.870   9.453
 5506POPC   PO4 9552  16.000   5.915   9.153
 5506POPC   GL1 9553  15.948   5.893   8.853
 5506POPC   GL2 9554  15.791   5.907   8.853
 5506POPC   C1A 9555  15.967   5.894   8.553
 5506POPC   D2A 9556  15.939   5.822   8.253
 5506POPC   C3A 9557  15.909   5.893   7.953
 5506POPC   C4A 9558  15.954   5.830   7.653
 5506POPC   C1B 9559  15.675   5.962   8.553
 5506POPC   C2B 9560  15.749   5.967   8.253
 5506POPC   C3B 9561  15.773   6.006   7.953
 5506POPC   C4B 9562  15.726   5.929   7.653
 5507POPC   NC3 9563  33.064  25.240   9.453
 5507POPC   PO4 9564  33.012  25.265   9.153
 5507POPC   GL1 9565  33.018  25.245   8.853
 5507POPC   GL2 9566  32.964  25.329   8.853
 5507POPC   C1A 9567  33.053  25.280   8.553
 5507POPC   D2A 9568  33.017  25.250   8.253
 5507POPC   C3A 9569  33.028  25.311   7.953
 5507POPC   C4A 9570  33.063  25.259   7.653
 5507POPC   C1B 9571  32.821  25.490   8.553
 5507POPC   C2B 9572  32.823  25.437   8.253
 5507POPC   C3B 9573  32.856  25.490   7.953
 5507POPC   C4B 9574  32.891  25.435   7.653
 5508POPC   NC3 9575  42.315  23.727   9.453
 5508POPC   PO4 9576  42.329  23.703   9.153
 5508POPC   GL1 9577  42.369  23.733   8.853
 5508POPC   GL2 9578  42.226  23.705   8.853
 5508POPC   C1A 9579  42.320  23.752   8.553
 5508POPC   D2A 9580  42.324  23.693   8.253
 5508POPC   C3A 9581  42.332  23.699   7.953
 5508POPC   C4A 9582  42.367  23.755   7.653
 5508POPC   C1B 9583  42.068  23.767   8.553
 5508POPC   C2B 9584  42.079  23.784   8.253
 5508POPC   C3B 9585  42.105  23.802   7.953
 5508POPC   C4B 9586  42.073  23.764   7.653
 5509POPC   NC3 9587  12.836  10.511   9.453
 5509POPC   PO4 9588  12.860  10.478   9.153
 5509POPC   GL1 9589  12.844  10.489   8.853
 5509POPC   GL2 9590  12.728  10.440   8.853
 5509POPC   C1A 9591  12.897  10.559   8.553
 5509POPC   D2A 9592  12.844  10.518   8.253
 5509POPC   C3A 9593  12.881  10.509   7.953
 5509POPC   C4A 9594  12.829  10.544   7.653
 5509POPC   C1B 9595  12.687  10.373   8.553
 5509POPC   C2B 9596  12.627  10.368   8.253
 5509POPC   C3B 9597  12.695  10.393   7.953
 5509POPC   C4B 9598  12.630  10.377   7.653
 5510POPC   NC3 9599  31.497  35.364   9.453
 5510POPC   PO4 9600  31.521  35.353   9.153
 5510POPC   GL1 9601  31.467  35.326   8.853
 5510POPC   GL2 9602  31.514  35.438   8.853
 5510POPC   C1A 9603  31.522  35.388   8.553
 5510POPC   D2A 9604  31.423  35.328   8.253
 5510POPC   C3A 9605  31.500  35.393   7.953
 5510POPC   C4A 9606  31.439  35.321   7.653
 5510POPC   C1B 9607  31.510  35.643   8.553
 5510POPC   C2B 9608  31.561  35.592   8.253
 5510POPC   C3B 9609  31.516  35.607   7.953
 5510POPC   C4B 9610  31.502  35.600   7.653
 5511POPC   NC3 9611   2.764  39.992   9.453
 5511POPC   PO4 9612   2.791  40.023   9.153
 5511POPC   GL1 9613   2.769  40.002   8.853
 5511POPC   GL2 9614   2.666  40.008   8.853
 5511POPC   C1A 9615   2.737  40.001   8.553
 5511POPC   D2A 9616   2.762  39.988   8.253
 5511POPC   C3A 9617   2.815  39.984   7.953
 5511POPC   C4A 9618   2.760  39.999   7.653
 5511POPC   C1B 9619   2.514  39.951   8.553
 5511POPC   C2B 9620   2.494  39.890   8.253
 5511POPC   C3B 9621   2.530  39.956   7.953
 5511POPC   C4B 9622   2.557  39.952   7.653
 5512POPC   NC3 9623  22.893   4.316   9.453
 5512POPC   PO4 9624  22.932   4.300   9.153
 5512POPC   GL1 9625  22.950   4.351   8.853
 5512POPC   GL2 9626  22.836   4.316   8.853
 5512POPC   C1A 9627  22.924   4.312   8.553
 5512POPC   D2A 9628  22.975   4.363   8.253
 5512POPC   C3A 9629  22.946   4.354   7.953
 5512POPC   C4A 9630  22.959   4.337   7.653
 5512POPC   C1B 9631  22.655   4.219   8.553
 5512POPC   C2B 9632  22.746   4.273   8.253
 5512POPC   C3B 9633  22.741   4.250   7.953
 5512POPC   C4B 9634  22.686   4.242   7.653
 5513POPC   NC3 9635  40.830  35.304   9.453
 5513POPC   PO4 9636  40.807  35.358   9.153
 5513POPC   GL1 9637  40.765  35.315   8.853
 5513POPC   GL2 9638  40.653  35.325   8.853
 5513POPC   C1A 9639  40.784  35.372   8.553
 5513POPC   D2A 9640  40.754  35.316   8.253
 5513POPC   C3A 9641  40.827  35.392   7.953
 5513POPC   C4A 9642  40.749  35.361   7.653
 5513POPC   C1B 9643  40.538  35.231   8.553
 5513POPC   C2B 9644  40.529  35.237   8.253
 5513POPC   C3B 9645  40.585  35.266   7.953
 5513POPC   C4B 9646  40.569  35.260   7.653
 5514POPC   NC3 9647  15.144  31.425   9.453
 5514POPC   PO4 9648  15.153  31.503   9.153
 5514POPC   GL1 9649  15.202  31.443   8.853
 5514POPC   GL2 9650  15.031  31.411   8.853
 5514POPC   C1A 9651  15.190  31.503   8.553
 5514POPC   D2A 9652  15.211  31.495   8.253
 5514POPC   C3A 9653  15.188  31.445   7.953
 5514POPC   C4A 9654  15.134  31.440   7.653
 5514POPC   C1B 9655  14.915  31.459   8.553
 5514POPC   C2B 9656  14.960  31.418   8.253
 5514POPC   C3B 9657  14.900  31.406   7.953
 5514POPC   C4B 9658  14.928  31.446   7.653
 5515POPC   NC3 9659  22.918  34.532   9.453
 5515POPC   PO4 9660  22.934  34.585   9.153
 5515POPC   GL1 9661  22.941  34.617   8.853
 5515POPC   GL2 9662  23.040  34.611   8.853
 5515POPC   C1A 9663  22.891  34.530   8.553
 5515POPC   D2A 9664  22.939  34.541   8.253
 5515POPC   C3A 9665  22.920  34.619   7.953
 5515POPC   C4A 9666  22.907  34.553   7.653
 5515POPC   C1B 9667  23.219  34.621   8.553
 5515POPC   C2B 9668  23.136  34.624   8.253
 5515POPC   C3B 9669  23.160  34.688   7.953
 5515POPC   C4B 9670  23.226  34.667   7.653
 5516POPC   NC3 9671   5.126   5.857   9.453
 5516POPC   PO4 9672   5.076   5.847   9.153
 5516POPC   GL1 9673   5.066   5.858   8.853
 5516POPC   GL2 9674   5.027   5.816   8.853
 5516POPC   C1A 9675   5.098   5.903   8.553
 5516POPC   D2A 9676   5.137   5.824   8.253
 5516POPC   C3A 9677   5.092   5.910   7.953
 5516POPC   C4A 9678   5.115   5.881   7.653
 5516POPC   C1B 9679   4.932   5.695   8.553
 5516POPC   C2B 9680   4.905   5.649   8.253
 5516POPC   C3B 9681   4.901   5.700   7.953
 5516POPC   C4B 9682   4.900   5.700   7.653
 5517POPC   NC3 9683   5.889  26.793   9.453
 5517POPC   PO4 9684   5.880  26.838   9.153
 5517POPC   GL1 9685   5.864  26.802   8.853
 5517POPC   GL2 9686   5.907  26.947   8.853
 5517POPC   C1A 9687   5.874  26.819   8.553
 5517POPC   D2A 9688   5.852  26.774   8.253
 5517POPC   C3A 9689   5.915  26.786   7.953
 5517POPC   C4A 9690   5.867  26.771   7.653
 5517POPC   C1B 9691   5.923  27.051   8.553
 5517POPC   C2B 9692   5.910  27.073   8.253
 5517POPC   C3B 9693   5.927  27.078   7.953
 5517POPC   C4B 9694   5.891  27.032   7.653
 5518POPC   NC3 9695  34.575  33.062   9.453
 5518POPC   PO4 9696  34.532  33.001   9.153
 5518POPC   GL1 9697  34.572  33.010   8.853
 5518POPC   GL2 9698  34.551  32.904   8.853
 5518POPC   C1A 9699  34.536  32.982   8.553
 5518POPC   D2A 9700  34.568  32.986   8.253
 5518POPC   C3A 9701  34.622  33.003   7.953
 5518POPC   C4A 9702  34.546  33.067   7.653
 5518POPC   C1B 9703  34.559  32.752   8.553
 5518POPC   C2B 9704  34.546  32.784   8.253
 5518POPC   C3B 9705  34.526  32.799   7.953
 5518POPC   C4B 9706  34.537  32.767   7.653
 5519POPC   NC3 9707  12.837   4.336   9.453
 5519POPC   PO4 9708  12.862   4.353   9.153
 5519POPC   GL1 9709  12.806   4.299   8.853
 5519POPC   GL2 9710  12.764   4.203   8.853
 5519POPC   C1A 9711  12.850   4.303   8.553
 5519POPC   D2A 9712  12.880   4.271   8.253
 5519POPC   C3A 9713  12.856   4.323   7.953
 5519POPC   C4A 9714  12.845   4.334   7.653
 5519POPC   C1B 9715  12.662   4.176   8.553
 5519POPC   C2B 9716  12.653   4.157   8.253
 5519POPC   C3B 9717  12.607   4.171   7.953
 5519POPC   C4B 9718  12.624   4.145   7.653
 5520POPC   NC3 9719  38.475  42.318   9.453
 5520POPC   PO4 9720  38.504  42.305   9.153
 5520POPC   GL1 9721  38.439  42.287   8.853
 5520POPC   GL2 9722  38.611  42.330   8.853
 5520POPC   C1A 9723  38.460  42.316   8.553
 5520POPC   D2A 9724  38.412  42.367   8.253
 5520POPC   C3A 9725  38.410  42.306   7.953
 5520POPC   C4A 9726  38.482  42.345   7.653
 5520POPC   C1B 9727  38.699  42.376   8.553
 5520POPC   C2B 9728  38.709  42.377   8.253
 5520POPC   C3B 9729  38.670  42.459   7.953
 5520POPC   C4B 9730  38.730  42.426   7.653
 5521POPC   NC3 9731  31.496   4.276   9.453
 5521POPC   PO4 9732  31.461   4.347   9.153
 5521POPC   GL1 9733  31.448   4.351   8.853
 5521POPC   GL2 9734  31.535   4.199   8.853
 5521POPC   C1A 9735  31.490   4.324   8.553
 5521POPC   D2A 9736  31.430   4.276   8.253
 5521POPC   C3A 9737  31.493   4.346   7.953
 5521POPC   C4A 9738  31.460   4.321   7.653
 5521POPC   C1B 9739  31.551   4.085   8.553
 5521POPC   C2B 9740  31.558   4.033   8.253
 5521POPC   C3B 9741  31.537   4.042   7.953
 5521POPC   C4B 9742  31.585   4.075   7.653
 5522POPC   NC3 9743  24.485  22.921   9.453
 5522POPC   PO4 9744  24.453  22.946   9.153
 5522POPC   GL1 9745  24.480  22.921   8.853
 5522POPC   GL2 9746  24.556  22.846   8.853
 5522POPC   C1A 9747  24.488  22.937   8.553
 5522POPC   D2A 9748  24.465  22.975   8.253
 5522POPC   C3A 9749  24.529  22.940   7.953
 5522POPC   C4A 9750  24.463  22.976   7.653
 5522POPC   C1B 9751  24.556  22.685   8.553
 5522POPC   C2B 9752  24.586  22.743   8.253
 5522POPC   C3B 9753  24.597  22.712   7.953
 5522POPC   C4B 9754  24.558  22.699   7.653
 5523POPC   NC3 9755  19.797  43.906   9.453
 5523POPC   PO4 9756  19.804  43.905   9.153
 5523POPC   GL1 9757  19.875  43.891   8.853
 5523POPC   GL2 9758  19.768  43.832   8.853
 5523POPC   C1A 9759  19.858  43.884   8.553
 5523POPC   D2A 9760  19.828  43.932   8.253
 5523POPC   C3A 9761  19.856  43.844   7.953
 5523POPC   C4A 9762  19.869  43.862   7.653
 5523POPC   C1B 9763  19.654  43.671   8.553
 5523POPC   C2B 9764  19.627  43.675   8.253
 5523POPC   C3B 9765  19.619  43.748   7.953
 5523POPC   C4B 9766  19.640  43.696   7.653
 5524POPC   NC3 9767   0.395  27.630   9.453
 5524POPC   PO4 9768   0.475  27.587   9.153
 5524POPC   GL1 9769   0.468  27.577   8.853
 5524POPC   GL2 9770   0.465  27.670   8.853
 5524POPC   C1A 9771   0.422  27.605   8.553
 5524POPC   D2A 9772   0.455  27.622   8.253
 5524POPC   C3A 9773   0.461  27.583   7.953
 5524POPC   C4A 9774   0.389  27.602   7.653
 5524POPC   C1B 9775   0.540  27.819   8.553
 5524POPC   C2B 9776   0.562  27.872   8.253
 5524POPC   C3B 9777   0.549  27.838   7.953
 5524POPC   C4B 9778   0.562  27.797   7.653
 5525POPC   NC3 9779  17.544  29.192   9.453
 5525POPC   PO4 9780  17.509  29.180   9.153
 5525POPC   GL1 9781  17.551  29.097   8.853
 5525POPC   GL2 9782  17.464  29.277   8.853
 5525POPC   C1A 9783  17.463  29.115   8.553
 5525POPC   D2A 9784  17.531  29.128   8.253
 5525POPC   C3A 9785  17.476  29.137   7.953
 5525POPC   C4A 9786  17.541  29.100   7.653
 5525POPC   C1B 9787  17.454  29.373   8.553
 5525POPC   C2B 9788  17.425  29.410   8.253
 5525POPC   C3B 9789  17.379  29.350   7.953
 5525POPC   C4B 9790  17.446  29.367   7.653
 5526POPC   NC3 9791  12.035  40.041   9.453
 5526POPC   PO4 9792  12.037  40.052   9.153
 5526POPC   GL1 9793  12.086  39.960   8.853
 5526POPC   GL2 9794  11.997  40.022   8.853
 5526POPC   C1A 9795  12.028  39.957   8.553
 5526POPC   D2A 9796  12.083  40.033   8.253
 5526POPC   C3A 9797  12.040  40.046   7.953
 5526POPC   C4A 9798  12.051  40.000   7.653
 5526POPC   C1B 9799  11.808  40.034   8.553
 5526POPC   C2B 9800  11.787  40.027   8.253
 5526POPC   C3B 9801  11.818  40.011   7.953
 5526POPC   C4B 9802  11.825  40.009   7.653
 5527POPC   NC3 9803   5.105  19.034   9.453
 5527POPC   PO4 9804   5.075  19.032   9.153
 5527POPC   GL1 9805   5.129  19.085   8.853
 5527POPC   GL2 9806   5.027  18.944   8.853
 5527POPC   C1A 9807   5.117  19.035   8.553
 5527POPC   D2A 9808   5.059  19.048   8.253
 5527POPC   C3A 9809   5.056  19.074   7.953
 5527POPC   C4A 9810   5.101  19.101   7.653
 5527POPC   C1B 9811   5.088  18.840   8.553
 5527POPC   C2B 9812   5.060  18.803   8.253
 5527POPC   C3B 9813   5.037  18.786   7.953
 5527POPC   C4B 9814   5.056  18.775   7.653
 5528POPC   NC3 9815  12.114   0.443   9.453
 5528POPC   PO4 9816  12.035   0.449   9.153
 5528POPC   GL1 9817  12.087   0.417   8.853
 5528POPC   GL2 9818  11.973   0.521   8.853
 5528POPC   C1A 9819  12.125   0.474   8.553
 5528POPC   D2A 9820  12.086   0.421   8.253
 5528POPC   C3A 9821  12.028   0.484   7.953
 5528POPC   C4A 9822  12.083   0.423   7.653
 5528POPC   C1B 9823  11.869   0.581   8.553
 5528POPC   C2B 9824  11.927   0.548   8.253
 5528POPC   C3B 9825  11.852   0.584   7.953
 5528POPC   C4B 9826  11.895   0.616   7.653
 5529POPC   NC3 9827  29.194   2.018   9.453
 5529POPC   PO4 9828  29.193   1.977   9.153
 5529POPC   GL1 9829  29.181   1.957   8.853
 5529POPC   GL2 9830  29.176   1.861   8.853
 5529POPC   C1A 9831  29.107   1.955   8.553
 5529POPC   D2A 9832  29.179   1.948   8.253
 5529POPC   C3A 9833  29.111   2.023   7.953
 5529POPC   C4A 9834  29.166   2.016   7.653
 5529POPC   C1B 9835  29.293   1.829   8.553
 5529POPC   C2B 9836  29.309   1.809   8.253
 5529POPC   C3B 9837  29.261   1.751   7.953
 5529POPC   C4B 9838  29.256   1.756   7.653
 5530POPC   NC3 9839  19.084  32.290   9.453
 5530POPC   PO4 9840  19.103  32.239   9.153
 5530POPC   GL1 9841  19.090  32.205   8.853
 5530POPC   GL2 9842  19.057  32.408   8.853
 5530POPC   C1A 9843  19.076  32.236   8.553
 5530POPC   D2A 9844  19.033  32.287   8.253
 5530POPC   C3A 9845  19.094  32.257   7.953
 5530POPC   C4A 9846  19.053  32.230   7.653
 5530POPC   C1B 9847  19.078  32.470   8.553
 5530POPC   C2B 9848  19.104  32.482   8.253
 5530POPC   C3B 9849  19.075  32.481   7.953
 5530POPC   C4B 9850  19.158  32.522   7.653
 5531POPC   NC3 9851  25.309  21.357   9.453
 5531POPC   PO4 9852  25.287  21.418   9.153
 5531POPC   GL1 9853  25.225  21.349   8.853
 5531POPC   GL2 9854  25.216  21.342   8.853
 5531POPC   C1A 9855  25.291  21.391   8.553
 5531POPC   D2A 9856  25.262  21.363   8.253
 5531POPC   C3A 9857  25.234  21.351   7.953
 5531POPC   C4A 9858  25.219  21.402   7.653
 5531POPC   C1B 9859  25.132  21.220   8.553
 5531POPC   C2B 9860  25.123  21.247   8.253
 5531POPC   C3B 9861  25.082  21.192   7.953
 5531POPC   C4B 9862  25.054  21.200   7.653
 5532POPC   NC3 9863  38.475  43.094   9.453
 5532POPC   PO4 9864  38.436  43.154   9.153
 5532POPC   GL1 9865  38.463  43.141   8.853
 5532POPC   GL2 9866  38.362  43.015   8.853
 5532POPC   C1A 9867  38.415  43.159   8.553
 5532POPC   D2A 9868  38.498  43.128   8.253
 5532POPC   C3A 9869  38.478  43.111   7.953
 5532POPC   C4A 9870  38.481  43.101   7.653
 5532POPC   C1B 9871  38.251  43.008   8.553
 5532POPC   C2B 9872  38.235  42.993   8.253
 5532POPC   C3B 9873  38.173  42.973   7.953
 5532POPC   C4B 9874  38.237  42.988   7.653
 5533POPC   NC3 9875  42.321   0.435   9.453
 5533POPC   PO4 9876  42.316   0.388   9.153
 5533POPC   GL1 9877  42.349   0.452   8.853
 5533POPC   GL2 9878  42.435   0.332   8.853
 5533POPC   C1A 9879  42.380   0.486   8.553
 5533POPC   D2A 9880  42.350   0.414   8.253
 5533POPC   C3A 9881  42.348   0.407   7.953
 5533POPC   C4A 9882  42.316   0.429   7.653
 5533POPC   C1B 9883  42.515   0.246   8.553
 5533POPC   C2B 9884  42.448   0.201   8.253
 5533POPC   C3B 9885  42.531   0.245   7.953
 5533POPC   C4B 9886  42.494   0.240   7.653
 5534POPC   NC3 9887  32.976  26.840   9.453
 5534POPC   PO4 9888  32.989  26.850   9.153
 5534POPC   GL1 9889  32.992  26.818   8.853
 5534POPC   GL2 9890  33.043  26.686   8.853
 5534POPC   C1A 9891  33.037  26.841   8.553
 5534POPC   D2A 9892  33.051  26.831   8.253
 5534POPC   C3A 9893  32.996  26.867   7.953
 5534POPC   C4A 9894  33.006  26.829   7.653
 5534POPC   C1B 9895  33.071  26.535   8.553
 5534POPC   C2B 9896  33.118  26.553   8.253
 5534POPC   C3B 9897  33.085  26.576   7.953
 5534POPC   C4B 9898  33.127  26.595   7.653
 5535POPC   NC3 9899  21.364  25.997   9.453
 5535POPC   PO4 9900  21.374  26.050   9.153
 5535POPC   GL1 9901  21.399  26.022   8.853
 5535POPC   GL2 9902  21.550  26.089   8.853
 5535POPC   C1A 9903  21.413  26.063   8.553
 5535POPC   D2A 9904  21.426  26.067   8.253
 5535POPC   C3A 9905  21.380  26.083   7.953
 5535POPC   C4A 9906  21.418  26.050   7.653
 5535POPC   C1B 9907  21.582  26.047   8.553
 5535POPC   C2B 9908  21.612  26.060   8.253
 5535POPC   C3B 9909  21.635  26.131   7.953
 5535POPC   C4B 9910  21.677  26.066   7.653
 5536POPC   NC3 9911  29.967  20.626   9.453
 5536POPC   PO4 9912  29.964  20.650   9.153
 5536POPC   GL1 9913  29.959  20.653   8.853
 5536POPC   GL2 9914  29.831  20.683   8.853
 5536POPC   C1A 9915  29.957  20.601   8.553
 5536POPC   D2A 9916  29.878  20.640   8.253
 5536POPC   C3A 9917  29.896  20.570   7.953
 5536POPC   C4A 9918  29.928  20.570   7.653
 5536POPC   C1B 9919  29.665  20.771   8.553
 5536POPC   C2B 9920  29.726  20.746   8.253
 5536POPC   C3B 9921  29.703  20.724   7.953
 5536POPC   C4B 9922  29.747  20.774   7.653
 5537POPC   NC3 9923  39.272  15.193   9.453
 5537POPC   PO4 9924  39.229  15.141   9.153
 5537POPC   GL1 9925  39.240  15.220   8.853
 5537POPC   GL2 9926  39.110  15.105   8.853
 5537POPC   C1A 9927  39.214  15.212   8.553
 5537POPC   D2A 9928  39.199  15.227   8.253
 5537POPC   C3A 9929  39.233  15.167   7.953
 5537POPC   C4A 9930  39.235  15.170   7.653
 5537POPC   C1B 9931  38.996  15.014   8.553
 5537POPC   C2B 9932  39.045  15.048   8.253
 5537POPC   C3B 9933  39.067  15.009   7.953
 5537POPC   C4B 9934  39.073  15.065   7.653
 5538POPC   NC3 9935  24.514  33.058   9.453
 5538POPC   PO4 9936  24.490  33.003   9.153
 5538POPC   GL1 9937  24.509  33.020   8.853
 5538POPC   GL2 9938  24.394  32.912   8.853
 5538POPC   C1A 9939  24.526  33.004   8.553
 5538POPC   D2A 9940  24.455  33.058   8.253
 5538POPC   C3A 9941  24.451  32.983   7.953
 5538POPC   C4A 9942  24.520  33.039   7.653
 5538POPC   C1B 9943  24.287  32.872   8.553
 5538POPC   C2B 9944  24.244  32.895   8.253
 5538POPC   C3B 9945  24.269  32.843   7.953
 5538POPC   C4B 9946  24.330  32.839   7.653
 5539POPC   NC3 9947  36.856  35.336   9.453
 5539POPC   PO4 9948  36.950  35.365   9.153
 5539POPC   GL1 9949  36.878  35.390   8.853
 5539POPC   GL2 9950  36.990  35.414   8.853
 5539POPC   C1A 9951  36.912  35.311   8.553
 5539POPC   D2A 9952  36.905  35.327   8.253
 5539POPC   C3A 9953  36.942  35.384   7.953
 5539POPC   C4A 9954  36.924  35.380   7.653
 5539POPC   C1B 9955  37.069  35.507   8.553
 5539POPC   C2B 9956  37.054  35.575   8.253
 5539POPC   C3B 9957  37.086  35.533   7.953
 5539POPC   C4B 9958  37.089  35.485   7.653
 5540POPC   NC3 9959  44.710  21.392   9.453
 5540POPC   PO4 9960  44.709  21.372   9.153
 5540POPC   GL1 9961  44.685  21.357   8.853
 5540POPC   GL2 9962  44.560  21.339   8.853
 5540POPC   C1A 9963  44.679  21.365   8.553
 5540POPC   D2A 9964  44.653  21.386   8.253
 5540POPC   C3A 9965  44.660  21.365   7.953
 5540POPC   C4A 9966  44.668  21.353   7.653
 5540POPC   C1B 9967  44.410  21.247   8.553
 5540POPC   C2B 9968  44.385  21.297   8.253
 5540POPC   C3B 9969  44.458  21.280   7.953
 5540POPC   C4B 9970  44.448  21.322   7.653
 5541POPC   NC3 9971  10.504  44.653   9.453
 5541POPC   PO4 9972  10.550  44.624   9.153
 5541POPC   GL1 9973  10.477  44.665   8.853
 5541POPC   GL2 9974  10.545  44.823   8.853
 5541POPC   C1A 9975  10.508  44.626   8.553
 5541POPC   D2A 9976  10.479  44.615   8.253
 5541POPC   C3A 9977  10.492  44.690   7.953
 5541POPC   C4A 9978  10.563  44.621   7.653
 5541POPC   C1B 9979  10.453  44.887   8.553
 5541POPC   C2B 9980  10.455  44.905   8.253
 5541POPC   C3B 9981  10.462  44.944   7.953
 5541POPC   C4B 9982  10.458  44.872   7.653
 5542POPC   NC3 9983  39.230  43.140   9.453
 5542POPC   PO4 9984  39.258  43.080   9.153
 5542POPC   GL1 9985  39.268  43.079   8.853
 5542POPC   GL2 9986  39.322  43.271   8.853
 5542POPC   C1A 9987  39.190  43.114   8.553
 5542POPC   D2A 9988  39.183  43.071   8.253
 5542POPC   C3A 9989  39.183  43.107   7.953
 5542POPC   C4A 9990  39.226  43.129   7.653
 5542POPC   C1B 9991  39.362  43.309   8.553
 5542POPC   C2B 9992  39.337  43.307   8.253
 5542POPC   C3B 9993  39.374  43.378   7.953
 5542POPC   C4B 9994  39.318  43.387   7.653
 5543POPC   NC3 9995  10.527  18.299   9.453
 5543POPC   PO4 9996  10.483  18.305   9.153
 5543POPC   GL1 9997  10.558  18.317   8.853
 5543POPC   GL2 9998  10.673  18.362   8.853
 5543POPC   C1A 9999  10.504  18.325   8.553
 5543POPC   D2A10000  10.482  18.304   8.253
 5543POPC   C3A10001  10.549  18.261   7.953
 5543POPC   C4A10002  10.520  18.329   7.653
 5543POPC   C1B10003  10.706  18.423   8.553
 5543POPC   C2B10004  10.762  18.354   8.253
 5543POPC   C3B10005  10.790  18.415   7.953
 5543POPC   C4B10006  10.777  18.432   7.653
 5544POPC   NC310007  39.256   0.427   9.453
 5544POPC   PO410008  39.241   0.485   9.153
 5544POPC   GL110009  39.248   0.399   8.853
 5544POPC   GL210010  39.152   0.321   8.853
 5544POPC   C1A10011  39.202   0.436   8.553
 5544POPC   D2A10012  39.210   0.464   8.253
 5544POPC   C3A10013  39.192   0.424   7.953
 5544POPC   C4A10014  39.225   0.468   7.653
 5544POPC   C1B10015  39.046   0.238   8.553
 5544POPC   C2B10016  39.020   0.272   8.253
 5544POPC   C3B10017  39.027   0.309   7.953
 5544POPC   C4B10018  39.032   0.302   7.653
 5545POPC   NC310019   5.053  26.824   9.453
 5545POPC   PO410020   5.107  26.777   9.153
 5545POPC   GL110021   5.050  26.768   8.853
 5545POPC   GL210022   5.259  26.798   8.853
 5545POPC   C1A10023   5.141  26.805   8.553
 5545POPC   D2A10024   5.128  26.819   8.253
 5545POPC   C3A10025   5.121  26.839   7.953
 5545POPC   C4A10026   5.083  26.853   7.653
 5545POPC   C1B10027   5.372  26.796   8.553
 5545POPC   C2B10028   5.343  26.841   8.253
 5545POPC   C3B10029   5.345  26.782   7.953
 5545POPC   C4B10030   5.349  26.787   7.653
 5546POPC   NC310031  12.115  11.260   9.453
 5546POPC   PO410032  12.124  11.276   9.153
 5546POPC   GL110033  12.071  11.282   8.853
 5546POPC   GL210034  12.165  11.324   8.853
 5546POPC   C1A10035  12.034  11.256   8.553
 5546POPC   D2A10036  12.100  11.295   8.253
 5546POPC   C3A10037  12.037  11.279   7.953
 5546POPC   C4A10038  12.058  11.295   7.653
 5546POPC   C1B10039  12.305  11.383   8.553
 5546POPC   C2B10040  12.354  11.366   8.253
 5546POPC   C3B10041  12.266  11.349   7.953
 5546POPC   C4B10042  12.270  11.391   7.653
 5547POPC   NC310043  43.839  35.317   9.453
 5547POPC   PO410044  43.866  35.349   9.153
 5547POPC   GL110045  43.898  35.336   8.853
 5547POPC   GL210046  43.929  35.235   8.853
 5547POPC   C1A10047  43.888  35.357   8.553
 5547POPC   D2A10048  43.901  35.312   8.253
 5547POPC   C3A10049  43.852  35.346   7.953
 5547POPC   C4A10050  43.867  35.326   7.653
 5547POPC   C1B10051  44.071  35.183   8.553
 5547POPC   C2B10052  44.028  35.193   8.253
 5547POPC   C3B10053  44.066  35.143   7.953
 5547POPC   C4B10054  44.057  35.121   7.653
 5548POPC   NC310055  14.382   9.774   9.453
 5548POPC   PO410056  14.409   9.759   9.153
 5548POPC   GL110057  14.442   9.710   8.853
 5548POPC   GL210058  14.352   9.839   8.853
 5548POPC   C1A10059  14.376   9.749   8.553
 5548POPC   D2A10060  14.422   9.778   8.253
 5548POPC   C3A10061  14.410   9.706   7.953
 5548POPC   C4A10062  14.412   9.737   7.653
 5548POPC   C1B10063  14.197   9.913   8.553
 5548POPC   C2B10064  14.231   9.899   8.253
 5548POPC   C3B10065  14.171   9.955   7.953
 5548POPC   C4B10066  14.176   9.930   7.653
 5549POPC   NC310067  19.052  41.533   9.453
 5549POPC   PO410068  19.101  41.572   9.153
 5549POPC   GL110069  19.037  41.514   8.853
 5549POPC   GL210070  19.222  41.588   8.853
 5549POPC   C1A10071  19.106  41.567   8.553
 5549POPC   D2A10072  19.029  41.548   8.253
 5549POPC   C3A10073  19.075  41.526   7.953
 5549POPC   C4A10074  19.060  41.514   7.653
 5549POPC   C1B10075  19.272  41.654   8.553
 5549POPC   C2B10076  19.311  41.705   8.253
 5549POPC   C3B10077  19.269  41.666   7.953
 5549POPC   C4B10078  19.305  41.688   7.653
 5550POPC   NC310079  33.767   0.468   9.453
 5550POPC   PO410080  33.774   0.413   9.153
 5550POPC   GL110081  33.803   0.401   8.853
 5550POPC   GL210082  33.709   0.539   8.853
 5550POPC   C1A10083  33.792   0.460   8.553
 5550POPC   D2A10084  33.762   0.476   8.253
 5550POPC   C3A10085  33.775   0.399   7.953
 5550POPC   C4A10086  33.843   0.394   7.653
 5550POPC   C1B10087  33.650   0.572   8.553
 5550POPC   C2B10088  33.581   0.603   8.253
 5550POPC   C3B10089  33.596   0.664   7.953
 5550POPC   C4B10090  33.618   0.596   7.653
 5551POPC   NC310091  38.442  33.758   9.453
 5551POPC   PO410092  38.415  33.796   9.153
 5551POPC   GL110093  38.456  33.799   8.853
 5551POPC   GL210094  38.314  33.708   8.853
 5551POPC   C1A10095  38.442  33.849   8.553
 5551POPC   D2A10096  38.446  33.794   8.253
 5551POPC   C3A10097  38.490  33.800   7.953
 5551POPC   C4A10098  38.442  33.833   7.653
 5551POPC   C1B10099  38.249  33.713   8.553
 5551POPC   C2B10100  38.205  33.741   8.253
 5551POPC   C3B10101  38.247  33.747   7.953
 5551POPC   C4B10102  38.240  33.701   7.653
 5552POPC   NC310103  34.531   0.462   9.453
 5552POPC   PO410104  34.555   0.443   9.153
 5552POPC   GL110105  34.614   0.421   8.853
 5552POPC   GL210106  34.554   0.328   8.853
 5552POPC   C1A10107  34.590   0.432   8.553
 5552POPC   D2A10108  34.598   0.397   8.253
 5552POPC   C3A10109  34.546   0.481   7.953
 5552POPC   C4A10110  34.567   0.411   7.653
 5552POPC   C1B10111  34.501   0.178   8.553
 5552POPC   C2B10112  34.526   0.205   8.253
 5552POPC   C3B10113  34.533   0.164   7.953
 5552POPC   C4B10114  34.500   0.177   7.653
 5553POPC   NC310115  22.128  30.716   9.453
 5553POPC   PO410116  22.183  30.669   9.153
 5553POPC   GL110117  22.156  30.724   8.853
 5553POPC   GL210118  22.267  30.693   8.853
 5553POPC   C1A10119  22.194  30.734   8.553
 5553POPC   D2A10120  22.194  30.713   8.253
 5553POPC   C3A10121  22.189  30.696   7.953
 5553POPC   C4A10122  22.113  30.657   7.653
 5553POPC   C1B10123  22.450  30.664   8.553
 5553POPC   C2B10124  22.449  30.612   8.253
 5553POPC   C3B10125  22.365  30.597   7.953
 5553POPC   C4B10126  22.436  30.668   7.653
 5554POPC   NC310127  30.672  19.096   9.453
 5554POPC   PO410128  30.666  19.075   9.153
 5554POPC   GL110129  30.745  19.041   8.853
 5554POPC   GL210130  30.594  19.158   8.853
 5554POPC   C1A10131  30.719  19.099   8.553
 5554POPC   D2A10132  30.666  19.044   8.253
 5554POPC   C3A10133  30.722  19.013   7.953
 5554POPC   C4A10134  30.687  19.089   7.653
 5554POPC   C1B10135  30.580  19.262   8.553
 5554POPC   C2B10136  30.539  19.198   8.253
 5554POPC   C3B10137  30.504  19.240   7.953
 5554POPC   C4B10138  30.566  19.294   7.653
 5555POPC   NC310139  29.097  33.778   9.453
 5555POPC   PO410140  29.120  33.826   9.153
 5555POPC   GL110141  29.101  33.763   8.853
 5555POPC   GL210142  29.314  33.857   8.853
 5555POPC   C1A10143  29.136  33.761   8.553
 5555POPC   D2A10144  29.108  33.824   8.253
 5555POPC   C3A10145  29.187  33.832   7.953
 5555POPC   C4A10146  29.096  33.823   7.653
 5555POPC   C1B10147  29.416  33.811   8.553
 5555POPC   C2B10148  29.394  33.804   8.253
 5555POPC   C3B10149  29.384  33.802   7.953
 5555POPC   C4B10150  29.373  33.884   7.653
 5556POPC   NC310151  27.592   2.020   9.453
 5556POPC   PO410152  27.626   1.949   9.153
 5556POPC   GL110153  27.606   2.030   8.853
 5556POPC   GL210154  27.704   2.127   8.853
 5556POPC   C1A10155  27.571   1.966   8.553
 5556POPC   D2A10156  27.631   1.973   8.253
 5556POPC   C3A10157  27.582   2.010   7.953
 5556POPC   C4A10158  27.578   1.975   7.653
 5556POPC   C1B10159  27.731   2.166   8.553
 5556POPC   C2B10160  27.711   2.247   8.253
 5556POPC   C3B10161  27.692   2.197   7.953
 5556POPC   C4B10162  27.698   2.247   7.653
 5557POPC   NC310163  35.338  22.138   9.453
 5557POPC   PO410164  35.390  22.116   9.153
 5557POPC   GL110165  35.370  22.161   8.853
 5557POPC   GL210166  35.371  22.088   8.853
 5557POPC   C1A10167  35.382  22.164   8.553
 5557POPC   D2A10168  35.352  22.120   8.253
 5557POPC   C3A10169  35.373  22.178   7.953
 5557POPC   C4A10170  35.394  22.152   7.653
 5557POPC   C1B10171  35.476  21.998   8.553
 5557POPC   C2B10172  35.436  21.908   8.253
 5557POPC   C3B10173  35.444  21.911   7.953
 5557POPC   C4B10174  35.463  21.944   7.653
 5558POPC   NC310175   2.747   2.782   9.453
 5558POPC   PO410176   2.782   2.784   9.153
 5558POPC   GL110177   2.721   2.808   8.853
 5558POPC   GL210178   2.655   2.782   8.853
 5558POPC   C1A10179   2.813   2.723   8.553
 5558POPC   D2A10180   2.737   2.812   8.253
 5558POPC   C3A10181   2.787   2.718   7.953
 5558POPC   C4A10182   2.810   2.798   7.653
 5558POPC   C1B10183   2.471   2.837   8.553
 5558POPC   C2B10184   2.543   2.801   8.253
 5558POPC   C3B10185   2.520   2.823   7.953
 5558POPC   C4B10186   2.489   2.815   7.653
 5559POPC   NC310187  19.856  36.900   9.453
 5559POPC   PO410188  19.821  36.906   9.153
 5559POPC   GL110189  19.797  36.872   8.853
 5559POPC   GL210190  19.805  37.013   8.853
 5559POPC   C1A10191  19.817  36.876   8.553
 5559POPC   D2A10192  19.850  36.889   8.253
 5559POPC   C3A10193  19.829  36.861   7.953
 5559POPC   C4A10194  19.834  36.873   7.653
 5559POPC   C1B10195  19.767  37.142   8.553
 5559POPC   C2B10196  19.799  37.146   8.253
 5559POPC   C3B10197  19.833  37.192   7.953
 5559POPC   C4B10198  19.759  37.180   7.653
 5560POPC   NC310199  32.999   5.907   9.453
 5560POPC   PO410200  33.017   5.904   9.153
 5560POPC   GL110201  33.054   5.910   8.853
 5560POPC   GL210202  33.035   5.752   8.853
 5560POPC   C1A10203  33.008   5.861   8.553
 5560POPC   D2A10204  33.066   5.905   8.253
 5560POPC   C3A10205  33.033   5.876   7.953
 5560POPC   C4A10206  33.038   5.851   7.653
 5560POPC   C1B10207  33.018   5.596   8.553
 5560POPC   C2B10208  33.047   5.575   8.253
 5560POPC   C3B10209  33.073   5.671   7.953
 5560POPC   C4B10210  33.074   5.586   7.653
 5561POPC   NC310211  26.076   8.962   9.453
 5561POPC   PO410212  26.075   9.001   9.153
 5561POPC   GL110213  26.029   8.985   8.853
 5561POPC   GL210214  26.098   8.867   8.853
 5561POPC   C1A10215  26.016   8.931   8.553
 5561POPC   D2A10216  26.076   9.013   8.253
 5561POPC   C3A10217  25.994   9.012   7.953
 5561POPC   C4A10218  26.038   8.972   7.653
 5561POPC   C1B10219  26.202   8.814   8.553
 5561POPC   C2B10220  26.230   8.783   8.253
 5561POPC   C3B10221  26.265   8.763   7.953
 5561POPC   C4B10222  26.191   8.777   7.653
 5562POPC   NC310223  15.931  39.266   9.453
 5562POPC   PO410224  15.995  39.241   9.153
 5562POPC   GL110225  16.004  39.273   8.853
 5562POPC   GL210226  15.972  39.323   8.853
 5562POPC   C1A10227  15.993  39.250   8.553
 5562POPC   D2A10228  16.000  39.258   8.253
 5562POPC   C3A10229  15.961  39.227   7.953
 5562POPC   C4A10230  16.002  39.198   7.653
 5562POPC   C1B10231  15.923  39.527   8.553
 5562POPC   C2B10232  15.937  39.524   8.253
 5562POPC   C3B10233  15.909  39.507   7.953
 5562POPC   C4B10234  15.944  39.482   7.653
 5563POPC   NC310235  11.308  28.336   9.453
 5563POPC   PO410236  11.317  28.378   9.153
 5563POPC   GL110237  11.332  28.382   8.853
 5563POPC   GL210238  11.228  28.272   8.853
 5563POPC   C1A10239  11.294  28.390   8.553
 5563POPC   D2A10240  11.336  28.384   8.253
 5563POPC   C3A10241  11.341  28.391   7.953
 5563POPC   C4A10242  11.271  28.388   7.653
 5563POPC   C1B10243  11.215  28.099   8.553
 5563POPC   C2B10244  11.157  28.173   8.253
 5563POPC   C3B10245  11.217  28.172   7.953
 5563POPC   C4B10246  11.215  28.180   7.653
 5564POPC   NC310247  37.686   6.646   9.453
 5564POPC   PO410248  37.700   6.618   9.153
 5564POPC   GL110249  37.687   6.607   8.853
 5564POPC   GL210250  37.662   6.800   8.853
 5564POPC   C1A10251  37.714   6.659   8.553
 5564POPC   D2A10252  37.708   6.620   8.253
 5564POPC   C3A10253  37.635   6.612   7.953
 5564POPC   C4A10254  37.713   6.671   7.653
 5564POPC   C1B10255  37.523   6.825   8.553
 5564POPC   C2B10256  37.529   6.812   8.253
 5564POPC   C3B10257  37.569   6.831   7.953
 5564POPC   C4B10258  37.604   6.858   7.653
 5565POPC   NC310259   8.964  40.012   9.453
 5565POPC   PO410260   9.007  39.961   9.153
 5565POPC   GL110261   9.022  40.008   8.853
 5565POPC   GL210262   8.858  39.940   8.853
 5565POPC   C1A10263   8.947  39.962   8.553
 5565POPC   D2A10264   9.019  40.000   8.253
 5565POPC   C3A10265   8.934  39.991   7.953
 5565POPC   C4A10266   8.976  39.970   7.653
 5565POPC   C1B10267   8.722  39.885   8.553
 5565POPC   C2B10268   8.714  39.902   8.253
 5565POPC   C3B10269   8.753  39.910   7.953
 5565POPC   C4B10270   8.726  39.840   7.653
 5566POPC   NC310271  22.931  26.035   9.453
 5566POPC   PO410272  22.968  26.081   9.153
 5566POPC   GL110273  22.947  26.008   8.853
 5566POPC   GL210274  23.094  26.123   8.853
 5566POPC   C1A10275  22.954  26.076   8.553
 5566POPC   D2A10276  22.902  26.085   8.253
 5566POPC   C3A10277  22.944  26.017   7.953
 5566POPC   C4A10278  22.940  26.084   7.653
 5566POPC   C1B10279  23.173  26.156   8.553
 5566POPC   C2B10280  23.156  26.150   8.253
 5566POPC   C3B10281  23.163  26.123   7.953
 5566POPC   C4B10282  23.187  26.102   7.653
 5567POPC   NC310283  11.302  27.621   9.453
 5567POPC   PO410284  11.284  27.579   9.153
 5567POPC   GL110285  11.312  27.578   8.853
 5567POPC   GL210286  11.285  27.749   8.853
 5567POPC   C1A10287  11.329  27.565   8.553
 5567POPC   D2A10288  11.254  27.551   8.253
 5567POPC   C3A10289  11.349  27.548   7.953
 5567POPC   C4A10290  11.333  27.617   7.653
 5567POPC   C1B10291  11.163  27.825   8.553
 5567POPC   C2B10292  11.219  27.808   8.253
 5567POPC   C3B10293  11.196  27.829   7.953
 5567POPC   C4B10294  11.181  27.802   7.653
 5568POPC   NC310295  36.888  18.293   9.453
 5568POPC   PO410296  36.859  18.286   9.153
 5568POPC   GL110297  36.889  18.332   8.853
 5568POPC   GL210298  36.987  18.205   8.853
 5568POPC   C1A10299  36.925  18.324   8.553
 5568POPC   D2A10300  36.915  18.250   8.253
 5568POPC   C3A10301  36.904  18.259   7.953
 5568POPC   C4A10302  36.945  18.270   7.653
 5568POPC   C1B10303  37.101  18.082   8.553
 5568POPC   C2B10304  37.079  18.144   8.253
 5568POPC   C3B10305  37.123  18.090   7.953
 5568POPC   C4B10306  37.119  18.142   7.653
 5569POPC   NC310307  34.552  26.090   9.453
 5569POPC   PO410308  34.565  26.030   9.153
 5569POPC   GL110309  34.610  26.049   8.853
 5569POPC   GL210310  34.515  26.126   8.853
 5569POPC   C1A10311  34.567  26.021   8.553
 5569POPC   D2A10312  34.575  26.084   8.253
 5569POPC   C3A10313  34.554  25.995   7.953
 5569POPC   C4A10314  34.536  26.088   7.653
 5569POPC   C1B10315  34.406  26.189   8.553
 5569POPC   C2B10316  34.402  26.209   8.253
 5569POPC   C3B10317  34.403  26.221   7.953
 5569POPC   C4B10318  34.404  26.135   7.653
 5570POPC   NC310319   8.147  44.622   9.453
 5570POPC   PO410320   8.224  44.627   9.153
 5570POPC   GL110321   8.212  44.686   8.853
 5570POPC   GL210322   8.213  44.545   8.853
 5570POPC   C1A10323   8.240  44.615   8.553
 5570POPC   D2A10324   8.190  44.704   8.253
 5570POPC   C3A10325   8.209  44.674   7.953
 5570POPC   C4A10326   8.185  44.652   7.653
 5570POPC   C1B10327   8.148  44.392   8.553
 5570POPC   C2B10328   8.188  44.436   8.253
 5570POPC   C3B10329   8.112  44.435   7.953
 5570POPC   C4B10330   8.174  44.445   7.653
 5571POPC   NC310331  26.059   7.428   9.453
 5571POPC   PO410332  26.049   7.401   9.153
 5571POPC   GL110333  26.038   7.420   8.853
 5571POPC   GL210334  25.945   7.490   8.853
 5571POPC   C1A10335  26.055   7.423   8.553
 5571POPC   D2A10336  26.079   7.387   8.253
 5571POPC   C3A10337  26.013   7.408   7.953
 5571POPC   C4A10338  26.018   7.467   7.653
 5571POPC   C1B10339  25.912   7.630   8.553
 5571POPC   C2B10340  25.842   7.648   8.253
 5571POPC   C3B10341  25.902   7.629   7.953
 5571POPC   C4B10342  25.863   7.651   7.653
 5572POPC   NC310343  23.756  36.088   9.453
 5572POPC   PO410344  23.676  36.125   9.153
 5572POPC   GL110345  23.726  36.146   8.853
 5572POPC   GL210346  23.755  35.980   8.853
 5572POPC   C1A10347  23.694  36.158   8.553
 5572POPC   D2A10348  23.720  36.108   8.253
 5572POPC   C3A10349  23.742  36.166   7.953
 5572POPC   C4A10350  23.717  36.133   7.653
 5572POPC   C1B10351  23.820  35.858   8.553
 5572POPC   C2B10352  23.794  35.912   8.253
 5572POPC   C3B10353  23.773  35.938   7.953
 5572POPC   C4B10354  23.791  35.882   7.653
 5573POPC   NC310355  10.503  37.655   9.453
 5573POPC   PO410356  10.522  37.670   9.153
 5573POPC   GL110357  10.561  37.718   8.853
 5573POPC   GL210358  10.616  37.708   8.853
 5573POPC   C1A10359  10.514  37.723   8.553
 5573POPC   D2A10360  10.560  37.695   8.253
 5573POPC   C3A10361  10.554  37.687   7.953
 5573POPC   C4A10362  10.509  37.631   7.653
 5573POPC   C1B10363  10.737  37.671   8.553
 5573POPC   C2B10364  10.782  37.716   8.253
 5573POPC   C3B10365  10.744  37.638   7.953
 5573POPC   C4B10366  10.788  37.625   7.653
 5574POPC   NC310367  29.875  19.791   9.453
 5574POPC   PO410368  29.914  19.800   9.153
 5574POPC   GL110369  29.916  19.811   8.853
 5574POPC   GL210370  29.786  19.793   8.853
 5574POPC   C1A10371  29.877  19.835   8.553
 5574POPC   D2A10372  29.882  19.797   8.253
 5574POPC   C3A10373  29.888  19.837   7.953
 5574POPC   C4A10374  29.933  19.871   7.653
 5574POPC   C1B10375  29.682  19.746   8.553
 5574POPC   C2B10376  29.696  19.788   8.253
 5574POPC   C3B10377  29.706  19.780   7.953
 5574POPC   C4B10378  29.729  19.773   7.653
 5575POPC   NC310379  21.423  13.584   9.453
 5575POPC   PO410380  21.378  13.586   9.153
 5575POPC   GL110381  21.357  13.616   8.853
 5575POPC   GL210382  21.246  13.662   8.853
 5575POPC   C1A10383  21.433  13.617   8.553
 5575POPC   D2A10384  21.405  13.657   8.253
 5575POPC   C3A10385  21.339  13.605   7.953
 5575POPC   C4A10386  21.340  13.663   7.653
 5575POPC   C1B10387  21.170  13.717   8.553
 5575POPC   C2B10388  21.122  13.719   8.253
 5575POPC   C3B10389  21.136  13.733   7.953
 5575POPC   C4B10390  21.157  13.737   7.653
 5576POPC   NC310391  13.674  28.402   9.453
 5576POPC   PO410392  13.662  28.417   9.153
 5576POPC   GL110393  13.621  28.386   8.853
 5576POPC   GL210394  13.573  28.413   8.853
 5576POPC   C1A10395  13.676  28.352   8.553
 5576POPC   D2A10396  13.582  28.379   8.253
 5576POPC   C3A10397  13.595  28.320   7.953
 5576POPC   C4A10398  13.654  28.347   7.653
 5576POPC   C1B10399  13.462  28.485   8.553
 5576POPC   C2B10400  13.456  28.550   8.253
 5576POPC   C3B10401  13.445  28.467   7.953
 5576POPC   C4B10402  13.378  28.474   7.653
 5577POPC   NC310403  31.488   5.907   9.453
 5577POPC   PO410404  31.448   5.897   9.153
 5577POPC   GL110405  31.484   5.830   8.853
 5577POPC   GL210406  31.358   5.910   8.853
 5577POPC   C1A10407  31.461   5.914   8.553
 5577POPC   D2A10408  31.473   5.820   8.253
 5577POPC   C3A10409  31.446   5.849   7.953
 5577POPC   C4A10410  31.487   5.874   7.653
 5577POPC   C1B10411  31.265   6.010   8.553
 5577POPC   C2B10412  31.263   6.049   8.253
 5577POPC   C3B10413  31.294   6.054   7.953
 5577POPC   C4B10414  31.299   5.992   7.653
 5578POPC   NC310415  18.290  38.445   9.453
 5578POPC   PO410416  18.321  38.441   9.153
 5578POPC   GL110417  18.298  38.481   8.853
 5578POPC   GL210418  18.299  38.595   8.853
 5578POPC   C1A10419  18.299  38.498   8.553
 5578POPC   D2A10420  18.244  38.438   8.253
 5578POPC   C3A10421  18.266  38.476   7.953
 5578POPC   C4A10422  18.310  38.415   7.653
 5578POPC   C1B10423  18.209  38.727   8.553
 5578POPC   C2B10424  18.266  38.723   8.253
 5578POPC   C3B10425  18.234  38.652   7.953
 5578POPC   C4B10426  18.259  38.748   7.653
 5579POPC   NC310427  25.222  30.687   9.453
 5579POPC   PO410428  25.283  30.696   9.153
 5579POPC   GL110429  25.263  30.731   8.853
 5579POPC   GL210430  25.336  30.566   8.853
 5579POPC   C1A10431  25.217  30.685   8.553
 5579POPC   D2A10432  25.247  30.655   8.253
 5579POPC   C3A10433  25.224  30.687   7.953
 5579POPC   C4A10434  25.223  30.714   7.653
 5579POPC   C1B10435  25.443  30.564   8.553
 5579POPC   C2B10436  25.418  30.505   8.253
 5579POPC   C3B10437  25.492  30.486   7.953
 5579POPC   C4B10438  25.474  30.516   7.653
 5580POPC   NC310439  23.758  43.082   9.453
 5580POPC   PO410440  23.701  43.142   9.153
 5580POPC   GL110441  23.743  43.114   8.853
 5580POPC   GL210442  23.679  43.257   8.853
 5580POPC   C1A10443  23.701  43.071   8.553
 5580POPC   D2A10444  23.728  43.133   8.253
 5580POPC   C3A10445  23.733  43.129   7.953
 5580POPC   C4A10446  23.759  43.143   7.653
 5580POPC   C1B10447  23.634  43.312   8.553
 5580POPC   C2B10448  23.634  43.404   8.253
 5580POPC   C3B10449  23.652  43.317   7.953
 5580POPC   C4B10450  23.690  43.398   7.653
 5581POPC   NC310451  43.093  29.916   9.453
 5581POPC   PO410452  43.125  29.934   9.153
 5581POPC   GL110453  43.081  29.963   8.853
 5581POPC   GL210454  43.104  29.851   8.853
 5581POPC   C1A10455  43.088  29.883   8.553
 5581POPC   D2A10456  43.098  29.951   8.253
 5581POPC   C3A10457  43.087  29.903   7.953
 5581POPC   C4A10458  43.082  29.956   7.653
 5581POPC   C1B10459  43.004  29.640   8.553
 5581POPC   C2B10460  43.029  29.683   8.253
 5581POPC   C3B10461  42.994  29.725   7.953
 5581POPC   C4B10462  43.022  29.683   7.653
 5582POPC   NC310463  12.103   4.307   9.453
 5582POPC   PO410464  12.115   4.268   9.153
 5582POPC   GL110465  12.063   4.329   8.853
 5582POPC   GL210466  12.052   4.236   8.853
 5582POPC   C1A10467  12.043   4.325   8.553
 5582POPC   D2A10468  12.091   4.309   8.253
 5582POPC   C3A10469  12.103   4.316   7.953
 5582POPC   C4A10470  12.043   4.315   7.653
 5582POPC   C1B10471  12.019   4.098   8.553
 5582POPC   C2B10472  11.929   4.085   8.253
 5582POPC   C3B10473  12.021   4.086   7.953
 5582POPC   C4B10474  11.937   4.074   7.653
 5583POPC   NC310475   6.667  40.015   9.453
 5583POPC   PO410476   6.663  39.990   9.153
 5583POPC   GL110477   6.639  40.057   8.853
 5583POPC   GL210478   6.606  40.126   8.853
 5583POPC   C1A10479   6.688  39.979   8.553
 5583POPC   D2A10480   6.630  40.007   8.253
 5583POPC   C3A10481   6.656  40.003   7.953
 5583POPC   C4A10482   6.661  39.997   7.653
 5583POPC   C1B10483   6.525  40.188   8.553
 5583POPC   C2B10484   6.488  40.214   8.253
 5583POPC   C3B10485   6.525  40.178   7.953
 5583POPC   C4B10486   6.475  40.154   7.653
 5584POPC   NC310487  43.905  18.255   9.453
 5584POPC   PO410488  43.844  18.277   9.153
 5584POPC   GL110489  43.936  18.254   8.853
 5584POPC   GL210490  43.905  18.385   8.853
 5584POPC   C1A10491  43.908  18.233   8.553
 5584POPC   D2A10492  43.930  18.239   8.253
 5584POPC   C3A10493  43.935  18.329   7.953
 5584POPC   C4A10494  43.845  18.285   7.653
 5584POPC   C1B10495  43.936  18.520   8.553
 5584POPC   C2B10496  43.905  18.504   8.253
 5584POPC   C3B10497  43.963  18.551   7.953
 5584POPC   C4B10498  43.887  18.534   7.653
 5585POPC   NC310499  11.293   8.970   9.453
 5585POPC   PO410500  11.339   9.020   9.153
 5585POPC   GL110501  11.291   8.954   8.853
 5585POPC   GL210502  11.376   8.959   8.853
 5585POPC   C1A10503  11.279   8.938   8.553
 5585POPC   D2A10504  11.263   9.020   8.253
 5585POPC   C3A10505  11.260   8.984   7.953
 5585POPC   C4A10506  11.288   9.004   7.653
 5585POPC   C1B10507  11.514   8.861   8.553
 5585POPC   C2B10508  11.512   8.883   8.253
 5585POPC   C3B10509  11.541   8.913   7.953
 5585POPC   C4B10510  11.544   8.914   7.653
 5586POPC   NC310511   1.244   8.232   9.453
 5586POPC   PO410512   1.177   8.187   9.153
 5586POPC   GL110513   1.227   8.206   8.853
 5586POPC   GL210514   1.343   8.157   8.853
 5586POPC   C1A10515   1.263   8.182   8.553
 5586POPC   D2A10516   1.170   8.239   8.253
 5586POPC   C3A10517   1.240   8.204   7.953
 5586POPC   C4A10518   1.248   8.171   7.653
 5586POPC   C1B10519   1.402   8.054   8.553
 5586POPC   C2B10520   1.450   8.084   8.253
 5586POPC   C3B10521   1.453   8.054   7.953
 5586POPC   C4B10522   1.486   8.117   7.653
 5587POPC   NC310523  28.411   5.107   9.453
 5587POPC   PO410524  28.390   5.133   9.153
 5587POPC   GL110525  28.370   5.067   8.853
 5587POPC   GL210526  28.505   5.060   8.853
 5587POPC   C1A10527  28.349   5.089   8.553
 5587POPC   D2A10528  28.416   5.136   8.253
 5587POPC   C3A10529  28.334   5.090   7.953
 5587POPC   C4A10530  28.403   5.056   7.653
 5587POPC   C1B10531  28.619   5.067   8.553
 5587POPC   C2B10532  28.630   5.103   8.253
 5587POPC   C3B10533  28.570   5.121   7.953
 5587POPC   C4B10534  28.582   5.130   7.653
 5588POPC   NC310535  11.310  26.857   9.453
 5588POPC   PO410536  11.322  26.860   9.153
 5588POPC   GL110537  11.345  26.835   8.853
 5588POPC   GL210538  11.222  26.893   8.853
 5588POPC   C1A10539  11.336  26.821   8.553
 5588POPC   D2A10540  11.260  26.859   8.253
 5588POPC   C3A10541  11.263  26.815   7.953
 5588POPC   C4A10542  11.334  26.771   7.653
 5588POPC   C1B10543  11.154  27.072   8.553
 5588POPC   C2B10544  11.184  27.015   8.253
 5588POPC   C3B10545  11.185  27.075   7.953
 5588POPC   C4B10546  11.167  26.999   7.653
 5589POPC   NC310547   5.045  29.922   9.453
 5589POPC   PO410548   5.121  29.879   9.153
 5589POPC   GL110549   5.134  29.938   8.853
 5589POPC   GL210550   5.089  29.774   8.853
 5589POPC   C1A10551   5.104  29.924   8.553
 5589POPC   D2A10552   5.128  29.951   8.253
 5589POPC   C3A10553   5.119  29.907   7.953
 5589POPC   C4A10554   5.111  29.872   7.653
 5589POPC   C1B10555   4.945  29.643   8.553
 5589POPC   C2B10556   5.029  29.655   8.253
 5589POPC   C3B10557   4.991  29.702   7.953
 5589POPC   C4B10558   5.039  29.688   7.653
 5590POPC   NC310559  36.943   8.213   9.453
 5590POPC   PO410560  36.898   8.212   9.153
 5590POPC   GL110561  36.898   8.153   8.853
 5590POPC   GL210562  36.999   8.103   8.853
 5590POPC   C1A10563  36.892   8.226   8.553
 5590POPC   D2A10564  36.940   8.166   8.253
 5590POPC   C3A10565  36.890   8.158   7.953
 5590POPC   C4A10566  36.945   8.232   7.653
 5590POPC   C1B10567  37.023   8.054   8.553
 5590POPC   C2B10568  37.118   7.978   8.253
 5590POPC   C3B10569  37.048   8.016   7.953
 5590POPC   C4B10570  37.111   8.030   7.653
 5591POPC   NC310571  27.624  31.458   9.453
 5591POPC   PO410572  27.595  31.438   9.153
 5591POPC   GL110573  27.581  31.432   8.853
 5591POPC   GL210574  27.606  31.364   8.853
 5591POPC   C1A10575  27.603  31.502   8.553
 5591POPC   D2A10576  27.609  31.434   8.253
 5591POPC   C3A10577  27.609  31.490   7.953
 5591POPC   C4A10578  27.556  31.508   7.653
 5591POPC   C1B10579  27.552  31.208   8.553
 5591POPC   C2B10580  27.489  31.218   8.253
 5591POPC   C3B10581  27.520  31.207   7.953
 5591POPC   C4B10582  27.581  31.243   7.653
 5592POPC   NC310583  31.496  29.128   9.453
 5592POPC   PO410584  31.465  29.177   9.153
 5592POPC   GL110585  31.512  29.101   8.853
 5592POPC   GL210586  31.383  29.072   8.853
 5592POPC   C1A10587  31.500  29.188   8.553
 5592POPC   D2A10588  31.438  29.137   8.253
 5592POPC   C3A10589  31.479  29.156   7.953
 5592POPC   C4A10590  31.521  29.103   7.653
 5592POPC   C1B10591  31.331  28.939   8.553
 5592POPC   C2B10592  31.319  28.928   8.253
 5592POPC   C3B10593  31.260  28.933   7.953
 5592POPC   C4B10594  31.259  29.011   7.653
 5593POPC   NC310595   6.633   4.357   9.453
 5593POPC   PO410596   6.652   4.345   9.153
 5593POPC   GL110597   6.630   4.312   8.853
 5593POPC   GL210598   6.663   4.465   8.853
 5593POPC   C1A10599   6.655   4.321   8.553
 5593POPC   D2A10600   6.599   4.324   8.253
 5593POPC   C3A10601   6.613   4.357   7.953
 5593POPC   C4A10602   6.627   4.335   7.653
 5593POPC   C1B10603   6.713   4.541   8.553
 5593POPC   C2B10604   6.675   4.532   8.253
 5593POPC   C3B10605   6.717   4.557   7.953
 5593POPC   C4B10606   6.744   4.601   7.653
 5594POPC   NC310607  42.290   2.758   9.453
 5594POPC   PO410608  42.286   2.795   9.153
 5594POPC   GL110609  42.366   2.805   8.853
 5594POPC   GL210610  42.406   2.810   8.853
 5594POPC   C1A10611  42.314   2.736   8.553
 5594POPC   D2A10612  42.362   2.811   8.253
 5594POPC   C3A10613  42.308   2.808   7.953
 5594POPC   C4A10614  42.298   2.785   7.653
 5594POPC   C1B10615  42.504   2.884   8.553
 5594POPC   C2B10616  42.503   2.933   8.253
 5594POPC   C3B10617  42.497   2.937   7.953
 5594POPC   C4B10618  42.541   2.904   7.653
 5595POPC   NC310619  32.202  43.100   9.453
 5595POPC   PO410620  32.240  43.102   9.153
 5595POPC   GL110621  32.247  43.144   8.853
 5595POPC   GL210622  32.384  43.099   8.853
 5595POPC   C1A10623  32.244  43.079   8.553
 5595POPC   D2A10624  32.220  43.133   8.253
 5595POPC   C3A10625  32.278  43.110   7.953
 5595POPC   C4A10626  32.278  43.142   7.653
 5595POPC   C1B10627  32.477  43.104   8.553
 5595POPC   C2B10628  32.522  43.151   8.253
 5595POPC   C3B10629  32.448  43.175   7.953
 5595POPC   C4B10630  32.480  43.118   7.653
 5596POPC   NC310631   8.980  21.417   9.453
 5596POPC   PO410632   8.999  21.409   9.153
 5596POPC   GL110633   8.951  21.348   8.853
 5596POPC   GL210634   8.981  21.280   8.853
 5596POPC   C1A10635   8.948  21.432   8.553
 5596POPC   D2A10636   8.954  21.420   8.253
 5596POPC   C3A10637   8.998  21.346   7.953
 5596POPC   C4A10638   9.016  21.349   7.653
 5596POPC   C1B10639   8.893  21.099   8.553
 5596POPC   C2B10640   8.896  21.141   8.253
 5596POPC   C3B10641   8.966  21.176   7.953
 5596POPC   C4B10642   8.942  21.135   7.653
 5597POPC   NC310643  24.538   2.751   9.453
 5597POPC   PO410644  24.469   2.741   9.153
 5597POPC   GL110645  24.505   2.723   8.853
 5597POPC   GL210646  24.398   2.631   8.853
 5597POPC   C1A10647  24.512   2.800   8.553
 5597POPC   D2A10648  24.487   2.810   8.253
 5597POPC   C3A10649  24.501   2.765   7.953
 5597POPC   C4A10650  24.527   2.769   7.653
 5597POPC   C1B10651  24.375   2.515   8.553
 5597POPC   C2B10652  24.418   2.531   8.253
 5597POPC   C3B10653  24.359   2.537   7.953
 5597POPC   C4B10654  24.421   2.492   7.653
 5598POPC   NC310655  25.222  24.510   9.453
 5598POPC   PO410656  25.217  24.445   9.153
 5598POPC   GL110657  25.301  24.500   8.853
 5598POPC   GL210658  25.199  24.428   8.853
 5598POPC   C1A10659  25.222  24.533   8.553
 5598POPC   D2A10660  25.227  24.499   8.253
 5598POPC   C3A10661  25.270  24.466   7.953
 5598POPC   C4A10662  25.278  24.462   7.653
 5598POPC   C1B10663  25.065  24.310   8.553
 5598POPC   C2B10664  25.092  24.294   8.253
 5598POPC   C3B10665  25.112  24.296   7.953
 5598POPC   C4B10666  25.079  24.343   7.653
 5599POPC   NC310667   9.757   2.009   9.453
 5599POPC   PO410668   9.787   1.982   9.153
 5599POPC   GL110669   9.728   2.021   8.853
 5599POPC   GL210670   9.670   2.139   8.853
 5599POPC   C1A10671   9.745   2.005   8.553
 5599POPC   D2A10672   9.729   2.009   8.253
 5599POPC   C3A10673   9.779   2.009   7.953
 5599POPC   C4A10674   9.725   2.013   7.653
 5599POPC   C1B10675   9.638   2.186   8.553
 5599POPC   C2B10676   9.645   2.217   8.253
 5599POPC   C3B10677   9.592   2.208   7.953
 5599POPC   C4B10678   9.611   2.241   7.653
 5600POPC   NC310679  31.505  33.846   9.453
 5600POPC   PO410680  31.493  33.764   9.153
 5600POPC   GL110681  31.444  33.841   8.853
 5600POPC   GL210682  31.421  33.933   8.853
 5600POPC   C1A10683  31.476  33.839   8.553
 5600POPC   D2A10684  31.508  33.833   8.253
 5600POPC   C3A10685  31.497  33.763   7.953
 5600POPC   C4A10686  31.434  33.816   7.653
 5600POPC   C1B10687  31.277  33.985   8.553
 5600POPC   C2B10688  31.350  33.996   8.253
 5600POPC   C3B10689  31.342  33.995   7.953
 5600POPC   C4B10690  31.301  33.971   7.653
 5601POPC   NC310691  29.904  27.594   9.453
 5601POPC   PO410692  29.891  27.637   9.153
 5601POPC   GL110693  29.967  27.599   8.853
 5601POPC   GL210694  30.058  27.493   8.853
 5601POPC   C1A10695  29.924  27.639   8.553
 5601POPC   D2A10696  29.951  27.636   8.253
 5601POPC   C3A10697  29.940  27.574   7.953
 5601POPC   C4A10698  29.958  27.546   7.653
 5601POPC   C1B10699  30.076  27.400   8.553
 5601POPC   C2B10700  30.164  27.484   8.253
 5601POPC   C3B10701  30.086  27.480   7.953
 5601POPC   C4B10702  30.104  27.425   7.653
 5602POPC   NC310703  36.889   3.536   9.453
 5602POPC   PO410704  36.867   3.518   9.153
 5602POPC   GL110705  36.911   3.526   8.853
 5602POPC   GL210706  36.830   3.393   8.853
 5602POPC   C1A10707  36.891   3.579   8.553
 5602POPC   D2A10708  36.912   3.565   8.253
 5602POPC   C3A10709  36.916   3.584   7.953
 5602POPC   C4A10710  36.895   3.544   7.653
 5602POPC   C1B10711  36.842   3.335   8.553
 5602POPC   C2B10712  36.860   3.325   8.253
 5602POPC   C3B10713  36.830   3.259   7.953
 5602POPC   C4B10714  36.856   3.258   7.653
 5603POPC   NC310715  23.698  23.699   9.453
 5603POPC   PO410716  23.756  23.703   9.153
 5603POPC   GL110717  23.716  23.711   8.853
 5603POPC   GL210718  23.643  23.598   8.853
 5603POPC   C1A10719  23.750  23.676   8.553
 5603POPC   D2A10720  23.749  23.752   8.253
 5603POPC   C3A10721  23.682  23.733   7.953
 5603POPC   C4A10722  23.714  23.741   7.653
 5603POPC   C1B10723  23.573  23.494   8.553
 5603POPC   C2B10724  23.628  23.510   8.253
 5603POPC   C3B10725  23.592  23.499   7.953
 5603POPC   C4B10726  23.562  23.527   7.653
 5604POPC   NC310727  41.533  20.571   9.453
 5604POPC   PO410728  41.535  20.564   9.153
 5604POPC   GL110729  41.604  20.560   8.853
 5604POPC   GL210730  41.700  20.582   8.853
 5604POPC   C1A10731  41.577  20.620   8.553
 5604POPC   D2A10732  41.586  20.623   8.253
 5604POPC   C3A10733  41.516  20.603   7.953
 5604POPC   C4A10734  41.597  20.611   7.653
 5604POPC   C1B10735  41.826  20.585   8.553
 5604POPC   C2B10736  41.831  20.552   8.253
 5604POPC   C3B10737  41.801  20.557   7.953
 5604POPC   C4B10738  41.836  20.539   7.653
 5605POPC   NC310739  22.893  22.955   9.453
 5605POPC   PO410740  22.954  22.936   9.153
 5605POPC   GL110741  22.980  22.890   8.853
 5605POPC   GL210742  22.843  22.994   8.853
 5605POPC   C1A10743  22.946  22.959   8.553
 5605POPC   D2A10744  22.964  22.889   8.253
 5605POPC   C3A10745  22.955  22.924   7.953
 5605POPC   C4A10746  22.982  22.913   7.653
 5605POPC   C1B10747  22.738  23.162   8.553
 5605POPC   C2B10748  22.815  23.176   8.253
 5605POPC   C3B10749  22.774  23.160   7.953
 5605POPC   C4B10750  22.773  23.087   7.653
 5606POPC   NC310751  11.318  36.922   9.453
 5606POPC   PO410752  11.340  36.949   9.153
 5606POPC   GL110753  11.321  36.866   8.853
 5606POPC   GL210754  11.242  36.801   8.853
 5606POPC   C1A10755  11.282  36.866   8.553
 5606POPC   D2A10756  11.325  36.927   8.253
 5606POPC   C3A10757  11.338  36.869   7.953
 5606POPC   C4A10758  11.313  36.911   7.653
 5606POPC   C1B10759  11.150  36.777   8.553
 5606POPC   C2B10760  11.138  36.765   8.253
 5606POPC   C3B10761  11.108  36.780   7.953
 5606POPC   C4B10762  11.105  36.696   7.653
 5607POPC   NC310763  18.255  41.579   9.453
 5607POPC   PO410764  18.286  41.531   9.153
 5607POPC   GL110765  18.274  41.553   8.853
 5607POPC   GL210766  18.344  41.688   8.853
 5607POPC   C1A10767  18.255  41.518   8.553
 5607POPC   D2A10768  18.304  41.512   8.253
 5607POPC   C3A10769  18.324  41.509   7.953
 5607POPC   C4A10770  18.320  41.609   7.653
 5607POPC   C1B10771  18.289  41.814   8.553
 5607POPC   C2B10772  18.334  41.846   8.253
 5607POPC   C3B10773  18.319  41.808   7.953
 5607POPC   C4B10774  18.322  41.842   7.653
 5608POPC   NC310775  33.064  12.123   9.453
 5608POPC   PO410776  33.008  12.046   9.153
 5608POPC   GL110777  33.039  12.095   8.853
 5608POPC   GL210778  33.143  12.060   8.853
 5608POPC   C1A10779  33.051  12.114   8.553
 5608POPC   D2A10780  33.046  12.036   8.253
 5608POPC   C3A10781  33.011  12.076   7.953
 5608POPC   C4A10782  32.989  12.079   7.653
 5608POPC   C1B10783  33.209  11.934   8.553
 5608POPC   C2B10784  33.261  12.009   8.253
 5608POPC   C3B10785  33.257  11.962   7.953
 5608POPC   C4B10786  33.211  12.008   7.653
 5609POPC   NC310787   8.939   7.399   9.453
 5609POPC   PO410788   8.951   7.431   9.153
 5609POPC   GL110789   8.957   7.469   8.853
 5609POPC   GL210790   8.957   7.562   8.853
 5609POPC   C1A10791   8.930   7.436   8.553
 5609POPC   D2A10792   8.970   7.401   8.253
 5609POPC   C3A10793   8.923   7.429   7.953
 5609POPC   C4A10794   8.996   7.402   7.653
 5609POPC   C1B10795   8.915   7.671   8.553
 5609POPC   C2B10796   8.975   7.698   8.253
 5609POPC   C3B10797   8.943   7.718   7.953
 5609POPC   C4B10798   8.942   7.662   7.653
 5610POPC   NC310799  30.734   3.588   9.453
 5610POPC   PO410800  30.739   3.581   9.153
 5610POPC   GL110801  30.743   3.511   8.853
 5610POPC   GL210802  30.658   3.460   8.853
 5610POPC   C1A10803  30.687   3.547   8.553
 5610POPC   D2A10804  30.665   3.574   8.253
 5610POPC   C3A10805  30.698   3.542   7.953
 5610POPC   C4A10806  30.687   3.492   7.653
 5610POPC   C1B10807  30.610   3.296   8.553
 5610POPC   C2B10808  30.636   3.331   8.253
 5610POPC   C3B10809  30.550   3.277   7.953
 5610POPC   C4B10810  30.565   3.264   7.653
 5611POPC   NC310811  36.909  36.933   9.453
 5611POPC   PO410812  36.874  36.879   9.153
 5611POPC   GL110813  36.868  36.875   8.853
 5611POPC   GL210814  37.006  37.030   8.853
 5611POPC   C1A10815  36.902  36.919   8.553
 5611POPC   D2A10816  36.872  36.915   8.253
 5611POPC   C3A10817  36.888  36.904   7.953
 5611POPC   C4A10818  36.876  36.886   7.653
 5611POPC   C1B10819  37.050  37.119   8.553
 5611POPC   C2B10820  36.973  37.122   8.253
 5611POPC   C3B10821  37.009  37.085   7.953
 5611POPC   C4B10822  36.976  37.088   7.653
 5612POPC   NC310823   2.038  29.923   9.453
 5612POPC   PO410824   1.986  29.912   9.153
 5612POPC   GL110825   1.994  29.911   8.853
 5612POPC   GL210826   1.887  30.014   8.853
 5612POPC   C1A10827   1.953  29.893   8.553
 5612POPC   D2A10828   2.028  29.873   8.253
 5612POPC   C3A10829   1.985  29.914   7.953
 5612POPC   C4A10830   1.977  29.877   7.653
 5612POPC   C1B10831   1.782  30.019   8.553
 5612POPC   C2B10832   1.809  30.053   8.253
 5612POPC   C3B10833   1.759  30.070   7.953
 5612POPC   C4B10834   1.773  30.043   7.653
 5613POPC   NC310835  26.842   3.498   9.453
 5613POPC   PO410836  26.791   3.591   9.153
 5613POPC   GL110837  26.848   3.497   8.853
 5613POPC   GL210838  26.893   3.505   8.853
 5613POPC   C1A10839  26.806   3.583   8.553
 5613POPC   D2A10840  26.837   3.586   8.253
 5613POPC   C3A10841  26.841   3.517   7.953
 5613POPC   C4A10842  26.788   3.535   7.653
 5613POPC   C1B10843  27.113   3.490   8.553
 5613POPC   C2B10844  27.099   3.503   8.253
 5613POPC   C3B10845  27.017   3.530   7.953
 5613POPC   C4B10846  27.061   3.499   7.653
 5614POPC   NC310847  10.503   5.143   9.453
 5614POPC   PO410848  10.496   5.048   9.153
 5614POPC   GL110849  10.556   5.143   8.853
 5614POPC   GL210850  10.355   5.040   8.853
 5614POPC   C1A10851  10.561   5.064   8.553
 5614POPC   D2A10852  10.539   5.073   8.253
 5614POPC   C3A10853  10.503   5.058   7.953
 5614POPC   C4A10854  10.480   5.043   7.653
 5614POPC   C1B10855  10.272   5.087   8.553
 5614POPC   C2B10856  10.260   5.028   8.253
 5614POPC   C3B10857  10.232   5.100   7.953
 5614POPC   C4B10858  10.294   5.042   7.653
 5615POPC   NC310859   1.998  37.729   9.453
 5615POPC   PO410860   2.002  37.686   9.153
 5615POPC   GL110861   1.946  37.695   8.853
 5615POPC   GL210862   1.917  37.605   8.853
 5615POPC   C1A10863   1.954  37.672   8.553
 5615POPC   D2A10864   2.030  37.668   8.253
 5615POPC   C3A10865   2.029  37.700   7.953
 5615POPC   C4A10866   2.023  37.696   7.653
 5615POPC   C1B10867   1.792  37.475   8.553
 5615POPC   C2B10868   1.829  37.530   8.253
 5615POPC   C3B10869   1.840  37.511   7.953
 5615POPC   C4B10870   1.757  37.531   7.653
 5616POPC   NC310871  33.821   9.787   9.453
 5616POPC   PO410872  33.770   9.733   9.153
 5616POPC   GL110873  33.824   9.790   8.853
 5616POPC   GL210874  33.830   9.868   8.853
 5616POPC   C1A10875  33.751   9.753   8.553
 5616POPC   D2A10876  33.837   9.759   8.253
 5616POPC   C3A10877  33.843   9.791   7.953
 5616POPC   C4A10878  33.778   9.749   7.653
 5616POPC   C1B10879  33.853  10.017   8.553
 5616POPC   C2B10880  33.836   9.976   8.253
 5616POPC   C3B10881  33.848  10.025   7.953
 5616POPC   C4B10882  33.923   9.968   7.653
 5617POPC   NC310883  43.153   9.754   9.453
 5617POPC   PO410884  43.152   9.778   9.153
 5617POPC   GL110885  43.092   9.774   8.853
 5617POPC   GL210886  43.010   9.844   8.853
 5617POPC   C1A10887  43.117   9.723   8.553
 5617POPC   D2A10888  43.101   9.769   8.253
 5617POPC   C3A10889  43.061   9.779   7.953
 5617POPC   C4A10890  43.125   9.735   7.653
 5617POPC   C1B10891  42.881   9.839   8.553
 5617POPC   C2B10892  42.921   9.869   8.253
 5617POPC   C3B10893  42.909   9.917   7.953
 5617POPC   C4B10894  42.894   9.895   7.653
 5618POPC   NC310895  31.428   1.218   9.453
 5618POPC   PO410896  31.498   1.191   9.153
 5618POPC   GL110897  31.425   1.183   8.853
 5618POPC   GL210898  31.326   1.220   8.853
 5618POPC   C1A10899  31.483   1.236   8.553
 5618POPC   D2A10900  31.517   1.169   8.253
 5618POPC   C3A10901  31.519   1.253   7.953
 5618POPC   C4A10902  31.476   1.188   7.653
 5618POPC   C1B10903  31.236   1.266   8.553
 5618POPC   C2B10904  31.250   1.289   8.253
 5618POPC   C3B10905  31.259   1.195   7.953
 5618POPC   C4B10906  31.179   1.250   7.653
 5619POPC   NC310907  23.711   1.254   9.453
 5619POPC   PO410908  23.735   1.188   9.153
 5619POPC   GL110909  23.710   1.210   8.853
 5619POPC   GL210910  23.572   1.141   8.853
 5619POPC   C1A10911  23.706   1.181   8.553
 5619POPC   D2A10912  23.702   1.199   8.253
 5619POPC   C3A10913  23.706   1.225   7.953
 5619POPC   C4A10914  23.741   1.168   7.653
 5619POPC   C1B10915  23.500   1.138   8.553
 5619POPC   C2B10916  23.490   1.107   8.253
 5619POPC   C3B10917  23.478   1.172   7.953
 5619POPC   C4B10918  23.475   1.163   7.653
 5620POPC   NC310919   8.933  29.100   9.453
 5620POPC   PO410920   8.973  29.109   9.153
 5620POPC   GL110921   9.022  29.149   8.853
 5620POPC   GL210922   8.984  28.974   8.853
 5620POPC   C1A10923   8.956  29.155   8.553
 5620POPC   D2A10924   8.927  29.120   8.253
 5620POPC   C3A10925   8.972  29.119   7.953
 5620POPC   C4A10926   8.994  29.190   7.653
 5620POPC   C1B10927   8.994  28.853   8.553
 5620POPC   C2B10928   8.992  28.914   8.253
 5620POPC   C3B10929   9.022  28.873   7.953
 5620POPC   C4B10930   8.967  28.910   7.653
 5621POPC   NC310931  19.805  37.641   9.453
 5621POPC   PO410932  19.849  37.651   9.153
 5621POPC   GL110933  19.837  37.677   8.853
 5621POPC   GL210934  19.867  37.614   8.853
 5621POPC   C1A10935  19.810  37.683   8.553
 5621POPC   D2A10936  19.844  37.635   8.253
 5621POPC   C3A10937  19.847  37.643   7.953
 5621POPC   C4A10938  19.866  37.704   7.653
 5621POPC   C1B10939  19.958  37.514   8.553
 5621POPC   C2B10940  20.031  37.482   8.253
 5621POPC   C3B10941  19.965  37.460   7.953
 5621POPC   C4B10942  19.946  37.455   7.653
 5622POPC   NC310943  30.722  31.478   9.453
 5622POPC   PO410944  30.733  31.481   9.153
 5622POPC   GL110945  30.713  31.496   8.853
 5622POPC   GL210946  30.598  31.544   8.853
 5622POPC   C1A10947  30.711  31.433   8.553
 5622POPC   D2A10948  30.663  31.497   8.253
 5622POPC   C3A10949  30.714  31.482   7.953
 5622POPC   C4A10950  30.672  31.427   7.653
 5622POPC   C1B10951  30.465  31.614   8.553
 5622POPC   C2B10952  30.535  31.595   8.253
 5622POPC   C3B10953  30.494  31.634   7.953
 5622POPC   C4B10954  30.532  31.581   7.653
 5623POPC   NC310955  19.056  43.865   9.453
 5623POPC   PO410956  19.018  43.920   9.153
 5623POPC   GL110957  19.051  43.867   8.853
 5623POPC   GL210958  18.987  43.792   8.853
 5623POPC   C1A10959  19.022  43.920   8.553
 5623POPC   D2A10960  19.059  43.848   8.253
 5623POPC   C3A10961  19.040  43.875   7.953
 5623POPC   C4A10962  19.097  43.843   7.653
 5623POPC   C1B10963  18.873  43.709   8.553
 5623POPC   C2B10964  18.895  43.660   8.253
 5623POPC   C3B10965  18.905  43.703   7.953
 5623POPC   C4B10966  18.909  43.652   7.653
 5624POPC   NC310967   8.939  26.091   9.453
 5624POPC   PO410968   8.965  26.021   9.153
 5624POPC   GL110969   9.020  25.992   8.853
 5624POPC   GL210970   9.077  26.089   8.853
 5624POPC   C1A10971   8.970  26.067   8.553
 5624POPC   D2A10972   8.977  26.066   8.253
 5624POPC   C3A10973   8.933  26.091   7.953
 5624POPC   C4A10974   8.959  26.058   7.653
 5624POPC   C1B10975   9.242  26.164   8.553
 5624POPC   C2B10976   9.211  26.187   8.253
 5624POPC   C3B10977   9.188  26.195   7.953
 5624POPC   C4B10978   9.201  26.119   7.653
 5625POPC   NC310979  18.252   0.481   9.453
 5625POPC   PO410980  18.278   0.443   9.153
 5625POPC   GL110981  18.284   0.480   8.853
 5625POPC   GL210982  18.355   0.522   8.853
 5625POPC   C1A10983  18.292   0.454   8.553
 5625POPC   D2A10984  18.316   0.454   8.253
 5625POPC   C3A10985  18.317   0.445   7.953
 5625POPC   C4A10986  18.307   0.391   7.653
 5625POPC   C1B10987  18.468   0.625   8.553
 5625POPC   C2B10988  18.462   0.652   8.253
 5625POPC   C3B10989  18.435   0.629   7.953
 5625POPC   C4B10990  18.468   0.623   7.653
 5626POPC   NC310991  11.271  29.937   9.453
 5626POPC   PO410992  11.311  29.876   9.153
 5626POPC   GL110993  11.256  29.892   8.853
 5626POPC   GL210994  11.374  30.039   8.853
 5626POPC   C1A10995  11.260  29.891   8.553
 5626POPC   D2A10996  11.340  29.932   8.253
 5626POPC   C3A10997  11.262  29.962   7.953
 5626POPC   C4A10998  11.350  29.904   7.653
 5626POPC   C1B10999  11.451  30.067   8.553
 5626POPC   C2B11000  11.459  30.100   8.253
 5626POPC   C3B11001  11.495  30.070   7.953
 5626POPC   C4B11002  11.489  30.057   7.653
 5627POPC   NC311003  34.601  40.758   9.453
 5627POPC   PO411004  34.607  40.818   9.153
 5627POPC   GL111005  34.530  40.819   8.853
 5627POPC   GL211006  34.668  40.743   8.853
 5627POPC   C1A11007  34.535  40.818   8.553
 5627POPC   D2A11008  34.613  40.747   8.253
 5627POPC   C3A11009  34.594  40.759   7.953
 5627POPC   C4A11010  34.561  40.763   7.653
 5627POPC   C1B11011  34.806  40.741   8.553
 5627POPC   C2B11012  34.870  40.723   8.253
 5627POPC   C3B11013  34.834  40.730   7.953
 5627POPC   C4B11014  34.773  40.717   7.653
 5628POPC   NC311015   5.108   3.524   9.453
 5628POPC   PO411016   5.055   3.522   9.153
 5628POPC   GL111017   5.132   3.530   8.853
 5628POPC   GL211018   4.934   3.592   8.853
 5628POPC   C1A11019   5.131   3.513   8.553
 5628POPC   D2A11020   5.080   3.497   8.253
 5628POPC   C3A11021   5.127   3.516   7.953
 5628POPC   C4A11022   5.105   3.491   7.653
 5628POPC   C1B11023   4.825   3.635   8.553
 5628POPC   C2B11024   4.802   3.593   8.253
 5628POPC   C3B11025   4.861   3.629   7.953
 5628POPC   C4B11026   4.842   3.582   7.653
 5629POPC   NC311027  15.913  43.142   9.453
 5629POPC   PO411028  15.907  43.078   9.153
 5629POPC   GL111029  15.918  43.148   8.853
 5629POPC   GL211030  15.952  43.027   8.853
 5629POPC   C1A11031  15.958  43.127   8.553
 5629POPC   D2A11032  16.000  43.114   8.253
 5629POPC   C3A11033  15.954  43.158   7.953
 5629POPC   C4A11034  15.914  43.101   7.653
 5629POPC   C1B11035  15.987  42.868   8.553
 5629POPC   C2B11036  15.999  42.843   8.253
 5629POPC   C3B11037  15.960  42.882   7.953
 5629POPC   C4B11038  15.977  42.828   7.653
 5630POPC   NC311039  37.726  23.682   9.453
 5630POPC   PO411040  37.699  23.741   9.153
 5630POPC   GL111041  37.726  23.702   8.853
 5630POPC   GL211042  37.779  23.663   8.853
 5630POPC   C1A11043  37.713  23.721   8.553
 5630POPC   D2A11044  37.639  23.719   8.253
 5630POPC   C3A11045  37.645  23.733   7.953
 5630POPC   C4A11046  37.696  23.664   7.653
 5630POPC   C1B11047  37.802  23.555   8.553
 5630POPC   C2B11048  37.843  23.500   8.253
 5630POPC   C3B11049  37.826  23.481   7.953
 5630POPC   C4B11050  37.889  23.507   7.653
 5631POPC   NC311051  23.691  33.018   9.453
 5631POPC   PO411052  23.697  33.017   9.153
 5631POPC   GL111053  23.718  33.069   8.853
 5631POPC   GL211054  23.785  32.924   8.853
 5631POPC   C1A11055  23.716  32.984   8.553
 5631POPC   D2A11056  23.671  33.027   8.253
 5631POPC   C3A11057  23.744  32.979   7.953
 5631POPC   C4A11058  23.695  33.016   7.653
 5631POPC   C1B11059  23.872  32.815   8.553
 5631POPC   C2B11060  23.849  32.866   8.253
 5631POPC   C3B11061  23.877  32.839   7.953
 5631POPC   C4B11062  23.887  32.824   7.653
 5632POPC   NC311063  41.531  40.759   9.453
 5632POPC   PO411064  41.548  40.743   9.153
 5632POPC   GL111065  41.574  40.799   8.853
 5632POPC   GL211066  41.411  40.769   8.853
 5632POPC   C1A11067  41.593  40.744   8.553
 5632POPC   D2A11068  41.562  40.743   8.253
 5632POPC   C3A11069  41.549  40.742   7.953
 5632POPC   C4A11070  41.586  40.751   7.653
 5632POPC   C1B11071  41.330  40.799   8.553
 5632POPC   C2B11072  41.285  40.744   8.253
 5632POPC   C3B11073  41.323  40.765   7.953
 5632POPC   C4B11074  41.291  40.795   7.653
 5633POPC   NC311075   8.209   5.138   9.453
 5633POPC   PO411076   8.148   5.100   9.153
 5633POPC   GL111077   8.231   5.109   8.853
 5633POPC   GL211078   8.131   5.110   8.853
 5633POPC   C1A11079   8.216   5.089   8.553
 5633POPC   D2A11080   8.153   5.123   8.253
 5633POPC   C3A11081   8.164   5.099   7.953
 5633POPC   C4A11082   8.240   5.050   7.653
 5633POPC   C1B11083   7.994   5.186   8.553
 5633POPC   C2B11084   7.940   5.185   8.253
 5633POPC   C3B11085   8.019   5.245   7.953
 5633POPC   C4B11086   8.008   5.211   7.653
 5634POPC   NC311087   5.851   5.898   9.453
 5634POPC   PO411088   5.828   5.907   9.153
 5634POPC   GL111089   5.839   5.876   8.853
 5634POPC   GL211090   6.024   5.982   8.853
 5634POPC   C1A11091   5.895   5.841   8.553
 5634POPC   D2A11092   5.869   5.897   8.253
 5634POPC   C3A11093   5.893   5.869   7.953
 5634POPC   C4A11094   5.847   5.856   7.653
 5634POPC   C1B11095   6.081   5.996   8.553
 5634POPC   C2B11096   6.077   6.040   8.253
 5634POPC   C3B11097   6.044   5.973   7.953
 5634POPC   C4B11098   6.121   6.047   7.653
 5635POPC   NC311099  40.047  36.080   9.453
 5635POPC   PO411100  40.044  36.153   9.153
 5635POPC   GL111101  40.007  36.168   8.853
 5635POPC   GL211102  40.042  36.012   8.853
 5635POPC   C1A11103  40.014  36.150   8.553
 5635POPC   D2A11104  39.990  36.118   8.253
 5635POPC   C3A11105  40.035  36.172   7.953
 5635POPC   C4A11106  40.057  36.138   7.653
 5635POPC   C1B11107  40.021  35.861   8.553
 5635POPC   C2B11108  39.986  35.846   8.253
 5635POPC   C3B11109  39.955  35.878   7.953
 5635POPC   C4B11110  40.040  35.834   7.653
 5636POPC   NC311111  32.977  13.649   9.453
 5636POPC   PO411112  33.047  13.663   9.153
 5636POPC   GL111113  33.060  13.589   8.853
 5636POPC   GL211114  32.978  13.754   8.853
 5636POPC   C1A11115  33.051  13.585   8.553
 5636POPC   D2A11116  33.042  13.615   8.253
 5636POPC   C3A11117  33.004  13.620   7.953
 5636POPC   C4A11118  32.992  13.614   7.653
 5636POPC   C1B11119  32.939  13.862   8.553
 5636POPC   C2B11120  32.927  13.811   8.253
 5636POPC   C3B11121  32.939  13.845   7.953
 5636POPC   C4B11122  32.879  13.873   7.653
 5637POPC   NC311123   4.317  25.314   9.453
 5637POPC   PO411124   4.279  25.237   9.153
 5637POPC   GL111125   4.306  25.314   8.853
 5637POPC   GL211126   4.291  25.165   8.853
 5637POPC   C1A11127   4.345  25.266   8.553
 5637POPC   D2A11128   4.286  25.256   8.253
 5637POPC   C3A11129   4.335  25.252   7.953
 5637POPC   C4A11130   4.344  25.225   7.653
 5637POPC   C1B11131   4.314  25.009   8.553
 5637POPC   C2B11132   4.275  25.024   8.253
 5637POPC   C3B11133   4.317  25.068   7.953
 5637POPC   C4B11134   4.242  25.051   7.653
 5638POPC   NC311135   5.899  14.371   9.453
 5638POPC   PO411136   5.828  14.403   9.153
 5638POPC   GL111137   5.895  14.394   8.853
 5638POPC   GL211138   5.770  14.338   8.853
 5638POPC   C1A11139   5.851  14.450   8.553
 5638POPC   D2A11140   5.882  14.423   8.253
 5638POPC   C3A11141   5.864  14.446   7.953
 5638POPC   C4A11142   5.884  14.423   7.653
 5638POPC   C1B11143   5.719  14.152   8.553
 5638POPC   C2B11144   5.685  14.180   8.253
 5638POPC   C3B11145   5.716  14.182   7.953
 5638POPC   C4B11146   5.712  14.179   7.653
 5639POPC   NC311147  15.189  32.268   9.453
 5639POPC   PO411148  15.219  32.289   9.153
 5639POPC   GL111149  15.212  32.257   8.853
 5639POPC   GL211150  15.067  32.259   8.853
 5639POPC   C1A11151  15.188  32.222   8.553
 5639POPC   D2A11152  15.192  32.273   8.253
 5639POPC   C3A11153  15.168  32.254   7.953
 5639POPC   C4A11154  15.180  32.286   7.653
 5639POPC   C1B11155  14.906  32.299   8.553
 5639POPC   C2B11156  14.938  32.263   8.253
 5639POPC   C3B11157  14.896  32.302   7.953
 5639POPC   C4B11158  14.919  32.350   7.653
 5640POPC   NC311159  26.861  11.287   9.453
 5640POPC   PO411160  26.844  11.285   9.153
 5640POPC   GL111161  26.817  11.263   8.853
 5640POPC   GL211162  26.702  11.393   8.853
 5640POPC   C1A11163  26.787  11.322   8.553
 5640POPC   D2A11164  26.840  11.266   8.253
 5640POPC   C3A11165  26.844  11.262   7.953
 5640POPC   C4A11166  26.828  11.330   7.653
 5640POPC   C1B11167  26.630  11.440   8.553
 5640POPC   C2B11168  26.635  11.422   8.253
 5640POPC   C3B11169  26.643  11.455   7.953
 5640POPC   C4B11170  26.613  11.453   7.653
 5641POPC   NC311171   4.360  39.238   9.453
 5641POPC   PO411172   4.318  39.245   9.153
 5641POPC   GL111173   4.349  39.231   8.853
 5641POPC   GL211174   4.150  39.260   8.853
 5641POPC   C1A11175   4.294  39.199   8.553
 5641POPC   D2A11176   4.291  39.258   8.253
 5641POPC   C3A11177   4.292  39.230   7.953
 5641POPC   C4A11178   4.305  39.239   7.653
 5641POPC   C1B11179   4.047  39.316   8.553
 5641POPC   C2B11180   4.096  39.304   8.253
 5641POPC   C3B11181   4.090  39.289   7.953
 5641POPC   C4B11182   4.073  39.285   7.653
 5642POPC   NC311183  30.743  15.226   9.453
 5642POPC   PO411184  30.738  15.168   9.153
 5642POPC   GL111185  30.743  15.157   8.853
 5642POPC   GL211186  30.811  15.058   8.853
 5642POPC   C1A11187  30.723  15.154   8.553
 5642POPC   D2A11188  30.648  15.221   8.253
 5642POPC   C3A11189  30.653  15.184   7.953
 5642POPC   C4A11190  30.717  15.139   7.653
 5642POPC   C1B11191  30.796  14.949   8.553
 5642POPC   C2B11192  30.801  14.995   8.253
 5642POPC   C3B11193  30.784  15.004   7.953
 5642POPC   C4B11194  30.849  14.975   7.653
 5643POPC   NC311195  40.742  27.606   9.453
 5643POPC   PO411196  40.810  27.631   9.153
 5643POPC   GL111197  40.737  27.608   8.853
 5643POPC   GL211198  40.897  27.537   8.853
 5643POPC   C1A11199  40.755  27.561   8.553
 5643POPC   D2A11200  40.813  27.610   8.253
 5643POPC   C3A11201  40.809  27.556   7.953
 5643POPC   C4A11202  40.795  27.569   7.653
 5643POPC   C1B11203  41.000  27.588   8.553
 5643POPC   C2B11204  41.062  27.623   8.253
 5643POPC   C3B11205  41.075  27.569   7.953
 5643POPC   C4B11206  40.989  27.582   7.653
 5644POPC   NC311207   1.216   4.315   9.453
 5644POPC   PO411208   1.164   4.321   9.153
 5644POPC   GL111209   1.198   4.345   8.853
 5644POPC   GL211210   1.286   4.419   8.853
 5644POPC   C1A11211   1.191   4.286   8.553
 5644POPC   D2A11212   1.232   4.284   8.253
 5644POPC   C3A11213   1.256   4.302   7.953
 5644POPC   C4A11214   1.197   4.344   7.653
 5644POPC   C1B11215   1.310   4.483   8.553
 5644POPC   C2B11216   1.326   4.498   8.253
 5644POPC   C3B11217   1.381   4.517   7.953
 5644POPC   C4B11218   1.379   4.552   7.653
 5645POPC   NC311219   1.987   6.631   9.453
 5645POPC   PO411220   2.008   6.629   9.153
 5645POPC   GL111221   1.972   6.603   8.853
 5645POPC   GL211222   2.019   6.499   8.853
 5645POPC   C1A11223   1.955   6.619   8.553
 5645POPC   D2A11224   1.959   6.601   8.253
 5645POPC   C3A11225   1.997   6.690   7.953
 5645POPC   C4A11226   1.977   6.622   7.653
 5645POPC   C1B11227   2.032   6.348   8.553
 5645POPC   C2B11228   2.035   6.409   8.253
 5645POPC   C3B11229   2.015   6.401   7.953
 5645POPC   C4B11230   2.042   6.428   7.653
 5646POPC   NC311231  43.136  16.716   9.453
 5646POPC   PO411232  43.102  16.757   9.153
 5646POPC   GL111233  43.123  16.733   8.853
 5646POPC   GL211234  43.228  16.717   8.853
 5646POPC   C1A11235  43.118  16.780   8.553
 5646POPC   D2A11236  43.127  16.756   8.253
 5646POPC   C3A11237  43.098  16.767   7.953
 5646POPC   C4A11238  43.090  16.777   7.653
 5646POPC   C1B11239  43.363  16.736   8.553
 5646POPC   C2B11240  43.360  16.745   8.253
 5646POPC   C3B11241  43.317  16.713   7.953
 5646POPC   C4B11242  43.389  16.781   7.653
 5647POPC   NC311243  12.123  20.565   9.453
 5647POPC   PO411244  12.106  20.621   9.153
 5647POPC   GL111245  12.111  20.642   8.853
 5647POPC   GL211246  12.010  20.580   8.853
 5647POPC   C1A11247  12.056  20.651   8.553
 5647POPC   D2A11248  12.052  20.570   8.253
 5647POPC   C3A11249  12.047  20.613   7.953
 5647POPC   C4A11250  12.065  20.595   7.653
 5647POPC   C1B11251  11.867  20.443   8.553
 5647POPC   C2B11252  11.918  20.460   8.253
 5647POPC   C3B11253  11.885  20.407   7.953
 5647POPC   C4B11254  11.891  20.458   7.653
 5648POPC   NC311255  39.963   7.422   9.453
 5648POPC   PO411256  39.997   7.461   9.153
 5648POPC   GL111257  40.015   7.389   8.853
 5648POPC   GL211258  40.022   7.513   8.853
 5648POPC   C1A11259  39.980   7.460   8.553
 5648POPC   D2A11260  40.041   7.424   8.253
 5648POPC   C3A11261  39.974   7.422   7.953
 5648POPC   C4A11262  40.025   7.438   7.653
 5648POPC   C1B11263  40.075   7.627   8.553
 5648POPC   C2B11264  40.120   7.603   8.253
 5648POPC   C3B11265  40.108   7.623   7.953
 5648POPC   C4B11266  40.108   7.610   7.653
 5649POPC   NC311267  35.373   1.240   9.453
 5649POPC   PO411268  35.357   1.223   9.153
 5649POPC   GL111269  35.363   1.177   8.853
 5649POPC   GL211270  35.296   1.302   8.853
 5649POPC   C1A11271  35.343   1.213   8.553
 5649POPC   D2A11272  35.353   1.239   8.253
 5649POPC   C3A11273  35.328   1.243   7.953
 5649POPC   C4A11274  35.384   1.191   7.653
 5649POPC   C1B11275  35.131   1.319   8.553
 5649POPC   C2B11276  35.180   1.358   8.253
 5649POPC   C3B11277  35.145   1.312   7.953
 5649POPC   C4B11278  35.124   1.398   7.653
 5650POPC   NC311279   6.692   6.615   9.453
 5650POPC   PO411280   6.658   6.693   9.153
 5650POPC   GL111281   6.596   6.647   8.853
 5650POPC   GL211282   6.729   6.713   8.853
 5650POPC   C1A11283   6.622   6.630   8.553
 5650POPC   D2A11284   6.674   6.611   8.253
 5650POPC   C3A11285   6.685   6.661   7.953
 5650POPC   C4A11286   6.626   6.609   7.653
 5650POPC   C1B11287   6.865   6.850   8.553
 5650POPC   C2B11288   6.818   6.771   8.253
 5650POPC   C3B11289   6.807   6.773   7.953
 5650POPC   C4B11290   6.788   6.757   7.653
 5651POPC   NC311291  27.608  12.808   9.453
 5651POPC   PO411292  27.624  12.895   9.153
 5651POPC   GL111293  27.613  12.862   8.853
 5651POPC   GL211294  27.478  12.764   8.853
 5651POPC   C1A11295  27.551  12.851   8.553
 5651POPC   D2A11296  27.600  12.831   8.253
 5651POPC   C3A11297  27.607  12.864   7.953
 5651POPC   C4A11298  27.548  12.808   7.653
 5651POPC   C1B11299  27.404  12.706   8.553
 5651POPC   C2B11300  27.410  12.753   8.253
 5651POPC   C3B11301  27.325  12.778   7.953
 5651POPC   C4B11302  27.374  12.706   7.653
 5652POPC   NC311303  12.049  12.080   9.453
 5652POPC   PO411304  12.081  12.088   9.153
 5652POPC   GL111305  12.086  12.055   8.853
 5652POPC   GL211306  12.008  12.040   8.853
 5652POPC   C1A11307  12.101  12.058   8.553
 5652POPC   D2A11308  12.068  12.102   8.253
 5652POPC   C3A11309  12.046  12.101   7.953
 5652POPC   C4A11310  12.087  12.039   7.653
 5652POPC   C1B11311  11.920  11.877   8.553
 5652POPC   C2B11312  11.848  11.959   8.253
 5652POPC   C3B11313  11.891  11.880   7.953
 5652POPC   C4B11314  11.880  11.916   7.653
 5653POPC   NC311315  20.588  29.128   9.453
 5653POPC   PO411316  20.645  29.121   9.153
 5653POPC   GL111317  20.646  29.116   8.853
 5653POPC   GL211318  20.627  29.254   8.853
 5653POPC   C1A11319  20.579  29.167   8.553
 5653POPC   D2A11320  20.653  29.103   8.253
 5653POPC   C3A11321  20.573  29.117   7.953
 5653POPC   C4A11322  20.619  29.155   7.653
 5653POPC   C1B11323  20.542  29.435   8.553
 5653POPC   C2B11324  20.507  29.344   8.253
 5653POPC   C3B11325  20.543  29.368   7.953
 5653POPC   C4B11326  20.542  29.341   7.653
 5654POPC   NC311327  22.962  13.666   9.453
 5654POPC   PO411328  22.935  13.586   9.153
 5654POPC   GL111329  22.925  13.586   8.853
 5654POPC   GL211330  22.829  13.615   8.853
 5654POPC   C1A11331  22.921  13.617   8.553
 5654POPC   D2A11332  22.986  13.590   8.253
 5654POPC   C3A11333  22.922  13.634   7.953
 5654POPC   C4A11334  22.901  13.615   7.653
 5654POPC   C1B11335  22.720  13.553   8.553
 5654POPC   C2B11336  22.736  13.542   8.253
 5654POPC   C3B11337  22.654  13.591   7.953
 5654POPC   C4B11338  22.687  13.597   7.653
 5655POPC   NC311339  40.761  31.498   9.453
 5655POPC   PO411340  40.815  31.442   9.153
 5655POPC   GL111341  40.794  31.511   8.853
 5655POPC   GL211342  40.891  31.532   8.853
 5655POPC   C1A11343  40.743  31.503   8.553
 5655POPC   D2A11344  40.789  31.423   8.253
 5655POPC   C3A11345  40.800  31.462   7.953
 5655POPC   C4A11346  40.829  31.521   7.653
 5655POPC   C1B11347  41.077  31.467   8.553
 5655POPC   C2B11348  41.039  31.477   8.253
 5655POPC   C3B11349  41.006  31.513   7.953
 5655POPC   C4B11350  41.058  31.462   7.653
 5656POPC   NC311351  26.811  40.793   9.453
 5656POPC   PO411352  26.821  40.750   9.153
 5656POPC   GL111353  26.807  40.741   8.853
 5656POPC   GL211354  26.935  40.773   8.853
 5656POPC   C1A11355  26.858  40.782   8.553
 5656POPC   D2A11356  26.822  40.799   8.253
 5656POPC   C3A11357  26.850  40.815   7.953
 5656POPC   C4A11358  26.857  40.824   7.653
 5656POPC   C1B11359  27.102  40.665   8.553
 5656POPC   C2B11360  27.100  40.691   8.253
 5656POPC   C3B11361  27.045  40.655   7.953
 5656POPC   C4B11362  27.053  40.684   7.653
 5657POPC   NC311363  17.493  42.344   9.453
 5657POPC   PO411364  17.483  42.305   9.153
 5657POPC   GL111365  17.463  42.289   8.853
 5657POPC   GL211366  17.639  42.286   8.853
 5657POPC   C1A11367  17.553  42.367   8.553
 5657POPC   D2A11368  17.513  42.363   8.253
 5657POPC   C3A11369  17.545  42.294   7.953
 5657POPC   C4A11370  17.541  42.293   7.653
 5657POPC   C1B11371  17.764  42.192   8.553
 5657POPC   C2B11372  17.726  42.246   8.253
 5657POPC   C3B11373  17.677  42.188   7.953
 5657POPC   C4B11374  17.729  42.217   7.653
 5658POPC   NC311375  11.293  15.166   9.453
 5658POPC   PO411376  11.284  15.229   9.153
 5658POPC   GL111377  11.301  15.170   8.853
 5658POPC   GL211378  11.446  15.203   8.853
 5658POPC   C1A11379  11.259  15.153   8.553
 5658POPC   D2A11380  11.259  15.190   8.253
 5658POPC   C3A11381  11.314  15.207   7.953
 5658POPC   C4A11382  11.273  15.141   7.653
 5658POPC   C1B11383  11.493  15.263   8.553
 5658POPC   C2B11384  11.487  15.319   8.253
 5658POPC   C3B11385  11.576  15.263   7.953
 5658POPC   C4B11386  11.485  15.233   7.653
 5659POPC   NC311387   2.022  31.476   9.453
 5659POPC   PO411388   2.002  31.440   9.153
 5659POPC   GL111389   2.018  31.457   8.853
 5659POPC   GL211390   1.940  31.582   8.853
 5659POPC   C1A11391   2.025  31.481   8.553
 5659POPC   D2A11392   1.951  31.486   8.253
 5659POPC   C3A11393   1.966  31.476   7.953
 5659POPC   C4A11394   1.986  31.449   7.653
 5659POPC   C1B11395   1.999  31.717   8.553
 5659POPC   C2B11396   1.970  31.719   8.253
 5659POPC   C3B11397   1.932  31.732   7.953
 5659POPC   C4B11398   1.946  31.702   7.653
 5660POPC   NC311399  15.188   8.923   9.453
 5660POPC   PO411400  15.135   9.010   9.153
 5660POPC   GL111401  15.224   8.961   8.853
 5660POPC   GL211402  15.248   9.118   8.853
 5660POPC   C1A11403  15.141   8.959   8.553
 5660POPC   D2A11404  15.169   9.000   8.253
 5660POPC   C3A11405  15.171   9.008   7.953
 5660POPC   C4A11406  15.135   8.933   7.653
 5660POPC   C1B11407  15.250   9.194   8.553
 5660POPC   C2B11408  15.250   9.169   8.253
 5660POPC   C3B11409  15.217   9.227   7.953
 5660POPC   C4B11410  15.281   9.189   7.653
 5661POPC   NC311411  36.947  13.648   9.453
 5661POPC   PO411412  36.918  13.585   9.153
 5661POPC   GL111413  36.941  13.602   8.853
 5661POPC   GL211414  36.869  13.483   8.853
 5661POPC   C1A11415  36.925  13.636   8.553
 5661POPC   D2A11416  36.886  13.663   8.253
 5661POPC   C3A11417  36.906  13.609   7.953
 5661POPC   C4A11418  36.885  13.640   7.653
 5661POPC   C1B11419  36.755  13.432   8.553
 5661POPC   C2B11420  36.778  13.398   8.253
 5661POPC   C3B11421  36.755  13.422   7.953
 5661POPC   C4B11422  36.764  13.391   7.653
 5662POPC   NC311423  32.282   7.390   9.453
 5662POPC   PO411424  32.277   7.424   9.153
 5662POPC   GL111425  32.271   7.446   8.853
 5662POPC   GL211426  32.209   7.589   8.853
 5662POPC   C1A11427  32.203   7.420   8.553
 5662POPC   D2A11428  32.244   7.396   8.253
 5662POPC   C3A11429  32.227   7.433   7.953
 5662POPC   C4A11430  32.240   7.381   7.653
 5662POPC   C1B11431  32.185   7.673   8.553
 5662POPC   C2B11432  32.261   7.703   8.253
 5662POPC   C3B11433  32.236   7.654   7.953
 5662POPC   C4B11434  32.199   7.710   7.653
 5663POPC   NC311435  40.030  22.947   9.453
 5663POPC   PO411436  39.968  22.898   9.153
 5663POPC   GL111437  39.972  22.943   8.853
 5663POPC   GL211438  40.010  22.810   8.853
 5663POPC   C1A11439  40.021  22.901   8.553
 5663POPC   D2A11440  40.006  22.958   8.253
 5663POPC   C3A11441  40.043  22.921   7.953
 5663POPC   C4A11442  39.993  22.930   7.653
 5663POPC   C1B11443  40.009  22.732   8.553
 5663POPC   C2B11444  40.002  22.660   8.253
 5663POPC   C3B11445  40.045  22.699   7.953
 5663POPC   C4B11446  40.051  22.726   7.653
 5664POPC   NC311447  14.412   5.068   9.453
 5664POPC   PO411448  14.383   5.136   9.153
 5664POPC   GL111449  14.371   5.123   8.853
 5664POPC   GL211450  14.451   4.959   8.853
 5664POPC   C1A11451  14.360   5.045   8.553
 5664POPC   D2A11452  14.440   5.111   8.253
 5664POPC   C3A11453  14.427   5.142   7.953
 5664POPC   C4A11454  14.430   5.096   7.653
 5664POPC   C1B11455  14.461   4.865   8.553
 5664POPC   C2B11456  14.497   4.904   8.253
 5664POPC   C3B11457  14.453   4.906   7.953
 5664POPC   C4B11458  14.530   4.889   7.653
 5665POPC   NC311459   9.737  40.016   9.453
 5665POPC   PO411460   9.750  39.971   9.153
 5665POPC   GL111461   9.764  39.992   8.853
 5665POPC   GL211462   9.676  40.042   8.853
 5665POPC   C1A11463   9.781  40.028   8.553
 5665POPC   D2A11464   9.742  40.043   8.253
 5665POPC   C3A11465   9.718  40.027   7.953
 5665POPC   C4A11466   9.723  39.965   7.653
 5665POPC   C1B11467   9.508  40.086   8.553
 5665POPC   C2B11468   9.514  40.054   8.253
 5665POPC   C3B11469   9.497  40.097   7.953
 5665POPC   C4B11470   9.465  40.097   7.653
 5666POPC   NC311471  40.785  33.022   9.453
 5666POPC   PO411472  40.747  33.039   9.153
 5666POPC   GL111473  40.770  33.041   8.853
 5666POPC   GL211474  40.885  32.959   8.853
 5666POPC   C1A11475  40.830  33.073   8.553
 5666POPC   D2A11476  40.819  32.978   8.253
 5666POPC   C3A11477  40.784  33.029   7.953
 5666POPC   C4A11478  40.826  33.028   7.653
 5666POPC   C1B11479  40.943  32.862   8.553
 5666POPC   C2B11480  40.988  32.807   8.253
 5666POPC   C3B11481  40.906  32.857   7.953
 5666POPC   C4B11482  40.910  32.852   7.653
 5667POPC   NC311483  18.307  22.151   9.453
 5667POPC   PO411484  18.333  22.119   9.153
 5667POPC   GL111485  18.283  22.181   8.853
 5667POPC   GL211486  18.365  22.278   8.853
 5667POPC   C1A11487  18.304  22.162   8.553
 5667POPC   D2A11488  18.277  22.155   8.253
 5667POPC   C3A11489  18.263  22.162   7.953
 5667POPC   C4A11490  18.265  22.124   7.653
 5667POPC   C1B11491  18.474  22.389   8.553
 5667POPC   C2B11492  18.399  22.382   8.253
 5667POPC   C3B11493  18.457  22.345   7.953
 5667POPC   C4B11494  18.465  22.331   7.653
 5668POPC   NC311495  32.295  36.908   9.453
 5668POPC   PO411496  32.222  36.932   9.153
 5668POPC   GL111497  32.223  36.855   8.853
 5668POPC   GL211498  32.268  36.807   8.853
 5668POPC   C1A11499  32.282  36.938   8.553
 5668POPC   D2A11500  32.266  36.926   8.253
 5668POPC   C3A11501  32.259  36.911   7.953
 5668POPC   C4A11502  32.204  36.890   7.653
 5668POPC   C1B11503  32.190  36.670   8.553
 5668POPC   C2B11504  32.257  36.645   8.253
 5668POPC   C3B11505  32.242  36.656   7.953
 5668POPC   C4B11506  32.267  36.615   7.653
 5669POPC   NC311507  29.930   7.455   9.453
 5669POPC   PO411508  29.943   7.468   9.153
 5669POPC   GL111509  29.915   7.376   8.853
 5669POPC   GL211510  29.970   7.246   8.853
 5669POPC   C1A11511  29.958   7.435   8.553
 5669POPC   D2A11512  29.941   7.384   8.253
 5669POPC   C3A11513  29.969   7.446   7.953
 5669POPC   C4A11514  29.952   7.457   7.653
 5669POPC   C1B11515  29.982   7.211   8.553
 5669POPC   C2B11516  29.970   7.178   8.253
 5669POPC   C3B11517  29.925   7.219   7.953
 5669POPC   C4B11518  29.987   7.192   7.653
 5670POPC   NC311519  14.452   5.910   9.453
 5670POPC   PO411520  14.387   5.848   9.153
 5670POPC   GL111521  14.440   5.907   8.853
 5670POPC   GL211522  14.468   5.742   8.853
 5670POPC   C1A11523  14.428   5.851   8.553
 5670POPC   D2A11524  14.359   5.826   8.253
 5670POPC   C3A11525  14.354   5.870   7.953
 5670POPC   C4A11526  14.432   5.829   7.653
 5670POPC   C1B11527  14.588   5.727   8.553
 5670POPC   C2B11528  14.580   5.710   8.253
 5670POPC   C3B11529  14.546   5.661   7.953
 5670POPC   C4B11530  14.548   5.720   7.653
 5671POPC   NC311531  24.503  14.436   9.453
 5671POPC   PO411532  24.508  14.362   9.153
 5671POPC   GL111533  24.518  14.402   8.853
 5671POPC   GL211534  24.474  14.298   8.853
 5671POPC   C1A11535  24.506  14.363   8.553
 5671POPC   D2A11536  24.450  14.360   8.253
 5671POPC   C3A11537  24.526  14.369   7.953
 5671POPC   C4A11538  24.472  14.408   7.653
 5671POPC   C1B11539  24.455  14.132   8.553
 5671POPC   C2B11540  24.449  14.114   8.253
 5671POPC   C3B11541  24.447  14.132   7.953
 5671POPC   C4B11542  24.383  14.163   7.653
 5672POPC   NC311543   8.173  32.998   9.453
 5672POPC   PO411544   8.233  32.992   9.153
 5672POPC   GL111545   8.181  32.998   8.853
 5672POPC   GL211546   8.058  33.013   8.853
 5672POPC   C1A11547   8.221  33.016   8.553
 5672POPC   D2A11548   8.172  33.008   8.253
 5672POPC   C3A11549   8.163  32.999   7.953
 5672POPC   C4A11550   8.186  33.000   7.653
 5672POPC   C1B11551   7.908  33.049   8.553
 5672POPC   C2B11552   7.977  33.103   8.253
 5672POPC   C3B11553   7.900  33.066   7.953
 5672POPC   C4B11554   7.901  33.101   7.653
 5673POPC   NC311555   6.605  10.484   9.453
 5673POPC   PO411556   6.606  10.492   9.153
 5673POPC   GL111557   6.635  10.532   8.853
 5673POPC   GL211558   6.539  10.615   8.853
 5673POPC   C1A11559   6.622  10.475   8.553
 5673POPC   D2A11560   6.654  10.520   8.253
 5673POPC   C3A11561   6.662  10.543   7.953
 5673POPC   C4A11562   6.682  10.535   7.653
 5673POPC   C1B11563   6.523  10.704   8.553
 5673POPC   C2B11564   6.543  10.765   8.253
 5673POPC   C3B11565   6.565  10.778   7.953
 5673POPC   C4B11566   6.536  10.790   7.653
 5674POPC   NC311567  16.706   1.200   9.453
 5674POPC   PO411568  16.733   1.226   9.153
 5674POPC   GL111569  16.723   1.205   8.853
 5674POPC   GL211570  16.653   1.098   8.853
 5674POPC   C1A11571  16.737   1.220   8.553
 5674POPC   D2A11572  16.747   1.167   8.253
 5674POPC   C3A11573  16.685   1.214   7.953
 5674POPC   C4A11574  16.769   1.234   7.653
 5674POPC   C1B11575  16.587   1.070   8.553
 5674POPC   C2B11576  16.529   1.045   8.253
 5674POPC   C3B11577  16.566   1.016   7.953
 5674POPC   C4B11578  16.523   0.984   7.653
 5675POPC   NC311579  29.928   3.581   9.453
 5675POPC   PO411580  29.961   3.539   9.153
 5675POPC   GL111581  29.906   3.529   8.853
 5675POPC   GL211582  29.767   3.512   8.853
 5675POPC   C1A11583  29.958   3.515   8.553
 5675POPC   D2A11584  29.933   3.516   8.253
 5675POPC   C3A11585  29.885   3.540   7.953
 5675POPC   C4A11586  29.894   3.575   7.653
 5675POPC   C1B11587  29.708   3.589   8.553
 5675POPC   C2B11588  29.653   3.613   8.253
 5675POPC   C3B11589  29.634   3.565   7.953
 5675POPC   C4B11590  29.646   3.605   7.653
 5676POPC   NC311591  16.747   3.505   9.453
 5676POPC   PO411592  16.731   3.585   9.153
 5676POPC   GL111593  16.716   3.528   8.853
 5676POPC   GL211594  16.561   3.556   8.853
 5676POPC   C1A11595  16.770   3.569   8.553
 5676POPC   D2A11596  16.779   3.524   8.253
 5676POPC   C3A11597  16.748   3.554   7.953
 5676POPC   C4A11598  16.759   3.495   7.653
 5676POPC   C1B11599  16.525   3.617   8.553
 5676POPC   C2B11600  16.497   3.608   8.253
 5676POPC   C3B11601  16.531   3.539   7.953
 5676POPC   C4B11602  16.447   3.624   7.653
 5677POPC   NC311603  34.622  21.395   9.453
 5677POPC   PO411604  34.605  21.417   9.153
 5677POPC   GL111605  34.539  21.339   8.853
 5677POPC   GL211606  34.541  21.550   8.853
 5677POPC   C1A11607  34.546  21.416   8.553
 5677POPC   D2A11608  34.578  21.381   8.253
 5677POPC   C3A11609  34.583  21.402   7.953
 5677POPC   C4A11610  34.568  21.406   7.653
 5677POPC   C1B11611  34.598  21.591   8.553
 5677POPC   C2B11612  34.553  21.607   8.253
 5677POPC   C3B11613  34.576  21.614   7.953
 5677POPC   C4B11614  34.611  21.611   7.653
 5678POPC   NC311615  12.836   0.465   9.453
 5678POPC   PO411616  12.901   0.441   9.153
 5678POPC   GL111617  12.869   0.466   8.853
 5678POPC   GL211618  12.958   0.507   8.853
 5678POPC   C1A11619  12.900   0.442   8.553
 5678POPC   D2A11620  12.876   0.414   8.253
 5678POPC   C3A11621  12.875   0.454   7.953
 5678POPC   C4A11622  12.888   0.418   7.653
 5678POPC   C1B11623  13.091   0.598   8.553
 5678POPC   C2B11624  12.995   0.601   8.253
 5678POPC   C3B11625  13.017   0.619   7.953
 5678POPC   C4B11626  13.032   0.632   7.653
 5679POPC   NC311627  26.811  33.050   9.453
 5679POPC   PO411628  26.820  33.037   9.153
 5679POPC   GL111629  26.841  33.048   8.853
 5679POPC   GL211630  26.752  33.103   8.853
 5679POPC   C1A11631  26.775  32.987   8.553
 5679POPC   D2A11632  26.774  33.047   8.253
 5679POPC   C3A11633  26.830  32.997   7.953
 5679POPC   C4A11634  26.842  33.004   7.653
 5679POPC   C1B11635  26.728  33.298   8.553
 5679POPC   C2B11636  26.758  33.234   8.253
 5679POPC   C3B11637  26.732  33.240   7.953
 5679POPC   C4B11638  26.783  33.254   7.653
 5680POPC   NC311639  35.347  14.441   9.453
 5680POPC   PO411640  35.313  14.413   9.153
 5680POPC   GL111641  35.333  14.403   8.853
 5680POPC   GL211642  35.504  14.415   8.853
 5680POPC   C1A11643  35.382  14.365   8.553
 5680POPC   D2A11644  35.370  14.360   8.253
 5680POPC   C3A11645  35.360  14.433   7.953
 5680POPC   C4A11646  35.335  14.421   7.653
 5680POPC   C1B11647  35.549  14.348   8.553
 5680POPC   C2B11648  35.636  14.393   8.253
 5680POPC   C3B11649  35.632  14.372   7.953
 5680POPC   C4B11650  35.574  14.326   7.653
 5681POPC   NC311651  20.598  21.420   9.453
 5681POPC   PO411652  20.594  21.429   9.153
 5681POPC   GL111653  20.578  21.364   8.853
 5681POPC   GL211654  20.673  21.514   8.853
 5681POPC   C1A11655  20.640  21.344   8.553
 5681POPC   D2A11656  20.567  21.375   8.253
 5681POPC   C3A11657  20.623  21.424   7.953
 5681POPC   C4A11658  20.601  21.415   7.653
 5681POPC   C1B11659  20.647  21.630   8.553
 5681POPC   C2B11660  20.630  21.648   8.253
 5681POPC   C3B11661  20.658  21.618   7.953
 5681POPC   C4B11662  20.700  21.595   7.653
 5682POPC   NC311663  42.350  22.987   9.453
 5682POPC   PO411664  42.380  22.975   9.153
 5682POPC   GL111665  42.354  22.947   8.853
 5682POPC   GL211666  42.291  23.066   8.853
 5682POPC   C1A11667  42.367  22.972   8.553
 5682POPC   D2A11668  42.360  22.932   8.253
 5682POPC   C3A11669  42.292  22.943   7.953
 5682POPC   C4A11670  42.304  22.981   7.653
 5682POPC   C1B11671  42.192  23.198   8.553
 5682POPC   C2B11672  42.214  23.208   8.253
 5682POPC   C3B11673  42.219  23.181   7.953
 5682POPC   C4B11674  42.187  23.208   7.653
 5683POPC   NC311675  24.512  19.789   9.453
 5683POPC   PO411676  24.471  19.847   9.153
 5683POPC   GL111677  24.525  19.871   8.853
 5683POPC   GL211678  24.537  19.957   8.853
 5683POPC   C1A11679  24.526  19.882   8.553
 5683POPC   D2A11680  24.474  19.849   8.253
 5683POPC   C3A11681  24.497  19.838   7.953
 5683POPC   C4A11682  24.481  19.855   7.653
 5683POPC   C1B11683  24.522  20.120   8.553
 5683POPC   C2B11684  24.536  20.130   8.253
 5683POPC   C3B11685  24.480  20.097   7.953
 5683POPC   C4B11686  24.482  20.057   7.653
 5684POPC   NC311687  26.063   9.711   9.453
 5684POPC   PO411688  26.032   9.770   9.153
 5684POPC   GL111689  26.077   9.788   8.853
 5684POPC   GL211690  25.983   9.608   8.853
 5684POPC   C1A11691  26.059   9.740   8.553
 5684POPC   D2A11692  26.034   9.776   8.253
 5684POPC   C3A11693  26.082   9.763   7.953
 5684POPC   C4A11694  26.065   9.748   7.653
 5684POPC   C1B11695  26.002   9.474   8.553
 5684POPC   C2B11696  25.918   9.467   8.253
 5684POPC   C3B11697  25.923   9.515   7.953
 5684POPC   C4B11698  25.961   9.536   7.653
 5685POPC   NC311699  33.022   1.969   9.453
 5685POPC   PO411700  33.057   2.025   9.153
 5685POPC   GL111701  33.052   1.963   8.853
 5685POPC   GL211702  33.133   2.053   8.853
 5685POPC   C1A11703  33.007   1.996   8.553
 5685POPC   D2A11704  33.067   1.941   8.253
 5685POPC   C3A11705  33.035   1.996   7.953
 5685POPC   C4A11706  33.005   2.036   7.653
 5685POPC   C1B11707  33.277   2.157   8.553
 5685POPC   C2B11708  33.265   2.149   8.253
 5685POPC   C3B11709  33.267   2.138   7.953
 5685POPC   C4B11710  33.269   2.161   7.653
 5686POPC   NC311711  40.736  29.947   9.453
 5686POPC   PO411712  40.751  29.883   9.153
 5686POPC   GL111713  40.812  29.960   8.853
 5686POPC   GL211714  40.620  29.940   8.853
 5686POPC   C1A11715  40.808  29.909   8.553
 5686POPC   D2A11716  40.831  29.937   8.253
 5686POPC   C3A11717  40.811  29.909   7.953
 5686POPC   C4A11718  40.773  29.962   7.653
 5686POPC   C1B11719  40.545  29.860   8.553
 5686POPC   C2B11720  40.504  29.894   8.253
 5686POPC   C3B11721  40.526  29.917   7.953
 5686POPC   C4B11722  40.518  29.863   7.653
 5687POPC   NC311723  22.129  36.157   9.453
 5687POPC   PO411724  22.158  36.133   9.153
 5687POPC   GL111725  22.210  36.140   8.853
 5687POPC   GL211726  22.076  36.208   8.853
 5687POPC   C1A11727  22.130  36.154   8.553
 5687POPC   D2A11728  22.189  36.105   8.253
 5687POPC   C3A11729  22.144  36.079   7.953
 5687POPC   C4A11730  22.158  36.082   7.653
 5687POPC   C1B11731  21.950  36.303   8.553
 5687POPC   C2B11732  21.906  36.241   8.253
 5687POPC   C3B11733  21.920  36.236   7.953
 5687POPC   C4B11734  21.968  36.240   7.653
 5688POPC   NC311735  21.353  20.604   9.453
 5688POPC   PO411736  21.371  20.578   9.153
 5688POPC   GL111737  21.340  20.602   8.853
 5688POPC   GL211738  21.287  20.593   8.853
 5688POPC   C1A11739  21.427  20.627   8.553
 5688POPC   D2A11740  21.426  20.577   8.253
 5688POPC   C3A11741  21.337  20.607   7.953
 5688POPC   C4A11742  21.431  20.614   7.653
 5688POPC   C1B11743  21.161  20.519   8.553
 5688POPC   C2B11744  21.142  20.474   8.253
 5688POPC   C3B11745  21.151  20.491   7.953
 5688POPC   C4B11746  21.206  20.477   7.653
 5689POPC   NC311747  29.962   5.863   9.453
 5689POPC   PO411748  29.927   5.907   9.153
 5689POPC   GL111749  29.952   5.844   8.853
 5689POPC   GL211750  29.769   5.823   8.853
 5689POPC   C1A11751  29.947   5.870   8.553
 5689POPC   D2A11752  29.950   5.861   8.253
 5689POPC   C3A11753  29.911   5.889   7.953
 5689POPC   C4A11754  29.873   5.840   7.653
 5689POPC   C1B11755  29.625   5.860   8.553
 5689POPC   C2B11756  29.657   5.856   8.253
 5689POPC   C3B11757  29.672   5.899   7.953
 5689POPC   C4B11758  29.659   5.814   7.653
 5690POPC   NC311759  44.683  35.387   9.453
 5690POPC   PO411760  44.697  35.317   9.153
 5690POPC   GL111761  44.658  35.399   8.853
 5690POPC   GL211762  44.740  35.280   8.853
 5690POPC   C1A11763  44.672  35.305   8.553
 5690POPC   D2A11764  44.619  35.386   8.253
 5690POPC   C3A11765  44.708  35.329   7.953
 5690POPC   C4A11766  44.705  35.352   7.653
 5690POPC   C1B11767  44.906  35.265   8.553
 5690POPC   C2B11768  44.884  35.185   8.253
 5690POPC   C3B11769  44.868  35.244   7.953
 5690POPC   C4B11770  44.887  35.246   7.653
 5691POPC   NC311771  11.257   6.625   9.453
 5691POPC   PO411772  11.260   6.648   9.153
 5691POPC   GL111773  11.264   6.668   8.853
 5691POPC   GL211774  11.419   6.676   8.853
 5691POPC   C1A11775  11.295   6.655   8.553
 5691POPC   D2A11776  11.298   6.672   8.253
 5691POPC   C3A11777  11.345   6.648   7.953
 5691POPC   C4A11778  11.308   6.656   7.653
 5691POPC   C1B11779  11.562   6.685   8.553
 5691POPC   C2B11780  11.511   6.664   8.253
 5691POPC   C3B11781  11.520   6.692   7.953
 5691POPC   C4B11782  11.521   6.669   7.653
 5692POPC   NC311783  39.970  26.781   9.453
 5692POPC   PO411784  39.989  26.853   9.153
 5692POPC   GL111785  39.965  26.783   8.853
 5692POPC   GL211786  40.059  26.891   8.853
 5692POPC   C1A11787  40.020  26.800   8.553
 5692POPC   D2A11788  40.026  26.862   8.253
 5692POPC   C3A11789  40.043  26.814   7.953
 5692POPC   C4A11790  40.032  26.784   7.653
 5692POPC   C1B11791  40.157  27.048   8.553
 5692POPC   C2B11792  40.133  27.013   8.253
 5692POPC   C3B11793  40.132  27.092   7.953
 5692POPC   C4B11794  40.063  27.040   7.653
 5693POPC   NC311795  22.926  29.190   9.453
 5693POPC   PO411796  22.971  29.143   9.153
 5693POPC   GL111797  22.979  29.123   8.853
 5693POPC   GL211798  22.936  29.229   8.853
 5693POPC   C1A11799  22.970  29.182   8.553
 5693POPC   D2A11800  22.958  29.186   8.253
 5693POPC   C3A11801  22.910  29.128   7.953
 5693POPC   C4A11802  22.922  29.168   7.653
 5693POPC   C1B11803  22.937  29.364   8.553
 5693POPC   C2B11804  22.936  29.438   8.253
 5693POPC   C3B11805  22.938  29.363   7.953
 5693POPC   C4B11806  22.953  29.394   7.653
 5694POPC   NC311807   8.997   8.990   9.453
 5694POPC   PO411808   8.941   8.968   9.153
 5694POPC   GL111809   8.983   9.020   8.853
 5694POPC   GL211810   9.021   8.873   8.853
 5694POPC   C1A11811   8.994   8.997   8.553
 5694POPC   D2A11812   8.924   8.978   8.253
 5694POPC   C3A11813   8.995   9.013   7.953
 5694POPC   C4A11814   8.933   9.006   7.653
 5694POPC   C1B11815   8.996   8.698   8.553
 5694POPC   C2B11816   8.959   8.728   8.253
 5694POPC   C3B11817   8.968   8.771   7.953
 5694POPC   C4B11818   9.016   8.739   7.653
 5695POPC   NC311819   1.964  14.439   9.453
 5695POPC   PO411820   1.952  14.383   9.153
 5695POPC   GL111821   1.994  14.451   8.853
 5695POPC   GL211822   2.107  14.341   8.853
 5695POPC   C1A11823   1.981  14.355   8.553
 5695POPC   D2A11824   1.962  14.445   8.253
 5695POPC   C3A11825   1.956  14.431   7.953
 5695POPC   C4A11826   1.977  14.407   7.653
 5695POPC   C1B11827   2.223  14.335   8.553
 5695POPC   C2B11828   2.256  14.272   8.253
 5695POPC   C3B11829   2.262  14.277   7.953
 5695POPC   C4B11830   2.270  14.296   7.653
 5696POPC   NC311831  29.955  43.933   9.453
 5696POPC   PO411832  29.894  43.934   9.153
 5696POPC   GL111833  29.933  43.867   8.853
 5696POPC   GL211834  29.944  43.780   8.853
 5696POPC   C1A11835  29.954  43.864   8.553
 5696POPC   D2A11836  29.942  43.912   8.253
 5696POPC   C3A11837  29.941  43.931   7.953
 5696POPC   C4A11838  29.935  43.895   7.653
 5696POPC   C1B11839  29.997  43.650   8.553
 5696POPC   C2B11840  29.924  43.658   8.253
 5696POPC   C3B11841  29.943  43.633   7.953
 5696POPC   C4B11842  29.915  43.616   7.653
 5697POPC   NC311843  13.661  23.737   9.453
 5697POPC   PO411844  13.586  23.675   9.153
 5697POPC   GL111845  13.652  23.686   8.853
 5697POPC   GL211846  13.596  23.614   8.853
 5697POPC   C1A11847  13.582  23.669   8.553
 5697POPC   D2A11848  13.607  23.756   8.253
 5697POPC   C3A11849  13.663  23.708   7.953
 5697POPC   C4A11850  13.580  23.754   7.653
 5697POPC   C1B11851  13.516  23.453   8.553
 5697POPC   C2B11852  13.535  23.479   8.253
 5697POPC   C3B11853  13.547  23.521   7.953
 5697POPC   C4B11854  13.536  23.457   7.653
 5698POPC   NC311855   4.297   9.757   9.453
 5698POPC   PO411856   4.358   9.760   9.153
 5698POPC   GL111857   4.357   9.755   8.853
 5698POPC   GL211858   4.187   9.715   8.853
 5698POPC   C1A11859   4.277   9.765   8.553
 5698POPC   D2A11860   4.288   9.775   8.253
 5698POPC   C3A11861   4.281   9.773   7.953
 5698POPC   C4A11862   4.359   9.782   7.653
 5698POPC   C1B11863   4.138   9.653   8.553
 5698POPC   C2B11864   4.144   9.642   8.253
 5698POPC   C3B11865   4.084   9.668   7.953
 5698POPC   C4B11866   4.061   9.681   7.653
 5699POPC   NC311867   5.894   8.182   9.453
 5699POPC   PO411868   5.882   8.160   9.153
 5699POPC   GL111869   5.836   8.182   8.853
 5699POPC   GL211870   5.839   8.261   8.853
 5699POPC   C1A11871   5.884   8.164   8.553
 5699POPC   D2A11872   5.845   8.197   8.253
 5699POPC   C3A11873   5.885   8.155   7.953
 5699POPC   C4A11874   5.850   8.183   7.653
 5699POPC   C1B11875   5.757   8.439   8.553
 5699POPC   C2B11876   5.756   8.452   8.253
 5699POPC   C3B11877   5.786   8.378   7.953
 5699POPC   C4B11878   5.784   8.384   7.653
 5700POPC   NC311879  20.657  33.003   9.453
 5700POPC   PO411880  20.600  32.987   9.153
 5700POPC   GL111881  20.656  33.005   8.853
 5700POPC   GL211882  20.473  33.102   8.853
 5700POPC   C1A11883  20.597  33.046   8.553
 5700POPC   D2A11884  20.577  33.051   8.253
 5700POPC   C3A11885  20.603  32.985   7.953
 5700POPC   C4A11886  20.624  33.073   7.653
 5700POPC   C1B11887  20.355  33.061   8.553
 5700POPC   C2B11888  20.396  33.124   8.253
 5700POPC   C3B11889  20.407  33.042   7.953
 5700POPC   C4B11890  20.389  33.059   7.653
 5701POPC   NC311891   9.725   4.284   9.453
 5701POPC   PO411892   9.766   4.291   9.153
 5701POPC   GL111893   9.738   4.363   8.853
 5701POPC   GL211894   9.758   4.204   8.853
 5701POPC   C1A11895   9.787   4.344   8.553
 5701POPC   D2A11896   9.715   4.268   8.253
 5701POPC   C3A11897   9.754   4.360   7.953
 5701POPC   C4A11898   9.793   4.275   7.653
 5701POPC   C1B11899   9.731   4.086   8.553
 5701POPC   C2B11900   9.714   4.072   8.253
 5701POPC   C3B11901   9.705   4.045   7.953
 5701POPC   C4B11902   9.754   4.087   7.653
 5702POPC   NC311903  15.188  29.109   9.453
 5702POPC   PO411904  15.222  29.146   9.153
 5702POPC   GL111905  15.164  29.167   8.853
 5702POPC   GL211906  15.301  29.188   8.853
 5702POPC   C1A11907  15.229  29.191   8.553
 5702POPC   D2A11908  15.218  29.148   8.253
 5702POPC   C3A11909  15.167  29.103   7.953
 5702POPC   C4A11910  15.227  29.153   7.653
 5702POPC   C1B11911  15.467  29.196   8.553
 5702POPC   C2B11912  15.390  29.107   8.253
 5702POPC   C3B11913  15.395  29.130   7.953
 5702POPC   C4B11914  15.408  29.102   7.653
 5703POPC   NC311915  22.173  18.312   9.453
 5703POPC   PO411916  22.164  18.282   9.153
 5703POPC   GL111917  22.122  18.295   8.853
 5703POPC   GL211918  22.073  18.353   8.853
 5703POPC   C1A11919  22.168  18.313   8.553
 5703POPC   D2A11920  22.113  18.295   8.253
 5703POPC   C3A11921  22.158  18.248   7.953
 5703POPC   C4A11922  22.211  18.325   7.653
 5703POPC   C1B11923  22.071  18.497   8.553
 5703POPC   C2B11924  22.098  18.549   8.253
 5703POPC   C3B11925  22.085  18.463   7.953
 5703POPC   C4B11926  22.021  18.493   7.653
 5704POPC   NC311927   9.783  36.141   9.453
 5704POPC   PO411928   9.796  36.114   9.153
 5704POPC   GL111929   9.758  36.128   8.853
 5704POPC   GL211930   9.806  36.276   8.853
 5704POPC   C1A11931   9.796  36.118   8.553
 5704POPC   D2A11932   9.704  36.117   8.253
 5704POPC   C3A11933   9.748  36.083   7.953
 5704POPC   C4A11934   9.756  36.095   7.653
 5704POPC   C1B11935   9.833  36.376   8.553
 5704POPC   C2B11936   9.786  36.359   8.253
 5704POPC   C3B11937   9.818  36.420   7.953
 5704POPC   C4B11938   9.809  36.402   7.653
 5705POPC   NC311939  11.267  30.745   9.453
 5705POPC   PO411940  11.266  30.707   9.153
 5705POPC   GL111941  11.348  30.734   8.853
 5705POPC   GL211942  11.408  30.754   8.853
 5705POPC   C1A11943  11.316  30.727   8.553
 5705POPC   D2A11944  11.260  30.730   8.253
 5705POPC   C3A11945  11.330  30.745   7.953
 5705POPC   C4A11946  11.313  30.651   7.653
 5705POPC   C1B11947  11.587  30.772   8.553
 5705POPC   C2B11948  11.518  30.787   8.253
 5705POPC   C3B11949  11.575  30.728   7.953
 5705POPC   C4B11950  11.535  30.788   7.653
 5706POPC   NC311951  16.695  32.223   9.453
 5706POPC   PO411952  16.694  32.203   9.153
 5706POPC   GL111953  16.745  32.285   8.853
 5706POPC   GL211954  16.692  32.166   8.853
 5706POPC   C1A11955  16.747  32.235   8.553
 5706POPC   D2A11956  16.781  32.282   8.253
 5706POPC   C3A11957  16.725  32.272   7.953
 5706POPC   C4A11958  16.745  32.234   7.653
 5706POPC   C1B11959  16.644  32.007   8.553
 5706POPC   C2B11960  16.659  31.980   8.253
 5706POPC   C3B11961  16.676  32.025   7.953
 5706POPC   C4B11962  16.667  31.977   7.653
 5707POPC   NC311963  21.386  11.299   9.453
 5707POPC   PO411964  21.368  11.350   9.153
 5707POPC   GL111965  21.343  11.317   8.853
 5707POPC   GL211966  21.456  11.407   8.853
 5707POPC   C1A11967  21.395  11.343   8.553
 5707POPC   D2A11968  21.387  11.301   8.253
 5707POPC   C3A11969  21.374  11.258   7.953
 5707POPC   C4A11970  21.396  11.271   7.653
 5707POPC   C1B11971  21.490  11.561   8.553
 5707POPC   C2B11972  21.477  11.475   8.253
 5707POPC   C3B11973  21.510  11.564   7.953
 5707POPC   C4B11974  21.479  11.562   7.653
 5708POPC   NC311975  19.833  29.890   9.453
 5708POPC   PO411976  19.797  29.957   9.153
 5708POPC   GL111977  19.853  29.912   8.853
 5708POPC   GL211978  19.675  29.882   8.853
 5708POPC   C1A11979  19.806  29.948   8.553
 5708POPC   D2A11980  19.871  29.960   8.253
 5708POPC   C3A11981  19.883  29.902   7.953
 5708POPC   C4A11982  19.843  29.952   7.653
 5708POPC   C1B11983  19.630  29.874   8.553
 5708POPC   C2B11984  19.544  29.913   8.253
 5708POPC   C3B11985  19.619  29.893   7.953
 5708POPC   C4B11986  19.577  29.880   7.653
 5709POPC   NC311987  38.415   9.708   9.453
 5709POPC   PO411988  38.409   9.786   9.153
 5709POPC   GL111989  38.409   9.774   8.853
 5709POPC   GL211990  38.290   9.733   8.853
 5709POPC   C1A11991  38.413   9.766   8.553
 5709POPC   D2A11992  38.444   9.769   8.253
 5709POPC   C3A11993  38.456   9.788   7.953
 5709POPC   C4A11994  38.411   9.729   7.653
 5709POPC   C1B11995  38.222   9.713   8.553
 5709POPC   C2B11996  38.243   9.682   8.253
 5709POPC   C3B11997  38.225   9.683   7.953
 5709POPC   C4B11998  38.183   9.706   7.653
 5710POPC   NC311999   8.226   4.299   9.453
 5710POPC   PO412000   8.186   4.324   9.153
 5710POPC   GL112001   8.164   4.282   8.853
 5710POPC   GL212002   8.316   4.317   8.853
 5710POPC   C1A12003   8.168   4.366   8.553
 5710POPC   D2A12004   8.194   4.283   8.253
 5710POPC   C3A12005   8.225   4.283   7.953
 5710POPC   C4A12006   8.199   4.333   7.653
 5710POPC   C1B12007   8.454   4.278   8.553
 5710POPC   C2B12008   8.444   4.238   8.253
 5710POPC   C3B12009   8.482   4.275   7.953
 5710POPC   C4B12010   8.441   4.273   7.653
 5711POPC   NC312011  13.627  36.151   9.453
 5711POPC   PO412012  13.599  36.136   9.153
 5711POPC   GL112013  13.594  36.176   8.853
 5711POPC   GL212014  13.472  36.074   8.853
 5711POPC   C1A12015  13.628  36.099   8.553
 5711POPC   D2A12016  13.611  36.155   8.253
 5711POPC   C3A12017  13.618  36.097   7.953
 5711POPC   C4A12018  13.650  36.145   7.653
 5711POPC   C1B12019  13.353  36.126   8.553
 5711POPC   C2B12020  13.423  36.113   8.253
 5711POPC   C3B12021  13.336  36.108   7.953
 5711POPC   C4B12022  13.389  36.050   7.653
 5712POPC   NC312023  25.286  35.305   9.453
 5712POPC   PO412024  25.219  35.375   9.153
 5712POPC   GL112025  25.240  35.385   8.853
 5712POPC   GL212026  25.183  35.308   8.853
 5712POPC   C1A12027  25.294  35.315   8.553
 5712POPC   D2A12028  25.310  35.350   8.253
 5712POPC   C3A12029  25.256  35.333   7.953
 5712POPC   C4A12030  25.279  35.316   7.653
 5712POPC   C1B12031  25.057  35.203   8.553
 5712POPC   C2B12032  25.042  35.200   8.253
 5712POPC   C3B12033  25.013  35.256   7.953
 5712POPC   C4B12034  25.071  35.203   7.653
 5713POPC   NC312035  10.565  24.490   9.453
 5713POPC   PO412036  10.540  24.466   9.153
 5713POPC   GL112037  10.497  24.524   8.853
 5713POPC   GL212038  10.565  24.362   8.853
 5713POPC   C1A12039  10.568  24.512   8.553
 5713POPC   D2A12040  10.515  24.538   8.253
 5713POPC   C3A12041  10.498  24.444   7.953
 5713POPC   C4A12042  10.568  24.537   7.653
 5713POPC   C1B12043  10.599  24.244   8.553
 5713POPC   C2B12044  10.597  24.245   8.253
 5713POPC   C3B12045  10.639  24.240   7.953
 5713POPC   C4B12046  10.629  24.224   7.653
 5714POPC   NC312047   5.843  40.009   9.453
 5714POPC   PO412048   5.890  40.014   9.153
 5714POPC   GL112049   5.838  39.978   8.853
 5714POPC   GL212050   5.919  40.101   8.853
 5714POPC   C1A12051   5.892  40.010   8.553
 5714POPC   D2A12052   5.827  39.961   8.253
 5714POPC   C3A12053   5.846  39.963   7.953
 5714POPC   C4A12054   5.854  40.044   7.653
 5714POPC   C1B12055   5.990  40.174   8.553
 5714POPC   C2B12056   6.013  40.184   8.253
 5714POPC   C3B12057   5.979  40.180   7.953
 5714POPC   C4B12058   6.066  40.236   7.653
 5715POPC   NC312059  29.126   6.610   9.453
 5715POPC   PO412060  29.100   6.688   9.153
 5715POPC   GL112061  29.121   6.694   8.853
 5715POPC   GL212062  29.299   6.662   8.853
 5715POPC   C1A12063  29.176   6.690   8.553
 5715POPC   D2A12064  29.191   6.625   8.253
 5715POPC   C3A12065  29.131   6.675   7.953
 5715POPC   C4A12066  29.107   6.617   7.653
 5715POPC   C1B12067  29.323   6.823   8.553
 5715POPC   C2B12068  29.331   6.775   8.253
 5715POPC   C3B12069  29.367   6.808   7.953
 5715POPC   C4B12070  29.354   6.752   7.653
 5716POPC   NC312071  25.308  19.857   9.453
 5716POPC   PO412072  25.249  19.832   9.153
 5716POPC   GL112073  25.299  19.811   8.853
 5716POPC   GL212074  25.107  19.822   8.853
 5716POPC   C1A12075  25.313  19.804   8.553
 5716POPC   D2A12076  25.234  19.810   8.253
 5716POPC   C3A12077  25.225  19.785   7.953
 5716POPC   C4A12078  25.290  19.790   7.653
 5716POPC   C1B12079  25.056  19.759   8.553
 5716POPC   C2B12080  24.998  19.700   8.253
 5716POPC   C3B12081  24.990  19.747   7.953
 5716POPC   C4B12082  24.997  19.761   7.653
 5717POPC   NC312083  37.632  10.545   9.453
 5717POPC   PO412084  37.637  10.532   9.153
 5717POPC   GL112085  37.661  10.523   8.853
 5717POPC   GL212086  37.593  10.451   8.853
 5717POPC   C1A12087  37.648  10.483   8.553
 5717POPC   D2A12088  37.669  10.484   8.253
 5717POPC   C3A12089  37.664  10.511   7.953
 5717POPC   C4A12090  37.684  10.509   7.653
 5717POPC   C1B12091  37.530  10.310   8.553
 5717POPC   C2B12092  37.493  10.291   8.253
 5717POPC   C3B12093  37.515  10.288   7.953
 5717POPC   C4B12094  37.548  10.351   7.653
 5718POPC   NC312095  35.324  10.572   9.453
 5718POPC   PO412096  35.320  10.545   9.153
 5718POPC   GL112097  35.368  10.551   8.853
 5718POPC   GL212098  35.471  10.503   8.853
 5718POPC   C1A12099  35.344  10.511   8.553
 5718POPC   D2A12100  35.400  10.506   8.253
 5718POPC   C3A12101  35.305  10.552   7.953
 5718POPC   C4A12102  35.373  10.489   7.653
 5718POPC   C1B12103  35.609  10.537   8.553
 5718POPC   C2B12104  35.596  10.570   8.253
 5718POPC   C3B12105  35.649  10.595   7.953
 5718POPC   C4B12106  35.579  10.523   7.653
 5719POPC   NC312107  10.484  25.265   9.453
 5719POPC   PO412108  10.499  25.262   9.153
 5719POPC   GL112109  10.532  25.303   8.853
 5719POPC   GL212110  10.384  25.303   8.853
 5719POPC   C1A12111  10.569  25.254   8.553
 5719POPC   D2A12112  10.475  25.292   8.253
 5719POPC   C3A12113  10.493  25.273   7.953
 5719POPC   C4A12114  10.501  25.313   7.653
 5719POPC   C1B12115  10.247  25.281   8.553
 5719POPC   C2B12116  10.229  25.305   8.253
 5719POPC   C3B12117  10.277  25.347   7.953
 5719POPC   C4B12118  10.249  25.273   7.653
 5720POPC   NC312119   6.681  19.823   9.453
 5720POPC   PO412120   6.603  19.874   9.153
 5720POPC   GL112121   6.670  19.855   8.853
 5720POPC   GL212122   6.573  19.717   8.853
 5720POPC   C1A12123   6.618  19.847   8.553
 5720POPC   D2A12124   6.655  19.811   8.253
 5720POPC   C3A12125   6.597  19.851   7.953
 5720POPC   C4A12126   6.653  19.841   7.653
 5720POPC   C1B12127   6.521  19.625   8.553
 5720POPC   C2B12128   6.512  19.598   8.253
 5720POPC   C3B12129   6.498  19.654   7.953
 5720POPC   C4B12130   6.492  19.650   7.653
 5721POPC   NC312131  15.944  12.088   9.453
 5721POPC   PO412132  15.918  12.094   9.153
 5721POPC   GL112133  15.972  12.082   8.853
 5721POPC   GL212134  15.836  12.186   8.853
 5721POPC   C1A12135  15.922  12.082   8.553
 5721POPC   D2A12136  15.981  12.107   8.253
 5721POPC   C3A12137  15.918  12.073   7.953
 5721POPC   C4A12138  15.908  12.050   7.653
 5721POPC   C1B12139  15.713  12.220   8.553
 5721POPC   C2B12140  15.754  12.208   8.253
 5721POPC   C3B12141  15.784  12.172   7.953
 5721POPC   C4B12142  15.763  12.239   7.653
 5722POPC   NC312143  31.455  26.024   9.453
 5722POPC   PO412144  31.461  26.056   9.153
 5722POPC   GL112145  31.433  26.043   8.853
 5722POPC   GL212146  31.412  25.938   8.853
 5722POPC   C1A12147  31.438  26.040   8.553
 5722POPC   D2A12148  31.466  26.021   8.253
 5722POPC   C3A12149  31.504  26.071   7.953
 5722POPC   C4A12150  31.489  26.047   7.653
 5722POPC   C1B12151  31.380  25.825   8.553
 5722POPC   C2B12152  31.420  25.765   8.253
 5722POPC   C3B12153  31.408  25.846   7.953
 5722POPC   C4B12154  31.437  25.837   7.653
 5723POPC   NC312155  11.327   3.585   9.453
 5723POPC   PO412156  11.289   3.585   9.153
 5723POPC   GL112157  11.277   3.569   8.853
 5723POPC   GL212158  11.194   3.490   8.853
 5723POPC   C1A12159  11.332   3.524   8.553
 5723POPC   D2A12160  11.341   3.524   8.253
 5723POPC   C3A12161  11.289   3.492   7.953
 5723POPC   C4A12162  11.281   3.569   7.653
 5723POPC   C1B12163  11.066   3.444   8.553
 5723POPC   C2B12164  11.022   3.459   8.253
 5723POPC   C3B12165  11.084   3.502   7.953
 5723POPC   C4B12166  11.051   3.461   7.653
 5724POPC   NC312167  43.129  37.662   9.453
 5724POPC   PO412168  43.066  37.669   9.153
 5724POPC   GL112169  43.080  37.678   8.853
 5724POPC   GL212170  43.026  37.622   8.853
 5724POPC   C1A12171  43.081  37.713   8.553
 5724POPC   D2A12172  43.089  37.709   8.253
 5724POPC   C3A12173  43.096  37.701   7.953
 5724POPC   C4A12174  43.103  37.682   7.653
 5724POPC   C1B12175  42.904  37.649   8.553
 5724POPC   C2B12176  42.862  37.671   8.253
 5724POPC   C3B12177  42.896  37.608   7.953
 5724POPC   C4B12178  42.877  37.620   7.653
 5725POPC   NC312179  36.928  27.553   9.453
 5725POPC   PO412180  36.945  27.552   9.153
 5725POPC   GL112181  36.918  27.573   8.853
 5725POPC   GL212182  37.031  27.622   8.853
 5725POPC   C1A12183  36.929  27.637   8.553
 5725POPC   D2A12184  36.908  27.577   8.253
 5725POPC   C3A12185  36.868  27.554   7.953
 5725POPC   C4A12186  36.856  27.576   7.653
 5725POPC   C1B12187  37.109  27.647   8.553
 5725POPC   C2B12188  37.139  27.627   8.253
 5725POPC   C3B12189  37.124  27.695   7.953
 5725POPC   C4B12190  37.154  27.685   7.653
 5726POPC   NC312191  40.001  30.728   9.453
 5726POPC   PO412192  40.019  30.672   9.153
 5726POPC   GL112193  39.986  30.687   8.853
 5726POPC   GL212194  40.081  30.699   8.853
 5726POPC   C1A12195  40.056  30.684   8.553
 5726POPC   D2A12196  39.985  30.686   8.253
 5726POPC   C3A12197  39.972  30.652   7.953
 5726POPC   C4A12198  39.976  30.699   7.653
 5726POPC   C1B12199  40.217  30.706   8.553
 5726POPC   C2B12200  40.293  30.660   8.253
 5726POPC   C3B12201  40.261  30.672   7.953
 5726POPC   C4B12202  40.302  30.678   7.653
 5727POPC   NC312203  43.849  26.859   9.453
 5727POPC   PO412204  43.887  26.789   9.153
 5727POPC   GL112205  43.864  26.847   8.853
 5727POPC   GL212206  43.850  26.710   8.853
 5727POPC   C1A12207  43.869  26.823   8.553
 5727POPC   D2A12208  43.923  26.774   8.253
 5727POPC   C3A12209  43.887  26.771   7.953
 5727POPC   C4A12210  43.901  26.831   7.653
 5727POPC   C1B12211  43.885  26.607   8.553
 5727POPC   C2B12212  43.880  26.524   8.253
 5727POPC   C3B12213  43.830  26.604   7.953
 5727POPC   C4B12214  43.846  26.523   7.653
 5728POPC   NC312215  33.806  29.922   9.453
 5728POPC   PO412216  33.765  29.946   9.153
 5728POPC   GL112217  33.755  29.884   8.853
 5728POPC   GL212218  33.710  29.961   8.853
 5728POPC   C1A12219  33.824  29.950   8.553
 5728POPC   D2A12220  33.762  29.936   8.253
 5728POPC   C3A12221  33.831  29.922   7.953
 5728POPC   C4A12222  33.813  29.955   7.653
 5728POPC   C1B12223  33.585  29.985   8.553
 5728POPC   C2B12224  33.520  29.980   8.253
 5728POPC   C3B12225  33.546  30.008   7.953
 5728POPC   C4B12226  33.537  29.989   7.653
 5729POPC   NC312227  36.877  33.052   9.453
 5729POPC   PO412228  36.922  33.033   9.153
 5729POPC   GL112229  36.888  33.036   8.853
 5729POPC   GL212230  36.869  32.917   8.853
 5729POPC   C1A12231  36.900  33.042   8.553
 5729POPC   D2A12232  36.856  32.998   8.253
 5729POPC   C3A12233  36.859  32.989   7.953
 5729POPC   C4A12234  36.874  33.013   7.653
 5729POPC   C1B12235  36.825  32.834   8.553
 5729POPC   C2B12236  36.766  32.839   8.253
 5729POPC   C3B12237  36.819  32.791   7.953
 5729POPC   C4B12238  36.846  32.779   7.653
 5730POPC   NC312239   1.950  26.804   9.453
 5730POPC   PO412240   1.945  26.800   9.153
 5730POPC   GL112241   1.946  26.820   8.853
 5730POPC   GL212242   2.070  26.750   8.853
 5730POPC   C1A12243   1.981  26.864   8.553
 5730POPC   D2A12244   1.964  26.858   8.253
 5730POPC   C3A12245   1.945  26.786   7.953
 5730POPC   C4A12246   2.014  26.800   7.653
 5730POPC   C1B12247   2.155  26.571   8.553
 5730POPC   C2B12248   2.175  26.626   8.253
 5730POPC   C3B12249   2.143  26.583   7.953
 5730POPC   C4B12250   2.158  26.578   7.653
 5731POPC   NC312251  10.547  32.236   9.453
 5731POPC   PO412252  10.529  32.243   9.153
 5731POPC   GL112253  10.478  32.243   8.853
 5731POPC   GL212254  10.581  32.136   8.853
 5731POPC   C1A12255  10.546  32.227   8.553
 5731POPC   D2A12256  10.528  32.205   8.253
 5731POPC   C3A12257  10.484  32.283   7.953
 5731POPC   C4A12258  10.488  32.272   7.653
 5731POPC   C1B12259  10.719  32.025   8.553
 5731POPC   C2B12260  10.674  32.046   8.253
 5731POPC   C3B12261  10.725  32.108   7.953
 5731POPC   C4B12262  10.686  32.115   7.653
 5732POPC   NC312263   2.775  30.738   9.453
 5732POPC   PO412264   2.725  30.735   9.153
 5732POPC   GL112265   2.721  30.737   8.853
 5732POPC   GL212266   2.736  30.545   8.853
 5732POPC   C1A12267   2.720  30.745   8.553
 5732POPC   D2A12268   2.810  30.734   8.253
 5732POPC   C3A12269   2.754  30.741   7.953
 5732POPC   C4A12270   2.738  30.685   7.653
 5732POPC   C1B12271   2.646  30.479   8.553
 5732POPC   C2B12272   2.661  30.435   8.253
 5732POPC   C3B12273   2.633  30.480   7.953
 5732POPC   C4B12274   2.624  30.515   7.653
 5733POPC   NC312275  19.793  13.636   9.453
 5733POPC   PO412276  19.831  13.660   9.153
 5733POPC   GL112277  19.790  13.616   8.853
 5733POPC   GL212278  19.829  13.520   8.853
 5733POPC   C1A12279  19.815  13.580   8.553
 5733POPC   D2A12280  19.868  13.666   8.253
 5733POPC   C3A12281  19.849  13.652   7.953
 5733POPC   C4A12282  19.838  13.669   7.653
 5733POPC   C1B12283  19.793  13.421   8.553
 5733POPC   C2B12284  19.802  13.344   8.253
 5733POPC   C3B12285  19.710  13.400   7.953
 5733POPC   C4B12286  19.793  13.345   7.653
 5734POPC   NC312287  32.224  19.085   9.453
 5734POPC   PO412288  32.224  19.020   9.153
 5734POPC   GL112289  32.211  19.017   8.853
 5734POPC   GL212290  32.174  19.201   8.853
 5734POPC   C1A12291  32.283  19.089   8.553
 5734POPC   D2A12292  32.288  19.103   8.253
 5734POPC   C3A12293  32.220  19.080   7.953
 5734POPC   C4A12294  32.272  19.053   7.653
 5734POPC   C1B12295  32.034  19.209   8.553
 5734POPC   C2B12296  32.096  19.204   8.253
 5734POPC   C3B12297  32.128  19.216   7.953
 5734POPC   C4B12298  32.059  19.257   7.653
 5735POPC   NC312299  39.981  33.829   9.453
 5735POPC   PO412300  40.032  33.845   9.153
 5735POPC   GL112301  40.017  33.782   8.853
 5735POPC   GL212302  39.923  33.811   8.853
 5735POPC   C1A12303  39.995  33.757   8.553
 5735POPC   D2A12304  39.973  33.789   8.253
 5735POPC   C3A12305  40.050  33.843   7.953
 5735POPC   C4A12306  40.007  33.762   7.653
 5735POPC   C1B12307  39.717  33.854   8.553
 5735POPC   C2B12308  39.806  33.875   8.253
 5735POPC   C3B12309  39.806  33.834   7.953
 5735POPC   C4B12310  39.718  33.870   7.653
 5736POPC   NC312311  24.491  33.811   9.453
 5736POPC   PO412312  24.518  33.818   9.153
 5736POPC   GL112313  24.482  33.781   8.853
 5736POPC   GL212314  24.448  33.942   8.853
 5736POPC   C1A12315  24.538  33.759   8.553
 5736POPC   D2A12316  24.500  33.759   8.253
 5736POPC   C3A12317  24.468  33.778   7.953
 5736POPC   C4A12318  24.478  33.772   7.653
 5736POPC   C1B12319  24.477  34.092   8.553
 5736POPC   C2B12320  24.452  34.061   8.253
 5736POPC   C3B12321  24.537  34.013   7.953
 5736POPC   C4B12322  24.476  34.072   7.653
 5737POPC   NC312323  40.734  30.698   9.453
 5737POPC   PO412324  40.797  30.723   9.153
 5737POPC   GL112325  40.763  30.676   8.853
 5737POPC   GL212326  40.729  30.725   8.853
 5737POPC   C1A12327  40.829  30.696   8.553
 5737POPC   D2A12328  40.827  30.676   8.253
 5737POPC   C3A12329  40.812  30.684   7.953
 5737POPC   C4A12330  40.745  30.672   7.653
 5737POPC   C1B12331  40.607  30.883   8.553
 5737POPC   C2B12332  40.534  30.821   8.253
 5737POPC   C3B12333  40.598  30.846   7.953
 5737POPC   C4B12334  40.609  30.882   7.653
 5738POPC   NC312335  30.687   5.876   9.453
 5738POPC   PO412336  30.701   5.899   9.153
 5738POPC   GL112337  30.693   5.857   8.853
 5738POPC   GL212338  30.757   5.929   8.853
 5738POPC   C1A12339  30.704   5.823   8.553
 5738POPC   D2A12340  30.655   5.894   8.253
 5738POPC   C3A12341  30.698   5.913   7.953
 5738POPC   C4A12342  30.659   5.913   7.653
 5738POPC   C1B12343  30.903   6.048   8.553
 5738POPC   C2B12344  30.920   6.050   8.253
 5738POPC   C3B12345  30.911   6.021   7.953
 5738POPC   C4B12346  30.937   5.995   7.653
 5739POPC   NC312347  40.807  29.184   9.453
 5739POPC   PO412348  40.753  29.107   9.153
 5739POPC   GL112349  40.777  29.177   8.853
 5739POPC   GL212350  40.861  29.192   8.853
 5739POPC   C1A12351  40.795  29.097   8.553
 5739POPC   D2A12352  40.740  29.189   8.253
 5739POPC   C3A12353  40.828  29.104   7.953
 5739POPC   C4A12354  40.819  29.105   7.653
 5739POPC   C1B12355  40.987  29.230   8.553
 5739POPC   C2B12356  41.051  29.244   8.253
 5739POPC   C3B12357  41.035  29.247   7.953
 5739POPC   C4B12358  41.065  29.167   7.653
 5740POPC   NC312359  12.029  24.445   9.453
 5740POPC   PO412360  12.082  24.450   9.153
 5740POPC   GL112361  12.038  24.458   8.853
 5740POPC   GL212362  12.024  24.664   8.853
 5740POPC   C1A12363  12.079  24.514   8.553
 5740POPC   D2A12364  12.108  24.492   8.253
 5740POPC   C3A12365  12.050  24.504   7.953
 5740POPC   C4A12366  12.057  24.443   7.653
 5740POPC   C1B12367  12.049  24.707   8.553
 5740POPC   C2B12368  12.094  24.769   8.253
 5740POPC   C3B12369  12.046  24.690   7.953
 5740POPC   C4B12370  12.106  24.730   7.653
 5741POPC   NC312371  17.475   2.720   9.453
 5741POPC   PO412372  17.481   2.781   9.153
 5741POPC   GL112373  17.493   2.752   8.853
 5741POPC   GL212374  17.545   2.682   8.853
 5741POPC   C1A12375  17.477   2.798   8.553
 5741POPC   D2A12376  17.507   2.777   8.253
 5741POPC   C3A12377  17.464   2.727   7.953
 5741POPC   C4A12378  17.485   2.782   7.653
 5741POPC   C1B12379  17.606   2.534   8.553
 5741POPC   C2B12380  17.687   2.524   8.253
 5741POPC   C3B12381  17.674   2.580   7.953
 5741POPC   C4B12382  17.598   2.529   7.653
 5742POPC   NC312383  26.850  34.612   9.453
 5742POPC   PO412384  26.842  34.545   9.153
 5742POPC   GL112385  26.854  34.572   8.853
 5742POPC   GL212386  26.983  34.662   8.853
 5742POPC   C1A12387  26.834  34.619   8.553
 5742POPC   D2A12388  26.863  34.594   8.253
 5742POPC   C3A12389  26.845  34.548   7.953
 5742POPC   C4A12390  26.856  34.543   7.653
 5742POPC   C1B12391  27.100  34.667   8.553
 5742POPC   C2B12392  27.095  34.673   8.253
 5742POPC   C3B12393  27.092  34.662   7.953
 5742POPC   C4B12394  27.053  34.697   7.653
 5743POPC   NC312395  34.618  29.912   9.453
 5743POPC   PO412396  34.549  29.875   9.153
 5743POPC   GL112397  34.571  29.873   8.853
 5743POPC   GL212398  34.554  29.760   8.853
 5743POPC   C1A12399  34.537  29.905   8.553
 5743POPC   D2A12400  34.566  29.969   8.253
 5743POPC   C3A12401  34.618  29.944   7.953
 5743POPC   C4A12402  34.595  29.911   7.653
 5743POPC   C1B12403  34.488  29.692   8.553
 5743POPC   C2B12404  34.464  29.730   8.253
 5743POPC   C3B12405  34.468  29.664   7.953
 5743POPC   C4B12406  34.493  29.700   7.653
 5744POPC   NC312407  31.424  22.955   9.453
 5744POPC   PO412408  31.515  22.979   9.153
 5744POPC   GL112409  31.428  22.983   8.853
 5744POPC   GL212410  31.507  23.020   8.853
 5744POPC   C1A12411  31.470  22.963   8.553
 5744POPC   D2A12412  31.488  22.955   8.253
 5744POPC   C3A12413  31.499  22.912   7.953
 5744POPC   C4A12414  31.426  22.898   7.653
 5744POPC   C1B12415  31.510  23.158   8.553
 5744POPC   C2B12416  31.483  23.192   8.253
 5744POPC   C3B12417  31.467  23.194   7.953
 5744POPC   C4B12418  31.474  23.232   7.653
 5745POPC   NC312419  39.978   8.246   9.453
 5745POPC   PO412420  40.027   8.208   9.153
 5745POPC   GL112421  39.983   8.226   8.853
 5745POPC   GL212422  40.049   8.265   8.853
 5745POPC   C1A12423  40.053   8.177   8.553
 5745POPC   D2A12424  40.047   8.196   8.253
 5745POPC   C3A12425  40.049   8.148   7.953
 5745POPC   C4A12426  39.970   8.199   7.653
 5745POPC   C1B12427  40.070   8.449   8.553
 5745POPC   C2B12428  40.125   8.380   8.253
 5745POPC   C3B12429  40.125   8.378   7.953
 5745POPC   C4B12430  40.151   8.458   7.653
 5746POPC   NC312431  34.604  33.808   9.453
 5746POPC   PO412432  34.549  33.774   9.153
 5746POPC   GL112433  34.551  33.764   8.853
 5746POPC   GL212434  34.460  33.832   8.853
 5746POPC   C1A12435  34.560  33.825   8.553
 5746POPC   D2A12436  34.526  33.834   8.253
 5746POPC   C3A12437  34.606  33.846   7.953
 5746POPC   C4A12438  34.614  33.759   7.653
 5746POPC   C1B12439  34.371  33.916   8.553
 5746POPC   C2B12440  34.408  33.969   8.253
 5746POPC   C3B12441  34.345  34.010   7.953
 5746POPC   C4B12442  34.346  33.924   7.653
 5747POPC   NC312443  37.658  36.084   9.453
 5747POPC   PO412444  37.701  36.116   9.153
 5747POPC   GL112445  37.704  36.107   8.853
 5747POPC   GL212446  37.810  36.104   8.853
 5747POPC   C1A12447  37.638  36.157   8.553
 5747POPC   D2A12448  37.700  36.151   8.253
 5747POPC   C3A12449  37.676  36.165   7.953
 5747POPC   C4A12450  37.696  36.099   7.653
 5747POPC   C1B12451  37.901  36.011   8.553
 5747POPC   C2B12452  37.937  36.062   8.253
 5747POPC   C3B12453  37.926  36.034   7.953
 5747POPC   C4B12454  37.885  36.029   7.653
 5748POPC   NC312455  20.654  37.685   9.453
 5748POPC   PO412456  20.578  37.645   9.153
 5748POPC   GL112457  20.616  37.643   8.853
 5748POPC   GL212458  20.468  37.663   8.853
 5748POPC   C1A12459  20.645  37.630   8.553
 5748POPC   D2A12460  20.615  37.653   8.253
 5748POPC   C3A12461  20.575  37.729   7.953
 5748POPC   C4A12462  20.646  37.676   7.653
 5748POPC   C1B12463  20.394  37.552   8.553
 5748POPC   C2B12464  20.378  37.520   8.253
 5748POPC   C3B12465  20.377  37.580   7.953
 5748POPC   C4B12466  20.430  37.508   7.653
 5749POPC   NC312467  28.321  20.591   9.453
 5749POPC   PO412468  28.332  20.651   9.153
 5749POPC   GL112469  28.348  20.561   8.853
 5749POPC   GL212470  28.215  20.650   8.853
 5749POPC   C1A12471  28.372  20.652   8.553
 5749POPC   D2A12472  28.399  20.629   8.253
 5749POPC   C3A12473  28.366  20.620   7.953
 5749POPC   C4A12474  28.388  20.597   7.653
 5749POPC   C1B12475  28.159  20.676   8.553
 5749POPC   C2B12476  28.092  20.680   8.253
 5749POPC   C3B12477  28.099  20.621   7.953
 5749POPC   C4B12478  28.161  20.608   7.653
 5750POPC   NC312479  10.563  22.916   9.453
 5750POPC   PO412480  10.497  22.962   9.153
 5750POPC   GL112481  10.572  22.941   8.853
 5750POPC   GL212482  10.687  22.925   8.853
 5750POPC   C1A12483  10.505  22.980   8.553
 5750POPC   D2A12484  10.501  22.935   8.253
 5750POPC   C3A12485  10.499  22.969   7.953
 5750POPC   C4A12486  10.486  22.894   7.653
 5750POPC   C1B12487  10.812  22.947   8.553
 5750POPC   C2B12488  10.789  22.971   8.253
 5750POPC   C3B12489  10.767  22.950   7.953
 5750POPC   C4B12490  10.756  22.923   7.653
 5751POPC   NC312491  23.761  10.487   9.453
 5751POPC   PO412492  23.679  10.571   9.153
 5751POPC   GL112493  23.681  10.517   8.853
 5751POPC   GL212494  23.806  10.483   8.853
 5751POPC   C1A12495  23.671  10.497   8.553
 5751POPC   D2A12496  23.736  10.541   8.253
 5751POPC   C3A12497  23.747  10.485   7.953
 5751POPC   C4A12498  23.700  10.567   7.653
 5751POPC   C1B12499  23.908  10.436   8.553
 5751POPC   C2B12500  23.954  10.449   8.253
 5751POPC   C3B12501  23.914  10.421   7.953
 5751POPC   C4B12502  23.941  10.450   7.653
 5752POPC   NC312503  36.915   9.736   9.453
 5752POPC   PO412504  36.862   9.713   9.153
 5752POPC   GL112505  36.950   9.763   8.853
 5752POPC   GL212506  37.018   9.817   8.853
 5752POPC   C1A12507  36.906   9.784   8.553
 5752POPC   D2A12508  36.894   9.776   8.253
 5752POPC   C3A12509  36.863   9.780   7.953
 5752POPC   C4A12510  36.870   9.739   7.653
 5752POPC   C1B12511  37.138   9.871   8.553
 5752POPC   C2B12512  37.138   9.879   8.253
 5752POPC   C3B12513  37.080   9.892   7.953
 5752POPC   C4B12514  37.103   9.930   7.653
 5753POPC   NC312515  22.931  12.886   9.453
 5753POPC   PO412516  22.892  12.840   9.153
 5753POPC   GL112517  22.972  12.887   8.853
 5753POPC   GL212518  22.775  12.821   8.853
 5753POPC   C1A12519  22.892  12.823   8.553
 5753POPC   D2A12520  22.912  12.830   8.253
 5753POPC   C3A12521  22.982  12.900   7.953
 5753POPC   C4A12522  22.936  12.809   7.653
 5753POPC   C1B12523  22.656  12.786   8.553
 5753POPC   C2B12524  22.730  12.784   8.253
 5753POPC   C3B12525  22.718  12.766   7.953
 5753POPC   C4B12526  22.721  12.749   7.653
 5754POPC   NC312527  16.747  38.425   9.453
 5754POPC   PO412528  16.748  38.451   9.153
 5754POPC   GL112529  16.694  38.481   8.853
 5754POPC   GL212530  16.777  38.622   8.853
 5754POPC   C1A12531  16.716  38.427   8.553
 5754POPC   D2A12532  16.731  38.503   8.253
 5754POPC   C3A12533  16.700  38.496   7.953
 5754POPC   C4A12534  16.699  38.412   7.653
 5754POPC   C1B12535  16.721  38.727   8.553
 5754POPC   C2B12536  16.762  38.733   8.253
 5754POPC   C3B12537  16.797  38.675   7.953
 5754POPC   C4B12538  16.731  38.668   7.653
 5755POPC   NC312539   7.441  16.714   9.453
 5755POPC   PO412540   7.416  16.724   9.153
 5755POPC   GL112541   7.403  16.749   8.853
 5755POPC   GL212542   7.456  16.576   8.853
 5755POPC   C1A12543   7.456  16.698   8.553
 5755POPC   D2A12544   7.403  16.781   8.253
 5755POPC   C3A12545   7.371  16.737   7.953
 5755POPC   C4A12546   7.468  16.777   7.653
 5755POPC   C1B12547   7.422  16.446   8.553
 5755POPC   C2B12548   7.367  16.500   8.253
 5755POPC   C3B12549   7.420  16.500   7.953
 5755POPC   C4B12550   7.384  16.478   7.653
 5756POPC   NC312551  40.035  43.882   9.453
 5756POPC   PO412552  39.977  43.894   9.153
 5756POPC   GL112553  40.022  43.891   8.853
 5756POPC   GL212554  40.150  43.785   8.853
 5756POPC   C1A12555  39.990  43.871   8.553
 5756POPC   D2A12556  39.958  43.928   8.253
 5756POPC   C3A12557  39.962  43.893   7.953
 5756POPC   C4A12558  40.055  43.874   7.653
 5756POPC   C1B12559  40.182  43.778   8.553
 5756POPC   C2B12560  40.218  43.776   8.253
 5756POPC   C3B12561  40.191  43.767   7.953
 5756POPC   C4B12562  40.214  43.787   7.653
 5757POPC   NC312563  20.575  12.030   9.453
 5757POPC   PO412564  20.607  12.028   9.153
 5757POPC   GL112565  20.646  12.121   8.853
 5757POPC   GL212566  20.528  11.967   8.853
 5757POPC   C1A12567  20.604  12.027   8.553
 5757POPC   D2A12568  20.572  12.122   8.253
 5757POPC   C3A12569  20.593  12.101   7.953
 5757POPC   C4A12570  20.575  12.083   7.653
 5757POPC   C1B12571  20.546  11.810   8.553
 5757POPC   C2B12572  20.564  11.829   8.253
 5757POPC   C3B12573  20.581  11.839   7.953
 5757POPC   C4B12574  20.536  11.849   7.653
 5758POPC   NC312575  24.441  39.209   9.453
 5758POPC   PO412576  24.496  39.220   9.153
 5758POPC   GL112577  24.473  39.209   8.853
 5758POPC   GL212578  24.343  39.169   8.853
 5758POPC   C1A12579  24.468  39.279   8.553
 5758POPC   D2A12580  24.498  39.246   8.253
 5758POPC   C3A12581  24.444  39.242   7.953
 5758POPC   C4A12582  24.474  39.217   7.653
 5758POPC   C1B12583  24.309  39.144   8.553
 5758POPC   C2B12584  24.271  39.162   8.253
 5758POPC   C3B12585  24.302  39.160   7.953
 5758POPC   C4B12586  24.279  39.084   7.653
 5759POPC   NC312587  10.536  34.599   9.453
 5759POPC   PO412588  10.483  34.535   9.153
 5759POPC   GL112589  10.500  34.610   8.853
 5759POPC   GL212590  10.656  34.579   8.853
 5759POPC   C1A12591  10.545  34.568   8.553
 5759POPC   D2A12592  10.542  34.579   8.253
 5759POPC   C3A12593  10.490  34.557   7.953
 5759POPC   C4A12594  10.538  34.573   7.653
 5759POPC   C1B12595  10.747  34.574   8.553
 5759POPC   C2B12596  10.756  34.581   8.253
 5759POPC   C3B12597  10.742  34.553   7.953
 5759POPC   C4B12598  10.755  34.598   7.653
 5760POPC   NC312599  12.054  13.604   9.453
 5760POPC   PO412600  12.056  13.641   9.153
 5760POPC   GL112601  12.076  13.648   8.853
 5760POPC   GL212602  11.968  13.777   8.853
 5760POPC   C1A12603  12.118  13.581   8.553
 5760POPC   D2A12604  12.050  13.607   8.253
 5760POPC   C3A12605  12.096  13.658   7.953
 5760POPC   C4A12606  12.051  13.659   7.653
 5760POPC   C1B12607  11.973  13.790   8.553
 5760POPC   C2B12608  11.893  13.840   8.253
 5760POPC   C3B12609  11.974  13.860   7.953
 5760POPC   C4B12610  11.977  13.846   7.653
 5761POPC   NC312611  25.276   5.125   9.453
 5761POPC   PO412612  25.226   5.053   9.153
 5761POPC   GL112613  25.296   5.076   8.853
 5761POPC   GL212614  25.209   5.217   8.853
 5761POPC   C1A12615  25.222   5.081   8.553
 5761POPC   D2A12616  25.307   5.056   8.253
 5761POPC   C3A12617  25.265   5.132   7.953
 5761POPC   C4A12618  25.265   5.051   7.653
 5761POPC   C1B12619  25.136   5.306   8.553
 5761POPC   C2B12620  25.176   5.279   8.253
 5761POPC   C3B12621  25.178   5.324   7.953
 5761POPC   C4B12622  25.117   5.274   7.653
 5762POPC   NC312623  37.665  42.356   9.453
 5762POPC   PO412624  37.684  42.380   9.153
 5762POPC   GL112625  37.685  42.302   8.853
 5762POPC   GL212626  37.648  42.177   8.853
 5762POPC   C1A12627  37.661  42.351   8.553
 5762POPC   D2A12628  37.665  42.377   8.253
 5762POPC   C3A12629  37.726  42.296   7.953
 5762POPC   C4A12630  37.724  42.357   7.653
 5762POPC   C1B12631  37.692  42.089   8.553
 5762POPC   C2B12632  37.681  42.038   8.253
 5762POPC   C3B12633  37.674  42.121   7.953
 5762POPC   C4B12634  37.631  42.087   7.653
 5763POPC   NC312635  38.428  32.227   9.453
 5763POPC   PO412636  38.409  32.224   9.153
 5763POPC   GL112637  38.481  32.220   8.853
 5763POPC   GL212638  38.540  32.363   8.853
 5763POPC   C1A12639  38.408  32.290   8.553
 5763POPC   D2A12640  38.491  32.268   8.253
 5763POPC   C3A12641  38.486  32.250   7.953
 5763POPC   C4A12642  38.479  32.200   7.653
 5763POPC   C1B12643  38.631  32.377   8.553
 5763POPC   C2B12644  38.692  32.391   8.253
 5763POPC   C3B12645  38.700  32.439   7.953
 5763POPC   C4B12646  38.681  32.392   7.653
 5764POPC   NC312647  27.620  43.100   9.453
 5764POPC   PO412648  27.613  43.143   9.153
 5764POPC   GL112649  27.574  43.148   8.853
 5764POPC   GL212650  27.445  43.184   8.853
 5764POPC   C1A12651  27.543  43.133   8.553
 5764POPC   D2A12652  27.563  43.097   8.253
 5764POPC   C3A12653  27.581  43.117   7.953
 5764POPC   C4A12654  27.620  43.143   7.653
 5764POPC   C1B12655  27.378  43.217   8.553
 5764POPC   C2B12656  27.325  43.230   8.253
 5764POPC   C3B12657  27.381  43.185   7.953
 5764POPC   C4B12658  27.330  43.211   7.653
 5765POPC   NC312659  24.461  28.338   9.453
 5765POPC   PO412660  24.525  28.373   9.153
 5765POPC   GL112661  24.488  28.322   8.853
 5765POPC   GL212662  24.567  28.506   8.853
 5765POPC   C1A12663  24.466  28.412   8.553
 5765POPC   D2A12664  24.514  28.321   8.253
 5765POPC   C3A12665  24.476  28.334   7.953
 5765POPC   C4A12666  24.497  28.331   7.653
 5765POPC   C1B12667  24.613  28.545   8.553
 5765POPC   C2B12668  24.657  28.577   8.253
 5765POPC   C3B12669  24.631  28.532   7.953
 5765POPC   C4B12670  24.609  28.550   7.653
 5766POPC   NC312671  40.778   7.470   9.453
 5766POPC   PO412672  40.800   7.388   9.153
 5766POPC   GL112673  40.773   7.428   8.853
 5766POPC   GL212674  40.808   7.304   8.853
 5766POPC   C1A12675  40.794   7.400   8.553
 5766POPC   D2A12676  40.749   7.418   8.253
 5766POPC   C3A12677  40.769   7.407   7.953
 5766POPC   C4A12678  40.743   7.372   7.653
 5766POPC   C1B12679  40.874   7.231   8.553
 5766POPC   C2B12680  40.853   7.223   8.253
 5766POPC   C3B12681  40.897   7.158   7.953
 5766POPC   C4B12682  40.849   7.166   7.653
 5767POPC   NC312683  25.231  40.057   9.453
 5767POPC   PO412684  25.249  40.057   9.153
 5767POPC   GL112685  25.267  40.023   8.853
 5767POPC   GL212686  25.203  39.957   8.853
 5767POPC   C1A12687  25.303  40.006   8.553
 5767POPC   D2A12688  25.259  40.035   8.253
 5767POPC   C3A12689  25.284  40.033   7.953
 5767POPC   C4A12690  25.297  40.033   7.653
 5767POPC   C1B12691  25.076  39.863   8.553
 5767POPC   C2B12692  25.119  39.820   8.253
 5767POPC   C3B12693  25.064  39.795   7.953
 5767POPC   C4B12694  25.098  39.849   7.653
 5768POPC   NC312695  22.931  23.755   9.453
 5768POPC   PO412696  22.925  23.745   9.153
 5768POPC   GL112697  22.888  23.664   8.853
 5768POPC   GL212698  22.986  23.798   8.853
 5768POPC   C1A12699  22.941  23.698   8.553
 5768POPC   D2A12700  22.960  23.755   8.253
 5768POPC   C3A12701  22.930  23.716   7.953
 5768POPC   C4A12702  22.932  23.665   7.653
 5768POPC   C1B12703  22.953  23.989   8.553
 5768POPC   C2B12704  22.919  23.997   8.253
 5768POPC   C3B12705  22.983  23.997   7.953
 5768POPC   C4B12706  22.903  23.996   7.653
 5769POPC   NC312707   2.738  20.567   9.453
 5769POPC   PO412708   2.764  20.609   9.153
 5769POPC   GL112709   2.722  20.573   8.853
 5769POPC   GL212710   2.742  20.760   8.853
 5769POPC   C1A12711   2.724  20.613   8.553
 5769POPC   D2A12712   2.725  20.623   8.253
 5769POPC   C3A12713   2.784  20.591   7.953
 5769POPC   C4A12714   2.807  20.597   7.653
 5769POPC   C1B12715   2.713  20.839   8.553
 5769POPC   C2B12716   2.648  20.859   8.253
 5769POPC   C3B12717   2.653  20.893   7.953
 5769POPC   C4B12718   2.742  20.895   7.653
 5770POPC   NC312719  40.778   0.412   9.453
 5770POPC   PO412720  40.764   0.481   9.153
 5770POPC   GL112721  40.761   0.413   8.853
 5770POPC   GL212722  40.927   0.490   8.853
 5770POPC   C1A12723  40.762   0.434   8.553
 5770POPC   D2A12724  40.810   0.408   8.253
 5770POPC   C3A12725  40.818   0.439   7.953
 5770POPC   C4A12726  40.774   0.426   7.653
 5770POPC   C1B12727  40.989   0.462   8.553
 5770POPC   C2B12728  40.996   0.530   8.253
 5770POPC   C3B12729  40.996   0.498   7.953
 5770POPC   C4B12730  41.013   0.496   7.653
 5771POPC   NC312731  44.651  31.505   9.453
 5771POPC   PO412732  44.695  31.446   9.153
 5771POPC   GL112733  44.632  31.484   8.853
 5771POPC   GL212734  44.718  31.348   8.853
 5771POPC   C1A12735  44.661  31.451   8.553
 5771POPC   D2A12736  44.630  31.429   8.253
 5771POPC   C3A12737  44.670  31.443   7.953
 5771POPC   C4A12738  44.680  31.489   7.653
 5771POPC   C1B12739  44.815  31.228   8.553
 5771POPC   C2B12740  44.754  31.213   8.253
 5771POPC   C3B12741  44.749  31.230   7.953
 5771POPC   C4B12742  44.788  31.306   7.653
 5772POPC   NC312743  24.506  24.529   9.453
 5772POPC   PO412744  24.489  24.468   9.153
 5772POPC   GL112745  24.531  24.455   8.853
 5772POPC   GL212746  24.455  24.649   8.853
 5772POPC   C1A12747  24.467  24.454   8.553
 5772POPC   D2A12748  24.476  24.449   8.253
 5772POPC   C3A12749  24.535  24.456   7.953
 5772POPC   C4A12750  24.455  24.493   7.653
 5772POPC   C1B12751  24.507  24.700   8.553
 5772POPC   C2B12752  24.497  24.759   8.253
 5772POPC   C3B12753  24.513  24.711   7.953
 5772POPC   C4B12754  24.499  24.752   7.653
 5773POPC   NC312755  34.603   2.741   9.453
 5773POPC   PO412756  34.612   2.763   9.153
 5773POPC   GL112757  34.625   2.762   8.853
 5773POPC   GL212758  34.597   2.919   8.853
 5773POPC   C1A12759  34.530   2.805   8.553
 5773POPC   D2A12760  34.536   2.747   8.253
 5773POPC   C3A12761  34.566   2.780   7.953
 5773POPC   C4A12762  34.617   2.815   7.653
 5773POPC   C1B12763  34.491   3.019   8.553
 5773POPC   C2B12764  34.557   2.991   8.253
 5773POPC   C3B12765  34.532   3.055   7.953
 5773POPC   C4B12766  34.555   3.026   7.653
 5774POPC   NC312767  36.099  11.264   9.453
 5774POPC   PO412768  36.116  11.273   9.153
 5774POPC   GL112769  36.158  11.266   8.853
 5774POPC   GL212770  36.024  11.261   8.853
 5774POPC   C1A12771  36.102  11.321   8.553
 5774POPC   D2A12772  36.119  11.337   8.253
 5774POPC   C3A12773  36.124  11.333   7.953
 5774POPC   C4A12774  36.147  11.340   7.653
 5774POPC   C1B12775  35.951  11.186   8.553
 5774POPC   C2B12776  35.945  11.179   8.253
 5774POPC   C3B12777  35.870  11.134   7.953
 5774POPC   C4B12778  35.880  11.150   7.653
 5775POPC   NC312779  33.037  40.056   9.453
 5775POPC   PO412780  33.042  40.031   9.153
 5775POPC   GL112781  33.051  40.027   8.853
 5775POPC   GL212782  32.963  40.057   8.853
 5775POPC   C1A12783  33.018  39.977   8.553
 5775POPC   D2A12784  33.056  39.969   8.253
 5775POPC   C3A12785  33.066  39.991   7.953
 5775POPC   C4A12786  33.064  40.012   7.653
 5775POPC   C1B12787  32.768  40.089   8.553
 5775POPC   C2B12788  32.823  40.128   8.253
 5775POPC   C3B12789  32.843  40.163   7.953
 5775POPC   C4B12790  32.767  40.077   7.653
 5776POPC   NC312791   0.397   3.499   9.453
 5776POPC   PO412792   0.463   3.588   9.153
 5776POPC   GL112793   0.451   3.516   8.853
 5776POPC   GL212794   0.478   3.467   8.853
 5776POPC   C1A12795   0.437   3.525   8.553
 5776POPC   D2A12796   0.394   3.586   8.253
 5776POPC   C3A12797   0.453   3.581   7.953
 5776POPC   C4A12798   0.398   3.529   7.653
 5776POPC   C1B12799   0.576   3.306   8.553
 5776POPC   C2B12800   0.590   3.312   8.253
 5776POPC   C3B12801   0.560   3.341   7.953
 5776POPC   C4B12802   0.602   3.321   7.653
 5777POPC   NC312803  40.016  43.143   9.453
 5777POPC   PO412804  39.983  43.067   9.153
 5777POPC   GL112805  40.015  43.131   8.853
 5777POPC   GL212806  40.128  43.061   8.853
 5777POPC   C1A12807  39.980  43.109   8.553
 5777POPC   D2A12808  40.017  43.105   8.253
 5777POPC   C3A12809  40.017  43.080   7.953
 5777POPC   C4A12810  40.035  43.080   7.653
 5777POPC   C1B12811  40.222  43.043   8.553
 5777POPC   C2B12812  40.187  43.034   8.253
 5777POPC   C3B12813  40.222  43.008   7.953
 5777POPC   C4B12814  40.241  42.969   7.653
 5778POPC   NC312815  29.932   4.334   9.453
 5778POPC   PO412816  29.871   4.335   9.153
 5778POPC   GL112817  29.875   4.324   8.853
 5778POPC   GL212818  29.758   4.270   8.853
 5778POPC   C1A12819  29.897   4.278   8.553
 5778POPC   D2A12820  29.872   4.341   8.253
 5778POPC   C3A12821  29.897   4.332   7.953
 5778POPC   C4A12822  29.887   4.268   7.653
 5778POPC   C1B12823  29.660   4.296   8.553
 5778POPC   C2B12824  29.681   4.277   8.253
 5778POPC   C3B12825  29.641   4.295   7.953
 5778POPC   C4B12826  29.672   4.277   7.653
 5779POPC   NC312827  36.906  44.656   9.453
 5779POPC   PO412828  36.951  44.699   9.153
 5779POPC   GL112829  36.926  44.616   8.853
 5779POPC   GL212830  36.956  44.818   8.853
 5779POPC   C1A12831  36.908  44.651   8.553
 5779POPC   D2A12832  36.889  44.672   8.253
 5779POPC   C3A12833  36.913  44.656   7.953
 5779POPC   C4A12834  36.869  44.627   7.653
 5779POPC   C1B12835  37.049  44.879   8.553
 5779POPC   C2B12836  36.994  44.849   8.253
 5779POPC   C3B12837  37.027  44.869   7.953
 5779POPC   C4B12838  37.021  44.832   7.653
 5780POPC   NC312839   1.966  23.665   9.453
 5780POPC   PO412840   2.008  23.721   9.153
 5780POPC   GL112841   1.946  23.717   8.853
 5780POPC   GL212842   1.917  23.839   8.853
 5780POPC   C1A12843   1.960  23.732   8.553
 5780POPC   D2A12844   1.996  23.702   8.253
 5780POPC   C3A12845   1.960  23.681   7.953
 5780POPC   C4A12846   1.979  23.714   7.653
 5780POPC   C1B12847   1.909  23.959   8.553
 5780POPC   C2B12848   1.959  23.969   8.253
 5780POPC   C3B12849   1.959  23.964   7.953
 5780POPC   C4B12850   1.905  23.994   7.653
 5781POPC   NC312851  43.840  31.430   9.453
 5781POPC   PO412852  43.852  31.454   9.153
 5781POPC   GL112853  43.902  31.513   8.853
 5781POPC   GL212854  43.855  31.588   8.853
 5781POPC   C1A12855  43.906  31.518   8.553
 5781POPC   D2A12856  43.931  31.516   8.253
 5781POPC   C3A12857  43.920  31.448   7.953
 5781POPC   C4A12858  43.887  31.453   7.653
 5781POPC   C1B12859  43.792  31.676   8.553
 5781POPC   C2B12860  43.813  31.677   8.253
 5781POPC   C3B12861  43.837  31.755   7.953
 5781POPC   C4B12862  43.778  31.675   7.653
 5782POPC   NC312863   1.966   5.878   9.453
 5782POPC   PO412864   1.992   5.868   9.153
 5782POPC   GL112865   2.022   5.880   8.853
 5782POPC   GL212866   1.976   5.798   8.853
 5782POPC   C1A12867   1.972   5.855   8.553
 5782POPC   D2A12868   2.038   5.865   8.253
 5782POPC   C3A12869   1.995   5.826   7.953
 5782POPC   C4A12870   2.039   5.876   7.653
 5782POPC   C1B12871   1.885   5.607   8.553
 5782POPC   C2B12872   1.839   5.671   8.253
 5782POPC   C3B12873   1.889   5.643   7.953
 5782POPC   C4B12874   1.890   5.687   7.653
 5783POPC   NC312875   1.197  12.082   9.453
 5783POPC   PO412876   1.252  12.097   9.153
 5783POPC   GL112877   1.255  12.032   8.853
 5783POPC   GL212878   1.310  12.049   8.853
 5783POPC   C1A12879   1.239  12.098   8.553
 5783POPC   D2A12880   1.173  12.050   8.253
 5783POPC   C3A12881   1.167  12.094   7.953
 5783POPC   C4A12882   1.241  12.122   7.653
 5783POPC   C1B12883   1.440  11.984   8.553
 5783POPC   C2B12884   1.462  11.978   8.253
 5783POPC   C3B12885   1.481  11.955   7.953
 5783POPC   C4B12886   1.474  12.022   7.653
 5784POPC   NC312887  29.895  26.044   9.453
 5784POPC   PO412888  29.901  26.007   9.153
 5784POPC   GL112889  29.964  26.034   8.853
 5784POPC   GL212890  30.065  26.037   8.853
 5784POPC   C1A12891  29.964  26.047   8.553
 5784POPC   D2A12892  29.944  26.039   8.253
 5784POPC   C3A12893  29.942  26.025   7.953
 5784POPC   C4A12894  29.910  26.019   7.653
 5784POPC   C1B12895  30.118  26.007   8.553
 5784POPC   C2B12896  30.157  25.992   8.253
 5784POPC   C3B12897  30.123  25.962   7.953
 5784POPC   C4B12898  30.151  25.965   7.653
 5785POPC   NC312899  21.384  29.960   9.453
 5785POPC   PO412900  21.413  29.938   9.153
 5785POPC   GL112901  21.422  29.922   8.853
 5785POPC   GL212902  21.514  29.978   8.853
 5785POPC   C1A12903  21.427  29.875   8.553
 5785POPC   D2A12904  21.340  29.912   8.253
 5785POPC   C3A12905  21.418  29.960   7.953
 5785POPC   C4A12906  21.342  29.944   7.653
 5785POPC   C1B12907  21.642  30.068   8.553
 5785POPC   C2B12908  21.615  30.013   8.253
 5785POPC   C3B12909  21.625  30.061   7.953
 5785POPC   C4B12910  21.590  30.079   7.653
 5786POPC   NC312911  38.433  30.719   9.453
 5786POPC   PO412912  38.436  30.660   9.153
 5786POPC   GL112913  38.406  30.649   8.853
 5786POPC   GL212914  38.449  30.557   8.853
 5786POPC   C1A12915  38.456  30.691   8.553
 5786POPC   D2A12916  38.476  30.727   8.253
 5786POPC   C3A12917  38.447  30.718   7.953
 5786POPC   C4A12918  38.490  30.648   7.653
 5786POPC   C1B12919  38.400  30.463   8.553
 5786POPC   C2B12920  38.462  30.440   8.253
 5786POPC   C3B12921  38.469  30.412   7.953
 5786POPC   C4B12922  38.439  30.430   7.653
 5787POPC   NC312923  30.727  35.306   9.453
 5787POPC   PO412924  30.719  35.305   9.153
 5787POPC   GL112925  30.704  35.393   8.853
 5787POPC   GL212926  30.663  35.271   8.853
 5787POPC   C1A12927  30.650  35.304   8.553
 5787POPC   D2A12928  30.705  35.369   8.253
 5787POPC   C3A12929  30.736  35.362   7.953
 5787POPC   C4A12930  30.676  35.362   7.653
 5787POPC   C1B12931  30.732  35.081   8.553
 5787POPC   C2B12932  30.755  35.087   8.253
 5787POPC   C3B12933  30.777  35.069   7.953
 5787POPC   C4B12934  30.704  35.151   7.653
 5788POPC   NC312935  44.705  22.917   9.453
 5788POPC   PO412936  44.627  22.930   9.153
 5788POPC   GL112937  44.638  22.912   8.853
 5788POPC   GL212938  44.529  22.953   8.853
 5788POPC   C1A12939  44.659  22.963   8.553
 5788POPC   D2A12940  44.695  22.950   8.253
 5788POPC   C3A12941  44.701  22.925   7.953
 5788POPC   C4A12942  44.687  22.893   7.653
 5788POPC   C1B12943  44.413  22.867   8.553
 5788POPC   C2B12944  44.382  22.878   8.253
 5788POPC   C3B12945  44.420  22.858   7.953
 5788POPC   C4B12946  44.434  22.927   7.653
 5789POPC   NC312947  23.753  22.141   9.453
 5789POPC   PO412948  23.748  22.151   9.153
 5789POPC   GL112949  23.718  22.139   8.853
 5789POPC   GL212950  23.616  22.190   8.853
 5789POPC   C1A12951  23.725  22.113   8.553
 5789POPC   D2A12952  23.708  22.204   8.253
 5789POPC   C3A12953  23.720  22.196   7.953
 5789POPC   C4A12954  23.730  22.202   7.653
 5789POPC   C1B12955  23.496  22.133   8.553
 5789POPC   C2B12956  23.447  22.170   8.253
 5789POPC   C3B12957  23.508  22.171   7.953
 5789POPC   C4B12958  23.448  22.096   7.653
 5790POPC   NC312959  41.544  25.235   9.453
 5790POPC   PO412960  41.552  25.273   9.153
 5790POPC   GL112961  41.576  25.267   8.853
 5790POPC   GL212962  41.667  25.158   8.853
 5790POPC   C1A12963  41.590  25.262   8.553
 5790POPC   D2A12964  41.599  25.247   8.253
 5790POPC   C3A12965  41.543  25.224   7.953
 5790POPC   C4A12966  41.544  25.286   7.653
 5790POPC   C1B12967  41.765  25.170   8.553
 5790POPC   C2B12968  41.780  25.105   8.253
 5790POPC   C3B12969  41.748  25.130   7.953
 5790POPC   C4B12970  41.797  25.097   7.653
 5791POPC   NC312971  26.821  27.640   9.453
 5791POPC   PO412972  26.859  27.586   9.153
 5791POPC   GL112973  26.841  27.600   8.853
 5791POPC   GL212974  26.734  27.442   8.853
 5791POPC   C1A12975  26.831  27.636   8.553
 5791POPC   D2A12976  26.802  27.628   8.253
 5791POPC   C3A12977  26.846  27.577   7.953
 5791POPC   C4A12978  26.787  27.582   7.653
 5791POPC   C1B12979  26.730  27.405   8.553
 5791POPC   C2B12980  26.699  27.316   8.253
 5791POPC   C3B12981  26.712  27.318   7.953
 5791POPC   C4B12982  26.724  27.330   7.653
 5792POPC   NC312983  19.793  19.830   9.453
 5792POPC   PO412984  19.829  19.859   9.153
 5792POPC   GL112985  19.879  19.804   8.853
 5792POPC   GL212986  19.832  19.963   8.853
 5792POPC   C1A12987  19.804  19.812   8.553
 5792POPC   D2A12988  19.843  19.838   8.253
 5792POPC   C3A12989  19.809  19.793   7.953
 5792POPC   C4A12990  19.843  19.881   7.653
 5792POPC   C1B12991  19.882  20.104   8.553
 5792POPC   C2B12992  19.975  20.026   8.253
 5792POPC   C3B12993  19.969  20.068   7.953
 5792POPC   C4B12994  19.937  20.064   7.653
 5793POPC   NC312995  26.846  38.420   9.453
 5793POPC   PO412996  26.844  38.467   9.153
 5793POPC   GL112997  26.791  38.416   8.853
 5793POPC   GL212998  26.692  38.403   8.853
 5793POPC   C1A12999  26.858  38.465   8.553
 5793POPC   D2A13000  26.770  38.427   8.253
 5793POPC   C3A13001  26.769  38.423   7.953
 5793POPC   C4A13002  26.860  38.427   7.653
 5793POPC   C1B13003  26.537  38.491   8.553
 5793POPC   C2B13004  26.573  38.455   8.253
 5793POPC   C3B13005  26.518  38.452   7.953
 5793POPC   C4B13006  26.547  38.407   7.653
 5794POPC   NC313007  25.996  29.169   9.453
 5794POPC   PO413008  25.998  29.160   9.153
 5794POPC   GL113009  26.048  29.121   8.853
 5794POPC   GL213010  25.974  29.274   8.853
 5794POPC   C1A13011  26.076  29.131   8.553
 5794POPC   D2A13012  26.065  29.170   8.253
 5794POPC   C3A13013  26.005  29.167   7.953
 5794POPC   C4A13014  26.065  29.117   7.653
 5794POPC   C1B13015  25.965  29.336   8.553
 5794POPC   C2B13016  25.918  29.428   8.253
 5794POPC   C3B13017  25.940  29.418   7.953
 5794POPC   C4B13018  25.968  29.414   7.653
 5795POPC   NC313019  33.046  35.379   9.453
 5795POPC   PO413020  33.061  35.377   9.153
 5795POPC   GL113021  33.020  35.400   8.853
 5795POPC   GL213022  33.102  35.274   8.853
 5795POPC   C1A13023  33.073  35.370   8.553
 5795POPC   D2A13024  33.020  35.383   8.253
 5795POPC   C3A13025  33.035  35.355   7.953
 5795POPC   C4A13026  32.994  35.397   7.653
 5795POPC   C1B13027  33.165  35.094   8.553
 5795POPC   C2B13028  33.188  35.094   8.253
 5795POPC   C3B13029  33.108  35.129   7.953
 5795POPC   C4B13030  33.112  35.184   7.653
 5796POPC   NC313031  19.830  32.244   9.453
 5796POPC   PO413032  19.863  32.266   9.153
 5796POPC   GL113033  19.797  32.215   8.853
 5796POPC   GL213034  19.797  32.358   8.853
 5796POPC   C1A13035  19.802  32.295   8.553
 5796POPC   D2A13036  19.792  32.201   8.253
 5796POPC   C3A13037  19.792  32.276   7.953
 5796POPC   C4A13038  19.882  32.219   7.653
 5796POPC   C1B13039  19.814  32.479   8.553
 5796POPC   C2B13040  19.793  32.526   8.253
 5796POPC   C3B13041  19.825  32.489   7.953
 5796POPC   C4B13042  19.806  32.543   7.653
 5797POPC   NC313043   8.183  38.470   9.453
 5797POPC   PO413044   8.177  38.431   9.153
 5797POPC   GL113045   8.241  38.479   8.853
 5797POPC   GL213046   8.266  38.535   8.853
 5797POPC   C1A13047   8.212  38.439   8.553
 5797POPC   D2A13048   8.240  38.492   8.253
 5797POPC   C3A13049   8.231  38.434   7.953
 5797POPC   C4A13050   8.205  38.500   7.653
 5797POPC   C1B13051   8.370  38.639   8.553
 5797POPC   C2B13052   8.393  38.629   8.253
 5797POPC   C3B13053   8.324  38.686   7.953
 5797POPC   C4B13054   8.318  38.667   7.653
 5798POPC   NC313055  22.128  40.043   9.453
 5798POPC   PO413056  22.191  39.997   9.153
 5798POPC   GL113057  22.152  40.021   8.853
 5798POPC   GL213058  22.066  40.126   8.853
 5798POPC   C1A13059  22.182  40.022   8.553
 5798POPC   D2A13060  22.173  40.020   8.253
 5798POPC   C3A13061  22.147  40.042   7.953
 5798POPC   C4A13062  22.172  40.011   7.653
 5798POPC   C1B13063  22.088  40.179   8.553
 5798POPC   C2B13064  22.010  40.225   8.253
 5798POPC   C3B13065  22.075  40.205   7.953
 5798POPC   C4B13066  22.059  40.229   7.653
 5799POPC   NC313067  26.069   5.857   9.453
 5799POPC   PO413068  26.065   5.840   9.153
 5799POPC   GL113069  25.994   5.883   8.853
 5799POPC   GL213070  26.177   5.824   8.853
 5799POPC   C1A13071  25.993   5.863   8.553
 5799POPC   D2A13072  26.036   5.819   8.253
 5799POPC   C3A13073  26.008   5.914   7.953
 5799POPC   C4A13074  26.086   5.909   7.653
 5799POPC   C1B13075  26.287   5.845   8.553
 5799POPC   C2B13076  26.318   5.793   8.253
 5799POPC   C3B13077  26.316   5.791   7.953
 5799POPC   C4B13078  26.275   5.802   7.653
 5800POPC   NC313079   8.973   4.325   9.453
 5800POPC   PO413080   8.989   4.365   9.153
 5800POPC   GL113081   8.989   4.362   8.853
 5800POPC   GL213082   8.896   4.402   8.853
 5800POPC   C1A13083   8.979   4.324   8.553
 5800POPC   D2A13084   8.977   4.327   8.253
 5800POPC   C3A13085   8.934   4.328   7.953
 5800POPC   C4A13086   8.993   4.308   7.653
 5800POPC   C1B13087   8.881   4.567   8.553
 5800POPC   C2B13088   8.924   4.513   8.253
 5800POPC   C3B13089   8.900   4.538   7.953
 5800POPC   C4B13090   8.936   4.609   7.653
 5801POPC   NC313091   6.602  43.070   9.453
 5801POPC   PO413092   6.609  43.151   9.153
 5801POPC   GL113093   6.627  43.141   8.853
 5801POPC   GL213094   6.704  43.004   8.853
 5801POPC   C1A13095   6.657  43.120   8.553
 5801POPC   D2A13096   6.631  43.097   8.253
 5801POPC   C3A13097   6.618  43.160   7.953
 5801POPC   C4A13098   6.689  43.154   7.653
 5801POPC   C1B13099   6.800  42.882   8.553
 5801POPC   C2B13100   6.777  42.967   8.253
 5801POPC   C3B13101   6.809  42.959   7.953
 5801POPC   C4B13102   6.848  42.968   7.653
 5802POPC   NC313103   4.317   9.001   9.453
 5802POPC   PO413104   4.279   8.942   9.153
 5802POPC   GL113105   4.348   8.935   8.853
 5802POPC   GL213106   4.303   9.083   8.853
 5802POPC   C1A13107   4.365   8.968   8.553
 5802POPC   D2A13108   4.273   8.942   8.253
 5802POPC   C3A13109   4.313   9.003   7.953
 5802POPC   C4A13110   4.276   8.982   7.653
 5802POPC   C1B13111   4.383   9.251   8.553
 5802POPC   C2B13112   4.397   9.248   8.253
 5802POPC   C3B13113   4.335   9.191   7.953
 5802POPC   C4B13114   4.348   9.167   7.653
 5803POPC   NC313115  40.824  40.758   9.453
 5803POPC   PO413116  40.805  40.782   9.153
 5803POPC   GL113117  40.775  40.759   8.853
 5803POPC   GL213118  40.880  40.677   8.853
 5803POPC   C1A13119  40.809  40.753   8.553
 5803POPC   D2A13120  40.786  40.752   8.253
 5803POPC   C3A13121  40.829  40.748   7.953
 5803POPC   C4A13122  40.761  40.756   7.653
 5803POPC   C1B13123  40.991  40.642   8.553
 5803POPC   C2B13124  40.961  40.576   8.253
 5803POPC   C3B13125  40.987  40.579   7.953
 5803POPC   C4B13126  40.951  40.609   7.653
 5804POPC   NC313127   2.015  30.699   9.453
 5804POPC   PO413128   1.953  30.656   9.153
 5804POPC   GL113129   1.941  30.713   8.853
 5804POPC   GL213130   2.034  30.599   8.853
 5804POPC   C1A13131   2.010  30.664   8.553
 5804POPC   D2A13132   2.007  30.709   8.253
 5804POPC   C3A13133   2.015  30.669   7.953
 5804POPC   C4A13134   1.971  30.656   7.653
 5804POPC   C1B13135   2.181  30.490   8.553
 5804POPC   C2B13136   2.117  30.467   8.253
 5804POPC   C3B13137   2.093  30.511   7.953
 5804POPC   C4B13138   2.166  30.505   7.653
 5805POPC   NC313139  19.810   2.745   9.453
 5805POPC   PO413140  19.801   2.765   9.153
 5805POPC   GL113141  19.823   2.716   8.853
 5805POPC   GL213142  19.763   2.704   8.853
 5805POPC   C1A13143  19.875   2.810   8.553
 5805POPC   D2A13144  19.799   2.793   8.253
 5805POPC   C3A13145  19.788   2.808   7.953
 5805POPC   C4A13146  19.834   2.808   7.653
 5805POPC   C1B13147  19.632   2.624   8.553
 5805POPC   C2B13148  19.661   2.565   8.253
 5805POPC   C3B13149  19.627   2.571   7.953
 5805POPC   C4B13150  19.633   2.569   7.653
 5806POPC   NC313151   2.013   2.753   9.453
 5806POPC   PO413152   1.980   2.789   9.153
 5806POPC   GL113153   1.948   2.792   8.853
 5806POPC   GL213154   1.889   2.902   8.853
 5806POPC   C1A13155   2.026   2.794   8.553
 5806POPC   D2A13156   1.991   2.717   8.253
 5806POPC   C3A13157   1.948   2.806   7.953
 5806POPC   C4A13158   2.015   2.719   7.653
 5806POPC   C1B13159   1.908   2.974   8.553
 5806POPC   C2B13160   1.839   2.996   8.253
 5806POPC   C3B13161   1.906   3.029   7.953
 5806POPC   C4B13162   1.881   2.968   7.653
 5807POPC   NC313163  12.808  29.912   9.453
 5807POPC   PO413164  12.833  29.956   9.153
 5807POPC   GL113165  12.867  29.926   8.853
 5807POPC   GL213166  12.891  29.839   8.853
 5807POPC   C1A13167  12.859  29.922   8.553
 5807POPC   D2A13168  12.890  29.887   8.253
 5807POPC   C3A13169  12.821  29.912   7.953
 5807POPC   C4A13170  12.846  29.963   7.653
 5807POPC   C1B13171  12.987  29.723   8.553
 5807POPC   C2B13172  12.979  29.656   8.253
 5807POPC   C3B13173  12.937  29.690   7.953
 5807POPC   C4B13174  12.983  29.668   7.653
 5808POPC   NC313175  29.902  34.561   9.453
 5808POPC   PO413176  29.891  34.601   9.153
 5808POPC   GL113177  29.872  34.561   8.853
 5808POPC   GL213178  30.072  34.580   8.853
 5808POPC   C1A13179  29.969  34.575   8.553
 5808POPC   D2A13180  29.919  34.604   8.253
 5808POPC   C3A13181  29.874  34.558   7.953
 5808POPC   C4A13182  29.951  34.550   7.653
 5808POPC   C1B13183  30.147  34.558   8.553
 5808POPC   C2B13184  30.127  34.494   8.253
 5808POPC   C3B13185  30.192  34.548   7.953
 5808POPC   C4B13186  30.197  34.513   7.653
 5809POPC   NC313187   2.011   5.110   9.453
 5809POPC   PO413188   1.949   5.054   9.153
 5809POPC   GL113189   1.981   5.142   8.853
 5809POPC   GL213190   1.899   5.114   8.853
 5809POPC   C1A13191   2.010   5.094   8.553
 5809POPC   D2A13192   2.008   5.044   8.253
 5809POPC   C3A13193   1.996   5.124   7.953
 5809POPC   C4A13194   2.017   5.086   7.653
 5809POPC   C1B13195   1.726   5.057   8.553
 5809POPC   C2B13196   1.751   5.089   8.253
 5809POPC   C3B13197   1.773   5.113   7.953
 5809POPC   C4B13198   1.716   5.105   7.653
 5810POPC   NC313199  11.317   2.749   9.453
 5810POPC   PO413200  11.306   2.717   9.153
 5810POPC   GL113201  11.324   2.808   8.853
 5810POPC   GL213202  11.332   2.627   8.853
 5810POPC   C1A13203  11.252   2.773   8.553
 5810POPC   D2A13204  11.252   2.793   8.253
 5810POPC   C3A13205  11.252   2.780   7.953
 5810POPC   C4A13206  11.306   2.742   7.653
 5810POPC   C1B13207  11.282   2.467   8.553
 5810POPC   C2B13208  11.241   2.513   8.253
 5810POPC   C3B13209  11.248   2.541   7.953
 5810POPC   C4B13210  11.233   2.478   7.653
 5811POPC   NC313211   1.961  15.941   9.453
 5811POPC   PO413212   1.961  15.956   9.153
 5811POPC   GL113213   1.983  15.956   8.853
 5811POPC   GL213214   1.938  15.828   8.853
 5811POPC   C1A13215   1.992  15.991   8.553
 5811POPC   D2A13216   1.966  15.975   8.253
 5811POPC   C3A13217   1.990  15.973   7.953
 5811POPC   C4A13218   1.999  16.000   7.653
 5811POPC   C1B13219   2.016  15.726   8.553
 5811POPC   C2B13220   1.939  15.739   8.253
 5811POPC   C3B13221   1.929  15.728   7.953
 5811POPC   C4B13222   1.966  15.679   7.653
 5812POPC   NC313223  36.096  40.779   9.453
 5812POPC   PO413224  36.133  40.831   9.153
 5812POPC   GL113225  36.145  40.824   8.853
 5812POPC   GL213226  36.041  40.706   8.853
 5812POPC   C1A13227  36.082  40.783   8.553
 5812POPC   D2A13228  36.172  40.733   8.253
 5812POPC   C3A13229  36.089  40.749   7.953
 5812POPC   C4A13230  36.108  40.828   7.653
 5812POPC   C1B13231  35.894  40.721   8.553
 5812POPC   C2B13232  35.883  40.726   8.253
 5812POPC   C3B13233  35.901  40.725   7.953
 5812POPC   C4B13234  35.868  40.663   7.653
 5813POPC   NC313235  19.057  21.410   9.453
 5813POPC   PO413236  19.019  21.395   9.153
 5813POPC   GL113237  19.019  21.397   8.853
 5813POPC   GL213238  19.037  21.522   8.853
 5813POPC   C1A13239  19.050  21.422   8.553
 5813POPC   D2A13240  19.029  21.418   8.253
 5813POPC   C3A13241  19.051  21.412   7.953
 5813POPC   C4A13242  19.063  21.351   7.653
 5813POPC   C1B13243  19.113  21.647   8.553
 5813POPC   C2B13244  19.130  21.630   8.253
 5813POPC   C3B13245  19.132  21.674   7.953
 5813POPC   C4B13246  19.083  21.648   7.653
 5814POPC   NC313247  35.378   5.844   9.453
 5814POPC   PO413248  35.314   5.835   9.153
 5814POPC   GL113249  35.347   5.870   8.853
 5814POPC   GL213250  35.439   5.831   8.853
 5814POPC   C1A13251  35.391   5.906   8.553
 5814POPC   D2A13252  35.382   5.841   8.253
 5814POPC   C3A13253  35.347   5.821   7.953
 5814POPC   C4A13254  35.346   5.825   7.653
 5814POPC   C1B13255  35.582   5.788   8.553
 5814POPC   C2B13256  35.619   5.716   8.253
 5814POPC   C3B13257  35.584   5.732   7.953
 5814POPC   C4B13258  35.588   5.792   7.653
 5815POPC   NC313259   8.194  13.627   9.453
 5815POPC   PO413260   8.169  13.671   9.153
 5815POPC   GL113261   8.231  13.589   8.853
 5815POPC   GL213262   8.065  13.672   8.853
 5815POPC   C1A13263   8.195  13.641   8.553
 5815POPC   D2A13264   8.221  13.623   8.253
 5815POPC   C3A13265   8.193  13.593   7.953
 5815POPC   C4A13266   8.157  13.624   7.653
 5815POPC   C1B13267   7.932  13.625   8.553
 5815POPC   C2B13268   7.991  13.618   8.253
 5815POPC   C3B13269   7.966  13.610   7.953
 5815POPC   C4B13270   7.953  13.632   7.653
 5816POPC   NC313271  16.737   5.913   9.453
 5816POPC   PO413272  16.757   5.821   9.153
 5816POPC   GL113273  16.719   5.899   8.853
 5816POPC   GL213274  16.587   5.756   8.853
 5816POPC   C1A13275  16.717   5.890   8.553
 5816POPC   D2A13276  16.730   5.880   8.253
 5816POPC   C3A13277  16.684   5.918   7.953
 5816POPC   C4A13278  16.683   5.900   7.653
 5816POPC   C1B13279  16.506   5.743   8.553
 5816POPC   C2B13280  16.499   5.747   8.253
 5816POPC   C3B13281  16.561   5.697   7.953
 5816POPC   C4B13282  16.528   5.741   7.653
 5817POPC   NC313283  29.924  36.118   9.453
 5817POPC   PO413284  29.872  36.147   9.153
 5817POPC   GL113285  29.897  36.130   8.853
 5817POPC   GL213286  29.951  36.023   8.853
 5817POPC   C1A13287  29.959  36.138   8.553
 5817POPC   D2A13288  29.957  36.082   8.253
 5817POPC   C3A13289  29.884  36.126   7.953
 5817POPC   C4A13290  29.887  36.092   7.653
 5817POPC   C1B13291  29.931  35.833   8.553
 5817POPC   C2B13292  29.930  35.837   8.253
 5817POPC   C3B13293  29.989  35.919   7.953
 5817POPC   C4B13294  29.968  35.857   7.653
 5818POPC   NC313295   1.256  39.182   9.453
 5818POPC   PO413296   1.249  39.275   9.153
 5818POPC   GL113297   1.240  39.217   8.853
 5818POPC   GL213298   1.080  39.226   8.853
 5818POPC   C1A13299   1.223  39.230   8.553
 5818POPC   D2A13300   1.225  39.189   8.253
 5818POPC   C3A13301   1.197  39.234   7.953
 5818POPC   C4A13302   1.201  39.242   7.653
 5818POPC   C1B13303   1.006  39.265   8.553
 5818POPC   C2B13304   0.940  39.321   8.253
 5818POPC   C3B13305   0.986  39.269   7.953
 5818POPC   C4B13306   0.946  39.324   7.653
 5819POPC   NC313307  11.346  22.894   9.453
 5819POPC   PO413308  11.328  22.980   9.153
 5819POPC   GL113309  11.278  22.982   8.853
 5819POPC   GL213310  11.323  22.841   8.853
 5819POPC   C1A13311  11.293  22.985   8.553
 5819POPC   D2A13312  11.338  22.933   8.253
 5819POPC   C3A13313  11.252  22.901   7.953
 5819POPC   C4A13314  11.337  22.892   7.653
 5819POPC   C1B13315  11.364  22.743   8.553
 5819POPC   C2B13316  11.411  22.673   8.253
 5819POPC   C3B13317  11.335  22.733   7.953
 5819POPC   C4B13318  11.356  22.706   7.653
 5820POPC   NC313319  25.231  42.364   9.453
 5820POPC   PO413320  25.309  42.313   9.153
 5820POPC   GL113321  25.272  42.334   8.853
 5820POPC   GL213322  25.174  42.439   8.853
 5820POPC   C1A13323  25.257  42.358   8.553
 5820POPC   D2A13324  25.230  42.289   8.253
 5820POPC   C3A13325  25.219  42.370   7.953
 5820POPC   C4A13326  25.248  42.351   7.653
 5820POPC   C1B13327  25.132  42.540   8.553
 5820POPC   C2B13328  25.087  42.529   8.253
 5820POPC   C3B13329  25.103  42.560   7.953
 5820POPC   C4B13330  25.125  42.582   7.653
 5821POPC   NC313331  17.530  20.566   9.453
 5821POPC   PO413332  17.528  20.613   9.153
 5821POPC   GL113333  17.550  20.631   8.853
 5821POPC   GL213334  17.568  20.784   8.853
 5821POPC   C1A13335  17.476  20.632   8.553
 5821POPC   D2A13336  17.458  20.647   8.253
 5821POPC   C3A13337  17.533  20.611   7.953
 5821POPC   C4A13338  17.459  20.598   7.653
 5821POPC   C1B13339  17.507  20.899   8.553
 5821POPC   C2B13340  17.587  20.823   8.253
 5821POPC   C3B13341  17.540  20.894   7.953
 5821POPC   C4B13342  17.546  20.855   7.653
 5822POPC   NC313343   9.708  23.763   9.453
 5822POPC   PO413344   9.781  23.753   9.153
 5822POPC   GL113345   9.721  23.699   8.853
 5822POPC   GL213346   9.713  23.602   8.853
 5822POPC   C1A13347   9.730  23.750   8.553
 5822POPC   D2A13348   9.700  23.742   8.253
 5822POPC   C3A13349   9.712  23.717   7.953
 5822POPC   C4A13350   9.723  23.669   7.653
 5822POPC   C1B13351   9.724  23.418   8.553
 5822POPC   C2B13352   9.747  23.450   8.253
 5822POPC   C3B13353   9.782  23.481   7.953
 5822POPC   C4B13354   9.757  23.454   7.653
 5823POPC   NC313355  41.525  31.474   9.453
 5823POPC   PO413356  41.571  31.429   9.153
 5823POPC   GL113357  41.560  31.450   8.853
 5823POPC   GL213358  41.616  31.562   8.853
 5823POPC   C1A13359  41.534  31.493   8.553
 5823POPC   D2A13360  41.548  31.424   8.253
 5823POPC   C3A13361  41.589  31.430   7.953
 5823POPC   C4A13362  41.580  31.487   7.653
 5823POPC   C1B13363  41.610  31.681   8.553
 5823POPC   C2B13364  41.673  31.715   8.253
 5823POPC   C3B13365  41.663  31.681   7.953
 5823POPC   C4B13366  41.664  31.700   7.653
 5824POPC   NC313367  29.930  44.684   9.453
 5824POPC   PO413368  29.934  44.648   9.153
 5824POPC   GL113369  29.952  44.658   8.853
 5824POPC   GL213370  29.971  44.520   8.853
 5824POPC   C1A13371  29.903  44.618   8.553
 5824POPC   D2A13372  29.917  44.613   8.253
 5824POPC   C3A13373  29.955  44.638   7.953
 5824POPC   C4A13374  29.894  44.616   7.653
 5824POPC   C1B13375  30.024  44.477   8.553
 5824POPC   C2B13376  30.015  44.474   8.253
 5824POPC   C3B13377  30.060  44.428   7.953
 5824POPC   C4B13378  30.013  44.459   7.653
 5825POPC   NC313379   5.834  36.105   9.453
 5825POPC   PO413380   5.845  36.080   9.153
 5825POPC   GL113381   5.915  36.170   8.853
 5825POPC   GL213382   5.742  36.180   8.853
 5825POPC   C1A13383   5.915  36.134   8.553
 5825POPC   D2A13384   5.825  36.143   8.253
 5825POPC   C3A13385   5.826  36.146   7.953
 5825POPC   C4A13386   5.839  36.096   7.653
 5825POPC   C1B13387   5.683  36.316   8.553
 5825POPC   C2B13388   5.646  36.268   8.253
 5825POPC   C3B13389   5.663  36.275   7.953
 5825POPC   C4B13390   5.699  36.229   7.653
 5826POPC   NC313391  17.507  32.238   9.453
 5826POPC   PO413392  17.488  32.217   9.153
 5826POPC   GL113393  17.522  32.289   8.853
 5826POPC   GL213394  17.587  32.344   8.853
 5826POPC   C1A13395  17.529  32.232   8.553
 5826POPC   D2A13396  17.493  32.224   8.253
 5826POPC   C3A13397  17.486  32.202   7.953
 5826POPC   C4A13398  17.475  32.273   7.653
 5826POPC   C1B13399  17.613  32.461   8.553
 5826POPC   C2B13400  17.642  32.507   8.253
 5826POPC   C3B13401  17.633  32.526   7.953
 5826POPC   C4B13402  17.639  32.525   7.653
 5827POPC   NC313403   8.995  22.178   9.453
 5827POPC   PO413404   9.002  22.124   9.153
 5827POPC   GL113405   8.936  22.124   8.853
 5827POPC   GL213406   9.086  22.114   8.853
 5827POPC   C1A13407   9.006  22.155   8.553
 5827POPC   D2A13408   8.926  22.177   8.253
 5827POPC   C3A13409   8.953  22.206   7.953
 5827POPC   C4A13410   8.957  22.138   7.653
 5827POPC   C1B13411   9.194  22.042   8.553
 5827POPC   C2B13412   9.176  21.973   8.253
 5827POPC   C3B13413   9.132  22.003   7.953
 5827POPC   C4B13414   9.148  22.019   7.653
 5828POPC   NC313415   9.019  15.206   9.453
 5828POPC   PO413416   8.950  15.161   9.153
 5828POPC   GL113417   8.938  15.150   8.853
 5828POPC   GL213418   9.086  15.071   8.853
 5828POPC   C1A13419   8.989  15.189   8.553
 5828POPC   D2A13420   8.957  15.150   8.253
 5828POPC   C3A13421   9.005  15.166   7.953
 5828POPC   C4A13422   8.988  15.197   7.653
 5828POPC   C1B13423   9.166  15.030   8.553
 5828POPC   C2B13424   9.189  15.043   8.253
 5828POPC   C3B13425   9.166  15.091   7.953
 5828POPC   C4B13426   9.178  15.037   7.653
 5829POPC   NC313427  29.930  23.728   9.453
 5829POPC   PO413428  29.909  23.697   9.153
 5829POPC   GL113429  29.877  23.732   8.853
 5829POPC   GL213430  29.853  23.771   8.853
 5829POPC   C1A13431  29.905  23.674   8.553
 5829POPC   D2A13432  29.884  23.729   8.253
 5829POPC   C3A13433  29.937  23.726   7.953
 5829POPC   C4A13434  29.932  23.753   7.653
 5829POPC   C1B13435  29.784  23.942   8.553
 5829POPC   C2B13436  29.838  23.882   8.253
 5829POPC   C3B13437  29.823  23.960   7.953
 5829POPC   C4B13438  29.821  23.885   7.653
 5830POPC   NC313439  12.030  30.655   9.453
 5830POPC   PO413440  12.125  30.722   9.153
 5830POPC   GL113441  12.044  30.690   8.853
 5830POPC   GL213442  12.022  30.749   8.853
 5830POPC   C1A13443  12.100  30.722   8.553
 5830POPC   D2A13444  12.112  30.676   8.253
 5830POPC   C3A13445  12.104  30.666   7.953
 5830POPC   C4A13446  12.093  30.744   7.653
 5830POPC   C1B13447  11.921  30.859   8.553
 5830POPC   C2B13448  11.846  30.806   8.253
 5830POPC   C3B13449  11.863  30.825   7.953
 5830POPC   C4B13450  11.906  30.811   7.653
 5831POPC   NC313451   3.521  17.506   9.453
 5831POPC   PO413452   3.538  17.503   9.153
 5831POPC   GL113453   3.534  17.534   8.853
 5831POPC   GL213454   3.664  17.577   8.853
 5831POPC   C1A13455   3.555  17.550   8.553
 5831POPC   D2A13456   3.520  17.488   8.253
 5831POPC   C3A13457   3.567  17.494   7.953
 5831POPC   C4A13458   3.577  17.528   7.653
 5831POPC   C1B13459   3.690  17.668   8.553
 5831POPC   C2B13460   3.738  17.713   8.253
 5831POPC   C3B13461   3.739  17.669   7.953
 5831POPC   C4B13462   3.741  17.703   7.653
 5832POPC   NC313463   8.184  28.351   9.453
 5832POPC   PO413464   8.148  28.349   9.153
 5832POPC   GL113465   8.194  28.379   8.853
 5832POPC   GL213466   8.307  28.436   8.853
 5832POPC   C1A13467   8.196  28.342   8.553
 5832POPC   D2A13468   8.164  28.373   8.253
 5832POPC   C3A13469   8.160  28.331   7.953
 5832POPC   C4A13470   8.156  28.406   7.653
 5832POPC   C1B13471   8.466  28.482   8.553
 5832POPC   C2B13472   8.392  28.411   8.253
 5832POPC   C3B13473   8.406  28.464   7.953
 5832POPC   C4B13474   8.395  28.406   7.653
 5833POPC   NC313475  32.248  35.352   9.453
 5833POPC   PO413476  32.295  35.371   9.153
 5833POPC   GL113477  32.274  35.315   8.853
 5833POPC   GL213478  32.354  35.310   8.853
 5833POPC   C1A13479  32.246  35.314   8.553
 5833POPC   D2A13480  32.206  35.321   8.253
 5833POPC   C3A13481  32.235  35.325   7.953
 5833POPC   C4A13482  32.237  35.305   7.653
 5833POPC   C1B13483  32.509  35.408   8.553
 5833POPC   C2B13484  32.532  35.348   8.253
 5833POPC   C3B13485  32.462  35.393   7.953
 5833POPC   C4B13486  32.485  35.367   7.653
 5834POPC   NC313487  35.361  19.017   9.453
 5834POPC   PO413488  35.358  19.032   9.153
 5834POPC   GL113489  35.329  19.019   8.853
 5834POPC   GL213490  35.321  19.171   8.853
 5834POPC   C1A13491  35.344  19.086   8.553
 5834POPC   D2A13492  35.342  19.035   8.253
 5834POPC   C3A13493  35.346  19.047   7.953
 5834POPC   C4A13494  35.341  19.085   7.653
 5834POPC   C1B13495  35.328  19.320   8.553
 5834POPC   C2B13496  35.263  19.308   8.253
 5834POPC   C3B13497  35.257  19.313   7.953
 5834POPC   C4B13498  35.294  19.311   7.653
 5835POPC   NC313499  18.325   5.143   9.453
 5835POPC   PO413500  18.330   5.086   9.153
 5835POPC   GL113501  18.317   5.048   8.853
 5835POPC   GL213502  18.371   5.036   8.853
 5835POPC   C1A13503  18.243   5.091   8.553
 5835POPC   D2A13504  18.317   5.122   8.253
 5835POPC   C3A13505  18.265   5.088   7.953
 5835POPC   C4A13506  18.274   5.128   7.653
 5835POPC   C1B13507  18.505   5.030   8.553
 5835POPC   C2B13508  18.472   4.997   8.253
 5835POPC   C3B13509  18.490   5.001   7.953
 5835POPC   C4B13510  18.553   5.032   7.653
 5836POPC   NC313511  20.578  22.175   9.453
 5836POPC   PO413512  20.592  22.160   9.153
 5836POPC   GL113513  20.563  22.113   8.853
 5836POPC   GL213514  20.688  22.271   8.853
 5836POPC   C1A13515  20.577  22.208   8.553
 5836POPC   D2A13516  20.634  22.132   8.253
 5836POPC   C3A13517  20.620  22.144   7.953
 5836POPC   C4A13518  20.622  22.187   7.653
 5836POPC   C1B13519  20.847  22.335   8.553
 5836POPC   C2B13520  20.778  22.341   8.253
 5836POPC   C3B13521  20.850  22.320   7.953
 5836POPC   C4B13522  20.778  22.280   7.653
 5837POPC   NC313523   1.958  22.188   9.453
 5837POPC   PO413524   1.981  22.210   9.153
 5837POPC   GL113525   2.008  22.168   8.853
 5837POPC   GL213526   1.958  22.051   8.853
 5837POPC   C1A13527   1.982  22.128   8.553
 5837POPC   D2A13528   2.013  22.173   8.253
 5837POPC   C3A13529   1.951  22.199   7.953
 5837POPC   C4A13530   1.955  22.176   7.653
 5837POPC   C1B13531   1.926  21.931   8.553
 5837POPC   C2B13532   1.886  21.926   8.253
 5837POPC   C3B13533   1.846  21.950   7.953
 5837POPC   C4B13534   1.914  21.956   7.653
 5838POPC   NC313535  10.548  12.039   9.453
 5838POPC   PO413536  10.511  12.091   9.153
 5838POPC   GL113537  10.519  12.061   8.853
 5838POPC   GL213538  10.492  11.988   8.853
 5838POPC   C1A13539  10.494  12.036   8.553
 5838POPC   D2A13540  10.539  12.029   8.253
 5838POPC   C3A13541  10.520  12.097   7.953
 5838POPC   C4A13542  10.505  12.107   7.653
 5838POPC   C1B13543  10.442  11.806   8.553
 5838POPC   C2B13544  10.454  11.821   8.253
 5838POPC   C3B13545  10.439  11.829   7.953
 5838POPC   C4B13546  10.409  11.864   7.653
 5839POPC   NC313547  12.820   2.772   9.453
 5839POPC   PO413548  12.805   2.814   9.153
 5839POPC   GL113549  12.885   2.754   8.853
 5839POPC   GL213550  12.952   2.725   8.853
 5839POPC   C1A13551  12.826   2.773   8.553
 5839POPC   D2A13552  12.874   2.737   8.253
 5839POPC   C3A13553  12.857   2.771   7.953
 5839POPC   C4A13554  12.899   2.720   7.653
 5839POPC   C1B13555  13.071   2.570   8.553
 5839POPC   C2B13556  13.007   2.614   8.253
 5839POPC   C3B13557  13.072   2.613   7.953
 5839POPC   C4B13558  13.094   2.652   7.653
 5840POPC   NC313559  12.125  36.177   9.453
 5840POPC   PO413560  12.045  36.085   9.153
 5840POPC   GL113561  12.119  36.159   8.853
 5840POPC   GL213562  11.977  36.116   8.853
 5840POPC   C1A13563  12.056  36.107   8.553
 5840POPC   D2A13564  12.105  36.104   8.253
 5840POPC   C3A13565  12.123  36.177   7.953
 5840POPC   C4A13566  12.123  36.119   7.653
 5840POPC   C1B13567  11.838  36.041   8.553
 5840POPC   C2B13568  11.880  36.025   8.253
 5840POPC   C3B13569  11.801  36.084   7.953
 5840POPC   C4B13570  11.868  36.087   7.653
 5841POPC   NC313571  18.248  16.744   9.453
 5841POPC   PO413572  18.314  16.755   9.153
 5841POPC   GL113573  18.264  16.780   8.853
 5841POPC   GL213574  18.171  16.684   8.853
 5841POPC   C1A13575  18.314  16.722   8.553
 5841POPC   D2A13576  18.312  16.757   8.253
 5841POPC   C3A13577  18.265  16.748   7.953
 5841POPC   C4A13578  18.265  16.756   7.653
 5841POPC   C1B13579  18.138  16.591   8.553
 5841POPC   C2B13580  18.154  16.507   8.253
 5841POPC   C3B13581  18.114  16.527   7.953
 5841POPC   C4B13582  18.112  16.526   7.653
 5842POPC   NC313583   5.061   5.100   9.453
 5842POPC   PO413584   5.083   5.078   9.153
 5842POPC   GL113585   5.046   5.102   8.853
 5842POPC   GL213586   5.169   5.008   8.853
 5842POPC   C1A13587   5.130   5.086   8.553
 5842POPC   D2A13588   5.072   5.105   8.253
 5842POPC   C3A13589   5.078   5.048   7.953
 5842POPC   C4A13590   5.077   5.117   7.653
 5842POPC   C1B13591   5.169   4.876   8.553
 5842POPC   C2B13592   5.204   4.829   8.253
 5842POPC   C3B13593   5.232   4.849   7.953
 5842POPC   C4B13594   5.159   4.902   7.653
 5843POPC   NC313595  36.168  15.226   9.453
 5843POPC   PO413596  36.099  15.214   9.153
 5843POPC   GL113597  36.151  15.158   8.853
 5843POPC   GL213598  36.054  15.026   8.853
 5843POPC   C1A13599  36.123  15.173   8.553
 5843POPC   D2A13600  36.100  15.216   8.253
 5843POPC   C3A13601  36.130  15.150   7.953
 5843POPC   C4A13602  36.088  15.152   7.653
 5843POPC   C1B13603  35.951  15.009   8.553
 5843POPC   C2B13604  36.041  14.918   8.253
 5843POPC   C3B13605  35.984  14.969   7.953
 5843POPC   C4B13606  36.034  14.960   7.653
 5844POPC   NC313607  36.155   2.772   9.453
 5844POPC   PO413608  36.140   2.734   9.153
 5844POPC   GL113609  36.080   2.751   8.853
 5844POPC   GL213610  36.223   2.777   8.853
 5844POPC   C1A13611  36.094   2.776   8.553
 5844POPC   D2A13612  36.138   2.743   8.253
 5844POPC   C3A13613  36.174   2.726   7.953
 5844POPC   C4A13614  36.142   2.758   7.653
 5844POPC   C1B13615  36.408   2.846   8.553
 5844POPC   C2B13616  36.395   2.789   8.253
 5844POPC   C3B13617  36.341   2.804   7.953
 5844POPC   C4B13618  36.389   2.829   7.653
 5845POPC   NC313619   4.296  19.041   9.453
 5845POPC   PO413620   4.330  19.046   9.153
 5845POPC   GL113621   4.288  19.043   8.853
 5845POPC   GL213622   4.397  18.958   8.853
 5845POPC   C1A13623   4.349  19.088   8.553
 5845POPC   D2A13624   4.362  19.091   8.253
 5845POPC   C3A13625   4.350  19.057   7.953
 5845POPC   C4A13626   4.282  19.048   7.653
 5845POPC   C1B13627   4.414  18.849   8.553
 5845POPC   C2B13628   4.439  18.871   8.253
 5845POPC   C3B13629   4.382  18.789   7.953
 5845POPC   C4B13630   4.389  18.817   7.653
 5846POPC   NC313631  32.993   5.099   9.453
 5846POPC   PO413632  33.073   5.049   9.153
 5846POPC   GL113633  33.073   5.137   8.853
 5846POPC   GL213634  33.023   4.976   8.853
 5846POPC   C1A13635  33.026   5.115   8.553
 5846POPC   D2A13636  33.027   5.106   8.253
 5846POPC   C3A13637  33.021   5.089   7.953
 5846POPC   C4A13638  33.067   5.116   7.653
 5846POPC   C1B13639  32.985   4.847   8.553
 5846POPC   C2B13640  32.898   4.877   8.253
 5846POPC   C3B13641  32.915   4.904   7.953
 5846POPC   C4B13642  32.916   4.877   7.653
 5847POPC   NC313643  39.245  42.332   9.453
 5847POPC   PO413644  39.211  42.313   9.153
 5847POPC   GL113645  39.258  42.298   8.853
 5847POPC   GL213646  39.154  42.313   8.853
 5847POPC   C1A13647  39.266  42.325   8.553
 5847POPC   D2A13648  39.199  42.350   8.253
 5847POPC   C3A13649  39.280  42.374   7.953
 5847POPC   C4A13650  39.237  42.366   7.653
 5847POPC   C1B13651  39.017  42.197   8.553
 5847POPC   C2B13652  39.019  42.220   8.253
 5847POPC   C3B13653  38.982  42.174   7.953
 5847POPC   C4B13654  38.985  42.184   7.653
 5848POPC   NC313655  19.869   3.567   9.453
 5848POPC   PO413656  19.883   3.545   9.153
 5848POPC   GL113657  19.847   3.554   8.853
 5848POPC   GL213658  19.675   3.538   8.853
 5848POPC   C1A13659  19.876   3.525   8.553
 5848POPC   D2A13660  19.810   3.564   8.253
 5848POPC   C3A13661  19.788   3.575   7.953
 5848POPC   C4A13662  19.860   3.523   7.653
 5848POPC   C1B13663  19.640   3.409   8.553
 5848POPC   C2B13664  19.592   3.401   8.253
 5848POPC   C3B13665  19.582   3.489   7.953
 5848POPC   C4B13666  19.559   3.442   7.653
 5849POPC   NC313667  26.071  17.540   9.453
 5849POPC   PO413668  26.035  17.549   9.153
 5849POPC   GL113669  26.080  17.493   8.853
 5849POPC   GL213670  26.124  17.505   8.853
 5849POPC   C1A13671  26.062  17.458   8.553
 5849POPC   D2A13672  26.059  17.510   8.253
 5849POPC   C3A13673  25.996  17.487   7.953
 5849POPC   C4A13674  26.002  17.529   7.653
 5849POPC   C1B13675  26.341  17.548   8.553
 5849POPC   C2B13676  26.280  17.545   8.253
 5849POPC   C3B13677  26.323  17.515   7.953
 5849POPC   C4B13678  26.272  17.529   7.653
 5850POPC   NC313679  35.349  44.666   9.453
 5850POPC   PO413680  35.345  44.688   9.153
 5850POPC   GL113681  35.361  44.612   8.853
 5850POPC   GL213682  35.457  44.732   8.853
 5850POPC   C1A13683  35.311  44.648   8.553
 5850POPC   D2A13684  35.392  44.676   8.253
 5850POPC   C3A13685  35.338  44.626   7.953
 5850POPC   C4A13686  35.398  44.696   7.653
 5850POPC   C1B13687  35.523  44.851   8.553
 5850POPC   C2B13688  35.535  44.870   8.253
 5850POPC   C3B13689  35.563  44.830   7.953
 5850POPC   C4B13690  35.564  44.817   7.653
 5851POPC   NC313691  26.849  44.667   9.453
 5851POPC   PO413692  26.799  44.710   9.153
 5851POPC   GL113693  26.833  44.662   8.853
 5851POPC   GL213694  26.856  44.745   8.853
 5851POPC   C1A13695  26.799  44.700   8.553
 5851POPC   D2A13696  26.806  44.624   8.253
 5851POPC   C3A13697  26.854  44.709   7.953
 5851POPC   C4A13698  26.844  44.679   7.653
 5851POPC   C1B13699  26.847  44.906   8.553
 5851POPC   C2B13700  26.819  44.938   8.253
 5851POPC   C3B13701  26.849  44.882   7.953
 5851POPC   C4B13702  26.780  44.920   7.653
 5852POPC   NC313703  21.364  33.821   9.453
 5852POPC   PO413704  21.406  33.770   9.153
 5852POPC   GL113705  21.403  33.761   8.853
 5852POPC   GL213706  21.239  33.763   8.853
 5852POPC   C1A13707  21.407  33.845   8.553
 5852POPC   D2A13708  21.422  33.803   8.253
 5852POPC   C3A13709  21.345  33.790   7.953
 5852POPC   C4A13710  21.417  33.772   7.653
 5852POPC   C1B13711  21.156  33.830   8.553
 5852POPC   C2B13712  21.171  33.806   8.253
 5852POPC   C3B13713  21.173  33.759   7.953
 5852POPC   C4B13714  21.103  33.841   7.653
 5853POPC   NC313715  19.826  38.445   9.453
 5853POPC   PO413716  19.825  38.435   9.153
 5853POPC   GL113717  19.874  38.442   8.853
 5853POPC   GL213718  19.750  38.319   8.853
 5853POPC   C1A13719  19.790  38.410   8.553
 5853POPC   D2A13720  19.788  38.421   8.253
 5853POPC   C3A13721  19.863  38.432   7.953
 5853POPC   C4A13722  19.786  38.458   7.653
 5853POPC   C1B13723  19.761  38.255   8.553
 5853POPC   C2B13724  19.693  38.211   8.253
 5853POPC   C3B13725  19.765  38.218   7.953
 5853POPC   C4B13726  19.692  38.194   7.653
 5854POPC   NC313727  26.845  17.479   9.453
 5854POPC   PO413728  26.797  17.475   9.153
 5854POPC   GL113729  26.798  17.554   8.853
 5854POPC   GL213730  26.772  17.644   8.853
 5854POPC   C1A13731  26.785  17.529   8.553
 5854POPC   D2A13732  26.802  17.508   8.253
 5854POPC   C3A13733  26.850  17.506   7.953
 5854POPC   C4A13734  26.795  17.477   7.653
 5854POPC   C1B13735  26.752  17.775   8.553
 5854POPC   C2B13736  26.778  17.799   8.253
 5854POPC   C3B13737  26.760  17.800   7.953
 5854POPC   C4B13738  26.778  17.801   7.653
 5855POPC   NC313739  15.220  37.642   9.453
 5855POPC   PO413740  15.167  37.648   9.153
 5855POPC   GL113741  15.192  37.654   8.853
 5855POPC   GL213742  15.301  37.599   8.853
 5855POPC   C1A13743  15.181  37.677   8.553
 5855POPC   D2A13744  15.215  37.722   8.253
 5855POPC   C3A13745  15.179  37.634   7.953
 5855POPC   C4A13746  15.213  37.679   7.653
 5855POPC   C1B13747  15.395  37.520   8.553
 5855POPC   C2B13748  15.417  37.519   8.253
 5855POPC   C3B13749  15.357  37.578   7.953
 5855POPC   C4B13750  15.428  37.512   7.653
 5856POPC   NC313751   8.182  12.058   9.453
 5856POPC   PO413752   8.179  12.081   9.153
 5856POPC   GL113753   8.230  12.089   8.853
 5856POPC   GL213754   8.180  12.204   8.853
 5856POPC   C1A13755   8.190  12.101   8.553
 5856POPC   D2A13756   8.208  12.090   8.253
 5856POPC   C3A13757   8.206  12.038   7.953
 5856POPC   C4A13758   8.200  12.055   7.653
 5856POPC   C1B13759   8.181  12.307   8.553
 5856POPC   C2B13760   8.229  12.319   8.253
 5856POPC   C3B13761   8.171  12.294   7.953
 5856POPC   C4B13762   8.209  12.329   7.653
 5857POPC   NC313763  22.118  33.831   9.453
 5857POPC   PO413764  22.158  33.842   9.153
 5857POPC   GL113765  22.207  33.796   8.853
 5857POPC   GL213766  22.327  33.709   8.853
 5857POPC   C1A13767  22.175  33.810   8.553
 5857POPC   D2A13768  22.113  33.758   8.253
 5857POPC   C3A13769  22.169  33.848   7.953
 5857POPC   C4A13770  22.158  33.808   7.653
 5857POPC   C1B13771  22.415  33.725   8.553
 5857POPC   C2B13772  22.447  33.763   8.253
 5857POPC   C3B13773  22.373  33.754   7.953
 5857POPC   C4B13774  22.368  33.692   7.653
 5858POPC   NC313775  44.678   0.420   9.453
 5858POPC   PO413776  44.622   0.442   9.153
 5858POPC   GL113777  44.701   0.467   8.853
 5858POPC   GL213778  44.748   0.481   8.853
 5858POPC   C1A13779  44.645   0.458   8.553
 5858POPC   D2A13780  44.641   0.423   8.253
 5858POPC   C3A13781  44.629   0.474   7.953
 5858POPC   C4A13782  44.692   0.395   7.653
 5858POPC   C1B13783  44.940   0.548   8.553
 5858POPC   C2B13784  44.931   0.526   8.253
 5858POPC   C3B13785  44.860   0.484   7.953
 5858POPC   C4B13786  44.855   0.531   7.653
 5859POPC   NC313787   1.971   9.769   9.453
 5859POPC   PO413788   2.031   9.712   9.153
 5859POPC   GL113789   1.979   9.741   8.853
 5859POPC   GL213790   2.038   9.617   8.853
 5859POPC   C1A13791   2.038   9.780   8.553
 5859POPC   D2A13792   2.017   9.724   8.253
 5859POPC   C3A13793   1.984   9.722   7.953
 5859POPC   C4A13794   2.037   9.707   7.653
 5859POPC   C1B13795   1.989   9.534   8.553
 5859POPC   C2B13796   2.046   9.540   8.253
 5859POPC   C3B13797   1.985   9.549   7.953
 5859POPC   C4B13798   2.018   9.459   7.653
 5860POPC   NC313799  33.785  27.597   9.453
 5860POPC   PO413800  33.820  27.568   9.153
 5860POPC   GL113801  33.806  27.592   8.853
 5860POPC   GL213802  33.664  27.675   8.853
 5860POPC   C1A13803  33.837  27.592   8.553
 5860POPC   D2A13804  33.809  27.617   8.253
 5860POPC   C3A13805  33.818  27.625   7.953
 5860POPC   C4A13806  33.826  27.630   7.653
 5860POPC   C1B13807  33.648  27.811   8.553
 5860POPC   C2B13808  33.672  27.807   8.253
 5860POPC   C3B13809  33.574  27.776   7.953
 5860POPC   C4B13810  33.582  27.807   7.653
 5861POPC   NC313811  15.210  39.967   9.453
 5861POPC   PO413812  15.145  40.041   9.153
 5861POPC   GL113813  15.179  39.974   8.853
 5861POPC   GL213814  15.101  39.869   8.853
 5861POPC   C1A13815  15.168  39.972   8.553
 5861POPC   D2A13816  15.203  39.992   8.253
 5861POPC   C3A13817  15.222  39.996   7.953
 5861POPC   C4A13818  15.185  39.961   7.653
 5861POPC   C1B13819  15.015  39.818   8.553
 5861POPC   C2B13820  15.015  39.831   8.253
 5861POPC   C3B13821  15.040  39.782   7.953
 5861POPC   C4B13822  15.098  39.806   7.653
 5862POPC   NC313823  38.448  36.950   9.453
 5862POPC   PO413824  38.490  36.875   9.153
 5862POPC   GL113825  38.498  36.905   8.853
 5862POPC   GL213826  38.500  36.809   8.853
 5862POPC   C1A13827  38.462  36.878   8.553
 5862POPC   D2A13828  38.452  36.856   8.253
 5862POPC   C3A13829  38.441  36.891   7.953
 5862POPC   C4A13830  38.505  36.906   7.653
 5862POPC   C1B13831  38.652  36.752   8.553
 5862POPC   C2B13832  38.630  36.680   8.253
 5862POPC   C3B13833  38.617  36.700   7.953
 5862POPC   C4B13834  38.614  36.689   7.653
 5863POPC   NC313835  26.027  25.307   9.453
 5863POPC   PO413836  26.069  25.248   9.153
 5863POPC   GL113837  26.073  25.222   8.853
 5863POPC   GL213838  25.974  25.105   8.853
 5863POPC   C1A13839  26.041  25.281   8.553
 5863POPC   D2A13840  26.057  25.281   8.253
 5863POPC   C3A13841  26.003  25.292   7.953
 5863POPC   C4A13842  26.053  25.285   7.653
 5863POPC   C1B13843  25.984  25.051   8.553
 5863POPC   C2B13844  25.970  24.983   8.253
 5863POPC   C3B13845  25.971  25.029   7.953
 5863POPC   C4B13846  26.004  24.985   7.653
 5864POPC   NC313847  35.336  38.497   9.453
 5864POPC   PO413848  35.367  38.412   9.153
 5864POPC   GL113849  35.357  38.440   8.853
 5864POPC   GL213850  35.232  38.455   8.853
 5864POPC   C1A13851  35.315  38.440   8.553
 5864POPC   D2A13852  35.385  38.414   8.253
 5864POPC   C3A13853  35.332  38.433   7.953
 5864POPC   C4A13854  35.344  38.434   7.653
 5864POPC   C1B13855  35.108  38.485   8.553
 5864POPC   C2B13856  35.124  38.470   8.253
 5864POPC   C3B13857  35.095  38.480   7.953
 5864POPC   C4B13858  35.117  38.427   7.653
 5865POPC   NC313859  27.545  18.242   9.453
 5865POPC   PO413860  27.597  18.243   9.153
 5865POPC   GL113861  27.629  18.266   8.853
 5865POPC   GL213862  27.673  18.164   8.853
 5865POPC   C1A13863  27.606  18.269   8.553
 5865POPC   D2A13864  27.599  18.261   8.253
 5865POPC   C3A13865  27.546  18.267   7.953
 5865POPC   C4A13866  27.629  18.312   7.653
 5865POPC   C1B13867  27.703  18.007   8.553
 5865POPC   C2B13868  27.651  18.026   8.253
 5865POPC   C3B13869  27.668  18.080   7.953
 5865POPC   C4B13870  27.723  18.010   7.653
 5866POPC   NC313871  29.102   5.143   9.453
 5866POPC   PO413872  29.191   5.096   9.153
 5866POPC   GL113873  29.148   5.058   8.853
 5866POPC   GL213874  29.072   4.975   8.853
 5866POPC   C1A13875  29.145   5.063   8.553
 5866POPC   D2A13876  29.156   5.098   8.253
 5866POPC   C3A13877  29.156   5.048   7.953
 5866POPC   C4A13878  29.167   5.045   7.653
 5866POPC   C1B13879  28.924   4.966   8.553
 5866POPC   C2B13880  28.955   4.975   8.253
 5866POPC   C3B13881  28.935   4.982   7.953
 5866POPC   C4B13882  28.904   4.914   7.653
 5867POPC   NC313883  17.520  16.738   9.453
 5867POPC   PO413884  17.535  16.773   9.153
 5867POPC   GL113885  17.491  16.749   8.853
 5867POPC   GL213886  17.529  16.582   8.853
 5867POPC   C1A13887  17.551  16.772   8.553
 5867POPC   D2A13888  17.492  16.698   8.253
 5867POPC   C3A13889  17.504  16.760   7.953
 5867POPC   C4A13890  17.553  16.688   7.653
 5867POPC   C1B13891  17.612  16.487   8.553
 5867POPC   C2B13892  17.589  16.463   8.253
 5867POPC   C3B13893  17.545  16.509   7.953
 5867POPC   C4B13894  17.630  16.452   7.653
 5868POPC   NC313895   5.850  39.268   9.453
 5868POPC   PO413896   5.860  39.215   9.153
 5868POPC   GL113897   5.911  39.233   8.853
 5868POPC   GL213898   5.978  39.220   8.853
 5868POPC   C1A13899   5.849  39.227   8.553
 5868POPC   D2A13900   5.827  39.193   8.253
 5868POPC   C3A13901   5.868  39.193   7.953
 5868POPC   C4A13902   5.882  39.272   7.653
 5868POPC   C1B13903   6.111  39.259   8.553
 5868POPC   C2B13904   6.088  39.283   8.253
 5868POPC   C3B13905   6.104  39.273   7.953
 5868POPC   C4B13906   6.142  39.196   7.653
 5869POPC   NC313907   9.730  12.829   9.453
 5869POPC   PO413908   9.787  12.816   9.153
 5869POPC   GL113909   9.773  12.890   8.853
 5869POPC   GL213910   9.710  12.908   8.853
 5869POPC   C1A13911   9.737  12.834   8.553
 5869POPC   D2A13912   9.766  12.804   8.253
 5869POPC   C3A13913   9.747  12.899   7.953
 5869POPC   C4A13914   9.760  12.874   7.653
 5869POPC   C1B13915   9.641  13.075   8.553
 5869POPC   C2B13916   9.601  13.086   8.253
 5869POPC   C3B13917   9.573  13.097   7.953
 5869POPC   C4B13918   9.594  13.052   7.653
 5870POPC   NC313919  43.087   0.441   9.453
 5870POPC   PO413920  43.125   0.468   9.153
 5870POPC   GL113921  43.145   0.480   8.853
 5870POPC   GL213922  43.132   0.358   8.853
 5870POPC   C1A13923  43.121   0.400   8.553
 5870POPC   D2A13924  43.131   0.433   8.253
 5870POPC   C3A13925  43.114   0.395   7.953
 5870POPC   C4A13926  43.072   0.393   7.653
 5870POPC   C1B13927  43.234   0.152   8.553
 5870POPC   C2B13928  43.161   0.178   8.253
 5870POPC   C3B13929  43.211   0.159   7.953
 5870POPC   C4B13930  43.229   0.223   7.653
 5871POPC   NC313931  27.591   8.175   9.453
 5871POPC   PO413932  27.569   8.207   9.153
 5871POPC   GL113933  27.601   8.155   8.853
 5871POPC   GL213934  27.614   8.268   8.853
 5871POPC   C1A13935  27.625   8.192   8.553
 5871POPC   D2A13936  27.632   8.187   8.253
 5871POPC   C3A13937  27.589   8.202   7.953
 5871POPC   C4A13938  27.625   8.156   7.653
 5871POPC   C1B13939  27.612   8.447   8.553
 5871POPC   C2B13940  27.703   8.451   8.253
 5871POPC   C3B13941  27.618   8.440   7.953
 5871POPC   C4B13942  27.698   8.439   7.653
 5872POPC   NC313943  41.541   1.240   9.453
 5872POPC   PO413944  41.604   1.256   9.153
 5872POPC   GL113945  41.605   1.197   8.853
 5872POPC   GL213946  41.485   1.349   8.853
 5872POPC   C1A13947  41.555   1.183   8.553
 5872POPC   D2A13948  41.532   1.176   8.253
 5872POPC   C3A13949  41.606   1.180   7.953
 5872POPC   C4A13950  41.511   1.168   7.653
 5872POPC   C1B13951  41.504   1.428   8.553
 5872POPC   C2B13952  41.558   1.458   8.253
 5872POPC   C3B13953  41.536   1.424   7.953
 5872POPC   C4B13954  41.556   1.418   7.653
 5873POPC   NC313955  12.841  34.623   9.453
 5873POPC   PO413956  12.864  34.528   9.153
 5873POPC   GL113957  12.860  34.541   8.853
 5873POPC   GL213958  12.989  34.549   8.853
 5873POPC   C1A13959  12.804  34.566   8.553
 5873POPC   D2A13960  12.826  34.578   8.253
 5873POPC   C3A13961  12.872  34.624   7.953
 5873POPC   C4A13962  12.834  34.564   7.653
 5873POPC   C1B13963  13.024  34.419   8.553
 5873POPC   C2B13964  13.026  34.472   8.253
 5873POPC   C3B13965  13.056  34.394   7.953
 5873POPC   C4B13966  13.039  34.460   7.653
 5874POPC   NC313967   4.285  42.374   9.453
 5874POPC   PO413968   4.365  42.356   9.153
 5874POPC   GL113969   4.334  42.358   8.853
 5874POPC   GL213970   4.335  42.170   8.853
 5874POPC   C1A13971   4.348  42.315   8.553
 5874POPC   D2A13972   4.325  42.292   8.253
 5874POPC   C3A13973   4.293  42.326   7.953
 5874POPC   C4A13974   4.339  42.311   7.653
 5874POPC   C1B13975   4.258  42.066   8.553
 5874POPC   C2B13976   4.282  42.070   8.253
 5874POPC   C3B13977   4.276  42.113   7.953
 5874POPC   C4B13978   4.258  42.111   7.653
 5875POPC   NC313979  32.284  19.788   9.453
 5875POPC   PO413980  32.289  19.874   9.153
 5875POPC   GL113981  32.252  19.807   8.853
 5875POPC   GL213982  32.356  19.865   8.853
 5875POPC   C1A13983  32.228  19.789   8.553
 5875POPC   D2A13984  32.218  19.883   8.253
 5875POPC   C3A13985  32.294  19.849   7.953
 5875POPC   C4A13986  32.265  19.830   7.653
 5875POPC   C1B13987  32.401  20.027   8.553
 5875POPC   C2B13988  32.422  19.982   8.253
 5875POPC   C3B13989  32.449  20.015   7.953
 5875POPC   C4B13990  32.480  19.983   7.653
 5876POPC   NC313991  31.479  14.417   9.453
 5876POPC   PO413992  31.510  14.417   9.153
 5876POPC   GL113993  31.474  14.388   8.853
 5876POPC   GL213994  31.567  14.399   8.853
 5876POPC   C1A13995  31.432  14.420   8.553
 5876POPC   D2A13996  31.494  14.376   8.253
 5876POPC   C3A13997  31.496  14.406   7.953
 5876POPC   C4A13998  31.462  14.448   7.653
 5876POPC   C1B13999  31.747  14.285   8.553
 5876POPC   C2B14000  31.725  14.303   8.253
 5876POPC   C3B14001  31.689  14.335   7.953
 5876POPC   C4B14002  31.731  14.279   7.653
 5877POPC   NC314003  30.678   8.158   9.453
 5877POPC   PO414004  30.712   8.149   9.153
 5877POPC   GL114005  30.717   8.205   8.853
 5877POPC   GL214006  30.858   8.093   8.853
 5877POPC   C1A14007  30.714   8.181   8.553
 5877POPC   D2A14008  30.685   8.210   8.253
 5877POPC   C3A14009  30.699   8.231   7.953
 5877POPC   C4A14010  30.649   8.198   7.653
 5877POPC   C1B14011  30.933   8.058   8.553
 5877POPC   C2B14012  30.870   8.041   8.253
 5877POPC   C3B14013  30.909   8.052   7.953
 5877POPC   C4B14014  30.872   8.087   7.653
 5878POPC   NC314015  33.019  21.357   9.453
 5878POPC   PO414016  32.993  21.358   9.153
 5878POPC   GL114017  33.012  21.416   8.853
 5878POPC   GL214018  33.108  21.297   8.853
 5878POPC   C1A14019  32.994  21.389   8.553
 5878POPC   D2A14020  33.055  21.376   8.253
 5878POPC   C3A14021  32.988  21.353   7.953
 5878POPC   C4A14022  32.999  21.383   7.653
 5878POPC   C1B14023  33.249  21.288   8.553
 5878POPC   C2B14024  33.214  21.199   8.253
 5878POPC   C3B14025  33.215  21.225   7.953
 5878POPC   C4B14026  33.260  21.286   7.653
 5879POPC   NC314027  41.545  44.642   9.453
 5879POPC   PO414028  41.516  44.649   9.153
 5879POPC   GL114029  41.513  44.656   8.853
 5879POPC   GL214030  41.612  44.788   8.853
 5879POPC   C1A14031  41.600  44.614   8.553
 5879POPC   D2A14032  41.534  44.648   8.253
 5879POPC   C3A14033  41.571  44.635   7.953
 5879POPC   C4A14034  41.541  44.682   7.653
 5879POPC   C1B14035  41.576  44.907   8.553
 5879POPC   C2B14036  41.560  44.907   8.253
 5879POPC   C3B14037  41.528  44.870   7.953
 5879POPC   C4B14038  41.563  44.869   7.653
 5880POPC   NC314039  39.241  35.328   9.453
 5880POPC   PO414040  39.268  35.341   9.153
 5880POPC   GL114041  39.219  35.313   8.853
 5880POPC   GL214042  39.177  35.403   8.853
 5880POPC   C1A14043  39.276  35.314   8.553
 5880POPC   D2A14044  39.184  35.394   8.253
 5880POPC   C3A14045  39.230  35.389   7.953
 5880POPC   C4A14046  39.198  35.354   7.653
 5880POPC   C1B14047  39.015  35.497   8.553
 5880POPC   C2B14048  39.072  35.471   8.253
 5880POPC   C3B14049  39.009  35.484   7.953
 5880POPC   C4B14050  39.090  35.530   7.653
 5881POPC   NC314051   8.960  23.730   9.453
 5881POPC   PO414052   8.929  23.750   9.153
 5881POPC   GL114053   8.985  23.739   8.853
 5881POPC   GL214054   9.060  23.659   8.853
 5881POPC   C1A14055   8.997  23.674   8.553
 5881POPC   D2A14056   8.969  23.667   8.253
 5881POPC   C3A14057   8.990  23.744   7.953
 5881POPC   C4A14058   8.963  23.735   7.653
 5881POPC   C1B14059   9.118  23.490   8.553
 5881POPC   C2B14060   9.166  23.495   8.253
 5881POPC   C3B14061   9.163  23.511   7.953
 5881POPC   C4B14062   9.106  23.548   7.653
 5882POPC   NC314063  40.802  32.220   9.453
 5882POPC   PO414064  40.810  32.288   9.153
 5882POPC   GL114065  40.831  32.209   8.853
 5882POPC   GL214066  40.880  32.205   8.853
 5882POPC   C1A14067  40.734  32.296   8.553
 5882POPC   D2A14068  40.792  32.266   8.253
 5882POPC   C3A14069  40.770  32.287   7.953
 5882POPC   C4A14070  40.774  32.202   7.653
 5882POPC   C1B14071  41.012  32.089   8.553
 5882POPC   C2B14072  41.039  32.142   8.253
 5882POPC   C3B14073  40.975  32.128   7.953
 5882POPC   C4B14074  40.990  32.083   7.653
 5883POPC   NC314075   7.429   4.292   9.453
 5883POPC   PO414076   7.411   4.334   9.153
 5883POPC   GL114077   7.416   4.289   8.853
 5883POPC   GL214078   7.450   4.241   8.853
 5883POPC   C1A14079   7.460   4.338   8.553
 5883POPC   D2A14080   7.405   4.328   8.253
 5883POPC   C3A14081   7.402   4.336   7.953
 5883POPC   C4A14082   7.424   4.311   7.653
 5883POPC   C1B14083   7.528   4.144   8.553
 5883POPC   C2B14084   7.571   4.084   8.253
 5883POPC   C3B14085   7.573   4.070   7.953
 5883POPC   C4B14086   7.583   4.099   7.653
 5884POPC   NC314087   0.403   4.316   9.453
 5884POPC   PO414088   0.398   4.285   9.153
 5884POPC   GL114089   0.419   4.270   8.853
 5884POPC   GL214090   0.365   4.191   8.853
 5884POPC   C1A14091   0.408   4.290   8.553
 5884POPC   D2A14092   0.450   4.324   8.253
 5884POPC   C3A14093   0.427   4.306   7.953
 5884POPC   C4A14094   0.407   4.305   7.653
 5884POPC   C1B14095   0.308   4.166   8.553
 5884POPC   C2B14096   0.312   4.130   8.253
 5884POPC   C3B14097   0.248   4.160   7.953
 5884POPC   C4B14098   0.254   4.113   7.653
 5885POPC   NC314099  36.950  22.142   9.453
 5885POPC   PO414100  36.937  22.141   9.153
 5885POPC   GL114101  36.924  22.139   8.853
 5885POPC   GL214102  36.882  22.292   8.853
 5885POPC   C1A14103  36.942  22.178   8.553
 5885POPC   D2A14104  36.858  22.190   8.253
 5885POPC   C3A14105  36.927  22.164   7.953
 5885POPC   C4A14106  36.951  22.151   7.653
 5885POPC   C1B14107  36.751  22.340   8.553
 5885POPC   C2B14108  36.749  22.369   8.253
 5885POPC   C3B14109  36.790  22.408   7.953
 5885POPC   C4B14110  36.837  22.401   7.653
 5886POPC   NC314111  20.634  19.070   9.453
 5886POPC   PO414112  20.623  19.061   9.153
 5886POPC   GL114113  20.642  19.034   8.853
 5886POPC   GL214114  20.716  19.078   8.853
 5886POPC   C1A14115  20.604  19.023   8.553
 5886POPC   D2A14116  20.598  19.091   8.253
 5886POPC   C3A14117  20.609  19.013   7.953
 5886POPC   C4A14118  20.655  19.049   7.653
 5886POPC   C1B14119  20.826  19.188   8.553
 5886POPC   C2B14120  20.844  19.217   8.253
 5886POPC   C3B14121  20.831  19.226   7.953
 5886POPC   C4B14122  20.813  19.167   7.653
 5887POPC   NC314123  39.219  10.559   9.453
 5887POPC   PO414124  39.207  10.525   9.153
 5887POPC   GL114125  39.257  10.492   8.853
 5887POPC   GL214126  39.302  10.538   8.853
 5887POPC   C1A14127  39.272  10.573   8.553
 5887POPC   D2A14128  39.219  10.544   8.253
 5887POPC   C3A14129  39.268  10.524   7.953
 5887POPC   C4A14130  39.212  10.523   7.653
 5887POPC   C1B14131  39.466  10.665   8.553
 5887POPC   C2B14132  39.411  10.593   8.253
 5887POPC   C3B14133  39.413  10.585   7.953
 5887POPC   C4B14134  39.422  10.622   7.653
 5888POPC   NC314135   8.927  44.684   9.453
 5888POPC   PO414136   8.966  44.683   9.153
 5888POPC   GL114137   8.982  44.696   8.853
 5888POPC   GL214138   9.030  44.580   8.853
 5888POPC   C1A14139   8.985  44.636   8.553
 5888POPC   D2A14140   8.957  44.686   8.253
 5888POPC   C3A14141   8.956  44.614   7.953
 5888POPC   C4A14142   8.937  44.655   7.653
 5888POPC   C1B14143   9.101  44.400   8.553
 5888POPC   C2B14144   9.101  44.459   8.253
 5888POPC   C3B14145   9.083  44.478   7.953
 5888POPC   C4B14146   9.052  44.422   7.653
 5889POPC   NC314147   3.501  21.422   9.453
 5889POPC   PO414148   3.549  21.348   9.153
 5889POPC   GL114149   3.518  21.430   8.853
 5889POPC   GL214150   3.543  21.266   8.853
 5889POPC   C1A14151   3.516  21.382   8.553
 5889POPC   D2A14152   3.524  21.431   8.253
 5889POPC   C3A14153   3.570  21.339   7.953
 5889POPC   C4A14154   3.548  21.389   7.653
 5889POPC   C1B14155   3.537  21.173   8.553
 5889POPC   C2B14156   3.558  21.143   8.253
 5889POPC   C3B14157   3.496  21.159   7.953
 5889POPC   C4B14158   3.538  21.184   7.653
 5890POPC   NC314159  39.976  27.546   9.453
 5890POPC   PO414160  40.011  27.634   9.153
 5890POPC   GL114161  40.027  27.600   8.853
 5890POPC   GL214162  39.962  27.494   8.853
 5890POPC   C1A14163  40.014  27.570   8.553
 5890POPC   D2A14164  40.045  27.552   8.253
 5890POPC   C3A14165  39.993  27.604   7.953
 5890POPC   C4A14166  39.960  27.562   7.653
 5890POPC   C1B14167  39.835  27.422   8.553
 5890POPC   C2B14168  39.904  27.414   8.253
 5890POPC   C3B14169  39.822  27.417   7.953
 5890POPC   C4B14170  39.809  27.388   7.653
 5891POPC   NC314171  26.865  33.805   9.453
 5891POPC   PO414172  26.820  33.783   9.153
 5891POPC   GL114173  26.787  33.789   8.853
 5891POPC   GL214174  26.909  33.844   8.853
 5891POPC   C1A14175  26.787  33.775   8.553
 5891POPC   D2A14176  26.852  33.754   8.253
 5891POPC   C3A14177  26.773  33.789   7.953
 5891POPC   C4A14178  26.778  33.831   7.653
 5891POPC   C1B14179  27.035  33.857   8.553
 5891POPC   C2B14180  27.026  33.888   8.253
 5891POPC   C3B14181  27.096  33.885   7.953
 5891POPC   C4B14182  27.044  33.835   7.653
 5892POPC   NC314183  15.162  19.816   9.453
 5892POPC   PO414184  15.189  19.788   9.153
 5892POPC   GL114185  15.184  19.862   8.853
 5892POPC   GL214186  15.245  19.971   8.853
 5892POPC   C1A14187  15.215  19.823   8.553
 5892POPC   D2A14188  15.172  19.836   8.253
 5892POPC   C3A14189  15.192  19.813   7.953
 5892POPC   C4A14190  15.189  19.870   7.653
 5892POPC   C1B14191  15.296  20.079   8.553
 5892POPC   C2B14192  15.370  20.074   8.253
 5892POPC   C3B14193  15.316  20.012   7.953
 5892POPC   C4B14194  15.298  20.004   7.653
 5893POPC   NC314195   8.989  36.908   9.453
 5893POPC   PO414196   8.994  36.891   9.153
 5893POPC   GL114197   9.000  36.922   8.853
 5893POPC   GL214198   9.095  36.896   8.853
 5893POPC   C1A14199   9.019  36.895   8.553
 5893POPC   D2A14200   9.006  36.952   8.253
 5893POPC   C3A14201   8.930  36.937   7.953
 5893POPC   C4A14202   9.002  36.907   7.653
 5893POPC   C1B14203   9.244  36.810   8.553
 5893POPC   C2B14204   9.181  36.823   8.253
 5893POPC   C3B14205   9.244  36.843   7.953
 5893POPC   C4B14206   9.240  36.804   7.653
 5894POPC   NC314207   1.946  13.654   9.453
 5894POPC   PO414208   2.019  13.630   9.153
 5894POPC   GL114209   1.961  13.649   8.853
 5894POPC   GL214210   1.892  13.765   8.853
 5894POPC   C1A14211   2.006  13.616   8.553
 5894POPC   D2A14212   1.990  13.672   8.253
 5894POPC   C3A14213   1.974  13.592   7.953
 5894POPC   C4A14214   1.992  13.635   7.653
 5894POPC   C1B14215   1.849  13.888   8.553
 5894POPC   C2B14216   1.901  13.892   8.253
 5894POPC   C3B14217   1.908  13.895   7.953
 5894POPC   C4B14218   1.844  13.851   7.653
 5895POPC   NC314219  36.861  38.413   9.453
 5895POPC   PO414220  36.941  38.441   9.153
 5895POPC   GL114221  36.888  38.433   8.853
 5895POPC   GL214222  36.924  38.297   8.853
 5895POPC   C1A14223  36.899  38.446   8.553
 5895POPC   D2A14224  36.885  38.474   8.253
 5895POPC   C3A14225  36.888  38.426   7.953
 5895POPC   C4A14226  36.867  38.449   7.653
 5895POPC   C1B14227  37.014  38.238   8.553
 5895POPC   C2B14228  37.014  38.217   8.253
 5895POPC   C3B14229  37.055  38.206   7.953
 5895POPC   C4B14230  37.021  38.233   7.653
 5896POPC   NC314231  40.019  28.381   9.453
 5896POPC   PO414232  40.007  28.407   9.153
 5896POPC   GL114233  39.962  28.340   8.853
 5896POPC   GL214234  40.080  28.313   8.853
 5896POPC   C1A14235  39.993  28.398   8.553
 5896POPC   D2A14236  39.980  28.358   8.253
 5896POPC   C3A14237  40.039  28.392   7.953
 5896POPC   C4A14238  40.054  28.356   7.653
 5896POPC   C1B14239  40.234  28.218   8.553
 5896POPC   C2B14240  40.247  28.243   8.253
 5896POPC   C3B14241  40.199  28.208   7.953
 5896POPC   C4B14242  40.268  28.276   7.653
 5897POPC   NC314243  32.263  11.257   9.453
 5897POPC   PO414244  32.263  11.318   9.153
 5897POPC   GL114245  32.212  11.275   8.853
 5897POPC   GL214246  32.313  11.392   8.853
 5897POPC   C1A14247  32.214  11.305   8.553
 5897POPC   D2A14248  32.226  11.310   8.253
 5897POPC   C3A14249  32.207  11.264   7.953
 5897POPC   C4A14250  32.237  11.305   7.653
 5897POPC   C1B14251  32.314  11.503   8.553
 5897POPC   C2B14252  32.365  11.524   8.253
 5897POPC   C3B14253  32.341  11.495   7.953
 5897POPC   C4B14254  32.382  11.532   7.653
 5898POPC   NC314255  30.701  36.882   9.453
 5898POPC   PO414256  30.743  36.930   9.153
 5898POPC   GL114257  30.705  36.898   8.853
 5898POPC   GL214258  30.726  37.023   8.853
 5898POPC   C1A14259  30.731  36.916   8.553
 5898POPC   D2A14260  30.675  36.903   8.253
 5898POPC   C3A14261  30.697  36.898   7.953
 5898POPC   C4A14262  30.745  36.909   7.653
 5898POPC   C1B14263  30.680  37.117   8.553
 5898POPC   C2B14264  30.640  37.158   8.253
 5898POPC   C3B14265  30.675  37.175   7.953
 5898POPC   C4B14266  30.717  37.189   7.653
 5899POPC   NC314267   7.448  36.868   9.453
 5899POPC   PO414268   7.458  36.881   9.153
 5899POPC   GL114269   7.398  36.938   8.853
 5899POPC   GL214270   7.357  36.990   8.853
 5899POPC   C1A14271   7.404  36.886   8.553
 5899POPC   D2A14272   7.393  36.887   8.253
 5899POPC   C3A14273   7.381  36.866   7.953
 5899POPC   C4A14274   7.410  36.953   7.653
 5899POPC   C1B14275   7.228  37.041   8.553
 5899POPC   C2B14276   7.236  37.076   8.253
 5899POPC   C3B14277   7.220  37.019   7.953
 5899POPC   C4B14278   7.204  37.062   7.653
 5900POPC   NC314279  33.849  22.946   9.453
 5900POPC   PO414280  33.842  22.899   9.153
 5900POPC   GL114281  33.760  22.932   8.853
 5900POPC   GL214282  33.936  22.859   8.853
 5900POPC   C1A14283  33.773  22.953   8.553
 5900POPC   D2A14284  33.779  22.979   8.253
 5900POPC   C3A14285  33.824  22.909   7.953
 5900POPC   C4A14286  33.829  22.976   7.653
 5900POPC   C1B14287  33.948  22.745   8.553
 5900POPC   C2B14288  34.008  22.767   8.253
 5900POPC   C3B14289  34.026  22.770   7.953
 5900POPC   C4B14290  33.936  22.778   7.653
 5901POPC   NC314291  40.792  33.820   9.453
 5901POPC   PO414292  40.773  33.781   9.153
 5901POPC   GL114293  40.825  33.759   8.853
 5901POPC   GL214294  40.670  33.764   8.853
 5901POPC   C1A14295  40.799  33.754   8.553
 5901POPC   D2A14296  40.832  33.754   8.253
 5901POPC   C3A14297  40.744  33.811   7.953
 5901POPC   C4A14298  40.774  33.755   7.653
 5901POPC   C1B14299  40.568  33.727   8.553
 5901POPC   C2B14300  40.529  33.747   8.253
 5901POPC   C3B14301  40.519  33.765   7.953
 5901POPC   C4B14302  40.591  33.750   7.653
 5902POPC   NC314303  19.065   6.607   9.453
 5902POPC   PO414304  19.058   6.667   9.153
 5902POPC   GL114305  19.078   6.606   8.853
 5902POPC   GL214306  19.022   6.703   8.853
 5902POPC   C1A14307  19.041   6.688   8.553
 5902POPC   D2A14308  19.014   6.690   8.253
 5902POPC   C3A14309  19.097   6.640   7.953
 5902POPC   C4A14310  19.056   6.628   7.653
 5902POPC   C1B14311  18.891   6.805   8.553
 5902POPC   C2B14312  18.926   6.803   8.253
 5902POPC   C3B14313  18.849   6.822   7.953
 5902POPC   C4B14314  18.903   6.838   7.653
 5903POPC   NC314315  21.347  41.569   9.453
 5903POPC   PO414316  21.354  41.558   9.153
 5903POPC   GL114317  21.414  41.583   8.853
 5903POPC   GL214318  21.246  41.530   8.853
 5903POPC   C1A14319  21.381  41.601   8.553
 5903POPC   D2A14320  21.341  41.510   8.253
 5903POPC   C3A14321  21.405  41.609   7.953
 5903POPC   C4A14322  21.370  41.509   7.653
 5903POPC   C1B14323  21.091  41.531   8.553
 5903POPC   C2B14324  21.109  41.488   8.253
 5903POPC   C3B14325  21.108  41.567   7.953
 5903POPC   C4B14326  21.147  41.532   7.653
 5904POPC   NC314327  20.565  20.631   9.453
 5904POPC   PO414328  20.606  20.628   9.153
 5904POPC   GL114329  20.650  20.621   8.853
 5904POPC   GL214330  20.491  20.520   8.853
 5904POPC   C1A14331  20.623  20.564   8.553
 5904POPC   D2A14332  20.641  20.635   8.253
 5904POPC   C3A14333  20.584  20.617   7.953
 5904POPC   C4A14334  20.629  20.622   7.653
 5904POPC   C1B14335  20.446  20.411   8.553
 5904POPC   C2B14336  20.488  20.408   8.253
 5904POPC   C3B14337  20.491  20.376   7.953
 5904POPC   C4B14338  20.414  20.456   7.653
 5905POPC   NC314339  36.168  16.749   9.453
 5905POPC   PO414340  36.087  16.774   9.153
 5905POPC   GL114341  36.157  16.740   8.853
 5905POPC   GL214342  36.144  16.890   8.853
 5905POPC   C1A14343  36.099  16.712   8.553
 5905POPC   D2A14344  36.107  16.738   8.253
 5905POPC   C3A14345  36.095  16.689   7.953
 5905POPC   C4A14346  36.126  16.769   7.653
 5905POPC   C1B14347  36.091  16.947   8.553
 5905POPC   C2B14348  36.081  16.983   8.253
 5905POPC   C3B14349  36.079  16.987   7.953
 5905POPC   C4B14350  36.093  17.013   7.653
 5906POPC   NC314351  17.488  30.660   9.453
 5906POPC   PO414352  17.495  30.740   9.153
 5906POPC   GL114353  17.535  30.702   8.853
 5906POPC   GL214354  17.490  30.824   8.853
 5906POPC   C1A14355  17.522  30.706   8.553
 5906POPC   D2A14356  17.549  30.733   8.253
 5906POPC   C3A14357  17.527  30.699   7.953
 5906POPC   C4A14358  17.473  30.708   7.653
 5906POPC   C1B14359  17.539  30.948   8.553
 5906POPC   C2B14360  17.549  30.961   8.253
 5906POPC   C3B14361  17.602  30.965   7.953
 5906POPC   C4B14362  17.517  30.967   7.653
 5907POPC   NC314363  39.970  36.925   9.453
 5907POPC   PO414364  40.003  36.944   9.153
 5907POPC   GL114365  40.019  36.950   8.853
 5907POPC   GL214366  39.967  37.027   8.853
 5907POPC   C1A14367  40.028  36.946   8.553
 5907POPC   D2A14368  39.998  36.868   8.253
 5907POPC   C3A14369  39.984  36.884   7.953
 5907POPC   C4A14370  40.048  36.946   7.653
 5907POPC   C1B14371  39.948  37.123   8.553
 5907POPC   C2B14372  39.953  37.135   8.253
 5907POPC   C3B14373  39.988  37.157   7.953
 5907POPC   C4B14374  39.928  37.148   7.653
 5908POPC   NC314375   5.848  25.217   9.453
 5908POPC   PO414376   5.822  25.257   9.153
 5908POPC   GL114377   5.856  25.302   8.853
 5908POPC   GL214378   5.763  25.270   8.853
 5908POPC   C1A14379   5.909  25.313   8.553
 5908POPC   D2A14380   5.851  25.289   8.253
 5908POPC   C3A14381   5.886  25.311   7.953
 5908POPC   C4A14382   5.835  25.311   7.653
 5908POPC   C1B14383   5.586  25.293   8.553
 5908POPC   C2B14384   5.596  25.242   8.253
 5908POPC   C3B14385   5.632  25.278   7.953
 5908POPC   C4B14386   5.640  25.258   7.653
 5909POPC   NC314387  44.621   8.148   9.453
 5909POPC   PO414388  44.627   8.157   9.153
 5909POPC   GL114389  44.702   8.215   8.853
 5909POPC   GL214390  44.822   8.103   8.853
 5909POPC   C1A14391  44.670   8.238   8.553
 5909POPC   D2A14392  44.661   8.231   8.253
 5909POPC   C3A14393  44.641   8.154   7.953
 5909POPC   C4A14394  44.659   8.159   7.653
 5909POPC   C1B14395  44.852   8.147   8.553
 5909POPC   C2B14396  44.873   8.139   8.253
 5909POPC   C3B14397  44.870   8.139   7.953
 5909POPC   C4B14398  44.915   8.058   7.653
 5910POPC   NC314399  22.984  16.752   9.453
 5910POPC   PO414400  22.922  16.741   9.153
 5910POPC   GL114401  22.968  16.746   8.853
 5910POPC   GL214402  22.962  16.622   8.853
 5910POPC   C1A14403  22.948  16.725   8.553
 5910POPC   D2A14404  22.895  16.780   8.253
 5910POPC   C3A14405  22.945  16.740   7.953
 5910POPC   C4A14406  22.924  16.742   7.653
 5910POPC   C1B14407  23.083  16.563   8.553
 5910POPC   C2B14408  23.032  16.513   8.253
 5910POPC   C3B14409  23.035  16.554   7.953
 5910POPC   C4B14410  23.092  16.556   7.653
 5911POPC   NC314411  11.305   1.235   9.453
 5911POPC   PO414412  11.346   1.253   9.153
 5911POPC   GL114413  11.260   1.239   8.853
 5911POPC   GL214414  11.434   1.276   8.853
 5911POPC   C1A14415  11.291   1.236   8.553
 5911POPC   D2A14416  11.320   1.189   8.253
 5911POPC   C3A14417  11.327   1.171   7.953
 5911POPC   C4A14418  11.291   1.176   7.653
 5911POPC   C1B14419  11.576   1.335   8.553
 5911POPC   C2B14420  11.496   1.321   8.253
 5911POPC   C3B14421  11.496   1.320   7.953
 5911POPC   C4B14422  11.526   1.267   7.653
 5912POPC   NC314423  16.759  21.433   9.453
 5912POPC   PO414424  16.707  21.413   9.153
 5912POPC   GL114425  16.764  21.401   8.853
 5912POPC   GL214426  16.836  21.273   8.853
 5912POPC   C1A14427  16.706  21.345   8.553
 5912POPC   D2A14428  16.775  21.386   8.253
 5912POPC   C3A14429  16.754  21.408   7.953
 5912POPC   C4A14430  16.733  21.391   7.653
 5912POPC   C1B14431  16.922  21.161   8.553
 5912POPC   C2B14432  16.954  21.201   8.253
 5912POPC   C3B14433  16.912  21.233   7.953
 5912POPC   C4B14434  16.916  21.203   7.653
 5913POPC   NC314435  36.901  15.187   9.453
 5913POPC   PO414436  36.935  15.168   9.153
 5913POPC   GL114437  36.902  15.212   8.853
 5913POPC   GL214438  37.037  15.205   8.853
 5913POPC   C1A14439  36.881  15.214   8.553
 5913POPC   D2A14440  36.867  15.192   8.253
 5913POPC   C3A14441  36.950  15.201   7.953
 5913POPC   C4A14442  36.894  15.134   7.653
 5913POPC   C1B14443  37.163  15.122   8.553
 5913POPC   C2B14444  37.142  15.122   8.253
 5913POPC   C3B14445  37.152  15.118   7.953
 5913POPC   C4B14446  37.191  15.136   7.653
 5914POPC   NC314447   9.754  11.315   9.453
 5914POPC   PO414448   9.706  11.300   9.153
 5914POPC   GL114449   9.749  11.253   8.853
 5914POPC   GL214450   9.710  11.428   8.853
 5914POPC   C1A14451   9.741  11.302   8.553
 5914POPC   D2A14452   9.779  11.325   8.253
 5914POPC   C3A14453   9.710  11.296   7.953
 5914POPC   C4A14454   9.725  11.259   7.653
 5914POPC   C1B14455   9.766  11.592   8.553
 5914POPC   C2B14456   9.750  11.556   8.253
 5914POPC   C3B14457   9.744  11.550   7.953
 5914POPC   C4B14458   9.746  11.594   7.653
 5915POPC   NC314459  12.845  32.247   9.453
 5915POPC   PO414460  12.891  32.223   9.153
 5915POPC   GL114461  12.844  32.296   8.853
 5915POPC   GL214462  12.825  32.332   8.853
 5915POPC   C1A14463  12.814  32.241   8.553
 5915POPC   D2A14464  12.803  32.215   8.253
 5915POPC   C3A14465  12.881  32.285   7.953
 5915POPC   C4A14466  12.868  32.287   7.653
 5915POPC   C1B14467  12.799  32.464   8.553
 5915POPC   C2B14468  12.838  32.527   8.253
 5915POPC   C3B14469  12.778  32.473   7.953
 5915POPC   C4B14470  12.840  32.518   7.653
 5916POPC   NC314471  10.521  32.985   9.453
 5916POPC   PO414472  10.570  33.006   9.153
 5916POPC   GL114473  10.502  33.025   8.853
 5916POPC   GL214474  10.439  33.035   8.853
 5916POPC   C1A14475  10.520  33.030   8.553
 5916POPC   D2A14476  10.488  32.985   8.253
 5916POPC   C3A14477  10.532  33.013   7.953
 5916POPC   C4A14478  10.530  33.055   7.653
 5916POPC   C1B14479  10.341  33.121   8.553
 5916POPC   C2B14480  10.282  33.184   8.253
 5916POPC   C3B14481  10.350  33.174   7.953
 5916POPC   C4B14482  10.275  33.149   7.653
 5917POPC   NC314483  22.192  15.917   9.453
 5917POPC   PO414484  22.174  15.915   9.153
 5917POPC   GL114485  22.196  15.976   8.853
 5917POPC   GL214486  22.325  16.000   8.853
 5917POPC   C1A14487  22.207  15.962   8.553
 5917POPC   D2A14488  22.113  15.916   8.253
 5917POPC   C3A14489  22.155  15.934   7.953
 5917POPC   C4A14490  22.179  15.983   7.653
 5917POPC   C1B14491  22.424  15.967   8.553
 5917POPC   C2B14492  22.438  15.945   8.253
 5917POPC   C3B14493  22.411  16.019   7.953
 5917POPC   C4B14494  22.398  15.937   7.653
 5918POPC   NC314495  34.529   9.754   9.453
 5918POPC   PO414496  34.604   9.791   9.153
 5918POPC   GL114497  34.600   9.717   8.853
 5918POPC   GL214498  34.606   9.871   8.853
 5918POPC   C1A14499  34.546   9.781   8.553
 5918POPC   D2A14500  34.608   9.780   8.253
 5918POPC   C3A14501  34.598   9.714   7.953
 5918POPC   C4A14502  34.558   9.699   7.653
 5918POPC   C1B14503  34.615   9.976   8.553
 5918POPC   C2B14504  34.643   9.987   8.253
 5918POPC   C3B14505  34.636  10.032   7.953
 5918POPC   C4B14506  34.649   9.994   7.653
 5919POPC   NC314507  34.572  26.769   9.453
 5919POPC   PO414508  34.535  26.807   9.153
 5919POPC   GL114509  34.548  26.802   8.853
 5919POPC   GL214510  34.426  26.851   8.853
 5919POPC   C1A14511  34.581  26.843   8.553
 5919POPC   D2A14512  34.575  26.809   8.253
 5919POPC   C3A14513  34.590  26.853   7.953
 5919POPC   C4A14514  34.622  26.839   7.653
 5919POPC   C1B14515  34.404  26.980   8.553
 5919POPC   C2B14516  34.389  26.992   8.253
 5919POPC   C3B14517  34.348  26.939   7.953
 5919POPC   C4B14518  34.398  26.994   7.653
 5920POPC   NC314519  34.537  29.137   9.453
 5920POPC   PO414520  34.625  29.135   9.153
 5920POPC   GL114521  34.605  29.152   8.853
 5920POPC   GL214522  34.587  29.069   8.853
 5920POPC   C1A14523  34.537  29.151   8.553
 5920POPC   D2A14524  34.608  29.128   8.253
 5920POPC   C3A14525  34.607  29.096   7.953
 5920POPC   C4A14526  34.608  29.143   7.653
 5920POPC   C1B14527  34.689  28.929   8.553
 5920POPC   C2B14528  34.676  28.959   8.253
 5920POPC   C3B14529  34.716  28.930   7.953
 5920POPC   C4B14530  34.718  28.934   7.653
 5921POPC   NC314531  22.150  22.207   9.453
 5921POPC   PO414532  22.118  22.154   9.153
 5921POPC   GL114533  22.193  22.179   8.853
 5921POPC   GL214534  22.088  22.324   8.853
 5921POPC   C1A14535  22.133  22.139   8.553
 5921POPC   D2A14536  22.206  22.117   8.253
 5921POPC   C3A14537  22.194  22.206   7.953
 5921POPC   C4A14538  22.139  22.159   7.653
 5921POPC   C1B14539  22.083  22.403   8.553
 5921POPC   C2B14540  22.087  22.381   8.253
 5921POPC   C3B14541  22.073  22.393   7.953
 5921POPC   C4B14542  22.044  22.403   7.653
 5922POPC   NC314543  43.127   5.068   9.453
 5922POPC   PO414544  43.067   5.115   9.153
 5922POPC   GL114545  43.072   5.097   8.853
 5922POPC   GL214546  43.086   5.009   8.853
 5922POPC   C1A14547  43.142   5.137   8.553
 5922POPC   D2A14548  43.141   5.074   8.253
 5922POPC   C3A14549  43.135   5.094   7.953
 5922POPC   C4A14550  43.139   5.074   7.653
 5922POPC   C1B14551  43.103   4.866   8.553
 5922POPC   C2B14552  43.038   4.862   8.253
 5922POPC   C3B14553  43.082   4.818   7.953
 5922POPC   C4B14554  43.030   4.840   7.653
 5923POPC   NC314555  10.516  19.851   9.453
 5923POPC   PO414556  10.517  19.846   9.153
 5923POPC   GL114557  10.558  19.870   8.853
 5923POPC   GL214558  10.601  19.963   8.853
 5923POPC   C1A14559  10.515  19.808   8.553
 5923POPC   D2A14560  10.480  19.816   8.253
 5923POPC   C3A14561  10.498  19.813   7.953
 5923POPC   C4A14562  10.482  19.808   7.653
 5923POPC   C1B14563  10.646  20.012   8.553
 5923POPC   C2B14564  10.660  19.999   8.253
 5923POPC   C3B14565  10.671  20.053   7.953
 5923POPC   C4B14566  10.706  20.029   7.653
 5924POPC   NC314567  20.574  31.499   9.453
 5924POPC   PO414568  20.561  31.460   9.153
 5924POPC   GL114569  20.645  31.460   8.853
 5924POPC   GL214570  20.559  31.331   8.853
 5924POPC   C1A14571  20.638  31.476   8.553
 5924POPC   D2A14572  20.584  31.446   8.253
 5924POPC   C3A14573  20.656  31.424   7.953
 5924POPC   C4A14574  20.588  31.435   7.653
 5924POPC   C1B14575  20.428  31.234   8.553
 5924POPC   C2B14576  20.482  31.245   8.253
 5924POPC   C3B14577  20.474  31.268   7.953
 5924POPC   C4B14578  20.469  31.312   7.653
 5925POPC   NC314579  16.778  37.677   9.453
 5925POPC   PO414580  16.698  37.724   9.153
 5925POPC   GL114581  16.698  37.690   8.853
 5925POPC   GL214582  16.725  37.522   8.853
 5925POPC   C1A14583  16.708  37.719   8.553
 5925POPC   D2A14584  16.768  37.703   8.253
 5925POPC   C3A14585  16.778  37.635   7.953
 5925POPC   C4A14586  16.774  37.673   7.653
 5925POPC   C1B14587  16.780  37.394   8.553
 5925POPC   C2B14588  16.732  37.474   8.253
 5925POPC   C3B14589  16.735  37.454   7.953
 5925POPC   C4B14590  16.721  37.452   7.653
 5926POPC   NC314591  13.617   1.957   9.453
 5926POPC   PO414592  13.626   2.039   9.153
 5926POPC   GL114593  13.648   1.990   8.853
 5926POPC   GL214594  13.753   2.008   8.853
 5926POPC   C1A14595  13.638   2.012   8.553
 5926POPC   D2A14596  13.670   1.977   8.253
 5926POPC   C3A14597  13.626   1.958   7.953
 5926POPC   C4A14598  13.666   1.987   7.653
 5926POPC   C1B14599  13.881   1.914   8.553
 5926POPC   C2B14600  13.898   1.910   8.253
 5926POPC   C3B14601  13.895   1.919   7.953
 5926POPC   C4B14602  13.828   2.005   7.653
 5927POPC   NC314603  31.456  31.477   9.453
 5927POPC   PO414604  31.460  31.497   9.153
 5927POPC   GL114605  31.486  31.446   8.853
 5927POPC   GL214606  31.395  31.596   8.853
 5927POPC   C1A14607  31.447  31.425   8.553
 5927POPC   D2A14608  31.447  31.440   8.253
 5927POPC   C3A14609  31.436  31.436   7.953
 5927POPC   C4A14610  31.433  31.438   7.653
 5927POPC   C1B14611  31.368  31.705   8.553
 5927POPC   C2B14612  31.428  31.742   8.253
 5927POPC   C3B14613  31.362  31.663   7.953
 5927POPC   C4B14614  31.367  31.689   7.653
 5928POPC   NC314615   6.621   0.433   9.453
 5928POPC   PO414616   6.634   0.417   9.153
 5928POPC   GL114617   6.695   0.432   8.853
 5928POPC   GL214618   6.750   0.462   8.853
 5928POPC   C1A14619   6.677   0.418   8.553
 5928POPC   D2A14620   6.671   0.478   8.253
 5928POPC   C3A14621   6.663   0.439   7.953
 5928POPC   C4A14622   6.612   0.457   7.653
 5928POPC   C1B14623   6.875   0.531   8.553
 5928POPC   C2B14624   6.928   0.494   8.253
 5928POPC   C3B14625   6.927   0.518   7.953
 5928POPC   C4B14626   6.846   0.494   7.653
 5929POPC   NC314627  44.632   9.002   9.453
 5929POPC   PO414628  44.705   8.981   9.153
 5929POPC   GL114629  44.699   8.941   8.853
 5929POPC   GL214630  44.603   8.841   8.853
 5929POPC   C1A14631  44.655   8.957   8.553
 5929POPC   D2A14632  44.661   9.013   8.253
 5929POPC   C3A14633  44.706   8.958   7.953
 5929POPC   C4A14634  44.633   8.988   7.653
 5929POPC   C1B14635  44.616   8.715   8.553
 5929POPC   C2B14636  44.537   8.773   8.253
 5929POPC   C3B14637  44.545   8.771   7.953
 5929POPC   C4B14638  44.537   8.761   7.653
 5930POPC   NC314639  36.948  41.584   9.453
 5930POPC   PO414640  36.932  41.539   9.153
 5930POPC   GL114641  36.895  41.577   8.853
 5930POPC   GL214642  36.815  41.509   8.853
 5930POPC   C1A14643  36.861  41.519   8.553
 5930POPC   D2A14644  36.944  41.591   8.253
 5930POPC   C3A14645  36.869  41.572   7.953
 5930POPC   C4A14646  36.937  41.596   7.653
 5930POPC   C1B14647  36.769  41.324   8.553
 5930POPC   C2B14648  36.725  41.405   8.253
 5930POPC   C3B14649  36.773  41.400   7.953
 5930POPC   C4B14650  36.748  41.402   7.653
 5931POPC   NC314651   5.823  36.893   9.453
 5931POPC   PO414652   5.901  36.939   9.153
 5931POPC   GL114653   5.847  36.878   8.853
 5931POPC   GL214654   5.849  36.782   8.853
 5931POPC   C1A14655   5.830  36.867   8.553
 5931POPC   D2A14656   5.908  36.938   8.253
 5931POPC   C3A14657   5.870  36.887   7.953
 5931POPC   C4A14658   5.824  36.944   7.653
 5931POPC   C1B14659   5.855  36.638   8.553
 5931POPC   C2B14660   5.824  36.691   8.253
 5931POPC   C3B14661   5.866  36.624   7.953
 5931POPC   C4B14662   5.802  36.686   7.653
 5932POPC   NC314663   5.891  24.467   9.453
 5932POPC   PO414664   5.877  24.510   9.153
 5932POPC   GL114665   5.878  24.539   8.853
 5932POPC   GL214666   5.805  24.537   8.853
 5932POPC   C1A14667   5.857  24.485   8.553
 5932POPC   D2A14668   5.840  24.482   8.253
 5932POPC   C3A14669   5.842  24.471   7.953
 5932POPC   C4A14670   5.831  24.474   7.653
 5932POPC   C1B14671   5.680  24.650   8.553
 5932POPC   C2B14672   5.700  24.632   8.253
 5932POPC   C3B14673   5.627  24.630   7.953
 5932POPC   C4B14674   5.697  24.593   7.653
 5933POPC   NC314675  43.926   1.207   9.453
 5933POPC   PO414676  43.859   1.231   9.153
 5933POPC   GL114677  43.918   1.206   8.853
 5933POPC   GL214678  44.026   1.236   8.853
 5933POPC   C1A14679  43.859   1.234   8.553
 5933POPC   D2A14680  43.898   1.233   8.253
 5933POPC   C3A14681  43.856   1.192   7.953
 5933POPC   C4A14682  43.897   1.248   7.653
 5933POPC   C1B14683  44.069   1.325   8.553
 5933POPC   C2B14684  44.127   1.332   8.253
 5933POPC   C3B14685  44.168   1.323   7.953
 5933POPC   C4B14686  44.118   1.323   7.653
 5934POPC   NC314687  20.571  36.135   9.453
 5934POPC   PO414688  20.642  36.107   9.153
 5934POPC   GL114689  20.607  36.105   8.853
 5934POPC   GL214690  20.719  36.176   8.853
 5934POPC   C1A14691  20.626  36.155   8.553
 5934POPC   D2A14692  20.650  36.150   8.253
 5934POPC   C3A14693  20.631  36.140   7.953
 5934POPC   C4A14694  20.631  36.103   7.653
 5934POPC   C1B14695  20.817  36.231   8.553
 5934POPC   C2B14696  20.822  36.181   8.253
 5934POPC   C3B14697  20.853  36.256   7.953
 5934POPC   C4B14698  20.877  36.225   7.653
 5935POPC   NC314699  35.304  18.309   9.453
 5935POPC   PO414700  35.305  18.236   9.153
 5935POPC   GL114701  35.388  18.236   8.853
 5935POPC   GL214702  35.402  18.368   8.853
 5935POPC   C1A14703  35.385  18.330   8.553
 5935POPC   D2A14704  35.363  18.313   8.253
 5935POPC   C3A14705  35.330  18.235   7.953
 5935POPC   C4A14706  35.355  18.285   7.653
 5935POPC   C1B14707  35.499  18.417   8.553
 5935POPC   C2B14708  35.547  18.475   8.253
 5935POPC   C3B14709  35.528  18.467   7.953
 5935POPC   C4B14710  35.541  18.476   7.653
 5936POPC   NC314711  38.467   5.129   9.453
 5936POPC   PO414712  38.474   5.143   9.153
 5936POPC   GL114713  38.500   5.088   8.853
 5936POPC   GL214714  38.297   5.103   8.853
 5936POPC   C1A14715  38.499   5.070   8.553
 5936POPC   D2A14716  38.484   5.067   8.253
 5936POPC   C3A14717  38.430   5.126   7.953
 5936POPC   C4A14718  38.489   5.140   7.653
 5936POPC   C1B14719  38.194   5.219   8.553
 5936POPC   C2B14720  38.220   5.211   8.253
 5936POPC   C3B14721  38.215   5.148   7.953
 5936POPC   C4B14722  38.274   5.238   7.653
 5937POPC   NC314723  26.010  39.197   9.453
 5937POPC   PO414724  25.995  39.256   9.153
 5937POPC   GL114725  26.085  39.272   8.853
 5937POPC   GL214726  25.899  39.191   8.853
 5937POPC   C1A14727  26.009  39.213   8.553
 5937POPC   D2A14728  26.008  39.225   8.253
 5937POPC   C3A14729  26.014  39.242   7.953
 5937POPC   C4A14730  26.018  39.198   7.653
 5937POPC   C1B14731  25.767  39.107   8.553
 5937POPC   C2B14732  25.780  39.102   8.253
 5937POPC   C3B14733  25.813  39.182   7.953
 5937POPC   C4B14734  25.853  39.088   7.653
 5938POPC   NC314735   8.213  26.835   9.453
 5938POPC   PO414736   8.151  26.834   9.153
 5938POPC   GL114737   8.177  26.781   8.853
 5938POPC   GL214738   8.296  26.807   8.853
 5938POPC   C1A14739   8.182  26.773   8.553
 5938POPC   D2A14740   8.244  26.796   8.253
 5938POPC   C3A14741   8.156  26.832   7.953
 5938POPC   C4A14742   8.215  26.794   7.653
 5938POPC   C1B14743   8.446  26.675   8.553
 5938POPC   C2B14744   8.451  26.697   8.253
 5938POPC   C3B14745   8.424  26.731   7.953
 5938POPC   C4B14746   8.439  26.664   7.653
 5939POPC   NC314747  40.812  40.004   9.453
 5939POPC   PO414748  40.782  40.031   9.153
 5939POPC   GL114749  40.748  39.972   8.853
 5939POPC   GL214750  40.745  39.922   8.853
 5939POPC   C1A14751  40.809  40.031   8.553
 5939POPC   D2A14752  40.805  39.967   8.253
 5939POPC   C3A14753  40.827  40.017   7.953
 5939POPC   C4A14754  40.778  40.057   7.653
 5939POPC   C1B14755  40.674  39.750   8.553
 5939POPC   C2B14756  40.656  39.789   8.253
 5939POPC   C3B14757  40.615  39.840   7.953
 5939POPC   C4B14758  40.655  39.757   7.653
 5940POPC   NC314759   5.917  33.800   9.453
 5940POPC   PO414760   5.900  33.757   9.153
 5940POPC   GL114761   5.831  33.758   8.853
 5940POPC   GL214762   5.789  33.833   8.853
 5940POPC   C1A14763   5.836  33.827   8.553
 5940POPC   D2A14764   5.839  33.845   8.253
 5940POPC   C3A14765   5.830  33.781   7.953
 5940POPC   C4A14766   5.886  33.764   7.653
 5940POPC   C1B14767   5.672  33.908   8.553
 5940POPC   C2B14768   5.670  33.942   8.253
 5940POPC   C3B14769   5.674  33.915   7.953
 5940POPC   C4B14770   5.657  33.926   7.653
 5941POPC   NC314771  11.295  36.080   9.453
 5941POPC   PO414772  11.323  36.164   9.153
 5941POPC   GL114773  11.313  36.154   8.853
 5941POPC   GL214774  11.210  36.035   8.853
 5941POPC   C1A14775  11.267  36.144   8.553
 5941POPC   D2A14776  11.285  36.136   8.253
 5941POPC   C3A14777  11.278  36.151   7.953
 5941POPC   C4A14778  11.269  36.102   7.653
 5941POPC   C1B14779  11.152  35.952   8.553
 5941POPC   C2B14780  11.077  35.985   8.253
 5941POPC   C3B14781  11.130  35.990   7.953
 5941POPC   C4B14782  11.138  35.951   7.653
 5942POPC   NC314783  43.838  43.123   9.453
 5942POPC   PO414784  43.914  43.077   9.153
 5942POPC   GL114785  43.931  43.148   8.853
 5942POPC   GL214786  43.788  43.000   8.853
 5942POPC   C1A14787  43.930  43.115   8.553
 5942POPC   D2A14788  43.913  43.146   8.253
 5942POPC   C3A14789  43.885  43.152   7.953
 5942POPC   C4A14790  43.900  43.073   7.653
 5942POPC   C1B14791  43.676  42.957   8.553
 5942POPC   C2B14792  43.714  42.920   8.253
 5942POPC   C3B14793  43.705  42.921   7.953
 5942POPC   C4B14794  43.679  42.960   7.653
 5943POPC   NC314795  29.899  33.029   9.453
 5943POPC   PO414796  29.925  33.063   9.153
 5943POPC   GL114797  29.891  33.052   8.853
 5943POPC   GL214798  30.068  32.978   8.853
 5943POPC   C1A14799  29.946  32.992   8.553
 5943POPC   D2A14800  29.933  33.017   8.253
 5943POPC   C3A14801  29.885  33.025   7.953
 5943POPC   C4A14802  29.905  33.067   7.653
 5943POPC   C1B14803  30.114  32.924   8.553
 5943POPC   C2B14804  30.108  32.939   8.253
 5943POPC   C3B14805  30.181  32.921   7.953
 5943POPC   C4B14806  30.152  32.845   7.653
 5944POPC   NC314807  21.413  19.041   9.453
 5944POPC   PO414808  21.364  19.019   9.153
 5944POPC   GL114809  21.425  19.079   8.853
 5944POPC   GL214810  21.503  18.998   8.853
 5944POPC   C1A14811  21.401  19.067   8.553
 5944POPC   D2A14812  21.363  19.034   8.253
 5944POPC   C3A14813  21.418  19.103   7.953
 5944POPC   C4A14814  21.415  19.055   7.653
 5944POPC   C1B14815  21.546  18.799   8.553
 5944POPC   C2B14816  21.499  18.857   8.253
 5944POPC   C3B14817  21.474  18.816   7.953
 5944POPC   C4B14818  21.563  18.858   7.653
 5945POPC   NC314819  27.608   5.044   9.453
 5945POPC   PO414820  27.553   5.112   9.153
 5945POPC   GL114821  27.571   5.114   8.853
 5945POPC   GL214822  27.676   5.156   8.853
 5945POPC   C1A14823  27.639   5.066   8.553
 5945POPC   D2A14824  27.587   5.103   8.253
 5945POPC   C3A14825  27.603   5.122   7.953
 5945POPC   C4A14826  27.636   5.048   7.653
 5945POPC   C1B14827  27.814   5.232   8.553
 5945POPC   C2B14828  27.858   5.243   8.253
 5945POPC   C3B14829  27.835   5.210   7.953
 5945POPC   C4B14830  27.817   5.173   7.653
 5946POPC   NC314831  24.494  20.638   9.453
 5946POPC   PO414832  24.520  20.561   9.153
 5946POPC   GL114833  24.507  20.632   8.853
 5946POPC   GL214834  24.374  20.663   8.853
 5946POPC   C1A14835  24.524  20.567   8.553
 5946POPC   D2A14836  24.515  20.610   8.253
 5946POPC   C3A14837  24.457  20.638   7.953
 5946POPC   C4A14838  24.481  20.566   7.653
 5946POPC   C1B14839  24.254  20.784   8.553
 5946POPC   C2B14840  24.295  20.780   8.253
 5946POPC   C3B14841  24.339  20.758   7.953
 5946POPC   C4B14842  24.270  20.793   7.653
 5947POPC   NC314843  34.533   3.509   9.453
 5947POPC   PO414844  34.556   3.522   9.153
 5947POPC   GL114845  34.563   3.574   8.853
 5947POPC   GL214846  34.652   3.665   8.853
 5947POPC   C1A14847  34.547   3.515   8.553
 5947POPC   D2A14848  34.571   3.543   8.253
 5947POPC   C3A14849  34.531   3.580   7.953
 5947POPC   C4A14850  34.541   3.519   7.653
 5947POPC   C1B14851  34.736   3.738   8.553
 5947POPC   C2B14852  34.737   3.694   8.253
 5947POPC   C3B14853  34.773   3.698   7.953
 5947POPC   C4B14854  34.729   3.761   7.653
 5948POPC   NC314855   8.946  12.820   9.453
 5948POPC   PO414856   8.947  12.808   9.153
 5948POPC   GL114857   8.924  12.884   8.853
 5948POPC   GL214858   8.966  12.700   8.853
 5948POPC   C1A14859   8.946  12.825   8.553
 5948POPC   D2A14860   9.006  12.891   8.253
 5948POPC   C3A14861   8.995  12.812   7.953
 5948POPC   C4A14862   8.951  12.866   7.653
 5948POPC   C1B14863   8.901  12.592   8.553
 5948POPC   C2B14864   8.949  12.648   8.253
 5948POPC   C3B14865   8.915  12.608   7.953
 5948POPC   C4B14866   8.929  12.605   7.653
 5949POPC   NC314867  41.554  35.389   9.453
 5949POPC   PO414868  41.579  35.349   9.153
 5949POPC   GL114869  41.511  35.330   8.853
 5949POPC   GL214870  41.521  35.183   8.853
 5949POPC   C1A14871  41.509  35.339   8.553
 5949POPC   D2A14872  41.544  35.353   8.253
 5949POPC   C3A14873  41.594  35.336   7.953
 5949POPC   C4A14874  41.569  35.361   7.653
 5949POPC   C1B14875  41.504  35.093   8.553
 5949POPC   C2B14876  41.484  35.077   8.253
 5949POPC   C3B14877  41.433  35.099   7.953
 5949POPC   C4B14878  41.431  35.155   7.653
 5950POPC   NC314879   5.910   1.971   9.453
 5950POPC   PO414880   5.900   2.035   9.153
 5950POPC   GL114881   5.819   2.019   8.853
 5950POPC   GL214882   5.941   1.871   8.853
 5950POPC   C1A14883   5.907   2.006   8.553
 5950POPC   D2A14884   5.906   2.031   8.253
 5950POPC   C3A14885   5.841   2.034   7.953
 5950POPC   C4A14886   5.836   1.970   7.653
 5950POPC   C1B14887   5.909   1.722   8.553
 5950POPC   C2B14888   5.962   1.735   8.253
 5950POPC   C3B14889   5.914   1.768   7.953
 5950POPC   C4B14890   5.872   1.724   7.653
 5951POPC   NC314891  31.491  36.153   9.453
 5951POPC   PO414892  31.463  36.143   9.153
 5951POPC   GL114893  31.519  36.139   8.853
 5951POPC   GL214894  31.400  36.239   8.853
 5951POPC   C1A14895  31.426  36.144   8.553
 5951POPC   D2A14896  31.469  36.154   8.253
 5951POPC   C3A14897  31.445  36.137   7.953
 5951POPC   C4A14898  31.511  36.104   7.653
 5951POPC   C1B14899  31.268  36.321   8.553
 5951POPC   C2B14900  31.319  36.278   8.253
 5951POPC   C3B14901  31.316  36.252   7.953
 5951POPC   C4B14902  31.277  36.298   7.653
 5952POPC   NC314903  16.775  10.559   9.453
 5952POPC   PO414904  16.771  10.493   9.153
 5952POPC   GL114905  16.775  10.572   8.853
 5952POPC   GL214906  16.579  10.475   8.853
 5952POPC   C1A14907  16.752  10.563   8.553
 5952POPC   D2A14908  16.713  10.549   8.253
 5952POPC   C3A14909  16.693  10.487   7.953
 5952POPC   C4A14910  16.780  10.496   7.653
 5952POPC   C1B14911  16.496  10.439   8.553
 5952POPC   C2B14912  16.476  10.452   8.253
 5952POPC   C3B14913  16.539  10.488   7.953
 5952POPC   C4B14914  16.529  10.501   7.653
 5953POPC   NC314915  35.331   9.022   9.453
 5953POPC   PO414916  35.380   8.958   9.153
 5953POPC   GL114917  35.395   9.009   8.853
 5953POPC   GL214918  35.329   9.066   8.853
 5953POPC   C1A14919  35.332   8.994   8.553
 5953POPC   D2A14920  35.340   8.944   8.253
 5953POPC   C3A14921  35.302   8.944   7.953
 5953POPC   C4A14922  35.347   9.016   7.653
 5953POPC   C1B14923  35.283   9.201   8.553
 5953POPC   C2B14924  35.311   9.255   8.253
 5953POPC   C3B14925  35.261   9.261   7.953
 5953POPC   C4B14926  35.292   9.247   7.653
 5954POPC   NC314927  36.913  39.221   9.453
 5954POPC   PO414928  36.925  39.223   9.153
 5954POPC   GL114929  36.904  39.233   8.853
 5954POPC   GL214930  36.938  39.328   8.853
 5954POPC   C1A14931  36.897  39.233   8.553
 5954POPC   D2A14932  36.945  39.259   8.253
 5954POPC   C3A14933  36.910  39.224   7.953
 5954POPC   C4A14934  36.946  39.227   7.653
 5954POPC   C1B14935  36.920  39.481   8.553
 5954POPC   C2B14936  36.909  39.462   8.253
 5954POPC   C3B14937  36.871  39.476   7.953
 5954POPC   C4B14938  36.892  39.503   7.653
 5955POPC   NC314939   9.709  18.251   9.453
 5955POPC   PO414940   9.770  18.270   9.153
 5955POPC   GL114941   9.729  18.287   8.853
 5955POPC   GL214942   9.668  18.186   8.853
 5955POPC   C1A14943   9.773  18.234   8.553
 5955POPC   D2A14944   9.703  18.330   8.253
 5955POPC   C3A14945   9.771  18.239   7.953
 5955POPC   C4A14946   9.777  18.318   7.653
 5955POPC   C1B14947   9.560  18.204   8.553
 5955POPC   C2B14948   9.545  18.211   8.253
 5955POPC   C3B14949   9.502  18.161   7.953
 5955POPC   C4B14950   9.564  18.206   7.653
 5956POPC   NC314951   2.744   4.364   9.453
 5956POPC   PO414952   2.811   4.313   9.153
 5956POPC   GL114953   2.772   4.301   8.853
 5956POPC   GL214954   2.716   4.452   8.853
 5956POPC   C1A14955   2.772   4.271   8.553
 5956POPC   D2A14956   2.763   4.322   8.253
 5956POPC   C3A14957   2.747   4.343   7.953
 5956POPC   C4A14958   2.787   4.286   7.653
 5956POPC   C1B14959   2.625   4.491   8.553
 5956POPC   C2B14960   2.627   4.518   8.253
 5956POPC   C3B14961   2.555   4.497   7.953
 5956POPC   C4B14962   2.641   4.511   7.653
 5957POPC   NC314963  32.235  31.433   9.453
 5957POPC   PO414964  32.250  31.522   9.153
 5957POPC   GL114965  32.233  31.481   8.853
 5957POPC   GL214966  32.098  31.483   8.853
 5957POPC   C1A14967  32.228  31.515   8.553
 5957POPC   D2A14968  32.208  31.505   8.253
 5957POPC   C3A14969  32.282  31.436   7.953
 5957POPC   C4A14970  32.219  31.504   7.653
 5957POPC   C1B14971  32.055  31.581   8.553
 5957POPC   C2B14972  32.001  31.569   8.253
 5957POPC   C3B14973  32.007  31.496   7.953
 5957POPC   C4B14974  32.009  31.590   7.653
 5958POPC   NC314975  16.709  23.730   9.453
 5958POPC   PO414976  16.719  23.749   9.153
 5958POPC   GL114977  16.715  23.671   8.853
 5958POPC   GL214978  16.605  23.666   8.853
 5958POPC   C1A14979  16.683  23.708   8.553
 5958POPC   D2A14980  16.768  23.736   8.253
 5958POPC   C3A14981  16.701  23.734   7.953
 5958POPC   C4A14982  16.694  23.726   7.653
 5958POPC   C1B14983  16.443  23.709   8.553
 5958POPC   C2B14984  16.506  23.690   8.253
 5958POPC   C3B14985  16.520  23.730   7.953
 5958POPC   C4B14986  16.435  23.662   7.653
 5959POPC   NC314987  19.051  11.272   9.453
 5959POPC   PO414988  19.018  11.256   9.153
 5959POPC   GL114989  19.030  11.268   8.853
 5959POPC   GL214990  19.061  11.139   8.853
 5959POPC   C1A14991  19.106  11.346   8.553
 5959POPC   D2A14992  19.098  11.311   8.253
 5959POPC   C3A14993  19.089  11.280   7.953
 5959POPC   C4A14994  19.049  11.330   7.653
 5959POPC   C1B14995  19.032  11.014   8.553
 5959POPC   C2B14996  19.116  11.009   8.253
 5959POPC   C3B14997  19.076  11.091   7.953
 5959POPC   C4B14998  19.033  11.031   7.653
 5960POPC   NC314999  44.698   3.507   9.453
 5960POPC   PO415000  44.682   3.543   9.153
 5960POPC   GL115001  44.633   3.514   8.853
 5960POPC   GL215002  44.718   3.461   8.853
 5960POPC   C1A15003  44.628   3.583   8.553
 5960POPC   D2A15004  44.628   3.521   8.253
 5960POPC   C3A15005  44.677   3.499   7.953
 5960POPC   C4A15006  44.693   3.529   7.653
 5960POPC   C1B15007  44.679   3.338   8.553
 5960POPC   C2B15008  44.715   3.334   8.253
 5960POPC   C3B15009  44.745   3.273   7.953
 5960POPC   C4B15010  44.658   3.303   7.653
 5961POPC   NC315011  30.652  28.395   9.453
 5961POPC   PO415012  30.738  28.394   9.153
 5961POPC   GL115013  30.667  28.331   8.853
 5961POPC   GL215014  30.590  28.298   8.853
 5961POPC   C1A15015  30.686  28.392   8.553
 5961POPC   D2A15016  30.681  28.378   8.253
 5961POPC   C3A15017  30.654  28.387   7.953
 5961POPC   C4A15018  30.682  28.400   7.653
 5961POPC   C1B15019  30.539  28.194   8.553
 5961POPC   C2B15020  30.518  28.197   8.253
 5961POPC   C3B15021  30.536  28.218   7.953
 5961POPC   C4B15022  30.535  28.143   7.653
 5962POPC   NC315023  36.903  12.809   9.453
 5962POPC   PO415024  36.930  12.883   9.153
 5962POPC   GL115025  36.910  12.836   8.853
 5962POPC   GL215026  36.977  12.764   8.853
 5962POPC   C1A15027  36.934  12.846   8.553
 5962POPC   D2A15028  36.953  12.852   8.253
 5962POPC   C3A15029  36.889  12.864   7.953
 5962POPC   C4A15030  36.917  12.872   7.653
 5962POPC   C1B15031  37.017  12.669   8.553
 5962POPC   C2B15032  36.981  12.633   8.253
 5962POPC   C3B15033  37.017  12.575   7.953
 5962POPC   C4B15034  36.981  12.626   7.653
 5963POPC   NC315035  37.678   2.731   9.453
 5963POPC   PO415036  37.636   2.800   9.153
 5963POPC   GL115037  37.643   2.765   8.853
 5963POPC   GL215038  37.733   2.730   8.853
 5963POPC   C1A15039  37.679   2.814   8.553
 5963POPC   D2A15040  37.677   2.741   8.253
 5963POPC   C3A15041  37.717   2.735   7.953
 5963POPC   C4A15042  37.641   2.790   7.653
 5963POPC   C1B15043  37.820   2.582   8.553
 5963POPC   C2B15044  37.820   2.594   8.253
 5963POPC   C3B15045  37.882   2.629   7.953
 5963POPC   C4B15046  37.851   2.638   7.653
 5964POPC   NC315047  26.020  23.686   9.453
 5964POPC   PO415048  26.077  23.747   9.153
 5964POPC   GL115049  26.002  23.673   8.853
 5964POPC   GL215050  25.891  23.788   8.853
 5964POPC   C1A15051  26.009  23.751   8.553
 5964POPC   D2A15052  26.049  23.666   8.253
 5964POPC   C3A15053  26.084  23.695   7.953
 5964POPC   C4A15054  26.025  23.760   7.653
 5964POPC   C1B15055  25.819  23.846   8.553
 5964POPC   C2B15056  25.851  23.896   8.253
 5964POPC   C3B15057  25.876  23.865   7.953
 5964POPC   C4B15058  25.881  23.856   7.653
 5965POPC   NC315059  23.693   3.568   9.453
 5965POPC   PO415060  23.668   3.542   9.153
 5965POPC   GL115061  23.730   3.502   8.853
 5965POPC   GL215062  23.790   3.669   8.853
 5965POPC   C1A15063  23.713   3.535   8.553
 5965POPC   D2A15064  23.714   3.568   8.253
 5965POPC   C3A15065  23.667   3.509   7.953
 5965POPC   C4A15066  23.717   3.581   7.653
 5965POPC   C1B15067  23.872   3.660   8.553
 5965POPC   C2B15068  23.874   3.686   8.253
 5965POPC   C3B15069  23.951   3.707   7.953
 5965POPC   C4B15070  23.956   3.727   7.653
 5966POPC   NC315071   5.133  11.303   9.453
 5966POPC   PO415072   5.133  11.253   9.153
 5966POPC   GL115073   5.090  11.344   8.853
 5966POPC   GL215074   5.180  11.364   8.853
 5966POPC   C1A15075   5.066  11.285   8.553
 5966POPC   D2A15076   5.111  11.270   8.253
 5966POPC   C3A15077   5.114  11.339   7.953
 5966POPC   C4A15078   5.096  11.288   7.653
 5966POPC   C1B15079   5.243  11.455   8.553
 5966POPC   C2B15080   5.243  11.446   8.253
 5966POPC   C3B15081   5.294  11.490   7.953
 5966POPC   C4B15082   5.256  11.445   7.653
 5967POPC   NC315083   3.578   6.671   9.453
 5967POPC   PO415084   3.562   6.657   9.153
 5967POPC   GL115085   3.552   6.685   8.853
 5967POPC   GL215086   3.638   6.745   8.853
 5967POPC   C1A15087   3.587   6.654   8.553
 5967POPC   D2A15088   3.499   6.614   8.253
 5967POPC   C3A15089   3.506   6.688   7.953
 5967POPC   C4A15090   3.524   6.609   7.653
 5967POPC   C1B15091   3.719   6.793   8.553
 5967POPC   C2B15092   3.702   6.832   8.253
 5967POPC   C3B15093   3.738   6.788   7.953
 5967POPC   C4B15094   3.757   6.791   7.653
 5968POPC   NC315095  40.819  26.852   9.453
 5968POPC   PO415096  40.745  26.843   9.153
 5968POPC   GL115097  40.747  26.803   8.853
 5968POPC   GL215098  40.700  26.942   8.853
 5968POPC   C1A15099  40.791  26.864   8.553
 5968POPC   D2A15100  40.797  26.783   8.253
 5968POPC   C3A15101  40.778  26.783   7.953
 5968POPC   C4A15102  40.771  26.769   7.653
 5968POPC   C1B15103  40.676  27.039   8.553
 5968POPC   C2B15104  40.657  27.008   8.253
 5968POPC   C3B15105  40.730  27.071   7.953
 5968POPC   C4B15106  40.731  27.023   7.653
 5969POPC   NC315107  43.101  28.320   9.453
 5969POPC   PO415108  43.150  28.325   9.153
 5969POPC   GL115109  43.065  28.365   8.853
 5969POPC   GL215110  42.994  28.386   8.853
 5969POPC   C1A15111  43.071  28.334   8.553
 5969POPC   D2A15112  43.123  28.350   8.253
 5969POPC   C3A15113  43.112  28.368   7.953
 5969POPC   C4A15114  43.096  28.381   7.653
 5969POPC   C1B15115  42.875  28.426   8.553
 5969POPC   C2B15116  42.863  28.496   8.253
 5969POPC   C3B15117  42.858  28.491   7.953
 5969POPC   C4B15118  42.926  28.483   7.653
 5970POPC   NC315119  42.302  29.128   9.453
 5970POPC   PO415120  42.330  29.101   9.153
 5970POPC   GL115121  42.330  29.184   8.853
 5970POPC   GL215122  42.245  29.216   8.853
 5970POPC   C1A15123  42.331  29.115   8.553
 5970POPC   D2A15124  42.351  29.121   8.253
 5970POPC   C3A15125  42.342  29.168   7.953
 5970POPC   C4A15126  42.380  29.128   7.653
 5970POPC   C1B15127  42.218  29.367   8.553
 5970POPC   C2B15128  42.230  29.394   8.253
 5970POPC   C3B15129  42.227  29.377   7.953
 5970POPC   C4B15130  42.295  29.356   7.653
 5971POPC   NC315131  20.626   2.721   9.453
 5971POPC   PO415132  20.654   2.776   9.153
 5971POPC   GL115133  20.649   2.725   8.853
 5971POPC   GL215134  20.548   2.882   8.853
 5971POPC   C1A15135  20.615   2.806   8.553
 5971POPC   D2A15136  20.589   2.785   8.253
 5971POPC   C3A15137  20.654   2.725   7.953
 5971POPC   C4A15138  20.570   2.806   7.653
 5971POPC   C1B15139  20.469   2.949   8.553
 5971POPC   C2B15140  20.455   2.960   8.253
 5971POPC   C3B15141  20.501   2.969   7.953
 5971POPC   C4B15142  20.432   2.924   7.653
 5972POPC   NC315143  16.767   2.779   9.453
 5972POPC   PO415144  16.772   2.788   9.153
 5972POPC   GL115145  16.727   2.730   8.853
 5972POPC   GL215146  16.862   2.757   8.853
 5972POPC   C1A15147  16.696   2.782   8.553
 5972POPC   D2A15148  16.770   2.729   8.253
 5972POPC   C3A15149  16.721   2.721   7.953
 5972POPC   C4A15150  16.715   2.761   7.653
 5972POPC   C1B15151  16.937   2.726   8.553
 5972POPC   C2B15152  16.952   2.670   8.253
 5972POPC   C3B15153  16.997   2.701   7.953
 5972POPC   C4B15154  17.024   2.714   7.653
 5973POPC   NC315155  15.195   3.525   9.453
 5973POPC   PO415156  15.144   3.536   9.153
 5973POPC   GL115157  15.221   3.546   8.853
 5973POPC   GL215158  15.264   3.677   8.853
 5973POPC   C1A15159  15.180   3.519   8.553
 5973POPC   D2A15160  15.176   3.551   8.253
 5973POPC   C3A15161  15.193   3.546   7.953
 5973POPC   C4A15162  15.217   3.584   7.653
 5973POPC   C1B15163  15.279   3.824   8.553
 5973POPC   C2B15164  15.266   3.808   8.253
 5973POPC   C3B15165  15.220   3.741   7.953
 5973POPC   C4B15166  15.222   3.767   7.653
 5974POPC   NC315167  13.614   3.567   9.453
 5974POPC   PO415168  13.650   3.574   9.153
 5974POPC   GL115169  13.610   3.533   8.853
 5974POPC   GL215170  13.685   3.436   8.853
 5974POPC   C1A15171  13.625   3.576   8.553
 5974POPC   D2A15172  13.585   3.492   8.253
 5974POPC   C3A15173  13.606   3.500   7.953
 5974POPC   C4A15174  13.623   3.525   7.653
 5974POPC   C1B15175  13.847   3.369   8.553
 5974POPC   C2B15176  13.815   3.369   8.253
 5974POPC   C3B15177  13.778   3.357   7.953
 5974POPC   C4B15178  13.845   3.373   7.653
 5975POPC   NC315179  10.503  35.337   9.453
 5975POPC   PO415180  10.520  35.371   9.153
 5975POPC   GL115181  10.498  35.342   8.853
 5975POPC   GL215182  10.606  35.351   8.853
 5975POPC   C1A15183  10.573  35.323   8.553
 5975POPC   D2A15184  10.485  35.316   8.253
 5975POPC   C3A15185  10.498  35.380   7.953
 5975POPC   C4A15186  10.475  35.322   7.653
 5975POPC   C1B15187  10.738  35.284   8.553
 5975POPC   C2B15188  10.745  35.260   8.253
 5975POPC   C3B15189  10.768  35.263   7.953
 5975POPC   C4B15190  10.747  35.325   7.653
 5976POPC   NC315191   1.998   8.191   9.453
 5976POPC   PO415192   2.032   8.214   9.153
 5976POPC   GL115193   1.982   8.162   8.853
 5976POPC   GL215194   1.960   8.344   8.853
 5976POPC   C1A15195   1.952   8.178   8.553
 5976POPC   D2A15196   2.023   8.244   8.253
 5976POPC   C3A15197   1.974   8.226   7.953
 5976POPC   C4A15198   1.997   8.151   7.653
 5976POPC   C1B15199   1.899   8.423   8.553
 5976POPC   C2B15200   1.868   8.423   8.253
 5976POPC   C3B15201   1.868   8.450   7.953
 5976POPC   C4B15202   1.946   8.394   7.653
 5977POPC   NC315203   6.619  35.377   9.453
 5977POPC   PO415204   6.642  35.397   9.153
 5977POPC   GL115205   6.667  35.383   8.853
 5977POPC   GL215206   6.723  35.201   8.853
 5977POPC   C1A15207   6.599  35.343   8.553
 5977POPC   D2A15208   6.681  35.387   8.253
 5977POPC   C3A15209   6.669  35.347   7.953
 5977POPC   C4A15210   6.633  35.385   7.653
 5977POPC   C1B15211   6.805  35.088   8.553
 5977POPC   C2B15212   6.714  35.167   8.253
 5977POPC   C3B15213   6.777  35.086   7.953
 5977POPC   C4B15214   6.751  35.134   7.653
 5978POPC   NC315215  22.200  37.719   9.453
 5978POPC   PO415216  22.187  37.650   9.153
 5978POPC   GL115217  22.129  37.676   8.853
 5978POPC   GL215218  22.081  37.707   8.853
 5978POPC   C1A15219  22.186  37.676   8.553
 5978POPC   D2A15220  22.155  37.685   8.253
 5978POPC   C3A15221  22.129  37.724   7.953
 5978POPC   C4A15222  22.124  37.680   7.653
 5978POPC   C1B15223  21.988  37.837   8.553
 5978POPC   C2B15224  21.946  37.786   8.253
 5978POPC   C3B15225  21.983  37.865   7.953
 5978POPC   C4B15226  21.913  37.796   7.653
 5979POPC   NC315227  11.345   5.869   9.453
 5979POPC   PO415228  11.258   5.908   9.153
 5979POPC   GL115229  11.302   5.824   8.853
 5979POPC   GL215230  11.420   5.802   8.853
 5979POPC   C1A15231  11.268   5.846   8.553
 5979POPC   D2A15232  11.270   5.891   8.253
 5979POPC   C3A15233  11.350   5.827   7.953
 5979POPC   C4A15234  11.343   5.918   7.653
 5979POPC   C1B15235  11.548   5.791   8.553
 5979POPC   C2B15236  11.570   5.828   8.253
 5979POPC   C3B15237  11.510   5.793   7.953
 5979POPC   C4B15238  11.505   5.793   7.653
 5980POPC   NC315239  17.478  36.905   9.453
 5980POPC   PO415240  17.509  36.865   9.153
 5980POPC   GL115241  17.474  36.906   8.853
 5980POPC   GL215242  17.542  36.763   8.853
 5980POPC   C1A15243  17.540  36.953   8.553
 5980POPC   D2A15244  17.462  36.924   8.253
 5980POPC   C3A15245  17.492  36.865   7.953
 5980POPC   C4A15246  17.480  36.919   7.653
 5980POPC   C1B15247  17.555  36.630   8.553
 5980POPC   C2B15248  17.569  36.651   8.253
 5980POPC   C3B15249  17.582  36.642   7.953
 5980POPC   C4B15250  17.558  36.682   7.653
 5981POPC   NC315251  34.562  24.535   9.453
 5981POPC   PO415252  34.560  24.535   9.153
 5981POPC   GL115253  34.597  24.462   8.853
 5981POPC   GL215254  34.740  24.440   8.853
 5981POPC   C1A15255  34.604  24.518   8.553
 5981POPC   D2A15256  34.572  24.509   8.253
 5981POPC   C3A15257  34.622  24.478   7.953
 5981POPC   C4A15258  34.625  24.452   7.653
 5981POPC   C1B15259  34.844  24.402   8.553
 5981POPC   C2B15260  34.828  24.453   8.253
 5981POPC   C3B15261  34.843  24.410   7.953
 5981POPC   C4B15262  34.799  24.472   7.653
 5982POPC   NC315263   8.196  16.711   9.453
 5982POPC   PO415264   8.197  16.764   9.153
 5982POPC   GL115265   8.159  16.738   8.853
 5982POPC   GL215266   8.239  16.653   8.853
 5982POPC   C1A15267   8.160  16.681   8.553
 5982POPC   D2A15268   8.237  16.769   8.253
 5982POPC   C3A15269   8.154  16.767   7.953
 5982POPC   C4A15270   8.235  16.718   7.653
 5982POPC   C1B15271   8.318  16.553   8.553
 5982POPC   C2B15272   8.292  16.548   8.253
 5982POPC   C3B15273   8.323  16.516   7.953
 5982POPC   C4B15274   8.363  16.482   7.653
 5983POPC   NC315275  29.918  19.049   9.453
 5983POPC   PO415276  29.902  19.024   9.153
 5983POPC   GL115277  29.897  19.059   8.853
 5983POPC   GL215278  30.039  18.928   8.853
 5983POPC   C1A15279  29.931  19.075   8.553
 5983POPC   D2A15280  29.877  19.102   8.253
 5983POPC   C3A15281  29.967  19.074   7.953
 5983POPC   C4A15282  29.952  19.042   7.653
 5983POPC   C1B15283  30.126  18.868   8.553
 5983POPC   C2B15284  30.112  18.883   8.253
 5983POPC   C3B15285  30.073  18.874   7.953
 5983POPC   C4B15286  30.081  18.863   7.653
 5984POPC   NC315287  27.641   0.476   9.453
 5984POPC   PO415288  27.559   0.404   9.153
 5984POPC   GL115289  27.571   0.431   8.853
 5984POPC   GL215290  27.493   0.396   8.853
 5984POPC   C1A15291  27.578   0.428   8.553
 5984POPC   D2A15292  27.553   0.442   8.253
 5984POPC   C3A15293  27.566   0.486   7.953
 5984POPC   C4A15294  27.552   0.436   7.653
 5984POPC   C1B15295  27.357   0.440   8.553
 5984POPC   C2B15296  27.311   0.435   8.253
 5984POPC   C3B15297  27.296   0.393   7.953
 5984POPC   C4B15298  27.357   0.385   7.653
 5985POPC   NC315299  16.000  11.264   9.453
 5985POPC   PO415300  15.986  11.268   9.153
 5985POPC   GL115301  15.929  11.258   8.853
 5985POPC   GL215302  16.030  11.232   8.853
 5985POPC   C1A15303  15.908  11.336   8.553
 5985POPC   D2A15304  15.937  11.314   8.253
 5985POPC   C3A15305  15.948  11.257   7.953
 5985POPC   C4A15306  15.921  11.251   7.653
 5985POPC   C1B15307  16.052  11.124   8.553
 5985POPC   C2B15308  16.071  11.086   8.253
 5985POPC   C3B15309  16.105  11.069   7.953
 5985POPC   C4B15310  16.077  11.108   7.653
 5986POPC   NC315311   0.437   6.625   9.453
 5986POPC   PO415312   0.448   6.641   9.153
 5986POPC   GL115313   0.485   6.681   8.853
 5986POPC   GL215314   0.578   6.585   8.853
 5986POPC   C1A15315   0.414   6.643   8.553
 5986POPC   D2A15316   0.398   6.687   8.253
 5986POPC   C3A15317   0.466   6.642   7.953
 5986POPC   C4A15318   0.459   6.670   7.653
 5986POPC   C1B15319   0.643   6.632   8.553
 5986POPC   C2B15320   0.705   6.642   8.253
 5986POPC   C3B15321   0.652   6.641   7.953
 5986POPC   C4B15322   0.722   6.604   7.653
 5987POPC   NC315323  10.542  39.229   9.453
 5987POPC   PO415324  10.503  39.213   9.153
 5987POPC   GL115325  10.533  39.193   8.853
 5987POPC   GL215326  10.402  39.150   8.853
 5987POPC   C1A15327  10.543  39.247   8.553
 5987POPC   D2A15328  10.504  39.203   8.253
 5987POPC   C3A15329  10.478  39.201   7.953
 5987POPC   C4A15330  10.560  39.260   7.653
 5987POPC   C1B15331  10.351  39.019   8.553
 5987POPC   C2B15332  10.305  39.103   8.253
 5987POPC   C3B15333  10.385  39.017   7.953
 5987POPC   C4B15334  10.358  39.035   7.653
 5988POPC   NC315335  31.429  16.736   9.453
 5988POPC   PO415336  31.449  16.757   9.153
 5988POPC   GL115337  31.464  16.699   8.853
 5988POPC   GL215338  31.567  16.699   8.853
 5988POPC   C1A15339  31.495  16.731   8.553
 5988POPC   D2A15340  31.449  16.730   8.253
 5988POPC   C3A15341  31.450  16.684   7.953
 5988POPC   C4A15342  31.455  16.698   7.653
 5988POPC   C1B15343  31.728  16.678   8.553
 5988POPC   C2B15344  31.700  16.640   8.253
 5988POPC   C3B15345  31.765  16.653   7.953
 5988POPC   C4B15346  31.716  16.689   7.653
 5989POPC   NC315347  39.188  12.829   9.453
 5989POPC   PO415348  39.280  12.812   9.153
 5989POPC   GL115349  39.187  12.897   8.853
 5989POPC   GL215350  39.284  12.942   8.853
 5989POPC   C1A15351  39.215  12.827   8.553
 5989POPC   D2A15352  39.201  12.827   8.253
 5989POPC   C3A15353  39.251  12.848   7.953
 5989POPC   C4A15354  39.223  12.885   7.653
 5989POPC   C1B15355  39.270  13.092   8.553
 5989POPC   C2B15356  39.277  13.062   8.253
 5989POPC   C3B15357  39.267  13.059   7.953
 5989POPC   C4B15358  39.289  13.057   7.653
 5990POPC   NC315359  19.868  11.257   9.453
 5990POPC   PO415360  19.833  11.264   9.153
 5990POPC   GL115361  19.862  11.278   8.853
 5990POPC   GL215362  19.724  11.262   8.853
 5990POPC   C1A15363  19.863  11.327   8.553
 5990POPC   D2A15364  19.871  11.325   8.253
 5990POPC   C3A15365  19.786  11.337   7.953
 5990POPC   C4A15366  19.878  11.329   7.653
 5990POPC   C1B15367  19.553  11.228   8.553
 5990POPC   C2B15368  19.635  11.221   8.253
 5990POPC   C3B15369  19.582  11.264   7.953
 5990POPC   C4B15370  19.564  11.196   7.653
 5991POPC   NC315371  18.316  43.862   9.453
 5991POPC   PO415372  18.266  43.842   9.153
 5991POPC   GL115373  18.239  43.854   8.853
 5991POPC   GL215374  18.132  43.911   8.853
 5991POPC   C1A15375  18.249  43.875   8.553
 5991POPC   D2A15376  18.308  43.875   8.253
 5991POPC   C3A15377  18.324  43.867   7.953
 5991POPC   C4A15378  18.244  43.891   7.653
 5991POPC   C1B15379  18.027  44.053   8.553
 5991POPC   C2B15380  18.032  43.963   8.253
 5991POPC   C3B15381  18.042  44.009   7.953
 5991POPC   C4B15382  18.068  44.050   7.653
 5992POPC   NC315383  38.461   8.927   9.453
 5992POPC   PO415384  38.428   9.007   9.153
 5992POPC   GL115385  38.431   8.971   8.853
 5992POPC   GL215386  38.512   8.857   8.853
 5992POPC   C1A15387  38.417   8.956   8.553
 5992POPC   D2A15388  38.422   8.937   8.253
 5992POPC   C3A15389  38.449   8.960   7.953
 5992POPC   C4A15390  38.484   8.935   7.653
 5992POPC   C1B15391  38.588   8.761   8.553
 5992POPC   C2B15392  38.630   8.784   8.253
 5992POPC   C3B15393  38.639   8.820   7.953
 5992POPC   C4B15394  38.576   8.824   7.653
 5993POPC   NC315395  13.657  19.012   9.453
 5993POPC   PO415396  13.610  19.015   9.153
 5993POPC   GL115397  13.651  19.034   8.853
 5993POPC   GL215398  13.625  18.971   8.853
 5993POPC   C1A15399  13.658  19.060   8.553
 5993POPC   D2A15400  13.609  19.052   8.253
 5993POPC   C3A15401  13.643  19.014   7.953
 5993POPC   C4A15402  13.605  19.023   7.653
 5993POPC   C1B15403  13.564  18.804   8.553
 5993POPC   C2B15404  13.597  18.816   8.253
 5993POPC   C3B15405  13.610  18.790   7.953
 5993POPC   C4B15406  13.521  18.830   7.653
 5994POPC   NC315407  41.603  22.192   9.453
 5994POPC   PO415408  41.561  22.155   9.153
 5994POPC   GL115409  41.524  22.168   8.853
 5994POPC   GL215410  41.525  22.278   8.853
 5994POPC   C1A15411  41.509  22.120   8.553
 5994POPC   D2A15412  41.592  22.193   8.253
 5994POPC   C3A15413  41.559  22.123   7.953
 5994POPC   C4A15414  41.568  22.114   7.653
 5994POPC   C1B15415  41.440  22.366   8.553
 5994POPC   C2B15416  41.480  22.364   8.253
 5994POPC   C3B15417  41.459  22.414   7.953
 5994POPC   C4B15418  41.432  22.344   7.653
 5995POPC   NC315419   0.472  22.928   9.453
 5995POPC   PO415420   0.437  22.965   9.153
 5995POPC   GL115421   0.443  22.971   8.853
 5995POPC   GL215422   0.533  22.906   8.853
 5995POPC   C1A15423   0.465  22.947   8.553
 5995POPC   D2A15424   0.409  22.899   8.253
 5995POPC   C3A15425   0.430  22.956   7.953
 5995POPC   C4A15426   0.477  22.944   7.653
 5995POPC   C1B15427   0.637  22.953   8.553
 5995POPC   C2B15428   0.695  22.905   8.253
 5995POPC   C3B15429   0.726  22.959   7.953
 5995POPC   C4B15430   0.733  22.894   7.653
 5996POPC   NC315431  17.469  29.965   9.453
 5996POPC   PO415432  17.489  29.916   9.153
 5996POPC   GL115433  17.512  29.954   8.853
 5996POPC   GL215434  17.574  29.881   8.853
 5996POPC   C1A15435  17.474  29.918   8.553
 5996POPC   D2A15436  17.552  29.951   8.253
 5996POPC   C3A15437  17.541  29.959   7.953
 5996POPC   C4A15438  17.491  29.946   7.653
 5996POPC   C1B15439  17.779  29.797   8.553
 5996POPC   C2B15440  17.710  29.834   8.253
 5996POPC   C3B15441  17.747  29.799   7.953
 5996POPC   C4B15442  17.695  29.776   7.653
 5997POPC   NC315443  20.585  17.517   9.453
 5997POPC   PO415444  20.659  17.490   9.153
 5997POPC   GL115445  20.584  17.479   8.853
 5997POPC   GL215446  20.598  17.637   8.853
 5997POPC   C1A15447  20.654  17.474   8.553
 5997POPC   D2A15448  20.600  17.497   8.253
 5997POPC   C3A15449  20.560  17.540   7.953
 5997POPC   C4A15450  20.644  17.510   7.653
 5997POPC   C1B15451  20.622  17.712   8.553
 5997POPC   C2B15452  20.681  17.724   8.253
 5997POPC   C3B15453  20.617  17.759   7.953
 5997POPC   C4B15454  20.654  17.723   7.653
 5998POPC   NC315455  42.324  26.034   9.453
 5998POPC   PO415456  42.373  26.084   9.153
 5998POPC   GL115457  42.358  26.046   8.853
 5998POPC   GL215458  42.250  25.942   8.853
 5998POPC   C1A15459  42.342  26.081   8.553
 5998POPC   D2A15460  42.303  26.039   8.253
 5998POPC   C3A15461  42.300  26.041   7.953
 5998POPC   C4A15462  42.303  26.029   7.653
 5998POPC   C1B15463  42.238  25.859   8.553
 5998POPC   C2B15464  42.188  25.794   8.253
 5998POPC   C3B15465  42.200  25.858   7.953
 5998POPC   C4B15466  42.192  25.771   7.653
 5999POPC   NC315467  11.251  14.370   9.453
 5999POPC   PO415468  11.350  14.443   9.153
 5999POPC   GL115469  11.255  14.393   8.853
 5999POPC   GL215470  11.239  14.260   8.853
 5999POPC   C1A15471  11.291  14.361   8.553
 5999POPC   D2A15472  11.257  14.445   8.253
 5999POPC   C3A15473  11.276  14.421   7.953
 5999POPC   C4A15474  11.310  14.390   7.653
 5999POPC   C1B15475  11.234  14.178   8.553
 5999POPC   C2B15476  11.303  14.139   8.253
 5999POPC   C3B15477  11.274  14.136   7.953
 5999POPC   C4B15478  11.297  14.191   7.653
 6000POPC   NC315479  39.217   2.800   9.453
 6000POPC   PO415480  39.266   2.787   9.153
 6000POPC   GL115481  39.210   2.717   8.853
 6000POPC   GL215482  39.144   2.742   8.853
 6000POPC   C1A15483  39.196   2.742   8.553
 6000POPC   D2A15484  39.271   2.787   8.253
 6000POPC   C3A15485  39.186   2.809   7.953
 6000POPC   C4A15486  39.220   2.745   7.653
 6000POPC   C1B15487  39.008   2.829   8.553
 6000POPC   C2B15488  38.971   2.824   8.253
 6000POPC   C3B15489  38.933   2.837   7.953
 6000POPC   C4B15490  39.021   2.802   7.653
 6001POPC   NC315491   4.293   5.094   9.453
 6001POPC   PO415492   4.357   5.055   9.153
 6001POPC   GL115493   4.326   5.117   8.853
 6001POPC   GL215494   4.419   5.074   8.853
 6001POPC   C1A15495   4.295   5.068   8.553
 6001POPC   D2A15496   4.339   5.121   8.253
 6001POPC   C3A15497   4.365   5.082   7.953
 6001POPC   C4A15498   4.271   5.128   7.653
 6001POPC   C1B15499   4.519   5.133   8.553
 6001POPC   C2B15500   4.580   5.067   8.253
 6001POPC   C3B15501   4.542   5.093   7.953
 6001POPC   C4B15502   4.528   5.061   7.653
 6002POPC   NC315503  10.493   2.802   9.453
 6002POPC   PO415504  10.491   2.747   9.153
 6002POPC   GL115505  10.568   2.739   8.853
 6002POPC   GL215506  10.482   2.630   8.853
 6002POPC   C1A15507  10.555   2.752   8.553
 6002POPC   D2A15508  10.517   2.808   8.253
 6002POPC   C3A15509  10.504   2.772   7.953
 6002POPC   C4A15510  10.547   2.723   7.653
 6002POPC   C1B15511  10.410   2.572   8.553
 6002POPC   C2B15512  10.445   2.539   8.253
 6002POPC   C3B15513  10.398   2.502   7.953
 6002POPC   C4B15514  10.415   2.575   7.653
 6003POPC   NC315515  24.516  30.657   9.453
 6003POPC   PO415516  24.534  30.706   9.153
 6003POPC   GL115517  24.450  30.709   8.853
 6003POPC   GL215518  24.594  30.615   8.853
 6003POPC   C1A15519  24.488  30.666   8.553
 6003POPC   D2A15520  24.500  30.688   8.253
 6003POPC   C3A15521  24.457  30.687   7.953
 6003POPC   C4A15522  24.514  30.686   7.653
 6003POPC   C1B15523  24.648  30.489   8.553
 6003POPC   C2B15524  24.704  30.499   8.253
 6003POPC   C3B15525  24.642  30.539   7.953
 6003POPC   C4B15526  24.706  30.501   7.653
 6004POPC   NC315527  36.109   5.846   9.453
 6004POPC   PO415528  36.095   5.826   9.153
 6004POPC   GL115529  36.171   5.831   8.853
 6004POPC   GL215530  36.209   5.762   8.853
 6004POPC   C1A15531  36.175   5.832   8.553
 6004POPC   D2A15532  36.095   5.897   8.253
 6004POPC   C3A15533  36.095   5.904   7.953
 6004POPC   C4A15534  36.175   5.885   7.653
 6004POPC   C1B15535  36.294   5.677   8.553
 6004POPC   C2B15536  36.360   5.718   8.253
 6004POPC   C3B15537  36.358   5.674   7.953
 6004POPC   C4B15538  36.282   5.722   7.653
 6005POPC   NC315539   8.178  29.174   9.453
 6005POPC   PO415540   8.227  29.156   9.153
 6005POPC   GL115541   8.155  29.144   8.853
 6005POPC   GL215542   8.078  29.128   8.853
 6005POPC   C1A15543   8.202  29.192   8.553
 6005POPC   D2A15544   8.225  29.118   8.253
 6005POPC   C3A15545   8.224  29.183   7.953
 6005POPC   C4A15546   8.156  29.182   7.653
 6005POPC   C1B15547   7.982  29.126   8.553
 6005POPC   C2B15548   7.909  29.111   8.253
 6005POPC   C3B15549   7.903  29.139   7.953
 6005POPC   C4B15550   7.947  29.132   7.653
 6006POPC   NC315551  12.830  16.775   9.453
 6006POPC   PO415552  12.811  16.707   9.153
 6006POPC   GL115553  12.895  16.775   8.853
 6006POPC   GL215554  12.816  16.592   8.853
 6006POPC   C1A15555  12.864  16.739   8.553
 6006POPC   D2A15556  12.865  16.702   8.253
 6006POPC   C3A15557  12.886  16.758   7.953
 6006POPC   C4A15558  12.828  16.743   7.653
 6006POPC   C1B15559  12.799  16.531   8.553
 6006POPC   C2B15560  12.834  16.496   8.253
 6006POPC   C3B15561  12.808  16.500   7.953
 6006POPC   C4B15562  12.827  16.531   7.653
 6007POPC   NC315563  43.088  36.908   9.453
 6007POPC   PO415564  43.150  36.915   9.153
 6007POPC   GL115565  43.098  36.922   8.853
 6007POPC   GL215566  43.240  36.995   8.853
 6007POPC   C1A15567  43.130  36.892   8.553
 6007POPC   D2A15568  43.087  36.869   8.253
 6007POPC   C3A15569  43.084  36.932   7.953
 6007POPC   C4A15570  43.070  36.936   7.653
 6007POPC   C1B15571  43.244  37.079   8.553
 6007POPC   C2B15572  43.317  37.063   8.253
 6007POPC   C3B15573  43.280  37.063   7.953
 6007POPC   C4B15574  43.308  37.133   7.653
 6008POPC   NC315575  31.479  10.556   9.453
 6008POPC   PO415576  31.431  10.552   9.153
 6008POPC   GL115577  31.453  10.478   8.853
 6008POPC   GL215578  31.613  10.488   8.853
 6008POPC   C1A15579  31.446  10.528   8.553
 6008POPC   D2A15580  31.429  10.509   8.253
 6008POPC   C3A15581  31.440  10.520   7.953
 6008POPC   C4A15582  31.498  10.524   7.653
 6008POPC   C1B15583  31.688  10.412   8.553
 6008POPC   C2B15584  31.669  10.491   8.253
 6008POPC   C3B15585  31.678  10.446   7.953
 6008POPC   C4B15586  31.759  10.448   7.653
 6009POPC   NC315587  40.025  12.875   9.453
 6009POPC   PO415588  40.054  12.848   9.153
 6009POPC   GL115589  40.025  12.814   8.853
 6009POPC   GL215590  39.876  12.869   8.853
 6009POPC   C1A15591  40.002  12.804   8.553
 6009POPC   D2A15592  39.965  12.853   8.253
 6009POPC   C3A15593  39.972  12.872   7.953
 6009POPC   C4A15594  40.043  12.892   7.653
 6009POPC   C1B15595  39.723  12.802   8.553
 6009POPC   C2B15596  39.735  12.842   8.253
 6009POPC   C3B15597  39.791  12.772   7.953
 6009POPC   C4B15598  39.755  12.834   7.653
 6010POPC   NC315599  32.234  26.004   9.453
 6010POPC   PO415600  32.246  26.053   9.153
 6010POPC   GL115601  32.284  26.068   8.853
 6010POPC   GL215602  32.182  26.156   8.853
 6010POPC   C1A15603  32.278  25.998   8.553
 6010POPC   D2A15604  32.215  26.048   8.253
 6010POPC   C3A15605  32.287  26.055   7.953
 6010POPC   C4A15606  32.298  26.030   7.653
 6010POPC   C1B15607  32.133  26.267   8.553
 6010POPC   C2B15608  32.095  26.228   8.253
 6010POPC   C3B15609  32.103  26.189   7.953
 6010POPC   C4B15610  32.100  26.207   7.653
 6011POPC   NC315611   0.399   8.246   9.453
 6011POPC   PO415612   0.441   8.201   9.153
 6011POPC   GL115613   0.389   8.229   8.853
 6011POPC   GL215614   0.436   8.078   8.853
 6011POPC   C1A15615   0.404   8.222   8.553
 6011POPC   D2A15616   0.467   8.148   8.253
 6011POPC   C3A15617   0.421   8.182   7.953
 6011POPC   C4A15618   0.454   8.212   7.653
 6011POPC   C1B15619   0.543   7.912   8.553
 6011POPC   C2B15620   0.547   7.920   8.253
 6011POPC   C3B15621   0.473   7.988   7.953
 6011POPC   C4B15622   0.526   7.989   7.653
 6012POPC   NC315623  24.506  36.153   9.453
 6012POPC   PO415624  24.442  36.143   9.153
 6012POPC   GL115625  24.440  36.154   8.853
 6012POPC   GL215626  24.375  36.193   8.853
 6012POPC   C1A15627  24.482  36.084   8.553
 6012POPC   D2A15628  24.530  36.128   8.253
 6012POPC   C3A15629  24.459  36.110   7.953
 6012POPC   C4A15630  24.489  36.132   7.653
 6012POPC   C1B15631  24.260  36.185   8.553
 6012POPC   C2B15632  24.208  36.208   8.253
 6012POPC   C3B15633  24.260  36.157   7.953
 6012POPC   C4B15634  24.289  36.166   7.653
 6013POPC   NC315635   5.098  43.866   9.453
 6013POPC   PO415636   5.063  43.897   9.153
 6013POPC   GL115637   5.127  43.880   8.853
 6013POPC   GL215638   5.233  43.948   8.853
 6013POPC   C1A15639   5.107  43.842   8.553
 6013POPC   D2A15640   5.076  43.851   8.253
 6013POPC   C3A15641   5.129  43.885   7.953
 6013POPC   C4A15642   5.106  43.907   7.653
 6013POPC   C1B15643   5.371  43.921   8.553
 6013POPC   C2B15644   5.301  43.980   8.253
 6013POPC   C3B15645   5.319  44.002   7.953
 6013POPC   C4B15646   5.366  43.942   7.653
 6014POPC   NC315647  44.624  38.430   9.453
 6014POPC   PO415648  44.662  38.460   9.153
 6014POPC   GL115649  44.652  38.454   8.853
 6014POPC   GL215650  44.592  38.554   8.853
 6014POPC   C1A15651  44.680  38.425   8.553
 6014POPC   D2A15652  44.670  38.453   8.253
 6014POPC   C3A15653  44.636  38.419   7.953
 6014POPC   C4A15654  44.699  38.436   7.653
 6014POPC   C1B15655  44.589  38.699   8.553
 6014POPC   C2B15656  44.591  38.701   8.253
 6014POPC   C3B15657  44.622  38.695   7.953
 6014POPC   C4B15658  44.579  38.712   7.653
 6015POPC   NC315659  35.385  41.566   9.453
 6015POPC   PO415660  35.335  41.593   9.153
 6015POPC   GL115661  35.350  41.513   8.853
 6015POPC   GL215662  35.201  41.619   8.853
 6015POPC   C1A15663  35.398  41.571   8.553
 6015POPC   D2A15664  35.344  41.541   8.253
 6015POPC   C3A15665  35.366  41.590   7.953
 6015POPC   C4A15666  35.392  41.556   7.653
 6015POPC   C1B15667  35.091  41.609   8.553
 6015POPC   C2B15668  35.075  41.648   8.253
 6015POPC   C3B15669  35.144  41.666   7.953
 6015POPC   C4B15670  35.066  41.620   7.653
 6016POPC   NC315671  30.655   0.401   9.453
 6016POPC   PO415672  30.722   0.391   9.153
 6016POPC   GL115673  30.653   0.424   8.853
 6016POPC   GL215674  30.619   0.410   8.853
 6016POPC   C1A15675  30.713   0.442   8.553
 6016POPC   D2A15676  30.719   0.459   8.253
 6016POPC   C3A15677  30.685   0.480   7.953
 6016POPC   C4A15678  30.657   0.419   7.653
 6016POPC   C1B15679  30.446   0.390   8.553
 6016POPC   C2B15680  30.449   0.328   8.253
 6016POPC   C3B15681  30.440   0.345   7.953
 6016POPC   C4B15682  30.454   0.413   7.653
 6017POPC   NC315683  43.128  41.577   9.453
 6017POPC   PO415684  43.156  41.516   9.153
 6017POPC   GL115685  43.156  41.510   8.853
 6017POPC   GL215686  43.130  41.664   8.853
 6017POPC   C1A15687  43.148  41.606   8.553
 6017POPC   D2A15688  43.120  41.567   8.253
 6017POPC   C3A15689  43.138  41.555   7.953
 6017POPC   C4A15690  43.160  41.557   7.653
 6017POPC   C1B15691  43.070  41.778   8.553
 6017POPC   C2B15692  43.124  41.774   8.253
 6017POPC   C3B15693  43.074  41.847   7.953
 6017POPC   C4B15694  43.115  41.831   7.653
 6018POPC   NC315695  33.043  44.706   9.453
 6018POPC   PO415696  33.067  44.706   9.153
 6018POPC   GL115697  32.991  44.659   8.853
 6018POPC   GL215698  32.905  44.665   8.853
 6018POPC   C1A15699  33.034  44.693   8.553
 6018POPC   D2A15700  32.991  44.701   8.253
 6018POPC   C3A15701  33.002  44.653   7.953
 6018POPC   C4A15702  33.025  44.626   7.653
 6018POPC   C1B15703  32.734  44.745   8.553
 6018POPC   C2B15704  32.796  44.702   8.253
 6018POPC   C3B15705  32.761  44.737   7.953
 6018POPC   C4B15706  32.815  44.719   7.653
 6019POPC   NC315707  33.770  19.075   9.453
 6019POPC   PO415708  33.784  19.043   9.153
 6019POPC   GL115709  33.806  19.022   8.853
 6019POPC   GL215710  33.849  18.953   8.853
 6019POPC   C1A15711  33.755  19.092   8.553
 6019POPC   D2A15712  33.750  19.037   8.253
 6019POPC   C3A15713  33.789  19.066   7.953
 6019POPC   C4A15714  33.766  19.019   7.653
 6019POPC   C1B15715  33.973  18.817   8.553
 6019POPC   C2B15716  33.935  18.857   8.253
 6019POPC   C3B15717  33.883  18.825   7.953
 6019POPC   C4B15718  33.929  18.814   7.653
 6020POPC   NC315719  24.460  41.529   9.453
 6020POPC   PO415720  24.478  41.570   9.153
 6020POPC   GL115721  24.498  41.581   8.853
 6020POPC   GL215722  24.461  41.453   8.853
 6020POPC   C1A15723  24.531  41.587   8.553
 6020POPC   D2A15724  24.510  41.606   8.253
 6020POPC   C3A15725  24.529  41.517   7.953
 6020POPC   C4A15726  24.531  41.559   7.653
 6020POPC   C1B15727  24.465  41.261   8.553
 6020POPC   C2B15728  24.495  41.267   8.253
 6020POPC   C3B15729  24.469  41.350   7.953
 6020POPC   C4B15730  24.463  41.286   7.653
 6021POPC   NC315731  17.502  22.203   9.453
 6021POPC   PO415732  17.505  22.135   9.153
 6021POPC   GL115733  17.502  22.196   8.853
 6021POPC   GL215734  17.549  22.278   8.853
 6021POPC   C1A15735  17.502  22.146   8.553
 6021POPC   D2A15736  17.496  22.204   8.253
 6021POPC   C3A15737  17.544  22.175   7.953
 6021POPC   C4A15738  17.459  22.159   7.653
 6021POPC   C1B15739  17.532  22.430   8.553
 6021POPC   C2B15740  17.511  22.443   8.253
 6021POPC   C3B15741  17.574  22.456   7.953
 6021POPC   C4B15742  17.529  22.424   7.653
 6022POPC   NC315743  24.518  18.313   9.453
 6022POPC   PO415744  24.488  18.252   9.153
 6022POPC   GL115745  24.461  18.300   8.853
 6022POPC   GL215746  24.418  18.366   8.853
 6022POPC   C1A15747  24.449  18.321   8.553
 6022POPC   D2A15748  24.481  18.237   8.253
 6022POPC   C3A15749  24.536  18.294   7.953
 6022POPC   C4A15750  24.476  18.270   7.653
 6022POPC   C1B15751  24.327  18.476   8.553
 6022POPC   C2B15752  24.305  18.433   8.253
 6022POPC   C3B15753  24.282  18.505   7.953
 6022POPC   C4B15754  24.344  18.439   7.653
 6023POPC   NC315755  13.651  25.218   9.453
 6023POPC   PO415756  13.580  25.251   9.153
 6023POPC   GL115757  13.672  25.221   8.853
 6023POPC   GL215758  13.711  25.161   8.853
 6023POPC   C1A15759  13.673  25.251   8.553
 6023POPC   D2A15760  13.662  25.256   8.253
 6023POPC   C3A15761  13.632  25.277   7.953
 6023POPC   C4A15762  13.609  25.289   7.653
 6023POPC   C1B15763  13.778  25.093   8.553
 6023POPC   C2B15764  13.753  25.105   8.253
 6023POPC   C3B15765  13.818  25.071   7.953
 6023POPC   C4B15766  13.782  25.052   7.653
 6024POPC   NC315767   5.103  36.858   9.453
 6024POPC   PO415768   5.106  36.891   9.153
 6024POPC   GL115769   5.087  36.904   8.853
 6024POPC   GL215770   4.999  37.017   8.853
 6024POPC   C1A15771   5.128  36.935   8.553
 6024POPC   D2A15772   5.061  36.918   8.253
 6024POPC   C3A15773   5.088  36.905   7.953
 6024POPC   C4A15774   5.121  36.902   7.653
 6024POPC   C1B15775   4.927  37.061   8.553
 6024POPC   C2B15776   4.943  37.137   8.253
 6024POPC   C3B15777   4.987  37.129   7.953
 6024POPC   C4B15778   4.921  37.152   7.653
 6025POPC   NC315779  42.306  12.882   9.453
 6025POPC   PO415780  42.303  12.858   9.153
 6025POPC   GL115781  42.340  12.890   8.853
 6025POPC   GL215782  42.207  12.808   8.853
 6025POPC   C1A15783  42.344  12.878   8.553
 6025POPC   D2A15784  42.342  12.804   8.253
 6025POPC   C3A15785  42.322  12.852   7.953
 6025POPC   C4A15786  42.313  12.887   7.653
 6025POPC   C1B15787  42.091  12.862   8.553
 6025POPC   C2B15788  42.070  12.893   8.253
 6025POPC   C3B15789  42.133  12.892   7.953
 6025POPC   C4B15790  42.086  12.861   7.653
 6026POPC   NC315791  26.807  42.366   9.453
 6026POPC   PO415792  26.836  42.298   9.153
 6026POPC   GL115793  26.777  42.369   8.853
 6026POPC   GL215794  26.903  42.390   8.853
 6026POPC   C1A15795  26.788  42.380   8.553
 6026POPC   D2A15796  26.853  42.381   8.253
 6026POPC   C3A15797  26.771  42.352   7.953
 6026POPC   C4A15798  26.797  42.311   7.653
 6026POPC   C1B15799  27.011  42.545   8.553
 6026POPC   C2B15800  26.993  42.497   8.253
 6026POPC   C3B15801  27.001  42.471   7.953
 6026POPC   C4B15802  27.020  42.471   7.653
 6027POPC   NC315803  32.266   0.428   9.453
 6027POPC   PO415804  32.211   0.398   9.153
 6027POPC   GL115805  32.259   0.406   8.853
 6027POPC   GL215806  32.346   0.337   8.853
 6027POPC   C1A15807  32.208   0.451   8.553
 6027POPC   D2A15808  32.232   0.417   8.253
 6027POPC   C3A15809  32.293   0.409   7.953
 6027POPC   C4A15810  32.280   0.450   7.653
 6027POPC   C1B15811  32.509   0.297   8.553
 6027POPC   C2B15812  32.460   0.294   8.253
 6027POPC   C3B15813  32.416   0.335   7.953
 6027POPC   C4B15814  32.482   0.277   7.653
 6028POPC   NC315815  35.379   8.182   9.453
 6028POPC   PO415816  35.376   8.204   9.153
 6028POPC   GL115817  35.321   8.211   8.853
 6028POPC   GL215818  35.388   8.060   8.853
 6028POPC   C1A15819  35.392   8.168   8.553
 6028POPC   D2A15820  35.356   8.191   8.253
 6028POPC   C3A15821  35.358   8.238   7.953
 6028POPC   C4A15822  35.343   8.231   7.653
 6028POPC   C1B15823  35.321   7.980   8.553
 6028POPC   C2B15824  35.325   7.937   8.253
 6028POPC   C3B15825  35.347   7.993   7.953
 6028POPC   C4B15826  35.290   7.970   7.653
 6029POPC   NC315827  34.534  19.858   9.453
 6029POPC   PO415828  34.600  19.833   9.153
 6029POPC   GL115829  34.539  19.841   8.853
 6029POPC   GL215830  34.600  19.983   8.853
 6029POPC   C1A15831  34.545  19.815   8.553
 6029POPC   D2A15832  34.597  19.804   8.253
 6029POPC   C3A15833  34.583  19.858   7.953
 6029POPC   C4A15834  34.614  19.808   7.653
 6029POPC   C1B15835  34.718  20.082   8.553
 6029POPC   C2B15836  34.658  20.086   8.253
 6029POPC   C3B15837  34.730  20.092   7.953
 6029POPC   C4B15838  34.691  20.077   7.653
 6030POPC   NC315839   2.791  40.803   9.453
 6030POPC   PO415840   2.784  40.832   9.153
 6030POPC   GL115841   2.790  40.823   8.853
 6030POPC   GL215842   2.632  40.804   8.853
 6030POPC   C1A15843   2.782  40.763   8.553
 6030POPC   D2A15844   2.729  40.821   8.253
 6030POPC   C3A15845   2.728  40.744   7.953
 6030POPC   C4A15846   2.811  40.768   7.653
 6030POPC   C1B15847   2.543  40.940   8.553
 6030POPC   C2B15848   2.572  40.948   8.253
 6030POPC   C3B15849   2.546  40.927   7.953
 6030POPC   C4B15850   2.574  40.909   7.653
 6031POPC   NC315851   7.392  26.858   9.453
 6031POPC   PO415852   7.402  26.770   9.153
 6031POPC   GL115853   7.392  26.821   8.853
 6031POPC   GL215854   7.537  26.935   8.853
 6031POPC   C1A15855   7.397  26.823   8.553
 6031POPC   D2A15856   7.420  26.830   8.253
 6031POPC   C3A15857   7.371  26.825   7.953
 6031POPC   C4A15858   7.411  26.787   7.653
 6031POPC   C1B15859   7.595  26.970   8.553
 6031POPC   C2B15860   7.658  26.996   8.253
 6031POPC   C3B15861   7.649  26.991   7.953
 6031POPC   C4B15862   7.625  26.944   7.653
 6032POPC   NC315863  33.780   2.008   9.453
 6032POPC   PO415864  33.814   1.979   9.153
 6032POPC   GL115865  33.770   1.989   8.853
 6032POPC   GL215866  33.788   2.086   8.853
 6032POPC   C1A15867  33.786   2.006   8.553
 6032POPC   D2A15868  33.832   1.953   8.253
 6032POPC   C3A15869  33.775   2.027   7.953
 6032POPC   C4A15870  33.815   1.953   7.653
 6032POPC   C1B15871  33.744   2.214   8.553
 6032POPC   C2B15872  33.722   2.197   8.253
 6032POPC   C3B15873  33.672   2.207   7.953
 6032POPC   C4B15874  33.748   2.246   7.653
 6033POPC   NC315875  23.669  15.981   9.453
 6033POPC   PO415876  23.719  15.922   9.153
 6033POPC   GL115877  23.684  15.968   8.853
 6033POPC   GL215878  23.647  16.004   8.853
 6033POPC   C1A15879  23.669  15.977   8.553
 6033POPC   D2A15880  23.747  15.913   8.253
 6033POPC   C3A15881  23.692  15.967   7.953
 6033POPC   C4A15882  23.683  15.915   7.653
 6033POPC   C1B15883  23.482  16.006   8.553
 6033POPC   C2B15884  23.513  16.045   8.253
 6033POPC   C3B15885  23.436  16.078   7.953
 6033POPC   C4B15886  23.511  16.083   7.653
 6034POPC   NC315887   3.558  19.083   9.453
 6034POPC   PO415888   3.543  19.036   9.153
 6034POPC   GL115889   3.498  19.098   8.853
 6034POPC   GL215890   3.514  19.160   8.853
 6034POPC   C1A15891   3.550  19.106   8.553
 6034POPC   D2A15892   3.576  19.106   8.253
 6034POPC   C3A15893   3.563  19.109   7.953
 6034POPC   C4A15894   3.556  19.036   7.653
 6034POPC   C1B15895   3.435  19.313   8.553
 6034POPC   C2B15896   3.485  19.296   8.253
 6034POPC   C3B15897   3.476  19.278   7.953
 6034POPC   C4B15898   3.500  19.318   7.653
 6035POPC   NC315899  42.292  14.364   9.453
 6035POPC   PO415900  42.307  14.435   9.153
 6035POPC   GL115901  42.311  14.370   8.853
 6035POPC   GL215902  42.239  14.345   8.853
 6035POPC   C1A15903  42.364  14.383   8.553
 6035POPC   D2A15904  42.340  14.365   8.253
 6035POPC   C3A15905  42.360  14.427   7.953
 6035POPC   C4A15906  42.316  14.428   7.653
 6035POPC   C1B15907  42.193  14.234   8.553
 6035POPC   C2B15908  42.181  14.181   8.253
 6035POPC   C3B15909  42.230  14.208   7.953
 6035POPC   C4B15910  42.204  14.160   7.653
 6036POPC   NC315911  12.842  27.627   9.453
 6036POPC   PO415912  12.812  27.582   9.153
 6036POPC   GL115913  12.863  27.602   8.853
 6036POPC   GL215914  12.718  27.654   8.853
 6036POPC   C1A15915  12.830  27.610   8.553
 6036POPC   D2A15916  12.873  27.636   8.253
 6036POPC   C3A15917  12.818  27.597   7.953
 6036POPC   C4A15918  12.821  27.626   7.653
 6036POPC   C1B15919  12.563  27.652   8.553
 6036POPC   C2B15920  12.630  27.595   8.253
 6036POPC   C3B15921  12.568  27.676   7.953
 6036POPC   C4B15922  12.605  27.616   7.653
 6037POPC   NC315923  15.171  27.546   9.453
 6037POPC   PO415924  15.217  27.567   9.153
 6037POPC   GL115925  15.143  27.586   8.853
 6037POPC   GL215926  15.048  27.617   8.853
 6037POPC   C1A15927  15.165  27.594   8.553
 6037POPC   D2A15928  15.138  27.634   8.253
 6037POPC   C3A15929  15.139  27.631   7.953
 6037POPC   C4A15930  15.168  27.551   7.653
 6037POPC   C1B15931  14.968  27.695   8.553
 6037POPC   C2B15932  15.017  27.741   8.253
 6037POPC   C3B15933  15.006  27.780   7.953
 6037POPC   C4B15934  15.004  27.773   7.653
 6038POPC   NC315935   1.227  23.756   9.453
 6038POPC   PO415936   1.242  23.721   9.153
 6038POPC   GL115937   1.189  23.701   8.853
 6038POPC   GL215938   1.076  23.795   8.853
 6038POPC   C1A15939   1.204  23.670   8.553
 6038POPC   D2A15940   1.234  23.729   8.253
 6038POPC   C3A15941   1.262  23.733   7.953
 6038POPC   C4A15942   1.167  23.722   7.653
 6038POPC   C1B15943   1.071  23.905   8.553
 6038POPC   C2B15944   0.998  23.856   8.253
 6038POPC   C3B15945   1.027  23.873   7.953
 6038POPC   C4B15946   1.024  23.900   7.653
 6039POPC   NC315947   1.951  36.854   9.453
 6039POPC   PO415948   1.993  36.895   9.153
 6039POPC   GL115949   1.995  36.922   8.853
 6039POPC   GL215950   1.985  37.008   8.853
 6039POPC   C1A15951   1.950  36.898   8.553
 6039POPC   D2A15952   2.018  36.865   8.253
 6039POPC   C3A15953   1.996  36.904   7.953
 6039POPC   C4A15954   2.031  36.951   7.653
 6039POPC   C1B15955   2.034  37.197   8.553
 6039POPC   C2B15956   1.969  37.133   8.253
 6039POPC   C3B15957   2.043  37.169   7.953
 6039POPC   C4B15958   1.971  37.163   7.653
 6040POPC   NC315959   9.010  38.469   9.453
 6040POPC   PO415960   8.971  38.465   9.153
 6040POPC   GL115961   9.019  38.484   8.853
 6040POPC   GL215962   9.021  38.586   8.853
 6040POPC   C1A15963   9.022  38.408   8.553
 6040POPC   D2A15964   8.943  38.412   8.253
 6040POPC   C3A15965   8.931  38.438   7.953
 6040POPC   C4A15966   8.958  38.471   7.653
 6040POPC   C1B15967   9.122  38.683   8.553
 6040POPC   C2B15968   9.082  38.614   8.253
 6040POPC   C3B15969   9.155  38.654   7.953
 6040POPC   C4B15970   9.126  38.645   7.653
 6041POPC   NC315971  39.967  10.508   9.453
 6041POPC   PO415972  40.001  10.507   9.153
 6041POPC   GL115973  39.991  10.537   8.853
 6041POPC   GL215974  40.166  10.562   8.853
 6041POPC   C1A15975  39.964  10.549   8.553
 6041POPC   D2A15976  40.009  10.563   8.253
 6041POPC   C3A15977  40.056  10.562   7.953
 6041POPC   C4A15978  40.006  10.536   7.653
 6041POPC   C1B15979  40.269  10.502   8.553
 6041POPC   C2B15980  40.213  10.524   8.253
 6041POPC   C3B15981  40.226  10.479   7.953
 6041POPC   C4B15982  40.243  10.485   7.653
 6042POPC   NC315983   9.739  19.091   9.453
 6042POPC   PO415984   9.734  19.108   9.153
 6042POPC   GL115985   9.712  19.026   8.853
 6042POPC   GL215986   9.776  19.140   8.853
 6042POPC   C1A15987   9.700  19.059   8.553
 6042POPC   D2A15988   9.757  19.091   8.253
 6042POPC   C3A15989   9.783  19.040   7.953
 6042POPC   C4A15990   9.752  19.037   7.653
 6042POPC   C1B15991   9.831  19.246   8.553
 6042POPC   C2B15992   9.883  19.237   8.253
 6042POPC   C3B15993   9.863  19.282   7.953
 6042POPC   C4B15994   9.901  19.271   7.653
 6043POPC   NC315995  43.866  21.420   9.453
 6043POPC   PO415996  43.859  21.341   9.153
 6043POPC   GL115997  43.864  21.383   8.853
 6043POPC   GL215998  43.777  21.341   8.853
 6043POPC   C1A15999  43.931  21.347   8.553
 6043POPC   D2A16000  43.870  21.365   8.253
 6043POPC   C3A16001  43.878  21.348   7.953
 6043POPC   C4A16002  43.905  21.370   7.653
 6043POPC   C1B16003  43.658  21.174   8.553
 6043POPC   C2B16004  43.687  21.220   8.253
 6043POPC   C3B16005  43.722  21.180   7.953
 6043POPC   C4B16006  43.722  21.260   7.653
 6044POPC   NC316007   9.734  29.912   9.453
 6044POPC   PO416008   9.709  29.953   9.153
 6044POPC   GL116009   9.795  29.945   8.853
 6044POPC   GL216010   9.842  29.789   8.853
 6044POPC   C1A16011   9.742  29.956   8.553
 6044POPC   D2A16012   9.703  29.945   8.253
 6044POPC   C3A16013   9.709  29.968   7.953
 6044POPC   C4A16014   9.764  29.925   7.653
 6044POPC   C1B16015   9.889  29.690   8.553
 6044POPC   C2B16016   9.841  29.694   8.253
 6044POPC   C3B16017   9.879  29.652   7.953
 6044POPC   C4B16018   9.811  29.699   7.653
 6045POPC   NC316019  32.254  42.372   9.453
 6045POPC   PO416020  32.251  42.362   9.153
 6045POPC   GL116021  32.297  42.320   8.853
 6045POPC   GL216022  32.158  42.265   8.853
 6045POPC   C1A16023  32.207  42.288   8.553
 6045POPC   D2A16024  32.232  42.384   8.253
 6045POPC   C3A16025  32.246  42.319   7.953
 6045POPC   C4A16026  32.247  42.358   7.653
 6045POPC   C1B16027  32.150  42.134   8.553
 6045POPC   C2B16028  32.129  42.099   8.253
 6045POPC   C3B16029  32.129  42.118   7.953
 6045POPC   C4B16030  32.115  42.158   7.653
 6046POPC   NC316031  43.858  40.805   9.453
 6046POPC   PO416032  43.930  40.798   9.153
 6046POPC   GL116033  43.882  40.799   8.853
 6046POPC   GL216034  43.909  40.722   8.853
 6046POPC   C1A16035  43.924  40.820   8.553
 6046POPC   D2A16036  43.898  40.736   8.253
 6046POPC   C3A16037  43.897  40.779   7.953
 6046POPC   C4A16038  43.880  40.738   7.653
 6046POPC   C1B16039  44.057  40.586   8.553
 6046POPC   C2B16040  44.043  40.582   8.253
 6046POPC   C3B16041  44.026  40.535   7.953
 6046POPC   C4B16042  43.975  40.573   7.653
 6047POPC   NC316043  13.655  44.686   9.453
 6047POPC   PO416044  13.629  44.687   9.153
 6047POPC   GL116045  13.610  44.688   8.853
 6047POPC   GL216046  13.667  44.599   8.853
 6047POPC   C1A16047  13.621  44.656   8.553
 6047POPC   D2A16048  13.617  44.669   8.253
 6047POPC   C3A16049  13.652  44.688   7.953
 6047POPC   C4A16050  13.617  44.660   7.653
 6047POPC   C1B16051  13.722  44.468   8.553
 6047POPC   C2B16052  13.751  44.490   8.253
 6047POPC   C3B16053  13.803  44.495   7.953
 6047POPC   C4B16054  13.777  44.406   7.653
 6048POPC   NC316055  30.732  32.294   9.453
 6048POPC   PO416056  30.651  32.282   9.153
 6048POPC   GL116057  30.662  32.258   8.853
 6048POPC   GL216058  30.600  32.194   8.853
 6048POPC   C1A16059  30.698  32.229   8.553
 6048POPC   D2A16060  30.692  32.241   8.253
 6048POPC   C3A16061  30.671  32.271   7.953
 6048POPC   C4A16062  30.702  32.270   7.653
 6048POPC   C1B16063  30.408  32.234   8.553
 6048POPC   C2B16064  30.461  32.201   8.253
 6048POPC   C3B16065  30.465  32.235   7.953
 6048POPC   C4B16066  30.456  32.234   7.653
 6049POPC   NC316067   8.947  25.245   9.453
 6049POPC   PO416068   8.926  25.224   9.153
 6049POPC   GL116069   8.992  25.265   8.853
 6049POPC   GL216070   8.909  25.341   8.853
 6049POPC   C1A16071   8.923  25.259   8.553
 6049POPC   D2A16072   9.017  25.217   8.253
 6049POPC   C3A16073   8.948  25.289   7.953
 6049POPC   C4A16074   8.977  25.303   7.653
 6049POPC   C1B16075   8.805  25.438   8.553
 6049POPC   C2B16076   8.867  25.480   8.253
 6049POPC   C3B16077   8.860  25.508   7.953
 6049POPC   C4B16078   8.814  25.460   7.653
 6050POPC   NC316079   8.208  32.226   9.453
 6050POPC   PO416080   8.179  32.278   9.153
 6050POPC   GL116081   8.212  32.270   8.853
 6050POPC   GL216082   8.104  32.093   8.853
 6050POPC   C1A16083   8.203  32.225   8.553
 6050POPC   D2A16084   8.203  32.248   8.253
 6050POPC   C3A16085   8.217  32.241   7.953
 6050POPC   C4A16086   8.237  32.212   7.653
 6050POPC   C1B16087   8.059  32.025   8.553
 6050POPC   C2B16088   8.090  32.052   8.253
 6050POPC   C3B16089   8.045  32.052   7.953
 6050POPC   C4B16090   8.090  31.985   7.653
 6051POPC   NC316091  34.597  28.375   9.453
 6051POPC   PO416092  34.588  28.360   9.153
 6051POPC   GL116093  34.579  28.395   8.853
 6051POPC   GL216094  34.499  28.242   8.853
 6051POPC   C1A16095  34.546  28.323   8.553
 6051POPC   D2A16096  34.532  28.368   8.253
 6051POPC   C3A16097  34.527  28.407   7.953
 6051POPC   C4A16098  34.578  28.331   7.653
 6051POPC   C1B16099  34.491  28.156   8.553
 6051POPC   C2B16100  34.471  28.113   8.253
 6051POPC   C3B16101  34.478  28.157   7.953
 6051POPC   C4B16102  34.565  28.141   7.653
 6052POPC   NC316103  15.136  22.929   9.453
 6052POPC   PO416104  15.186  22.924   9.153
 6052POPC   GL116105  15.155  22.960   8.853
 6052POPC   GL216106  15.271  22.873   8.853
 6052POPC   C1A16107  15.211  22.968   8.553
 6052POPC   D2A16108  15.228  22.907   8.253
 6052POPC   C3A16109  15.186  22.953   7.953
 6052POPC   C4A16110  15.203  22.949   7.653
 6052POPC   C1B16111  15.286  22.716   8.553
 6052POPC   C2B16112  15.372  22.761   8.253
 6052POPC   C3B16113  15.356  22.777   7.953
 6052POPC   C4B16114  15.374  22.725   7.653
 6053POPC   NC316115   2.727  17.458   9.453
 6053POPC   PO416116   2.751  17.553   9.153
 6053POPC   GL116117   2.756  17.521   8.853
 6053POPC   GL216118   2.791  17.357   8.853
 6053POPC   C1A16119   2.734  17.514   8.553
 6053POPC   D2A16120   2.773  17.523   8.253
 6053POPC   C3A16121   2.813  17.478   7.953
 6053POPC   C4A16122   2.751  17.482   7.653
 6053POPC   C1B16123   2.834  17.236   8.553
 6053POPC   C2B16124   2.852  17.277   8.253
 6053POPC   C3B16125   2.846  17.309   7.953
 6053POPC   C4B16126   2.800  17.292   7.653
 6054POPC   NC316127   1.232  37.668   9.453
 6054POPC   PO416128   1.176  37.707   9.153
 6054POPC   GL116129   1.208  37.702   8.853
 6054POPC   GL216130   1.065  37.641   8.853
 6054POPC   C1A16131   1.253  37.677   8.553
 6054POPC   D2A16132   1.206  37.646   8.253
 6054POPC   C3A16133   1.182  37.692   7.953
 6054POPC   C4A16134   1.246  37.706   7.653
 6054POPC   C1B16135   0.948  37.611   8.553
 6054POPC   C2B16136   0.923  37.640   8.253
 6054POPC   C3B16137   0.934  37.579   7.953
 6054POPC   C4B16138   0.970  37.628   7.653
 6055POPC   NC316139  12.876   6.647   9.453
 6055POPC   PO416140  12.839   6.656   9.153
 6055POPC   GL116141  12.804   6.679   8.853
 6055POPC   GL216142  12.946   6.737   8.853
 6055POPC   C1A16143  12.847   6.686   8.553
 6055POPC   D2A16144  12.803   6.692   8.253
 6055POPC   C3A16145  12.840   6.615   7.953
 6055POPC   C4A16146  12.869   6.659   7.653
 6055POPC   C1B16147  12.971   6.826   8.553
 6055POPC   C2B16148  12.968   6.835   8.253
 6055POPC   C3B16149  12.960   6.841   7.953
 6055POPC   C4B16150  12.920   6.867   7.653
 6056POPC   NC316151  32.243  32.989   9.453
 6056POPC   PO416152  32.217  33.038   9.153
 6056POPC   GL116153  32.236  33.031   8.853
 6056POPC   GL216154  32.321  32.983   8.853
 6056POPC   C1A16155  32.225  32.996   8.553
 6056POPC   D2A16156  32.249  33.053   8.253
 6056POPC   C3A16157  32.284  33.070   7.953
 6056POPC   C4A16158  32.252  33.051   7.653
 6056POPC   C1B16159  32.472  32.899   8.553
 6056POPC   C2B16160  32.471  32.889   8.253
 6056POPC   C3B16161  32.477  32.886   7.953
 6056POPC   C4B16162  32.495  32.909   7.653
 6057POPC   NC316163  38.479   7.456   9.453
 6057POPC   PO416164  38.458   7.399   9.153
 6057POPC   GL116165  38.437   7.445   8.853
 6057POPC   GL216166  38.353   7.347   8.853
 6057POPC   C1A16167  38.505   7.466   8.553
 6057POPC   D2A16168  38.500   7.468   8.253
 6057POPC   C3A16169  38.471   7.392   7.953
 6057POPC   C4A16170  38.427   7.426   7.653
 6057POPC   C1B16171  38.309   7.207   8.553
 6057POPC   C2B16172  38.380   7.183   8.253
 6057POPC   C3B16173  38.349   7.186   7.953
 6057POPC   C4B16174  38.387   7.220   7.653
 6058POPC   NC316175  17.503  11.331   9.453
 6058POPC   PO416176  17.547  11.284   9.153
 6058POPC   GL116177  17.481  11.300   8.853
 6058POPC   GL216178  17.557  11.134   8.853
 6058POPC   C1A16179  17.511  11.283   8.553
 6058POPC   D2A16180  17.485  11.334   8.253
 6058POPC   C3A16181  17.508  11.257   7.953
 6058POPC   C4A16182  17.501  11.309   7.653
 6058POPC   C1B16183  17.529  11.007   8.553
 6058POPC   C2B16184  17.539  11.079   8.253
 6058POPC   C3B16185  17.589  11.015   7.953
 6058POPC   C4B16186  17.598  11.075   7.653
 6059POPC   NC316187  13.599  18.323   9.453
 6059POPC   PO416188  13.588  18.324   9.153
 6059POPC   GL116189  13.618  18.288   8.853
 6059POPC   GL216190  13.630  18.365   8.853
 6059POPC   C1A16191  13.579  18.277   8.553
 6059POPC   D2A16192  13.594  18.235   8.253
 6059POPC   C3A16193  13.626  18.250   7.953
 6059POPC   C4A16194  13.588  18.328   7.653
 6059POPC   C1B16195  13.627  18.533   8.553
 6059POPC   C2B16196  13.656  18.533   8.253
 6059POPC   C3B16197  13.607  18.488   7.953
 6059POPC   C4B16198  13.694  18.555   7.653
 6060POPC   NC316199   9.000  29.927   9.453
 6060POPC   PO416200   8.999  29.909   9.153
 6060POPC   GL116201   8.965  29.921   8.853
 6060POPC   GL216202   9.014  30.022   8.853
 6060POPC   C1A16203   8.932  29.947   8.553
 6060POPC   D2A16204   8.936  29.941   8.253
 6060POPC   C3A16205   9.014  29.899   7.953
 6060POPC   C4A16206   9.006  29.912   7.653
 6060POPC   C1B16207   9.163  30.132   8.553
 6060POPC   C2B16208   9.094  30.156   8.253
 6060POPC   C3B16209   9.124  30.059   7.953
 6060POPC   C4B16210   9.126  30.067   7.653
 6061POPC   NC316211  38.479   1.255   9.453
 6061POPC   PO416212  38.435   1.239   9.153
 6061POPC   GL116213  38.430   1.244   8.853
 6061POPC   GL216214  38.543   1.198   8.853
 6061POPC   C1A16215  38.455   1.234   8.553
 6061POPC   D2A16216  38.431   1.233   8.253
 6061POPC   C3A16217  38.431   1.227   7.953
 6061POPC   C4A16218  38.482   1.180   7.653
 6061POPC   C1B16219  38.681   1.194   8.553
 6061POPC   C2B16220  38.739   1.106   8.253
 6061POPC   C3B16221  38.663   1.104   7.953
 6061POPC   C4B16222  38.666   1.191   7.653
 6062POPC   NC316223  17.499   9.002   9.453
 6062POPC   PO416224  17.484   8.993   9.153
 6062POPC   GL116225  17.544   8.998   8.853
 6062POPC   GL216226  17.640   9.032   8.853
 6062POPC   C1A16227  17.544   8.947   8.553
 6062POPC   D2A16228  17.543   8.990   8.253
 6062POPC   C3A16229  17.552   8.925   7.953
 6062POPC   C4A16230  17.486   8.955   7.653
 6062POPC   C1B16231  17.728   9.169   8.553
 6062POPC   C2B16232  17.670   9.146   8.253
 6062POPC   C3B16233  17.642   9.135   7.953
 6062POPC   C4B16234  17.703   9.125   7.653
 6063POPC   NC316235  17.473  22.929   9.453
 6063POPC   PO416236  17.491  22.948   9.153
 6063POPC   GL116237  17.505  22.974   8.853
 6063POPC   GL216238  17.562  22.999   8.853
 6063POPC   C1A16239  17.494  22.931   8.553
 6063POPC   D2A16240  17.550  22.920   8.253
 6063POPC   C3A16241  17.461  22.987   7.953
 6063POPC   C4A16242  17.536  22.908   7.653
 6063POPC   C1B16243  17.681  23.112   8.553
 6063POPC   C2B16244  17.702  23.039   8.253
 6063POPC   C3B16245  17.731  23.111   7.953
 6063POPC   C4B16246  17.688  23.082   7.653
 6064POPC   NC316247  41.518  15.165   9.453
 6064POPC   PO416248  41.527  15.155   9.153
 6064POPC   GL116249  41.562  15.202   8.853
 6064POPC   GL216250  41.558  15.282   8.853
 6064POPC   C1A16251  41.539  15.176   8.553
 6064POPC   D2A16252  41.519  15.156   8.253
 6064POPC   C3A16253  41.533  15.220   7.953
 6064POPC   C4A16254  41.585  15.199   7.653
 6064POPC   C1B16255  41.640  15.383   8.553
 6064POPC   C2B16256  41.614  15.449   8.253
 6064POPC   C3B16257  41.658  15.459   7.953
 6064POPC   C4B16258  41.674  15.460   7.653
 6065POPC   NC316259  43.842  22.190   9.453
 6065POPC   PO416260  43.867  22.115   9.153
 6065POPC   GL116261  43.863  22.210   8.853
 6065POPC   GL216262  43.987  22.014   8.853
 6065POPC   C1A16263  43.862  22.143   8.553
 6065POPC   D2A16264  43.854  22.142   8.253
 6065POPC   C3A16265  43.840  22.184   7.953
 6065POPC   C4A16266  43.861  22.209   7.653
 6065POPC   C1B16267  44.009  21.923   8.553
 6065POPC   C2B16268  43.963  21.917   8.253
 6065POPC   C3B16269  44.006  21.982   7.953
 6065POPC   C4B16270  44.042  21.927   7.653
 6066POPC   NC316271  39.195  27.556   9.453
 6066POPC   PO416272  39.253  27.557   9.153
 6066POPC   GL116273  39.224  27.638   8.853
 6066POPC   GL216274  39.143  27.509   8.853
 6066POPC   C1A16275  39.229  27.568   8.553
 6066POPC   D2A16276  39.249  27.560   8.253
 6066POPC   C3A16277  39.238  27.619   7.953
 6066POPC   C4A16278  39.242  27.610   7.653
 6066POPC   C1B16279  39.176  27.386   8.553
 6066POPC   C2B16280  39.086  27.340   8.253
 6066POPC   C3B16281  39.149  27.347   7.953
 6066POPC   C4B16282  39.175  27.336   7.653
 6067POPC   NC316283  12.835  21.397   9.453
 6067POPC   PO416284  12.874  21.354   9.153
 6067POPC   GL116285  12.863  21.367   8.853
 6067POPC   GL216286  12.776  21.501   8.853
 6067POPC   C1A16287  12.830  21.365   8.553
 6067POPC   D2A16288  12.838  21.354   8.253
 6067POPC   C3A16289  12.824  21.366   7.953
 6067POPC   C4A16290  12.887  21.372   7.653
 6067POPC   C1B16291  12.702  21.596   8.553
 6067POPC   C2B16292  12.700  21.577   8.253
 6067POPC   C3B16293  12.713  21.600   7.953
 6067POPC   C4B16294  12.654  21.573   7.653
 6068POPC   NC316295  36.127  36.936   9.453
 6068POPC   PO416296  36.147  36.936   9.153
 6068POPC   GL116297  36.157  36.854   8.853
 6068POPC   GL216298  35.984  36.855   8.853
 6068POPC   C1A16299  36.174  36.881   8.553
 6068POPC   D2A16300  36.103  36.869   8.253
 6068POPC   C3A16301  36.174  36.872   7.953
 6068POPC   C4A16302  36.151  36.939   7.653
 6068POPC   C1B16303  35.959  36.700   8.553
 6068POPC   C2B16304  35.909  36.719   8.253
 6068POPC   C3B16305  35.891  36.693   7.953
 6068POPC   C4B16306  35.897  36.710   7.653
 6069POPC   NC316307  26.776  37.651   9.453
 6069POPC   PO416308  26.838  37.724   9.153
 6069POPC   GL116309  26.863  37.702   8.853
 6069POPC   GL216310  26.987  37.703   8.853
 6069POPC   C1A16311  26.851  37.654   8.553
 6069POPC   D2A16312  26.795  37.675   8.253
 6069POPC   C3A16313  26.790  37.638   7.953
 6069POPC   C4A16314  26.828  37.717   7.653
 6069POPC   C1B16315  27.051  37.746   8.553
 6069POPC   C2B16316  27.077  37.722   8.253
 6069POPC   C3B16317  27.044  37.719   7.953
 6069POPC   C4B16318  27.055  37.702   7.653
 6070POPC   NC316319  30.672  22.120   9.453
 6070POPC   PO416320  30.648  22.175   9.153
 6070POPC   GL116321  30.659  22.133   8.853
 6070POPC   GL216322  30.760  22.306   8.853
 6070POPC   C1A16323  30.701  22.119   8.553
 6070POPC   D2A16324  30.674  22.139   8.253
 6070POPC   C3A16325  30.661  22.136   7.953
 6070POPC   C4A16326  30.670  22.164   7.653
 6070POPC   C1B16327  30.852  22.390   8.553
 6070POPC   C2B16328  30.832  22.357   8.253
 6070POPC   C3B16329  30.815  22.395   7.953
 6070POPC   C4B16330  30.868  22.350   7.653
 6071POPC   NC316331  30.721  21.411   9.453
 6071POPC   PO416332  30.739  21.343   9.153
 6071POPC   GL116333  30.650  21.421   8.853
 6071POPC   GL216334  30.647  21.474   8.853
 6071POPC   C1A16335  30.682  21.381   8.553
 6071POPC   D2A16336  30.736  21.413   8.253
 6071POPC   C3A16337  30.681  21.428   7.953
 6071POPC   C4A16338  30.655  21.386   7.653
 6071POPC   C1B16339  30.606  21.666   8.553
 6071POPC   C2B16340  30.636  21.593   8.253
 6071POPC   C3B16341  30.668  21.662   7.953
 6071POPC   C4B16342  30.659  21.588   7.653
 6072POPC   NC316343   0.433  31.461   9.453
 6072POPC   PO416344   0.442  31.519   9.153
 6072POPC   GL116345   0.406  31.436   8.853
 6072POPC   GL216346   0.528  31.550   8.853
 6072POPC   C1A16347   0.422  31.446   8.553
 6072POPC   D2A16348   0.427  31.443   8.253
 6072POPC   C3A16349   0.398  31.448   7.953
 6072POPC   C4A16350   0.401  31.435   7.653
 6072POPC   C1B16351   0.677  31.627   8.553
 6072POPC   C2B16352   0.688  31.606   8.253
 6072POPC   C3B16353   0.620  31.637   7.953
 6072POPC   C4B16354   0.615  31.635   7.653
 6073POPC   NC316355   1.166   6.692   9.453
 6073POPC   PO416356   1.179   6.605   9.153
 6073POPC   GL116357   1.188   6.654   8.853
 6073POPC   GL216358   1.113   6.523   8.853
 6073POPC   C1A16359   1.261   6.657   8.553
 6073POPC   D2A16360   1.169   6.670   8.253
 6073POPC   C3A16361   1.225   6.631   7.953
 6073POPC   C4A16362   1.213   6.689   7.653
 6073POPC   C1B16363   1.060   6.432   8.553
 6073POPC   C2B16364   1.009   6.463   8.253
 6073POPC   C3B16365   1.075   6.436   7.953
 6073POPC   C4B16366   1.099   6.403   7.653
 6074POPC   NC316367  32.994  33.809   9.453
 6074POPC   PO416368  33.040  33.803   9.153
 6074POPC   GL116369  32.981  33.829   8.853
 6074POPC   GL216370  33.118  33.727   8.853
 6074POPC   C1A16371  33.048  33.823   8.553
 6074POPC   D2A16372  33.026  33.775   8.253
 6074POPC   C3A16373  33.050  33.755   7.953
 6074POPC   C4A16374  33.001  33.750   7.653
 6074POPC   C1B16375  33.179  33.677   8.553
 6074POPC   C2B16376  33.248  33.649   8.253
 6074POPC   C3B16377  33.228  33.655   7.953
 6074POPC   C4B16378  33.244  33.613   7.653
 6075POPC   NC316379   0.446  18.300   9.453
 6075POPC   PO416380   0.480  18.281   9.153
 6075POPC   GL116381   0.486  18.286   8.853
 6075POPC   GL216382   0.408  18.393   8.853
 6075POPC   C1A16383   0.401  18.266   8.553
 6075POPC   D2A16384   0.415  18.286   8.253
 6075POPC   C3A16385   0.468  18.263   7.953
 6075POPC   C4A16386   0.430  18.265   7.653
 6075POPC   C1B16387   0.463  18.559   8.553
 6075POPC   C2B16388   0.444  18.501   8.253
 6075POPC   C3B16389   0.380  18.518   7.953
 6075POPC   C4B16390   0.430  18.539   7.653
 6076POPC   NC316391  22.981  24.535   9.453
 6076POPC   PO416392  22.915  24.445   9.153
 6076POPC   GL116393  22.891  24.490   8.853
 6076POPC   GL216394  22.846  24.478   8.853
 6076POPC   C1A16395  22.893  24.498   8.553
 6076POPC   D2A16396  22.951  24.487   8.253
 6076POPC   C3A16397  22.919  24.478   7.953
 6076POPC   C4A16398  22.950  24.458   7.653
 6076POPC   C1B16399  22.679  24.502   8.553
 6076POPC   C2B16400  22.722  24.482   8.253
 6076POPC   C3B16401  22.650  24.468   7.953
 6076POPC   C4B16402  22.645  24.515   7.653
 6077POPC   NC316403  12.125  14.373   9.453
 6077POPC   PO416404  12.043  14.398   9.153
 6077POPC   GL116405  12.102  14.417   8.853
 6077POPC   GL216406  12.010  14.487   8.853
 6077POPC   C1A16407  12.106  14.389   8.553
 6077POPC   D2A16408  12.117  14.433   8.253
 6077POPC   C3A16409  12.097  14.363   7.953
 6077POPC   C4A16410  12.044  14.392   7.653
 6077POPC   C1B16411  11.935  14.589   8.553
 6077POPC   C2B16412  11.858  14.543   8.253
 6077POPC   C3B16413  11.932  14.578   7.953
 6077POPC   C4B16414  11.919  14.629   7.653
 6078POPC   NC316415  23.721   2.037   9.453
 6078POPC   PO416416  23.715   1.971   9.153
 6078POPC   GL116417  23.674   2.007   8.853
 6078POPC   GL216418  23.801   1.891   8.853
 6078POPC   C1A16419  23.669   1.983   8.553
 6078POPC   D2A16420  23.762   1.948   8.253
 6078POPC   C3A16421  23.706   1.963   7.953
 6078POPC   C4A16422  23.745   1.989   7.653
 6078POPC   C1B16423  23.753   1.728   8.553
 6078POPC   C2B16424  23.798   1.764   8.253
 6078POPC   C3B16425  23.792   1.721   7.953
 6078POPC   C4B16426  23.745   1.791   7.653
 6079POPC   NC316427   9.764  39.208   9.453
 6079POPC   PO416428   9.734  39.210   9.153
 6079POPC   GL116429   9.789  39.186   8.853
 6079POPC   GL216430   9.711  39.310   8.853
 6079POPC   C1A16431   9.699  39.218   8.553
 6079POPC   D2A16432   9.702  39.213   8.253
 6079POPC   C3A16433   9.781  39.252   7.953
 6079POPC   C4A16434   9.723  39.226   7.653
 6079POPC   C1B16435   9.624  39.438   8.553
 6079POPC   C2B16436   9.631  39.437   8.253
 6079POPC   C3B16437   9.580  39.387   7.953
 6079POPC   C4B16438   9.569  39.426   7.653
 6080POPC   NC316439  33.047  34.614   9.453
 6080POPC   PO416440  33.069  34.607   9.153
 6080POPC   GL116441  33.012  34.569   8.853
 6080POPC   GL216442  33.100  34.556   8.853
 6080POPC   C1A16443  33.063  34.613   8.553
 6080POPC   D2A16444  33.043  34.551   8.253
 6080POPC   C3A16445  33.055  34.559   7.953
 6080POPC   C4A16446  33.008  34.603   7.653
 6080POPC   C1B16447  33.251  34.556   8.553
 6080POPC   C2B16448  33.236  34.599   8.253
 6080POPC   C3B16449  33.309  34.632   7.953
 6080POPC   C4B16450  33.238  34.636   7.653
 6081POPC   NC316451  39.258  40.820   9.453
 6081POPC   PO416452  39.205  40.761   9.153
 6081POPC   GL116453  39.192  40.774   8.853
 6081POPC   GL216454  39.151  40.739   8.853
 6081POPC   C1A16455  39.212  40.742   8.553
 6081POPC   D2A16456  39.260  40.765   8.253
 6081POPC   C3A16457  39.187  40.750   7.953
 6081POPC   C4A16458  39.200  40.799   7.653
 6081POPC   C1B16459  39.038  40.652   8.553
 6081POPC   C2B16460  38.997  40.588   8.253
 6081POPC   C3B16461  38.991  40.683   7.953
 6081POPC   C4B16462  39.004  40.682   7.653
 6082POPC   NC316463  16.709  29.921   9.453
 6082POPC   PO416464  16.766  29.928   9.153
 6082POPC   GL116465  16.687  29.953   8.853
 6082POPC   GL216466  16.630  29.966   8.853
 6082POPC   C1A16467  16.691  29.896   8.553
 6082POPC   D2A16468  16.718  29.950   8.253
 6082POPC   C3A16469  16.772  29.941   7.953
 6082POPC   C4A16470  16.704  29.925   7.653
 6082POPC   C1B16471  16.436  29.972   8.553
 6082POPC   C2B16472  16.478  29.945   8.253
 6082POPC   C3B16473  16.511  29.929   7.953
 6082POPC   C4B16474  16.506  29.965   7.653
 6083POPC   NC316475  22.909  15.193   9.453
 6083POPC   PO416476  22.969  15.133   9.153
 6083POPC   GL116477  22.917  15.148   8.853
 6083POPC   GL216478  22.967  15.243   8.853
 6083POPC   C1A16479  22.924  15.151   8.553
 6083POPC   D2A16480  22.895  15.210   8.253
 6083POPC   C3A16481  22.921  15.220   7.953
 6083POPC   C4A16482  22.937  15.180   7.653
 6083POPC   C1B16483  23.092  15.405   8.553
 6083POPC   C2B16484  23.102  15.396   8.253
 6083POPC   C3B16485  23.085  15.373   7.953
 6083POPC   C4B16486  23.049  15.444   7.653
 6084POPC   NC316487  26.779  22.210   9.453
 6084POPC   PO416488  26.838  22.169   9.153
 6084POPC   GL116489  26.825  22.129   8.853
 6084POPC   GL216490  26.851  22.265   8.853
 6084POPC   C1A16491  26.786  22.167   8.553
 6084POPC   D2A16492  26.768  22.196   8.253
 6084POPC   C3A16493  26.834  22.155   7.953
 6084POPC   C4A16494  26.853  22.182   7.653
 6084POPC   C1B16495  26.863  22.421   8.553
 6084POPC   C2B16496  26.837  22.403   8.253
 6084POPC   C3B16497  26.838  22.421   7.953
 6084POPC   C4B16498  26.825  22.455   7.653
 6085POPC   NC316499  26.848  18.288   9.453
 6085POPC   PO416500  26.788  18.249   9.153
 6085POPC   GL116501  26.785  18.308   8.853
 6085POPC   GL216502  26.682  18.217   8.853
 6085POPC   C1A16503  26.866  18.277   8.553
 6085POPC   D2A16504  26.821  18.319   8.253
 6085POPC   C3A16505  26.857  18.279   7.953
 6085POPC   C4A16506  26.827  18.315   7.653
 6085POPC   C1B16507  26.622  18.098   8.553
 6085POPC   C2B16508  26.597  18.089   8.253
 6085POPC   C3B16509  26.652  18.120   7.953
 6085POPC   C4B16510  26.585  18.179   7.653
 6086POPC   NC316511   7.428   2.024   9.453
 6086POPC   PO416512   7.433   1.961   9.153
 6086POPC   GL116513   7.427   2.036   8.853
 6086POPC   GL216514   7.543   1.862   8.853
 6086POPC   C1A16515   7.384   2.015   8.553
 6086POPC   D2A16516   7.378   1.958   8.253
 6086POPC   C3A16517   7.433   1.972   7.953
 6086POPC   C4A16518   7.380   1.966   7.653
 6086POPC   C1B16519   7.589   1.809   8.553
 6086POPC   C2B16520   7.550   1.783   8.253
 6086POPC   C3B16521   7.545   1.770   7.953
 6086POPC   C4B16522   7.569   1.767   7.653
 6087POPC   NC316523  31.501   2.728   9.453
 6087POPC   PO416524  31.478   2.721   9.153
 6087POPC   GL116525  31.479   2.761   8.853
 6087POPC   GL216526  31.588   2.888   8.853
 6087POPC   C1A16527  31.477   2.735   8.553
 6087POPC   D2A16528  31.508   2.770   8.253
 6087POPC   C3A16529  31.504   2.735   7.953
 6087POPC   C4A16530  31.497   2.738   7.653
 6087POPC   C1B16531  31.622   2.998   8.553
 6087POPC   C2B16532  31.645   2.928   8.253
 6087POPC   C3B16533  31.640   3.005   7.953
 6087POPC   C4B16534  31.651   2.956   7.653
 6088POPC   NC316535  25.268   2.723   9.453
 6088POPC   PO416536  25.243   2.720   9.153
 6088POPC   GL116537  25.294   2.735   8.853
 6088POPC   GL216538  25.223   2.883   8.853
 6088POPC   C1A16539  25.242   2.783   8.553
 6088POPC   D2A16540  25.283   2.783   8.253
 6088POPC   C3A16541  25.269   2.785   7.953
 6088POPC   C4A16542  25.301   2.792   7.653
 6088POPC   C1B16543  25.121   2.990   8.553
 6088POPC   C2B16544  25.099   2.922   8.253
 6088POPC   C3B16545  25.163   2.989   7.953
 6088POPC   C4B16546  25.159   2.936   7.653
 6089POPC   NC316547  37.648  37.725   9.453
 6089POPC   PO416548  37.637  37.654   9.153
 6089POPC   GL116549  37.691  37.701   8.853
 6089POPC   GL216550  37.644  37.776   8.853
 6089POPC   C1A16551  37.714  37.686   8.553
 6089POPC   D2A16552  37.638  37.687   8.253
 6089POPC   C3A16553  37.636  37.713   7.953
 6089POPC   C4A16554  37.669  37.645   7.653
 6089POPC   C1B16555  37.706  37.890   8.553
 6089POPC   C2B16556  37.709  37.923   8.253
 6089POPC   C3B16557  37.636  37.894   7.953
 6089POPC   C4B16558  37.707  37.912   7.653
 6090POPC   NC316559  38.420  23.680   9.453
 6090POPC   PO416560  38.485  23.675   9.153
 6090POPC   GL116561  38.488  23.706   8.853
 6090POPC   GL216562  38.533  23.756   8.853
 6090POPC   C1A16563  38.484  23.715   8.553
 6090POPC   D2A16564  38.480  23.735   8.253
 6090POPC   C3A16565  38.457  23.667   7.953
 6090POPC   C4A16566  38.469  23.747   7.653
 6090POPC   C1B16567  38.710  23.840   8.553
 6090POPC   C2B16568  38.697  23.878   8.253
 6090POPC   C3B16569  38.689  23.807   7.953
 6090POPC   C4B16570  38.690  23.869   7.653
 6091POPC   NC316571  39.967  21.355   9.453
 6091POPC   PO416572  39.983  21.364   9.153
 6091POPC   GL116573  40.009  21.340   8.853
 6091POPC   GL216574  40.082  21.421   8.853
 6091POPC   C1A16575  39.968  21.424   8.553
 6091POPC   D2A16576  40.049  21.347   8.253
 6091POPC   C3A16577  40.037  21.384   7.953
 6091POPC   C4A16578  40.031  21.425   7.653
 6091POPC   C1B16579  40.289  21.401   8.553
 6091POPC   C2B16580  40.254  21.426   8.253
 6091POPC   C3B16581  40.229  21.482   7.953
 6091POPC   C4B16582  40.257  21.396   7.653
 6092POPC   NC316583  21.429   4.345   9.453
 6092POPC   PO416584  21.410   4.288   9.153
 6092POPC   GL116585  21.376   4.272   8.853
 6092POPC   GL216586  21.315   4.402   8.853
 6092POPC   C1A16587  21.379   4.346   8.553
 6092POPC   D2A16588  21.374   4.288   8.253
 6092POPC   C3A16589  21.345   4.366   7.953
 6092POPC   C4A16590  21.387   4.292   7.653
 6092POPC   C1B16591  21.307   4.521   8.553
 6092POPC   C2B16592  21.291   4.613   8.253
 6092POPC   C3B16593  21.363   4.555   7.953
 6092POPC   C4B16594  21.350   4.541   7.653
 6093POPC   NC316595  36.916  17.512   9.453
 6093POPC   PO416596  36.943  17.535   9.153
 6093POPC   GL116597  36.942  17.477   8.853
 6093POPC   GL216598  36.831  17.340   8.853
 6093POPC   C1A16599  36.869  17.462   8.553
 6093POPC   D2A16600  36.896  17.518   8.253
 6093POPC   C3A16601  36.900  17.542   7.953
 6093POPC   C4A16602  36.921  17.528   7.653
 6093POPC   C1B16603  36.853  17.230   8.553
 6093POPC   C2B16604  36.871  17.261   8.253
 6093POPC   C3B16605  36.836  17.223   7.953
 6093POPC   C4B16606  36.850  17.298   7.653
 6094POPC   NC316607  23.673  21.404   9.453
 6094POPC   PO416608  23.696  21.429   9.153
 6094POPC   GL116609  23.756  21.363   8.853
 6094POPC   GL216610  23.800  21.430   8.853
 6094POPC   C1A16611  23.723  21.407   8.553
 6094POPC   D2A16612  23.750  21.386   8.253
 6094POPC   C3A16613  23.714  21.386   7.953
 6094POPC   C4A16614  23.666  21.349   7.653
 6094POPC   C1B16615  23.910  21.496   8.553
 6094POPC   C2B16616  24.000  21.418   8.253
 6094POPC   C3B16617  23.924  21.456   7.953
 6094POPC   C4B16618  23.956  21.498   7.653
 6095POPC   NC316619  29.193  17.507   9.453
 6095POPC   PO416620  29.173  17.467   9.153
 6095POPC   GL116621  29.149  17.510   8.853
 6095POPC   GL216622  29.193  17.634   8.853
 6095POPC   C1A16623  29.110  17.469   8.553
 6095POPC   D2A16624  29.108  17.490   8.253
 6095POPC   C3A16625  29.141  17.474   7.953
 6095POPC   C4A16626  29.166  17.475   7.653
 6095POPC   C1B16627  29.121  17.786   8.553
 6095POPC   C2B16628  29.133  17.722   8.253
 6095POPC   C3B16629  29.198  17.762   7.953
 6095POPC   C4B16630  29.167  17.718   7.653
 6096POPC   NC316631  22.918  18.297   9.453
 6096POPC   PO416632  22.980  18.255   9.153
 6096POPC   GL116633  22.960  18.244   8.853
 6096POPC   GL216634  22.873  18.173   8.853
 6096POPC   C1A16635  22.889  18.329   8.553
 6096POPC   D2A16636  22.905  18.243   8.253
 6096POPC   C3A16637  22.943  18.327   7.953
 6096POPC   C4A16638  22.905  18.240   7.653
 6096POPC   C1B16639  22.696  18.107   8.553
 6096POPC   C2B16640  22.762  18.142   8.253
 6096POPC   C3B16641  22.681  18.135   7.953
 6096POPC   C4B16642  22.716  18.150   7.653
 6097POPC   NC316643  39.986  14.411   9.453
 6097POPC   PO416644  39.990  14.438   9.153
 6097POPC   GL116645  39.989  14.411   8.853
 6097POPC   GL216646  40.130  14.386   8.853
 6097POPC   C1A16647  39.976  14.406   8.553
 6097POPC   D2A16648  40.009  14.445   8.253
 6097POPC   C3A16649  40.038  14.406   7.953
 6097POPC   C4A16650  40.000  14.357   7.653
 6097POPC   C1B16651  40.270  14.274   8.553
 6097POPC   C2B16652  40.190  14.277   8.253
 6097POPC   C3B16653  40.251  14.307   7.953
 6097POPC   C4B16654  40.238  14.307   7.653
 6098POPC   NC316655   2.768   6.629   9.453
 6098POPC   PO416656   2.752   6.666   9.153
 6098POPC   GL116657   2.732   6.612   8.853
 6098POPC   GL216658   2.681   6.694   8.853
 6098POPC   C1A16659   2.760   6.637   8.553
 6098POPC   D2A16660   2.774   6.605   8.253
 6098POPC   C3A16661   2.800   6.602   7.953
 6098POPC   C4A16662   2.809   6.660   7.653
 6098POPC   C1B16663   2.596   6.855   8.553
 6098POPC   C2B16664   2.539   6.870   8.253
 6098POPC   C3B16665   2.547   6.848   7.953
 6098POPC   C4B16666   2.595   6.821   7.653
 6099POPC   NC316667  33.808  44.673   9.453
 6099POPC   PO416668  33.750  44.656   9.153
 6099POPC   GL116669  33.838  44.686   8.853
 6099POPC   GL216670  33.771  44.782   8.853
 6099POPC   C1A16671  33.838  44.668   8.553
 6099POPC   D2A16672  33.830  44.705   8.253
 6099POPC   C3A16673  33.768  44.689   7.953
 6099POPC   C4A16674  33.759  44.692   7.653
 6099POPC   C1B16675  33.766  44.935   8.553
 6099POPC   C2B16676  33.764  44.905   8.253
 6099POPC   C3B16677  33.745  44.891   7.953
 6099POPC   C4B16678  33.753  44.941   7.653
 6100POPC   NC316679   5.856  30.724   9.453
 6100POPC   PO416680   5.849  30.668   9.153
 6100POPC   GL116681   5.890  30.687   8.853
 6100POPC   GL216682   5.944  30.730   8.853
 6100POPC   C1A16683   5.903  30.672   8.553
 6100POPC   D2A16684   5.885  30.698   8.253
 6100POPC   C3A16685   5.820  30.724   7.953
 6100POPC   C4A16686   5.856  30.662   7.653
 6100POPC   C1B16687   6.100  30.749   8.553
 6100POPC   C2B16688   6.167  30.702   8.253
 6100POPC   C3B16689   6.085  30.677   7.953
 6100POPC   C4B16690   6.085  30.757   7.653
 6101POPC   NC316691  29.929  24.496   9.453
 6101POPC   PO416692  29.921  24.475   9.153
 6101POPC   GL116693  29.916  24.505   8.853
 6101POPC   GL216694  29.856  24.427   8.853
 6101POPC   C1A16695  29.897  24.453   8.553
 6101POPC   D2A16696  29.916  24.475   8.253
 6101POPC   C3A16697  29.888  24.481   7.953
 6101POPC   C4A16698  29.876  24.525   7.653
 6101POPC   C1B16699  29.726  24.436   8.553
 6101POPC   C2B16700  29.683  24.401   8.253
 6101POPC   C3B16701  29.668  24.369   7.953
 6101POPC   C4B16702  29.680  24.435   7.653
 6102POPC   NC316703  22.157  29.152   9.453
 6102POPC   PO416704  22.147  29.142   9.153
 6102POPC   GL116705  22.159  29.125   8.853
 6102POPC   GL216706  22.305  29.259   8.853
 6102POPC   C1A16707  22.118  29.169   8.553
 6102POPC   D2A16708  22.115  29.194   8.253
 6102POPC   C3A16709  22.172  29.177   7.953
 6102POPC   C4A16710  22.210  29.161   7.653
 6102POPC   C1B16711  22.350  29.339   8.553
 6102POPC   C2B16712  22.347  29.325   8.253
 6102POPC   C3B16713  22.396  29.289   7.953
 6102POPC   C4B16714  22.324  29.322   7.653
 6103POPC   NC316715  40.759  10.550   9.453
 6103POPC   PO416716  40.741  10.517   9.153
 6103POPC   GL116717  40.739  10.563   8.853
 6103POPC   GL216718  40.877  10.461   8.853
 6103POPC   C1A16719  40.797  10.553   8.553
 6103POPC   D2A16720  40.735  10.539   8.253
 6103POPC   C3A16721  40.788  10.511   7.953
 6103POPC   C4A16722  40.777  10.515   7.653
 6103POPC   C1B16723  41.002  10.460   8.553
 6103POPC   C2B16724  41.068  10.431   8.253
 6103POPC   C3B16725  41.031  10.473   7.953
 6103POPC   C4B16726  40.986  10.410   7.653
 6104POPC   NC316727  23.689  13.596   9.453
 6104POPC   PO416728  23.716  13.650   9.153
 6104POPC   GL116729  23.707  13.638   8.853
 6104POPC   GL216730  23.559  13.589   8.853
 6104POPC   C1A16731  23.726  13.653   8.553
 6104POPC   D2A16732  23.690  13.579   8.253
 6104POPC   C3A16733  23.734  13.619   7.953
 6104POPC   C4A16734  23.685  13.660   7.653
 6104POPC   C1B16735  23.514  13.487   8.553
 6104POPC   C2B16736  23.480  13.564   8.253
 6104POPC   C3B16737  23.501  13.504   7.953
 6104POPC   C4B16738  23.468  13.515   7.653
 6105POPC   NC316739   1.993  29.102   9.453
 6105POPC   PO416740   2.029  29.181   9.153
 6105POPC   GL116741   2.014  29.176   8.853
 6105POPC   GL216742   1.938  29.236   8.853
 6105POPC   C1A16743   1.957  29.192   8.553
 6105POPC   D2A16744   1.991  29.187   8.253
 6105POPC   C3A16745   1.977  29.111   7.953
 6105POPC   C4A16746   1.985  29.103   7.653
 6105POPC   C1B16747   1.842  29.269   8.553
 6105POPC   C2B16748   1.835  29.317   8.253
 6105POPC   C3B16749   1.841  29.358   7.953
 6105POPC   C4B16750   1.775  29.362   7.653
 6106POPC   NC316751   2.739  39.226   9.453
 6106POPC   PO416752   2.791  39.272   9.153
 6106POPC   GL116753   2.771  39.186   8.853
 6106POPC   GL216754   2.736  39.313   8.853
 6106POPC   C1A16755   2.815  39.263   8.553
 6106POPC   D2A16756   2.758  39.220   8.253
 6106POPC   C3A16757   2.798  39.188   7.953
 6106POPC   C4A16758   2.779  39.186   7.653
 6106POPC   C1B16759   2.732  39.502   8.553
 6106POPC   C2B16760   2.803  39.483   8.253
 6106POPC   C3B16761   2.755  39.492   7.953
 6106POPC   C4B16762   2.736  39.440   7.653
 6107POPC   NC316763  35.387  24.483   9.453
 6107POPC   PO416764  35.389  24.490   9.153
 6107POPC   GL116765  35.367  24.493   8.853
 6107POPC   GL216766  35.303  24.381   8.853
 6107POPC   C1A16767  35.364  24.444   8.553
 6107POPC   D2A16768  35.365  24.465   8.253
 6107POPC   C3A16769  35.392  24.443   7.953
 6107POPC   C4A16770  35.361  24.474   7.653
 6107POPC   C1B16771  35.357  24.236   8.553
 6107POPC   C2B16772  35.335  24.233   8.253
 6107POPC   C3B16773  35.358  24.267   7.953
 6107POPC   C4B16774  35.391  24.191   7.653
 6108POPC   NC316775  35.308  33.059   9.453
 6108POPC   PO416776  35.373  33.046   9.153
 6108POPC   GL116777  35.395  33.074   8.853
 6108POPC   GL216778  35.209  32.909   8.853
 6108POPC   C1A16779  35.303  32.994   8.553
 6108POPC   D2A16780  35.349  33.048   8.253
 6108POPC   C3A16781  35.308  32.998   7.953
 6108POPC   C4A16782  35.357  32.992   7.653
 6108POPC   C1B16783  35.127  32.883   8.553
 6108POPC   C2B16784  35.148  32.934   8.253
 6108POPC   C3B16785  35.143  32.860   7.953
 6108POPC   C4B16786  35.161  32.905   7.653
 6109POPC   NC316787  35.357  34.588   9.453
 6109POPC   PO416788  35.344  34.528   9.153
 6109POPC   GL116789  35.356  34.588   8.853
 6109POPC   GL216790  35.200  34.461   8.853
 6109POPC   C1A16791  35.330  34.561   8.553
 6109POPC   D2A16792  35.328  34.564   8.253
 6109POPC   C3A16793  35.351  34.549   7.953
 6109POPC   C4A16794  35.371  34.614   7.653
 6109POPC   C1B16795  35.126  34.395   8.553
 6109POPC   C2B16796  35.155  34.486   8.253
 6109POPC   C3B16797  35.142  34.414   7.953
 6109POPC   C4B16798  35.130  34.406   7.653
 6110POPC   NC316799   9.708   6.656   9.453
 6110POPC   PO416800   9.717   6.657   9.153
 6110POPC   GL116801   9.713   6.678   8.853
 6110POPC   GL216802   9.758   6.734   8.853
 6110POPC   C1A16803   9.748   6.686   8.553
 6110POPC   D2A16804   9.760   6.636   8.253
 6110POPC   C3A16805   9.754   6.665   7.953
 6110POPC   C4A16806   9.756   6.635   7.653
 6110POPC   C1B16807   9.736   6.882   8.553
 6110POPC   C2B16808   9.662   6.924   8.253
 6110POPC   C3B16809   9.664   6.873   7.953
 6110POPC   C4B16810   9.669   6.847   7.653
 6111POPC   NC316811  26.833   7.378   9.453
 6111POPC   PO416812  26.866   7.426   9.153
 6111POPC   GL116813  26.829   7.385   8.853
 6111POPC   GL216814  26.800   7.546   8.853
 6111POPC   C1A16815  26.794   7.375   8.553
 6111POPC   D2A16816  26.859   7.381   8.253
 6111POPC   C3A16817  26.772   7.381   7.953
 6111POPC   C4A16818  26.778   7.430   7.653
 6111POPC   C1B16819  26.726   7.652   8.553
 6111POPC   C2B16820  26.741   7.622   8.253
 6111POPC   C3B16821  26.738   7.637   7.953
 6111POPC   C4B16822  26.761   7.704   7.653
 6112POPC   NC316823   5.835  13.580   9.453
 6112POPC   PO416824   5.888  13.607   9.153
 6112POPC   GL116825   5.876  13.625   8.853
 6112POPC   GL216826   6.006  13.699   8.853
 6112POPC   C1A16827   5.877  13.580   8.553
 6112POPC   D2A16828   5.824  13.584   8.253
 6112POPC   C3A16829   5.834  13.676   7.953
 6112POPC   C4A16830   5.909  13.643   7.653
 6112POPC   C1B16831   6.129  13.786   8.553
 6112POPC   C2B16832   6.083  13.803   8.253
 6112POPC   C3B16833   6.125  13.750   7.953
 6112POPC   C4B16834   6.070  13.807   7.653
 6113POPC   NC316835  14.424   1.966   9.453
 6113POPC   PO416836  14.428   2.029   9.153
 6113POPC   GL116837  14.407   1.998   8.853
 6113POPC   GL216838  14.268   1.920   8.853
 6113POPC   C1A16839  14.415   1.998   8.553
 6113POPC   D2A16840  14.380   2.027   8.253
 6113POPC   C3A16841  14.432   1.990   7.953
 6113POPC   C4A16842  14.397   1.942   7.653
 6113POPC   C1B16843  14.199   1.833   8.553
 6113POPC   C2B16844  14.230   1.869   8.253
 6113POPC   C3B16845  14.212   1.819   7.953
 6113POPC   C4B16846  14.197   1.843   7.653
 6114POPC   NC316847  36.131  25.246   9.453
 6114POPC   PO416848  36.140  25.307   9.153
 6114POPC   GL116849  36.082  25.277   8.853
 6114POPC   GL216850  36.103  25.421   8.853
 6114POPC   C1A16851  36.151  25.217   8.553
 6114POPC   D2A16852  36.144  25.306   8.253
 6114POPC   C3A16853  36.136  25.245   7.953
 6114POPC   C4A16854  36.155  25.279   7.653
 6114POPC   C1B16855  36.077  25.560   8.553
 6114POPC   C2B16856  36.113  25.482   8.253
 6114POPC   C3B16857  36.104  25.467   7.953
 6114POPC   C4B16858  36.049  25.499   7.653
 6115POPC   NC316859  39.975   9.767   9.453
 6115POPC   PO416860  39.986   9.777   9.153
 6115POPC   GL116861  40.034   9.761   8.853
 6115POPC   GL216862  40.070   9.722   8.853
 6115POPC   C1A16863  39.957   9.706   8.553
 6115POPC   D2A16864  40.035   9.738   8.253
 6115POPC   C3A16865  40.021   9.772   7.953
 6115POPC   C4A16866  39.977   9.776   7.653
 6115POPC   C1B16867  40.264   9.655   8.553
 6115POPC   C2B16868  40.234   9.594   8.253
 6115POPC   C3B16869  40.274   9.593   7.953
 6115POPC   C4B16870  40.238   9.634   7.653
 6116POPC   NC316871  26.809  21.426   9.453
 6116POPC   PO416872  26.838  21.352   9.153
 6116POPC   GL116873  26.817  21.424   8.853
 6116POPC   GL216874  26.797  21.496   8.853
 6116POPC   C1A16875  26.855  21.374   8.553
 6116POPC   D2A16876  26.832  21.407   8.253
 6116POPC   C3A16877  26.823  21.363   7.953
 6116POPC   C4A16878  26.780  21.355   7.653
 6116POPC   C1B16879  26.711  21.637   8.553
 6116POPC   C2B16880  26.714  21.589   8.253
 6116POPC   C3B16881  26.718  21.626   7.953
 6116POPC   C4B16882  26.717  21.625   7.653
 6117POPC   NC316883  43.932  26.012   9.453
 6117POPC   PO416884  43.847  26.030   9.153
 6117POPC   GL116885  43.870  26.000   8.853
 6117POPC   GL216886  43.777  26.038   8.853
 6117POPC   C1A16887  43.933  26.022   8.553
 6117POPC   D2A16888  43.840  26.025   8.253
 6117POPC   C3A16889  43.925  26.051   7.953
 6117POPC   C4A16890  43.927  26.007   7.653
 6117POPC   C1B16891  43.655  26.016   8.553
 6117POPC   C2B16892  43.672  26.006   8.253
 6117POPC   C3B16893  43.621  25.978   7.953
 6117POPC   C4B16894  43.594  26.007   7.653
 6118POPC   NC316895   8.978   6.679   9.453
 6118POPC   PO416896   9.021   6.687   9.153
 6118POPC   GL116897   8.955   6.663   8.853
 6118POPC   GL216898   9.052   6.583   8.853
 6118POPC   C1A16899   9.001   6.668   8.553
 6118POPC   D2A16900   9.002   6.647   8.253
 6118POPC   C3A16901   8.953   6.611   7.953
 6118POPC   C4A16902   8.925   6.650   7.653
 6118POPC   C1B16903   9.177   6.488   8.553
 6118POPC   C2B16904   9.174   6.488   8.253
 6118POPC   C3B16905   9.176   6.482   7.953
 6118POPC   C4B16906   9.143   6.511   7.653
 6119POPC   NC316907  15.218   5.880   9.453
 6119POPC   PO416908  15.220   5.910   9.153
 6119POPC   GL116909  15.183   5.842   8.853
 6119POPC   GL216910  15.203   5.958   8.853
 6119POPC   C1A16911  15.223   5.867   8.553
 6119POPC   D2A16912  15.148   5.835   8.253
 6119POPC   C3A16913  15.204   5.906   7.953
 6119POPC   C4A16914  15.173   5.827   7.653
 6119POPC   C1B16915  15.249   6.066   8.553
 6119POPC   C2B16916  15.288   6.095   8.253
 6119POPC   C3B16917  15.278   6.078   7.953
 6119POPC   C4B16918  15.326   6.066   7.653
 6120POPC   NC316919  10.559   5.877   9.453
 6120POPC   PO416920  10.484   5.900   9.153
 6120POPC   GL116921  10.552   5.835   8.853
 6120POPC   GL216922  10.691   5.871   8.853
 6120POPC   C1A16923  10.476   5.863   8.553
 6120POPC   D2A16924  10.508   5.891   8.253
 6120POPC   C3A16925  10.528   5.875   7.953
 6120POPC   C4A16926  10.518   5.897   7.653
 6120POPC   C1B16927  10.731   5.875   8.553
 6120POPC   C2B16928  10.758   5.864   8.253
 6120POPC   C3B16929  10.759   5.878   7.953
 6120POPC   C4B16930  10.782   5.841   7.653
 6121POPC   NC316931   5.141   1.213   9.453
 6121POPC   PO416932   5.045   1.212   9.153
 6121POPC   GL116933   5.115   1.249   8.853
 6121POPC   GL216934   5.075   1.044   8.853
 6121POPC   C1A16935   5.141   1.201   8.553
 6121POPC   D2A16936   5.131   1.219   8.253
 6121POPC   C3A16937   5.068   1.245   7.953
 6121POPC   C4A16938   5.104   1.200   7.653
 6121POPC   C1B16939   5.108   0.957   8.553
 6121POPC   C2B16940   5.149   0.954   8.253
 6121POPC   C3B16941   5.075   1.001   7.953
 6121POPC   C4B16942   5.074   0.953   7.653
 6122POPC   NC316943  11.330   8.206   9.453
 6122POPC   PO416944  11.255   8.192   9.153
 6122POPC   GL116945  11.310   8.212   8.853
 6122POPC   GL216946  11.295   8.035   8.853
 6122POPC   C1A16947  11.349   8.184   8.553
 6122POPC   D2A16948  11.274   8.188   8.253
 6122POPC   C3A16949  11.280   8.156   7.953
 6122POPC   C4A16950  11.265   8.203   7.653
 6122POPC   C1B16951  11.325   7.918   8.553
 6122POPC   C2B16952  11.348   7.990   8.253
 6122POPC   C3B16953  11.326   7.935   7.953
 6122POPC   C4B16954  11.337   7.949   7.653
 6123POPC   NC316955  34.566  39.241   9.453
 6123POPC   PO416956  34.539  39.248   9.153
 6123POPC   GL116957  34.605  39.190   8.853
 6123POPC   GL216958  34.692  39.208   8.853
 6123POPC   C1A16959  34.587  39.217   8.553
 6123POPC   D2A16960  34.553  39.240   8.253
 6123POPC   C3A16961  34.604  39.251   7.953
 6123POPC   C4A16962  34.530  39.235   7.653
 6123POPC   C1B16963  34.828  39.173   8.553
 6123POPC   C2B16964  34.818  39.158   8.253
 6123POPC   C3B16965  34.823  39.223   7.953
 6123POPC   C4B16966  34.837  39.222   7.653
 6124POPC   NC316967  31.452   5.088   9.453
 6124POPC   PO416968  31.445   5.140   9.153
 6124POPC   GL116969  31.463   5.138   8.853
 6124POPC   GL216970  31.341   5.162   8.853
 6124POPC   C1A16971  31.505   5.109   8.553
 6124POPC   D2A16972  31.479   5.113   8.253
 6124POPC   C3A16973  31.490   5.069   7.953
 6124POPC   C4A16974  31.504   5.095   7.653
 6124POPC   C1B16975  31.266   5.208   8.553
 6124POPC   C2B16976  31.277   5.187   8.253
 6124POPC   C3B16977  31.242   5.207   7.953
 6124POPC   C4B16978  31.198   5.172   7.653
 6125POPC   NC316979  10.529  39.993   9.453
 6125POPC   PO416980  10.533  39.958   9.153
 6125POPC   GL116981  10.493  40.006   8.853
 6125POPC   GL216982  10.521  39.860   8.853
 6125POPC   C1A16983  10.527  39.985   8.553
 6125POPC   D2A16984  10.490  40.040   8.253
 6125POPC   C3A16985  10.559  39.962   7.953
 6125POPC   C4A16986  10.502  40.056   7.653
 6125POPC   C1B16987  10.574  39.753   8.553
 6125POPC   C2B16988  10.524  39.756   8.253
 6125POPC   C3B16989  10.564  39.768   7.953
 6125POPC   C4B16990  10.516  39.768   7.653
 6126POPC   NC316991  42.379  38.429   9.453
 6126POPC   PO416992  42.384  38.446   9.153
 6126POPC   GL116993  42.362  38.495   8.853
 6126POPC   GL216994  42.342  38.323   8.853
 6126POPC   C1A16995  42.348  38.491   8.553
 6126POPC   D2A16996  42.326  38.418   8.253
 6126POPC   C3A16997  42.329  38.457   7.953
 6126POPC   C4A16998  42.304  38.438   7.653
 6126POPC   C1B16999  42.343  38.182   8.553
 6126POPC   C2B17000  42.352  38.183   8.253
 6126POPC   C3B17001  42.324  38.238   7.953
 6126POPC   C4B17002  42.340  38.187   7.653
 6127POPC   NC317003   1.258  26.030   9.453
 6127POPC   PO417004   1.202  26.024   9.153
 6127POPC   GL117005   1.240  26.065   8.853
 6127POPC   GL217006   1.112  26.124   8.853
 6127POPC   C1A17007   1.244  26.022   8.553
 6127POPC   D2A17008   1.251  26.077   8.253
 6127POPC   C3A17009   1.261  26.012   7.953
 6127POPC   C4A17010   1.202  26.045   7.653
 6127POPC   C1B17011   1.045  26.266   8.553
 6127POPC   C2B17012   1.095  26.253   8.253
 6127POPC   C3B17013   0.997  26.201   7.953
 6127POPC   C4B17014   1.002  26.225   7.653
 6128POPC   NC317015  41.532  11.293   9.453
 6128POPC   PO417016  41.540  11.290   9.153
 6128POPC   GL117017  41.579  11.285   8.853
 6128POPC   GL217018  41.530  11.440   8.853
 6128POPC   C1A17019  41.600  11.251   8.553
 6128POPC   D2A17020  41.553  11.304   8.253
 6128POPC   C3A17021  41.515  11.266   7.953
 6128POPC   C4A17022  41.522  11.304   7.653
 6128POPC   C1B17023  41.399  11.509   8.553
 6128POPC   C2B17024  41.405  11.511   8.253
 6128POPC   C3B17025  41.490  11.525   7.953
 6128POPC   C4B17026  41.407  11.478   7.653
 6129POPC   NC317027  34.614  35.308   9.453
 6129POPC   PO417028  34.588  35.360   9.153
 6129POPC   GL117029  34.613  35.319   8.853
 6129POPC   GL217030  34.681  35.327   8.853
 6129POPC   C1A17031  34.586  35.322   8.553
 6129POPC   D2A17032  34.537  35.330   8.253
 6129POPC   C3A17033  34.613  35.302   7.953
 6129POPC   C4A17034  34.612  35.349   7.653
 6129POPC   C1B17035  34.837  35.361   8.553
 6129POPC   C2B17036  34.838  35.354   8.253
 6129POPC   C3B17037  34.798  35.279   7.953
 6129POPC   C4B17038  34.799  35.277   7.653
 6130POPC   NC317039  25.301   6.601   9.453
 6130POPC   PO417040  25.279   6.611   9.153
 6130POPC   GL117041  25.246   6.653   8.853
 6130POPC   GL217042  25.358   6.691   8.853
 6130POPC   C1A17043  25.299   6.629   8.553
 6130POPC   D2A17044  25.287   6.617   8.253
 6130POPC   C3A17045  25.297   6.643   7.953
 6130POPC   C4A17046  25.224   6.670   7.653
 6130POPC   C1B17047  25.462   6.782   8.553
 6130POPC   C2B17048  25.440   6.720   8.253
 6130POPC   C3B17049  25.495   6.715   7.953
 6130POPC   C4B17050  25.476   6.784   7.653
 6131POPC   NC317051  26.008  18.256   9.453
 6131POPC   PO417052  26.079  18.329   9.153
 6131POPC   GL117053  26.088  18.249   8.853
 6131POPC   GL217054  25.924  18.196   8.853
 6131POPC   C1A17055  26.042  18.319   8.553
 6131POPC   D2A17056  26.035  18.330   8.253
 6131POPC   C3A17057  26.075  18.291   7.953
 6131POPC   C4A17058  26.040  18.248   7.653
 6131POPC   C1B17059  25.795  18.199   8.553
 6131POPC   C2B17060  25.837  18.169   8.253
 6131POPC   C3B17061  25.846  18.218   7.953
 6131POPC   C4B17062  25.862  18.183   7.653
 6132POPC   NC317063  21.386  39.236   9.453
 6132POPC   PO417064  21.399  39.278   9.153
 6132POPC   GL117065  21.365  39.197   8.853
 6132POPC   GL217066  21.262  39.248   8.853
 6132POPC   C1A17067  21.422  39.204   8.553
 6132POPC   D2A17068  21.365  39.208   8.253
 6132POPC   C3A17069  21.429  39.204   7.953
 6132POPC   C4A17070  21.377  39.205   7.653
 6132POPC   C1B17071  21.143  39.285   8.553
 6132POPC   C2B17072  21.188  39.212   8.253
 6132POPC   C3B17073  21.113  39.287   7.953
 6132POPC   C4B17074  21.140  39.296   7.653
 6133POPC   NC317075  17.464   4.342   9.453
 6133POPC   PO417076  17.515   4.349   9.153
 6133POPC   GL117077  17.464   4.316   8.853
 6133POPC   GL217078  17.468   4.453   8.853
 6133POPC   C1A17079  17.544   4.312   8.553
 6133POPC   D2A17080  17.546   4.338   8.253
 6133POPC   C3A17081  17.485   4.310   7.953
 6133POPC   C4A17082  17.464   4.315   7.653
 6133POPC   C1B17083  17.396   4.550   8.553
 6133POPC   C2B17084  17.414   4.567   8.253
 6133POPC   C3B17085  17.394   4.505   7.953
 6133POPC   C4B17086  17.358   4.573   7.653
 6134POPC   NC317087   7.468  33.044   9.453
 6134POPC   PO417088   7.398  33.022   9.153
 6134POPC   GL117089   7.460  33.053   8.853
 6134POPC   GL217090   7.354  33.145   8.853
 6134POPC   C1A17091   7.451  33.020   8.553
 6134POPC   D2A17092   7.460  32.997   8.253
 6134POPC   C3A17093   7.391  32.987   7.953
 6134POPC   C4A17094   7.418  33.055   7.653
 6134POPC   C1B17095   7.220  33.160   8.553
 6134POPC   C2B17096   7.217  33.178   8.253
 6134POPC   C3B17097   7.227  33.142   7.953
 6134POPC   C4B17098   7.202  33.199   7.653
 6135POPC   NC317099   6.630  23.728   9.453
 6135POPC   PO417100   6.686  23.759   9.153
 6135POPC   GL117101   6.598  23.755   8.853
 6135POPC   GL217102   6.531  23.656   8.853
 6135POPC   C1A17103   6.626  23.752   8.553
 6135POPC   D2A17104   6.655  23.732   8.253
 6135POPC   C3A17105   6.686  23.682   7.953
 6135POPC   C4A17106   6.613  23.674   7.653
 6135POPC   C1B17107   6.418  23.666   8.553
 6135POPC   C2B17108   6.354  23.694   8.253
 6135POPC   C3B17109   6.399  23.642   7.953
 6135POPC   C4B17110   6.371  23.712   7.653
 6136POPC   NC317111  22.938  21.418   9.453
 6136POPC   PO417112  22.914  21.428   9.153
 6136POPC   GL117113  22.932  21.411   8.853
 6136POPC   GL217114  22.851  21.287   8.853
 6136POPC   C1A17115  22.950  21.386   8.553
 6136POPC   D2A17116  22.929  21.420   8.253
 6136POPC   C3A17117  22.953  21.369   7.953
 6136POPC   C4A17118  22.970  21.357   7.653
 6136POPC   C1B17119  22.834  21.160   8.553
 6136POPC   C2B17120  22.848  21.103   8.253
 6136POPC   C3B17121  22.881  21.197   7.953
 6136POPC   C4B17122  22.816  21.136   7.653
 6137POPC   NC317123  10.512  20.613   9.453
 6137POPC   PO417124  10.531  20.649   9.153
 6137POPC   GL117125  10.557  20.586   8.853
 6137POPC   GL217126  10.435  20.615   8.853
 6137POPC   C1A17127  10.548  20.649   8.553
 6137POPC   D2A17128  10.543  20.577   8.253
 6137POPC   C3A17129  10.549  20.615   7.953
 6137POPC   C4A17130  10.489  20.598   7.653
 6137POPC   C1B17131  10.231  20.548   8.553
 6137POPC   C2B17132  10.233  20.556   8.253
 6137POPC   C3B17133  10.318  20.529   7.953
 6137POPC   C4B17134  10.321  20.583   7.653
 6138POPC   NC317135  15.925  40.045   9.453
 6138POPC   PO417136  15.964  40.012   9.153
 6138POPC   GL117137  15.944  39.989   8.853
 6138POPC   GL217138  16.103  39.983   8.853
 6138POPC   C1A17139  15.990  39.977   8.553
 6138POPC   D2A17140  15.952  39.974   8.253
 6138POPC   C3A17141  15.960  40.038   7.953
 6138POPC   C4A17142  15.987  39.992   7.653
 6138POPC   C1B17143  16.213  40.066   8.553
 6138POPC   C2B17144  16.189  40.062   8.253
 6138POPC   C3B17145  16.153  40.014   7.953
 6138POPC   C4B17146  16.240  40.040   7.653
 6139POPC   NC317147  32.203   2.001   9.453
 6139POPC   PO417148  32.288   1.982   9.153
 6139POPC   GL117149  32.298   1.975   8.853
 6139POPC   GL217150  32.292   2.100   8.853
 6139POPC   C1A17151  32.220   1.951   8.553
 6139POPC   D2A17152  32.226   1.987   8.253
 6139POPC   C3A17153  32.258   1.995   7.953
 6139POPC   C4A17154  32.291   1.981   7.653
 6139POPC   C1B17155  32.406   2.150   8.553
 6139POPC   C2B17156  32.380   2.142   8.253
 6139POPC   C3B17157  32.383   2.118   7.953
 6139POPC   C4B17158  32.472   2.149   7.653
 6140POPC   NC317159   0.412  38.489   9.453
 6140POPC   PO417160   0.415  38.445   9.153
 6140POPC   GL117161   0.453  38.418   8.853
 6140POPC   GL217162   0.350  38.480   8.853
 6140POPC   C1A17163   0.416  38.487   8.553
 6140POPC   D2A17164   0.415  38.440   8.253
 6140POPC   C3A17165   0.440  38.444   7.953
 6140POPC   C4A17166   0.458  38.442   7.653
 6140POPC   C1B17167   0.178  38.431   8.553
 6140POPC   C2B17168   0.236  38.526   8.253
 6140POPC   C3B17169   0.197  38.437   7.953
 6140POPC   C4B17170   0.175  38.491   7.653
 6141POPC   NC317171  19.054  15.948   9.453
 6141POPC   PO417172  19.051  15.998   9.153
 6141POPC   GL117173  19.098  15.948   8.853
 6141POPC   GL217174  18.987  15.884   8.853
 6141POPC   C1A17175  19.097  15.921   8.553
 6141POPC   D2A17176  19.099  15.964   8.253
 6141POPC   C3A17177  19.042  15.909   7.953
 6141POPC   C4A17178  19.073  15.965   7.653
 6141POPC   C1B17179  18.882  15.783   8.553
 6141POPC   C2B17180  18.906  15.745   8.253
 6141POPC   C3B17181  18.955  15.722   7.953
 6141POPC   C4B17182  18.964  15.754   7.653
 6142POPC   NC317183  34.532  19.070   9.453
 6142POPC   PO417184  34.541  19.018   9.153
 6142POPC   GL117185  34.574  19.045   8.853
 6142POPC   GL217186  34.487  19.113   8.853
 6142POPC   C1A17187  34.598  19.080   8.553
 6142POPC   D2A17188  34.562  19.100   8.253
 6142POPC   C3A17189  34.600  19.011   7.953
 6142POPC   C4A17190  34.582  19.033   7.653
 6142POPC   C1B17191  34.337  19.058   8.553
 6142POPC   C2B17192  34.372  19.124   8.253
 6142POPC   C3B17193  34.304  19.081   7.953
 6142POPC   C4B17194  34.309  19.081   7.653
 6143POPC   NC317195  18.297  23.686   9.453
 6143POPC   PO417196  18.263  23.721   9.153
 6143POPC   GL117197  18.235  23.745   8.853
 6143POPC   GL217198  18.289  23.794   8.853
 6143POPC   C1A17199  18.299  23.707   8.553
 6143POPC   D2A17200  18.285  23.695   8.253
 6143POPC   C3A17201  18.313  23.694   7.953
 6143POPC   C4A17202  18.313  23.756   7.653
 6143POPC   C1B17203  18.352  23.931   8.553
 6143POPC   C2B17204  18.357  24.004   8.253
 6143POPC   C3B17205  18.288  23.918   7.953
 6143POPC   C4B17206  18.271  23.937   7.653
 6144POPC   NC317207  33.024  29.171   9.453
 6144POPC   PO417208  33.049  29.148   9.153
 6144POPC   GL117209  33.038  29.181   8.853
 6144POPC   GL217210  33.166  29.207   8.853
 6144POPC   C1A17211  33.020  29.144   8.553
 6144POPC   D2A17212  33.069  29.166   8.253
 6144POPC   C3A17213  33.061  29.149   7.953
 6144POPC   C4A17214  33.047  29.142   7.653
 6144POPC   C1B17215  33.192  29.284   8.553
 6144POPC   C2B17216  33.176  29.253   8.253
 6144POPC   C3B17217  33.263  29.330   7.953
 6144POPC   C4B17218  33.209  29.258   7.653
 6145POPC   NC317219  24.527  31.473   9.453
 6145POPC   PO417220  24.478  31.429   9.153
 6145POPC   GL117221  24.450  31.472   8.853
 6145POPC   GL217222  24.470  31.547   8.853
 6145POPC   C1A17223  24.494  31.431   8.553
 6145POPC   D2A17224  24.460  31.478   8.253
 6145POPC   C3A17225  24.451  31.448   7.953
 6145POPC   C4A17226  24.451  31.489   7.653
 6145POPC   C1B17227  24.420  31.673   8.553
 6145POPC   C2B17228  24.402  31.673   8.253
 6145POPC   C3B17229  24.409  31.734   7.953
 6145POPC   C4B17230  24.452  31.690   7.653
 6146POPC   NC317231  42.352  28.377   9.453
 6146POPC   PO417232  42.384  28.335   9.153
 6146POPC   GL117233  42.380  28.402   8.853
 6146POPC   GL217234  42.328  28.230   8.853
 6146POPC   C1A17235  42.306  28.344   8.553
 6146POPC   D2A17236  42.338  28.333   8.253
 6146POPC   C3A17237  42.314  28.387   7.953
 6146POPC   C4A17238  42.324  28.325   7.653
 6146POPC   C1B17239  42.347  28.102   8.553
 6146POPC   C2B17240  42.299  28.139   8.253
 6146POPC   C3B17241  42.358  28.148   7.953
 6146POPC   C4B17242  42.299  28.140   7.653
 6147POPC   NC317243  35.312  35.362   9.453
 6147POPC   PO417244  35.305  35.324   9.153
 6147POPC   GL117245  35.361  35.354   8.853
 6147POPC   GL217246  35.470  35.315   8.853
 6147POPC   C1A17247  35.369  35.349   8.553
 6147POPC   D2A17248  35.378  35.304   8.253
 6147POPC   C3A17249  35.396  35.359   7.953
 6147POPC   C4A17250  35.302  35.316   7.653
 6147POPC   C1B17251  35.535  35.251   8.553
 6147POPC   C2B17252  35.600  35.287   8.253
 6147POPC   C3B17253  35.593  35.292   7.953
 6147POPC   C4B17254  35.545  35.211   7.653
 6148POPC   NC317255  19.806  10.547   9.453
 6148POPC   PO417256  19.785  10.527   9.153
 6148POPC   GL117257  19.858  10.560   8.853
 6148POPC   GL217258  19.871  10.399   8.853
 6148POPC   C1A17259  19.835  10.517   8.553
 6148POPC   D2A17260  19.860  10.557   8.253
 6148POPC   C3A17261  19.882  10.526   7.953
 6148POPC   C4A17262  19.796  10.524   7.653
 6148POPC   C1B17263  19.871  10.281   8.553
 6148POPC   C2B17264  19.849  10.281   8.253
 6148POPC   C3B17265  19.817  10.245   7.953
 6148POPC   C4B17266  19.782  10.246   7.653
 6149POPC   NC317267   6.621  16.737   9.453
 6149POPC   PO417268   6.627  16.686   9.153
 6149POPC   GL117269   6.672  16.692   8.853
 6149POPC   GL217270   6.686  16.605   8.853
 6149POPC   C1A17271   6.686  16.723   8.553
 6149POPC   D2A17272   6.658  16.742   8.253
 6149POPC   C3A17273   6.637  16.744   7.953
 6149POPC   C4A17274   6.663  16.776   7.653
 6149POPC   C1B17275   6.699  16.436   8.553
 6149POPC   C2B17276   6.700  16.506   8.253
 6149POPC   C3B17277   6.674  16.470   7.953
 6149POPC   C4B17278   6.632  16.505   7.653
 6150POPC   NC317279   2.012  18.291   9.453
 6150POPC   PO417280   2.024  18.239   9.153
 6150POPC   GL117281   1.996  18.294   8.853
 6150POPC   GL217282   2.014  18.129   8.853
 6150POPC   C1A17283   2.017  18.294   8.553
 6150POPC   D2A17284   1.988  18.277   8.253
 6150POPC   C3A17285   2.019  18.267   7.953
 6150POPC   C4A17286   2.039  18.288   7.653
 6150POPC   C1B17287   2.004  18.018   8.553
 6150POPC   C2B17288   2.003  18.065   8.253
 6150POPC   C3B17289   1.954  18.083   7.953
 6150POPC   C4B17290   1.980  18.002   7.653
 6151POPC   NC317291   6.662  25.270   9.453
 6151POPC   PO417292   6.672  25.295   9.153
 6151POPC   GL117293   6.694  25.237   8.853
 6151POPC   GL217294   6.610  25.173   8.853
 6151POPC   C1A17295   6.641  25.260   8.553
 6151POPC   D2A17296   6.665  25.304   8.253
 6151POPC   C3A17297   6.640  25.286   7.953
 6151POPC   C4A17298   6.658  25.311   7.653
 6151POPC   C1B17299   6.501  25.073   8.553
 6151POPC   C2B17300   6.498  25.055   8.253
 6151POPC   C3B17301   6.549  25.009   7.953
 6151POPC   C4B17302   6.570  25.093   7.653
 6152POPC   NC317303  26.824   9.007   9.453
 6152POPC   PO417304  26.857   9.007   9.153
 6152POPC   GL117305  26.858   8.970   8.853
 6152POPC   GL217306  26.771   9.116   8.853
 6152POPC   C1A17307  26.794   9.007   8.553
 6152POPC   D2A17308  26.801   8.971   8.253
 6152POPC   C3A17309  26.828   9.015   7.953
 6152POPC   C4A17310  26.767   8.963   7.653
 6152POPC   C1B17311  26.811   9.168   8.553
 6152POPC   C2B17312  26.776   9.267   8.253
 6152POPC   C3B17313  26.753   9.227   7.953
 6152POPC   C4B17314  26.809   9.238   7.653
 6153POPC   NC317315  28.411  42.380   9.453
 6153POPC   PO417316  28.328  42.349   9.153
 6153POPC   GL117317  28.417  42.345   8.853
 6153POPC   GL217318  28.284  42.362   8.853
 6153POPC   C1A17319  28.328  42.377   8.553
 6153POPC   D2A17320  28.354  42.382   8.253
 6153POPC   C3A17321  28.346  42.318   7.953
 6153POPC   C4A17322  28.412  42.331   7.653
 6153POPC   C1B17323  28.138  42.329   8.553
 6153POPC   C2B17324  28.116  42.412   8.253
 6153POPC   C3B17325  28.103  42.424   7.953
 6153POPC   C4B17326  28.111  42.365   7.653
 6154POPC   NC317327   0.429  17.497   9.453
 6154POPC   PO417328   0.449  17.512   9.153
 6154POPC   GL117329   0.407  17.543   8.853
 6154POPC   GL217330   0.483  17.366   8.853
 6154POPC   C1A17331   0.412  17.486   8.553
 6154POPC   D2A17332   0.400  17.458   8.253
 6154POPC   C3A17333   0.429  17.534   7.953
 6154POPC   C4A17334   0.472  17.556   7.653
 6154POPC   C1B17335   0.490  17.256   8.553
 6154POPC   C2B17336   0.447  17.252   8.253
 6154POPC   C3B17337   0.518  17.248   7.953
 6154POPC   C4B17338   0.533  17.301   7.653
 6155POPC   NC317339   2.785  18.262   9.453
 6155POPC   PO417340   2.810  18.243   9.153
 6155POPC   GL117341   2.779  18.256   8.853
 6155POPC   GL217342   2.816  18.370   8.853
 6155POPC   C1A17343   2.788  18.273   8.553
 6155POPC   D2A17344   2.719  18.242   8.253
 6155POPC   C3A17345   2.791  18.278   7.953
 6155POPC   C4A17346   2.793  18.244   7.653
 6155POPC   C1B17347   2.957  18.402   8.553
 6155POPC   C2B17348   2.942  18.412   8.253
 6155POPC   C3B17349   2.992  18.407   7.953
 6155POPC   C4B17350   2.947  18.437   7.653
 6156POPC   NC317351  26.850  23.740   9.453
 6156POPC   PO417352  26.786  23.727   9.153
 6156POPC   GL117353  26.844  23.707   8.853
 6156POPC   GL217354  26.907  23.767   8.853
 6156POPC   C1A17355  26.778  23.735   8.553
 6156POPC   D2A17356  26.815  23.737   8.253
 6156POPC   C3A17357  26.816  23.694   7.953
 6156POPC   C4A17358  26.843  23.743   7.653
 6156POPC   C1B17359  26.973  23.887   8.553
 6156POPC   C2B17360  27.018  23.925   8.253
 6156POPC   C3B17361  26.992  23.892   7.953
 6156POPC   C4B17362  26.970  23.881   7.653
 6157POPC   NC317363   3.563   8.167   9.453
 6157POPC   PO417364   3.589   8.218   9.153
 6157POPC   GL117365   3.579   8.212   8.853
 6157POPC   GL217366   3.517   8.284   8.853
 6157POPC   C1A17367   3.541   8.241   8.553
 6157POPC   D2A17368   3.568   8.237   8.253
 6157POPC   C3A17369   3.492   8.203   7.953
 6157POPC   C4A17370   3.496   8.211   7.653
 6157POPC   C1B17371   3.417   8.416   8.553
 6157POPC   C2B17372   3.449   8.382   8.253
 6157POPC   C3B17373   3.454   8.382   7.953
 6157POPC   C4B17374   3.427   8.428   7.653
 6158POPC   NC317375  35.314  42.343   9.453
 6158POPC   PO417376  35.305  42.360   9.153
 6158POPC   GL117377  35.387  42.343   8.853
 6158POPC   GL217378  35.431  42.363   8.853
 6158POPC   C1A17379  35.400  42.345   8.553
 6158POPC   D2A17380  35.357  42.364   8.253
 6158POPC   C3A17381  35.330  42.340   7.953
 6158POPC   C4A17382  35.386  42.337   7.653
 6158POPC   C1B17383  35.594  42.513   8.553
 6158POPC   C2B17384  35.531  42.448   8.253
 6158POPC   C3B17385  35.570  42.422   7.953
 6158POPC   C4B17386  35.586  42.421   7.653
 6159POPC   NC317387  32.201  25.286   9.453
 6159POPC   PO417388  32.217  25.308   9.153
 6159POPC   GL117389  32.282  25.306   8.853
 6159POPC   GL217390  32.289  25.406   8.853
 6159POPC   C1A17391  32.254  25.276   8.553
 6159POPC   D2A17392  32.264  25.252   8.253
 6159POPC   C3A17393  32.205  25.280   7.953
 6159POPC   C4A17394  32.277  25.274   7.653
 6159POPC   C1B17395  32.255  25.476   8.553
 6159POPC   C2B17396  32.261  25.484   8.253
 6159POPC   C3B17397  32.246  25.468   7.953
 6159POPC   C4B17398  32.287  25.520   7.653
 6160POPC   NC317399   6.622  39.222   9.453
 6160POPC   PO417400   6.660  39.184   9.153
 6160POPC   GL117401   6.605  39.228   8.853
 6160POPC   GL217402   6.562  39.284   8.853
 6160POPC   C1A17403   6.597  39.194   8.553
 6160POPC   D2A17404   6.656  39.280   8.253
 6160POPC   C3A17405   6.605  39.244   7.953
 6160POPC   C4A17406   6.608  39.237   7.653
 6160POPC   C1B17407   6.459  39.365   8.553
 6160POPC   C2B17408   6.366  39.332   8.253
 6160POPC   C3B17409   6.424  39.287   7.953
 6160POPC   C4B17410   6.425  39.344   7.653
 6161POPC   NC317411   2.767  36.895   9.453
 6161POPC   PO417412   2.779  36.902   9.153
 6161POPC   GL117413   2.809  36.953   8.853
 6161POPC   GL217414   2.862  36.768   8.853
 6161POPC   C1A17415   2.791  36.925   8.553
 6161POPC   D2A17416   2.765  36.891   8.253
 6161POPC   C3A17417   2.775  36.874   7.953
 6161POPC   C4A17418   2.776  36.938   7.653
 6161POPC   C1B17419   2.891  36.661   8.553
 6161POPC   C2B17420   2.857  36.650   8.253
 6161POPC   C3B17421   2.830  36.645   7.953
 6161POPC   C4B17422   2.874  36.651   7.653
 6162POPC   NC317423   8.987  18.286   9.453
 6162POPC   PO417424   9.004  18.324   9.153
 6162POPC   GL117425   8.975  18.310   8.853
 6162POPC   GL217426   8.849  18.242   8.853
 6162POPC   C1A17427   9.015  18.241   8.553
 6162POPC   D2A17428   8.934  18.285   8.253
 6162POPC   C3A17429   9.020  18.318   7.953
 6162POPC   C4A17430   9.012  18.245   7.653
 6162POPC   C1B17431   8.796  18.195   8.553
 6162POPC   C2B17432   8.723  18.156   8.253
 6162POPC   C3B17433   8.734  18.179   7.953
 6162POPC   C4B17434   8.778  18.181   7.653
 6163POPC   NC317435  40.021  42.354   9.453
 6163POPC   PO417436  40.043  42.303   9.153
 6163POPC   GL117437  40.029  42.339   8.853
 6163POPC   GL217438  40.020  42.487   8.853
 6163POPC   C1A17439  40.037  42.292   8.553
 6163POPC   D2A17440  39.965  42.364   8.253
 6163POPC   C3A17441  39.978  42.330   7.953
 6163POPC   C4A17442  39.991  42.334   7.653
 6163POPC   C1B17443  40.117  42.528   8.553
 6163POPC   C2B17444  40.035  42.531   8.253
 6163POPC   C3B17445  40.037  42.541   7.953
 6163POPC   C4B17446  40.124  42.601   7.653
 6164POPC   NC317447   8.201   5.866   9.453
 6164POPC   PO417448   8.212   5.906   9.153
 6164POPC   GL117449   8.173   5.874   8.853
 6164POPC   GL217450   8.034   5.925   8.853
 6164POPC   C1A17451   8.152   5.875   8.553
 6164POPC   D2A17452   8.147   5.919   8.253
 6164POPC   C3A17453   8.155   5.899   7.953
 6164POPC   C4A17454   8.234   5.911   7.653
 6164POPC   C1B17455   7.975   5.944   8.553
 6164POPC   C2B17456   7.909   5.936   8.253
 6164POPC   C3B17457   7.959   5.930   7.953
 6164POPC   C4B17458   7.987   5.884   7.653
 6165POPC   NC317459  36.938  39.959   9.453
 6165POPC   PO417460  36.928  39.961   9.153
 6165POPC   GL117461  36.866  39.982   8.853
 6165POPC   GL217462  37.028  40.052   8.853
 6165POPC   C1A17463  36.895  39.987   8.553
 6165POPC   D2A17464  36.921  40.016   8.253
 6165POPC   C3A17465  36.896  40.039   7.953
 6165POPC   C4A17466  36.866  40.019   7.653
 6165POPC   C1B17467  37.171  40.116   8.553
 6165POPC   C2B17468  37.121  40.078   8.253
 6165POPC   C3B17469  37.142  40.133   7.953
 6165POPC   C4B17470  37.094  40.116   7.653
 6166POPC   NC317471  19.037  16.753   9.453
 6166POPC   PO417472  19.103  16.751   9.153
 6166POPC   GL117473  19.104  16.722   8.853
 6166POPC   GL217474  19.002  16.865   8.853
 6166POPC   C1A17475  19.102  16.766   8.553
 6166POPC   D2A17476  19.046  16.731   8.253
 6166POPC   C3A17477  19.079  16.734   7.953
 6166POPC   C4A17478  19.087  16.691   7.653
 6166POPC   C1B17479  18.999  16.995   8.553
 6166POPC   C2B17480  18.963  16.946   8.253
 6166POPC   C3B17481  18.978  16.999   7.953
 6166POPC   C4B17482  18.955  16.956   7.653
 6167POPC   NC317483  12.826  18.299   9.453
 6167POPC   PO417484  12.870  18.233   9.153
 6167POPC   GL117485  12.894  18.247   8.853
 6167POPC   GL217486  12.827  18.166   8.853
 6167POPC   C1A17487  12.825  18.251   8.553
 6167POPC   D2A17488  12.854  18.298   8.253
 6167POPC   C3A17489  12.867  18.325   7.953
 6167POPC   C4A17490  12.873  18.239   7.653
 6167POPC   C1B17491  12.695  18.055   8.553
 6167POPC   C2B17492  12.711  18.042   8.253
 6167POPC   C3B17493  12.750  18.056   7.953
 6167POPC   C4B17494  12.725  18.032   7.653
 6168POPC   NC317495  15.910  29.156   9.453
 6168POPC   PO417496  15.977  29.130   9.153
 6168POPC   GL117497  15.929  29.155   8.853
 6168POPC   GL217498  15.890  29.207   8.853
 6168POPC   C1A17499  15.936  29.161   8.553
 6168POPC   D2A17500  15.925  29.149   8.253
 6168POPC   C3A17501  15.969  29.125   7.953
 6168POPC   C4A17502  15.936  29.111   7.653
 6168POPC   C1B17503  15.783  29.303   8.553
 6168POPC   C2B17504  15.819  29.268   8.253
 6168POPC   C3B17505  15.732  29.325   7.953
 6168POPC   C4B17506  15.729  29.339   7.653
 6169POPC   NC317507  35.307   3.522   9.453
 6169POPC   PO417508  35.382   3.546   9.153
 6169POPC   GL117509  35.313   3.553   8.853
 6169POPC   GL217510  35.242   3.412   8.853
 6169POPC   C1A17511  35.399   3.553   8.553
 6169POPC   D2A17512  35.322   3.517   8.253
 6169POPC   C3A17513  35.394   3.510   7.953
 6169POPC   C4A17514  35.328   3.591   7.653
 6169POPC   C1B17515  35.231   3.322   8.553
 6169POPC   C2B17516  35.205   3.308   8.253
 6169POPC   C3B17517  35.227   3.280   7.953
 6169POPC   C4B17518  35.192   3.341   7.653
 6170POPC   NC317519  12.901  30.658   9.453
 6170POPC   PO417520  12.883  30.745   9.153
 6170POPC   GL117521  12.862  30.708   8.853
 6170POPC   GL217522  12.767  30.714   8.853
 6170POPC   C1A17523  12.829  30.680   8.553
 6170POPC   D2A17524  12.897  30.647   8.253
 6170POPC   C3A17525  12.837  30.713   7.953
 6170POPC   C4A17526  12.810  30.690   7.653
 6170POPC   C1B17527  12.588  30.734   8.553
 6170POPC   C2B17528  12.648  30.719   8.253
 6170POPC   C3B17529  12.656  30.755   7.953
 6170POPC   C4B17530  12.640  30.756   7.653
 6171POPC   NC317531  29.165  32.234   9.453
 6171POPC   PO417532  29.174  32.254   9.153
 6171POPC   GL117533  29.108  32.200   8.853
 6171POPC   GL217534  29.057  32.165   8.853
 6171POPC   C1A17535  29.155  32.296   8.553
 6171POPC   D2A17536  29.162  32.236   8.253
 6171POPC   C3A17537  29.104  32.227   7.953
 6171POPC   C4A17538  29.107  32.297   7.653
 6171POPC   C1B17539  29.051  32.064   8.553
 6171POPC   C2B17540  28.976  32.081   8.253
 6171POPC   C3B17541  29.021  32.001   7.953
 6171POPC   C4B17542  29.052  32.058   7.653
 6172POPC   NC317543   7.418  20.593   9.453
 6172POPC   PO417544   7.427  20.659   9.153
 6172POPC   GL117545   7.470  20.602   8.853
 6172POPC   GL217546   7.385  20.690   8.853
 6172POPC   C1A17547   7.425  20.628   8.553
 6172POPC   D2A17548   7.380  20.623   8.253
 6172POPC   C3A17549   7.372  20.642   7.953
 6172POPC   C4A17550   7.420  20.584   7.653
 6172POPC   C1B17551   7.226  20.828   8.553
 6172POPC   C2B17552   7.284  20.823   8.253
 6172POPC   C3B17553   7.310  20.774   7.953
 6172POPC   C4B17554   7.220  20.834   7.653
 6173POPC   NC317555  35.324   4.330   9.453
 6173POPC   PO417556  35.355   4.301   9.153
 6173POPC   GL117557  35.391   4.319   8.853
 6173POPC   GL217558  35.331   4.154   8.853
 6173POPC   C1A17559  35.352   4.323   8.553
 6173POPC   D2A17560  35.358   4.317   8.253
 6173POPC   C3A17561  35.321   4.349   7.953
 6173POPC   C4A17562  35.333   4.272   7.653
 6173POPC   C1B17563  35.391   4.046   8.553
 6173POPC   C2B17564  35.405   4.028   8.253
 6173POPC   C3B17565  35.353   4.102   7.953
 6173POPC   C4B17566  35.356   4.105   7.653
 6174POPC   NC317567  26.018  29.875   9.453
 6174POPC   PO417568  26.073  29.950   9.153
 6174POPC   GL117569  26.012  29.955   8.853
 6174POPC   GL217570  26.068  29.790   8.853
 6174POPC   C1A17571  26.055  29.876   8.553
 6174POPC   D2A17572  26.017  29.898   8.253
 6174POPC   C3A17573  26.026  29.891   7.953
 6174POPC   C4A17574  26.007  29.952   7.653
 6174POPC   C1B17575  26.020  29.691   8.553
 6174POPC   C2B17576  26.037  29.655   8.253
 6174POPC   C3B17577  25.975  29.669   7.953
 6174POPC   C4B17578  25.978  29.715   7.653
 6175POPC   NC317579  38.493  34.564   9.453
 6175POPC   PO417580  38.455  34.535   9.153
 6175POPC   GL117581  38.408  34.593   8.853
 6175POPC   GL217582  38.434  34.468   8.853
 6175POPC   C1A17583  38.430  34.605   8.553
 6175POPC   D2A17584  38.438  34.604   8.253
 6175POPC   C3A17585  38.454  34.607   7.953
 6175POPC   C4A17586  38.487  34.570   7.653
 6175POPC   C1B17587  38.472  34.374   8.553
 6175POPC   C2B17588  38.434  34.367   8.253
 6175POPC   C3B17589  38.434  34.311   7.953
 6175POPC   C4B17590  38.421  34.335   7.653
 6176POPC   NC317591  17.457  41.545   9.453
 6176POPC   PO417592  17.464  41.524   9.153
 6176POPC   GL117593  17.536  41.604   8.853
 6176POPC   GL217594  17.519  41.438   8.853
 6176POPC   C1A17595  17.468  41.533   8.553
 6176POPC   D2A17596  17.481  41.606   8.253
 6176POPC   C3A17597  17.496  41.565   7.953
 6176POPC   C4A17598  17.465  41.575   7.653
 6176POPC   C1B17599  17.593  41.300   8.553
 6176POPC   C2B17600  17.550  41.321   8.253
 6176POPC   C3B17601  17.617  41.339   7.953
 6176POPC   C4B17602  17.614  41.340   7.653
 6177POPC   NC317603  28.342  36.099   9.453
 6177POPC   PO417604  28.406  36.079   9.153
 6177POPC   GL117605  28.359  36.156   8.853
 6177POPC   GL217606  28.407  36.001   8.853
 6177POPC   C1A17607  28.340  36.138   8.553
 6177POPC   D2A17608  28.397  36.158   8.253
 6177POPC   C3A17609  28.398  36.135   7.953
 6177POPC   C4A17610  28.349  36.086   7.653
 6177POPC   C1B17611  28.499  35.893   8.553
 6177POPC   C2B17612  28.500  35.933   8.253
 6177POPC   C3B17613  28.491  35.916   7.953
 6177POPC   C4B17614  28.501  35.938   7.653
 6178POPC   NC317615   2.038  40.800   9.453
 6178POPC   PO417616   2.039  40.800   9.153
 6178POPC   GL117617   1.965  40.827   8.853
 6178POPC   GL217618   2.126  40.744   8.853
 6178POPC   C1A17619   1.955  40.795   8.553
 6178POPC   D2A17620   1.989  40.809   8.253
 6178POPC   C3A17621   2.005  40.810   7.953
 6178POPC   C4A17622   2.036  40.816   7.653
 6178POPC   C1B17623   2.248  40.702   8.553
 6178POPC   C2B17624   2.226  40.728   8.253
 6178POPC   C3B17625   2.204  40.705   7.953
 6178POPC   C4B17626   2.247  40.641   7.653
 6179POPC   NC317627  32.985  42.290   9.453
 6179POPC   PO417628  33.054  42.343   9.153
 6179POPC   GL117629  33.005  42.327   8.853
 6179POPC   GL217630  33.151  42.274   8.853
 6179POPC   C1A17631  33.009  42.332   8.553
 6179POPC   D2A17632  33.026  42.358   8.253
 6179POPC   C3A17633  33.062  42.285   7.953
 6179POPC   C4A17634  32.985  42.338   7.653
 6179POPC   C1B17635  33.157  42.132   8.553
 6179POPC   C2B17636  33.203  42.134   8.253
 6179POPC   C3B17637  33.187  42.127   7.953
 6179POPC   C4B17638  33.230  42.186   7.653
 6180POPC   NC317639  19.033  40.799   9.453
 6180POPC   PO417640  19.030  40.828   9.153
 6180POPC   GL117641  19.054  40.780   8.853
 6180POPC   GL217642  19.006  40.647   8.853
 6180POPC   C1A17643  19.019  40.763   8.553
 6180POPC   D2A17644  19.061  40.772   8.253
 6180POPC   C3A17645  19.077  40.813   7.953
 6180POPC   C4A17646  19.041  40.761   7.653
 6180POPC   C1B17647  18.909  40.529   8.553
 6180POPC   C2B17648  18.884  40.533   8.253
 6180POPC   C3B17649  18.913  40.603   7.953
 6180POPC   C4B17650  18.895  40.573   7.653
 6181POPC   NC317651  43.070  10.571   9.453
 6181POPC   PO417652  43.133  10.490   9.153
 6181POPC   GL117653  43.097  10.514   8.853
 6181POPC   GL217654  43.147  10.442   8.853
 6181POPC   C1A17655  43.155  10.546   8.553
 6181POPC   D2A17656  43.074  10.537   8.253
 6181POPC   C3A17657  43.124  10.495   7.953
 6181POPC   C4A17658  43.067  10.495   7.653
 6181POPC   C1B17659  43.224  10.333   8.553
 6181POPC   C2B17660  43.295  10.362   8.253
 6181POPC   C3B17661  43.247  10.298   7.953
 6181POPC   C4B17662  43.232  10.291   7.653
 6182POPC   NC317663   9.010   8.176   9.453
 6182POPC   PO417664   8.958   8.233   9.153
 6182POPC   GL117665   8.979   8.182   8.853
 6182POPC   GL217666   8.826   8.193   8.853
 6182POPC   C1A17667   9.022   8.208   8.553
 6182POPC   D2A17668   8.935   8.237   8.253
 6182POPC   C3A17669   8.962   8.177   7.953
 6182POPC   C4A17670   8.960   8.182   7.653
 6182POPC   C1B17671   8.710   8.132   8.553
 6182POPC   C2B17672   8.776   8.066   8.253
 6182POPC   C3B17673   8.767   8.084   7.953
 6182POPC   C4B17674   8.707   8.079   7.653
 6183POPC   NC317675   7.410  17.486   9.453
 6183POPC   PO417676   7.424  17.491   9.153
 6183POPC   GL117677   7.382  17.529   8.853
 6183POPC   GL217678   7.408  17.353   8.853
 6183POPC   C1A17679   7.460  17.469   8.553
 6183POPC   D2A17680   7.388  17.492   8.253
 6183POPC   C3A17681   7.381  17.490   7.953
 6183POPC   C4A17682   7.372  17.531   7.653
 6183POPC   C1B17683   7.446  17.255   8.553
 6183POPC   C2B17684   7.507  17.268   8.253
 6183POPC   C3B17685   7.477  17.277   7.953
 6183POPC   C4B17686   7.481  17.306   7.653
 6184POPC   NC317687  18.246  11.294   9.453
 6184POPC   PO417688  18.240  11.262   9.153
 6184POPC   GL117689  18.289  11.281   8.853
 6184POPC   GL217690  18.344  11.233   8.853
 6184POPC   C1A17691  18.278  11.277   8.553
 6184POPC   D2A17692  18.311  11.316   8.253
 6184POPC   C3A17693  18.300  11.264   7.953
 6184POPC   C4A17694  18.301  11.285   7.653
 6184POPC   C1B17695  18.467  11.132   8.553
 6184POPC   C2B17696  18.491  11.089   8.253
 6184POPC   C3B17697  18.421  11.088   7.953
 6184POPC   C4B17698  18.488  11.169   7.653
 6185POPC   NC317699  22.987  36.100   9.453
 6185POPC   PO417700  22.962  36.146   9.153
 6185POPC   GL117701  22.917  36.168   8.853
 6185POPC   GL217702  22.799  36.126   8.853
 6185POPC   C1A17703  22.907  36.157   8.553
 6185POPC   D2A17704  22.942  36.095   8.253
 6185POPC   C3A17705  22.906  36.159   7.953
 6185POPC   C4A17706  22.942  36.162   7.653
 6185POPC   C1B17707  22.653  36.177   8.553
 6185POPC   C2B17708  22.703  36.198   8.253
 6185POPC   C3B17709  22.653  36.115   7.953
 6185POPC   C4B17710  22.641  36.122   7.653
 6186POPC   NC317711  34.539  17.509   9.453
 6186POPC   PO417712  34.555  17.553   9.153
 6186POPC   GL117713  34.626  17.531   8.853
 6186POPC   GL217714  34.673  17.632   8.853
 6186POPC   C1A17715  34.588  17.521   8.553
 6186POPC   D2A17716  34.530  17.488   8.253
 6186POPC   C3A17717  34.605  17.523   7.953
 6186POPC   C4A17718  34.599  17.513   7.653
 6186POPC   C1B17719  34.782  17.650   8.553
 6186POPC   C2B17720  34.781  17.676   8.253
 6186POPC   C3B17721  34.763  17.656   7.953
 6186POPC   C4B17722  34.791  17.714   7.653
 6187POPC   NC317723  14.362  16.705   9.453
 6187POPC   PO417724  14.363  16.695   9.153
 6187POPC   GL117725  14.426  16.774   8.853
 6187POPC   GL217726  14.452  16.609   8.853
 6187POPC   C1A17727  14.356  16.762   8.553
 6187POPC   D2A17728  14.388  16.687   8.253
 6187POPC   C3A17729  14.428  16.759   7.953
 6187POPC   C4A17730  14.390  16.714   7.653
 6187POPC   C1B17731  14.639  16.554   8.553
 6187POPC   C2B17732  14.541  16.563   8.253
 6187POPC   C3B17733  14.596  16.554   7.953
 6187POPC   C4B17734  14.557  16.550   7.653
 6188POPC   NC317735  31.450  12.033   9.453
 6188POPC   PO417736  31.452  12.121   9.153
 6188POPC   GL117737  31.514  12.030   8.853
 6188POPC   GL217738  31.564  12.056   8.853
 6188POPC   C1A17739  31.440  12.104   8.553
 6188POPC   D2A17740  31.475  12.040   8.253
 6188POPC   C3A17741  31.458  12.033   7.953
 6188POPC   C4A17742  31.514  12.030   7.653
 6188POPC   C1B17743  31.732  12.086   8.553
 6188POPC   C2B17744  31.729  12.083   8.253
 6188POPC   C3B17745  31.683  12.014   7.953
 6188POPC   C4B17746  31.733  12.067   7.653
 6189POPC   NC317747  33.843  11.259   9.453
 6189POPC   PO417748  33.791  11.344   9.153
 6189POPC   GL117749  33.814  11.285   8.853
 6189POPC   GL217750  33.752  11.217   8.853
 6189POPC   C1A17751  33.764  11.325   8.553
 6189POPC   D2A17752  33.791  11.323   8.253
 6189POPC   C3A17753  33.791  11.287   7.953
 6189POPC   C4A17754  33.829  11.289   7.653
 6189POPC   C1B17755  33.783  11.026   8.553
 6189POPC   C2B17756  33.758  11.035   8.253
 6189POPC   C3B17757  33.803  11.027   7.953
 6189POPC   C4B17758  33.803  11.052   7.653
 6190POPC   NC317759  36.862   4.299   9.453
 6190POPC   PO417760  36.874   4.295   9.153
 6190POPC   GL117761  36.906   4.274   8.853
 6190POPC   GL217762  36.981   4.318   8.853
 6190POPC   C1A17763  36.905   4.361   8.553
 6190POPC   D2A17764  36.918   4.313   8.253
 6190POPC   C3A17765  36.900   4.284   7.953
 6190POPC   C4A17766  36.918   4.319   7.653
 6190POPC   C1B17767  37.122   4.327   8.553
 6190POPC   C2B17768  37.176   4.288   8.253
 6190POPC   C3B17769  37.191   4.250   7.953
 6190POPC   C4B17770  37.138   4.302   7.653
 6191POPC   NC317771  44.689   4.316   9.453
 6191POPC   PO417772  44.629   4.302   9.153
 6191POPC   GL117773  44.622   4.293   8.853
 6191POPC   GL217774  44.628   4.200   8.853
 6191POPC   C1A17775  44.616   4.355   8.553
 6191POPC   D2A17776  44.667   4.330   8.253
 6191POPC   C3A17777  44.637   4.332   7.953
 6191POPC   C4A17778  44.676   4.318   7.653
 6191POPC   C1B17779  44.729   4.064   8.553
 6191POPC   C2B17780  44.670   4.103   8.253
 6191POPC   C3B17781  44.676   4.058   7.953
 6191POPC   C4B17782  44.691   4.110   7.653
 6192POPC   NC317783  29.174  13.653   9.453
 6192POPC   PO417784  29.108  13.659   9.153
 6192POPC   GL117785  29.151  13.664   8.853
 6192POPC   GL217786  29.164  13.477   8.853
 6192POPC   C1A17787  29.104  13.661   8.553
 6192POPC   D2A17788  29.175  13.624   8.253
 6192POPC   C3A17789  29.151  13.665   7.953
 6192POPC   C4A17790  29.183  13.619   7.653
 6192POPC   C1B17791  29.254  13.451   8.553
 6192POPC   C2B17792  29.275  13.437   8.253
 6192POPC   C3B17793  29.298  13.394   7.953
 6192POPC   C4B17794  29.234  13.440   7.653
 6193POPC   NC317795  37.700   0.461   9.453
 6193POPC   PO417796  37.640   0.476   9.153
 6193POPC   GL117797  37.695   0.452   8.853
 6193POPC   GL217798  37.736   0.281   8.853
 6193POPC   C1A17799  37.677   0.426   8.553
 6193POPC   D2A17800  37.682   0.415   8.253
 6193POPC   C3A17801  37.668   0.432   7.953
 6193POPC   C4A17802  37.644   0.446   7.653
 6193POPC   C1B17803  37.773   0.204   8.553
 6193POPC   C2B17804  37.770   0.217   8.253
 6193POPC   C3B17805  37.768   0.244   7.953
 6193POPC   C4B17806  37.692   0.235   7.653
 6194POPC   NC317807  44.693   2.723   9.453
 6194POPC   PO417808  44.699   2.740   9.153
 6194POPC   GL117809  44.627   2.766   8.853
 6194POPC   GL217810  44.546   2.833   8.853
 6194POPC   C1A17811  44.704   2.766   8.553
 6194POPC   D2A17812  44.681   2.788   8.253
 6194POPC   C3A17813  44.665   2.725   7.953
 6194POPC   C4A17814  44.653   2.768   7.653
 6194POPC   C1B17815  44.411   2.856   8.553
 6194POPC   C2B17816  44.427   2.841   8.253
 6194POPC   C3B17817  44.462   2.894   7.953
 6194POPC   C4B17818  44.390   2.905   7.653
 6195POPC   NC317819  36.925  14.416   9.453
 6195POPC   PO417820  36.918  14.394   9.153
 6195POPC   GL117821  36.928  14.423   8.853
 6195POPC   GL217822  36.794  14.304   8.853
 6195POPC   C1A17823  36.894  14.405   8.553
 6195POPC   D2A17824  36.930  14.429   8.253
 6195POPC   C3A17825  36.860  14.449   7.953
 6195POPC   C4A17826  36.902  14.402   7.653
 6195POPC   C1B17827  36.740  14.181   8.553
 6195POPC   C2B17828  36.774  14.208   8.253
 6195POPC   C3B17829  36.700  14.245   7.953
 6195POPC   C4B17830  36.716  14.205   7.653
 6196POPC   NC317831  17.517  18.280   9.453
 6196POPC   PO417832  17.461  18.322   9.153
 6196POPC   GL117833  17.506  18.293   8.853
 6196POPC   GL217834  17.472  18.383   8.853
 6196POPC   C1A17835  17.494  18.298   8.553
 6196POPC   D2A17836  17.490  18.325   8.253
 6196POPC   C3A17837  17.476  18.322   7.953
 6196POPC   C4A17838  17.496  18.314   7.653
 6196POPC   C1B17839  17.418  18.509   8.553
 6196POPC   C2B17840  17.358  18.505   8.253
 6196POPC   C3B17841  17.394  18.512   7.953
 6196POPC   C4B17842  17.322  18.467   7.653
 6197POPC   NC317843  29.970   1.185   9.453
 6197POPC   PO417844  29.873   1.171   9.153
 6197POPC   GL117845  29.960   1.194   8.853
 6197POPC   GL217846  29.984   1.322   8.853
 6197POPC   C1A17847  29.963   1.203   8.553
 6197POPC   D2A17848  29.958   1.200   8.253
 6197POPC   C3A17849  29.901   1.195   7.953
 6197POPC   C4A17850  29.891   1.173   7.653
 6197POPC   C1B17851  30.075   1.378   8.553
 6197POPC   C2B17852  30.062   1.404   8.253
 6197POPC   C3B17853  30.144   1.398   7.953
 6197POPC   C4B17854  30.065   1.364   7.653
 6198POPC   NC317855   8.931   9.731   9.453
 6198POPC   PO417856   8.974   9.781   9.153
 6198POPC   GL117857   8.959   9.739   8.853
 6198POPC   GL217858   8.891   9.783   8.853
 6198POPC   C1A17859   9.010   9.787   8.553
 6198POPC   D2A17860   8.955   9.732   8.253
 6198POPC   C3A17861   8.942   9.765   7.953
 6198POPC   C4A17862   8.999   9.778   7.653
 6198POPC   C1B17863   8.768   9.802   8.553
 6198POPC   C2B17864   8.751   9.853   8.253
 6198POPC   C3B17865   8.735   9.846   7.953
 6198POPC   C4B17866   8.746   9.858   7.653
 6199POPC   NC317867  34.578  40.041   9.453
 6199POPC   PO417868  34.576  39.990   9.153
 6199POPC   GL117869  34.560  40.031   8.853
 6199POPC   GL217870  34.679  40.043   8.853
 6199POPC   C1A17871  34.597  40.039   8.553
 6199POPC   D2A17872  34.626  40.057   8.253
 6199POPC   C3A17873  34.545  40.043   7.953
 6199POPC   C4A17874  34.603  40.035   7.653
 6199POPC   C1B17875  34.781  40.054   8.553
 6199POPC   C2B17876  34.814  40.101   8.253
 6199POPC   C3B17877  34.829  40.032   7.953
 6199POPC   C4B17878  34.813  40.054   7.653
 6200POPC   NC317879  26.854  16.751   9.453
 6200POPC   PO417880  26.837  16.742   9.153
 6200POPC   GL117881  26.852  16.741   8.853
 6200POPC   GL217882  26.820  16.878   8.853
 6200POPC   C1A17883  26.790  16.699   8.553
 6200POPC   D2A17884  26.807  16.699   8.253
 6200POPC   C3A17885  26.784  16.728   7.953
 6200POPC   C4A17886  26.784  16.732   7.653
 6200POPC   C1B17887  26.829  16.960   8.553
 6200POPC   C2B17888  26.865  17.012   8.253
 6200POPC   C3B17889  26.801  16.999   7.953
 6200POPC   C4B17890  26.814  16.956   7.653
 6201POPC   NC317891  28.407  19.019   9.453
 6201POPC   PO417892  28.336  19.062   9.153
 6201POPC   GL117893  28.367  19.032   8.853
 6201POPC   GL217894  28.286  19.090   8.853
 6201POPC   C1A17895  28.338  19.054   8.553
 6201POPC   D2A17896  28.349  19.032   8.253
 6201POPC   C3A17897  28.342  19.027   7.953
 6201POPC   C4A17898  28.411  19.059   7.653
 6201POPC   C1B17899  28.094  19.059   8.553
 6201POPC   C2B17900  28.088  19.002   8.253
 6201POPC   C3B17901  28.131  19.036   7.953
 6201POPC   C4B17902  28.076  19.065   7.653
 6202POPC   NC317903   9.711  14.398   9.453
 6202POPC   PO417904   9.786  14.362   9.153
 6202POPC   GL117905   9.777  14.443   8.853
 6202POPC   GL217906   9.791  14.231   8.853
 6202POPC   C1A17907   9.795  14.414   8.553
 6202POPC   D2A17908   9.776  14.419   8.253
 6202POPC   C3A17909   9.706  14.427   7.953
 6202POPC   C4A17910   9.724  14.391   7.653
 6202POPC   C1B17911   9.777  14.172   8.553
 6202POPC   C2B17912   9.731  14.158   8.253
 6202POPC   C3B17913   9.764  14.160   7.953
 6202POPC   C4B17914   9.761  14.121   7.653
 6203POPC   NC317915  26.008  42.307   9.453
 6203POPC   PO417916  26.003  42.351   9.153
 6203POPC   GL117917  26.071  42.296   8.853
 6203POPC   GL217918  25.955  42.259   8.853
 6203POPC   C1A17919  26.036  42.371   8.553
 6203POPC   D2A17920  26.079  42.350   8.253
 6203POPC   C3A17921  26.073  42.372   7.953
 6203POPC   C4A17922  26.021  42.317   7.653
 6203POPC   C1B17923  25.827  42.298   8.553
 6203POPC   C2B17924  25.773  42.283   8.253
 6203POPC   C3B17925  25.817  42.258   7.953
 6203POPC   C4B17926  25.757  42.227   7.653
 6204POPC   NC317927  18.277   9.741   9.453
 6204POPC   PO417928  18.250   9.775   9.153
 6204POPC   GL117929  18.324   9.699   8.853
 6204POPC   GL217930  18.329   9.697   8.853
 6204POPC   C1A17931  18.294   9.702   8.553
 6204POPC   D2A17932  18.304   9.763   8.253
 6204POPC   C3A17933  18.246   9.716   7.953
 6204POPC   C4A17934  18.323   9.754   7.653
 6204POPC   C1B17935  18.509   9.622   8.553
 6204POPC   C2B17936  18.429   9.600   8.253
 6204POPC   C3B17937  18.480   9.560   7.953
 6204POPC   C4B17938  18.444   9.560   7.653
 6205POPC   NC317939  18.307  21.357   9.453
 6205POPC   PO417940  18.297  21.370   9.153
 6205POPC   GL117941  18.293  21.374   8.853
 6205POPC   GL217942  18.429  21.490   8.853
 6205POPC   C1A17943  18.240  21.413   8.553
 6205POPC   D2A17944  18.319  21.383   8.253
 6205POPC   C3A17945  18.296  21.408   7.953
 6205POPC   C4A17946  18.329  21.384   7.653
 6205POPC   C1B17947  18.493  21.464   8.553
 6205POPC   C2B17948  18.499  21.469   8.253
 6205POPC   C3B17949  18.485  21.526   7.953
 6205POPC   C4B17950  18.535  21.481   7.653
 6206POPC   NC317951  26.008  13.611   9.453
 6206POPC   PO417952  26.058  13.620   9.153
 6206POPC   GL117953  26.049  13.649   8.853
 6206POPC   GL217954  25.984  13.587   8.853
 6206POPC   C1A17955  25.994  13.611   8.553
 6206POPC   D2A17956  26.070  13.663   8.253
 6206POPC   C3A17957  26.035  13.644   7.953
 6206POPC   C4A17958  26.005  13.652   7.653
 6206POPC   C1B17959  25.801  13.538   8.553
 6206POPC   C2B17960  25.871  13.450   8.253
 6206POPC   C3B17961  25.802  13.455   7.953
 6206POPC   C4B17962  25.813  13.522   7.653
 6207POPC   NC317963  43.114  13.621   9.453
 6207POPC   PO417964  43.150  13.671   9.153
 6207POPC   GL117965  43.101  13.609   8.853
 6207POPC   GL217966  43.056  13.461   8.853
 6207POPC   C1A17967  43.071  13.611   8.553
 6207POPC   D2A17968  43.060  13.645   8.253
 6207POPC   C3A17969  43.114  13.663   7.953
 6207POPC   C4A17970  43.062  13.653   7.653
 6207POPC   C1B17971  43.071  13.411   8.553
 6207POPC   C2B17972  43.062  13.416   8.253
 6207POPC   C3B17973  43.135  13.404   7.953
 6207POPC   C4B17974  43.110  13.363   7.653
 6208POPC   NC317975  13.653   4.274   9.453
 6208POPC   PO417976  13.657   4.307   9.153
 6208POPC   GL117977  13.656   4.362   8.853
 6208POPC   GL217978  13.697   4.194   8.853
 6208POPC   C1A17979  13.587   4.303   8.553
 6208POPC   D2A17980  13.626   4.315   8.253
 6208POPC   C3A17981  13.660   4.359   7.953
 6208POPC   C4A17982  13.613   4.285   7.653
 6208POPC   C1B17983  13.785   4.123   8.553
 6208POPC   C2B17984  13.835   4.140   8.253
 6208POPC   C3B17985  13.870   4.116   7.953
 6208POPC   C4B17986  13.783   4.167   7.653
 6209POPC   NC317987  42.314   7.460   9.453
 6209POPC   PO417988  42.305   7.435   9.153
 6209POPC   GL117989  42.382   7.438   8.853
 6209POPC   GL217990  42.236   7.389   8.853
 6209POPC   C1A17991  42.371   7.466   8.553
 6209POPC   D2A17992  42.379   7.399   8.253
 6209POPC   C3A17993  42.338   7.463   7.953
 6209POPC   C4A17994  42.310   7.398   7.653
 6209POPC   C1B17995  42.130   7.350   8.553
 6209POPC   C2B17996  42.143   7.360   8.253
 6209POPC   C3B17997  42.071   7.326   7.953
 6209POPC   C4B17998  42.107   7.283   7.653
 6210POPC   NC317999   1.963  26.005   9.453
 6210POPC   PO418000   2.014  26.078   9.153
 6210POPC   GL118001   1.969  26.077   8.853
 6210POPC   GL218002   1.926  26.164   8.853
 6210POPC   C1A18003   1.965  25.995   8.553
 6210POPC   D2A18004   1.963  26.080   8.253
 6210POPC   C3A18005   1.988  26.023   7.953
 6210POPC   C4A18006   1.972  26.021   7.653
 6210POPC   C1B18007   1.928  26.271   8.553
 6210POPC   C2B18008   1.944  26.284   8.253
 6210POPC   C3B18009   1.939  26.262   7.953
 6210POPC   C4B18010   1.895  26.284   7.653
 6211POPC   NC318011  12.845   3.515   9.453
 6211POPC   PO418012  12.817   3.523   9.153
 6211POPC   GL118013  12.865   3.551   8.853
 6211POPC   GL218014  12.861   3.684   8.853
 6211POPC   C1A18015  12.807   3.500   8.553
 6211POPC   D2A18016  12.846   3.516   8.253
 6211POPC   C3A18017  12.873   3.523   7.953
 6211POPC   C4A18018  12.810   3.521   7.653
 6211POPC   C1B18019  12.862   3.748   8.553
 6211POPC   C2B18020  12.901   3.775   8.253
 6211POPC   C3B18021  12.859   3.778   7.953
 6211POPC   C4B18022  12.873   3.836   7.653
 6212POPC   NC318023   9.741   9.770   9.453
 6212POPC   PO418024   9.785   9.728   9.153
 6212POPC   GL118025   9.743   9.782   8.853
 6212POPC   GL218026   9.786   9.651   8.853
 6212POPC   C1A18027   9.754   9.767   8.553
 6212POPC   D2A18028   9.732   9.792   8.253
 6212POPC   C3A18029   9.709   9.772   7.953
 6212POPC   C4A18030   9.761   9.754   7.653
 6212POPC   C1B18031   9.868   9.508   8.553
 6212POPC   C2B18032   9.876   9.585   8.253
 6212POPC   C3B18033   9.942   9.533   7.953
 6212POPC   C4B18034   9.856   9.524   7.653
 6213POPC   NC318035  29.128   3.567   9.453
 6213POPC   PO418036  29.174   3.545   9.153
 6213POPC   GL118037  29.172   3.517   8.853
 6213POPC   GL218038  29.047   3.612   8.853
 6213POPC   C1A18039  29.140   3.540   8.553
 6213POPC   D2A18040  29.154   3.501   8.253
 6213POPC   C3A18041  29.100   3.536   7.953
 6213POPC   C4A18042  29.099   3.579   7.653
 6213POPC   C1B18043  28.955   3.701   8.553
 6213POPC   C2B18044  28.960   3.673   8.253
 6213POPC   C3B18045  28.997   3.667   7.953
 6213POPC   C4B18046  28.928   3.731   7.653
 6214POPC   NC318047   2.787   3.559   9.453
 6214POPC   PO418048   2.795   3.559   9.153
 6214POPC   GL118049   2.795   3.551   8.853
 6214POPC   GL218050   2.893   3.584   8.853
 6214POPC   C1A18051   2.794   3.511   8.553
 6214POPC   D2A18052   2.798   3.535   8.253
 6214POPC   C3A18053   2.791   3.539   7.953
 6214POPC   C4A18054   2.753   3.573   7.653
 6214POPC   C1B18055   3.018   3.663   8.553
 6214POPC   C2B18056   2.965   3.608   8.253
 6214POPC   C3B18057   3.038   3.620   7.953
 6214POPC   C4B18058   2.956   3.644   7.653
 6215POPC   NC318059  13.595  29.183   9.453
 6215POPC   PO418060  13.607  29.143   9.153
 6215POPC   GL118061  13.622  29.187   8.853
 6215POPC   GL218062  13.646  29.294   8.853
 6215POPC   C1A18063  13.661  29.109   8.553
 6215POPC   D2A18064  13.611  29.113   8.253
 6215POPC   C3A18065  13.645  29.160   7.953
 6215POPC   C4A18066  13.610  29.187   7.653
 6215POPC   C1B18067  13.616  29.431   8.553
 6215POPC   C2B18068  13.617  29.439   8.253
 6215POPC   C3B18069  13.652  29.418   7.953
 6215POPC   C4B18070  13.607  29.398   7.653
 6216POPC   NC318071  11.307  33.783   9.453
 6216POPC   PO418072  11.288  33.790   9.153
 6216POPC   GL118073  11.273  33.837   8.853
 6216POPC   GL218074  11.236  33.827   8.853
 6216POPC   C1A18075  11.266  33.792   8.553
 6216POPC   D2A18076  11.306  33.762   8.253
 6216POPC   C3A18077  11.292  33.847   7.953
 6216POPC   C4A18078  11.329  33.798   7.653
 6216POPC   C1B18079  11.057  33.969   8.553
 6216POPC   C2B18080  11.074  33.892   8.253
 6216POPC   C3B18081  11.046  33.921   7.953
 6216POPC   C4B18082  11.080  33.931   7.653
 6217POPC   NC318083  17.491  21.385   9.453
 6217POPC   PO418084  17.485  21.424   9.153
 6217POPC   GL118085  17.486  21.424   8.853
 6217POPC   GL218086  17.668  21.359   8.853
 6217POPC   C1A18087  17.517  21.421   8.553
 6217POPC   D2A18088  17.479  21.411   8.253
 6217POPC   C3A18089  17.521  21.413   7.953
 6217POPC   C4A18090  17.463  21.338   7.653
 6217POPC   C1B18091  17.754  21.309   8.553
 6217POPC   C2B18092  17.705  21.307   8.253
 6217POPC   C3B18093  17.691  21.313   7.953
 6217POPC   C4B18094  17.760  21.303   7.653
 6218POPC   NC318095  36.929  29.875   9.453
 6218POPC   PO418096  36.868  29.899   9.153
 6218POPC   GL118097  36.896  29.917   8.853
 6218POPC   GL218098  36.805  30.007   8.853
 6218POPC   C1A18099  36.866  29.947   8.553
 6218POPC   D2A18100  36.888  29.947   8.253
 6218POPC   C3A18101  36.948  29.967   7.953
 6218POPC   C4A18102  36.884  29.909   7.653
 6218POPC   C1B18103  36.751  30.092   8.553
 6218POPC   C2B18104  36.686  30.103   8.253
 6218POPC   C3B18105  36.695  30.034   7.953
 6218POPC   C4B18106  36.692  30.084   7.653
 6219POPC   NC318107   6.694  21.342   9.453
 6219POPC   PO418108   6.610  21.427   9.153
 6219POPC   GL118109   6.680  21.347   8.853
 6219POPC   GL218110   6.703  21.428   8.853
 6219POPC   C1A18111   6.615  21.380   8.553
 6219POPC   D2A18112   6.644  21.395   8.253
 6219POPC   C3A18113   6.595  21.377   7.953
 6219POPC   C4A18114   6.684  21.434   7.653
 6219POPC   C1B18115   6.809  21.611   8.553
 6219POPC   C2B18116   6.812  21.552   8.253
 6219POPC   C3B18117   6.769  21.527   7.953
 6219POPC   C4B18118   6.774  21.601   7.653
 6220POPC   NC318119   2.776  12.830   9.453
 6220POPC   PO418120   2.745  12.854   9.153
 6220POPC   GL118121   2.793  12.821   8.853
 6220POPC   GL218122   2.682  12.719   8.853
 6220POPC   C1A18123   2.792  12.860   8.553
 6220POPC   D2A18124   2.769  12.836   8.253
 6220POPC   C3A18125   2.781  12.826   7.953
 6220POPC   C4A18126   2.751  12.845   7.653
 6220POPC   C1B18127   2.665  12.602   8.553
 6220POPC   C2B18128   2.714  12.577   8.253
 6220POPC   C3B18129   2.698  12.614   7.953
 6220POPC   C4B18130   2.645  12.615   7.653
 6221POPC   NC318131  19.092   8.930   9.453
 6221POPC   PO418132  19.058   9.016   9.153
 6221POPC   GL118133  19.023   8.954   8.853
 6221POPC   GL218134  19.197   8.971   8.853
 6221POPC   C1A18135  19.063   8.981   8.553
 6221POPC   D2A18136  19.045   8.927   8.253
 6221POPC   C3A18137  19.031   8.977   7.953
 6221POPC   C4A18138  19.020   9.014   7.653
 6221POPC   C1B18139  19.260   9.010   8.553
 6221POPC   C2B18140  19.341   9.057   8.253
 6221POPC   C3B18141  19.256   9.076   7.953
 6221POPC   C4B18142  19.337   9.018   7.653
 6222POPC   NC318143  29.154  18.304   9.453
 6222POPC   PO418144  29.100  18.289   9.153
 6222POPC   GL118145  29.169  18.270   8.853
 6222POPC   GL218146  29.213  18.357   8.853
 6222POPC   C1A18147  29.157  18.304   8.553
 6222POPC   D2A18148  29.107  18.254   8.253
 6222POPC   C3A18149  29.098  18.266   7.953
 6222POPC   C4A18150  29.096  18.253   7.653
 6222POPC   C1B18151  29.295  18.439   8.553
 6222POPC   C2B18152  29.324  18.535   8.253
 6222POPC   C3B18153  29.326  18.499   7.953
 6222POPC   C4B18154  29.295  18.518   7.653
 6223POPC   NC318155  42.296  33.828   9.453
 6223POPC   PO418156  42.367  33.772   9.153
 6223POPC   GL118157  42.342  33.821   8.853
 6223POPC   GL218158  42.492  33.749   8.853
 6223POPC   C1A18159  42.338  33.781   8.553
 6223POPC   D2A18160  42.311  33.752   8.253
 6223POPC   C3A18161  42.287  33.839   7.953
 6223POPC   C4A18162  42.361  33.812   7.653
 6223POPC   C1B18163  42.603  33.747   8.553
 6223POPC   C2B18164  42.613  33.834   8.253
 6223POPC   C3B18165  42.546  33.796   7.953
 6223POPC   C4B18166  42.609  33.830   7.653
 6224POPC   NC318167  43.900  42.287   9.453
 6224POPC   PO418168  43.913  42.383   9.153
 6224POPC   GL118169  43.922  42.308   8.853
 6224POPC   GL218170  43.822  42.448   8.853
 6224POPC   C1A18171  43.872  42.311   8.553
 6224POPC   D2A18172  43.927  42.334   8.253
 6224POPC   C3A18173  43.853  42.374   7.953
 6224POPC   C4A18174  43.930  42.367   7.653
 6224POPC   C1B18175  43.771  42.576   8.553
 6224POPC   C2B18176  43.752  42.523   8.253
 6224POPC   C3B18177  43.803  42.510   7.953
 6224POPC   C4B18178  43.817  42.556   7.653
 6225POPC   NC318179   0.424  16.708   9.453
 6225POPC   PO418180   0.445  16.729   9.153
 6225POPC   GL118181   0.451  16.747   8.853
 6225POPC   GL218182   0.420  16.812   8.853
 6225POPC   C1A18183   0.486  16.698   8.553
 6225POPC   D2A18184   0.452  16.686   8.253
 6225POPC   C3A18185   0.445  16.685   7.953
 6225POPC   C4A18186   0.429  16.756   7.653
 6225POPC   C1B18187   0.357  16.965   8.553
 6225POPC   C2B18188   0.387  16.993   8.253
 6225POPC   C3B18189   0.368  16.959   7.953
 6225POPC   C4B18190   0.348  17.017   7.653
 6226POPC   NC318191   4.318   2.784   9.453
 6226POPC   PO418192   4.281   2.724   9.153
 6226POPC   GL118193   4.328   2.735   8.853
 6226POPC   GL218194   4.242   2.838   8.853
 6226POPC   C1A18195   4.303   2.742   8.553
 6226POPC   D2A18196   4.292   2.793   8.253
 6226POPC   C3A18197   4.364   2.815   7.953
 6226POPC   C4A18198   4.327   2.762   7.653
 6226POPC   C1B18199   4.100   2.863   8.553
 6226POPC   C2B18200   4.062   2.902   8.253
 6226POPC   C3B18201   4.061   2.912   7.953
 6226POPC   C4B18202   4.136   2.863   7.653
 6227POPC   NC318203   9.010  17.493   9.453
 6227POPC   PO418204   8.995  17.464   9.153
 6227POPC   GL118205   9.022  17.464   8.853
 6227POPC   GL218206   8.905  17.552   8.853
 6227POPC   C1A18207   8.989  17.549   8.553
 6227POPC   D2A18208   8.970  17.513   8.253
 6227POPC   C3A18209   8.966  17.498   7.953
 6227POPC   C4A18210   8.988  17.531   7.653
 6227POPC   C1B18211   8.803  17.611   8.553
 6227POPC   C2B18212   8.738  17.697   8.253
 6227POPC   C3B18213   8.806  17.615   7.953
 6227POPC   C4B18214   8.781  17.640   7.653
 6228POPC   NC318215  33.011  19.050   9.453
 6228POPC   PO418216  33.013  19.011   9.153
 6228POPC   GL118217  33.018  19.054   8.853
 6228POPC   GL218218  32.936  18.911   8.853
 6228POPC   C1A18219  33.062  19.046   8.553
 6228POPC   D2A18220  33.033  19.108   8.253
 6228POPC   C3A18221  33.005  19.040   7.953
 6228POPC   C4A18222  32.993  19.054   7.653
 6228POPC   C1B18223  32.911  18.791   8.553
 6228POPC   C2B18224  32.946  18.789   8.253
 6228POPC   C3B18225  32.954  18.819   7.953
 6228POPC   C4B18226  32.960  18.862   7.653
 6229POPC   NC318227   0.422  15.200   9.453
 6229POPC   PO418228   0.472  15.148   9.153
 6229POPC   GL118229   0.462  15.149   8.853
 6229POPC   GL218230   0.336  15.115   8.853
 6229POPC   C1A18231   0.416  15.160   8.553
 6229POPC   D2A18232   0.396  15.200   8.253
 6229POPC   C3A18233   0.484  15.133   7.953
 6229POPC   C4A18234   0.448  15.223   7.653
 6229POPC   C1B18235   0.213  15.129   8.553
 6229POPC   C2B18236   0.200  15.113   8.253
 6229POPC   C3B18237   0.199  15.108   7.953
 6229POPC   C4B18238   0.220  15.141   7.653
 6230POPC   NC318239  19.052  12.061   9.453
 6230POPC   PO418240  19.042  12.102   9.153
 6230POPC   GL118241  19.037  12.114   8.853
 6230POPC   GL218242  18.963  12.020   8.853
 6230POPC   C1A18243  19.033  12.028   8.553
 6230POPC   D2A18244  19.036  12.111   8.253
 6230POPC   C3A18245  19.093  12.116   7.953
 6230POPC   C4A18246  19.067  12.060   7.653
 6230POPC   C1B18247  18.838  11.996   8.553
 6230POPC   C2B18248  18.854  12.037   8.253
 6230POPC   C3B18249  18.766  12.058   7.953
 6230POPC   C4B18250  18.782  12.072   7.653
 6231POPC   NC318251  27.593  13.645   9.453
 6231POPC   PO418252  27.578  13.674   9.153
 6231POPC   GL118253  27.626  13.676   8.853
 6231POPC   GL218254  27.511  13.702   8.853
 6231POPC   C1A18255  27.591  13.650   8.553
 6231POPC   D2A18256  27.585  13.676   8.253
 6231POPC   C3A18257  27.557  13.614   7.953
 6231POPC   C4A18258  27.616  13.640   7.653
 6231POPC   C1B18259  27.413  13.855   8.553
 6231POPC   C2B18260  27.407  13.835   8.253
 6231POPC   C3B18261  27.469  13.873   7.953
 6231POPC   C4B18262  27.451  13.832   7.653
 6232POPC   NC318263  37.727  20.619   9.453
 6232POPC   PO418264  37.671  20.657   9.153
 6232POPC   GL118265  37.691  20.638   8.853
 6232POPC   GL218266  37.563  20.722   8.853
 6232POPC   C1A18267  37.694  20.578   8.553
 6232POPC   D2A18268  37.729  20.583   8.253
 6232POPC   C3A18269  37.674  20.604   7.953
 6232POPC   C4A18270  37.630  20.606   7.653
 6232POPC   C1B18271  37.524  20.817   8.553
 6232POPC   C2B18272  37.462  20.765   8.253
 6232POPC   C3B18273  37.504  20.738   7.953
 6232POPC   C4B18274  37.462  20.763   7.653
 6233POPC   NC318275  41.589  12.815   9.453
 6233POPC   PO418276  41.578  12.893   9.153
 6233POPC   GL118277  41.524  12.803   8.853
 6233POPC   GL218278  41.531  12.692   8.853
 6233POPC   C1A18279  41.582  12.811   8.553
 6233POPC   D2A18280  41.569  12.891   8.253
 6233POPC   C3A18281  41.553  12.872   7.953
 6233POPC   C4A18282  41.587  12.896   7.653
 6233POPC   C1B18283  41.500  12.621   8.553
 6233POPC   C2B18284  41.438  12.600   8.253
 6233POPC   C3B18285  41.515  12.610   7.953
 6233POPC   C4B18286  41.491  12.665   7.653
 6234POPC   NC318287  34.567  27.595   9.453
 6234POPC   PO418288  34.590  27.612   9.153
 6234POPC   GL118289  34.537  27.611   8.853
 6234POPC   GL218290  34.467  27.654   8.853
 6234POPC   C1A18291  34.532  27.574   8.553
 6234POPC   D2A18292  34.553  27.624   8.253
 6234POPC   C3A18293  34.578  27.570   7.953
 6234POPC   C4A18294  34.554  27.578   7.653
 6234POPC   C1B18295  34.325  27.672   8.553
 6234POPC   C2B18296  34.316  27.737   8.253
 6234POPC   C3B18297  34.363  27.728   7.953
 6234POPC   C4B18298  34.383  27.705   7.653
 6235POPC   NC318299  38.480  26.833   9.453
 6235POPC   PO418300  38.421  26.861   9.153
 6235POPC   GL118301  38.463  26.835   8.853
 6235POPC   GL218302  38.419  26.972   8.853
 6235POPC   C1A18303  38.473  26.778   8.553
 6235POPC   D2A18304  38.474  26.783   8.253
 6235POPC   C3A18305  38.462  26.846   7.953
 6235POPC   C4A18306  38.446  26.790   7.653
 6235POPC   C1B18307  38.400  27.036   8.553
 6235POPC   C2B18308  38.450  27.104   8.253
 6235POPC   C3B18309  38.448  27.048   7.953
 6235POPC   C4B18310  38.433  27.060   7.653
 6236POPC   NC318311  29.970  28.402   9.453
 6236POPC   PO418312  29.922  28.364   9.153
 6236POPC   GL118313  29.941  28.386   8.853
 6236POPC   GL218314  29.917  28.470   8.853
 6236POPC   C1A18315  29.892  28.407   8.553
 6236POPC   D2A18316  29.951  28.374   8.253
 6236POPC   C3A18317  29.952  28.393   7.953
 6236POPC   C4A18318  29.935  28.363   7.653
 6236POPC   C1B18319  29.796  28.578   8.553
 6236POPC   C2B18320  29.888  28.610   8.253
 6236POPC   C3B18321  29.884  28.576   7.953
 6236POPC   C4B18322  29.854  28.583   7.653
 6237POPC   NC318323  26.810  13.650   9.453
 6237POPC   PO418324  26.857  13.646   9.153
 6237POPC   GL118325  26.860  13.583   8.853
 6237POPC   GL218326  26.807  13.723   8.853
 6237POPC   C1A18327  26.840  13.599   8.553
 6237POPC   D2A18328  26.828  13.628   8.253
 6237POPC   C3A18329  26.769  13.579   7.953
 6237POPC   C4A18330  26.845  13.667   7.653
 6237POPC   C1B18331  26.743  13.889   8.553
 6237POPC   C2B18332  26.773  13.857   8.253
 6237POPC   C3B18333  26.766  13.850   7.953
 6237POPC   C4B18334  26.770  13.876   7.653
 6238POPC   NC318335  28.336  12.890   9.453
 6238POPC   PO418336  28.331  12.850   9.153
 6238POPC   GL118337  28.355  12.897   8.853
 6238POPC   GL218338  28.392  12.726   8.853
 6238POPC   C1A18339  28.369  12.886   8.553
 6238POPC   D2A18340  28.324  12.836   8.253
 6238POPC   C3A18341  28.341  12.893   7.953
 6238POPC   C4A18342  28.382  12.822   7.653
 6238POPC   C1B18343  28.343  12.589   8.553
 6238POPC   C2B18344  28.398  12.615   8.253
 6238POPC   C3B18345  28.342  12.603   7.953
 6238POPC   C4B18346  28.390  12.569   7.653
 6239POPC   NC318347  38.490  22.946   9.453
 6239POPC   PO418348  38.451  22.960   9.153
 6239POPC   GL118349  38.413  22.962   8.853
 6239POPC   GL218350  38.365  22.977   8.853
 6239POPC   C1A18351  38.484  22.892   8.553
 6239POPC   D2A18352  38.424  22.897   8.253
 6239POPC   C3A18353  38.479  22.977   7.953
 6239POPC   C4A18354  38.495  22.911   7.653
 6239POPC   C1B18355  38.200  22.909   8.553
 6239POPC   C2B18356  38.247  22.986   8.253
 6239POPC   C3B18357  38.249  22.914   7.953
 6239POPC   C4B18358  38.193  22.948   7.653
 6240POPC   NC318359  39.242  39.224   9.453
 6240POPC   PO418360  39.208  39.272   9.153
 6240POPC   GL118361  39.189  39.267   8.853
 6240POPC   GL218362  39.348  39.177   8.853
 6240POPC   C1A18363  39.248  39.243   8.553
 6240POPC   D2A18364  39.250  39.224   8.253
 6240POPC   C3A18365  39.209  39.205   7.953
 6240POPC   C4A18366  39.279  39.191   7.653
 6240POPC   C1B18367  39.482  39.134   8.553
 6240POPC   C2B18368  39.475  39.113   8.253
 6240POPC   C3B18369  39.449  39.116   7.953
 6240POPC   C4B18370  39.514  39.141   7.653
 6241POPC   NC318371   6.638  15.976   9.453
 6241POPC   PO418372   6.649  15.917   9.153
 6241POPC   GL118373   6.633  15.941   8.853
 6241POPC   GL218374   6.700  15.876   8.853
 6241POPC   C1A18375   6.652  15.920   8.553
 6241POPC   D2A18376   6.685  15.943   8.253
 6241POPC   C3A18377   6.626  16.002   7.953
 6241POPC   C4A18378   6.683  15.992   7.653
 6241POPC   C1B18379   6.759  15.728   8.553
 6241POPC   C2B18380   6.728  15.747   8.253
 6241POPC   C3B18381   6.705  15.706   7.953
 6241POPC   C4B18382   6.726  15.713   7.653
 6242POPC   NC318383  36.922  40.817   9.453
 6242POPC   PO418384  36.922  40.811   9.153
 6242POPC   GL118385  36.874  40.779   8.853
 6242POPC   GL218386  36.851  40.691   8.853
 6242POPC   C1A18387  36.931  40.821   8.553
 6242POPC   D2A18388  36.929  40.808   8.253
 6242POPC   C3A18389  36.883  40.742   7.953
 6242POPC   C4A18390  36.888  40.807   7.653
 6242POPC   C1B18391  36.787  40.597   8.553
 6242POPC   C2B18392  36.801  40.572   8.253
 6242POPC   C3B18393  36.853  40.581   7.953
 6242POPC   C4B18394  36.809  40.533   7.653
 6243POPC   NC318395  12.083  27.564   9.453
 6243POPC   PO418396  12.112  27.636   9.153
 6243POPC   GL118397  12.030  27.577   8.853
 6243POPC   GL218398  12.205  27.608   8.853
 6243POPC   C1A18399  12.110  27.621   8.553
 6243POPC   D2A18400  12.088  27.565   8.253
 6243POPC   C3A18401  12.101  27.550   7.953
 6243POPC   C4A18402  12.099  27.642   7.653
 6243POPC   C1B18403  12.276  27.676   8.553
 6243POPC   C2B18404  12.361  27.699   8.253
 6243POPC   C3B18405  12.267  27.627   7.953
 6243POPC   C4B18406  12.286  27.640   7.653
 6244POPC   NC318407   4.361  19.864   9.453
 6244POPC   PO418408   4.321  19.835   9.153
 6244POPC   GL118409   4.365  19.803   8.853
 6244POPC   GL218410   4.343  19.958   8.853
 6244POPC   C1A18411   4.280  19.856   8.553
 6244POPC   D2A18412   4.288  19.849   8.253
 6244POPC   C3A18413   4.277  19.856   7.953
 6244POPC   C4A18414   4.307  19.793   7.653
 6244POPC   C1B18415   4.342  20.099   8.553
 6244POPC   C2B18416   4.340  20.035   8.253
 6244POPC   C3B18417   4.333  20.079   7.953
 6244POPC   C4B18418   4.330  20.103   7.653
 6245POPC   NC318419  12.109   5.062   9.453
 6245POPC   PO418420  12.056   5.115   9.153
 6245POPC   GL118421  12.111   5.096   8.853
 6245POPC   GL218422  12.063   4.988   8.853
 6245POPC   C1A18423  12.039   5.108   8.553
 6245POPC   D2A18424  12.116   5.114   8.253
 6245POPC   C3A18425  12.099   5.097   7.953
 6245POPC   C4A18426  12.045   5.061   7.653
 6245POPC   C1B18427  12.065   4.894   8.553
 6245POPC   C2B18428  12.023   4.834   8.253
 6245POPC   C3B18429  12.067   4.861   7.953
 6245POPC   C4B18430  12.043   4.828   7.653
 6246POPC   NC318431   7.446  31.501   9.453
 6246POPC   PO418432   7.376  31.449   9.153
 6246POPC   GL118433   7.454  31.502   8.853
 6246POPC   GL218434   7.467  31.318   8.853
 6246POPC   C1A18435   7.450  31.473   8.553
 6246POPC   D2A18436   7.421  31.485   8.253
 6246POPC   C3A18437   7.447  31.436   7.953
 6246POPC   C4A18438   7.418  31.452   7.653
 6246POPC   C1B18439   7.520  31.206   8.553
 6246POPC   C2B18440   7.476  31.285   8.253
 6246POPC   C3B18441   7.512  31.280   7.953
 6246POPC   C4B18442   7.533  31.265   7.653
 6247POPC   NC318443  21.374  22.972   9.453
 6247POPC   PO418444  21.401  22.890   9.153
 6247POPC   GL118445  21.374  22.920   8.853
 6247POPC   GL218446  21.272  22.993   8.853
 6247POPC   C1A18447  21.387  22.942   8.553
 6247POPC   D2A18448  21.344  22.946   8.253
 6247POPC   C3A18449  21.392  22.979   7.953
 6247POPC   C4A18450  21.379  22.906   7.653
 6247POPC   C1B18451  21.145  23.078   8.553
 6247POPC   C2B18452  21.190  23.100   8.253
 6247POPC   C3B18453  21.201  23.077   7.953
 6247POPC   C4B18454  21.159  23.089   7.653
 6248POPC   NC318455  16.717  22.893   9.453
 6248POPC   PO418456  16.719  22.897   9.153
 6248POPC   GL118457  16.709  22.956   8.853
 6248POPC   GL218458  16.835  22.879   8.853
 6248POPC   C1A18459  16.712  22.988   8.553
 6248POPC   D2A18460  16.693  22.899   8.253
 6248POPC   C3A18461  16.702  22.953   7.953
 6248POPC   C4A18462  16.715  22.946   7.653
 6248POPC   C1B18463  16.975  22.915   8.553
 6248POPC   C2B18464  17.017  22.876   8.253
 6248POPC   C3B18465  16.951  22.882   7.953
 6248POPC   C4B18466  16.967  22.889   7.653
 6249POPC   NC318467  42.295   9.769   9.453
 6249POPC   PO418468  42.285   9.736   9.153
 6249POPC   GL118469  42.355   9.717   8.853
 6249POPC   GL218470  42.474   9.733   8.853
 6249POPC   C1A18471  42.360   9.781   8.553
 6249POPC   D2A18472  42.317   9.760   8.253
 6249POPC   C3A18473  42.357   9.762   7.953
 6249POPC   C4A18474  42.345   9.723   7.653
 6249POPC   C1B18475  42.608   9.692   8.553
 6249POPC   C2B18476  42.540   9.695   8.253
 6249POPC   C3B18477  42.611   9.624   7.953
 6249POPC   C4B18478  42.602   9.608   7.653
 6250POPC   NC318479  39.978  15.158   9.453
 6250POPC   PO418480  40.035  15.188   9.153
 6250POPC   GL118481  39.964  15.157   8.853
 6250POPC   GL218482  40.027  15.094   8.853
 6250POPC   C1A18483  39.982  15.202   8.553
 6250POPC   D2A18484  40.039  15.201   8.253
 6250POPC   C3A18485  40.020  15.134   7.953
 6250POPC   C4A18486  39.991  15.172   7.653
 6250POPC   C1B18487  39.951  14.909   8.553
 6250POPC   C2B18488  39.950  14.891   8.253
 6250POPC   C3B18489  39.948  14.980   7.953
 6250POPC   C4B18490  39.931  14.898   7.653
 6251POPC   NC318491  36.912  16.683   9.453
 6251POPC   PO418492  36.910  16.749   9.153
 6251POPC   GL118493  36.926  16.738   8.853
 6251POPC   GL218494  36.784  16.804   8.853
 6251POPC   C1A18495  36.890  16.753   8.553
 6251POPC   D2A18496  36.875  16.746   8.253
 6251POPC   C3A18497  36.885  16.743   7.953
 6251POPC   C4A18498  36.951  16.773   7.653
 6251POPC   C1B18499  36.746  16.900   8.553
 6251POPC   C2B18500  36.669  16.912   8.253
 6251POPC   C3B18501  36.725  16.884   7.953
 6251POPC   C4B18502  36.671  16.829   7.653
 6252POPC   NC318503  41.545  33.033   9.453
 6252POPC   PO418504  41.535  32.984   9.153
 6252POPC   GL118505  41.594  33.059   8.853
 6252POPC   GL218506  41.460  32.933   8.853
 6252POPC   C1A18507  41.568  33.068   8.553
 6252POPC   D2A18508  41.597  33.013   8.253
 6252POPC   C3A18509  41.523  33.067   7.953
 6252POPC   C4A18510  41.600  33.070   7.653
 6252POPC   C1B18511  41.436  32.819   8.553
 6252POPC   C2B18512  41.427  32.860   8.253
 6252POPC   C3B18513  41.435  32.852   7.953
 6252POPC   C4B18514  41.402  32.850   7.653
 6253POPC   NC318515  36.143  44.668   9.453
 6253POPC   PO418516  36.127  44.679   9.153
 6253POPC   GL118517  36.090  44.711   8.853
 6253POPC   GL218518  36.077  44.558   8.853
 6253POPC   C1A18519  36.117  44.690   8.553
 6253POPC   D2A18520  36.158  44.628   8.253
 6253POPC   C3A18521  36.112  44.703   7.953
 6253POPC   C4A18522  36.128  44.626   7.653
 6253POPC   C1B18523  35.957  44.484   8.553
 6253POPC   C2B18524  35.984  44.443   8.253
 6253POPC   C3B18525  35.926  44.515   7.953
 6253POPC   C4B18526  35.987  44.462   7.653
 6254POPC   NC318527   9.740  32.270   9.453
 6254POPC   PO418528   9.761  32.233   9.153
 6254POPC   GL118529   9.713  32.240   8.853
 6254POPC   GL218530   9.852  32.156   8.853
 6254POPC   C1A18531   9.741  32.202   8.553
 6254POPC   D2A18532   9.711  32.211   8.253
 6254POPC   C3A18533   9.773  32.260   7.953
 6254POPC   C4A18534   9.736  32.257   7.653
 6254POPC   C1B18535   9.903  32.129   8.553
 6254POPC   C2B18536   9.920  32.058   8.253
 6254POPC   C3B18537   9.971  32.099   7.953
 6254POPC   C4B18538   9.903  32.108   7.653
 6255POPC   NC318539  41.532  22.918   9.453
 6255POPC   PO418540  41.581  22.956   9.153
 6255POPC   GL118541  41.569  22.970   8.853
 6255POPC   GL218542  41.480  23.026   8.853
 6255POPC   C1A18543  41.527  22.958   8.553
 6255POPC   D2A18544  41.547  22.981   8.253
 6255POPC   C3A18545  41.556  22.979   7.953
 6255POPC   C4A18546  41.597  22.924   7.653
 6255POPC   C1B18547  41.406  23.143   8.553
 6255POPC   C2B18548  41.482  23.141   8.253
 6255POPC   C3B18549  41.414  23.173   7.953
 6255POPC   C4B18550  41.408  23.187   7.653
 6256POPC   NC318551  31.491   0.409   9.453
 6256POPC   PO418552  31.431   0.394   9.153
 6256POPC   GL118553  31.511   0.477   8.853
 6256POPC   GL218554  31.446   0.579   8.853
 6256POPC   C1A18555  31.470   0.389   8.553
 6256POPC   D2A18556  31.519   0.445   8.253
 6256POPC   C3A18557  31.513   0.455   7.953
 6256POPC   C4A18558  31.464   0.468   7.653
 6256POPC   C1B18559  31.303   0.646   8.553
 6256POPC   C2B18560  31.389   0.693   8.253
 6256POPC   C3B18561  31.316   0.626   7.953
 6256POPC   C4B18562  31.361   0.607   7.653
 6257POPC   NC318563  30.665   2.034   9.453
 6257POPC   PO418564  30.656   2.028   9.153
 6257POPC   GL118565  30.718   1.996   8.853
 6257POPC   GL218566  30.533   1.981   8.853
 6257POPC   C1A18567  30.681   2.001   8.553
 6257POPC   D2A18568  30.744   2.037   8.253
 6257POPC   C3A18569  30.686   2.013   7.953
 6257POPC   C4A18570  30.658   2.017   7.653
 6257POPC   C1B18571  30.429   2.006   8.553
 6257POPC   C2B18572  30.448   2.002   8.253
 6257POPC   C3B18573  30.404   2.006   7.953
 6257POPC   C4B18574  30.495   1.975   7.653
 6258POPC   NC318575  20.619  35.352   9.453
 6258POPC   PO418576  20.602  35.340   9.153
 6258POPC   GL118577  20.579  35.377   8.853
 6258POPC   GL218578  20.523  35.276   8.853
 6258POPC   C1A18579  20.628  35.401   8.553
 6258POPC   D2A18580  20.634  35.338   8.253
 6258POPC   C3A18581  20.609  35.354   7.953
 6258POPC   C4A18582  20.598  35.347   7.653
 6258POPC   C1B18583  20.378  35.219   8.553
 6258POPC   C2B18584  20.375  35.250   8.253
 6258POPC   C3B18585  20.372  35.266   7.953
 6258POPC   C4B18586  20.382  35.255   7.653
 6259POPC   NC318587  31.514   3.543   9.453
 6259POPC   PO418588  31.456   3.493   9.153
 6259POPC   GL118589  31.481   3.535   8.853
 6259POPC   GL218590  31.462   3.665   8.853
 6259POPC   C1A18591  31.465   3.537   8.553
 6259POPC   D2A18592  31.466   3.493   8.253
 6259POPC   C3A18593  31.428   3.508   7.953
 6259POPC   C4A18594  31.430   3.517   7.653
 6259POPC   C1B18595  31.349   3.788   8.553
 6259POPC   C2B18596  31.345   3.800   8.253
 6259POPC   C3B18597  31.345   3.756   7.953
 6259POPC   C4B18598  31.339   3.748   7.653
 6260POPC   NC318599  26.812   5.910   9.453
 6260POPC   PO418600  26.803   5.876   9.153
 6260POPC   GL118601  26.768   5.863   8.853
 6260POPC   GL218602  26.928   5.742   8.853
 6260POPC   C1A18603  26.855   5.845   8.553
 6260POPC   D2A18604  26.861   5.915   8.253
 6260POPC   C3A18605  26.809   5.836   7.953
 6260POPC   C4A18606  26.857   5.905   7.653
 6260POPC   C1B18607  26.927   5.612   8.553
 6260POPC   C2B18608  26.977   5.617   8.253
 6260POPC   C3B18609  27.003   5.657   7.953
 6260POPC   C4B18610  26.988   5.667   7.653
 6261POPC   NC318611  22.919  20.592   9.453
 6261POPC   PO418612  22.931  20.650   9.153
 6261POPC   GL118613  22.943  20.601   8.853
 6261POPC   GL218614  22.874  20.538   8.853
 6261POPC   C1A18615  22.947  20.581   8.553
 6261POPC   D2A18616  22.956  20.573   8.253
 6261POPC   C3A18617  22.986  20.604   7.953
 6261POPC   C4A18618  22.899  20.596   7.653
 6261POPC   C1B18619  22.840  20.427   8.553
 6261POPC   C2B18620  22.821  20.352   8.253
 6261POPC   C3B18621  22.835  20.369   7.953
 6261POPC   C4B18622  22.804  20.427   7.653
 6262POPC   NC318623   9.724  43.090   9.453
 6262POPC   PO418624   9.715  43.130   9.153
 6262POPC   GL118625   9.771  43.134   8.853
 6262POPC   GL218626   9.857  43.184   8.853
 6262POPC   C1A18627   9.705  43.109   8.553
 6262POPC   D2A18628   9.774  43.146   8.253
 6262POPC   C3A18629   9.715  43.131   7.953
 6262POPC   C4A18630   9.782  43.069   7.653
 6262POPC   C1B18631   9.916  43.272   8.553
 6262POPC   C2B18632   9.929  43.260   8.253
 6262POPC   C3B18633   9.977  43.214   7.953
 6262POPC   C4B18634   9.911  43.241   7.653
 6263POPC   NC318635  26.797  39.182   9.453
 6263POPC   PO418636  26.811  39.260   9.153
 6263POPC   GL118637  26.792  39.225   8.853
 6263POPC   GL218638  26.923  39.274   8.853
 6263POPC   C1A18639  26.831  39.263   8.553
 6263POPC   D2A18640  26.809  39.223   8.253
 6263POPC   C3A18641  26.837  39.194   7.953
 6263POPC   C4A18642  26.800  39.229   7.653
 6263POPC   C1B18643  27.082  39.324   8.553
 6263POPC   C2B18644  27.041  39.361   8.253
 6263POPC   C3B18645  27.075  39.354   7.953
 6263POPC   C4B18646  27.059  39.356   7.653
 6264POPC   NC318647  36.131  12.896   9.453
 6264POPC   PO418648  36.125  12.863   9.153
 6264POPC   GL118649  36.095  12.861   8.853
 6264POPC   GL218650  36.259  12.906   8.853
 6264POPC   C1A18651  36.113  12.866   8.553
 6264POPC   D2A18652  36.146  12.812   8.253
 6264POPC   C3A18653  36.134  12.818   7.953
 6264POPC   C4A18654  36.161  12.862   7.653
 6264POPC   C1B18655  36.329  12.999   8.553
 6264POPC   C2B18656  36.351  12.975   8.253
 6264POPC   C3B18657  36.300  12.982   7.953
 6264POPC   C4B18658  36.346  13.050   7.653
 6265POPC   NC318659   9.713   3.512   9.453
 6265POPC   PO418660   9.780   3.560   9.153
 6265POPC   GL118661   9.788   3.587   8.853
 6265POPC   GL218662   9.648   3.673   8.853
 6265POPC   C1A18663   9.790   3.559   8.553
 6265POPC   D2A18664   9.718   3.545   8.253
 6265POPC   C3A18665   9.724   3.535   7.953
 6265POPC   C4A18666   9.781   3.535   7.653
 6265POPC   C1B18667   9.654   3.745   8.553
 6265POPC   C2B18668   9.607   3.772   8.253
 6265POPC   C3B18669   9.643   3.784   7.953
 6265POPC   C4B18670   9.586   3.719   7.653
 6266POPC   NC318671  10.525   7.415   9.453
 6266POPC   PO418672  10.530   7.433   9.153
 6266POPC   GL118673  10.488   7.453   8.853
 6266POPC   GL218674  10.419   7.333   8.853
 6266POPC   C1A18675  10.572   7.380   8.553
 6266POPC   D2A18676  10.496   7.389   8.253
 6266POPC   C3A18677  10.526   7.399   7.953
 6266POPC   C4A18678  10.563   7.421   7.653
 6266POPC   C1B18679  10.379   7.193   8.553
 6266POPC   C2B18680  10.346   7.194   8.253
 6266POPC   C3B18681  10.381   7.226   7.953
 6266POPC   C4B18682  10.397   7.202   7.653
 6267POPC   NC318683  11.268  44.670   9.453
 6267POPC   PO418684  11.258  44.658   9.153
 6267POPC   GL118685  11.282  44.628   8.853
 6267POPC   GL218686  11.371  44.716   8.853
 6267POPC   C1A18687  11.302  44.691   8.553
 6267POPC   D2A18688  11.315  44.623   8.253
 6267POPC   C3A18689  11.335  44.666   7.953
 6267POPC   C4A18690  11.338  44.639   7.653
 6267POPC   C1B18691  11.500  44.804   8.553
 6267POPC   C2B18692  11.462  44.839   8.253
 6267POPC   C3B18693  11.497  44.808   7.953
 6267POPC   C4B18694  11.480  44.808   7.653
 6268POPC   NC318695  39.250  13.587   9.453
 6268POPC   PO418696  39.216  13.662   9.153
 6268POPC   GL118697  39.187  13.637   8.853
 6268POPC   GL218698  39.108  13.572   8.853
 6268POPC   C1A18699  39.210  13.638   8.553
 6268POPC   D2A18700  39.257  13.611   8.253
 6268POPC   C3A18701  39.214  13.653   7.953
 6268POPC   C4A18702  39.231  13.649   7.653
 6268POPC   C1B18703  39.012  13.504   8.553
 6268POPC   C2B18704  38.959  13.546   8.253
 6268POPC   C3B18705  39.044  13.579   7.953
 6268POPC   C4B18706  39.016  13.493   7.653
 6269POPC   NC318707  19.081   3.494   9.453
 6269POPC   PO418708  19.046   3.591   9.153
 6269POPC   GL118709  19.013   3.524   8.853
 6269POPC   GL218710  19.110   3.634   8.853
 6269POPC   C1A18711  19.069   3.544   8.553
 6269POPC   D2A18712  19.018   3.499   8.253
 6269POPC   C3A18713  19.015   3.567   7.953
 6269POPC   C4A18714  19.024   3.559   7.653
 6269POPC   C1B18715  19.147   3.737   8.553
 6269POPC   C2B18716  19.157   3.824   8.253
 6269POPC   C3B18717  19.105   3.813   7.953
 6269POPC   C4B18718  19.118   3.779   7.653
 6270POPC   NC318719  19.093  19.832   9.453
 6270POPC   PO418720  19.103  19.877   9.153
 6270POPC   GL118721  19.043  19.816   8.853
 6270POPC   GL218722  19.109  19.875   8.853
 6270POPC   C1A18723  19.094  19.877   8.553
 6270POPC   D2A18724  19.037  19.841   8.253
 6270POPC   C3A18725  19.033  19.804   7.953
 6270POPC   C4A18726  19.065  19.862   7.653
 6270POPC   C1B18727  19.196  20.019   8.553
 6270POPC   C2B18728  19.264  19.967   8.253
 6270POPC   C3B18729  19.224  20.003   7.953
 6270POPC   C4B18730  19.210  19.976   7.653
 6271POPC   NC318731  37.697   8.216   9.453
 6271POPC   PO418732  37.697   8.207   9.153
 6271POPC   GL118733  37.653   8.190   8.853
 6271POPC   GL218734  37.811   8.316   8.853
 6271POPC   C1A18735  37.700   8.210   8.553
 6271POPC   D2A18736  37.632   8.237   8.253
 6271POPC   C3A18737  37.678   8.161   7.953
 6271POPC   C4A18738  37.675   8.176   7.653
 6271POPC   C1B18739  37.933   8.372   8.553
 6271POPC   C2B18740  37.886   8.375   8.253
 6271POPC   C3B18741  37.857   8.353   7.953
 6271POPC   C4B18742  37.849   8.295   7.653
 6272POPC   NC318743  12.831   8.989   9.453
 6272POPC   PO418744  12.846   9.007   9.153
 6272POPC   GL118745  12.821   8.978   8.853
 6272POPC   GL218746  12.848   9.101   8.853
 6272POPC   C1A18747  12.876   8.983   8.553
 6272POPC   D2A18748  12.813   8.944   8.253
 6272POPC   C3A18749  12.900   8.962   7.953
 6272POPC   C4A18750  12.872   8.990   7.653
 6272POPC   C1B18751  12.902   9.258   8.553
 6272POPC   C2B18752  12.930   9.242   8.253
 6272POPC   C3B18753  12.844   9.188   7.953
 6272POPC   C4B18754  12.932   9.209   7.653
 6273POPC   NC318755  10.480   3.549   9.453
 6273POPC   PO418756  10.545   3.585   9.153
 6273POPC   GL118757  10.478   3.517   8.853
 6273POPC   GL218758  10.542   3.656   8.853
 6273POPC   C1A18759  10.541   3.493   8.553
 6273POPC   D2A18760  10.552   3.563   8.253
 6273POPC   C3A18761  10.508   3.491   7.953
 6273POPC   C4A18762  10.561   3.572   7.653
 6273POPC   C1B18763  10.528   3.757   8.553
 6273POPC   C2B18764  10.587   3.783   8.253
 6273POPC   C3B18765  10.551   3.808   7.953
 6273POPC   C4B18766  10.550   3.752   7.653
 6274POPC   NC318767   8.961   2.783   9.453
 6274POPC   PO418768   8.923   2.773   9.153
 6274POPC   GL118769   8.982   2.787   8.853
 6274POPC   GL218770   9.042   2.630   8.853
 6274POPC   C1A18771   8.959   2.760   8.553
 6274POPC   D2A18772   8.928   2.717   8.253
 6274POPC   C3A18773   8.967   2.732   7.953
 6274POPC   C4A18774   8.954   2.801   7.653
 6274POPC   C1B18775   9.146   2.506   8.553
 6274POPC   C2B18776   9.128   2.598   8.253
 6274POPC   C3B18777   9.145   2.508   7.953
 6274POPC   C4B18778   9.055   2.529   7.653
 6275POPC   NC318779   5.908  15.946   9.453
 6275POPC   PO418780   5.886  15.978   9.153
 6275POPC   GL118781   5.870  15.990   8.853
 6275POPC   GL218782   5.993  15.973   8.853
 6275POPC   C1A18783   5.838  15.971   8.553
 6275POPC   D2A18784   5.898  16.003   8.253
 6275POPC   C3A18785   5.874  15.912   7.953
 6275POPC   C4A18786   5.875  15.932   7.653
 6275POPC   C1B18787   6.141  15.902   8.553
 6275POPC   C2B18788   6.082  15.914   8.253
 6275POPC   C3B18789   6.093  15.924   7.953
 6275POPC   C4B18790   6.156  15.911   7.653
 6276POPC   NC318791   4.303  12.848   9.453
 6276POPC   PO418792   4.312  12.822   9.153
 6276POPC   GL118793   4.309  12.876   8.853
 6276POPC   GL218794   4.321  12.977   8.853
 6276POPC   C1A18795   4.328  12.802   8.553
 6276POPC   D2A18796   4.329  12.826   8.253
 6276POPC   C3A18797   4.330  12.899   7.953
 6276POPC   C4A18798   4.269  12.897   7.653
 6276POPC   C1B18799   4.392  13.087   8.553
 6276POPC   C2B18800   4.308  13.122   8.253
 6276POPC   C3B18801   4.306  13.070   7.953
 6276POPC   C4B18802   4.338  13.124   7.653
 6277POPC   NC318803  44.683  39.274   9.453
 6277POPC   PO418804  44.683  39.199   9.153
 6277POPC   GL118805  44.643  39.273   8.853
 6277POPC   GL218806  44.616  39.112   8.853
 6277POPC   C1A18807  44.694  39.251   8.553
 6277POPC   D2A18808  44.617  39.196   8.253
 6277POPC   C3A18809  44.621  39.202   7.953
 6277POPC   C4A18810  44.691  39.192   7.653
 6277POPC   C1B18811  44.638  39.006   8.553
 6277POPC   C2B18812  44.622  39.015   8.253
 6277POPC   C3B18813  44.617  38.934   7.953
 6277POPC   C4B18814  44.628  39.021   7.653
 6278POPC   NC318815  12.900   1.192   9.453
 6278POPC   PO418816  12.822   1.219   9.153
 6278POPC   GL118817  12.881   1.234   8.853
 6278POPC   GL218818  12.716   1.153   8.853
 6278POPC   C1A18819  12.830   1.236   8.553
 6278POPC   D2A18820  12.860   1.183   8.253
 6278POPC   C3A18821  12.819   1.231   7.953
 6278POPC   C4A18822  12.834   1.220   7.653
 6278POPC   C1B18823  12.672   1.109   8.553
 6278POPC   C2B18824  12.681   1.073   8.253
 6278POPC   C3B18825  12.631   1.112   7.953
 6278POPC   C4B18826  12.657   1.048   7.653
 6279POPC   NC318827  25.276  15.983   9.453
 6279POPC   PO418828  25.297  15.989   9.153
 6279POPC   GL118829  25.277  15.957   8.853
 6279POPC   GL218830  25.287  16.115   8.853
 6279POPC   C1A18831  25.231  15.945   8.553
 6279POPC   D2A18832  25.299  15.928   8.253
 6279POPC   C3A18833  25.251  15.996   7.953
 6279POPC   C4A18834  25.220  15.949   7.653
 6279POPC   C1B18835  25.296  16.202   8.553
 6279POPC   C2B18836  25.352  16.235   8.253
 6279POPC   C3B18837  25.290  16.163   7.953
 6279POPC   C4B18838  25.365  16.190   7.653
 6280POPC   NC318839  43.140  32.993   9.453
 6280POPC   PO418840  43.097  32.984   9.153
 6280POPC   GL118841  43.112  33.005   8.853
 6280POPC   GL218842  43.119  33.116   8.853
 6280POPC   C1A18843  43.064  33.063   8.553
 6280POPC   D2A18844  43.145  33.014   8.253
 6280POPC   C3A18845  43.085  33.035   7.953
 6280POPC   C4A18846  43.127  33.008   7.653
 6280POPC   C1B18847  43.208  33.280   8.553
 6280POPC   C2B18848  43.207  33.250   8.253
 6280POPC   C3B18849  43.150  33.294   7.953
 6280POPC   C4B18850  43.134  33.289   7.653
 6281POPC   NC318851  12.061   2.037   9.453
 6281POPC   PO418852  12.051   2.007   9.153
 6281POPC   GL118853  12.104   1.993   8.853
 6281POPC   GL218854  12.087   1.852   8.853
 6281POPC   C1A18855  12.072   1.984   8.553
 6281POPC   D2A18856  12.045   1.970   8.253
 6281POPC   C3A18857  12.088   2.033   7.953
 6281POPC   C4A18858  12.050   1.995   7.653
 6281POPC   C1B18859  12.151   1.736   8.553
 6281POPC   C2B18860  12.113   1.747   8.253
 6281POPC   C3B18861  12.184   1.742   7.953
 6281POPC   C4B18862  12.179   1.740   7.653
 6282POPC   NC318863  43.846  25.310   9.453
 6282POPC   PO418864  43.899  25.267   9.153
 6282POPC   GL118865  43.847  25.308   8.853
 6282POPC   GL218866  43.767  25.304   8.853
 6282POPC   C1A18867  43.885  25.235   8.553
 6282POPC   D2A18868  43.853  25.253   8.253
 6282POPC   C3A18869  43.922  25.237   7.953
 6282POPC   C4A18870  43.892  25.252   7.653
 6282POPC   C1B18871  43.631  25.353   8.553
 6282POPC   C2B18872  43.651  25.291   8.253
 6282POPC   C3B18873  43.679  25.347   7.953
 6282POPC   C4B18874  43.647  25.368   7.653
 6283POPC   NC318875  25.230  33.844   9.453
 6283POPC   PO418876  25.233  33.830   9.153
 6283POPC   GL118877  25.289  33.767   8.853
 6283POPC   GL218878  25.278  33.964   8.853
 6283POPC   C1A18879  25.289  33.802   8.553
 6283POPC   D2A18880  25.250  33.833   8.253
 6283POPC   C3A18881  25.253  33.790   7.953
 6283POPC   C4A18882  25.240  33.758   7.653
 6283POPC   C1B18883  25.274  34.008   8.553
 6283POPC   C2B18884  25.279  34.093   8.253
 6283POPC   C3B18885  25.347  34.002   7.953
 6283POPC   C4B18886  25.303  34.019   7.653
 6284POPC   NC318887  25.247  40.766   9.453
 6284POPC   PO418888  25.298  40.825   9.153
 6284POPC   GL118889  25.223  40.743   8.853
 6284POPC   GL218890  25.182  40.671   8.853
 6284POPC   C1A18891  25.250  40.756   8.553
 6284POPC   D2A18892  25.219  40.747   8.253
 6284POPC   C3A18893  25.257  40.760   7.953
 6284POPC   C4A18894  25.272  40.804   7.653
 6284POPC   C1B18895  25.086  40.600   8.553
 6284POPC   C2B18896  25.120  40.607   8.253
 6284POPC   C3B18897  25.134  40.637   7.953
 6284POPC   C4B18898  25.076  40.612   7.653
 6285POPC   NC318899  40.022  32.214   9.453
 6285POPC   PO418900  40.001  32.292   9.153
 6285POPC   GL118901  39.964  32.246   8.853
 6285POPC   GL218902  39.897  32.325   8.853
 6285POPC   C1A18903  39.986  32.236   8.553
 6285POPC   D2A18904  39.975  32.238   8.253
 6285POPC   C3A18905  40.022  32.276   7.953
 6285POPC   C4A18906  39.992  32.270   7.653
 6285POPC   C1B18907  39.843  32.378   8.553
 6285POPC   C2B18908  39.855  32.447   8.253
 6285POPC   C3B18909  39.856  32.423   7.953
 6285POPC   C4B18910  39.862  32.385   7.653
 6286POPC   NC318911  44.651  41.513   9.453
 6286POPC   PO418912  44.679  41.513   9.153
 6286POPC   GL118913  44.683  41.567   8.853
 6286POPC   GL218914  44.697  41.700   8.853
 6286POPC   C1A18915  44.665  41.530   8.553
 6286POPC   D2A18916  44.620  41.589   8.253
 6286POPC   C3A18917  44.659  41.588   7.953
 6286POPC   C4A18918  44.619  41.581   7.653
 6286POPC   C1B18919  44.713  41.811   8.553
 6286POPC   C2B18920  44.632  41.857   8.253
 6286POPC   C3B18921  44.708  41.853   7.953
 6286POPC   C4B18922  44.671  41.762   7.653
 6287POPC   NC318923  22.924  15.992   9.453
 6287POPC   PO418924  22.903  15.935   9.153
 6287POPC   GL118925  22.899  16.005   8.853
 6287POPC   GL218926  22.810  15.957   8.853
 6287POPC   C1A18927  22.933  15.951   8.553
 6287POPC   D2A18928  22.914  15.933   8.253
 6287POPC   C3A18929  22.971  15.916   7.953
 6287POPC   C4A18930  22.922  15.948   7.653
 6287POPC   C1B18931  22.711  16.075   8.553
 6287POPC   C2B18932  22.675  16.073   8.253
 6287POPC   C3B18933  22.695  16.023   7.953
 6287POPC   C4B18934  22.707  16.024   7.653
 6288POPC   NC318935  35.367  21.349   9.453
 6288POPC   PO418936  35.349  21.419   9.153
 6288POPC   GL118937  35.320  21.357   8.853
 6288POPC   GL218938  35.443  21.476   8.853
 6288POPC   C1A18939  35.322  21.409   8.553
 6288POPC   D2A18940  35.314  21.427   8.253
 6288POPC   C3A18941  35.352  21.423   7.953
 6288POPC   C4A18942  35.325  21.408   7.653
 6288POPC   C1B18943  35.537  21.513   8.553
 6288POPC   C2B18944  35.540  21.543   8.253
 6288POPC   C3B18945  35.598  21.539   7.953
 6288POPC   C4B18946  35.598  21.494   7.653
 6289POPC   NC318947  40.035  38.409   9.453
 6289POPC   PO418948  39.963  38.464   9.153
 6289POPC   GL118949  39.992  38.497   8.853
 6289POPC   GL218950  39.868  38.536   8.853
 6289POPC   C1A18951  40.004  38.489   8.553
 6289POPC   D2A18952  40.001  38.487   8.253
 6289POPC   C3A18953  40.009  38.475   7.953
 6289POPC   C4A18954  39.973  38.460   7.653
 6289POPC   C1B18955  39.780  38.597   8.553
 6289POPC   C2B18956  39.799  38.633   8.253
 6289POPC   C3B18957  39.823  38.582   7.953
 6289POPC   C4B18958  39.854  38.646   7.653
 6290POPC   NC318959  31.520  13.668   9.453
 6290POPC   PO418960  31.518  13.604   9.153
 6290POPC   GL118961  31.428  13.675   8.853
 6290POPC   GL218962  31.638  13.624   8.853
 6290POPC   C1A18963  31.439  13.624   8.553
 6290POPC   D2A18964  31.501  13.619   8.253
 6290POPC   C3A18965  31.447  13.585   7.953
 6290POPC   C4A18966  31.451  13.667   7.653
 6290POPC   C1B18967  31.671  13.635   8.553
 6290POPC   C2B18968  31.765  13.569   8.253
 6290POPC   C3B18969  31.727  13.613   7.953
 6290POPC   C4B18970  31.735  13.595   7.653
 6291POPC   NC318971  33.768  19.815   9.453
 6291POPC   PO418972  33.792  19.854   9.153
 6291POPC   GL118973  33.833  19.814   8.853
 6291POPC   GL218974  33.736  19.918   8.853
 6291POPC   C1A18975  33.777  19.811   8.553
 6291POPC   D2A18976  33.760  19.807   8.253
 6291POPC   C3A18977  33.784  19.841   7.953
 6291POPC   C4A18978  33.815  19.829   7.653
 6291POPC   C1B18979  33.624  20.068   8.553
 6291POPC   C2B18980  33.618  20.050   8.253
 6291POPC   C3B18981  33.602  20.032   7.953
 6291POPC   C4B18982  33.635  20.046   7.653
 6292POPC   NC318983   8.213  21.415   9.453
 6292POPC   PO418984   8.197  21.394   9.153
 6292POPC   GL118985   8.151  21.367   8.853
 6292POPC   GL218986   8.335  21.375   8.853
 6292POPC   C1A18987   8.236  21.375   8.553
 6292POPC   D2A18988   8.155  21.419   8.253
 6292POPC   C3A18989   8.187  21.355   7.953
 6292POPC   C4A18990   8.233  21.384   7.653
 6292POPC   C1B18991   8.489  21.454   8.553
 6292POPC   C2B18992   8.395  21.400   8.253
 6292POPC   C3B18993   8.461  21.404   7.953
 6292POPC   C4B18994   8.402  21.459   7.653
 6293POPC   NC318995  30.658  26.041   9.453
 6293POPC   PO418996  30.675  26.011   9.153
 6293POPC   GL118997  30.657  26.091   8.853
 6293POPC   GL218998  30.863  26.111   8.853
 6293POPC   C1A18999  30.733  26.072   8.553
 6293POPC   D2A19000  30.691  26.090   8.253
 6293POPC   C3A19001  30.671  26.064   7.953
 6293POPC   C4A19002  30.648  26.005   7.653
 6293POPC   C1B19003  30.964  26.154   8.553
 6293POPC   C2B19004  30.955  26.149   8.253
 6293POPC   C3B19005  30.972  26.096   7.953
 6293POPC   C4B19006  30.905  26.136   7.653
 6294POPC   NC319007  25.267  27.580   9.453
 6294POPC   PO419008  25.224  27.544   9.153
 6294POPC   GL119009  25.242  27.604   8.853
 6294POPC   GL219010  25.334  27.717   8.853
 6294POPC   C1A19011  25.217  27.569   8.553
 6294POPC   D2A19012  25.273  27.593   8.253
 6294POPC   C3A19013  25.273  27.544   7.953
 6294POPC   C4A19014  25.285  27.554   7.653
 6294POPC   C1B19015  25.254  27.872   8.553
 6294POPC   C2B19016  25.352  27.816   8.253
 6294POPC   C3B19017  25.265  27.805   7.953
 6294POPC   C4B19018  25.351  27.851   7.653
 6295POPC   NC319019  20.632  23.724   9.453
 6295POPC   PO419020  20.595  23.670   9.153
 6295POPC   GL119021  20.660  23.736   8.853
 6295POPC   GL219022  20.609  23.838   8.853
 6295POPC   C1A19023  20.617  23.667   8.553
 6295POPC   D2A19024  20.654  23.717   8.253
 6295POPC   C3A19025  20.572  23.689   7.953
 6295POPC   C4A19026  20.561  23.742   7.653
 6295POPC   C1B19027  20.557  23.990   8.553
 6295POPC   C2B19028  20.654  23.956   8.253
 6295POPC   C3B19029  20.583  23.970   7.953
 6295POPC   C4B19030  20.599  23.924   7.653
 6296POPC   NC319031  24.448   5.861   9.453
 6296POPC   PO419032  24.500   5.876   9.153
 6296POPC   GL119033  24.509   5.892   8.853
 6296POPC   GL219034  24.580   5.979   8.853
 6296POPC   C1A19035  24.508   5.888   8.553
 6296POPC   D2A19036  24.505   5.882   8.253
 6296POPC   C3A19037  24.500   5.888   7.953
 6296POPC   C4A19038  24.534   5.913   7.653
 6296POPC   C1B19039  24.639   6.020   8.553
 6296POPC   C2B19040  24.680   6.098   8.253
 6296POPC   C3B19041  24.657   6.043   7.953
 6296POPC   C4B19042  24.687   6.047   7.653
 6297POPC   NC319043  29.959  43.120   9.453
 6297POPC   PO419044  29.911  43.125   9.153
 6297POPC   GL119045  29.937  43.153   8.853
 6297POPC   GL219046  29.849  43.217   8.853
 6297POPC   C1A19047  29.933  43.077   8.553
 6297POPC   D2A19048  29.959  43.117   8.253
 6297POPC   C3A19049  29.944  43.085   7.953
 6297POPC   C4A19050  29.961  43.127   7.653
 6297POPC   C1B19051  29.691  43.258   8.553
 6297POPC   C2B19052  29.705  43.232   8.253
 6297POPC   C3B19053  29.743  43.217   7.953
 6297POPC   C4B19054  29.750  43.190   7.653
 6298POPC   NC319055  12.103   8.929   9.453
 6298POPC   PO419056  12.115   8.962   9.153
 6298POPC   GL119057  12.065   8.955   8.853
 6298POPC   GL219058  12.142   8.822   8.853
 6298POPC   C1A19059  12.103   8.999   8.553
 6298POPC   D2A19060  12.034   9.015   8.253
 6298POPC   C3A19061  12.027   8.936   7.953
 6298POPC   C4A19062  12.070   8.992   7.653
 6298POPC   C1B19063  12.071   8.754   8.553
 6298POPC   C2B19064  12.102   8.766   8.253
 6298POPC   C3B19065  12.112   8.770   7.953
 6298POPC   C4B19066  12.099   8.759   7.653
 6299POPC   NC319067   9.758  25.996   9.453
 6299POPC   PO419068   9.793  26.051   9.153
 6299POPC   GL119069   9.757  26.016   8.853
 6299POPC   GL219070   9.847  25.969   8.853
 6299POPC   C1A19071   9.780  26.020   8.553
 6299POPC   D2A19072   9.721  26.009   8.253
 6299POPC   C3A19073   9.728  26.004   7.953
 6299POPC   C4A19074   9.700  26.022   7.653
 6299POPC   C1B19075   9.946  25.959   8.553
 6299POPC   C2B19076   9.990  25.952   8.253
 6299POPC   C3B19077  10.028  25.940   7.953
 6299POPC   C4B19078   9.979  25.937   7.653
 6300POPC   NC319079  22.916  14.419   9.453
 6300POPC   PO419080  22.971  14.427   9.153
 6300POPC   GL119081  22.933  14.374   8.853
 6300POPC   GL219082  22.811  14.328   8.853
 6300POPC   C1A19083  22.941  14.449   8.553
 6300POPC   D2A19084  22.920  14.383   8.253
 6300POPC   C3A19085  22.960  14.391   7.953
 6300POPC   C4A19086  22.920  14.420   7.653
 6300POPC   C1B19087  22.780  14.189   8.553
 6300POPC   C2B19088  22.774  14.240   8.253
 6300POPC   C3B19089  22.769  14.235   7.953
 6300POPC   C4B19090  22.764  14.199   7.653
 6301POPC   NC319091   3.556  39.266   9.453
 6301POPC   PO419092   3.560  39.239   9.153
 6301POPC   GL119093   3.511  39.256   8.853
 6301POPC   GL219094   3.468  39.109   8.853
 6301POPC   C1A19095   3.518  39.244   8.553
 6301POPC   D2A19096   3.524  39.184   8.253
 6301POPC   C3A19097   3.518  39.253   7.953
 6301POPC   C4A19098   3.536  39.232   7.653
 6301POPC   C1B19099   3.484  38.984   8.553
 6301POPC   C2B19100   3.517  39.002   8.253
 6301POPC   C3B19101   3.447  38.972   7.953
 6301POPC   C4B19102   3.502  38.996   7.653
 6302POPC   NC319103  33.028  33.050   9.453
 6302POPC   PO419104  33.050  33.065   9.153
 6302POPC   GL119105  33.041  33.048   8.853
 6302POPC   GL219106  32.954  32.957   8.853
 6302POPC   C1A19107  33.009  33.065   8.553
 6302POPC   D2A19108  33.019  33.019   8.253
 6302POPC   C3A19109  33.028  33.029   7.953
 6302POPC   C4A19110  33.069  32.997   7.653
 6302POPC   C1B19111  32.964  32.788   8.553
 6302POPC   C2B19112  32.958  32.828   8.253
 6302POPC   C3B19113  32.952  32.780   7.953
 6302POPC   C4B19114  32.953  32.807   7.653
 6303POPC   NC319115  38.466   1.965   9.453
 6303POPC   PO419116  38.409   1.958   9.153
 6303POPC   GL119117  38.429   1.974   8.853
 6303POPC   GL219118  38.340   1.927   8.853
 6303POPC   C1A19119  38.470   1.982   8.553
 6303POPC   D2A19120  38.419   1.965   8.253
 6303POPC   C3A19121  38.471   1.993   7.953
 6303POPC   C4A19122  38.417   2.015   7.653
 6303POPC   C1B19123  38.221   1.866   8.553
 6303POPC   C2B19124  38.224   1.885   8.253
 6303POPC   C3B19125  38.209   1.937   7.953
 6303POPC   C4B19126  38.254   1.933   7.653
 6304POPC   NC319127  14.381  28.415   9.453
 6304POPC   PO419128  14.448  28.362   9.153
 6304POPC   GL119129  14.447  28.355   8.853
 6304POPC   GL219130  14.373  28.470   8.853
 6304POPC   C1A19131  14.431  28.352   8.553
 6304POPC   D2A19132  14.422  28.403   8.253
 6304POPC   C3A19133  14.421  28.418   7.953
 6304POPC   C4A19134  14.359  28.388   7.653
 6304POPC   C1B19135  14.407  28.606   8.553
 6304POPC   C2B19136  14.416  28.659   8.253
 6304POPC   C3B19137  14.344  28.608   7.953
 6304POPC   C4B19138  14.401  28.657   7.653
 6305POPC   NC319139   3.509  19.796   9.453
 6305POPC   PO419140   3.546  19.828   9.153
 6305POPC   GL119141   3.505  19.833   8.853
 6305POPC   GL219142   3.574  19.967   8.853
 6305POPC   C1A19143   3.504  19.792   8.553
 6305POPC   D2A19144   3.530  19.834   8.253
 6305POPC   C3A19145   3.547  19.839   7.953
 6305POPC   C4A19146   3.529  19.808   7.653
 6305POPC   C1B19147   3.524  20.100   8.553
 6305POPC   C2B19148   3.592  20.044   8.253
 6305POPC   C3B19149   3.538  20.119   7.953
 6305POPC   C4B19150   3.525  20.131   7.653
 6306POPC   NC319151   5.133  25.254   9.453
 6306POPC   PO419152   5.108  25.281   9.153
 6306POPC   GL119153   5.103  25.314   8.853
 6306POPC   GL219154   5.236  25.291   8.853
 6306POPC   C1A19155   5.068  25.280   8.553
 6306POPC   D2A19156   5.071  25.218   8.253
 6306POPC   C3A19157   5.101  25.304   7.953
 6306POPC   C4A19158   5.133  25.315   7.653
 6306POPC   C1B19159   5.337  25.316   8.553
 6306POPC   C2B19160   5.345  25.306   8.253
 6306POPC   C3B19161   5.332  25.379   7.953
 6306POPC   C4B19162   5.336  25.352   7.653
 6307POPC   NC319163  43.907  33.021   9.453
 6307POPC   PO419164  43.918  33.042   9.153
 6307POPC   GL119165  43.848  32.990   8.853
 6307POPC   GL219166  43.768  33.117   8.853
 6307POPC   C1A19167  43.881  33.023   8.553
 6307POPC   D2A19168  43.842  33.056   8.253
 6307POPC   C3A19169  43.922  33.021   7.953
 6307POPC   C4A19170  43.849  33.004   7.653
 6307POPC   C1B19171  43.723  33.247   8.553
 6307POPC   C2B19172  43.701  33.173   8.253
 6307POPC   C3B19173  43.741  33.186   7.953
 6307POPC   C4B19174  43.744  33.214   7.653
 6308POPC   NC319175  40.785   1.192   9.453
 6308POPC   PO419176  40.739   1.193   9.153
 6308POPC   GL119177  40.749   1.166   8.853
 6308POPC   GL219178  40.885   1.289   8.853
 6308POPC   C1A19179  40.805   1.257   8.553
 6308POPC   D2A19180  40.749   1.200   8.253
 6308POPC   C3A19181  40.779   1.169   7.953
 6308POPC   C4A19182  40.808   1.185   7.653
 6308POPC   C1B19183  40.869   1.422   8.553
 6308POPC   C2B19184  40.960   1.400   8.253
 6308POPC   C3B19185  40.900   1.426   7.953
 6308POPC   C4B19186  40.889   1.433   7.653
 6309POPC   NC319187  33.004  15.970   9.453
 6309POPC   PO419188  33.069  15.909   9.153
 6309POPC   GL119189  32.990  15.984   8.853
 6309POPC   GL219190  33.074  15.818   8.853
 6309POPC   C1A19191  33.008  15.940   8.553
 6309POPC   D2A19192  33.073  15.972   8.253
 6309POPC   C3A19193  33.048  15.966   7.953
 6309POPC   C4A19194  33.060  15.927   7.653
 6309POPC   C1B19195  33.138  15.740   8.553
 6309POPC   C2B19196  33.144  15.800   8.253
 6309POPC   C3B19197  33.155  15.728   7.953
 6309POPC   C4B19198  33.182  15.773   7.653
 6310POPC   NC319199  22.211  21.353   9.453
 6310POPC   PO419200  22.115  21.412   9.153
 6310POPC   GL119201  22.207  21.414   8.853
 6310POPC   GL219202  22.279  21.378   8.853
 6310POPC   C1A19203  22.143  21.348   8.553
 6310POPC   D2A19204  22.211  21.349   8.253
 6310POPC   C3A19205  22.114  21.339   7.953
 6310POPC   C4A19206  22.180  21.365   7.653
 6310POPC   C1B19207  22.388  21.284   8.553
 6310POPC   C2B19208  22.365  21.292   8.253
 6310POPC   C3B19209  22.358  21.364   7.953
 6310POPC   C4B19210  22.407  21.296   7.653
 6311POPC   NC319211  29.124  35.336   9.453
 6311POPC   PO419212  29.181  35.398   9.153
 6311POPC   GL119213  29.131  35.325   8.853
 6311POPC   GL219214  29.194  35.238   8.853
 6311POPC   C1A19215  29.193  35.334   8.553
 6311POPC   D2A19216  29.164  35.326   8.253
 6311POPC   C3A19217  29.162  35.400   7.953
 6311POPC   C4A19218  29.171  35.356   7.653
 6311POPC   C1B19219  29.136  35.140   8.553
 6311POPC   C2B19220  29.169  35.106   8.253
 6311POPC   C3B19221  29.174  35.077   7.953
 6311POPC   C4B19222  29.100  35.121   7.653
 6312POPC   NC319223  38.477  40.817   9.453
 6312POPC   PO419224  38.469  40.781   9.153
 6312POPC   GL119225  38.437  40.830   8.853
 6312POPC   GL219226  38.626  40.794   8.853
 6312POPC   C1A19227  38.467  40.811   8.553
 6312POPC   D2A19228  38.429  40.815   8.253
 6312POPC   C3A19229  38.493  40.744   7.953
 6312POPC   C4A19230  38.458  40.738   7.653
 6312POPC   C1B19231  38.703  40.838   8.553
 6312POPC   C2B19232  38.707  40.820   8.253
 6312POPC   C3B19233  38.693  40.834   7.953
 6312POPC   C4B19234  38.689  40.832   7.653
 6313POPC   NC319235  24.527  42.361   9.453
 6313POPC   PO419236  24.524  42.362   9.153
 6313POPC   GL119237  24.532  42.374   8.853
 6313POPC   GL219238  24.332  42.333   8.853
 6313POPC   C1A19239  24.464  42.379   8.553
 6313POPC   D2A19240  24.482  42.331   8.253
 6313POPC   C3A19241  24.498  42.335   7.953
 6313POPC   C4A19242  24.462  42.294   7.653
 6313POPC   C1B19243  24.251  42.335   8.553
 6313POPC   C2B19244  24.208  42.336   8.253
 6313POPC   C3B19245  24.254  42.337   7.953
 6313POPC   C4B19246  24.198  42.302   7.653
 6314POPC   NC319247  43.888  43.919   9.453
 6314POPC   PO419248  43.871  43.872   9.153
 6314POPC   GL119249  43.898  43.848   8.853
 6314POPC   GL219250  44.021  43.951   8.853
 6314POPC   C1A19251  43.850  43.887   8.553
 6314POPC   D2A19252  43.932  43.872   8.253
 6314POPC   C3A19253  43.931  43.845   7.953
 6314POPC   C4A19254  43.898  43.897   7.653
 6314POPC   C1B19255  44.050  44.072   8.553
 6314POPC   C2B19256  44.023  44.095   8.253
 6314POPC   C3B19257  44.068  44.028   7.953
 6314POPC   C4B19258  44.083  44.082   7.653
 6315POPC   NC319259  26.832  32.285   9.453
 6315POPC   PO419260  26.823  32.264   9.153
 6315POPC   GL119261  26.857  32.218   8.853
 6315POPC   GL219262  26.854  32.329   8.853
 6315POPC   C1A19263  26.785  32.289   8.553
 6315POPC   D2A19264  26.820  32.236   8.253
 6315POPC   C3A19265  26.838  32.243   7.953
 6315POPC   C4A19266  26.769  32.211   7.653
 6315POPC   C1B19267  26.917  32.485   8.553
 6315POPC   C2B19268  26.852  32.460   8.253
 6315POPC   C3B19269  26.860  32.493   7.953
 6315POPC   C4B19270  26.896  32.520   7.653
 6316POPC   NC319271   4.322  36.891   9.453
 6316POPC   PO419272   4.350  36.862   9.153
 6316POPC   GL119273   4.291  36.899   8.853
 6316POPC   GL219274   4.289  37.004   8.853
 6316POPC   C1A19275   4.291  36.910   8.553
 6316POPC   D2A19276   4.272  36.895   8.253
 6316POPC   C3A19277   4.294  36.876   7.953
 6316POPC   C4A19278   4.366  36.905   7.653
 6316POPC   C1B19279   4.298  37.155   8.553
 6316POPC   C2B19280   4.378  37.166   8.253
 6316POPC   C3B19281   4.336  37.138   7.953
 6316POPC   C4B19282   4.299  37.176   7.653
 6317POPC   NC319283  22.911  28.368   9.453
 6317POPC   PO419284  22.899  28.414   9.153
 6317POPC   GL119285  22.940  28.336   8.853
 6317POPC   GL219286  22.880  28.466   8.853
 6317POPC   C1A19287  22.976  28.328   8.553
 6317POPC   D2A19288  22.891  28.389   8.253
 6317POPC   C3A19289  22.953  28.388   7.953
 6317POPC   C4A19290  22.971  28.341   7.653
 6317POPC   C1B19291  22.917  28.587   8.553
 6317POPC   C2B19292  22.873  28.589   8.253
 6317POPC   C3B19293  22.957  28.590   7.953
 6317POPC   C4B19294  22.872  28.625   7.653
 6318POPC   NC319295   4.335  22.195   9.453
 6318POPC   PO419296   4.308  22.160   9.153
 6318POPC   GL119297   4.312  22.173   8.853
 6318POPC   GL219298   4.412  22.286   8.853
 6318POPC   C1A19299   4.274  22.116   8.553
 6318POPC   D2A19300   4.305  22.180   8.253
 6318POPC   C3A19301   4.356  22.212   7.953
 6318POPC   C4A19302   4.330  22.159   7.653
 6318POPC   C1B19303   4.491  22.320   8.553
 6318POPC   C2B19304   4.447  22.387   8.253
 6318POPC   C3B19305   4.475  22.361   7.953
 6318POPC   C4B19306   4.513  22.305   7.653
 6319POPC   NC319307   0.431  13.641   9.453
 6319POPC   PO419308   0.481  13.620   9.153
 6319POPC   GL119309   0.391  13.654   8.853
 6319POPC   GL219310   0.436  13.466   8.853
 6319POPC   C1A19311   0.399  13.579   8.553
 6319POPC   D2A19312   0.486  13.665   8.253
 6319POPC   C3A19313   0.466  13.610   7.953
 6319POPC   C4A19314   0.441  13.586   7.653
 6319POPC   C1B19315   0.316  13.386   8.553
 6319POPC   C2B19316   0.321  13.404   8.253
 6319POPC   C3B19317   0.352  13.394   7.953
 6319POPC   C4B19318   0.355  13.400   7.653
 6320POPC   NC319319  20.590  15.974   9.453
 6320POPC   PO419320  20.596  15.941   9.153
 6320POPC   GL119321  20.591  15.988   8.853
 6320POPC   GL219322  20.619  15.877   8.853
 6320POPC   C1A19323  20.632  15.915   8.553
 6320POPC   D2A19324  20.603  15.959   8.253
 6320POPC   C3A19325  20.604  15.926   7.953
 6320POPC   C4A19326  20.569  15.915   7.653
 6320POPC   C1B19327  20.583  15.667   8.553
 6320POPC   C2B19328  20.627  15.713   8.253
 6320POPC   C3B19329  20.586  15.746   7.953
 6320POPC   C4B19330  20.590  15.713   7.653
 6321POPC   NC319331  26.046  36.089   9.453
 6321POPC   PO419332  26.051  36.134   9.153
 6321POPC   GL119333  26.081  36.121   8.853
 6321POPC   GL219334  26.042  36.288   8.853
 6321POPC   C1A19335  26.066  36.137   8.553
 6321POPC   D2A19336  26.060  36.127   8.253
 6321POPC   C3A19337  25.991  36.158   7.953
 6321POPC   C4A19338  26.057  36.120   7.653
 6321POPC   C1B19339  26.038  36.344   8.553
 6321POPC   C2B19340  26.009  36.370   8.253
 6321POPC   C3B19341  26.021  36.365   7.953
 6321POPC   C4B19342  26.017  36.334   7.653
 6322POPC   NC319343  23.696  12.062   9.453
 6322POPC   PO419344  23.698  12.032   9.153
 6322POPC   GL119345  23.760  12.064   8.853
 6322POPC   GL219346  23.656  11.957   8.853
 6322POPC   C1A19347  23.699  12.077   8.553
 6322POPC   D2A19348  23.666  12.040   8.253
 6322POPC   C3A19349  23.692  12.051   7.953
 6322POPC   C4A19350  23.692  12.081   7.653
 6322POPC   C1B19351  23.548  11.894   8.553
 6322POPC   C2B19352  23.551  11.838   8.253
 6322POPC   C3B19353  23.563  11.858   7.953
 6322POPC   C4B19354  23.609  11.812   7.653
 6323POPC   NC319355  39.189  15.931   9.453
 6323POPC   PO419356  39.264  15.969   9.153
 6323POPC   GL119357  39.261  15.995   8.853
 6323POPC   GL219358  39.105  15.925   8.853
 6323POPC   C1A19359  39.276  15.985   8.553
 6323POPC   D2A19360  39.240  15.982   8.253
 6323POPC   C3A19361  39.239  15.948   7.953
 6323POPC   C4A19362  39.215  15.914   7.653
 6323POPC   C1B19363  38.993  15.881   8.553
 6323POPC   C2B19364  38.998  15.916   8.253
 6323POPC   C3B19365  38.974  15.874   7.953
 6323POPC   C4B19366  38.969  15.913   7.653
 6324POPC   NC319367  43.113  11.270   9.453
 6324POPC   PO419368  43.141  11.334   9.153
 6324POPC   GL119369  43.129  11.317   8.853
 6324POPC   GL219370  43.171  11.208   8.853
 6324POPC   C1A19371  43.155  11.319   8.553
 6324POPC   D2A19372  43.149  11.273   8.253
 6324POPC   C3A19373  43.132  11.320   7.953
 6324POPC   C4A19374  43.134  11.250   7.653
 6324POPC   C1B19375  43.117  11.102   8.553
 6324POPC   C2B19376  43.122  11.092   8.253
 6324POPC   C3B19377  43.167  11.077   7.953
 6324POPC   C4B19378  43.161  11.011   7.653
 6325POPC   NC319379  19.098  20.569   9.453
 6325POPC   PO419380  19.084  20.645   9.153
 6325POPC   GL119381  19.096  20.622   8.853
 6325POPC   GL219382  19.183  20.561   8.853
 6325POPC   C1A19383  19.054  20.601   8.553
 6325POPC   D2A19384  19.039  20.601   8.253
 6325POPC   C3A19385  19.080  20.607   7.953
 6325POPC   C4A19386  19.062  20.649   7.653
 6325POPC   C1B19387  19.254  20.436   8.553
 6325POPC   C2B19388  19.181  20.396   8.253
 6325POPC   C3B19389  19.202  20.412   7.953
 6325POPC   C4B19390  19.254  20.417   7.653
 6326POPC   NC319391  10.499   4.360   9.453
 6326POPC   PO419392  10.545   4.360   9.153
 6326POPC   GL119393  10.544   4.304   8.853
 6326POPC   GL219394  10.541   4.161   8.853
 6326POPC   C1A19395  10.505   4.351   8.553
 6326POPC   D2A19396  10.568   4.334   8.253
 6326POPC   C3A19397  10.572   4.305   7.953
 6326POPC   C4A19398  10.548   4.279   7.653
 6326POPC   C1B19399  10.516   4.070   8.553
 6326POPC   C2B19400  10.462   4.113   8.253
 6326POPC   C3B19401  10.469   4.028   7.953
 6326POPC   C4B19402  10.486   4.099   7.653
 6327POPC   NC319403  29.893  25.248   9.453
 6327POPC   PO419404  29.876  25.284   9.153
 6327POPC   GL119405  29.883  25.227   8.853
 6327POPC   GL219406  29.895  25.413   8.853
 6327POPC   C1A19407  29.873  25.273   8.553
 6327POPC   D2A19408  29.900  25.250   8.253
 6327POPC   C3A19409  29.914  25.305   7.953
 6327POPC   C4A19410  29.940  25.292   7.653
 6327POPC   C1B19411  29.942  25.508   8.553
 6327POPC   C2B19412  29.922  25.521   8.253
 6327POPC   C3B19413  29.883  25.477   7.953
 6327POPC   C4B19414  29.926  25.533   7.653
 6328POPC   NC319415   5.123  43.094   9.453
 6328POPC   PO419416   5.103  43.105   9.153
 6328POPC   GL119417   5.097  43.068   8.853
 6328POPC   GL219418   5.180  42.950   8.853
 6328POPC   C1A19419   5.085  43.094   8.553
 6328POPC   D2A19420   5.093  43.116   8.253
 6328POPC   C3A19421   5.088  43.086   7.953
 6328POPC   C4A19422   5.055  43.080   7.653
 6328POPC   C1B19423   5.153  42.879   8.553
 6328POPC   C2B19424   5.124  42.844   8.253
 6328POPC   C3B19425   5.129  42.900   7.953
 6328POPC   C4B19426   5.136  42.900   7.653
 6329POPC   NC319427  19.068   9.772   9.453
 6329POPC   PO419428  19.018   9.770   9.153
 6329POPC   GL119429  19.037   9.733   8.853
 6329POPC   GL219430  18.935   9.644   8.853
 6329POPC   C1A19431  19.029   9.734   8.553
 6329POPC   D2A19432  19.105   9.702   8.253
 6329POPC   C3A19433  19.095   9.730   7.953
 6329POPC   C4A19434  19.046   9.753   7.653
 6329POPC   C1B19435  18.811   9.639   8.553
 6329POPC   C2B19436  18.845   9.658   8.253
 6329POPC   C3B19437  18.825   9.631   7.953
 6329POPC   C4B19438  18.862   9.619   7.653
 6330POPC   NC319439  22.118  20.647   9.453
 6330POPC   PO419440  22.125  20.576   9.153
 6330POPC   GL119441  22.140  20.631   8.853
 6330POPC   GL219442  22.244  20.746   8.853
 6330POPC   C1A19443  22.127  20.609   8.553
 6330POPC   D2A19444  22.176  20.637   8.253
 6330POPC   C3A19445  22.158  20.635   7.953
 6330POPC   C4A19446  22.208  20.659   7.653
 6330POPC   C1B19447  22.242  20.850   8.553
 6330POPC   C2B19448  22.245  20.843   8.253
 6330POPC   C3B19449  22.274  20.817   7.953
 6330POPC   C4B19450  22.246  20.783   7.653
 6331POPC   NC319451  12.057  31.486   9.453
 6331POPC   PO419452  12.069  31.471   9.153
 6331POPC   GL119453  12.102  31.447   8.853
 6331POPC   GL219454  12.225  31.524   8.853
 6331POPC   C1A19455  12.099  31.455   8.553
 6331POPC   D2A19456  12.065  31.431   8.253
 6331POPC   C3A19457  12.035  31.455   7.953
 6331POPC   C4A19458  12.040  31.472   7.653
 6331POPC   C1B19459  12.302  31.559   8.553
 6331POPC   C2B19460  12.334  31.569   8.253
 6331POPC   C3B19461  12.316  31.560   7.953
 6331POPC   C4B19462  12.316  31.542   7.653
 6332POPC   NC319463  34.548  12.057   9.453
 6332POPC   PO419464  34.575  12.033   9.153
 6332POPC   GL119465  34.562  12.095   8.853
 6332POPC   GL219466  34.718  12.164   8.853
 6332POPC   C1A19467  34.569  12.116   8.553
 6332POPC   D2A19468  34.543  12.105   8.253
 6332POPC   C3A19469  34.581  12.104   7.953
 6332POPC   C4A19470  34.557  12.084   7.653
 6332POPC   C1B19471  34.747  12.188   8.553
 6332POPC   C2B19472  34.783  12.198   8.253
 6332POPC   C3B19473  34.793  12.211   7.953
 6332POPC   C4B19474  34.809  12.258   7.653
 6333POPC   NC319475  27.624  28.381   9.453
 6333POPC   PO419476  27.598  28.332   9.153
 6333POPC   GL119477  27.579  28.410   8.853
 6333POPC   GL219478  27.646  28.289   8.853
 6333POPC   C1A19479  27.595  28.393   8.553
 6333POPC   D2A19480  27.641  28.368   8.253
 6333POPC   C3A19481  27.555  28.394   7.953
 6333POPC   C4A19482  27.634  28.418   7.653
 6333POPC   C1B19483  27.750  28.211   8.553
 6333POPC   C2B19484  27.798  28.184   8.253
 6333POPC   C3B19485  27.752  28.217   7.953
 6333POPC   C4B19486  27.733  28.192   7.653
 6334POPC   NC319487  44.691   1.254   9.453
 6334POPC   PO419488  44.668   1.234   9.153
 6334POPC   GL119489  44.659   1.249   8.853
 6334POPC   GL219490  44.604   1.331   8.853
 6334POPC   C1A19491  44.621   1.248   8.553
 6334POPC   D2A19492  44.703   1.236   8.253
 6334POPC   C3A19493  44.623   1.202   7.953
 6334POPC   C4A19494  44.616   1.241   7.653
 6334POPC   C1B19495  44.430   1.398   8.553
 6334POPC   C2B19496  44.458   1.335   8.253
 6334POPC   C3B19497  44.481   1.311   7.953
 6334POPC   C4B19498  44.461   1.398   7.653
 6335POPC   NC319499   5.056  17.535   9.453
 6335POPC   PO419500   5.124  17.510   9.153
 6335POPC   GL119501   5.050  17.553   8.853
 6335POPC   GL219502   5.173  17.403   8.853
 6335POPC   C1A19503   5.105  17.519   8.553
 6335POPC   D2A19504   5.138  17.545   8.253
 6335POPC   C3A19505   5.099  17.552   7.953
 6335POPC   C4A19506   5.102  17.551   7.653
 6335POPC   C1B19507   5.342  17.409   8.553
 6335POPC   C2B19508   5.290  17.394   8.253
 6335POPC   C3B19509   5.288  17.358   7.953
 6335POPC   C4B19510   5.299  17.421   7.653
 6336POPC   NC319511  40.752  28.384   9.453
 6336POPC   PO419512  40.765  28.347   9.153
 6336POPC   GL119513  40.759  28.400   8.853
 6336POPC   GL219514  40.850  28.448   8.853
 6336POPC   C1A19515  40.743  28.360   8.553
 6336POPC   D2A19516  40.751  28.356   8.253
 6336POPC   C3A19517  40.773  28.386   7.953
 6336POPC   C4A19518  40.779  28.335   7.653
 6336POPC   C1B19519  40.928  28.612   8.553
 6336POPC   C2B19520  40.934  28.624   8.253
 6336POPC   C3B19521  40.847  28.642   7.953
 6336POPC   C4B19522  40.862  28.557   7.653
 6337POPC   NC319523  29.934  11.337   9.453
 6337POPC   PO419524  29.933  11.282   9.153
 6337POPC   GL119525  29.884  11.268   8.853
 6337POPC   GL219526  29.959  11.202   8.853
 6337POPC   C1A19527  29.907  11.304   8.553
 6337POPC   D2A19528  29.906  11.297   8.253
 6337POPC   C3A19529  29.893  11.348   7.953
 6337POPC   C4A19530  29.892  11.292   7.653
 6337POPC   C1B19531  29.942  11.079   8.553
 6337POPC   C2B19532  29.917  11.098   8.253
 6337POPC   C3B19533  29.919  11.003   7.953
 6337POPC   C4B19534  29.893  11.099   7.653
 6338POPC   NC319535  21.380  37.667   9.453
 6338POPC   PO419536  21.356  37.689   9.153
 6338POPC   GL119537  21.378  37.634   8.853
 6338POPC   GL219538  21.303  37.747   8.853
 6338POPC   C1A19539  21.430  37.653   8.553
 6338POPC   D2A19540  21.337  37.677   8.253
 6338POPC   C3A19541  21.367  37.710   7.953
 6338POPC   C4A19542  21.416  37.714   7.653
 6338POPC   C1B19543  21.117  37.744   8.553
 6338POPC   C2B19544  21.131  37.745   8.253
 6338POPC   C3B19545  21.115  37.782   7.953
 6338POPC   C4B19546  21.103  37.717   7.653
 6339POPC   NC319547  34.554  31.447   9.453
 6339POPC   PO419548  34.561  31.448   9.153
 6339POPC   GL119549  34.557  31.430   8.853
 6339POPC   GL219550  34.636  31.617   8.853
 6339POPC   C1A19551  34.605  31.481   8.553
 6339POPC   D2A19552  34.612  31.444   8.253
 6339POPC   C3A19553  34.601  31.495   7.953
 6339POPC   C4A19554  34.532  31.515   7.653
 6339POPC   C1B19555  34.561  31.687   8.553
 6339POPC   C2B19556  34.577  31.696   8.253
 6339POPC   C3B19557  34.625  31.691   7.953
 6339POPC   C4B19558  34.606  31.721   7.653
 6340POPC   NC319559  11.338  11.275   9.453
 6340POPC   PO419560  11.272  11.254   9.153
 6340POPC   GL119561  11.300  11.344   8.853
 6340POPC   GL219562  11.288  11.173   8.853
 6340POPC   C1A19563  11.274  11.262   8.553
 6340POPC   D2A19564  11.332  11.256   8.253
 6340POPC   C3A19565  11.337  11.321   7.953
 6340POPC   C4A19566  11.343  11.306   7.653
 6340POPC   C1B19567  11.329  11.088   8.553
 6340POPC   C2B19568  11.402  11.074   8.253
 6340POPC   C3B19569  11.342  11.027   7.953
 6340POPC   C4B19570  11.376  11.020   7.653
 6341POPC   NC319571  28.416   1.942   9.453
 6341POPC   PO419572  28.407   1.969   9.153
 6341POPC   GL119573  28.351   2.027   8.853
 6341POPC   GL219574  28.353   2.102   8.853
 6341POPC   C1A19575  28.386   1.989   8.553
 6341POPC   D2A19576  28.416   1.951   8.253
 6341POPC   C3A19577  28.320   1.993   7.953
 6341POPC   C4A19578  28.372   2.025   7.653
 6341POPC   C1B19579  28.447   2.233   8.553
 6341POPC   C2B19580  28.379   2.215   8.253
 6341POPC   C3B19581  28.432   2.186   7.953
 6341POPC   C4B19582  28.396   2.258   7.653
 6342POPC   NC319583   8.180  18.303   9.453
 6342POPC   PO419584   8.227  18.256   9.153
 6342POPC   GL119585   8.173  18.275   8.853
 6342POPC   GL219586   8.220  18.367   8.853
 6342POPC   C1A19587   8.239  18.300   8.553
 6342POPC   D2A19588   8.226  18.290   8.253
 6342POPC   C3A19589   8.245  18.242   7.953
 6342POPC   C4A19590   8.222  18.237   7.653
 6342POPC   C1B19591   8.258  18.552   8.553
 6342POPC   C2B19592   8.324  18.570   8.253
 6342POPC   C3B19593   8.274  18.490   7.953
 6342POPC   C4B19594   8.268  18.531   7.653
 6343POPC   NC319595  29.158  36.947   9.453
 6343POPC   PO419596  29.157  36.862   9.153
 6343POPC   GL119597  29.145  36.920   8.853
 6343POPC   GL219598  29.021  36.918   8.853
 6343POPC   C1A19599  29.183  36.870   8.553
 6343POPC   D2A19600  29.116  36.924   8.253
 6343POPC   C3A19601  29.170  36.871   7.953
 6343POPC   C4A19602  29.115  36.940   7.653
 6343POPC   C1B19603  28.872  36.813   8.553
 6343POPC   C2B19604  28.906  36.829   8.253
 6343POPC   C3B19605  28.918  36.895   7.953
 6343POPC   C4B19606  28.876  36.839   7.653
 6344POPC   NC319607  32.199  22.164   9.453
 6344POPC   PO419608  32.250  22.154   9.153
 6344POPC   GL119609  32.250  22.125   8.853
 6344POPC   GL219610  32.395  22.162   8.853
 6344POPC   C1A19611  32.285  22.151   8.553
 6344POPC   D2A19612  32.268  22.211   8.253
 6344POPC   C3A19613  32.294  22.173   7.953
 6344POPC   C4A19614  32.263  22.118   7.653
 6344POPC   C1B19615  32.475  22.176   8.553
 6344POPC   C2B19616  32.538  22.218   8.253
 6344POPC   C3B19617  32.530  22.199   7.953
 6344POPC   C4B19618  32.464  22.227   7.653
 6345POPC   NC319619   2.730  26.788   9.453
 6345POPC   PO419620   2.797  26.839   9.153
 6345POPC   GL119621   2.812  26.839   8.853
 6345POPC   GL219622   2.920  26.806   8.853
 6345POPC   C1A19623   2.754  26.862   8.553
 6345POPC   D2A19624   2.727  26.787   8.253
 6345POPC   C3A19625   2.805  26.855   7.953
 6345POPC   C4A19626   2.757  26.863   7.653
 6345POPC   C1B19627   2.985  26.867   8.553
 6345POPC   C2B19628   2.974  26.869   8.253
 6345POPC   C3B19629   3.043  26.896   7.953
 6345POPC   C4B19630   2.993  26.848   7.653
 6346POPC   NC319631  44.696  22.116   9.453
 6346POPC   PO419632  44.677  22.205   9.153
 6346POPC   GL119633  44.645  22.119   8.853
 6346POPC   GL219634  44.746  22.131   8.853
 6346POPC   C1A19635  44.613  22.170   8.553
 6346POPC   D2A19636  44.668  22.130   8.253
 6346POPC   C3A19637  44.617  22.146   7.953
 6346POPC   C4A19638  44.649  22.138   7.653
 6346POPC   C1B19639  44.914  21.989   8.553
 6346POPC   C2B19640  44.919  22.020   8.253
 6346POPC   C3B19641  44.838  22.024   7.953
 6346POPC   C4B19642  44.833  22.069   7.653
 6347POPC   NC319643  20.633  39.265   9.453
 6347POPC   PO419644  20.648  39.184   9.153
 6347POPC   GL119645  20.622  39.197   8.853
 6347POPC   GL219646  20.475  39.134   8.853
 6347POPC   C1A19647  20.659  39.220   8.553
 6347POPC   D2A19648  20.646  39.222   8.253
 6347POPC   C3A19649  20.603  39.230   7.953
 6347POPC   C4A19650  20.615  39.182   7.653
 6347POPC   C1B19651  20.470  39.104   8.553
 6347POPC   C2B19652  20.378  39.106   8.253
 6347POPC   C3B19653  20.410  39.022   7.953
 6347POPC   C4B19654  20.440  39.048   7.653
 6348POPC   NC319655  33.031   3.554   9.453
 6348POPC   PO419656  33.041   3.535   9.153
 6348POPC   GL119657  33.027   3.505   8.853
 6348POPC   GL219658  32.915   3.550   8.853
 6348POPC   C1A19659  33.032   3.557   8.553
 6348POPC   D2A19660  33.047   3.528   8.253
 6348POPC   C3A19661  33.033   3.544   7.953
 6348POPC   C4A19662  32.980   3.493   7.653
 6348POPC   C1B19663  32.772   3.637   8.553
 6348POPC   C2B19664  32.793   3.636   8.253
 6348POPC   C3B19665  32.788   3.680   7.953
 6348POPC   C4B19666  32.801   3.664   7.653
 6349POPC   NC319667  35.344  33.797   9.453
 6349POPC   PO419668  35.315  33.765   9.153
 6349POPC   GL119669  35.347  33.776   8.853
 6349POPC   GL219670  35.429  33.657   8.853
 6349POPC   C1A19671  35.369  33.783   8.553
 6349POPC   D2A19672  35.337  33.786   8.253
 6349POPC   C3A19673  35.317  33.848   7.953
 6349POPC   C4A19674  35.385  33.801   7.653
 6349POPC   C1B19675  35.431  33.597   8.553
 6349POPC   C2B19676  35.408  33.533   8.253
 6349POPC   C3B19677  35.406  33.519   7.953
 6349POPC   C4B19678  35.403  33.603   7.653
 6350POPC   NC319679  24.520  37.633   9.453
 6350POPC   PO419680  24.530  37.699   9.153
 6350POPC   GL119681  24.459  37.656   8.853
 6350POPC   GL219682  24.340  37.665   8.853
 6350POPC   C1A19683  24.465  37.690   8.553
 6350POPC   D2A19684  24.466  37.632   8.253
 6350POPC   C3A19685  24.492  37.701   7.953
 6350POPC   C4A19686  24.442  37.656   7.653
 6350POPC   C1B19687  24.205  37.648   8.553
 6350POPC   C2B19688  24.274  37.707   8.253
 6350POPC   C3B19689  24.225  37.680   7.953
 6350POPC   C4B19690  24.274  37.698   7.653
 6351POPC   NC319691   7.432  19.091   9.453
 6351POPC   PO419692   7.447  19.094   9.153
 6351POPC   GL119693   7.461  19.105   8.853
 6351POPC   GL219694   7.528  19.019   8.853
 6351POPC   C1A19695   7.422  19.016   8.553
 6351POPC   D2A19696   7.446  19.095   8.253
 6351POPC   C3A19697   7.467  19.095   7.953
 6351POPC   C4A19698   7.377  19.048   7.653
 6351POPC   C1B19699   7.592  18.897   8.553
 6351POPC   C2B19700   7.669  18.913   8.253
 6351POPC   C3B19701   7.664  18.953   7.953
 6351POPC   C4B19702   7.609  18.893   7.653
 6352POPC   NC319703  44.640  11.264   9.453
 6352POPC   PO419704  44.656  11.312   9.153
 6352POPC   GL119705  44.631  11.347   8.853
 6352POPC   GL219706  44.552  11.394   8.853
 6352POPC   C1A19707  44.681  11.283   8.553
 6352POPC   D2A19708  44.663  11.314   8.253
 6352POPC   C3A19709  44.687  11.334   7.953
 6352POPC   C4A19710  44.625  11.291   7.653
 6352POPC   C1B19711  44.486  11.535   8.553
 6352POPC   C2B19712  44.534  11.558   8.253
 6352POPC   C3B19713  44.534  11.516   7.953
 6352POPC   C4B19714  44.516  11.521   7.653
 6353POPC   NC319715  16.757   0.443   9.453
 6353POPC   PO419716  16.717   0.424   9.153
 6353POPC   GL119717  16.703   0.445   8.853
 6353POPC   GL219718  16.754   0.290   8.853
 6353POPC   C1A19719  16.768   0.468   8.553
 6353POPC   D2A19720  16.709   0.394   8.253
 6353POPC   C3A19721  16.702   0.442   7.953
 6353POPC   C4A19722  16.774   0.438   7.653
 6353POPC   C1B19723  16.883   0.219   8.553
 6353POPC   C2B19724  16.816   0.180   8.253
 6353POPC   C3B19725  16.877   0.180   7.953
 6353POPC   C4B19726  16.850   0.244   7.653
 6354POPC   NC319727   7.451  27.566   9.453
 6354POPC   PO419728   7.398  27.572   9.153
 6354POPC   GL119729   7.462  27.558   8.853
 6354POPC   GL219730   7.254  27.511   8.853
 6354POPC   C1A19731   7.442  27.563   8.553
 6354POPC   D2A19732   7.434  27.584   8.253
 6354POPC   C3A19733   7.407  27.577   7.953
 6354POPC   C4A19734   7.424  27.579   7.653
 6354POPC   C1B19735   7.200  27.512   8.553
 6354POPC   C2B19736   7.186  27.484   8.253
 6354POPC   C3B19737   7.217  27.495   7.953
 6354POPC   C4B19738   7.233  27.531   7.653
 6355POPC   NC319739   7.454  19.835   9.453
 6355POPC   PO419740   7.443  19.817   9.153
 6355POPC   GL119741   7.410  19.805   8.853
 6355POPC   GL219742   7.319  19.866   8.853
 6355POPC   C1A19743   7.419  19.857   8.553
 6355POPC   D2A19744   7.394  19.826   8.253
 6355POPC   C3A19745   7.445  19.836   7.953
 6355POPC   C4A19746   7.390  19.829   7.653
 6355POPC   C1B19747   7.164  19.837   8.553
 6355POPC   C2B19748   7.160  19.879   8.253
 6355POPC   C3B19749   7.140  19.805   7.953
 6355POPC   C4B19750   7.155  19.850   7.653
 6356POPC   NC319751   0.423   2.733   9.453
 6356POPC   PO419752   0.445   2.768   9.153
 6356POPC   GL119753   0.433   2.807   8.853
 6356POPC   GL219754   0.503   2.842   8.853
 6356POPC   C1A19755   0.488   2.733   8.553
 6356POPC   D2A19756   0.433   2.780   8.253
 6356POPC   C3A19757   0.414   2.755   7.953
 6356POPC   C4A19758   0.392   2.749   7.653
 6356POPC   C1B19759   0.436   3.034   8.553
 6356POPC   C2B19760   0.481   2.979   8.253
 6356POPC   C3B19761   0.442   3.009   7.953
 6356POPC   C4B19762   0.519   3.047   7.653
 6357POPC   NC319763  36.168  42.363   9.453
 6357POPC   PO419764  36.089  42.299   9.153
 6357POPC   GL119765  36.135  42.325   8.853
 6357POPC   GL219766  36.099  42.244   8.853
 6357POPC   C1A19767  36.113  42.339   8.553
 6357POPC   D2A19768  36.084  42.309   8.253
 6357POPC   C3A19769  36.137  42.318   7.953
 6357POPC   C4A19770  36.119  42.383   7.653
 6357POPC   C1B19771  36.197  42.117   8.553
 6357POPC   C2B19772  36.151  42.116   8.253
 6357POPC   C3B19773  36.158  42.109   7.953
 6357POPC   C4B19774  36.132  42.067   7.653
 6358POPC   NC319775  27.552  24.534   9.453
 6358POPC   PO419776  27.619  24.537   9.153
 6358POPC   GL119777  27.615  24.508   8.853
 6358POPC   GL219778  27.431  24.527   8.853
 6358POPC   C1A19779  27.571  24.505   8.553
 6358POPC   D2A19780  27.550  24.451   8.253
 6358POPC   C3A19781  27.590  24.485   7.953
 6358POPC   C4A19782  27.636  24.466   7.653
 6358POPC   C1B19783  27.298  24.518   8.553
 6358POPC   C2B19784  27.347  24.578   8.253
 6358POPC   C3B19785  27.320  24.498   7.953
 6358POPC   C4B19786  27.397  24.583   7.653
 6359POPC   NC319787  44.640  29.911   9.453
 6359POPC   PO419788  44.638  29.931   9.153
 6359POPC   GL119789  44.626  29.941   8.853
 6359POPC   GL219790  44.607  30.031   8.853
 6359POPC   C1A19791  44.674  29.953   8.553
 6359POPC   D2A19792  44.622  29.904   8.253
 6359POPC   C3A19793  44.681  29.891   7.953
 6359POPC   C4A19794  44.671  29.871   7.653
 6359POPC   C1B19795  44.584  30.209   8.553
 6359POPC   C2B19796  44.558  30.115   8.253
 6359POPC   C3B19797  44.586  30.132   7.953
 6359POPC   C4B19798  44.577  30.188   7.653
 6360POPC   NC319799  42.343  15.173   9.453
 6360POPC   PO419800  42.339  15.208   9.153
 6360POPC   GL119801  42.343  15.228   8.853
 6360POPC   GL219802  42.290  15.050   8.853
 6360POPC   C1A19803  42.374  15.173   8.553
 6360POPC   D2A19804  42.342  15.221   8.253
 6360POPC   C3A19805  42.351  15.135   7.953
 6360POPC   C4A19806  42.313  15.159   7.653
 6360POPC   C1B19807  42.317  14.932   8.553
 6360POPC   C2B19808  42.278  14.907   8.253
 6360POPC   C3B19809  42.299  14.901   7.953
 6360POPC   C4B19810  42.348  14.938   7.653
 6361POPC   NC319811   8.234  19.805   9.453
 6361POPC   PO419812   8.177  19.876   9.153
 6361POPC   GL119813   8.150  19.835   8.853
 6361POPC   GL219814   8.098  19.754   8.853
 6361POPC   C1A19815   8.168  19.879   8.553
 6361POPC   D2A19816   8.147  19.844   8.253
 6361POPC   C3A19817   8.223  19.868   7.953
 6361POPC   C4A19818   8.221  19.874   7.653
 6361POPC   C1B19819   7.981  19.684   8.553
 6361POPC   C2B19820   7.957  19.643   8.253
 6361POPC   C3B19821   7.969  19.695   7.953
 6361POPC   C4B19822   7.948  19.716   7.653
 6362POPC   NC319823  16.765   7.452   9.453
 6362POPC   PO419824  16.771   7.442   9.153
 6362POPC   GL119825  16.761   7.398   8.853
 6362POPC   GL219826  16.683   7.564   8.853
 6362POPC   C1A19827  16.748   7.393   8.553
 6362POPC   D2A19828  16.778   7.394   8.253
 6362POPC   C3A19829  16.717   7.459   7.953
 6362POPC   C4A19830  16.765   7.411   7.653
 6362POPC   C1B19831  16.673   7.664   8.553
 6362POPC   C2B19832  16.640   7.631   8.253
 6362POPC   C3B19833  16.692   7.674   7.953
 6362POPC   C4B19834  16.617   7.641   7.653
 6363POPC   NC319835  44.653  32.991   9.453
 6363POPC   PO419836  44.629  33.037   9.153
 6363POPC   GL119837  44.660  33.046   8.853
 6363POPC   GL219838  44.626  33.179   8.853
 6363POPC   C1A19839  44.632  33.072   8.553
 6363POPC   D2A19840  44.627  32.987   8.253
 6363POPC   C3A19841  44.705  33.049   7.953
 6363POPC   C4A19842  44.698  33.064   7.653
 6363POPC   C1B19843  44.575  33.277   8.553
 6363POPC   C2B19844  44.589  33.287   8.253
 6363POPC   C3B19845  44.552  33.231   7.953
 6363POPC   C4B19846  44.599  33.253   7.653
 6364POPC   NC319847  25.272  29.945   9.453
 6364POPC   PO419848  25.300  29.946   9.153
 6364POPC   GL119849  25.244  29.920   8.853
 6364POPC   GL219850  25.229  30.065   8.853
 6364POPC   C1A19851  25.241  29.881   8.553
 6364POPC   D2A19852  25.220  29.908   8.253
 6364POPC   C3A19853  25.290  29.897   7.953
 6364POPC   C4A19854  25.308  29.969   7.653
 6364POPC   C1B19855  25.184  30.192   8.553
 6364POPC   C2B19856  25.273  30.215   8.253
 6364POPC   C3B19857  25.241  30.199   7.953
 6364POPC   C4B19858  25.251  30.129   7.653
 6365POPC   NC319859  30.676  12.042   9.453
 6365POPC   PO419860  30.649  12.122   9.153
 6365POPC   GL119861  30.710  12.091   8.853
 6365POPC   GL219862  30.788  12.143   8.853
 6365POPC   C1A19863  30.722  12.116   8.553
 6365POPC   D2A19864  30.680  12.110   8.253
 6365POPC   C3A19865  30.722  12.064   7.953
 6365POPC   C4A19866  30.701  12.069   7.653
 6365POPC   C1B19867  30.901  12.213   8.553
 6365POPC   C2B19868  30.911  12.195   8.253
 6365POPC   C3B19869  30.937  12.188   7.953
 6365POPC   C4B19870  30.907  12.200   7.653
 6366POPC   NC319871  32.209  21.422   9.453
 6366POPC   PO419872  32.206  21.424   9.153
 6366POPC   GL119873  32.223  21.407   8.853
 6366POPC   GL219874  32.289  21.228   8.853
 6366POPC   C1A19875  32.220  21.405   8.553
 6366POPC   D2A19876  32.295  21.374   8.253
 6366POPC   C3A19877  32.248  21.418   7.953
 6366POPC   C4A19878  32.214  21.429   7.653
 6366POPC   C1B19879  32.301  21.158   8.553
 6366POPC   C2B19880  32.279  21.148   8.253
 6366POPC   C3B19881  32.245  21.161   7.953
 6366POPC   C4B19882  32.242  21.151   7.653
 6367POPC   NC319883  29.928   5.112   9.453
 6367POPC   PO419884  29.933   5.136   9.153
 6367POPC   GL119885  29.909   5.121   8.853
 6367POPC   GL219886  29.827   5.130   8.853
 6367POPC   C1A19887  29.934   5.058   8.553
 6367POPC   D2A19888  29.969   5.108   8.253
 6367POPC   C3A19889  29.942   5.114   7.953
 6367POPC   C4A19890  29.958   5.055   7.653
 6367POPC   C1B19891  29.699   5.105   8.553
 6367POPC   C2B19892  29.627   5.090   8.253
 6367POPC   C3B19893  29.667   5.110   7.953
 6367POPC   C4B19894  29.645   5.146   7.653
 6368POPC   NC319895   3.519  12.841   9.453
 6368POPC   PO419896   3.518  12.849   9.153
 6368POPC   GL119897   3.513  12.869   8.853
 6368POPC   GL219898   3.461  12.736   8.853
 6368POPC   C1A19899   3.517  12.806   8.553
 6368POPC   D2A19900   3.571  12.809   8.253
 6368POPC   C3A19901   3.548  12.894   7.953
 6368POPC   C4A19902   3.583  12.884   7.653
 6368POPC   C1B19903   3.398  12.659   8.553
 6368POPC   C2B19904   3.417  12.641   8.253
 6368POPC   C3B19905   3.473  12.663   7.953
 6368POPC   C4B19906   3.377  12.634   7.653
 6369POPC   NC319907  30.721  29.909   9.453
 6369POPC   PO419908  30.693  29.962   9.153
 6369POPC   GL119909  30.714  29.969   8.853
 6369POPC   GL219910  30.777  29.904   8.853
 6369POPC   C1A19911  30.722  29.921   8.553
 6369POPC   D2A19912  30.746  29.917   8.253
 6369POPC   C3A19913  30.723  29.969   7.953
 6369POPC   C4A19914  30.653  29.912   7.653
 6369POPC   C1B19915  30.923  29.816   8.553
 6369POPC   C2B19916  30.909  29.800   8.253
 6369POPC   C3B19917  30.894  29.830   7.953
 6369POPC   C4B19918  30.948  29.808   7.653
 6370POPC   NC319919  43.134  30.686   9.453
 6370POPC   PO419920  43.126  30.688   9.153
 6370POPC   GL119921  43.152  30.735   8.853
 6370POPC   GL219922  43.141  30.592   8.853
 6370POPC   C1A19923  43.085  30.651   8.553
 6370POPC   D2A19924  43.120  30.727   8.253
 6370POPC   C3A19925  43.144  30.720   7.953
 6370POPC   C4A19926  43.097  30.723   7.653
 6370POPC   C1B19927  43.206  30.472   8.553
 6370POPC   C2B19928  43.236  30.466   8.253
 6370POPC   C3B19929  43.201  30.436   7.953
 6370POPC   C4B19930  43.224  30.497   7.653
 6371POPC   NC319931  33.815  41.586   9.453
 6371POPC   PO419932  33.785  41.540   9.153
 6371POPC   GL119933  33.823  41.556   8.853
 6371POPC   GL219934  33.786  41.666   8.853
 6371POPC   C1A19935  33.803  41.523   8.553
 6371POPC   D2A19936  33.805  41.567   8.253
 6371POPC   C3A19937  33.768  41.597   7.953
 6371POPC   C4A19938  33.777  41.522   7.653
 6371POPC   C1B19939  33.749  41.762   8.553
 6371POPC   C2B19940  33.788  41.830   8.253
 6371POPC   C3B19941  33.807  41.823   7.953
 6371POPC   C4B19942  33.744  41.835   7.653
 6372POPC   NC319943  17.522  40.048   9.453
 6372POPC   PO419944  17.472  39.992   9.153
 6372POPC   GL119945  17.529  40.022   8.853
 6372POPC   GL219946  17.590  40.030   8.853
 6372POPC   C1A19947  17.507  40.004   8.553
 6372POPC   D2A19948  17.528  40.035   8.253
 6372POPC   C3A19949  17.522  39.992   7.953
 6372POPC   C4A19950  17.535  40.056   7.653
 6372POPC   C1B19951  17.747  40.178   8.553
 6372POPC   C2B19952  17.730  40.148   8.253
 6372POPC   C3B19953  17.684  40.147   7.953
 6372POPC   C4B19954  17.715  40.158   7.653
 6373POPC   NC319955  16.696   1.983   9.453
 6373POPC   PO419956  16.687   2.039   9.153
 6373POPC   GL119957  16.766   1.989   8.853
 6373POPC   GL219958  16.860   2.020   8.853
 6373POPC   C1A19959  16.717   2.001   8.553
 6373POPC   D2A19960  16.749   1.980   8.253
 6373POPC   C3A19961  16.763   2.017   7.953
 6373POPC   C4A19962  16.712   2.006   7.653
 6373POPC   C1B19963  16.948   2.140   8.553
 6373POPC   C2B19964  16.955   2.137   8.253
 6373POPC   C3B19965  16.947   2.173   7.953
 6373POPC   C4B19966  16.942   2.117   7.653
 6374POPC   NC319967  32.978  29.913   9.453
 6374POPC   PO419968  33.043  29.904   9.153
 6374POPC   GL119969  33.034  29.871   8.853
 6374POPC   GL219970  33.010  29.833   8.853
 6374POPC   C1A19971  33.009  29.931   8.553
 6374POPC   D2A19972  33.063  29.969   8.253
 6374POPC   C3A19973  33.014  29.894   7.953
 6374POPC   C4A19974  33.058  29.883   7.653
 6374POPC   C1B19975  33.094  29.661   8.553
 6374POPC   C2B19976  33.082  29.672   8.253
 6374POPC   C3B19977  33.099  29.720   7.953
 6374POPC   C4B19978  33.105  29.721   7.653
 6375POPC   NC319979   7.462  39.997   9.453
 6375POPC   PO419980   7.470  40.039   9.153
 6375POPC   GL119981   7.398  39.966   8.853
 6375POPC   GL219982   7.392  40.153   8.853
 6375POPC   C1A19983   7.395  39.987   8.553
 6375POPC   D2A19984   7.414  40.055   8.253
 6375POPC   C3A19985   7.382  39.990   7.953
 6375POPC   C4A19986   7.433  39.961   7.653
 6375POPC   C1B19987   7.260  40.168   8.553
 6375POPC   C2B19988   7.284  40.227   8.253
 6375POPC   C3B19989   7.238  40.201   7.953
 6375POPC   C4B19990   7.285  40.226   7.653
 6376POPC   NC319991  36.135  18.246   9.453
 6376POPC   PO419992  36.175  18.251   9.153
 6376POPC   GL119993  36.136  18.291   8.853
 6376POPC   GL219994  36.003  18.272   8.853
 6376POPC   C1A19995  36.105  18.329   8.553
 6376POPC   D2A19996  36.170  18.311   8.253
 6376POPC   C3A19997  36.101  18.257   7.953
 6376POPC   C4A19998  36.126  18.315   7.653
 6376POPC   C1B19999  35.863  18.408   8.553
 6376POPC   C2B20000  35.895  18.400   8.253
 6376POPC   C3B20001  35.901  18.380   7.953
 6376POPC   C4B20002  35.935  18.408   7.653
 6377POPC   NC320003   5.849   9.781   9.453
 6377POPC   PO420004   5.828   9.731   9.153
 6377POPC   GL120005   5.859   9.785   8.853
 6377POPC   GL220006   5.891   9.889   8.853
 6377POPC   C1A20007   5.820   9.750   8.553
 6377POPC   D2A20008   5.863   9.750   8.253
 6377POPC   C3A20009   5.912   9.784   7.953
 6377POPC   C4A20010   5.844   9.711   7.653
 6377POPC   C1B20011   5.862   9.968   8.553
 6377POPC   C2B20012   5.775  10.014   8.253
 6377POPC   C3B20013   5.819   9.980   7.953
 6377POPC   C4B20014   5.858   9.989   7.653
 6378POPC   NC320015   9.793  24.456   9.453
 6378POPC   PO420016   9.729  24.526   9.153
 6378POPC   GL120017   9.705  24.494   8.853
 6378POPC   GL220018   9.581  24.472   8.853
 6378POPC   C1A20019   9.779  24.528   8.553
 6378POPC   D2A20020   9.762  24.454   8.253
 6378POPC   C3A20021   9.737  24.515   7.953
 6378POPC   C4A20022   9.708  24.531   7.653
 6378POPC   C1B20023   9.551  24.594   8.553
 6378POPC   C2B20024   9.503  24.498   8.253
 6378POPC   C3B20025   9.553  24.553   7.953
 6378POPC   C4B20026   9.494  24.587   7.653
 6379POPC   NC320027  21.385   1.971   9.453
 6379POPC   PO420028  21.372   2.012   9.153
 6379POPC   GL120029  21.396   1.944   8.853
 6379POPC   GL220030  21.480   2.073   8.853
 6379POPC   C1A20031  21.390   2.034   8.553
 6379POPC   D2A20032  21.361   1.940   8.253
 6379POPC   C3A20033  21.410   1.976   7.953
 6379POPC   C4A20034  21.390   2.022   7.653
 6379POPC   C1B20035  21.482   2.231   8.553
 6379POPC   C2B20036  21.504   2.175   8.253
 6379POPC   C3B20037  21.484   2.234   7.953
 6379POPC   C4B20038  21.575   2.246   7.653
 6380POPC   NC320039   7.432  22.947   9.453
 6380POPC   PO420040   7.372  22.905   9.153
 6380POPC   GL120041   7.440  22.909   8.853
 6380POPC   GL220042   7.525  22.982   8.853
 6380POPC   C1A20043   7.425  22.924   8.553
 6380POPC   D2A20044   7.463  22.962   8.253
 6380POPC   C3A20045   7.426  22.906   7.953
 6380POPC   C4A20046   7.380  22.915   7.653
 6380POPC   C1B20047   7.651  22.986   8.553
 6380POPC   C2B20048   7.664  22.894   8.253
 6380POPC   C3B20049   7.650  22.924   7.953
 6380POPC   C4B20050   7.627  22.962   7.653
 6381POPC   NC320051  36.902  34.530   9.453
 6381POPC   PO420052  36.953  34.539   9.153
 6381POPC   GL120053  36.901  34.606   8.853
 6381POPC   GL220054  36.841  34.476   8.853
 6381POPC   C1A20055  36.947  34.612   8.553
 6381POPC   D2A20056  36.896  34.542   8.253
 6381POPC   C3A20057  36.855  34.602   7.953
 6381POPC   C4A20058  36.855  34.573   7.653
 6381POPC   C1B20059  36.787  34.320   8.553
 6381POPC   C2B20060  36.755  34.324   8.253
 6381POPC   C3B20061  36.751  34.334   7.953
 6381POPC   C4B20062  36.792  34.399   7.653
 6382POPC   NC320063  12.818  26.087   9.453
 6382POPC   PO420064  12.841  26.037   9.153
 6382POPC   GL120065  12.843  26.068   8.853
 6382POPC   GL220066  12.893  26.151   8.853
 6382POPC   C1A20067  12.803  26.054   8.553
 6382POPC   D2A20068  12.865  26.083   8.253
 6382POPC   C3A20069  12.804  26.061   7.953
 6382POPC   C4A20070  12.808  26.073   7.653
 6382POPC   C1B20071  13.000  26.221   8.553
 6382POPC   C2B20072  13.064  26.220   8.253
 6382POPC   C3B20073  13.054  26.198   7.953
 6382POPC   C4B20074  13.003  26.227   7.653
 6383POPC   NC320075  10.511  15.200   9.453
 6383POPC   PO420076  10.544  15.184   9.153
 6383POPC   GL120077  10.504  15.143   8.853
 6383POPC   GL220078  10.605  15.245   8.853
 6383POPC   C1A20079  10.533  15.223   8.553
 6383POPC   D2A20080  10.553  15.227   8.253
 6383POPC   C3A20081  10.533  15.185   7.953
 6383POPC   C4A20082  10.551  15.171   7.653
 6383POPC   C1B20083  10.678  15.381   8.553
 6383POPC   C2B20084  10.673  15.384   8.253
 6383POPC   C3B20085  10.644  15.377   7.953
 6383POPC   C4B20086  10.644  15.433   7.653
 6384POPC   NC320087   1.948  43.933   9.453
 6384POPC   PO420088   1.942  43.891   9.153
 6384POPC   GL120089   2.007  43.927   8.853
 6384POPC   GL220090   2.030  43.780   8.853
 6384POPC   C1A20091   1.953  43.890   8.553
 6384POPC   D2A20092   1.968  43.921   8.253
 6384POPC   C3A20093   1.977  43.934   7.953
 6384POPC   C4A20094   1.983  43.885   7.653
 6384POPC   C1B20095   2.073  43.605   8.553
 6384POPC   C2B20096   1.989  43.632   8.253
 6384POPC   C3B20097   2.045  43.636   7.953
 6384POPC   C4B20098   2.003  43.621   7.653
 6385POPC   NC320099   4.298  30.701   9.453
 6385POPC   PO420100   4.321  30.683   9.153
 6385POPC   GL120101   4.299  30.734   8.853
 6385POPC   GL220102   4.338  30.603   8.853
 6385POPC   C1A20103   4.323  30.669   8.553
 6385POPC   D2A20104   4.296  30.735   8.253
 6385POPC   C3A20105   4.346  30.670   7.953
 6385POPC   C4A20106   4.326  30.711   7.653
 6385POPC   C1B20107   4.464  30.499   8.553
 6385POPC   C2B20108   4.451  30.439   8.253
 6385POPC   C3B20109   4.402  30.527   7.953
 6385POPC   C4B20110   4.463  30.441   7.653
 6386POPC   NC320111  26.051  19.091   9.453
 6386POPC   PO420112  26.055  19.017   9.153
 6386POPC   GL120113  26.001  19.088   8.853
 6386POPC   GL220114  26.055  18.939   8.853
 6386POPC   C1A20115  26.043  19.106   8.553
 6386POPC   D2A20116  26.050  19.099   8.253
 6386POPC   C3A20117  26.028  19.020   7.953
 6386POPC   C4A20118  26.062  19.011   7.653
 6386POPC   C1B20119  26.024  18.816   8.553
 6386POPC   C2B20120  25.971  18.820   8.253
 6386POPC   C3B20121  25.983  18.848   7.953
 6386POPC   C4B20122  25.959  18.772   7.653
 6387POPC   NC320123  16.695  30.711   9.453
 6387POPC   PO420124  16.692  30.691   9.153
 6387POPC   GL120125  16.752  30.720   8.853
 6387POPC   GL220126  16.804  30.549   8.853
 6387POPC   C1A20127  16.728  30.682   8.553
 6387POPC   D2A20128  16.756  30.745   8.253
 6387POPC   C3A20129  16.739  30.664   7.953
 6387POPC   C4A20130  16.690  30.688   7.653
 6387POPC   C1B20131  16.830  30.461   8.553
 6387POPC   C2B20132  16.772  30.443   8.253
 6387POPC   C3B20133  16.776  30.478   7.953
 6387POPC   C4B20134  16.792  30.481   7.653
 6388POPC   NC320135  37.687  29.142   9.453
 6388POPC   PO420136  37.654  29.156   9.153
 6388POPC   GL120137  37.710  29.188   8.853
 6388POPC   GL220138  37.710  28.983   8.853
 6388POPC   C1A20139  37.637  29.178   8.553
 6388POPC   D2A20140  37.637  29.190   8.253
 6388POPC   C3A20141  37.666  29.105   7.953
 6388POPC   C4A20142  37.658  29.192   7.653
 6388POPC   C1B20143  37.696  28.921   8.553
 6388POPC   C2B20144  37.649  28.925   8.253
 6388POPC   C3B20145  37.741  28.933   7.953
 6388POPC   C4B20146  37.702  28.900   7.653
 6389POPC   NC320147  20.647  12.852   9.453
 6389POPC   PO420148  20.610  12.820   9.153
 6389POPC   GL120149  20.561  12.875   8.853
 6389POPC   GL220150  20.570  12.732   8.853
 6389POPC   C1A20151  20.610  12.802   8.553
 6389POPC   D2A20152  20.586  12.890   8.253
 6389POPC   C3A20153  20.627  12.889   7.953
 6389POPC   C4A20154  20.651  12.832   7.653
 6389POPC   C1B20155  20.545  12.624   8.553
 6389POPC   C2B20156  20.542  12.594   8.253
 6389POPC   C3B20157  20.484  12.664   7.953
 6389POPC   C4B20158  20.573  12.592   7.653
 6390POPC   NC320159   9.752  15.171   9.453
 6390POPC   PO420160   9.762  15.155   9.153
 6390POPC   GL120161   9.727  15.139   8.853
 6390POPC   GL220162   9.682  15.289   8.853
 6390POPC   C1A20163   9.778  15.225   8.553
 6390POPC   D2A20164   9.699  15.148   8.253
 6390POPC   C3A20165   9.699  15.139   7.953
 6390POPC   C4A20166   9.708  15.188   7.653
 6390POPC   C1B20167   9.651  15.373   8.553
 6390POPC   C2B20168   9.638  15.384   8.253
 6390POPC   C3B20169   9.708  15.371   7.953
 6390POPC   C4B20170   9.653  15.442   7.653
 6391POPC   NC320171  26.066  44.637   9.453
 6391POPC   PO420172  26.070  44.649   9.153
 6391POPC   GL120173  26.012  44.710   8.853
 6391POPC   GL220174  25.929  44.682   8.853
 6391POPC   C1A20175  26.033  44.632   8.553
 6391POPC   D2A20176  26.034  44.671   8.253
 6391POPC   C3A20177  26.065  44.684   7.953
 6391POPC   C4A20178  26.014  44.667   7.653
 6391POPC   C1B20179  25.808  44.700   8.553
 6391POPC   C2B20180  25.746  44.687   8.253
 6391POPC   C3B20181  25.751  44.624   7.953
 6391POPC   C4B20182  25.748  44.620   7.653
 6392POPC   NC320183  33.016  36.102   9.453
 6392POPC   PO420184  33.072  36.098   9.153
 6392POPC   GL120185  32.977  36.123   8.853
 6392POPC   GL220186  33.132  36.095   8.853
 6392POPC   C1A20187  33.029  36.168   8.553
 6392POPC   D2A20188  33.027  36.090   8.253
 6392POPC   C3A20189  32.976  36.159   7.953
 6392POPC   C4A20190  33.039  36.085   7.653
 6392POPC   C1B20191  33.298  36.072   8.553
 6392POPC   C2B20192  33.266  36.059   8.253
 6392POPC   C3B20193  33.309  36.090   7.953
 6392POPC   C4B20194  33.253  36.013   7.653
 6393POPC   NC320195  35.312   5.105   9.453
 6393POPC   PO420196  35.322   5.099   9.153
 6393POPC   GL120197  35.395   5.049   8.853
 6393POPC   GL220198  35.421   5.146   8.853
 6393POPC   C1A20199  35.385   5.131   8.553
 6393POPC   D2A20200  35.331   5.125   8.253
 6393POPC   C3A20201  35.311   5.133   7.953
 6393POPC   C4A20202  35.326   5.109   7.653
 6393POPC   C1B20203  35.549   5.273   8.553
 6393POPC   C2B20204  35.539   5.236   8.253
 6393POPC   C3B20205  35.542   5.303   7.953
 6393POPC   C4B20206  35.519   5.325   7.653
 6394POPC   NC320207  43.856   4.334   9.453
 6394POPC   PO420208  43.847   4.291   9.153
 6394POPC   GL120209  43.885   4.282   8.853
 6394POPC   GL220210  43.906   4.454   8.853
 6394POPC   C1A20211  43.931   4.332   8.553
 6394POPC   D2A20212  43.871   4.365   8.253
 6394POPC   C3A20213  43.841   4.366   7.953
 6394POPC   C4A20214  43.876   4.302   7.653
 6394POPC   C1B20215  43.989   4.560   8.553
 6394POPC   C2B20216  43.930   4.542   8.253
 6394POPC   C3B20217  43.916   4.510   7.953
 6394POPC   C4B20218  43.996   4.563   7.653
 6395POPC   NC320219  43.134   2.022   9.453
 6395POPC   PO420220  43.115   1.970   9.153
 6395POPC   GL120221  43.135   2.021   8.853
 6395POPC   GL220222  43.027   2.091   8.853
 6395POPC   C1A20223  43.094   2.015   8.553
 6395POPC   D2A20224  43.065   1.952   8.253
 6395POPC   C3A20225  43.140   1.991   7.953
 6395POPC   C4A20226  43.068   1.960   7.653
 6395POPC   C1B20227  42.930   2.216   8.553
 6395POPC   C2B20228  42.944   2.221   8.253
 6395POPC   C3B20229  43.006   2.153   7.953
 6395POPC   C4B20230  42.954   2.231   7.653
 6396POPC   NC320231   3.563  11.294   9.453
 6396POPC   PO420232   3.564  11.321   9.153
 6396POPC   GL120233   3.501  11.329   8.853
 6396POPC   GL220234   3.608  11.221   8.853
 6396POPC   C1A20235   3.520  11.275   8.553
 6396POPC   D2A20236   3.570  11.325   8.253
 6396POPC   C3A20237   3.519  11.297   7.953
 6396POPC   C4A20238   3.509  11.343   7.653
 6396POPC   C1B20239   3.700  11.106   8.553
 6396POPC   C2B20240   3.671  11.115   8.253
 6396POPC   C3B20241   3.724  11.104   7.953
 6396POPC   C4B20242   3.692  11.127   7.653
 6397POPC   NC320243   9.018  28.377   9.453
 6397POPC   PO420244   8.972  28.371   9.153
 6397POPC   GL120245   8.997  28.400   8.853
 6397POPC   GL220246   8.985  28.217   8.853
 6397POPC   C1A20247   8.965  28.372   8.553
 6397POPC   D2A20248   8.927  28.321   8.253
 6397POPC   C3A20249   8.986  28.416   7.953
 6397POPC   C4A20250   8.947  28.355   7.653
 6397POPC   C1B20251   8.987  28.157   8.553
 6397POPC   C2B20252   8.951  28.113   8.253
 6397POPC   C3B20253   8.984  28.153   7.953
 6397POPC   C4B20254   8.972  28.130   7.653
 6398POPC   NC320255  19.088  31.512   9.453
 6398POPC   PO420256  19.075  31.482   9.153
 6398POPC   GL120257  19.040  31.500   8.853
 6398POPC   GL220258  18.988  31.374   8.853
 6398POPC   C1A20259  19.013  31.521   8.553
 6398POPC   D2A20260  19.080  31.443   8.253
 6398POPC   C3A20261  19.020  31.443   7.953
 6398POPC   C4A20262  19.104  31.430   7.653
 6398POPC   C1B20263  18.867  31.235   8.553
 6398POPC   C2B20264  18.886  31.278   8.253
 6398POPC   C3B20265  18.906  31.295   7.953
 6398POPC   C4B20266  18.871  31.290   7.653
 6399POPC   NC320267  18.244  20.659   9.453
 6399POPC   PO420268  18.283  20.655   9.153
 6399POPC   GL120269  18.298  20.633   8.853
 6399POPC   GL220270  18.193  20.518   8.853
 6399POPC   C1A20271  18.327  20.631   8.553
 6399POPC   D2A20272  18.262  20.611   8.253
 6399POPC   C3A20273  18.310  20.591   7.953
 6399POPC   C4A20274  18.268  20.655   7.653
 6399POPC   C1B20275  18.177  20.349   8.553
 6399POPC   C2B20276  18.148  20.422   8.253
 6399POPC   C3B20277  18.189  20.348   7.953
 6399POPC   C4B20278  18.154  20.437   7.653
 6400POPC   NC320279   0.438  19.827   9.453
 6400POPC   PO420280   0.457  19.873   9.153
 6400POPC   GL120281   0.466  19.849   8.853
 6400POPC   GL220282   0.398  19.946   8.853
 6400POPC   C1A20283   0.446  19.785   8.553
 6400POPC   D2A20284   0.453  19.845   8.253
 6400POPC   C3A20285   0.436  19.883   7.953
 6400POPC   C4A20286   0.428  19.852   7.653
 6400POPC   C1B20287   0.282  20.073   8.553
 6400POPC   C2B20288   0.298  20.031   8.253
 6400POPC   C3B20289   0.317  20.044   7.953
 6400POPC   C4B20290   0.351  20.011   7.653
 6401POPC   NC320291  29.948   9.751   9.453
 6401POPC   PO420292  29.953   9.751   9.153
 6401POPC   GL120293  29.896   9.721   8.853
 6401POPC   GL220294  29.962   9.825   8.853
 6401POPC   C1A20295  29.935   9.776   8.553
 6401POPC   D2A20296  29.945   9.753   8.253
 6401POPC   C3A20297  29.914   9.772   7.953
 6401POPC   C4A20298  29.949   9.779   7.653
 6401POPC   C1B20299  29.964  10.002   8.553
 6401POPC   C2B20300  29.925   9.963   8.253
 6401POPC   C3B20301  29.913  10.035   7.953
 6401POPC   C4B20302  29.909  10.038   7.653
 6402POPC   NC320303   5.110  37.670   9.453
 6402POPC   PO420304   5.140  37.652   9.153
 6402POPC   GL120305   5.063  37.692   8.853
 6402POPC   GL220306   5.080  37.525   8.853
 6402POPC   C1A20307   5.143  37.718   8.553
 6402POPC   D2A20308   5.059  37.677   8.253
 6402POPC   C3A20309   5.091  37.634   7.953
 6402POPC   C4A20310   5.081  37.663   7.653
 6402POPC   C1B20311   5.030  37.428   8.553
 6402POPC   C2B20312   5.052  37.467   8.253
 6402POPC   C3B20313   5.092  37.408   7.953
 6402POPC   C4B20314   5.035  37.414   7.653
 6403POPC   NC320315  12.875  32.997   9.453
 6403POPC   PO420316  12.881  33.061   9.153
 6403POPC   GL120317  12.828  33.017   8.853
 6403POPC   GL220318  12.832  33.142   8.853
 6403POPC   C1A20319  12.847  33.001   8.553
 6403POPC   D2A20320  12.897  33.029   8.253
 6403POPC   C3A20321  12.862  32.975   7.953
 6403POPC   C4A20322  12.867  33.007   7.653
 6403POPC   C1B20323  12.919  33.265   8.553
 6403POPC   C2B20324  12.848  33.239   8.253
 6403POPC   C3B20325  12.860  33.237   7.953
 6403POPC   C4B20326  12.934  33.267   7.653
 6404POPC   NC320327  13.599  29.892   9.453
 6404POPC   PO420328  13.618  29.887   9.153
 6404POPC   GL120329  13.658  29.955   8.853
 6404POPC   GL220330  13.746  29.808   8.853
 6404POPC   C1A20331  13.590  29.922   8.553
 6404POPC   D2A20332  13.608  29.910   8.253
 6404POPC   C3A20333  13.649  29.927   7.953
 6404POPC   C4A20334  13.664  29.922   7.653
 6404POPC   C1B20335  13.844  29.771   8.553
 6404POPC   C2B20336  13.837  29.752   8.253
 6404POPC   C3B20337  13.816  29.754   7.953
 6404POPC   C4B20338  13.781  29.791   7.653
 6405POPC   NC320339   3.505  15.994   9.453
 6405POPC   PO420340   3.585  15.934   9.153
 6405POPC   GL120341   3.491  15.972   8.853
 6405POPC   GL220342   3.369  15.927   8.853
 6405POPC   C1A20343   3.539  15.987   8.553
 6405POPC   D2A20344   3.533  15.913   8.253
 6405POPC   C3A20345   3.537  15.946   7.953
 6405POPC   C4A20346   3.556  15.941   7.653
 6405POPC   C1B20347   3.304  15.974   8.553
 6405POPC   C2B20348   3.338  15.951   8.253
 6405POPC   C3B20349   3.312  15.924   7.953
 6405POPC   C4B20350   3.278  15.945   7.653
 6406POPC   NC320351  44.636  26.770   9.453
 6406POPC   PO420352  44.648  26.785   9.153
 6406POPC   GL120353  44.697  26.804   8.853
 6406POPC   GL220354  44.509  26.819   8.853
 6406POPC   C1A20355  44.684  26.831   8.553
 6406POPC   D2A20356  44.656  26.818   8.253
 6406POPC   C3A20357  44.668  26.769   7.953
 6406POPC   C4A20358  44.689  26.791   7.653
 6406POPC   C1B20359  44.380  26.771   8.553
 6406POPC   C2B20360  44.387  26.805   8.253
 6406POPC   C3B20361  44.430  26.767   7.953
 6406POPC   C4B20362  44.434  26.781   7.653
 6407POPC   NC320363   7.378  14.449   9.453
 6407POPC   PO420364   7.426  14.431   9.153
 6407POPC   GL120365   7.416  14.423   8.853
 6407POPC   GL220366   7.532  14.451   8.853
 6407POPC   C1A20367   7.425  14.383   8.553
 6407POPC   D2A20368   7.384  14.400   8.253
 6407POPC   C3A20369   7.393  14.417   7.953
 6407POPC   C4A20370   7.468  14.354   7.653
 6407POPC   C1B20371   7.670  14.476   8.553
 6407POPC   C2B20372   7.698  14.480   8.253
 6407POPC   C3B20373   7.678  14.498   7.953
 6407POPC   C4B20374   7.693  14.475   7.653
 6408POPC   NC320375   0.478  12.055   9.453
 6408POPC   PO420376   0.446  12.085   9.153
 6408POPC   GL120377   0.389  12.073   8.853
 6408POPC   GL220378   0.448  12.166   8.853
 6408POPC   C1A20379   0.411  12.051   8.553
 6408POPC   D2A20380   0.438  12.026   8.253
 6408POPC   C3A20381   0.482  12.036   7.953
 6408POPC   C4A20382   0.451  12.040   7.653
 6408POPC   C1B20383   0.494  12.349   8.553
 6408POPC   C2B20384   0.465  12.304   8.253
 6408POPC   C3B20385   0.500  12.301   7.953
 6408POPC   C4B20386   0.430  12.348   7.653
 6409POPC   NC320387  26.024  12.125   9.453
 6409POPC   PO420388  26.027  12.097   9.153
 6409POPC   GL120389  26.071  12.066   8.853
 6409POPC   GL220390  26.088  12.136   8.853
 6409POPC   C1A20391  26.068  12.032   8.553
 6409POPC   D2A20392  25.995  12.032   8.253
 6409POPC   C3A20393  26.038  12.105   7.953
 6409POPC   C4A20394  26.079  12.101   7.653
 6409POPC   C1B20395  26.238  12.253   8.553
 6409POPC   C2B20396  26.214  12.242   8.253
 6409POPC   C3B20397  26.211  12.272   7.953
 6409POPC   C4B20398  26.232  12.239   7.653
 6410POPC   NC320399   8.207   2.790   9.453
 6410POPC   PO420400   8.171   2.813   9.153
 6410POPC   GL120401   8.184   2.809   8.853
 6410POPC   GL220402   8.277   2.801   8.853
 6410POPC   C1A20403   8.203   2.790   8.553
 6410POPC   D2A20404   8.170   2.754   8.253
 6410POPC   C3A20405   8.222   2.774   7.953
 6410POPC   C4A20406   8.175   2.731   7.653
 6410POPC   C1B20407   8.420   2.776   8.553
 6410POPC   C2B20408   8.492   2.793   8.253
 6410POPC   C3B20409   8.492   2.744   7.953
 6410POPC   C4B20410   8.471   2.773   7.653
 6411POPC   NC320411  35.342   9.776   9.453
 6411POPC   PO420412  35.331   9.727   9.153
 6411POPC   GL120413  35.382   9.777   8.853
 6411POPC   GL220414  35.217   9.690   8.853
 6411POPC   C1A20415  35.350   9.711   8.553
 6411POPC   D2A20416  35.358   9.752   8.253
 6411POPC   C3A20417  35.372   9.797   7.953
 6411POPC   C4A20418  35.353   9.790   7.653
 6411POPC   C1B20419  35.074   9.764   8.553
 6411POPC   C2B20420  35.085   9.708   8.253
 6411POPC   C3B20421  35.103   9.735   7.953
 6411POPC   C4B20422  35.065   9.756   7.653
 6412POPC   NC320423  11.290   9.765   9.453
 6412POPC   PO420424  11.343   9.723   9.153
 6412POPC   GL120425  11.262   9.711   8.853
 6412POPC   GL220426  11.198   9.801   8.853
 6412POPC   C1A20427  11.284   9.753   8.553
 6412POPC   D2A20428  11.325   9.764   8.253
 6412POPC   C3A20429  11.267   9.705   7.953
 6412POPC   C4A20430  11.288   9.783   7.653
 6412POPC   C1B20431  11.093   9.897   8.553
 6412POPC   C2B20432  11.108   9.952   8.253
 6412POPC   C3B20433  11.134   9.872   7.953
 6412POPC   C4B20434  11.115   9.951   7.653
 6413POPC   NC320435  29.111  26.044   9.453
 6413POPC   PO420436  29.117  26.050   9.153
 6413POPC   GL120437  29.119  26.058   8.853
 6413POPC   GL220438  29.258  25.937   8.853
 6413POPC   C1A20439  29.189  26.058   8.553
 6413POPC   D2A20440  29.172  26.040   8.253
 6413POPC   C3A20441  29.184  26.083   7.953
 6413POPC   C4A20442  29.134  26.089   7.653
 6413POPC   C1B20443  29.344  25.918   8.553
 6413POPC   C2B20444  29.398  25.959   8.253
 6413POPC   C3B20445  29.378  25.938   7.953
 6413POPC   C4B20446  29.389  25.874   7.653
 6414POPC   NC320447  42.359  12.096   9.453
 6414POPC   PO420448  42.361  12.124   9.153
 6414POPC   GL120449  42.365  12.110   8.853
 6414POPC   GL220450  42.249  12.092   8.853
 6414POPC   C1A20451  42.336  12.051   8.553
 6414POPC   D2A20452  42.363  12.113   8.253
 6414POPC   C3A20453  42.368  12.122   7.953
 6414POPC   C4A20454  42.376  12.121   7.653
 6414POPC   C1B20455  42.110  12.150   8.553
 6414POPC   C2B20456  42.121  12.128   8.253
 6414POPC   C3B20457  42.095  12.187   7.953
 6414POPC   C4B20458  42.076  12.188   7.653
 6415POPC   NC320459  13.607   5.845   9.453
 6415POPC   PO420460  13.580   5.845   9.153
 6415POPC   GL120461  13.671   5.863   8.853
 6415POPC   GL220462  13.770   5.995   8.853
 6415POPC   C1A20463  13.667   5.821   8.553
 6415POPC   D2A20464  13.655   5.896   8.253
 6415POPC   C3A20465  13.662   5.859   7.953
 6415POPC   C4A20466  13.601   5.877   7.653
 6415POPC   C1B20467  13.851   6.021   8.553
 6415POPC   C2B20468  13.862   6.041   8.253
 6415POPC   C3B20469  13.822   6.032   7.953
 6415POPC   C4B20470  13.872   6.049   7.653
 6416POPC   NC320471  36.133  36.161   9.453
 6416POPC   PO420472  36.150  36.146   9.153
 6416POPC   GL120473  36.093  36.097   8.853
 6416POPC   GL220474  36.180  36.042   8.853
 6416POPC   C1A20475  36.172  36.143   8.553
 6416POPC   D2A20476  36.176  36.176   8.253
 6416POPC   C3A20477  36.099  36.106   7.953
 6416POPC   C4A20478  36.093  36.153   7.653
 6416POPC   C1B20479  36.294  35.895   8.553
 6416POPC   C2B20480  36.275  35.896   8.253
 6416POPC   C3B20481  36.251  35.897   7.953
 6416POPC   C4B20482  36.242  35.882   7.653
 6417POPC   NC320483  12.110  22.930   9.453
 6417POPC   PO420484  12.121  22.941   9.153
 6417POPC   GL120485  12.121  22.902   8.853
 6417POPC   GL220486  12.116  22.801   8.853
 6417POPC   C1A20487  12.061  22.934   8.553
 6417POPC   D2A20488  12.047  22.898   8.253
 6417POPC   C3A20489  12.080  22.924   7.953
 6417POPC   C4A20490  12.112  22.949   7.653
 6417POPC   C1B20491  12.224  22.782   8.553
 6417POPC   C2B20492  12.225  22.760   8.253
 6417POPC   C3B20493  12.223  22.740   7.953
 6417POPC   C4B20494  12.236  22.722   7.653
 6418POPC   NC320495  15.940   1.207   9.453
 6418POPC   PO420496  15.959   1.224   9.153
 6418POPC   GL120497  15.935   1.213   8.853
 6418POPC   GL220498  15.826   1.261   8.853
 6418POPC   C1A20499  15.928   1.259   8.553
 6418POPC   D2A20500  15.959   1.213   8.253
 6418POPC   C3A20501  15.940   1.188   7.953
 6418POPC   C4A20502  15.912   1.164   7.653
 6418POPC   C1B20503  15.791   1.358   8.553
 6418POPC   C2B20504  15.790   1.390   8.253
 6418POPC   C3B20505  15.778   1.401   7.953
 6418POPC   C4B20506  15.773   1.387   7.653
 6419POPC   NC320507   6.677  37.685   9.453
 6419POPC   PO420508   6.657  37.727   9.153
 6419POPC   GL120509   6.670  37.683   8.853
 6419POPC   GL220510   6.718  37.789   8.853
 6419POPC   C1A20511   6.688  37.721   8.553
 6419POPC   D2A20512   6.641  37.673   8.253
 6419POPC   C3A20513   6.683  37.689   7.953
 6419POPC   C4A20514   6.599  37.632   7.653
 6419POPC   C1B20515   6.878  37.828   8.553
 6419POPC   C2B20516   6.879  37.776   8.253
 6419POPC   C3B20517   6.895  37.865   7.953
 6419POPC   C4B20518   6.862  37.844   7.653
 6420POPC   NC320519  31.450  26.823   9.453
 6420POPC   PO420520  31.458  26.814   9.153
 6420POPC   GL120521  31.499  26.777   8.853
 6420POPC   GL220522  31.341  26.907   8.853
 6420POPC   C1A20523  31.494  26.793   8.553
 6420POPC   D2A20524  31.484  26.800   8.253
 6420POPC   C3A20525  31.439  26.780   7.953
 6420POPC   C4A20526  31.515  26.794   7.653
 6420POPC   C1B20527  31.328  26.997   8.553
 6420POPC   C2B20528  31.249  27.021   8.253
 6420POPC   C3B20529  31.272  27.021   7.953
 6420POPC   C4B20530  31.259  26.990   7.653
 6421POPC   NC320531  18.256   2.038   9.453
 6421POPC   PO420532  18.318   1.950   9.153
 6421POPC   GL120533  18.298   1.982   8.853
 6421POPC   GL220534  18.147   2.101   8.853
 6421POPC   C1A20535  18.237   1.956   8.553
 6421POPC   D2A20536  18.298   2.040   8.253
 6421POPC   C3A20537  18.319   2.039   7.953
 6421POPC   C4A20538  18.329   2.026   7.653
 6421POPC   C1B20539  18.052   2.150   8.553
 6421POPC   C2B20540  18.130   2.119   8.253
 6421POPC   C3B20541  18.079   2.143   7.953
 6421POPC   C4B20542  18.128   2.161   7.653
 6422POPC   NC320543  18.299   2.792   9.453
 6422POPC   PO420544  18.312   2.794   9.153
 6422POPC   GL120545  18.273   2.717   8.853
 6422POPC   GL220546  18.150   2.693   8.853
 6422POPC   C1A20547  18.240   2.753   8.553
 6422POPC   D2A20548  18.273   2.755   8.253
 6422POPC   C3A20549  18.316   2.741   7.953
 6422POPC   C4A20550  18.273   2.785   7.653
 6422POPC   C1B20551  18.043   2.715   8.553
 6422POPC   C2B20552  18.091   2.675   8.253
 6422POPC   C3B20553  18.039   2.686   7.953
 6422POPC   C4B20554  18.017   2.662   7.653
 6423POPC   NC320555  40.822  15.145   9.453
 6423POPC   PO420556  40.745  15.133   9.153
 6423POPC   GL120557  40.815  15.227   8.853
 6423POPC   GL220558  40.763  15.106   8.853
 6423POPC   C1A20559  40.764  15.148   8.553
 6423POPC   D2A20560  40.753  15.179   8.253
 6423POPC   C3A20561  40.734  15.144   7.953
 6423POPC   C4A20562  40.800  15.183   7.653
 6423POPC   C1B20563  40.629  14.939   8.553
 6423POPC   C2B20564  40.670  14.952   8.253
 6423POPC   C3B20565  40.687  14.969   7.953
 6423POPC   C4B20566  40.659  14.987   7.653
 6424POPC   NC320567  41.547  29.122   9.453
 6424POPC   PO420568  41.523  29.118   9.153
 6424POPC   GL120569  41.577  29.116   8.853
 6424POPC   GL220570  41.588  29.059   8.853
 6424POPC   C1A20571  41.550  29.106   8.553
 6424POPC   D2A20572  41.518  29.131   8.253
 6424POPC   C3A20573  41.591  29.187   7.953
 6424POPC   C4A20574  41.550  29.149   7.653
 6424POPC   C1B20575  41.696  28.912   8.553
 6424POPC   C2B20576  41.704  28.974   8.253
 6424POPC   C3B20577  41.659  28.954   7.953
 6424POPC   C4B20578  41.747  28.904   7.653
 6425POPC   NC320579  38.460  36.132   9.453
 6425POPC   PO420580  38.491  36.176   9.153
 6425POPC   GL120581  38.488  36.080   8.853
 6425POPC   GL220582  38.362  36.213   8.853
 6425POPC   C1A20583  38.427  36.106   8.553
 6425POPC   D2A20584  38.500  36.151   8.253
 6425POPC   C3A20585  38.464  36.177   7.953
 6425POPC   C4A20586  38.406  36.084   7.653
 6425POPC   C1B20587  38.272  36.365   8.553
 6425POPC   C2B20588  38.335  36.381   8.253
 6425POPC   C3B20589  38.346  36.314   7.953
 6425POPC   C4B20590  38.300  36.347   7.653
 6426POPC   NC320591  37.696  39.272   9.453
 6426POPC   PO420592  37.719  39.230   9.153
 6426POPC   GL120593  37.632  39.186   8.853
 6426POPC   GL220594  37.792  39.348   8.853
 6426POPC   C1A20595  37.719  39.228   8.553
 6426POPC   D2A20596  37.657  39.191   8.253
 6426POPC   C3A20597  37.674  39.184   7.953
 6426POPC   C4A20598  37.708  39.188   7.653
 6426POPC   C1B20599  37.831  39.456   8.553
 6426POPC   C2B20600  37.823  39.458   8.253
 6426POPC   C3B20601  37.858  39.370   7.953
 6426POPC   C4B20602  37.869  39.416   7.653
 6427POPC   NC320603  12.043   5.866   9.453
 6427POPC   PO420604  12.125   5.911   9.153
 6427POPC   GL120605  12.031   5.884   8.853
 6427POPC   GL220606  12.134   5.989   8.853
 6427POPC   C1A20607  12.079   5.890   8.553
 6427POPC   D2A20608  12.037   5.899   8.253
 6427POPC   C3A20609  12.065   5.863   7.953
 6427POPC   C4A20610  12.121   5.842   7.653
 6427POPC   C1B20611  12.235   6.057   8.553
 6427POPC   C2B20612  12.204   6.075   8.253
 6427POPC   C3B20613  12.219   6.075   7.953
 6427POPC   C4B20614  12.189   6.052   7.653
 6428POPC   NC320615  34.612  13.603   9.453
 6428POPC   PO420616  34.538  13.611   9.153
 6428POPC   GL120617  34.574  13.639   8.853
 6428POPC   GL220618  34.412  13.569   8.853
 6428POPC   C1A20619  34.545  13.622   8.553
 6428POPC   D2A20620  34.623  13.663   8.253
 6428POPC   C3A20621  34.626  13.651   7.953
 6428POPC   C4A20622  34.577  13.623   7.653
 6428POPC   C1B20623  34.288  13.576   8.553
 6428POPC   C2B20624  34.355  13.544   8.253
 6428POPC   C3B20625  34.333  13.593   7.953
 6428POPC   C4B20626  34.310  13.617   7.653
 6429POPC   NC320627  37.676  31.453   9.453
 6429POPC   PO420628  37.719  31.507   9.153
 6429POPC   GL120629  37.704  31.439   8.853
 6429POPC   GL220630  37.563  31.532   8.853
 6429POPC   C1A20631  37.659  31.463   8.553
 6429POPC   D2A20632  37.717  31.521   8.253
 6429POPC   C3A20633  37.655  31.478   7.953
 6429POPC   C4A20634  37.680  31.489   7.653
 6429POPC   C1B20635  37.462  31.653   8.553
 6429POPC   C2B20636  37.457  31.646   8.253
 6429POPC   C3B20637  37.543  31.632   7.953
 6429POPC   C4B20638  37.515  31.636   7.653
 6430POPC   NC320639  24.539  32.212   9.453
 6430POPC   PO420640  24.515  32.231   9.153
 6430POPC   GL120641  24.467  32.268   8.853
 6430POPC   GL220642  24.346  32.297   8.853
 6430POPC   C1A20643  24.505  32.293   8.553
 6430POPC   D2A20644  24.530  32.286   8.253
 6430POPC   C3A20645  24.497  32.247   7.953
 6430POPC   C4A20646  24.537  32.260   7.653
 6430POPC   C1B20647  24.303  32.305   8.553
 6430POPC   C2B20648  24.230  32.351   8.253
 6430POPC   C3B20649  24.266  32.312   7.953
 6430POPC   C4B20650  24.259  32.377   7.653
 6431POPC   NC320651   9.000  40.781   9.453
 6431POPC   PO420652   8.987  40.781   9.153
 6431POPC   GL120653   8.963  40.759   8.853
 6431POPC   GL220654   9.066  40.829   8.853
 6431POPC   C1A20655   9.011  40.831   8.553
 6431POPC   D2A20656   8.947  40.776   8.253
 6431POPC   C3A20657   8.929  40.773   7.953
 6431POPC   C4A20658   8.971  40.751   7.653
 6431POPC   C1B20659   9.187  40.942   8.553
 6431POPC   C2B20660   9.234  40.913   8.253
 6431POPC   C3B20661   9.144  40.948   7.953
 6431POPC   C4B20662   9.181  40.910   7.653
 6432POPC   NC320663  28.355   1.224   9.453
 6432POPC   PO420664  28.342   1.188   9.153
 6432POPC   GL120665  28.396   1.246   8.853
 6432POPC   GL220666  28.361   1.048   8.853
 6432POPC   C1A20667  28.341   1.187   8.553
 6432POPC   D2A20668  28.371   1.189   8.253
 6432POPC   C3A20669  28.344   1.195   7.953
 6432POPC   C4A20670  28.332   1.236   7.653
 6432POPC   C1B20671  28.368   0.918   8.553
 6432POPC   C2B20672  28.355   0.965   8.253
 6432POPC   C3B20673  28.323   1.014   7.953
 6432POPC   C4B20674  28.332   0.988   7.653
 6433POPC   NC320675  37.683  12.116   9.453
 6433POPC   PO420676  37.666  12.076   9.153
 6433POPC   GL120677  37.709  12.042   8.853
 6433POPC   GL220678  37.762  12.014   8.853
 6433POPC   C1A20679  37.673  12.106   8.553
 6433POPC   D2A20680  37.702  12.116   8.253
 6433POPC   C3A20681  37.679  12.062   7.953
 6433POPC   C4A20682  37.667  12.063   7.653
 6433POPC   C1B20683  37.864  11.905   8.553
 6433POPC   C2B20684  37.832  11.899   8.253
 6433POPC   C3B20685  37.841  11.886   7.953
 6433POPC   C4B20686  37.850  11.904   7.653
 6434POPC   NC320687  36.080  13.658   9.453
 6434POPC   PO420688  36.094  13.607   9.153
 6434POPC   GL120689  36.160  13.585   8.853
 6434POPC   GL220690  36.082  13.745   8.853
 6434POPC   C1A20691  36.108  13.647   8.553
 6434POPC   D2A20692  36.100  13.670   8.253
 6434POPC   C3A20693  36.103  13.632   7.953
 6434POPC   C4A20694  36.084  13.671   7.653
 6434POPC   C1B20695  36.024  13.835   8.553
 6434POPC   C2B20696  35.962  13.799   8.253
 6434POPC   C3B20697  35.944  13.873   7.953
 6434POPC   C4B20698  35.944  13.870   7.653
 6435POPC   NC320699   5.894  43.140   9.453
 6435POPC   PO420700   5.871  43.121   9.153
 6435POPC   GL120701   5.866  43.072   8.853
 6435POPC   GL220702   5.801  43.066   8.853
 6435POPC   C1A20703   5.843  43.104   8.553
 6435POPC   D2A20704   5.872  43.138   8.253
 6435POPC   C3A20705   5.858  43.133   7.953
 6435POPC   C4A20706   5.878  43.148   7.653
 6435POPC   C1B20707   5.705  42.997   8.553
 6435POPC   C2B20708   5.670  42.973   8.253
 6435POPC   C3B20709   5.661  43.005   7.953
 6435POPC   C4B20710   5.685  43.004   7.653
 6436POPC   NC320711  38.442  22.120   9.453
 6436POPC   PO420712  38.441  22.154   9.153
 6436POPC   GL120713  38.492  22.117   8.853
 6436POPC   GL220714  38.534  22.060   8.853
 6436POPC   C1A20715  38.504  22.190   8.553
 6436POPC   D2A20716  38.492  22.210   8.253
 6436POPC   C3A20717  38.438  22.125   7.953
 6436POPC   C4A20718  38.428  22.153   7.653
 6436POPC   C1B20719  38.667  21.940   8.553
 6436POPC   C2B20720  38.645  21.965   8.253
 6436POPC   C3B20721  38.650  22.008   7.953
 6436POPC   C4B20722  38.643  22.024   7.653
 6437POPC   NC320723   6.605  12.806   9.453
 6437POPC   PO420724   6.609  12.892   9.153
 6437POPC   GL120725   6.687  12.849   8.853
 6437POPC   GL220726   6.512  12.903   8.853
 6437POPC   C1A20727   6.652  12.823   8.553
 6437POPC   D2A20728   6.689  12.891   8.253
 6437POPC   C3A20729   6.620  12.808   7.953
 6437POPC   C4A20730   6.657  12.839   7.653
 6437POPC   C1B20731   6.450  12.930   8.553
 6437POPC   C2B20732   6.381  12.941   8.253
 6437POPC   C3B20733   6.396  12.915   7.953
 6437POPC   C4B20734   6.424  12.933   7.653
 6438POPC   NC320735  38.420  10.478   9.453
 6438POPC   PO420736  38.424  10.505   9.153
 6438POPC   GL120737  38.488  10.539   8.853
 6438POPC   GL220738  38.529  10.599   8.853
 6438POPC   C1A20739  38.405  10.515   8.553
 6438POPC   D2A20740  38.461  10.509   8.253
 6438POPC   C3A20741  38.499  10.516   7.953
 6438POPC   C4A20742  38.455  10.503   7.653
 6438POPC   C1B20743  38.665  10.689   8.553
 6438POPC   C2B20744  38.600  10.761   8.253
 6438POPC   C3B20745  38.600  10.728   7.953
 6438POPC   C4B20746  38.573  10.689   7.653
 6439POPC   NC320747  19.014  42.297   9.453
 6439POPC   PO420748  19.038  42.350   9.153
 6439POPC   GL120749  19.019  42.362   8.853
 6439POPC   GL220750  19.149  42.193   8.853
 6439POPC   C1A20751  19.108  42.314   8.553
 6439POPC   D2A20752  19.072  42.332   8.253
 6439POPC   C3A20753  19.079  42.311   7.953
 6439POPC   C4A20754  19.068  42.383   7.653
 6439POPC   C1B20755  19.254  42.152   8.553
 6439POPC   C2B20756  19.236  42.140   8.253
 6439POPC   C3B20757  19.244  42.171   7.953
 6439POPC   C4B20758  19.240  42.172   7.653
 6440POPC   NC320759  38.429   5.866   9.453
 6440POPC   PO420760  38.429   5.916   9.153
 6440POPC   GL120761  38.490   5.843   8.853
 6440POPC   GL220762  38.511   5.823   8.853
 6440POPC   C1A20763  38.438   5.839   8.553
 6440POPC   D2A20764  38.497   5.898   8.253
 6440POPC   C3A20765  38.461   5.914   7.953
 6440POPC   C4A20766  38.481   5.832   7.653
 6440POPC   C1B20767  38.664   5.659   8.553
 6440POPC   C2B20768  38.671   5.661   8.253
 6440POPC   C3B20769  38.646   5.634   7.953
 6440POPC   C4B20770  38.627   5.685   7.653
 6441POPC   NC320771  18.255  15.920   9.453
 6441POPC   PO420772  18.300  15.927   9.153
 6441POPC   GL120773  18.320  15.948   8.853
 6441POPC   GL220774  18.310  16.069   8.853
 6441POPC   C1A20775  18.244  15.967   8.553
 6441POPC   D2A20776  18.237  15.956   8.253
 6441POPC   C3A20777  18.331  15.942   7.953
 6441POPC   C4A20778  18.256  15.924   7.653
 6441POPC   C1B20779  18.392  16.158   8.553
 6441POPC   C2B20780  18.392  16.187   8.253
 6441POPC   C3B20781  18.368  16.161   7.953
 6441POPC   C4B20782  18.403  16.211   7.653
 6442POPC   NC320783  43.906   8.978   9.453
 6442POPC   PO420784  43.867   8.964   9.153
 6442POPC   GL120785  43.872   9.015   8.853
 6442POPC   GL220786  43.966   8.855   8.853
 6442POPC   C1A20787  43.847   8.977   8.553
 6442POPC   D2A20788  43.847   8.940   8.253
 6442POPC   C3A20789  43.896   8.945   7.953
 6442POPC   C4A20790  43.839   8.952   7.653
 6442POPC   C1B20791  44.039   8.756   8.553
 6442POPC   C2B20792  44.063   8.782   8.253
 6442POPC   C3B20793  44.055   8.781   7.953
 6442POPC   C4B20794  44.003   8.772   7.653
 6443POPC   NC320795  40.036  12.094   9.453
 6443POPC   PO420796  39.960  12.027   9.153
 6443POPC   GL120797  40.047  12.063   8.853
 6443POPC   GL220798  40.121  11.990   8.853
 6443POPC   C1A20799  39.960  12.114   8.553
 6443POPC   D2A20800  40.032  12.094   8.253
 6443POPC   C3A20801  40.044  12.053   7.953
 6443POPC   C4A20802  40.010  12.114   7.653
 6443POPC   C1B20803  40.209  11.878   8.553
 6443POPC   C2B20804  40.206  11.842   8.253
 6443POPC   C3B20805  40.140  11.855   7.953
 6443POPC   C4B20806  40.170  11.853   7.653
 6444POPC   NC320807  19.834  36.138   9.453
 6444POPC   PO420808  19.836  36.153   9.153
 6444POPC   GL120809  19.788  36.112   8.853
 6444POPC   GL220810  19.964  36.082   8.853
 6444POPC   C1A20811  19.827  36.102   8.553
 6444POPC   D2A20812  19.793  36.153   8.253
 6444POPC   C3A20813  19.788  36.138   7.953
 6444POPC   C4A20814  19.820  36.160   7.653
 6444POPC   C1B20815  20.047  36.062   8.553
 6444POPC   C2B20816  20.053  36.081   8.253
 6444POPC   C3B20817  20.121  36.093   7.953
 6444POPC   C4B20818  20.056  36.070   7.653
 6445POPC   NC320819   3.498  43.904   9.453
 6445POPC   PO420820   3.590  43.853   9.153
 6445POPC   GL120821   3.525  43.913   8.853
 6445POPC   GL220822   3.680  43.951   8.853
 6445POPC   C1A20823   3.507  43.862   8.553
 6445POPC   D2A20824   3.567  43.855   8.253
 6445POPC   C3A20825   3.500  43.916   7.953
 6445POPC   C4A20826   3.504  43.878   7.653
 6445POPC   C1B20827   3.700  44.020   8.553
 6445POPC   C2B20828   3.769  44.070   8.253
 6445POPC   C3B20829   3.776  44.031   7.953
 6445POPC   C4B20830   3.704  44.017   7.653
 6446POPC   NC320831  33.043  19.870   9.453
 6446POPC   PO420832  32.977  19.875   9.153
 6446POPC   GL120833  33.059  19.865   8.853
 6446POPC   GL220834  32.928  19.678   8.853
 6446POPC   C1A20835  33.046  19.839   8.553
 6446POPC   D2A20836  33.004  19.865   8.253
 6446POPC   C3A20837  33.051  19.880   7.953
 6446POPC   C4A20838  32.998  19.808   7.653
 6446POPC   C1B20839  32.910  19.629   8.553
 6446POPC   C2B20840  32.913  19.585   8.253
 6446POPC   C3B20841  32.948  19.640   7.953
 6446POPC   C4B20842  32.962  19.641   7.653
 6447POPC   NC320843  14.384   8.939   9.453
 6447POPC   PO420844  14.364   8.978   9.153
 6447POPC   GL120845  14.380   8.934   8.853
 6447POPC   GL220846  14.291   9.097   8.853
 6447POPC   C1A20847  14.377   9.004   8.553
 6447POPC   D2A20848  14.432   9.022   8.253
 6447POPC   C3A20849  14.407   8.939   7.953
 6447POPC   C4A20850  14.360   8.974   7.653
 6447POPC   C1B20851  14.237   9.189   8.553
 6447POPC   C2B20852  14.241   9.170   8.253
 6447POPC   C3B20853  14.202   9.180   7.953
 6447POPC   C4B20854  14.266   9.112   7.653
 6448POPC   NC320855  12.882  24.477   9.453
 6448POPC   PO420856  12.820  24.459   9.153
 6448POPC   GL120857  12.832  24.467   8.853
 6448POPC   GL220858  12.843  24.661   8.853
 6448POPC   C1A20859  12.802  24.470   8.553
 6448POPC   D2A20860  12.876  24.535   8.253
 6448POPC   C3A20861  12.851  24.531   7.953
 6448POPC   C4A20862  12.845  24.477   7.653
 6448POPC   C1B20863  12.880  24.702   8.553
 6448POPC   C2B20864  12.922  24.731   8.253
 6448POPC   C3B20865  12.855  24.696   7.953
 6448POPC   C4B20866  12.898  24.691   7.653
 6449POPC   NC320867  28.329   5.887   9.453
 6449POPC   PO420868  28.364   5.820   9.153
 6449POPC   GL120869  28.353   5.866   8.853
 6449POPC   GL220870  28.286   5.977   8.853
 6449POPC   C1A20871  28.334   5.889   8.553
 6449POPC   D2A20872  28.334   5.885   8.253
 6449POPC   C3A20873  28.334   5.845   7.953
 6449POPC   C4A20874  28.347   5.852   7.653
 6449POPC   C1B20875  28.239   6.100   8.553
 6449POPC   C2B20876  28.227   6.093   8.253
 6449POPC   C3B20877  28.289   6.073   7.953
 6449POPC   C4B20878  28.220   6.072   7.653
 6450POPC   NC320879  36.857  25.309   9.453
 6450POPC   PO420880  36.871  25.288   9.153
 6450POPC   GL120881  36.906  25.227   8.853
 6450POPC   GL220882  36.920  25.361   8.853
 6450POPC   C1A20883  36.946  25.297   8.553
 6450POPC   D2A20884  36.946  25.222   8.253
 6450POPC   C3A20885  36.936  25.307   7.953
 6450POPC   C4A20886  36.893  25.276   7.653
 6450POPC   C1B20887  36.970  25.544   8.553
 6450POPC   C2B20888  36.959  25.455   8.253
 6450POPC   C3B20889  37.017  25.469   7.953
 6450POPC   C4B20890  36.992  25.454   7.653
 6451POPC   NC320891   2.761  41.537   9.453
 6451POPC   PO420892   2.784  41.543   9.153
 6451POPC   GL120893   2.811  41.570   8.853
 6451POPC   GL220894   2.783  41.435   8.853
 6451POPC   C1A20895   2.717  41.510   8.553
 6451POPC   D2A20896   2.720  41.581   8.253
 6451POPC   C3A20897   2.737  41.554   7.953
 6451POPC   C4A20898   2.795  41.548   7.653
 6451POPC   C1B20899   2.885  41.326   8.553
 6451POPC   C2B20900   2.836  41.271   8.253
 6451POPC   C3B20901   2.852  41.284   7.953
 6451POPC   C4B20902   2.883  41.287   7.653
 6452POPC   NC320903   1.972  38.504   9.453
 6452POPC   PO420904   1.943  38.434   9.153
 6452POPC   GL120905   1.959  38.426   8.853
 6452POPC   GL220906   2.142  38.550   8.853
 6452POPC   C1A20907   1.940  38.430   8.553
 6452POPC   D2A20908   1.999  38.464   8.253
 6452POPC   C3A20909   1.947  38.439   7.953
 6452POPC   C4A20910   1.967  38.427   7.653
 6452POPC   C1B20911   2.208  38.522   8.553
 6452POPC   C2B20912   2.200  38.544   8.253
 6452POPC   C3B20913   2.228  38.540   7.953
 6452POPC   C4B20914   2.182  38.559   7.653
 6453POPC   NC320915  39.242   9.019   9.453
 6453POPC   PO420916  39.254   9.007   9.153
 6453POPC   GL120917  39.198   8.991   8.853
 6453POPC   GL220918  39.290   9.083   8.853
 6453POPC   C1A20919  39.222   8.929   8.553
 6453POPC   D2A20920  39.245   8.933   8.253
 6453POPC   C3A20921  39.236   8.963   7.953
 6453POPC   C4A20922  39.198   8.949   7.653
 6453POPC   C1B20923  39.453   9.118   8.553
 6453POPC   C2B20924  39.460   9.123   8.253
 6453POPC   C3B20925  39.473   9.121   7.953
 6453POPC   C4B20926  39.445   9.084   7.653
 6454POPC   NC320927  43.083  22.143   9.453
 6454POPC   PO420928  43.069  22.141   9.153
 6454POPC   GL120929  43.136  22.152   8.853
 6454POPC   GL220930  43.054  22.102   8.853
 6454POPC   C1A20931  43.075  22.140   8.553
 6454POPC   D2A20932  43.079  22.119   8.253
 6454POPC   C3A20933  43.069  22.151   7.953
 6454POPC   C4A20934  43.068  22.128   7.653
 6454POPC   C1B20935  42.866  21.986   8.553
 6454POPC   C2B20936  42.851  22.010   8.253
 6454POPC   C3B20937  42.923  22.034   7.953
 6454POPC   C4B20938  42.898  21.998   7.653
 6455POPC   NC320939   1.222   9.712   9.453
 6455POPC   PO420940   1.261   9.750   9.153
 6455POPC   GL120941   1.214   9.748   8.853
 6455POPC   GL220942   1.128   9.680   8.853
 6455POPC   C1A20943   1.194   9.742   8.553
 6455POPC   D2A20944   1.174   9.778   8.253
 6455POPC   C3A20945   1.210   9.776   7.953
 6455POPC   C4A20946   1.182   9.743   7.653
 6455POPC   C1B20947   0.978   9.655   8.553
 6455POPC   C2B20948   0.986   9.641   8.253
 6455POPC   C3B20949   0.955   9.700   7.953
 6455POPC   C4B20950   0.931   9.688   7.653
 6456POPC   NC320951  15.996   4.323   9.453
 6456POPC   PO420952  15.937   4.287   9.153
 6456POPC   GL120953  15.941   4.311   8.853
 6456POPC   GL220954  16.076   4.365   8.853
 6456POPC   C1A20955  15.906   4.319   8.553
 6456POPC   D2A20956  15.945   4.311   8.253
 6456POPC   C3A20957  15.938   4.282   7.953
 6456POPC   C4A20958  15.988   4.336   7.653
 6456POPC   C1B20959  16.152   4.500   8.553
 6456POPC   C2B20960  16.070   4.524   8.253
 6456POPC   C3B20961  16.111   4.515   7.953
 6456POPC   C4B20962  16.098   4.479   7.653
 6457POPC   NC320963  15.987   9.711   9.453
 6457POPC   PO420964  15.924   9.781   9.153
 6457POPC   GL120965  16.003   9.788   8.853
 6457POPC   GL220966  16.033   9.620   8.853
 6457POPC   C1A20967  15.964   9.704   8.553
 6457POPC   D2A20968  15.909   9.711   8.253
 6457POPC   C3A20969  15.958   9.732   7.953
 6457POPC   C4A20970  15.908   9.758   7.653
 6457POPC   C1B20971  16.065   9.552   8.553
 6457POPC   C2B20972  16.023   9.502   8.253
 6457POPC   C3B20973  16.010   9.503   7.953
 6457POPC   C4B20974  16.071   9.531   7.653
 6458POPC   NC320975  21.428  27.618   9.453
 6458POPC   PO420976  21.433  27.592   9.153
 6458POPC   GL120977  21.370  27.544   8.853
 6458POPC   GL220978  21.300  27.533   8.853
 6458POPC   C1A20979  21.342  27.544   8.553
 6458POPC   D2A20980  21.383  27.576   8.253
 6458POPC   C3A20981  21.411  27.615   7.953
 6458POPC   C4A20982  21.369  27.558   7.653
 6458POPC   C1B20983  21.215  27.423   8.553
 6458POPC   C2B20984  21.204  27.367   8.253
 6458POPC   C3B20985  21.267  27.379   7.953
 6458POPC   C4B20986  21.270  27.406   7.653
 6459POPC   NC320987   3.515  40.039   9.453
 6459POPC   PO420988   3.509  39.979   9.153
 6459POPC   GL120989   3.550  40.047   8.853
 6459POPC   GL220990   3.622  39.949   8.853
 6459POPC   C1A20991   3.516  40.054   8.553
 6459POPC   D2A20992   3.585  39.996   8.253
 6459POPC   C3A20993   3.525  39.959   7.953
 6459POPC   C4A20994   3.588  39.963   7.653
 6459POPC   C1B20995   3.779  39.818   8.553
 6459POPC   C2B20996   3.742  39.883   8.253
 6459POPC   C3B20997   3.730  39.868   7.953
 6459POPC   C4B20998   3.731  39.813   7.653
 6460POPC   NC320999  36.930  21.406   9.453
 6460POPC   PO421000  36.907  21.413   9.153
 6460POPC   GL121001  36.944  21.363   8.853
 6460POPC   GL221002  36.979  21.483   8.853
 6460POPC   C1A21003  36.857  21.427   8.553
 6460POPC   D2A21004  36.872  21.368   8.253
 6460POPC   C3A21005  36.929  21.358   7.953
 6460POPC   C4A21006  36.906  21.383   7.653
 6460POPC   C1B21007  37.014  21.599   8.553
 6460POPC   C2B21008  36.956  21.630   8.253
 6460POPC   C3B21009  37.033  21.607   7.953
 6460POPC   C4B21010  36.950  21.624   7.653
 6461POPC   NC321011   4.336  10.520   9.453
 6461POPC   PO421012   4.279  10.564   9.153
 6461POPC   GL121013   4.365  10.567   8.853
 6461POPC   GL221014   4.319  10.679   8.853
 6461POPC   C1A21015   4.329  10.509   8.553
 6461POPC   D2A21016   4.359  10.537   8.253
 6461POPC   C3A21017   4.319  10.490   7.953
 6461POPC   C4A21018   4.328  10.488   7.653
 6461POPC   C1B21019   4.375  10.778   8.553
 6461POPC   C2B21020   4.325  10.802   8.253
 6461POPC   C3B21021   4.357  10.754   7.953
 6461POPC   C4B21022   4.343  10.805   7.653
 6462POPC   NC321023   1.195  19.037   9.453
 6462POPC   PO421024   1.168  19.041   9.153
 6462POPC   GL121025   1.226  19.106   8.853
 6462POPC   GL221026   1.381  19.007   8.853
 6462POPC   C1A21027   1.194  19.027   8.553
 6462POPC   D2A21028   1.189  19.047   8.253
 6462POPC   C3A21029   1.202  19.071   7.953
 6462POPC   C4A21030   1.183  19.083   7.653
 6462POPC   C1B21031   1.447  18.938   8.553
 6462POPC   C2B21032   1.477  18.930   8.253
 6462POPC   C3B21033   1.457  19.016   7.953
 6462POPC   C4B21034   1.483  18.966   7.653
 6463POPC   NC321035  13.666  24.456   9.453
 6463POPC   PO421036  13.648  24.449   9.153
 6463POPC   GL121037  13.588  24.534   8.853
 6463POPC   GL221038  13.728  24.538   8.853
 6463POPC   C1A21039  13.621  24.538   8.553
 6463POPC   D2A21040  13.606  24.455   8.253
 6463POPC   C3A21041  13.642  24.536   7.953
 6463POPC   C4A21042  13.615  24.487   7.653
 6463POPC   C1B21043  13.799  24.677   8.553
 6463POPC   C2B21044  13.806  24.629   8.253
 6463POPC   C3B21045  13.785  24.683   7.953
 6463POPC   C4B21046  13.817  24.654   7.653
 6464POPC   NC321047  44.651  24.449   9.453
 6464POPC   PO421048  44.703  24.501   9.153
 6464POPC   GL121049  44.679  24.500   8.853
 6464POPC   GL221050  44.730  24.595   8.853
 6464POPC   C1A21051  44.704  24.456   8.553
 6464POPC   D2A21052  44.656  24.452   8.253
 6464POPC   C3A21053  44.647  24.445   7.953
 6464POPC   C4A21054  44.675  24.517   7.653
 6464POPC   C1B21055  44.890  24.660   8.553
 6464POPC   C2B21056  44.846  24.641   8.253
 6464POPC   C3B21057  44.839  24.668   7.953
 6464POPC   C4B21058  44.870  24.658   7.653
 6465POPC   NC321059  43.838  11.251   9.453
 6465POPC   PO421060  43.921  11.341   9.153
 6465POPC   GL121061  43.921  11.347   8.853
 6465POPC   GL221062  43.926  11.399   8.853
 6465POPC   C1A21063  43.889  11.315   8.553
 6465POPC   D2A21064  43.854  11.261   8.253
 6465POPC   C3A21065  43.933  11.333   7.953
 6465POPC   C4A21066  43.862  11.289   7.653
 6465POPC   C1B21067  43.836  11.515   8.553
 6465POPC   C2B21068  43.850  11.508   8.253
 6465POPC   C3B21069  43.912  11.598   7.953
 6465POPC   C4B21070  43.870  11.542   7.653
 6466POPC   NC321071  12.073  33.026   9.453
 6466POPC   PO421072  12.118  32.985   9.153
 6466POPC   GL121073  12.062  33.001   8.853
 6466POPC   GL221074  12.151  32.908   8.853
 6466POPC   C1A21075  12.115  33.051   8.553
 6466POPC   D2A21076  12.077  33.015   8.253
 6466POPC   C3A21077  12.078  33.038   7.953
 6466POPC   C4A21078  12.100  33.035   7.653
 6466POPC   C1B21079  12.184  32.805   8.553
 6466POPC   C2B21080  12.250  32.815   8.253
 6466POPC   C3B21081  12.162  32.790   7.953
 6466POPC   C4B21082  12.178  32.812   7.653
 6467POPC   NC321083   7.422  43.075   9.453
 6467POPC   PO421084   7.371  43.097   9.153
 6467POPC   GL121085   7.403  43.151   8.853
 6467POPC   GL221086   7.310  43.181   8.853
 6467POPC   C1A21087   7.388  43.098   8.553
 6467POPC   D2A21088   7.467  43.101   8.253
 6467POPC   C3A21089   7.398  43.113   7.953
 6467POPC   C4A21090   7.404  43.124   7.653
 6467POPC   C1B21091   7.179  43.228   8.553
 6467POPC   C2B21092   7.178  43.279   8.253
 6467POPC   C3B21093   7.207  43.239   7.953
 6467POPC   C4B21094   7.215  43.214   7.653
 6468POPC   NC321095  23.736  14.379   9.453
 6468POPC   PO421096  23.678  14.453   9.153
 6468POPC   GL121097  23.753  14.364   8.853
 6468POPC   GL221098  23.668  14.326   8.853
 6468POPC   C1A21099  23.681  14.379   8.553
 6468POPC   D2A21100  23.739  14.408   8.253
 6468POPC   C3A21101  23.738  14.397   7.953
 6468POPC   C4A21102  23.736  14.410   7.653
 6468POPC   C1B21103  23.614  14.178   8.553
 6468POPC   C2B21104  23.652  14.125   8.253
 6468POPC   C3B21105  23.691  14.201   7.953
 6468POPC   C4B21106  23.641  14.178   7.653
 6469POPC   NC321107  23.742  15.190   9.453
 6469POPC   PO421108  23.752  15.136   9.153
 6469POPC   GL121109  23.743  15.222   8.853
 6469POPC   GL221110  23.660  15.065   8.853
 6469POPC   C1A21111  23.707  15.170   8.553
 6469POPC   D2A21112  23.759  15.149   8.253
 6469POPC   C3A21113  23.678  15.201   7.953
 6469POPC   C4A21114  23.668  15.209   7.653
 6469POPC   C1B21115  23.669  14.914   8.553
 6469POPC   C2B21116  23.643  14.967   8.253
 6469POPC   C3B21117  23.617  14.934   7.953
 6469POPC   C4B21118  23.655  14.912   7.653
 6470POPC   NC321119  34.591  14.387   9.453
 6470POPC   PO421120  34.599  14.453   9.153
 6470POPC   GL121121  34.570  14.402   8.853
 6470POPC   GL221122  34.601  14.277   8.853
 6470POPC   C1A21123  34.608  14.410   8.553
 6470POPC   D2A21124  34.599  14.401   8.253
 6470POPC   C3A21125  34.566  14.446   7.953
 6470POPC   C4A21126  34.620  14.448   7.653
 6470POPC   C1B21127  34.552  14.133   8.553
 6470POPC   C2B21128  34.499  14.124   8.253
 6470POPC   C3B21129  34.509  14.188   7.953
 6470POPC   C4B21130  34.566  14.111   7.653
 6471POPC   NC321131   6.679   5.831   9.453
 6471POPC   PO421132   6.653   5.853   9.153
 6471POPC   GL121133   6.665   5.844   8.853
 6471POPC   GL221134   6.534   5.960   8.853
 6471POPC   C1A21135   6.656   5.863   8.553
 6471POPC   D2A21136   6.682   5.857   8.253
 6471POPC   C3A21137   6.688   5.877   7.953
 6471POPC   C4A21138   6.681   5.857   7.653
 6471POPC   C1B21139   6.547   6.119   8.553
 6471POPC   C2B21140   6.565   6.058   8.253
 6471POPC   C3B21141   6.504   6.125   7.953
 6471POPC   C4B21142   6.532   6.095   7.653
 6472POPC   NC321143  36.113  38.410   9.453
 6472POPC   PO421144  36.089  38.422   9.153
 6472POPC   GL121145  36.089  38.405   8.853
 6472POPC   GL221146  36.163  38.294   8.853
 6472POPC   C1A21147  36.145  38.501   8.553
 6472POPC   D2A21148  36.158  38.454   8.253
 6472POPC   C3A21149  36.086  38.494   7.953
 6472POPC   C4A21150  36.149  38.425   7.653
 6472POPC   C1B21151  36.148  38.198   8.553
 6472POPC   C2B21152  36.118  38.174   8.253
 6472POPC   C3B21153  36.134  38.248   7.953
 6472POPC   C4B21154  36.134  38.234   7.653
 6473POPC   NC321155   8.230  33.806   9.453
 6473POPC   PO421156   8.167  33.798   9.153
 6473POPC   GL121157   8.176  33.766   8.853
 6473POPC   GL221158   8.285  33.917   8.853
 6473POPC   C1A21159   8.168  33.834   8.553
 6473POPC   D2A21160   8.193  33.764   8.253
 6473POPC   C3A21161   8.171  33.791   7.953
 6473POPC   C4A21162   8.186  33.838   7.653
 6473POPC   C1B21163   8.433  33.931   8.553
 6473POPC   C2B21164   8.354  33.934   8.253
 6473POPC   C3B21165   8.375  33.909   7.953
 6473POPC   C4B21166   8.435  33.988   7.653
 6474POPC   NC321167  33.029   9.798   9.453
 6474POPC   PO421168  32.978   9.777   9.153
 6474POPC   GL121169  33.030   9.745   8.853
 6474POPC   GL221170  33.037   9.622   8.853
 6474POPC   C1A21171  32.990   9.722   8.553
 6474POPC   D2A21172  33.036   9.722   8.253
 6474POPC   C3A21173  32.985   9.705   7.953
 6474POPC   C4A21174  33.003   9.753   7.653
 6474POPC   C1B21175  33.067   9.552   8.553
 6474POPC   C2B21176  33.129   9.475   8.253
 6474POPC   C3B21177  33.085   9.464   7.953
 6474POPC   C4B21178  33.107   9.475   7.653
 6475POPC   NC321179  17.533  40.782   9.453
 6475POPC   PO421180  17.529  40.742   9.153
 6475POPC   GL121181  17.478  40.756   8.853
 6475POPC   GL221182  17.520  40.852   8.853
 6475POPC   C1A21183  17.542  40.750   8.553
 6475POPC   D2A21184  17.489  40.809   8.253
 6475POPC   C3A21185  17.537  40.794   7.953
 6475POPC   C4A21186  17.543  40.829   7.653
 6475POPC   C1B21187  17.632  41.030   8.553
 6475POPC   C2B21188  17.629  41.048   8.253
 6475POPC   C3B21189  17.637  41.005   7.953
 6475POPC   C4B21190  17.596  40.983   7.653
 6476POPC   NC321191  33.048  30.692   9.453
 6476POPC   PO421192  33.032  30.676   9.153
 6476POPC   GL121193  32.985  30.673   8.853
 6476POPC   GL221194  32.873  30.801   8.853
 6476POPC   C1A21195  33.020  30.744   8.553
 6476POPC   D2A21196  32.984  30.703   8.253
 6476POPC   C3A21197  32.988  30.657   7.953
 6476POPC   C4A21198  33.071  30.705   7.653
 6476POPC   C1B21199  32.799  30.828   8.553
 6476POPC   C2B21200  32.785  30.838   8.253
 6476POPC   C3B21201  32.838  30.874   7.953
 6476POPC   C4B21202  32.857  30.799   7.653
 6477POPC   NC321203  32.981  22.918   9.453
 6477POPC   PO421204  33.039  22.892   9.153
 6477POPC   GL121205  33.035  22.957   8.853
 6477POPC   GL221206  33.065  23.055   8.853
 6477POPC   C1A21207  33.054  22.906   8.553
 6477POPC   D2A21208  33.029  22.925   8.253
 6477POPC   C3A21209  33.043  22.891   7.953
 6477POPC   C4A21210  32.979  22.944   7.653
 6477POPC   C1B21211  33.120  23.204   8.553
 6477POPC   C2B21212  33.062  23.212   8.253
 6477POPC   C3B21213  33.081  23.174   7.953
 6477POPC   C4B21214  33.048  23.154   7.653
 6478POPC   NC321215  21.398  15.954   9.453
 6478POPC   PO421216  21.390  15.915   9.153
 6478POPC   GL121217  21.415  15.956   8.853
 6478POPC   GL221218  21.452  16.051   8.853
 6478POPC   C1A21219  21.365  16.004   8.553
 6478POPC   D2A21220  21.348  15.974   8.253
 6478POPC   C3A21221  21.367  15.932   7.953
 6478POPC   C4A21222  21.347  15.909   7.653
 6478POPC   C1B21223  21.481  16.209   8.553
 6478POPC   C2B21224  21.461  16.218   8.253
 6478POPC   C3B21225  21.492  16.171   7.953
 6478POPC   C4B21226  21.512  16.200   7.653
 6479POPC   NC321227  28.379  31.438   9.453
 6479POPC   PO421228  28.346  31.423   9.153
 6479POPC   GL121229  28.370  31.445   8.853
 6479POPC   GL221230  28.518  31.388   8.853
 6479POPC   C1A21231  28.359  31.434   8.553
 6479POPC   D2A21232  28.418  31.508   8.253
 6479POPC   C3A21233  28.366  31.498   7.953
 6479POPC   C4A21234  28.350  31.430   7.653
 6479POPC   C1B21235  28.636  31.414   8.553
 6479POPC   C2B21236  28.596  31.442   8.253
 6479POPC   C3B21237  28.577  31.400   7.953
 6479POPC   C4B21238  28.563  31.426   7.653
 6480POPC   NC321239  19.096  37.661   9.453
 6480POPC   PO421240  19.087  37.633   9.153
 6480POPC   GL121241  19.085  37.650   8.853
 6480POPC   GL221242  19.087  37.512   8.853
 6480POPC   C1A21243  19.099  37.636   8.553
 6480POPC   D2A21244  19.108  37.727   8.253
 6480POPC   C3A21245  19.054  37.642   7.953
 6480POPC   C4A21246  19.099  37.725   7.653
 6480POPC   C1B21247  18.988  37.404   8.553
 6480POPC   C2B21248  19.016  37.416   8.253
 6480POPC   C3B21249  18.998  37.402   7.953
 6480POPC   C4B21250  18.980  37.472   7.653
 6481POPC   NC321251  14.443  22.986   9.453
 6481POPC   PO421252  14.407  22.982   9.153
 6481POPC   GL121253  14.450  22.927   8.853
 6481POPC   GL221254  14.299  22.967   8.853
 6481POPC   C1A21255  14.379  22.977   8.553
 6481POPC   D2A21256  14.447  22.906   8.253
 6481POPC   C3A21257  14.367  22.972   7.953
 6481POPC   C4A21258  14.396  22.892   7.653
 6481POPC   C1B21259  14.172  23.101   8.553
 6481POPC   C2B21260  14.215  23.107   8.253
 6481POPC   C3B21261  14.233  23.017   7.953
 6481POPC   C4B21262  14.171  23.062   7.653
 6482POPC   NC321263  25.225  17.523   9.453
 6482POPC   PO421264  25.256  17.458   9.153
 6482POPC   GL121265  25.217  17.520   8.853
 6482POPC   GL221266  25.269  17.395   8.853
 6482POPC   C1A21267  25.309  17.481   8.553
 6482POPC   D2A21268  25.256  17.553   8.253
 6482POPC   C3A21269  25.302  17.501   7.953
 6482POPC   C4A21270  25.312  17.508   7.653
 6482POPC   C1B21271  25.155  17.219   8.553
 6482POPC   C2B21272  25.152  17.238   8.253
 6482POPC   C3B21273  25.213  17.303   7.953
 6482POPC   C4B21274  25.157  17.246   7.653
 6483POPC   NC321275  29.158  37.689   9.453
 6483POPC   PO421276  29.103  37.683   9.153
 6483POPC   GL121277  29.103  37.680   8.853
 6483POPC   GL221278  29.159  37.779   8.853
 6483POPC   C1A21279  29.149  37.686   8.553
 6483POPC   D2A21280  29.100  37.684   8.253
 6483POPC   C3A21281  29.175  37.702   7.953
 6483POPC   C4A21282  29.118  37.649   7.653
 6483POPC   C1B21283  29.102  37.927   8.553
 6483POPC   C2B21284  29.103  37.917   8.253
 6483POPC   C3B21285  29.192  37.955   7.953
 6483POPC   C4B21286  29.114  37.925   7.653
 6484POPC   NC321287   9.773  34.598   9.453
 6484POPC   PO421288   9.716  34.625   9.153
 6484POPC   GL121289   9.782  34.547   8.853
 6484POPC   GL221290   9.850  34.509   8.853
 6484POPC   C1A21291   9.706  34.554   8.553
 6484POPC   D2A21292   9.725  34.616   8.253
 6484POPC   C3A21293   9.761  34.534   7.953
 6484POPC   C4A21294   9.715  34.558   7.653
 6484POPC   C1B21295   9.932  34.426   8.553
 6484POPC   C2B21296   9.972  34.382   8.253
 6484POPC   C3B21297   9.920  34.436   7.953
 6484POPC   C4B21298   9.925  34.377   7.653
 6485POPC   NC321299   9.015  10.553   9.453
 6485POPC   PO421300   8.927  10.573   9.153
 6485POPC   GL121301   8.960  10.535   8.853
 6485POPC   GL221302   9.078  10.462   8.853
 6485POPC   C1A21303   8.961  10.492   8.553
 6485POPC   D2A21304   8.970  10.513   8.253
 6485POPC   C3A21305   9.022  10.503   7.953
 6485POPC   C4A21306   8.945  10.564   7.653
 6485POPC   C1B21307   9.143  10.330   8.553
 6485POPC   C2B21308   9.135  10.297   8.253
 6485POPC   C3B21309   9.068  10.359   7.953
 6485POPC   C4B21310   9.126  10.332   7.653
 6486POPC   NC321311  12.867  36.099   9.453
 6486POPC   PO421312  12.853  36.151   9.153
 6486POPC   GL121313  12.809  36.092   8.853
 6486POPC   GL221314  12.883  36.215   8.853
 6486POPC   C1A21315  12.867  36.127   8.553
 6486POPC   D2A21316  12.830  36.137   8.253
 6486POPC   C3A21317  12.892  36.143   7.953
 6486POPC   C4A21318  12.837  36.138   7.653
 6486POPC   C1B21319  12.988  36.400   8.553
 6486POPC   C2B21320  12.927  36.320   8.253
 6486POPC   C3B21321  12.980  36.364   7.953
 6486POPC   C4B21322  12.963  36.392   7.653
 6487POPC   NC321323   4.282   8.166   9.453
 6487POPC   PO421324   4.285   8.178   9.153
 6487POPC   GL121325   4.288   8.236   8.853
 6487POPC   GL221326   4.407   8.141   8.853
 6487POPC   C1A21327   4.313   8.178   8.553
 6487POPC   D2A21328   4.323   8.239   8.253
 6487POPC   C3A21329   4.297   8.170   7.953
 6487POPC   C4A21330   4.360   8.165   7.653
 6487POPC   C1B21331   4.469   8.021   8.553
 6487POPC   C2B21332   4.465   8.063   8.253
 6487POPC   C3B21333   4.552   8.030   7.953
 6487POPC   C4B21334   4.502   8.040   7.653
 6488POPC   NC321335  15.909  24.454   9.453
 6488POPC   PO421336  16.003  24.509   9.153
 6488POPC   GL121337  15.918  24.445   8.853
 6488POPC   GL221338  15.822  24.476   8.853
 6488POPC   C1A21339  15.986  24.489   8.553
 6488POPC   D2A21340  15.979  24.440   8.253
 6488POPC   C3A21341  15.910  24.515   7.953
 6488POPC   C4A21342  15.909  24.469   7.653
 6488POPC   C1B21343  15.722  24.469   8.553
 6488POPC   C2B21344  15.684  24.417   8.253
 6488POPC   C3B21345  15.740  24.474   7.953
 6488POPC   C4B21346  15.716  24.474   7.653
 6489POPC   NC321347  34.534   1.970   9.453
 6489POPC   PO421348  34.531   1.972   9.153
 6489POPC   GL121349  34.592   1.973   8.853
 6489POPC   GL221350  34.702   1.961   8.853
 6489POPC   C1A21351  34.583   1.975   8.553
 6489POPC   D2A21352  34.533   2.039   8.253
 6489POPC   C3A21353  34.533   1.991   7.953
 6489POPC   C4A21354  34.625   1.948   7.653
 6489POPC   C1B21355  34.846   1.925   8.553
 6489POPC   C2B21356  34.799   1.986   8.253
 6489POPC   C3B21357  34.821   1.973   7.953
 6489POPC   C4B21358  34.821   1.963   7.653
 6490POPC   NC321359  20.584  18.252   9.453
 6490POPC   PO421360  20.578  18.257   9.153
 6490POPC   GL121361  20.595  18.296   8.853
 6490POPC   GL221362  20.648  18.220   8.853
 6490POPC   C1A21363  20.600  18.251   8.553
 6490POPC   D2A21364  20.611  18.327   8.253
 6490POPC   C3A21365  20.612  18.324   7.953
 6490POPC   C4A21366  20.651  18.268   7.653
 6490POPC   C1B21367  20.750  18.067   8.553
 6490POPC   C2B21368  20.747  18.051   8.253
 6490POPC   C3B21369  20.735  18.047   7.953
 6490POPC   C4B21370  20.753  18.086   7.653
 6491POPC   NC321371  18.273   7.395   9.453
 6491POPC   PO421372  18.312   7.450   9.153
 6491POPC   GL121373  18.313   7.453   8.853
 6491POPC   GL221374  18.399   7.453   8.853
 6491POPC   C1A21375  18.288   7.379   8.553
 6491POPC   D2A21376  18.325   7.376   8.253
 6491POPC   C3A21377  18.301   7.434   7.953
 6491POPC   C4A21378  18.331   7.375   7.653
 6491POPC   C1B21379  18.567   7.469   8.553
 6491POPC   C2B21380  18.534   7.443   8.253
 6491POPC   C3B21381  18.488   7.426   7.953
 6491POPC   C4B21382  18.561   7.479   7.653
 6492POPC   NC321383   0.448  40.043   9.453
 6492POPC   PO421384   0.418  40.030   9.153
 6492POPC   GL121385   0.446  40.002   8.853
 6492POPC   GL221386   0.506  39.879   8.853
 6492POPC   C1A21387   0.486  40.010   8.553
 6492POPC   D2A21388   0.431  39.985   8.253
 6492POPC   C3A21389   0.416  39.969   7.953
 6492POPC   C4A21390   0.405  39.974   7.653
 6492POPC   C1B21391   0.558  39.791   8.553
 6492POPC   C2B21392   0.599  39.852   8.253
 6492POPC   C3B21393   0.558  39.802   7.953
 6492POPC   C4B21394   0.621  39.795   7.653
 6493POPC   NC321395  22.891  31.518   9.453
 6493POPC   PO421396  22.906  31.478   9.153
 6493POPC   GL121397  22.984  31.513   8.853
 6493POPC   GL221398  22.996  31.523   8.853
 6493POPC   C1A21399  22.936  31.492   8.553
 6493POPC   D2A21400  22.929  31.443   8.253
 6493POPC   C3A21401  22.920  31.456   7.953
 6493POPC   C4A21402  22.907  31.453   7.653
 6493POPC   C1B21403  23.192  31.611   8.553
 6493POPC   C2B21404  23.155  31.610   8.253
 6493POPC   C3B21405  23.173  31.575   7.953
 6493POPC   C4B21406  23.181  31.561   7.653
 6494POPC   NC321407   6.665  42.353   9.453
 6494POPC   PO421408   6.691  42.372   9.153
 6494POPC   GL121409   6.599  42.348   8.853
 6494POPC   GL221410   6.513  42.305   8.853
 6494POPC   C1A21411   6.683  42.344   8.553
 6494POPC   D2A21412   6.606  42.348   8.253
 6494POPC   C3A21413   6.595  42.363   7.953
 6494POPC   C4A21414   6.686  42.341   7.653
 6494POPC   C1B21415   6.358  42.352   8.553
 6494POPC   C2B21416   6.435  42.356   8.253
 6494POPC   C3B21417   6.443  42.351   7.953
 6494POPC   C4B21418   6.386  42.283   7.653
 6495POPC   NC321419  22.164  33.017   9.453
 6495POPC   PO421420  22.134  33.029   9.153
 6495POPC   GL121421  22.197  33.036   8.853
 6495POPC   GL221422  22.172  32.852   8.853
 6495POPC   C1A21423  22.148  32.988   8.553
 6495POPC   D2A21424  22.154  32.998   8.253
 6495POPC   C3A21425  22.145  32.981   7.953
 6495POPC   C4A21426  22.152  33.034   7.653
 6495POPC   C1B21427  22.219  32.773   8.553
 6495POPC   C2B21428  22.133  32.728   8.253
 6495POPC   C3B21429  22.177  32.815   7.953
 6495POPC   C4B21430  22.170  32.797   7.653
 6496POPC   NC321431   8.991  41.571   9.453
 6496POPC   PO421432   8.959  41.596   9.153
 6496POPC   GL121433   8.930  41.566   8.853
 6496POPC   GL221434   8.914  41.663   8.853
 6496POPC   C1A21435   8.944  41.598   8.553
 6496POPC   D2A21436   8.958  41.560   8.253
 6496POPC   C3A21437   8.997  41.529   7.953
 6496POPC   C4A21438   8.961  41.514   7.653
 6496POPC   C1B21439   8.929  41.811   8.553
 6496POPC   C2B21440   8.870  41.811   8.253
 6496POPC   C3B21441   8.911  41.766   7.953
 6496POPC   C4B21442   8.908  41.834   7.653
 6497POPC   NC321443  31.488  25.222   9.453
 6497POPC   PO421444  31.442  25.290   9.153
 6497POPC   GL121445  31.481  25.223   8.853
 6497POPC   GL221446  31.601  25.208   8.853
 6497POPC   C1A21447  31.505  25.309   8.553
 6497POPC   D2A21448  31.491  25.315   8.253
 6497POPC   C3A21449  31.497  25.217   7.953
 6497POPC   C4A21450  31.503  25.285   7.653
 6497POPC   C1B21451  31.725  25.257   8.553
 6497POPC   C2B21452  31.674  25.192   8.253
 6497POPC   C3B21453  31.751  25.256   7.953
 6497POPC   C4B21454  31.767  25.202   7.653
 6498POPC   NC321455   8.982   5.902   9.453
 6498POPC   PO421456   9.001   5.852   9.153
 6498POPC   GL121457   8.929   5.912   8.853
 6498POPC   GL221458   9.017   5.959   8.853
 6498POPC   C1A21459   8.943   5.855   8.553
 6498POPC   D2A21460   8.982   5.834   8.253
 6498POPC   C3A21461   8.940   5.846   7.953
 6498POPC   C4A21462   8.969   5.911   7.653
 6498POPC   C1B21463   9.096   6.057   8.553
 6498POPC   C2B21464   9.065   6.093   8.253
 6498POPC   C3B21465   9.098   6.107   7.953
 6498POPC   C4B21466   9.145   6.033   7.653
 6499POPC   NC321467  42.329  22.116   9.453
 6499POPC   PO421468  42.301  22.142   9.153
 6499POPC   GL121469  42.338  22.168   8.853
 6499POPC   GL221470  42.399  22.032   8.853
 6499POPC   C1A21471  42.327  22.169   8.553
 6499POPC   D2A21472  42.295  22.144   8.253
 6499POPC   C3A21473  42.301  22.205   7.953
 6499POPC   C4A21474  42.357  22.169   7.653
 6499POPC   C1B21475  42.495  21.915   8.553
 6499POPC   C2B21476  42.496  21.979   8.253
 6499POPC   C3B21477  42.530  21.988   7.953
 6499POPC   C4B21478  42.453  21.999   7.653
 6500POPC   NC321479  43.888   9.755   9.453
 6500POPC   PO421480  43.876   9.749   9.153
 6500POPC   GL121481  43.882   9.735   8.853
 6500POPC   GL221482  44.022   9.674   8.853
 6500POPC   C1A21483  43.845   9.702   8.553
 6500POPC   D2A21484  43.892   9.732   8.253
 6500POPC   C3A21485  43.921   9.706   7.953
 6500POPC   C4A21486  43.900   9.756   7.653
 6500POPC   C1B21487  44.046   9.564   8.553
 6500POPC   C2B21488  44.037   9.582   8.253
 6500POPC   C3B21489  44.101   9.579   7.953
 6500POPC   C4B21490  44.070   9.552   7.653
 6501POPC   NC321491  12.093  16.735   9.453
 6501POPC   PO421492  12.039  16.757   9.153
 6501POPC   GL121493  12.064  16.722   8.853
 6501POPC   GL221494  12.146  16.632   8.853
 6501POPC   C1A21495  12.118  16.731   8.553
 6501POPC   D2A21496  12.113  16.719   8.253
 6501POPC   C3A21497  12.102  16.738   7.953
 6501POPC   C4A21498  12.061  16.686   7.653
 6501POPC   C1B21499  12.246  16.604   8.553
 6501POPC   C2B21500  12.279  16.547   8.253
 6501POPC   C3B21501  12.214  16.602   7.953
 6501POPC   C4B21502  12.293  16.607   7.653
 6502POPC   NC321503  12.039  19.841   9.453
 6502POPC   PO421504  12.124  19.882   9.153
 6502POPC   GL121505  12.094  19.865   8.853
 6502POPC   GL221506  12.104  19.695   8.853
 6502POPC   C1A21507  12.079  19.787   8.553
 6502POPC   D2A21508  12.048  19.832   8.253
 6502POPC   C3A21509  12.093  19.814   7.953
 6502POPC   C4A21510  12.044  19.820   7.653
 6502POPC   C1B21511  12.051  19.562   8.553
 6502POPC   C2B21512  12.058  19.542   8.253
 6502POPC   C3B21513  12.101  19.601   7.953
 6502POPC   C4B21514  12.102  19.596   7.653
 6503POPC   NC321515   9.706  37.652   9.453
 6503POPC   PO421516   9.737  37.713   9.153
 6503POPC   GL121517   9.782  37.722   8.853
 6503POPC   GL221518   9.918  37.667   8.853
 6503POPC   C1A21519   9.718  37.717   8.553
 6503POPC   D2A21520   9.794  37.729   8.253
 6503POPC   C3A21521   9.779  37.682   7.953
 6503POPC   C4A21522   9.747  37.727   7.653
 6503POPC   C1B21523   9.967  37.703   8.553
 6503POPC   C2B21524  10.041  37.769   8.253
 6503POPC   C3B21525  10.032  37.746   7.953
 6503POPC   C4B21526  10.032  37.687   7.653
 6504POPC   NC321527   9.744   0.395   9.453
 6504POPC   PO421528   9.724   0.422   9.153
 6504POPC   GL121529   9.736   0.394   8.853
 6504POPC   GL221530   9.919   0.424   8.853
 6504POPC   C1A21531   9.788   0.470   8.553
 6504POPC   D2A21532   9.708   0.413   8.253
 6504POPC   C3A21533   9.780   0.393   7.953
 6504POPC   C4A21534   9.749   0.391   7.653
 6504POPC   C1B21535  10.000   0.416   8.553
 6504POPC   C2B21536  10.024   0.410   8.253
 6504POPC   C3B21537  10.042   0.381   7.953
 6504POPC   C4B21538  10.020   0.368   7.653
 6505POPC   NC321539  23.704  32.238   9.453
 6505POPC   PO421540  23.761  32.292   9.153
 6505POPC   GL121541  23.742  32.216   8.853
 6505POPC   GL221542  23.723  32.119   8.853
 6505POPC   C1A21543  23.737  32.296   8.553
 6505POPC   D2A21544  23.666  32.264   8.253
 6505POPC   C3A21545  23.754  32.249   7.953
 6505POPC   C4A21546  23.704  32.239   7.653
 6505POPC   C1B21547  23.836  32.065   8.553
 6505POPC   C2B21548  23.829  32.007   8.253
 6505POPC   C3B21549  23.812  32.055   7.953
 6505POPC   C4B21550  23.829  32.000   7.653
 6506POPC   NC321551  23.711  28.418   9.453
 6506POPC   PO421552  23.752  28.360   9.153
 6506POPC   GL121553  23.757  28.327   8.853
 6506POPC   GL221554  23.695  28.484   8.853
 6506POPC   C1A21555  23.761  28.409   8.553
 6506POPC   D2A21556  23.707  28.412   8.253
 6506POPC   C3A21557  23.744  28.367   7.953
 6506POPC   C4A21558  23.752  28.335   7.653
 6506POPC   C1B21559  23.755  28.628   8.553
 6506POPC   C2B21560  23.721  28.667   8.253
 6506POPC   C3B21561  23.754  28.575   7.953
 6506POPC   C4B21562  23.705  28.643   7.653
 6507POPC   NC321563   9.011  26.816   9.453
 6507POPC   PO421564   9.000  26.787   9.153
 6507POPC   GL121565   8.957  26.776   8.853
 6507POPC   GL221566   8.915  26.761   8.853
 6507POPC   C1A21567   9.018  26.816   8.553
 6507POPC   D2A21568   8.952  26.800   8.253
 6507POPC   C3A21569   8.978  26.835   7.953
 6507POPC   C4A21570   8.932  26.812   7.653
 6507POPC   C1B21571   8.806  26.581   8.553
 6507POPC   C2B21572   8.794  26.565   8.253
 6507POPC   C3B21573   8.828  26.644   7.953
 6507POPC   C4B21574   8.800  26.621   7.653
 6508POPC   NC321575  33.811  10.559   9.453
 6508POPC   PO421576  33.839  10.524   9.153
 6508POPC   GL121577  33.804  10.546   8.853
 6508POPC   GL221578  33.913  10.616   8.853
 6508POPC   C1A21579  33.805  10.568   8.553
 6508POPC   D2A21580  33.757  10.528   8.253
 6508POPC   C3A21581  33.778  10.480   7.953
 6508POPC   C4A21582  33.788  10.504   7.653
 6508POPC   C1B21583  34.025  10.661   8.553
 6508POPC   C2B21584  33.982  10.639   8.253
 6508POPC   C3B21585  34.018  10.678   7.953
 6508POPC   C4B21586  34.048  10.596   7.653
 6509POPC   NC321587   2.032  21.432   9.453
 6509POPC   PO421588   1.999  21.363   9.153
 6509POPC   GL121589   2.028  21.381   8.853
 6509POPC   GL221590   1.855  21.371   8.853
 6509POPC   C1A21591   2.011  21.339   8.553
 6509POPC   D2A21592   1.978  21.366   8.253
 6509POPC   C3A21593   1.960  21.377   7.953
 6509POPC   C4A21594   1.942  21.361   7.653
 6509POPC   C1B21595   1.711  21.368   8.553
 6509POPC   C2B21596   1.748  21.432   8.253
 6509POPC   C3B21597   1.703  21.400   7.953
 6509POPC   C4B21598   1.719  21.387   7.653
 6510POPC   NC321599   5.054  41.566   9.453
 6510POPC   PO421600   5.129  41.534   9.153
 6510POPC   GL121601   5.142  41.572   8.853
 6510POPC   GL221602   5.217  41.557   8.853
 6510POPC   C1A21603   5.051  41.568   8.553
 6510POPC   D2A21604   5.076  41.520   8.253
 6510POPC   C3A21605   5.109  41.578   7.953
 6510POPC   C4A21606   5.116  41.581   7.653
 6510POPC   C1B21607   5.353  41.492   8.553
 6510POPC   C2B21608   5.320  41.541   8.253
 6510POPC   C3B21609   5.315  41.500   7.953
 6510POPC   C4B21610   5.319  41.533   7.653
 6511POPC   NC321611  12.883   8.160   9.453
 6511POPC   PO421612  12.832   8.211   9.153
 6511POPC   GL121613  12.833   8.180   8.853
 6511POPC   GL221614  12.727   8.266   8.853
 6511POPC   C1A21615  12.807   8.183   8.553
 6511POPC   D2A21616  12.871   8.230   8.253
 6511POPC   C3A21617  12.886   8.217   7.953
 6511POPC   C4A21618  12.857   8.240   7.653
 6511POPC   C1B21619  12.588   8.235   8.553
 6511POPC   C2B21620  12.620   8.259   8.253
 6511POPC   C3B21621  12.642   8.275   7.953
 6511POPC   C4B21622  12.621   8.318   7.653
 6512POPC   NC321623   7.436  32.234   9.453
 6512POPC   PO421624   7.409  32.297   9.153
 6512POPC   GL121625   7.454  32.292   8.853
 6512POPC   GL221626   7.466  32.365   8.853
 6512POPC   C1A21627   7.372  32.281   8.553
 6512POPC   D2A21628   7.437  32.275   8.253
 6512POPC   C3A21629   7.412  32.292   7.953
 6512POPC   C4A21630   7.427  32.291   7.653
 6512POPC   C1B21631   7.457  32.501   8.553
 6512POPC   C2B21632   7.451  32.526   8.253
 6512POPC   C3B21633   7.435  32.480   7.953
 6512POPC   C4B21634   7.399  32.535   7.653
 6513POPC   NC321635  36.950   0.411   9.453
 6513POPC   PO421636  36.880   0.452   9.153
 6513POPC   GL121637  36.901   0.411   8.853
 6513POPC   GL221638  37.003   0.575   8.853
 6513POPC   C1A21639  36.871   0.424   8.553
 6513POPC   D2A21640  36.854   0.393   8.253
 6513POPC   C3A21641  36.939   0.440   7.953
 6513POPC   C4A21642  36.862   0.454   7.653
 6513POPC   C1B21643  37.056   0.597   8.553
 6513POPC   C2B21644  37.081   0.648   8.253
 6513POPC   C3B21645  37.064   0.596   7.953
 6513POPC   C4B21646  37.045   0.578   7.653
 6514POPC   NC321647  26.846   4.296   9.453
 6514POPC   PO421648  26.843   4.342   9.153
 6514POPC   GL121649  26.822   4.355   8.853
 6514POPC   GL221650  26.759   4.242   8.853
 6514POPC   C1A21651  26.810   4.358   8.553
 6514POPC   D2A21652  26.777   4.356   8.253
 6514POPC   C3A21653  26.789   4.345   7.953
 6514POPC   C4A21654  26.770   4.292   7.653
 6514POPC   C1B21655  26.623   4.153   8.553
 6514POPC   C2B21656  26.624   4.105   8.253
 6514POPC   C3B21657  26.643   4.131   7.953
 6514POPC   C4B21658  26.680   4.097   7.653
 6515POPC   NC321659   5.139  20.591   9.453
 6515POPC   PO421660   5.097  20.650   9.153
 6515POPC   GL121661   5.050  20.639   8.853
 6515POPC   GL221662   5.174  20.521   8.853
 6515POPC   C1A21663   5.102  20.587   8.553
 6515POPC   D2A21664   5.124  20.660   8.253
 6515POPC   C3A21665   5.105  20.566   7.953
 6515POPC   C4A21666   5.089  20.629   7.653
 6515POPC   C1B21667   5.256  20.435   8.553
 6515POPC   C2B21668   5.253  20.397   8.253
 6515POPC   C3B21669   5.222  20.376   7.953
 6515POPC   C4B21670   5.291  20.437   7.653
 6516POPC   NC321671  32.988   1.248   9.453
 6516POPC   PO421672  33.055   1.199   9.153
 6516POPC   GL121673  33.065   1.197   8.853
 6516POPC   GL221674  33.107   1.296   8.853
 6516POPC   C1A21675  33.040   1.243   8.553
 6516POPC   D2A21676  33.009   1.250   8.253
 6516POPC   C3A21677  33.058   1.166   7.953
 6516POPC   C4A21678  32.989   1.259   7.653
 6516POPC   C1B21679  33.219   1.246   8.553
 6516POPC   C2B21680  33.270   1.313   8.253
 6516POPC   C3B21681  33.299   1.262   7.953
 6516POPC   C4B21682  33.232   1.253   7.653
 6517POPC   NC321683  37.677  43.103   9.453
 6517POPC   PO421684  37.671  43.103   9.153
 6517POPC   GL121685  37.670  43.158   8.853
 6517POPC   GL221686  37.710  43.242   8.853
 6517POPC   C1A21687  37.695  43.137   8.553
 6517POPC   D2A21688  37.656  43.147   8.253
 6517POPC   C3A21689  37.646  43.096   7.953
 6517POPC   C4A21690  37.676  43.134   7.653
 6517POPC   C1B21691  37.787  43.312   8.553
 6517POPC   C2B21692  37.712  43.321   8.253
 6517POPC   C3B21693  37.766  43.367   7.953
 6517POPC   C4B21694  37.766  43.328   7.653
 6518POPC   NC321695  29.185  12.809   9.453
 6518POPC   PO421696  29.144  12.872   9.153
 6518POPC   GL121697  29.136  12.835   8.853
 6518POPC   GL221698  29.166  12.692   8.853
 6518POPC   C1A21699  29.170  12.900   8.553
 6518POPC   D2A21700  29.148  12.859   8.253
 6518POPC   C3A21701  29.101  12.869   7.953
 6518POPC   C4A21702  29.113  12.840   7.653
 6518POPC   C1B21703  29.180  12.558   8.553
 6518POPC   C2B21704  29.178  12.635   8.253
 6518POPC   C3B21705  29.198  12.620   7.953
 6518POPC   C4B21706  29.181  12.563   7.653
 6519POPC   NC321707  14.373  29.875   9.453
 6519POPC   PO421708  14.407  29.918   9.153
 6519POPC   GL121709  14.430  29.958   8.853
 6519POPC   GL221710  14.279  29.967   8.853
 6519POPC   C1A21711  14.358  29.951   8.553
 6519POPC   D2A21712  14.401  29.893   8.253
 6519POPC   C3A21713  14.372  29.924   7.953
 6519POPC   C4A21714  14.418  29.908   7.653
 6519POPC   C1B21715  14.212  30.032   8.553
 6519POPC   C2B21716  14.207  30.091   8.253
 6519POPC   C3B21717  14.206  30.076   7.953
 6519POPC   C4B21718  14.153  30.097   7.653
 6520POPC   NC321719  43.105  27.610   9.453
 6520POPC   PO421720  43.141  27.552   9.153
 6520POPC   GL121721  43.159  27.579   8.853
 6520POPC   GL221722  43.182  27.470   8.853
 6520POPC   C1A21723  43.153  27.586   8.553
 6520POPC   D2A21724  43.101  27.566   8.253
 6520POPC   C3A21725  43.115  27.587   7.953
 6520POPC   C4A21726  43.119  27.610   7.653
 6520POPC   C1B21727  43.248  27.424   8.553
 6520POPC   C2B21728  43.277  27.401   8.253
 6520POPC   C3B21729  43.247  27.412   7.953
 6520POPC   C4B21730  43.205  27.391   7.653
 6521POPC   NC321731  14.386   7.445   9.453
 6521POPC   PO421732  14.406   7.390   9.153
 6521POPC   GL121733  14.412   7.378   8.853
 6521POPC   GL221734  14.359   7.273   8.853
 6521POPC   C1A21735  14.431   7.380   8.553
 6521POPC   D2A21736  14.384   7.418   8.253
 6521POPC   C3A21737  14.415   7.371   7.953
 6521POPC   C4A21738  14.430   7.421   7.653
 6521POPC   C1B21739  14.395   7.185   8.553
 6521POPC   C2B21740  14.432   7.197   8.253
 6521POPC   C3B21741  14.418   7.199   7.953
 6521POPC   C4B21742  14.432   7.180   7.653
 6522POPC   NC321743  42.306  32.270   9.453
 6522POPC   PO421744  42.344  32.215   9.153
 6522POPC   GL121745  42.359  32.255   8.853
 6522POPC   GL221746  42.426  32.167   8.853
 6522POPC   C1A21747  42.307  32.222   8.553
 6522POPC   D2A21748  42.318  32.286   8.253
 6522POPC   C3A21749  42.302  32.251   7.953
 6522POPC   C4A21750  42.344  32.206   7.653
 6522POPC   C1B21751  42.514  32.142   8.553
 6522POPC   C2B21752  42.530  32.091   8.253
 6522POPC   C3B21753  42.579  32.155   7.953
 6522POPC   C4B21754  42.590  32.114   7.653
 6523POPC   NC321755  15.939   0.486   9.453
 6523POPC   PO421756  15.950   0.480   9.153
 6523POPC   GL121757  15.993   0.475   8.853
 6523POPC   GL221758  16.028   0.339   8.853
 6523POPC   C1A21759  15.995   0.450   8.553
 6523POPC   D2A21760  15.914   0.443   8.253
 6523POPC   C3A21761  15.966   0.473   7.953
 6523POPC   C4A21762  15.942   0.479   7.653
 6523POPC   C1B21763  16.039   0.180   8.553
 6523POPC   C2B21764  16.050   0.188   8.253
 6523POPC   C3B21765  16.020   0.196   7.953
 6523POPC   C4B21766  16.070   0.201   7.653
 6524POPC   NC321767  17.478  43.132   9.453
 6524POPC   PO421768  17.523  43.137   9.153
 6524POPC   GL121769  17.535  43.099   8.853
 6524POPC   GL221770  17.591  43.224   8.853
 6524POPC   C1A21771  17.501  43.105   8.553
 6524POPC   D2A21772  17.484  43.139   8.253
 6524POPC   C3A21773  17.537  43.103   7.953
 6524POPC   C4A21774  17.499  43.080   7.653
 6524POPC   C1B21775  17.682  43.292   8.553
 6524POPC   C2B21776  17.667  43.236   8.253
 6524POPC   C3B21777  17.743  43.266   7.953
 6524POPC   C4B21778  17.748  43.285   7.653
 6525POPC   NC321779  37.656  44.672   9.453
 6525POPC   PO421780  37.724  44.666   9.153
 6525POPC   GL121781  37.662  44.638   8.853
 6525POPC   GL221782  37.783  44.770   8.853
 6525POPC   C1A21783  37.696  44.697   8.553
 6525POPC   D2A21784  37.684  44.645   8.253
 6525POPC   C3A21785  37.689  44.673   7.953
 6525POPC   C4A21786  37.717  44.639   7.653
 6525POPC   C1B21787  37.914  44.842   8.553
 6525POPC   C2B21788  37.868  44.829   8.253
 6525POPC   C3B21789  37.905  44.834   7.953
 6525POPC   C4B21790  37.881  44.778   7.653
 6526POPC   NC321791   2.725  36.115   9.453
 6526POPC   PO421792   2.754  36.115   9.153
 6526POPC   GL121793   2.739  36.174   8.853
 6526POPC   GL221794   2.687  36.091   8.853
 6526POPC   C1A21795   2.720  36.157   8.553
 6526POPC   D2A21796   2.725  36.144   8.253
 6526POPC   C3A21797   2.724  36.158   7.953
 6526POPC   C4A21798   2.741  36.112   7.653
 6526POPC   C1B21799   2.597  35.936   8.553
 6526POPC   C2B21800   2.572  36.012   8.253
 6526POPC   C3B21801   2.566  36.017   7.953
 6526POPC   C4B21802   2.521  35.977   7.653
 6527POPC   NC321803  24.454   5.055   9.453
 6527POPC   PO421804  24.458   5.070   9.153
 6527POPC   GL121805  24.495   5.054   8.853
 6527POPC   GL221806  24.557   5.020   8.853
 6527POPC   C1A21807  24.516   5.120   8.553
 6527POPC   D2A21808  24.503   5.119   8.253
 6527POPC   C3A21809  24.518   5.125   7.953
 6527POPC   C4A21810  24.448   5.089   7.653
 6527POPC   C1B21811  24.723   5.044   8.553
 6527POPC   C2B21812  24.738   5.009   8.253
 6527POPC   C3B21813  24.750   5.004   7.953
 6527POPC   C4B21814  24.752   5.049   7.653
 6528POPC   NC321815  42.291  42.290   9.453
 6528POPC   PO421816  42.340  42.286   9.153
 6528POPC   GL121817  42.315  42.286   8.853
 6528POPC   GL221818  42.466  42.248   8.853
 6528POPC   C1A21819  42.299  42.358   8.553
 6528POPC   D2A21820  42.313  42.316   8.253
 6528POPC   C3A21821  42.312  42.337   7.953
 6528POPC   C4A21822  42.348  42.375   7.653
 6528POPC   C1B21823  42.614  42.215   8.553
 6528POPC   C2B21824  42.601  42.238   8.253
 6528POPC   C3B21825  42.578  42.289   7.953
 6528POPC   C4B21826  42.610  42.251   7.653
 6529POPC   NC321827  32.219  16.726   9.453
 6529POPC   PO421828  32.277  16.748   9.153
 6529POPC   GL121829  32.228  16.761   8.853
 6529POPC   GL221830  32.157  16.859   8.853
 6529POPC   C1A21831  32.253  16.735   8.553
 6529POPC   D2A21832  32.254  16.736   8.253
 6529POPC   C3A21833  32.205  16.752   7.953
 6529POPC   C4A21834  32.249  16.706   7.653
 6529POPC   C1B21835  32.037  16.915   8.553
 6529POPC   C2B21836  32.027  16.906   8.253
 6529POPC   C3B21837  32.102  16.911   7.953
 6529POPC   C4B21838  32.095  16.905   7.653
 6530POPC   NC321839   0.428  11.266   9.453
 6530POPC   PO421840   0.436  11.284   9.153
 6530POPC   GL121841   0.403  11.336   8.853
 6530POPC   GL221842   0.511  11.441   8.853
 6530POPC   C1A21843   0.464  11.307   8.553
 6530POPC   D2A21844   0.390  11.347   8.253
 6530POPC   C3A21845   0.414  11.287   7.953
 6530POPC   C4A21846   0.402  11.347   7.653
 6530POPC   C1B21847   0.550  11.556   8.553
 6530POPC   C2B21848   0.482  11.573   8.253
 6530POPC   C3B21849   0.485  11.542   7.953
 6530POPC   C4B21850   0.509  11.552   7.653
 6531POPC   NC321851   7.434   1.245   9.453
 6531POPC   PO421852   7.384   1.171   9.153
 6531POPC   GL121853   7.463   1.207   8.853
 6531POPC   GL221854   7.436   1.327   8.853
 6531POPC   C1A21855   7.409   1.192   8.553
 6531POPC   D2A21856   7.458   1.262   8.253
 6531POPC   C3A21857   7.438   1.205   7.953
 6531POPC   C4A21858   7.454   1.175   7.653
 6531POPC   C1B21859   7.497   1.424   8.553
 6531POPC   C2B21860   7.492   1.413   8.253
 6531POPC   C3B21861   7.493   1.458   7.953
 6531POPC   C4B21862   7.452   1.418   7.653
 6532POPC   NC321863  43.139  31.504   9.453
 6532POPC   PO421864  43.068  31.470   9.153
 6532POPC   GL121865  43.149  31.485   8.853
 6532POPC   GL221866  43.141  31.326   8.853
 6532POPC   C1A21867  43.152  31.433   8.553
 6532POPC   D2A21868  43.065  31.456   8.253
 6532POPC   C3A21869  43.082  31.461   7.953
 6532POPC   C4A21870  43.092  31.432   7.653
 6532POPC   C1B21871  43.230  31.194   8.553
 6532POPC   C2B21872  43.163  31.242   8.253
 6532POPC   C3B21873  43.246  31.251   7.953
 6532POPC   C4B21874  43.235  31.234   7.653
 6533POPC   NC321875  14.404  29.128   9.453
 6533POPC   PO421876  14.402  29.166   9.153
 6533POPC   GL121877  14.433  29.103   8.853
 6533POPC   GL221878  14.366  28.991   8.853
 6533POPC   C1A21879  14.383  29.156   8.553
 6533POPC   D2A21880  14.397  29.126   8.253
 6533POPC   C3A21881  14.362  29.100   7.953
 6533POPC   C4A21882  14.422  29.177   7.653
 6533POPC   C1B21883  14.243  28.968   8.553
 6533POPC   C2B21884  14.296  28.889   8.253
 6533POPC   C3B21885  14.322  28.894   7.953
 6533POPC   C4B21886  14.290  28.956   7.653
 6534POPC   NC321887  25.218   9.747   9.453
 6534POPC   PO421888  25.274   9.737   9.153
 6534POPC   GL121889  25.291   9.713   8.853
 6534POPC   GL221890  25.385   9.767   8.853
 6534POPC   C1A21891  25.281   9.701   8.553
 6534POPC   D2A21892  25.238   9.727   8.253
 6534POPC   C3A21893  25.250   9.782   7.953
 6534POPC   C4A21894  25.294   9.705   7.653
 6534POPC   C1B21895  25.455   9.827   8.553
 6534POPC   C2B21896  25.531   9.850   8.253
 6534POPC   C3B21897  25.508   9.871   7.953
 6534POPC   C4B21898  25.493   9.874   7.653
 6535POPC   NC321899  16.708   8.951   9.453
 6535POPC   PO421900  16.767   8.956   9.153
 6535POPC   GL121901  16.764   8.923   8.853
 6535POPC   GL221902  16.818   8.957   8.853
 6535POPC   C1A21903  16.700   8.973   8.553
 6535POPC   D2A21904  16.711   9.007   8.253
 6535POPC   C3A21905  16.711   8.961   7.953
 6535POPC   C4A21906  16.741   8.964   7.653
 6535POPC   C1B21907  16.996   8.820   8.553
 6535POPC   C2B21908  16.949   8.896   8.253
 6535POPC   C3B21909  16.914   8.858   7.953
 6535POPC   C4B21910  16.944   8.893   7.653
 6536POPC   NC321911  28.362  14.447   9.453
 6536POPC   PO421912  28.392  14.364   9.153
 6536POPC   GL121913  28.339  14.432   8.853
 6536POPC   GL221914  28.380  14.517   8.853
 6536POPC   C1A21915  28.413  14.407   8.553
 6536POPC   D2A21916  28.417  14.400   8.253
 6536POPC   C3A21917  28.384  14.423   7.953
 6536POPC   C4A21918  28.339  14.377   7.653
 6536POPC   C1B21919  28.307  14.697   8.553
 6536POPC   C2B21920  28.359  14.629   8.253
 6536POPC   C3B21921  28.302  14.617   7.953
 6536POPC   C4B21922  28.304  14.623   7.653
 6537POPC   NC321923  16.713  20.611   9.453
 6537POPC   PO421924  16.717  20.594   9.153
 6537POPC   GL121925  16.709  20.561   8.853
 6537POPC   GL221926  16.623  20.581   8.853
 6537POPC   C1A21927  16.776  20.562   8.553
 6537POPC   D2A21928  16.713  20.578   8.253
 6537POPC   C3A21929  16.751  20.626   7.953
 6537POPC   C4A21930  16.682  20.592   7.653
 6537POPC   C1B21931  16.544  20.534   8.553
 6537POPC   C2B21932  16.540  20.565   8.253
 6537POPC   C3B21933  16.453  20.478   7.953
 6537POPC   C4B21934  16.533  20.510   7.653
 6538POPC   NC321935  32.279  15.165   9.453
 6538POPC   PO421936  32.289  15.184   9.153
 6538POPC   GL121937  32.212  15.156   8.853
 6538POPC   GL221938  32.220  15.266   8.853
 6538POPC   C1A21939  32.251  15.192   8.553
 6538POPC   D2A21940  32.256  15.197   8.253
 6538POPC   C3A21941  32.263  15.165   7.953
 6538POPC   C4A21942  32.245  15.162   7.653
 6538POPC   C1B21943  32.155  15.435   8.553
 6538POPC   C2B21944  32.223  15.459   8.253
 6538POPC   C3B21945  32.151  15.384   7.953
 6538POPC   C4B21946  32.196  15.448   7.653
 6539POPC   NC321947  14.440  37.664   9.453
 6539POPC   PO421948  14.435  37.709   9.153
 6539POPC   GL121949  14.431  37.689   8.853
 6539POPC   GL221950  14.414  37.525   8.853
 6539POPC   C1A21951  14.424  37.638   8.553
 6539POPC   D2A21952  14.364  37.709   8.253
 6539POPC   C3A21953  14.422  37.654   7.953
 6539POPC   C4A21954  14.446  37.659   7.653
 6539POPC   C1B21955  14.361  37.473   8.553
 6539POPC   C2B21956  14.352  37.436   8.253
 6539POPC   C3B21957  14.401  37.422   7.953
 6539POPC   C4B21958  14.338  37.435   7.653
 6540POPC   NC321959   6.644  30.651   9.453
 6540POPC   PO421960   6.645  30.663   9.153
 6540POPC   GL121961   6.615  30.697   8.853
 6540POPC   GL221962   6.490  30.608   8.853
 6540POPC   C1A21963   6.677  30.660   8.553
 6540POPC   D2A21964   6.638  30.676   8.253
 6540POPC   C3A21965   6.606  30.674   7.953
 6540POPC   C4A21966   6.631  30.670   7.653
 6540POPC   C1B21967   6.451  30.583   8.553
 6540POPC   C2B21968   6.444  30.528   8.253
 6540POPC   C3B21969   6.443  30.555   7.953
 6540POPC   C4B21970   6.407  30.591   7.653
 6541POPC   NC321971  34.601   5.899   9.453
 6541POPC   PO421972  34.625   5.859   9.153
 6541POPC   GL121973  34.539   5.866   8.853
 6541POPC   GL221974  34.464   5.770   8.853
 6541POPC   C1A21975  34.540   5.906   8.553
 6541POPC   D2A21976  34.531   5.852   8.253
 6541POPC   C3A21977  34.622   5.860   7.953
 6541POPC   C4A21978  34.556   5.860   7.653
 6541POPC   C1B21979  34.394   5.707   8.553
 6541POPC   C2B21980  34.397   5.741   8.253
 6541POPC   C3B21981  34.386   5.695   7.953
 6541POPC   C4B21982  34.397   5.685   7.653
 6542POPC   NC321983  41.590  16.700   9.453
 6542POPC   PO421984  41.597  16.770   9.153
 6542POPC   GL121985  41.599  16.760   8.853
 6542POPC   GL221986  41.614  16.618   8.853
 6542POPC   C1A21987  41.566  16.722   8.553
 6542POPC   D2A21988  41.544  16.706   8.253
 6542POPC   C3A21989  41.521  16.744   7.953
 6542POPC   C4A21990  41.528  16.770   7.653
 6542POPC   C1B21991  41.649  16.537   8.553
 6542POPC   C2B21992  41.651  16.502   8.253
 6542POPC   C3B21993  41.696  16.506   7.953
 6542POPC   C4B21994  41.659  16.538   7.653
 6543POPC   NC321995  24.452  26.792   9.453
 6543POPC   PO421996  24.486  26.807   9.153
 6543POPC   GL121997  24.502  26.865   8.853
 6543POPC   GL221998  24.536  26.760   8.853
 6543POPC   C1A21999  24.488  26.853   8.553
 6543POPC   D2A22000  24.512  26.812   8.253
 6543POPC   C3A22001  24.521  26.813   7.953
 6543POPC   C4A22002  24.516  26.782   7.653
 6543POPC   C1B22003  24.581  26.613   8.553
 6543POPC   C2B22004  24.668  26.652   8.253
 6543POPC   C3B22005  24.621  26.599   7.953
 6543POPC   C4B22006  24.670  26.628   7.653
 6544POPC   NC322007   2.767   7.409   9.453
 6544POPC   PO422008   2.806   7.371   9.153
 6544POPC   GL122009   2.756   7.397   8.853
 6544POPC   GL222010   2.882   7.337   8.853
 6544POPC   C1A22011   2.720   7.379   8.553
 6544POPC   D2A22012   2.740   7.401   8.253
 6544POPC   C3A22013   2.719   7.469   7.953
 6544POPC   C4A22014   2.792   7.419   7.653
 6544POPC   C1B22015   3.037   7.373   8.553
 6544POPC   C2B22016   2.994   7.366   8.253
 6544POPC   C3B22017   2.981   7.323   7.953
 6544POPC   C4B22018   2.989   7.325   7.653
 6545POPC   NC322019   1.944  39.988   9.453
 6545POPC   PO422020   1.979  39.978   9.153
 6545POPC   GL122021   2.029  40.031   8.853
 6545POPC   GL222022   2.032  39.870   8.853
 6545POPC   C1A22023   1.977  40.045   8.553
 6545POPC   D2A22024   1.941  39.965   8.253
 6545POPC   C3A22025   1.965  40.033   7.953
 6545POPC   C4A22026   2.015  40.039   7.653
 6545POPC   C1B22027   2.013  39.800   8.553
 6545POPC   C2B22028   1.998  39.801   8.253
 6545POPC   C3B22029   1.981  39.780   7.953
 6545POPC   C4B22030   1.969  39.743   7.653
 6546POPC   NC322031   2.758  29.169   9.453
 6546POPC   PO422032   2.793  29.169   9.153
 6546POPC   GL122033   2.795  29.189   8.853
 6546POPC   GL222034   2.919  29.209   8.853
 6546POPC   C1A22035   2.737  29.174   8.553
 6546POPC   D2A22036   2.783  29.178   8.253
 6546POPC   C3A22037   2.780  29.156   7.953
 6546POPC   C4A22038   2.805  29.130   7.653
 6546POPC   C1B22039   3.015  29.229   8.553
 6546POPC   C2B22040   2.989  29.221   8.253
 6546POPC   C3B22041   2.957  29.279   7.953
 6546POPC   C4B22042   2.973  29.256   7.653
 6547POPC   NC322043  43.068  42.296   9.453
 6547POPC   PO422044  43.062  42.337   9.153
 6547POPC   GL122045  43.107  42.349   8.853
 6547POPC   GL222046  43.243  42.292   8.853
 6547POPC   C1A22047  43.147  42.307   8.553
 6547POPC   D2A22048  43.098  42.353   8.253
 6547POPC   C3A22049  43.107  42.285   7.953
 6547POPC   C4A22050  43.139  42.333   7.653
 6547POPC   C1B22051  43.297  42.289   8.553
 6547POPC   C2B22052  43.316  42.229   8.253
 6547POPC   C3B22053  43.330  42.257   7.953
 6547POPC   C4B22054  43.348  42.299   7.653
 6548POPC   NC322055  44.612  26.062   9.453
 6548POPC   PO422056  44.668  26.024   9.153
 6548POPC   GL122057  44.683  26.021   8.853
 6548POPC   GL222058  44.589  25.901   8.853
 6548POPC   C1A22059  44.615  26.056   8.553
 6548POPC   D2A22060  44.670  26.046   8.253
 6548POPC   C3A22061  44.665  26.012   7.953
 6548POPC   C4A22062  44.696  26.058   7.653
 6548POPC   C1B22063  44.540  25.814   8.553
 6548POPC   C2B22064  44.622  25.811   8.253
 6548POPC   C3B22065  44.594  25.808   7.953
 6548POPC   C4B22066  44.625  25.821   7.653
 6549POPC   NC322067  22.184  36.897   9.453
 6549POPC   PO422068  22.154  36.907   9.153
 6549POPC   GL122069  22.156  36.945   8.853
 6549POPC   GL222070  22.094  36.915   8.853
 6549POPC   C1A22071  22.184  36.948   8.553
 6549POPC   D2A22072  22.117  36.927   8.253
 6549POPC   C3A22073  22.209  36.947   7.953
 6549POPC   C4A22074  22.195  36.942   7.653
 6549POPC   C1B22075  21.901  36.996   8.553
 6549POPC   C2B22076  21.922  37.007   8.253
 6549POPC   C3B22077  21.979  36.987   7.953
 6549POPC   C4B22078  21.913  37.061   7.653
 6550POPC   NC322079  39.254   5.065   9.453
 6550POPC   PO422080  39.189   5.136   9.153
 6550POPC   GL122081  39.207   5.132   8.853
 6550POPC   GL222082  39.388   5.122   8.853
 6550POPC   C1A22083  39.267   5.090   8.553
 6550POPC   D2A22084  39.248   5.058   8.253
 6550POPC   C3A22085  39.186   5.090   7.953
 6550POPC   C4A22086  39.211   5.116   7.653
 6550POPC   C1B22087  39.437   5.167   8.553
 6550POPC   C2B22088  39.505   5.176   8.253
 6550POPC   C3B22089  39.421   5.128   7.953
 6550POPC   C4B22090  39.469   5.175   7.653
 6551POPC   NC322091   2.724  10.498   9.453
 6551POPC   PO422092   2.725  10.566   9.153
 6551POPC   GL122093   2.807  10.501   8.853
 6551POPC   GL222094   2.905  10.602   8.853
 6551POPC   C1A22095   2.765  10.528   8.553
 6551POPC   D2A22096   2.716  10.479   8.253
 6551POPC   C3A22097   2.797  10.546   7.953
 6551POPC   C4A22098   2.780  10.560   7.653
 6551POPC   C1B22099   2.971  10.568   8.553
 6551POPC   C2B22100   3.045  10.601   8.253
 6551POPC   C3B22101   2.963  10.612   7.953
 6551POPC   C4B22102   3.002  10.618   7.653
 6552POPC   NC322103  43.935  12.059   9.453
 6552POPC   PO422104  43.837  12.037   9.153
 6552POPC   GL122105  43.917  12.093   8.853
 6552POPC   GL222106  43.823  11.967   8.853
 6552POPC   C1A22107  43.890  12.037   8.553
 6552POPC   D2A22108  43.849  12.120   8.253
 6552POPC   C3A22109  43.904  12.097   7.953
 6552POPC   C4A22110  43.904  12.098   7.653
 6552POPC   C1B22111  43.803  11.872   8.553
 6552POPC   C2B22112  43.750  11.849   8.253
 6552POPC   C3B22113  43.797  11.854   7.953
 6552POPC   C4B22114  43.825  11.888   7.653
 6553POPC   NC322115  40.006  29.141   9.453
 6553POPC   PO422116  39.961  29.111   9.153
 6553POPC   GL122117  39.974  29.163   8.853
 6553POPC   GL222118  39.921  29.212   8.853
 6553POPC   C1A22119  40.002  29.147   8.553
 6553POPC   D2A22120  39.996  29.113   8.253
 6553POPC   C3A22121  40.016  29.126   7.953
 6553POPC   C4A22122  40.042  29.095   7.653
 6553POPC   C1B22123  39.883  29.289   8.553
 6553POPC   C2B22124  39.810  29.329   8.253
 6553POPC   C3B22125  39.798  29.369   7.953
 6553POPC   C4B22126  39.790  29.313   7.653
 6554POPC   NC322127  32.285  12.812   9.453
 6554POPC   PO422128  32.273  12.865   9.153
 6554POPC   GL122129  32.230  12.900   8.853
 6554POPC   GL222130  32.348  12.751   8.853
 6554POPC   C1A22131  32.266  12.886   8.553
 6554POPC   D2A22132  32.209  12.833   8.253
 6554POPC   C3A22133  32.234  12.861   7.953
 6554POPC   C4A22134  32.250  12.802   7.653
 6554POPC   C1B22135  32.411  12.651   8.553
 6554POPC   C2B22136  32.429  12.665   8.253
 6554POPC   C3B22137  32.456  12.708   7.953
 6554POPC   C4B22138  32.437  12.718   7.653
 6555POPC   NC322139  39.241  23.728   9.453
 6555POPC   PO422140  39.263  23.673   9.153
 6555POPC   GL122141  39.218  23.719   8.853
 6555POPC   GL222142  39.257  23.620   8.853
 6555POPC   C1A22143  39.275  23.698   8.553
 6555POPC   D2A22144  39.275  23.668   8.253
 6555POPC   C3A22145  39.230  23.731   7.953
 6555POPC   C4A22146  39.247  23.727   7.653
 6555POPC   C1B22147  39.262  23.437   8.553
 6555POPC   C2B22148  39.293  23.481   8.253
 6555POPC   C3B22149  39.242  23.456   7.953
 6555POPC   C4B22150  39.266  23.460   7.653
 6556POPC   NC322151   8.224  17.490   9.453
 6556POPC   PO422152   8.216  17.458   9.153
 6556POPC   GL122153   8.196  17.462   8.853
 6556POPC   GL222154   8.318  17.577   8.853
 6556POPC   C1A22155   8.169  17.515   8.553
 6556POPC   D2A22156   8.242  17.470   8.253
 6556POPC   C3A22157   8.225  17.549   7.953
 6556POPC   C4A22158   8.175  17.513   7.653
 6556POPC   C1B22159   8.450  17.639   8.553
 6556POPC   C2B22160   8.421  17.612   8.253
 6556POPC   C3B22161   8.422  17.605   7.953
 6556POPC   C4B22162   8.461  17.664   7.653
 6557POPC   NC322163  18.319  18.237   9.453
 6557POPC   PO422164  18.297  18.296   9.153
 6557POPC   GL122165  18.284  18.295   8.853
 6557POPC   GL222166  18.367  18.370   8.853
 6557POPC   C1A22167  18.332  18.281   8.553
 6557POPC   D2A22168  18.280  18.287   8.253
 6557POPC   C3A22169  18.242  18.327   7.953
 6557POPC   C4A22170  18.257  18.236   7.653
 6557POPC   C1B22171  18.439  18.459   8.553
 6557POPC   C2B22172  18.450  18.480   8.253
 6557POPC   C3B22173  18.450  18.488   7.953
 6557POPC   C4B22174  18.519  18.395   7.653
 6558POPC   NC322175  26.791  25.314   9.453
 6558POPC   PO422176  26.822  25.265   9.153
 6558POPC   GL122177  26.793  25.295   8.853
 6558POPC   GL222178  26.940  25.351   8.853
 6558POPC   C1A22179  26.850  25.247   8.553
 6558POPC   D2A22180  26.771  25.294   8.253
 6558POPC   C3A22181  26.805  25.247   7.953
 6558POPC   C4A22182  26.808  25.289   7.653
 6558POPC   C1B22183  27.081  25.363   8.553
 6558POPC   C2B22184  27.050  25.433   8.253
 6558POPC   C3B22185  27.044  25.399   7.953
 6558POPC   C4B22186  27.016  25.382   7.653
 6559POPC   NC322187  23.722  25.251   9.453
 6559POPC   PO422188  23.710  25.294   9.153
 6559POPC   GL122189  23.695  25.291   8.853
 6559POPC   GL222190  23.811  25.261   8.853
 6559POPC   C1A22191  23.722  25.283   8.553
 6559POPC   D2A22192  23.690  25.295   8.253
 6559POPC   C3A22193  23.759  25.303   7.953
 6559POPC   C4A22194  23.760  25.259   7.653
 6559POPC   C1B22195  23.938  25.292   8.553
 6559POPC   C2B22196  23.996  25.323   8.253
 6559POPC   C3B22197  23.960  25.263   7.953
 6559POPC   C4B22198  23.993  25.242   7.653
 6560POPC   NC322199  28.401  30.708   9.453
 6560POPC   PO422200  28.361  30.649   9.153
 6560POPC   GL122201  28.367  30.732   8.853
 6560POPC   GL222202  28.363  30.835   8.853
 6560POPC   C1A22203  28.352  30.657   8.553
 6560POPC   D2A22204  28.391  30.738   8.253
 6560POPC   C3A22205  28.338  30.674   7.953
 6560POPC   C4A22206  28.396  30.728   7.653
 6560POPC   C1B22207  28.469  30.937   8.553
 6560POPC   C2B22208  28.431  30.982   8.253
 6560POPC   C3B22209  28.443  30.931   7.953
 6560POPC   C4B22210  28.429  30.968   7.653
 6561POPC   NC322211   7.465  25.241   9.453
 6561POPC   PO422212   7.391  25.239   9.153
 6561POPC   GL122213   7.375  25.283   8.853
 6561POPC   GL222214   7.308  25.340   8.853
 6561POPC   C1A22215   7.470  25.220   8.553
 6561POPC   D2A22216   7.393  25.218   8.253
 6561POPC   C3A22217   7.448  25.309   7.953
 6561POPC   C4A22218   7.417  25.245   7.653
 6561POPC   C1B22219   7.227  25.401   8.553
 6561POPC   C2B22220   7.188  25.454   8.253
 6561POPC   C3B22221   7.194  25.395   7.953
 6561POPC   C4B22222   7.241  25.415   7.653
 6562POPC   NC322223  32.991  17.473   9.453
 6562POPC   PO422224  33.036  17.514   9.153
 6562POPC   GL122225  33.063  17.469   8.853
 6562POPC   GL222226  33.065  17.414   8.853
 6562POPC   C1A22227  32.998  17.551   8.553
 6562POPC   D2A22228  32.988  17.481   8.253
 6562POPC   C3A22229  33.023  17.464   7.953
 6562POPC   C4A22230  33.035  17.524   7.653
 6562POPC   C1B22231  33.087  17.289   8.553
 6562POPC   C2B22232  33.070  17.265   8.253
 6562POPC   C3B22233  33.042  17.302   7.953
 6562POPC   C4B22234  33.075  17.220   7.653
 6563POPC   NC322235  30.660   6.688   9.453
 6563POPC   PO422236  30.650   6.621   9.153
 6563POPC   GL122237  30.725   6.695   8.853
 6563POPC   GL222238  30.705   6.486   8.853
 6563POPC   C1A22239  30.692   6.625   8.553
 6563POPC   D2A22240  30.654   6.615   8.253
 6563POPC   C3A22241  30.676   6.668   7.953
 6563POPC   C4A22242  30.708   6.664   7.653
 6563POPC   C1B22243  30.696   6.390   8.553
 6563POPC   C2B22244  30.649   6.443   8.253
 6563POPC   C3B22245  30.689   6.418   7.953
 6563POPC   C4B22246  30.739   6.385   7.653
 6564POPC   NC322247   3.509  24.509   9.453
 6564POPC   PO422248   3.571  24.461   9.153
 6564POPC   GL122249   3.559  24.453   8.853
 6564POPC   GL222250   3.581  24.586   8.853
 6564POPC   C1A22251   3.550  24.526   8.553
 6564POPC   D2A22252   3.546  24.454   8.253
 6564POPC   C3A22253   3.508  24.466   7.953
 6564POPC   C4A22254   3.574  24.461   7.653
 6564POPC   C1B22255   3.666  24.709   8.553
 6564POPC   C2B22256   3.618  24.671   8.253
 6564POPC   C3B22257   3.608  24.716   7.953
 6564POPC   C4B22258   3.638  24.729   7.653
 6565POPC   NC322259  20.631  40.045   9.453
 6565POPC   PO422260  20.569  40.036   9.153
 6565POPC   GL122261  20.640  39.964   8.853
 6565POPC   GL222262  20.524  39.889   8.853
 6565POPC   C1A22263  20.626  39.980   8.553
 6565POPC   D2A22264  20.599  40.024   8.253
 6565POPC   C3A22265  20.569  40.008   7.953
 6565POPC   C4A22266  20.641  40.041   7.653
 6565POPC   C1B22267  20.369  39.859   8.553
 6565POPC   C2B22268  20.361  39.837   8.253
 6565POPC   C3B22269  20.381  39.815   7.953
 6565POPC   C4B22270  20.377  39.830   7.653
 6566POPC   NC322271  20.601  36.892   9.453
 6566POPC   PO422272  20.615  36.951   9.153
 6566POPC   GL122273  20.595  36.901   8.853
 6566POPC   GL222274  20.666  36.762   8.853
 6566POPC   C1A22275  20.614  36.911   8.553
 6566POPC   D2A22276  20.597  36.911   8.253
 6566POPC   C3A22277  20.646  36.869   7.953
 6566POPC   C4A22278  20.620  36.947   7.653
 6566POPC   C1B22279  20.749  36.725   8.553
 6566POPC   C2B22280  20.717  36.684   8.253
 6566POPC   C3B22281  20.766  36.687   7.953
 6566POPC   C4B22282  20.773  36.664   7.653
 6567POPC   NC322283   5.825  28.377   9.453
 6567POPC   PO422284   5.904  28.354   9.153
 6567POPC   GL122285   5.860  28.357   8.853
 6567POPC   GL222286   5.951  28.347   8.853
 6567POPC   C1A22287   5.843  28.358   8.553
 6567POPC   D2A22288   5.889  28.369   8.253
 6567POPC   C3A22289   5.882  28.376   7.953
 6567POPC   C4A22290   5.901  28.417   7.653
 6567POPC   C1B22291   6.160  28.436   8.553
 6567POPC   C2B22292   6.105  28.375   8.253
 6567POPC   C3B22293   6.085  28.432   7.953
 6567POPC   C4B22294   6.160  28.414   7.653
 6568POPC   NC322295   9.755  38.494   9.453
 6568POPC   PO422296   9.742  38.462   9.153
 6568POPC   GL122297   9.769  38.436   8.853
 6568POPC   GL222298   9.859  38.514   8.853
 6568POPC   C1A22299   9.705  38.470   8.553
 6568POPC   D2A22300   9.732  38.446   8.253
 6568POPC   C3A22301   9.792  38.455   7.953
 6568POPC   C4A22302   9.703  38.421   7.653
 6568POPC   C1B22303   9.925  38.646   8.553
 6568POPC   C2B22304   9.883  38.637   8.253
 6568POPC   C3B22305   9.881  38.646   7.953
 6568POPC   C4B22306   9.904  38.680   7.653
 6569POPC   NC322307  27.550  22.119   9.453
 6569POPC   PO422308  27.571  22.151   9.153
 6569POPC   GL122309  27.606  22.116   8.853
 6569POPC   GL222310  27.578  22.046   8.853
 6569POPC   C1A22311  27.601  22.176   8.553
 6569POPC   D2A22312  27.569  22.143   8.253
 6569POPC   C3A22313  27.571  22.143   7.953
 6569POPC   C4A22314  27.591  22.167   7.653
 6569POPC   C1B22315  27.585  21.929   8.553
 6569POPC   C2B22316  27.625  21.915   8.253
 6569POPC   C3B22317  27.550  21.877   7.953
 6569POPC   C4B22318  27.644  21.893   7.653
 6570POPC   NC322319  41.559  23.714   9.453
 6570POPC   PO422320  41.556  23.724   9.153
 6570POPC   GL122321  41.608  23.752   8.853
 6570POPC   GL222322  41.677  23.721   8.853
 6570POPC   C1A22323  41.598  23.711   8.553
 6570POPC   D2A22324  41.515  23.690   8.253
 6570POPC   C3A22325  41.545  23.708   7.953
 6570POPC   C4A22326  41.526  23.723   7.653
 6570POPC   C1B22327  41.804  23.795   8.553
 6570POPC   C2B22328  41.833  23.747   8.253
 6570POPC   C3B22329  41.828  23.804   7.953
 6570POPC   C4B22330  41.760  23.787   7.653
 6571POPC   NC322331  43.911  20.648   9.453
 6571POPC   PO422332  43.933  20.600   9.153
 6571POPC   GL122333  43.897  20.614   8.853
 6571POPC   GL222334  43.871  20.668   8.853
 6571POPC   C1A22335  43.879  20.606   8.553
 6571POPC   D2A22336  43.904  20.613   8.253
 6571POPC   C3A22337  43.888  20.618   7.953
 6571POPC   C4A22338  43.909  20.618   7.653
 6571POPC   C1B22339  43.781  20.841   8.553
 6571POPC   C2B22340  43.708  20.838   8.253
 6571POPC   C3B22341  43.714  20.847   7.953
 6571POPC   C4B22342  43.710  20.828   7.653
 6572POPC   NC322343  21.351  36.883   9.453
 6572POPC   PO422344  21.338  36.924   9.153
 6572POPC   GL122345  21.355  36.949   8.853
 6572POPC   GL222346  21.277  36.818   8.853
 6572POPC   C1A22347  21.356  36.881   8.553
 6572POPC   D2A22348  21.376  36.887   8.253
 6572POPC   C3A22349  21.397  36.884   7.953
 6572POPC   C4A22350  21.355  36.926   7.653
 6572POPC   C1B22351  21.215  36.711   8.553
 6572POPC   C2B22352  21.184  36.714   8.253
 6572POPC   C3B22353  21.155  36.751   7.953
 6572POPC   C4B22354  21.157  36.759   7.653
 6573POPC   NC322355  39.991  11.329   9.453
 6573POPC   PO422356  39.984  11.252   9.153
 6573POPC   GL122357  39.963  11.341   8.853
 6573POPC   GL222358  40.068  11.392   8.853
 6573POPC   C1A22359  40.013  11.318   8.553
 6573POPC   D2A22360  39.985  11.321   8.253
 6573POPC   C3A22361  40.056  11.322   7.953
 6573POPC   C4A22362  40.004  11.344   7.653
 6573POPC   C1B22363  40.209  11.419   8.553
 6573POPC   C2B22364  40.198  11.482   8.253
 6573POPC   C3B22365  40.241  11.486   7.953
 6573POPC   C4B22366  40.248  11.426   7.653
 6574POPC   NC322367  30.724  16.771   9.453
 6574POPC   PO422368  30.653  16.686   9.153
 6574POPC   GL122369  30.679  16.688   8.853
 6574POPC   GL222370  30.801  16.708   8.853
 6574POPC   C1A22371  30.697  16.738   8.553
 6574POPC   D2A22372  30.676  16.742   8.253
 6574POPC   C3A22373  30.745  16.728   7.953
 6574POPC   C4A22374  30.746  16.768   7.653
 6574POPC   C1B22375  30.962  16.633   8.553
 6574POPC   C2B22376  30.953  16.654   8.253
 6574POPC   C3B22377  30.924  16.672   7.953
 6574POPC   C4B22378  30.952  16.650   7.653
 6575POPC   NC322379  40.795  39.190   9.453
 6575POPC   PO422380  40.809  39.244   9.153
 6575POPC   GL122381  40.783  39.230   8.853
 6575POPC   GL222382  40.647  39.116   8.853
 6575POPC   C1A22383  40.795  39.268   8.553
 6575POPC   D2A22384  40.758  39.276   8.253
 6575POPC   C3A22385  40.779  39.186   7.953
 6575POPC   C4A22386  40.783  39.260   7.653
 6575POPC   C1B22387  40.573  39.110   8.553
 6575POPC   C2B22388  40.637  39.090   8.253
 6575POPC   C3B22389  40.580  39.078   7.953
 6575POPC   C4B22390  40.564  39.065   7.653
 6576POPC   NC322391  35.348  30.734   9.453
 6576POPC   PO422392  35.350  30.661   9.153
 6576POPC   GL122393  35.331  30.728   8.853
 6576POPC   GL222394  35.267  30.850   8.853
 6576POPC   C1A22395  35.336  30.659   8.553
 6576POPC   D2A22396  35.355  30.647   8.253
 6576POPC   C3A22397  35.318  30.725   7.953
 6576POPC   C4A22398  35.328  30.679   7.653
 6576POPC   C1B22399  35.265  30.944   8.553
 6576POPC   C2B22400  35.213  30.962   8.253
 6576POPC   C3B22401  35.232  30.979   7.953
 6576POPC   C4B22402  35.239  30.978   7.653
 6577POPC   NC322403  24.534  15.935   9.453
 6577POPC   PO422404  24.526  15.971   9.153
 6577POPC   GL122405  24.457  15.956   8.853
 6577POPC   GL222406  24.602  16.046   8.853
 6577POPC   C1A22407  24.511  15.989   8.553
 6577POPC   D2A22408  24.531  15.939   8.253
 6577POPC   C3A22409  24.446  15.972   7.953
 6577POPC   C4A22410  24.488  15.915   7.653
 6577POPC   C1B22411  24.666  16.190   8.553
 6577POPC   C2B22412  24.683  16.159   8.253
 6577POPC   C3B22413  24.689  16.171   7.953
 6577POPC   C4B22414  24.682  16.098   7.653
 6578POPC   NC322415  21.398  25.239   9.453
 6578POPC   PO422416  21.371  25.304   9.153
 6578POPC   GL122417  21.420  25.247   8.853
 6578POPC   GL222418  21.460  25.234   8.853
 6578POPC   C1A22419  21.355  25.216   8.553
 6578POPC   D2A22420  21.430  25.279   8.253
 6578POPC   C3A22421  21.395  25.282   7.953
 6578POPC   C4A22422  21.431  25.297   7.653
 6578POPC   C1B22423  21.677  25.288   8.553
 6578POPC   C2B22424  21.607  25.309   8.253
 6578POPC   C3B22425  21.595  25.270   7.953
 6578POPC   C4B22426  21.609  25.322   7.653
 6579POPC   NC322427  28.360  32.235   9.453
 6579POPC   PO422428  28.348  32.237   9.153
 6579POPC   GL122429  28.400  32.290   8.853
 6579POPC   GL222430  28.326  32.416   8.853
 6579POPC   C1A22431  28.337  32.210   8.553
 6579POPC   D2A22432  28.402  32.298   8.253
 6579POPC   C3A22433  28.339  32.235   7.953
 6579POPC   C4A22434  28.351  32.253   7.653
 6579POPC   C1B22435  28.360  32.543   8.553
 6579POPC   C2B22436  28.319  32.456   8.253
 6579POPC   C3B22437  28.363  32.512   7.953
 6579POPC   C4B22438  28.293  32.450   7.653
 6580POPC   NC322439   2.011   2.012   9.453
 6580POPC   PO422440   2.004   2.032   9.153
 6580POPC   GL122441   2.010   1.956   8.853
 6580POPC   GL222442   2.011   2.111   8.853
 6580POPC   C1A22443   1.984   2.039   8.553
 6580POPC   D2A22444   2.006   1.963   8.253
 6580POPC   C3A22445   1.954   1.980   7.953
 6580POPC   C4A22446   2.026   1.992   7.653
 6580POPC   C1B22447   2.038   2.239   8.553
 6580POPC   C2B22448   2.033   2.212   8.253
 6580POPC   C3B22449   2.047   2.275   7.953
 6580POPC   C4B22450   2.093   2.261   7.653
 6581POPC   NC322451  21.400  16.698   9.453
 6581POPC   PO422452  21.386  16.764   9.153
 6581POPC   GL122453  21.370  16.707   8.853
 6581POPC   GL222454  21.247  16.747   8.853
 6581POPC   C1A22455  21.426  16.725   8.553
 6581POPC   D2A22456  21.355  16.691   8.253
 6581POPC   C3A22457  21.413  16.701   7.953
 6581POPC   C4A22458  21.384  16.730   7.653
 6581POPC   C1B22459  21.091  16.675   8.553
 6581POPC   C2B22460  21.110  16.712   8.253
 6581POPC   C3B22461  21.102  16.683   7.953
 6581POPC   C4B22462  21.127  16.722   7.653
 6582POPC   NC322463  44.651  14.450   9.453
 6582POPC   PO422464  44.641  14.383   9.153
 6582POPC   GL122465  44.635  14.390   8.853
 6582POPC   GL222466  44.798  14.477   8.853
 6582POPC   C1A22467  44.676  14.370   8.553
 6582POPC   D2A22468  44.618  14.363   8.253
 6582POPC   C3A22469  44.681  14.408   7.953
 6582POPC   C4A22470  44.710  14.438   7.653
 6582POPC   C1B22471  44.902  14.439   8.553
 6582POPC   C2B22472  44.875  14.495   8.253
 6582POPC   C3B22473  44.854  14.437   7.953
 6582POPC   C4B22474  44.894  14.451   7.653
 6583POPC   NC322475  11.265  25.266   9.453
 6583POPC   PO422476  11.325  25.227   9.153
 6583POPC   GL122477  11.339  25.232   8.853
 6583POPC   GL222478  11.280  25.436   8.853
 6583POPC   C1A22479  11.315  25.245   8.553
 6583POPC   D2A22480  11.326  25.244   8.253
 6583POPC   C3A22481  11.272  25.313   7.953
 6583POPC   C4A22482  11.279  25.293   7.653
 6583POPC   C1B22483  11.265  25.494   8.553
 6583POPC   C2B22484  11.266  25.483   8.253
 6583POPC   C3B22485  11.344  25.545   7.953
 6583POPC   C4B22486  11.278  25.564   7.653
 6584POPC   NC322487   4.273  22.987   9.453
 6584POPC   PO422488   4.345  22.951   9.153
 6584POPC   GL122489   4.268  22.911   8.853
 6584POPC   GL222490   4.442  23.004   8.853
 6584POPC   C1A22491   4.270  22.977   8.553
 6584POPC   D2A22492   4.356  22.928   8.253
 6584POPC   C3A22493   4.308  22.937   7.953
 6584POPC   C4A22494   4.341  22.917   7.653
 6584POPC   C1B22495   4.523  23.078   8.553
 6584POPC   C2B22496   4.479  23.148   8.253
 6584POPC   C3B22497   4.541  23.055   7.953
 6584POPC   C4B22498   4.541  23.133   7.653
 6585POPC   NC322499  33.041   2.762   9.453
 6585POPC   PO422500  33.008   2.786   9.153
 6585POPC   GL122501  32.987   2.779   8.853
 6585POPC   GL222502  32.943   2.752   8.853
 6585POPC   C1A22503  32.991   2.753   8.553
 6585POPC   D2A22504  33.057   2.807   8.253
 6585POPC   C3A22505  32.981   2.729   7.953
 6585POPC   C4A22506  32.987   2.742   7.653
 6585POPC   C1B22507  32.769   2.749   8.553
 6585POPC   C2B22508  32.741   2.778   8.253
 6585POPC   C3B22509  32.813   2.779   7.953
 6585POPC   C4B22510  32.822   2.780   7.653
 6586POPC   NC322511  36.115   1.175   9.453
 6586POPC   PO422512  36.120   1.189   9.153
 6586POPC   GL122513  36.124   1.250   8.853
 6586POPC   GL222514  36.161   1.143   8.853
 6586POPC   C1A22515  36.169   1.229   8.553
 6586POPC   D2A22516  36.148   1.164   8.253
 6586POPC   C3A22517  36.112   1.226   7.953
 6586POPC   C4A22518  36.089   1.187   7.653
 6586POPC   C1B22519  36.271   1.002   8.553
 6586POPC   C2B22520  36.305   1.053   8.253
 6586POPC   C3B22521  36.259   1.069   7.953
 6586POPC   C4B22522  36.321   1.038   7.653
 6587POPC   NC322523  36.092   7.445   9.453
 6587POPC   PO422524  36.127   7.431   9.153
 6587POPC   GL122525  36.100   7.402   8.853
 6587POPC   GL222526  36.185   7.568   8.853
 6587POPC   C1A22527  36.147   7.374   8.553
 6587POPC   D2A22528  36.102   7.400   8.253
 6587POPC   C3A22529  36.080   7.460   7.953
 6587POPC   C4A22530  36.113   7.402   7.653
 6587POPC   C1B22531  36.245   7.610   8.553
 6587POPC   C2B22532  36.211   7.638   8.253
 6587POPC   C3B22533  36.176   7.615   7.953
 6587POPC   C4B22534  36.242   7.694   7.653
 6588POPC   NC322535  16.708   9.791   9.453
 6588POPC   PO422536  16.729   9.727   9.153
 6588POPC   GL122537  16.749   9.775   8.853
 6588POPC   GL222538  16.590   9.701   8.853
 6588POPC   C1A22539  16.686   9.777   8.553
 6588POPC   D2A22540  16.763   9.706   8.253
 6588POPC   C3A22541  16.730   9.792   7.953
 6588POPC   C4A22542  16.721   9.789   7.653
 6588POPC   C1B22543  16.518   9.616   8.553
 6588POPC   C2B22544  16.470   9.632   8.253
 6588POPC   C3B22545  16.544   9.662   7.953
 6588POPC   C4B22546  16.497   9.666   7.653
 6589POPC   NC322547  43.875  29.162   9.453
 6589POPC   PO422548  43.849  29.186   9.153
 6589POPC   GL122549  43.862  29.132   8.853
 6589POPC   GL222550  43.989  29.103   8.853
 6589POPC   C1A22551  43.918  29.144   8.553
 6589POPC   D2A22552  43.845  29.131   8.253
 6589POPC   C3A22553  43.911  29.110   7.953
 6589POPC   C4A22554  43.903  29.137   7.653
 6589POPC   C1B22555  44.114  29.172   8.553
 6589POPC   C2B22556  44.178  29.168   8.253
 6589POPC   C3B22557  44.124  29.181   7.953
 6589POPC   C4B22558  44.164  29.188   7.653
 6590POPC   NC322559   4.292  40.736   9.453
 6590POPC   PO422560   4.308  40.762   9.153
 6590POPC   GL122561   4.291  40.765   8.853
 6590POPC   GL222562   4.474  40.711   8.853
 6590POPC   C1A22563   4.315  40.818   8.553
 6590POPC   D2A22564   4.287  40.816   8.253
 6590POPC   C3A22565   4.326  40.831   7.953
 6590POPC   C4A22566   4.314  40.828   7.653
 6590POPC   C1B22567   4.586  40.765   8.553
 6590POPC   C2B22568   4.588  40.726   8.253
 6590POPC   C3B22569   4.521  40.732   7.953
 6590POPC   C4B22570   4.529  40.762   7.653
 6591POPC   NC322571  12.030   1.205   9.453
 6591POPC   PO422572  12.110   1.217   9.153
 6591POPC   GL122573  12.049   1.241   8.853
 6591POPC   GL222574  12.157   1.078   8.853
 6591POPC   C1A22575  12.074   1.235   8.553
 6591POPC   D2A22576  12.064   1.173   8.253
 6591POPC   C3A22577  12.103   1.254   7.953
 6591POPC   C4A22578  12.036   1.233   7.653
 6591POPC   C1B22579  12.126   0.939   8.553
 6591POPC   C2B22580  12.165   1.014   8.253
 6591POPC   C3B22581  12.122   1.006   7.953
 6591POPC   C4B22582  12.124   0.932   7.653
 6592POPC   NC322583  29.099  25.241   9.453
 6592POPC   PO422584  29.128  25.253   9.153
 6592POPC   GL122585  29.105  25.236   8.853
 6592POPC   GL222586  29.003  25.196   8.853
 6592POPC   C1A22587  29.189  25.288   8.553
 6592POPC   D2A22588  29.114  25.248   8.253
 6592POPC   C3A22589  29.144  25.305   7.953
 6592POPC   C4A22590  29.097  25.260   7.653
 6592POPC   C1B22591  28.945  25.111   8.553
 6592POPC   C2B22592  28.925  25.129   8.253
 6592POPC   C3B22593  28.913  25.134   7.953
 6592POPC   C4B22594  28.938  25.115   7.653
 6593POPC   NC322595  11.329  26.025   9.453
 6593POPC   PO422596  11.320  26.002   9.153
 6593POPC   GL122597  11.303  26.050   8.853
 6593POPC   GL222598  11.350  26.077   8.853
 6593POPC   C1A22599  11.341  26.029   8.553
 6593POPC   D2A22600  11.289  26.051   8.253
 6593POPC   C3A22601  11.281  26.038   7.953
 6593POPC   C4A22602  11.290  26.011   7.653
 6593POPC   C1B22603  11.536  26.163   8.553
 6593POPC   C2B22604  11.507  26.227   8.253
 6593POPC   C3B22605  11.447  26.242   7.953
 6593POPC   C4B22606  11.515  26.177   7.653
 6594POPC   NC322607   6.654  20.631   9.453
 6594POPC   PO422608   6.595  20.579   9.153
 6594POPC   GL122609   6.656  20.570   8.853
 6594POPC   GL222610   6.646  20.745   8.853
 6594POPC   C1A22611   6.602  20.655   8.553
 6594POPC   D2A22612   6.596  20.586   8.253
 6594POPC   C3A22613   6.636  20.628   7.953
 6594POPC   C4A22614   6.668  20.646   7.653
 6594POPC   C1B22615   6.602  20.800   8.553
 6594POPC   C2B22616   6.553  20.881   8.253
 6594POPC   C3B22617   6.523  20.828   7.953
 6594POPC   C4B22618   6.561  20.863   7.653
 6595POPC   NC322619  29.112  20.565   9.453
 6595POPC   PO422620  29.132  20.584   9.153
 6595POPC   GL122621  29.095  20.626   8.853
 6595POPC   GL222622  29.145  20.487   8.853
 6595POPC   C1A22623  29.146  20.599   8.553
 6595POPC   D2A22624  29.178  20.600   8.253
 6595POPC   C3A22625  29.171  20.583   7.953
 6595POPC   C4A22626  29.190  20.595   7.653
 6595POPC   C1B22627  29.100  20.328   8.553
 6595POPC   C2B22628  29.036  20.341   8.253
 6595POPC   C3B22629  29.093  20.395   7.953
 6595POPC   C4B22630  29.043  20.392   7.653
 6596POPC   NC322631   5.881  37.656   9.453
 6596POPC   PO422632   5.894  37.714   9.153
 6596POPC   GL122633   5.864  37.702   8.853
 6596POPC   GL222634   5.915  37.817   8.853
 6596POPC   C1A22635   5.861  37.711   8.553
 6596POPC   D2A22636   5.829  37.678   8.253
 6596POPC   C3A22637   5.823  37.636   7.953
 6596POPC   C4A22638   5.839  37.722   7.653
 6596POPC   C1B22639   5.882  37.951   8.553
 6596POPC   C2B22640   5.900  37.880   8.253
 6596POPC   C3B22641   5.900  37.932   7.953
 6596POPC   C4B22642   5.874  37.970   7.653
 6597POPC   NC322643  41.541  29.887   9.453
 6597POPC   PO422644  41.575  29.910   9.153
 6597POPC   GL122645  41.536  29.872   8.853
 6597POPC   GL222646  41.484  29.909   8.853
 6597POPC   C1A22647  41.519  29.876   8.553
 6597POPC   D2A22648  41.551  29.876   8.253
 6597POPC   C3A22649  41.538  29.942   7.953
 6597POPC   C4A22650  41.546  29.948   7.653
 6597POPC   C1B22651  41.319  29.951   8.553
 6597POPC   C2B22652  41.275  29.922   8.253
 6597POPC   C3B22653  41.337  29.918   7.953
 6597POPC   C4B22654  41.319  29.968   7.653
 6598POPC   NC322655  26.826  12.872   9.453
 6598POPC   PO422656  26.839  12.894   9.153
 6598POPC   GL122657  26.769  12.879   8.853
 6598POPC   GL222658  26.951  12.950   8.853
 6598POPC   C1A22659  26.796  12.895   8.553
 6598POPC   D2A22660  26.789  12.830   8.253
 6598POPC   C3A22661  26.794  12.841   7.953
 6598POPC   C4A22662  26.843  12.834   7.653
 6598POPC   C1B22663  26.982  12.985   8.553
 6598POPC   C2B22664  27.078  13.005   8.253
 6598POPC   C3B22665  27.040  13.016   7.953
 6598POPC   C4B22666  27.011  13.030   7.653
 6599POPC   NC322667  28.351   0.439   9.453
 6599POPC   PO422668  28.407   0.448   9.153
 6599POPC   GL122669  28.415   0.469   8.853
 6599POPC   GL222670  28.227   0.389   8.853
 6599POPC   C1A22671  28.331   0.437   8.553
 6599POPC   D2A22672  28.385   0.443   8.253
 6599POPC   C3A22673  28.347   0.418   7.953
 6599POPC   C4A22674  28.383   0.401   7.653
 6599POPC   C1B22675  28.194   0.266   8.553
 6599POPC   C2B22676  28.142   0.270   8.253
 6599POPC   C3B22677  28.208   0.281   7.953
 6599POPC   C4B22678  28.136   0.261   7.653
 6600POPC   NC322679  33.002  32.209   9.453
 6600POPC   PO422680  33.069  32.258   9.153
 6600POPC   GL122681  32.975  32.263   8.853
 6600POPC   GL222682  33.015  32.379   8.853
 6600POPC   C1A22683  33.035  32.248   8.553
 6600POPC   D2A22684  33.035  32.228   8.253
 6600POPC   C3A22685  32.978  32.220   7.953
 6600POPC   C4A22686  33.036  32.268   7.653
 6600POPC   C1B22687  33.141  32.475   8.553
 6600POPC   C2B22688  33.099  32.507   8.253
 6600POPC   C3B22689  33.089  32.511   7.953
 6600POPC   C4B22690  33.127  32.461   7.653
 6601POPC   NC322691   8.977  14.359   9.453
 6601POPC   PO422692   8.996  14.363   9.153
 6601POPC   GL122693   8.938  14.434   8.853
 6601POPC   GL222694   8.901  14.247   8.853
 6601POPC   C1A22695   9.018  14.429   8.553
 6601POPC   D2A22696   8.925  14.365   8.253
 6601POPC   C3A22697   8.979  14.355   7.953
 6601POPC   C4A22698   9.019  14.422   7.653
 6601POPC   C1B22699   8.902  14.194   8.553
 6601POPC   C2B22700   8.843  14.151   8.253
 6601POPC   C3B22701   8.892  14.166   7.953
 6601POPC   C4B22702   8.877  14.187   7.653
 6602POPC   NC322703   7.415   6.643   9.453
 6602POPC   PO422704   7.378   6.609   9.153
 6602POPC   GL122705   7.420   6.624   8.853
 6602POPC   GL222706   7.542   6.558   8.853
 6602POPC   C1A22707   7.455   6.630   8.553
 6602POPC   D2A22708   7.451   6.623   8.253
 6602POPC   C3A22709   7.414   6.598   7.953
 6602POPC   C4A22710   7.468   6.656   7.653
 6602POPC   C1B22711   7.616   6.533   8.553
 6602POPC   C2B22712   7.584   6.538   8.253
 6602POPC   C3B22713   7.593   6.528   7.953
 6602POPC   C4B22714   7.647   6.463   7.653
 6603POPC   NC322715  41.591  13.649   9.453
 6603POPC   PO422716  41.606  13.650   9.153
 6603POPC   GL122717  41.573  13.662   8.853
 6603POPC   GL222718  41.628  13.793   8.853
 6603POPC   C1A22719  41.535  13.610   8.553
 6603POPC   D2A22720  41.525  13.677   8.253
 6603POPC   C3A22721  41.560  13.664   7.953
 6603POPC   C4A22722  41.596  13.591   7.653
 6603POPC   C1B22723  41.635  13.914   8.553
 6603POPC   C2B22724  41.597  13.910   8.253
 6603POPC   C3B22725  41.635  13.913   7.953
 6603POPC   C4B22726  41.641  13.912   7.653
 6604POPC   NC322727  39.275  29.888   9.453
 6604POPC   PO422728  39.259  29.915   9.153
 6604POPC   GL122729  39.230  29.887   8.853
 6604POPC   GL222730  39.218  29.996   8.853
 6604POPC   C1A22731  39.257  29.882   8.553
 6604POPC   D2A22732  39.211  29.906   8.253
 6604POPC   C3A22733  39.230  29.889   7.953
 6604POPC   C4A22734  39.223  29.897   7.653
 6604POPC   C1B22735  39.255  30.138   8.553
 6604POPC   C2B22736  39.324  30.187   8.253
 6604POPC   C3B22737  39.271  30.171   7.953
 6604POPC   C4B22738  39.269  30.166   7.653
 6605POPC   NC322739  24.488   8.176   9.453
 6605POPC   PO422740  24.500   8.206   9.153
 6605POPC   GL122741  24.467   8.241   8.853
 6605POPC   GL222742  24.552   8.236   8.853
 6605POPC   C1A22743  24.507   8.156   8.553
 6605POPC   D2A22744  24.499   8.165   8.253
 6605POPC   C3A22745  24.500   8.182   7.953
 6605POPC   C4A22746  24.524   8.158   7.653
 6605POPC   C1B22747  24.703   8.341   8.553
 6605POPC   C2B22748  24.697   8.350   8.253
 6605POPC   C3B22749  24.664   8.358   7.953
 6605POPC   C4B22750  24.726   8.276   7.653
 6606POPC   NC322751  28.391  24.524   9.453
 6606POPC   PO422752  28.356  24.449   9.153
 6606POPC   GL122753  28.344  24.474   8.853
 6606POPC   GL222754  28.473  24.566   8.853
 6606POPC   C1A22755  28.351  24.505   8.553
 6606POPC   D2A22756  28.353  24.507   8.253
 6606POPC   C3A22757  28.350  24.494   7.953
 6606POPC   C4A22758  28.375  24.503   7.653
 6606POPC   C1B22759  28.545  24.646   8.553
 6606POPC   C2B22760  28.582  24.552   8.253
 6606POPC   C3B22761  28.602  24.602   7.953
 6606POPC   C4B22762  28.571  24.599   7.653
 6607POPC   NC322763  17.552  43.863   9.453
 6607POPC   PO422764  17.502  43.930   9.153
 6607POPC   GL122765  17.478  43.861   8.853
 6607POPC   GL222766  17.426  43.943   8.853
 6607POPC   C1A22767  17.530  43.847   8.553
 6607POPC   D2A22768  17.549  43.843   8.253
 6607POPC   C3A22769  17.540  43.837   7.953
 6607POPC   C4A22770  17.515  43.907   7.653
 6607POPC   C1B22771  17.306  43.958   8.553
 6607POPC   C2B22772  17.226  43.937   8.253
 6607POPC   C3B22773  17.265  43.929   7.953
 6607POPC   C4B22774  17.253  43.923   7.653
 6608POPC   NC322775  38.469  43.920   9.453
 6608POPC   PO422776  38.445  43.901   9.153
 6608POPC   GL122777  38.495  43.923   8.853
 6608POPC   GL222778  38.460  43.761   8.853
 6608POPC   C1A22779  38.407  43.895   8.553
 6608POPC   D2A22780  38.411  43.907   8.253
 6608POPC   C3A22781  38.498  43.867   7.953
 6608POPC   C4A22782  38.472  43.881   7.653
 6608POPC   C1B22783  38.438  43.597   8.553
 6608POPC   C2B22784  38.418  43.616   8.253
 6608POPC   C3B22785  38.390  43.653   7.953
 6608POPC   C4B22786  38.372  43.685   7.653
 6609POPC   NC322787  29.140   4.296   9.453
 6609POPC   PO422788  29.109   4.286   9.153
 6609POPC   GL122789  29.142   4.286   8.853
 6609POPC   GL222790  29.227   4.403   8.853
 6609POPC   C1A22791  29.132   4.363   8.553
 6609POPC   D2A22792  29.110   4.292   8.253
 6609POPC   C3A22793  29.157   4.312   7.953
 6609POPC   C4A22794  29.149   4.340   7.653
 6609POPC   C1B22795  29.201   4.591   8.553
 6609POPC   C2B22796  29.207   4.528   8.253
 6609POPC   C3B22797  29.188   4.544   7.953
 6609POPC   C4B22798  29.206   4.585   7.653
 6610POPC   NC322799  25.299   4.312   9.453
 6610POPC   PO422800  25.289   4.290   9.153
 6610POPC   GL122801  25.259   4.297   8.853
 6610POPC   GL222802  25.384   4.290   8.853
 6610POPC   C1A22803  25.257   4.325   8.553
 6610POPC   D2A22804  25.276   4.292   8.253
 6610POPC   C3A22805  25.251   4.296   7.953
 6610POPC   C4A22806  25.274   4.302   7.653
 6610POPC   C1B22807  25.521   4.252   8.553
 6610POPC   C2B22808  25.471   4.227   8.253
 6610POPC   C3B22809  25.460   4.237   7.953
 6610POPC   C4B22810  25.486   4.234   7.653
 6611POPC   NC322811  36.175  43.160   9.453
 6611POPC   PO422812  36.083  43.104   9.153
 6611POPC   GL122813  36.090  43.089   8.853
 6611POPC   GL222814  36.140  43.265   8.853
 6611POPC   C1A22815  36.137  43.094   8.553
 6611POPC   D2A22816  36.120  43.095   8.253
 6611POPC   C3A22817  36.079  43.078   7.953
 6611POPC   C4A22818  36.167  43.066   7.653
 6611POPC   C1B22819  36.231  43.314   8.553
 6611POPC   C2B22820  36.165  43.305   8.253
 6611POPC   C3B22821  36.260  43.374   7.953
 6611POPC   C4B22822  36.168  43.306   7.653
 6612POPC   NC322823  33.794  35.360   9.453
 6612POPC   PO422824  33.813  35.339   9.153
 6612POPC   GL122825  33.763  35.371   8.853
 6612POPC   GL222826  33.778  35.478   8.853
 6612POPC   C1A22827  33.845  35.329   8.553
 6612POPC   D2A22828  33.794  35.306   8.253
 6612POPC   C3A22829  33.842  35.351   7.953
 6612POPC   C4A22830  33.784  35.305   7.653
 6612POPC   C1B22831  33.766  35.586   8.553
 6612POPC   C2B22832  33.851  35.554   8.253
 6612POPC   C3B22833  33.811  35.645   7.953
 6612POPC   C4B22834  33.840  35.619   7.653
 6613POPC   NC322835  12.902  26.835   9.453
 6613POPC   PO422836  12.802  26.829   9.153
 6613POPC   GL122837  12.827  26.863   8.853
 6613POPC   GL222838  12.864  26.984   8.853
 6613POPC   C1A22839  12.862  26.805   8.553
 6613POPC   D2A22840  12.867  26.812   8.253
 6613POPC   C3A22841  12.869  26.799   7.953
 6613POPC   C4A22842  12.822  26.793   7.653
 6613POPC   C1B22843  12.855  27.040   8.553
 6613POPC   C2B22844  12.841  27.100   8.253
 6613POPC   C3B22845  12.864  27.087   7.953
 6613POPC   C4B22846  12.881  27.048   7.653
 6614POPC   NC322847   3.500  43.139   9.453
 6614POPC   PO422848   3.528  43.134   9.153
 6614POPC   GL122849   3.508  43.124   8.853
 6614POPC   GL222850   3.573  43.178   8.853
 6614POPC   C1A22851   3.500  43.158   8.553
 6614POPC   D2A22852   3.528  43.060   8.253
 6614POPC   C3A22853   3.516  43.144   7.953
 6614POPC   C4A22854   3.539  43.087   7.653
 6614POPC   C1B22855   3.658  43.274   8.553
 6614POPC   C2B22856   3.656  43.299   8.253
 6614POPC   C3B22857   3.738  43.308   7.953
 6614POPC   C4B22858   3.718  43.343   7.653
 6615POPC   NC322859  31.445  43.931   9.453
 6615POPC   PO422860  31.457  43.855   9.153
 6615POPC   GL122861  31.495  43.935   8.853
 6615POPC   GL222862  31.518  43.806   8.853
 6615POPC   C1A22863  31.465  43.851   8.553
 6615POPC   D2A22864  31.470  43.902   8.253
 6615POPC   C3A22865  31.501  43.920   7.953
 6615POPC   C4A22866  31.480  43.902   7.653
 6615POPC   C1B22867  31.599  43.643   8.553
 6615POPC   C2B22868  31.580  43.711   8.253
 6615POPC   C3B22869  31.623  43.672   7.953
 6615POPC   C4B22870  31.575  43.706   7.653
 6616POPC   NC322871  17.555  13.620   9.453
 6616POPC   PO422872  17.538  13.622   9.153
 6616POPC   GL122873  17.489  13.650   8.853
 6616POPC   GL222874  17.471  13.779   8.853
 6616POPC   C1A22875  17.467  13.656   8.553
 6616POPC   D2A22876  17.512  13.609   8.253
 6616POPC   C3A22877  17.527  13.644   7.953
 6616POPC   C4A22878  17.534  13.642   7.653
 6616POPC   C1B22879  17.474  13.847   8.553
 6616POPC   C2B22880  17.499  13.891   8.253
 6616POPC   C3B22881  17.532  13.875   7.953
 6616POPC   C4B22882  17.478  13.890   7.653
 6617POPC   NC322883  11.335  15.909   9.453
 6617POPC   PO422884  11.270  15.973   9.153
 6617POPC   GL122885  11.269  15.958   8.853
 6617POPC   GL222886  11.286  15.838   8.853
 6617POPC   C1A22887  11.301  15.919   8.553
 6617POPC   D2A22888  11.293  15.910   8.253
 6617POPC   C3A22889  11.260  15.995   7.953
 6617POPC   C4A22890  11.319  15.942   7.653
 6617POPC   C1B22891  11.352  15.715   8.553
 6617POPC   C2B22892  11.322  15.719   8.253
 6617POPC   C3B22893  11.333  15.680   7.953
 6617POPC   C4B22894  11.409  15.712   7.653
 6618POPC   NC322895  43.883  33.767   9.453
 6618POPC   PO422896  43.935  33.804   9.153
 6618POPC   GL122897  43.915  33.779   8.853
 6618POPC   GL222898  43.838  33.874   8.853
 6618POPC   C1A22899  43.857  33.801   8.553
 6618POPC   D2A22900  43.843  33.811   8.253
 6618POPC   C3A22901  43.861  33.760   7.953
 6618POPC   C4A22902  43.882  33.835   7.653
 6618POPC   C1B22903  43.751  34.005   8.553
 6618POPC   C2B22904  43.761  34.008   8.253
 6618POPC   C3B22905  43.811  33.977   7.953
 6618POPC   C4B22906  43.741  34.008   7.653
 6619POPC   NC322907  43.918   0.408   9.453
 6619POPC   PO422908  43.883   0.427   9.153
 6619POPC   GL122909  43.912   0.398   8.853
 6619POPC   GL222910  43.977   0.470   8.853
 6619POPC   C1A22911  43.907   0.470   8.553
 6619POPC   D2A22912  43.855   0.475   8.253
 6619POPC   C3A22913  43.920   0.474   7.953
 6619POPC   C4A22914  43.931   0.438   7.653
 6619POPC   C1B22915  44.074   0.492   8.553
 6619POPC   C2B22916  44.128   0.512   8.253
 6619POPC   C3B22917  44.076   0.500   7.953
 6619POPC   C4B22918  44.151   0.587   7.653
 6620POPC   NC322919   5.903  12.117   9.453
 6620POPC   PO422920   5.872  12.105   9.153
 6620POPC   GL122921   5.894  12.115   8.853
 6620POPC   GL222922   5.768  12.161   8.853
 6620POPC   C1A22923   5.913  12.122   8.553
 6620POPC   D2A22924   5.903  12.057   8.253
 6620POPC   C3A22925   5.898  12.055   7.953
 6620POPC   C4A22926   5.872  12.098   7.653
 6620POPC   C1B22927   5.674  12.148   8.553
 6620POPC   C2B22928   5.625  12.164   8.253
 6620POPC   C3B22929   5.680  12.170   7.953
 6620POPC   C4B22930   5.632  12.220   7.653
 6621POPC   NC322931  32.998  11.260   9.453
 6621POPC   PO422932  33.002  11.258   9.153
 6621POPC   GL122933  32.983  11.323   8.853
 6621POPC   GL222934  32.958  11.452   8.853
 6621POPC   C1A22935  33.068  11.267   8.553
 6621POPC   D2A22936  33.018  11.321   8.253
 6621POPC   C3A22937  33.017  11.331   7.953
 6621POPC   C4A22938  33.018  11.314   7.653
 6621POPC   C1B22939  32.919  11.484   8.553
 6621POPC   C2B22940  32.941  11.471   8.253
 6621POPC   C3B22941  32.844  11.481   7.953
 6621POPC   C4B22942  32.932  11.463   7.653
 6622POPC   NC322943  23.756  37.630   9.453
 6622POPC   PO422944  23.669  37.658   9.153
 6622POPC   GL122945  23.680  37.726   8.853
 6622POPC   GL222946  23.858  37.655   8.853
 6622POPC   C1A22947  23.715  37.695   8.553
 6622POPC   D2A22948  23.720  37.719   8.253
 6622POPC   C3A22949  23.719  37.668   7.953
 6622POPC   C4A22950  23.728  37.702   7.653
 6622POPC   C1B22951  23.994  37.558   8.553
 6622POPC   C2B22952  23.989  37.620   8.253
 6622POPC   C3B22953  23.925  37.568   7.953
 6622POPC   C4B22954  23.914  37.572   7.653
 6623POPC   NC322955  36.124  31.506   9.453
 6623POPC   PO422956  36.090  31.436   9.153
 6623POPC   GL122957  36.109  31.504   8.853
 6623POPC   GL222958  36.140  31.344   8.853
 6623POPC   C1A22959  36.162  31.457   8.553
 6623POPC   D2A22960  36.107  31.475   8.253
 6623POPC   C3A22961  36.144  31.471   7.953
 6623POPC   C4A22962  36.101  31.427   7.653
 6623POPC   C1B22963  36.145  31.271   8.553
 6623POPC   C2B22964  36.108  31.247   8.253
 6623POPC   C3B22965  36.123  31.218   7.953
 6623POPC   C4B22966  36.101  31.255   7.653
 6624POPC   NC322967   1.974   4.324   9.453
 6624POPC   PO422968   1.943   4.280   9.153
 6624POPC   GL122969   1.961   4.289   8.853
 6624POPC   GL222970   2.092   4.298   8.853
 6624POPC   C1A22971   1.949   4.339   8.553
 6624POPC   D2A22972   1.947   4.352   8.253
 6624POPC   C3A22973   1.991   4.352   7.953
 6624POPC   C4A22974   1.973   4.324   7.653
 6624POPC   C1B22975   2.267   4.395   8.553
 6624POPC   C2B22976   2.262   4.383   8.253
 6624POPC   C3B22977   2.206   4.325   7.953
 6624POPC   C4B22978   2.210   4.354   7.653
 6625POPC   NC322979   9.797  35.328   9.453
 6625POPC   PO422980   9.778  35.308   9.153
 6625POPC   GL122981   9.725  35.400   8.853
 6625POPC   GL222982   9.815  35.226   8.853
 6625POPC   C1A22983   9.769  35.332   8.553
 6625POPC   D2A22984   9.798  35.363   8.253
 6625POPC   C3A22985   9.790  35.325   7.953
 6625POPC   C4A22986   9.782  35.373   7.653
 6625POPC   C1B22987   9.808  35.140   8.553
 6625POPC   C2B22988   9.788  35.067   8.253
 6625POPC   C3B22989   9.778  35.113   7.953
 6625POPC   C4B22990   9.753  35.059   7.653
 6626POPC   NC322991  38.473  12.106   9.453
 6626POPC   PO422992  38.443  12.069   9.153
 6626POPC   GL122993  38.501  12.100   8.853
 6626POPC   GL222994  38.402  12.151   8.853
 6626POPC   C1A22995  38.434  12.035   8.553
 6626POPC   D2A22996  38.452  12.060   8.253
 6626POPC   C3A22997  38.422  12.082   7.953
 6626POPC   C4A22998  38.502  12.097   7.653
 6626POPC   C1B22999  38.276  12.273   8.553
 6626POPC   C2B23000  38.282  12.318   8.253
 6626POPC   C3B23001  38.341  12.270   7.953
 6626POPC   C4B23002  38.324  12.266   7.653
 6627POPC   NC323003   1.235  22.153   9.453
 6627POPC   PO423004   1.200  22.199   9.153
 6627POPC   GL123005   1.231  22.202   8.853
 6627POPC   GL223006   1.143  22.039   8.853
 6627POPC   C1A23007   1.255  22.181   8.553
 6627POPC   D2A23008   1.248  22.146   8.253
 6627POPC   C3A23009   1.252  22.180   7.953
 6627POPC   C4A23010   1.190  22.179   7.653
 6627POPC   C1B23011   1.155  21.890   8.553
 6627POPC   C2B23012   1.149  21.891   8.253
 6627POPC   C3B23013   1.113  21.876   7.953
 6627POPC   C4B23014   1.174  21.929   7.653
 6628POPC   NC323015   2.018  11.286   9.453
 6628POPC   PO423016   1.961  11.295   9.153
 6628POPC   GL123017   2.012  11.297   8.853
 6628POPC   GL223018   2.053  11.384   8.853
 6628POPC   C1A23019   2.039  11.349   8.553
 6628POPC   D2A23020   1.954  11.285   8.253
 6628POPC   C3A23021   1.965  11.316   7.953
 6628POPC   C4A23022   2.022  11.287   7.653
 6628POPC   C1B23023   2.220  11.414   8.553
 6628POPC   C2B23024   2.158  11.396   8.253
 6628POPC   C3B23025   2.210  11.432   7.953
 6628POPC   C4B23026   2.196  11.486   7.653
 6629POPC   NC323027   4.309  17.513   9.453
 6629POPC   PO423028   4.355  17.557   9.153
 6629POPC   GL123029   4.364  17.550   8.853
 6629POPC   GL223030   4.225  17.577   8.853
 6629POPC   C1A23031   4.291  17.521   8.553
 6629POPC   D2A23032   4.291  17.522   8.253
 6629POPC   C3A23033   4.274  17.551   7.953
 6629POPC   C4A23034   4.352  17.555   7.653
 6629POPC   C1B23035   4.063  17.597   8.553
 6629POPC   C2B23036   4.079  17.616   8.253
 6629POPC   C3B23037   4.124  17.641   7.953
 6629POPC   C4B23038   4.114  17.631   7.653
 6630POPC   NC323039   5.829  29.962   9.453
 6630POPC   PO423040   5.845  29.884   9.153
 6630POPC   GL123041   5.876  29.879   8.853
 6630POPC   GL223042   5.859  30.073   8.853
 6630POPC   C1A23043   5.854  29.931   8.553
 6630POPC   D2A23044   5.877  29.905   8.253
 6630POPC   C3A23045   5.899  29.889   7.953
 6630POPC   C4A23046   5.835  29.897   7.653
 6630POPC   C1B23047   5.812  30.154   8.553
 6630POPC   C2B23048   5.761  30.177   8.253
 6630POPC   C3B23049   5.805  30.182   7.953
 6630POPC   C4B23050   5.779  30.129   7.653
 6631POPC   NC323051  38.457  38.428   9.453
 6631POPC   PO423052  38.440  38.501   9.153
 6631POPC   GL123053  38.423  38.423   8.853
 6631POPC   GL223054  38.555  38.398   8.853
 6631POPC   C1A23055  38.474  38.419   8.553
 6631POPC   D2A23056  38.447  38.426   8.253
 6631POPC   C3A23057  38.497  38.504   7.953
 6631POPC   C4A23058  38.473  38.503   7.653
 6631POPC   C1B23059  38.631  38.270   8.553
 6631POPC   C2B23060  38.613  38.260   8.253
 6631POPC   C3B23061  38.611  38.259   7.953
 6631POPC   C4B23062  38.672  38.294   7.653
 6632POPC   NC323063  36.863  10.538   9.453
 6632POPC   PO423064  36.908  10.552   9.153
 6632POPC   GL123065  36.883  10.542   8.853
 6632POPC   GL223066  36.786  10.528   8.853
 6632POPC   C1A23067  36.893  10.569   8.553
 6632POPC   D2A23068  36.911  10.526   8.253
 6632POPC   C3A23069  36.935  10.531   7.953
 6632POPC   C4A23070  36.920  10.556   7.653
 6632POPC   C1B23071  36.717  10.477   8.553
 6632POPC   C2B23072  36.685  10.460   8.253
 6632POPC   C3B23073  36.706  10.407   7.953
 6632POPC   C4B23074  36.625  10.467   7.653
 6633POPC   NC323075   6.638  34.605   9.453
 6633POPC   PO423076   6.675  34.531   9.153
 6633POPC   GL123077   6.634  34.546   8.853
 6633POPC   GL223078   6.696  34.693   8.853
 6633POPC   C1A23079   6.644  34.604   8.553
 6633POPC   D2A23080   6.672  34.576   8.253
 6633POPC   C3A23081   6.659  34.613   7.953
 6633POPC   C4A23082   6.603  34.593   7.653
 6633POPC   C1B23083   6.833  34.686   8.553
 6633POPC   C2B23084   6.880  34.707   8.253
 6633POPC   C3B23085   6.855  34.737   7.953
 6633POPC   C4B23086   6.841  34.744   7.653
 6634POPC   NC323087  21.379  31.494   9.453
 6634POPC   PO423088  21.406  31.519   9.153
 6634POPC   GL123089  21.419  31.451   8.853
 6634POPC   GL223090  21.445  31.559   8.853
 6634POPC   C1A23091  21.379  31.444   8.553
 6634POPC   D2A23092  21.345  31.448   8.253
 6634POPC   C3A23093  21.411  31.504   7.953
 6634POPC   C4A23094  21.363  31.478   7.653
 6634POPC   C1B23095  21.479  31.700   8.553
 6634POPC   C2B23096  21.518  31.642   8.253
 6634POPC   C3B23097  21.530  31.692   7.953
 6634POPC   C4B23098  21.520  31.727   7.653
 6635POPC   NC323099  15.907   8.981   9.453
 6635POPC   PO423100  15.944   8.963   9.153
 6635POPC   GL123101  15.948   8.969   8.853
 6635POPC   GL223102  15.964   8.850   8.853
 6635POPC   C1A23103  15.932   8.959   8.553
 6635POPC   D2A23104  15.948   8.975   8.253
 6635POPC   C3A23105  15.964   8.941   7.953
 6635POPC   C4A23106  15.931   8.953   7.653
 6635POPC   C1B23107  15.939   8.697   8.553
 6635POPC   C2B23108  15.971   8.706   8.253
 6635POPC   C3B23109  15.890   8.700   7.953
 6635POPC   C4B23110  15.943   8.762   7.653
 6636POPC   NC323111  39.215  22.157   9.453
 6636POPC   PO423112  39.270  22.135   9.153
 6636POPC   GL123113  39.248  22.144   8.853
 6636POPC   GL223114  39.337  22.209   8.853
 6636POPC   C1A23115  39.272  22.184   8.553
 6636POPC   D2A23116  39.239  22.212   8.253
 6636POPC   C3A23117  39.280  22.202   7.953
 6636POPC   C4A23118  39.186  22.181   7.653
 6636POPC   C1B23119  39.398  22.317   8.553
 6636POPC   C2B23120  39.400  22.361   8.253
 6636POPC   C3B23121  39.414  22.379   7.953
 6636POPC   C4B23122  39.382  22.329   7.653
 6637POPC   NC323123  28.378  36.891   9.453
 6637POPC   PO423124  28.380  36.874   9.153
 6637POPC   GL123125  28.417  36.879   8.853
 6637POPC   GL223126  28.458  36.854   8.853
 6637POPC   C1A23127  28.378  36.854   8.553
 6637POPC   D2A23128  28.401  36.900   8.253
 6637POPC   C3A23129  28.332  36.875   7.953
 6637POPC   C4A23130  28.391  36.862   7.653
 6637POPC   C1B23131  28.568  36.857   8.553
 6637POPC   C2B23132  28.647  36.839   8.253
 6637POPC   C3B23133  28.555  36.826   7.953
 6637POPC   C4B23134  28.566  36.809   7.653
 6638POPC   NC323135   2.735  43.144   9.453
 6638POPC   PO423136   2.732  43.144   9.153
 6638POPC   GL123137   2.741  43.124   8.853
 6638POPC   GL223138   2.765  43.275   8.853
 6638POPC   C1A23139   2.732  43.083   8.553
 6638POPC   D2A23140   2.757  43.150   8.253
 6638POPC   C3A23141   2.811  43.137   7.953
 6638POPC   C4A23142   2.769  43.159   7.653
 6638POPC   C1B23143   2.631  43.378   8.553
 6638POPC   C2B23144   2.691  43.299   8.253
 6638POPC   C3B23145   2.699  43.372   7.953
 6638POPC   C4B23146   2.692  43.295   7.653
 6639POPC   NC323147   2.800  44.686   9.453
 6639POPC   PO423148   2.777  44.641   9.153
 6639POPC   GL123149   2.727  44.638   8.853
 6639POPC   GL223150   2.752  44.805   8.853
 6639POPC   C1A23151   2.773  44.692   8.553
 6639POPC   D2A23152   2.725  44.630   8.253
 6639POPC   C3A23153   2.806  44.620   7.953
 6639POPC   C4A23154   2.756  44.691   7.653
 6639POPC   C1B23155   2.677  44.920   8.553
 6639POPC   C2B23156   2.661  44.935   8.253
 6639POPC   C3B23157   2.663  44.926   7.953
 6639POPC   C4B23158   2.686  44.902   7.653
 6640POPC   NC323159   4.277  24.484   9.453
 6640POPC   PO423160   4.339  24.539   9.153
 6640POPC   GL123161   4.297  24.447   8.853
 6640POPC   GL223162   4.234  24.466   8.853
 6640POPC   C1A23163   4.333  24.520   8.553
 6640POPC   D2A23164   4.356  24.444   8.253
 6640POPC   C3A23165   4.292  24.509   7.953
 6640POPC   C4A23166   4.286  24.519   7.653
 6640POPC   C1B23167   4.111  24.435   8.553
 6640POPC   C2B23168   4.100  24.439   8.253
 6640POPC   C3B23169   4.122  24.417   7.953
 6640POPC   C4B23170   4.129  24.419   7.653
 6641POPC   NC323171  15.933  19.064   9.453
 6641POPC   PO423172  16.000  19.082   9.153
 6641POPC   GL123173  15.938  19.011   8.853
 6641POPC   GL223174  15.849  19.069   8.853
 6641POPC   C1A23175  15.982  19.046   8.553
 6641POPC   D2A23176  15.985  19.093   8.253
 6641POPC   C3A23177  15.986  19.073   7.953
 6641POPC   C4A23178  15.959  19.103   7.653
 6641POPC   C1B23179  15.716  19.151   8.553
 6641POPC   C2B23180  15.728  19.215   8.253
 6641POPC   C3B23181  15.702  19.121   7.953
 6641POPC   C4B23182  15.680  19.178   7.653
 6642POPC   NC323183  33.820  40.052   9.453
 6642POPC   PO423184  33.761  40.026   9.153
 6642POPC   GL123185  33.760  39.969   8.853
 6642POPC   GL223186  33.685  40.000   8.853
 6642POPC   C1A23187  33.762  40.013   8.553
 6642POPC   D2A23188  33.783  40.002   8.253
 6642POPC   C3A23189  33.772  40.018   7.953
 6642POPC   C4A23190  33.849  40.019   7.653
 6642POPC   C1B23191  33.517  40.060   8.553
 6642POPC   C2B23192  33.585  40.081   8.253
 6642POPC   C3B23193  33.539  40.032   7.953
 6642POPC   C4B23194  33.530  40.084   7.653
 6643POPC   NC323195  28.338  10.513   9.453
 6643POPC   PO423196  28.350  10.573   9.153
 6643POPC   GL123197  28.394  10.532   8.853
 6643POPC   GL223198  28.260  10.488   8.853
 6643POPC   C1A23199  28.396  10.486   8.553
 6643POPC   D2A23200  28.378  10.522   8.253
 6643POPC   C3A23201  28.375  10.491   7.953
 6643POPC   C4A23202  28.329  10.558   7.653
 6643POPC   C1B23203  28.141  10.399   8.553
 6643POPC   C2B23204  28.155  10.393   8.253
 6643POPC   C3B23205  28.125  10.318   7.953
 6643POPC   C4B23206  28.174  10.336   7.653
 6644POPC   NC323207  27.559  44.643   9.453
 6644POPC   PO423208  27.631  44.642   9.153
 6644POPC   GL123209  27.593  44.661   8.853
 6644POPC   GL223210  27.534  44.794   8.853
 6644POPC   C1A23211  27.552  44.694   8.553
 6644POPC   D2A23212  27.550  44.629   8.253
 6644POPC   C3A23213  27.576  44.699   7.953
 6644POPC   C4A23214  27.636  44.647   7.653
 6644POPC   C1B23215  27.391  44.884   8.553
 6644POPC   C2B23216  27.399  44.839   8.253
 6644POPC   C3B23217  27.377  44.863   7.953
 6644POPC   C4B23218  27.439  44.823   7.653
 6645POPC   NC323219  26.023   5.090   9.453
 6645POPC   PO423220  26.013   5.046   9.153
 6645POPC   GL123221  26.080   5.136   8.853
 6645POPC   GL223222  25.928   5.155   8.853
 6645POPC   C1A23223  26.030   5.090   8.553
 6645POPC   D2A23224  26.084   5.096   8.253
 6645POPC   C3A23225  26.085   5.069   7.953
 6645POPC   C4A23226  26.017   5.132   7.653
 6645POPC   C1B23227  25.756   5.109   8.553
 6645POPC   C2B23228  25.772   5.090   8.253
 6645POPC   C3B23229  25.759   5.185   7.953
 6645POPC   C4B23230  25.751   5.160   7.653
 6646POPC   NC323231  36.146  22.150   9.453
 6646POPC   PO423232  36.095  22.157   9.153
 6646POPC   GL123233  36.159  22.128   8.853
 6646POPC   GL223234  36.261  22.067   8.853
 6646POPC   C1A23235  36.078  22.133   8.553
 6646POPC   D2A23236  36.164  22.181   8.253
 6646POPC   C3A23237  36.094  22.157   7.953
 6646POPC   C4A23238  36.093  22.173   7.653
 6646POPC   C1B23239  36.283  22.015   8.553
 6646POPC   C2B23240  36.334  22.021   8.253
 6646POPC   C3B23241  36.276  22.003   7.953
 6646POPC   C4B23242  36.271  21.956   7.653
 6647POPC   NC323243   1.217  40.829   9.453
 6647POPC   PO423244   1.164  40.814   9.153
 6647POPC   GL123245   1.190  40.808   8.853
 6647POPC   GL223246   1.164  40.625   8.853
 6647POPC   C1A23247   1.173  40.800   8.553
 6647POPC   D2A23248   1.214  40.776   8.253
 6647POPC   C3A23249   1.165  40.794   7.953
 6647POPC   C4A23250   1.176  40.822   7.653
 6647POPC   C1B23251   1.101  40.507   8.553
 6647POPC   C2B23252   1.176  40.568   8.253
 6647POPC   C3B23253   1.138  40.529   7.953
 6647POPC   C4B23254   1.095  40.571   7.653
 6648POPC   NC323255   8.934  11.279   9.453
 6648POPC   PO423256   9.011  11.331   9.153
 6648POPC   GL123257   8.993  11.350   8.853
 6648POPC   GL223258   8.999  11.442   8.853
 6648POPC   C1A23259   8.924  11.276   8.553
 6648POPC   D2A23260   9.007  11.326   8.253
 6648POPC   C3A23261   9.000  11.320   7.953
 6648POPC   C4A23262   8.947  11.266   7.653
 6648POPC   C1B23263   8.966  11.558   8.553
 6648POPC   C2B23264   9.026  11.574   8.253
 6648POPC   C3B23265   9.008  11.561   7.953
 6648POPC   C4B23266   8.968  11.585   7.653
 6649POPC   NC323267  11.253  19.070   9.453
 6649POPC   PO423268  11.342  19.057   9.153
 6649POPC   GL123269  11.318  19.047   8.853
 6649POPC   GL223270  11.235  19.165   8.853
 6649POPC   C1A23271  11.349  19.051   8.553
 6649POPC   D2A23272  11.255  19.021   8.253
 6649POPC   C3A23273  11.265  19.053   7.953
 6649POPC   C4A23274  11.275  19.054   7.653
 6649POPC   C1B23275  11.157  19.264   8.553
 6649POPC   C2B23276  11.178  19.303   8.253
 6649POPC   C3B23277  11.118  19.211   7.953
 6649POPC   C4B23278  11.098  19.241   7.653
 6650POPC   NC323279  36.136  33.064   9.453
 6650POPC   PO423280  36.166  33.051   9.153
 6650POPC   GL123281  36.160  33.035   8.853
 6650POPC   GL223282  35.985  33.108   8.853
 6650POPC   C1A23283  36.149  32.982   8.553
 6650POPC   D2A23284  36.113  33.059   8.253
 6650POPC   C3A23285  36.133  33.063   7.953
 6650POPC   C4A23286  36.177  33.051   7.653
 6650POPC   C1B23287  35.955  33.131   8.553
 6650POPC   C2B23288  35.922  33.165   8.253
 6650POPC   C3B23289  35.902  33.117   7.953
 6650POPC   C4B23290  35.939  33.190   7.653
 6651POPC   NC323291  22.898  22.172   9.453
 6651POPC   PO423292  22.960  22.151   9.153
 6651POPC   GL123293  22.904  22.140   8.853
 6651POPC   GL223294  23.021  22.120   8.853
 6651POPC   C1A23295  22.892  22.153   8.553
 6651POPC   D2A23296  22.951  22.177   8.253
 6651POPC   C3A23297  22.943  22.113   7.953
 6651POPC   C4A23298  22.948  22.125   7.653
 6651POPC   C1B23299  23.169  22.118   8.553
 6651POPC   C2B23300  23.158  22.101   8.253
 6651POPC   C3B23301  23.182  22.110   7.953
 6651POPC   C4B23302  23.201  22.103   7.653
 6652POPC   NC323303  28.397   8.189   9.453
 6652POPC   PO423304  28.410   8.161   9.153
 6652POPC   GL123305  28.336   8.152   8.853
 6652POPC   GL223306  28.470   8.254   8.853
 6652POPC   C1A23307  28.327   8.180   8.553
 6652POPC   D2A23308  28.331   8.238   8.253
 6652POPC   C3A23309  28.322   8.209   7.953
 6652POPC   C4A23310  28.378   8.226   7.653
 6652POPC   C1B23311  28.570   8.255   8.553
 6652POPC   C2B23312  28.591   8.325   8.253
 6652POPC   C3B23313  28.624   8.295   7.953
 6652POPC   C4B23314  28.557   8.287   7.653
 6653POPC   NC323315  24.446  12.807   9.453
 6653POPC   PO423316  24.521  12.863   9.153
 6653POPC   GL123317  24.469  12.880   8.853
 6653POPC   GL223318  24.586  12.797   8.853
 6653POPC   C1A23319  24.469  12.886   8.553
 6653POPC   D2A23320  24.443  12.893   8.253
 6653POPC   C3A23321  24.467  12.887   7.953
 6653POPC   C4A23322  24.515  12.898   7.653
 6653POPC   C1B23323  24.643  12.687   8.553
 6653POPC   C2B23324  24.603  12.620   8.253
 6653POPC   C3B23325  24.600  12.612   7.953
 6653POPC   C4B23326  24.635  12.609   7.653
 6654POPC   NC323327   5.889   0.482   9.453
 6654POPC   PO423328   5.876   0.393   9.153
 6654POPC   GL123329   5.846   0.481   8.853
 6654POPC   GL223330   5.962   0.486   8.853
 6654POPC   C1A23331   5.868   0.471   8.553
 6654POPC   D2A23332   5.884   0.440   8.253
 6654POPC   C3A23333   5.825   0.451   7.953
 6654POPC   C4A23334   5.893   0.441   7.653
 6654POPC   C1B23335   6.127   0.434   8.553
 6654POPC   C2B23336   6.109   0.465   8.253
 6654POPC   C3B23337   6.113   0.461   7.953
 6654POPC   C4B23338   6.127   0.447   7.653
 6655POPC   NC323339   0.388  29.115   9.453
 6655POPC   PO423340   0.406  29.142   9.153
 6655POPC   GL123341   0.458  29.142   8.853
 6655POPC   GL223342   0.490  29.239   8.853
 6655POPC   C1A23343   0.459  29.180   8.553
 6655POPC   D2A23344   0.486  29.153   8.253
 6655POPC   C3A23345   0.401  29.112   7.953
 6655POPC   C4A23346   0.487  29.127   7.653
 6655POPC   C1B23347   0.453  29.430   8.553
 6655POPC   C2B23348   0.509  29.414   8.253
 6655POPC   C3B23349   0.466  29.420   7.953
 6655POPC   C4B23350   0.492  29.430   7.653
 6656POPC   NC323351  19.069  34.530   9.453
 6656POPC   PO423352  19.027  34.625   9.153
 6656POPC   GL123353  19.026  34.580   8.853
 6656POPC   GL223354  19.171  34.631   8.853
 6656POPC   C1A23355  19.016  34.560   8.553
 6656POPC   D2A23356  19.032  34.558   8.253
 6656POPC   C3A23357  19.055  34.542   7.953
 6656POPC   C4A23358  19.041  34.590   7.653
 6656POPC   C1B23359  19.176  34.732   8.553
 6656POPC   C2B23360  19.205  34.807   8.253
 6656POPC   C3B23361  19.210  34.794   7.953
 6656POPC   C4B23362  19.225  34.734   7.653
 6657POPC   NC323363   1.245  26.794   9.453
 6657POPC   PO423364   1.221  26.780   9.153
 6657POPC   GL123365   1.231  26.853   8.853
 6657POPC   GL223366   1.337  26.756   8.853
 6657POPC   C1A23367   1.223  26.817   8.553
 6657POPC   D2A23368   1.225  26.853   8.253
 6657POPC   C3A23369   1.255  26.774   7.953
 6657POPC   C4A23370   1.217  26.781   7.653
 6657POPC   C1B23371   1.434  26.622   8.553
 6657POPC   C2B23372   1.369  26.710   8.253
 6657POPC   C3B23373   1.405  26.633   7.953
 6657POPC   C4B23374   1.435  26.655   7.653
 6658POPC   NC323375  38.437  16.759   9.453
 6658POPC   PO423376  38.471  16.778   9.153
 6658POPC   GL123377  38.497  16.748   8.853
 6658POPC   GL223378  38.563  16.679   8.853
 6658POPC   C1A23379  38.437  16.760   8.553
 6658POPC   D2A23380  38.503  16.737   8.253
 6658POPC   C3A23381  38.423  16.700   7.953
 6658POPC   C4A23382  38.415  16.729   7.653
 6658POPC   C1B23383  38.691  16.681   8.553
 6658POPC   C2B23384  38.670  16.716   8.253
 6658POPC   C3B23385  38.700  16.679   7.953
 6658POPC   C4B23386  38.655  16.734   7.653
 6659POPC   NC323387  31.446   7.422   9.453
 6659POPC   PO423388  31.516   7.405   9.153
 6659POPC   GL123389  31.453   7.452   8.853
 6659POPC   GL223390  31.336   7.486   8.853
 6659POPC   C1A23391  31.445   7.463   8.553
 6659POPC   D2A23392  31.504   7.459   8.253
 6659POPC   C3A23393  31.429   7.440   7.953
 6659POPC   C4A23394  31.510   7.466   7.653
 6659POPC   C1B23395  31.228   7.493   8.553
 6659POPC   C2B23396  31.224   7.440   8.253
 6659POPC   C3B23397  31.230   7.449   7.953
 6659POPC   C4B23398  31.258   7.518   7.653
 6660POPC   NC323399  30.691  11.266   9.453
 6660POPC   PO423400  30.743  11.329   9.153
 6660POPC   GL123401  30.658  11.338   8.853
 6660POPC   GL223402  30.842  11.250   8.853
 6660POPC   C1A23403  30.745  11.343   8.553
 6660POPC   D2A23404  30.678  11.290   8.253
 6660POPC   C3A23405  30.715  11.275   7.953
 6660POPC   C4A23406  30.735  11.341   7.653
 6660POPC   C1B23407  30.924  11.276   8.553
 6660POPC   C2B23408  30.940  11.217   8.253
 6660POPC   C3B23409  30.903  11.273   7.953
 6660POPC   C4B23410  30.935  11.261   7.653
 6661POPC   NC323411  35.324   1.958   9.453
 6661POPC   PO423412  35.352   1.966   9.153
 6661POPC   GL123413  35.399   1.985   8.853
 6661POPC   GL223414  35.231   2.091   8.853
 6661POPC   C1A23415  35.394   1.971   8.553
 6661POPC   D2A23416  35.380   2.000   8.253
 6661POPC   C3A23417  35.380   1.964   7.953
 6661POPC   C4A23418  35.336   1.999   7.653
 6661POPC   C1B23419  35.147   2.128   8.553
 6661POPC   C2B23420  35.145   2.109   8.253
 6661POPC   C3B23421  35.192   2.171   7.953
 6661POPC   C4B23422  35.200   2.152   7.653
 6662POPC   NC323423  22.935  12.040   9.453
 6662POPC   PO423424  22.982  12.047   9.153
 6662POPC   GL123425  22.923  12.061   8.853
 6662POPC   GL223426  23.024  12.149   8.853
 6662POPC   C1A23427  22.898  12.082   8.553
 6662POPC   D2A23428  22.969  12.034   8.253
 6662POPC   C3A23429  22.937  12.037   7.953
 6662POPC   C4A23430  22.959  12.093   7.653
 6662POPC   C1B23431  23.130  12.172   8.553
 6662POPC   C2B23432  23.108  12.250   8.253
 6662POPC   C3B23433  23.194  12.222   7.953
 6662POPC   C4B23434  23.117  12.220   7.653
 6663POPC   NC323435  13.585  34.625   9.453
 6663POPC   PO423436  13.614  34.618   9.153
 6663POPC   GL123437  13.629  34.572   8.853
 6663POPC   GL223438  13.590  34.690   8.853
 6663POPC   C1A23439  13.669  34.567   8.553
 6663POPC   D2A23440  13.592  34.611   8.253
 6663POPC   C3A23441  13.617  34.617   7.953
 6663POPC   C4A23442  13.597  34.572   7.653
 6663POPC   C1B23443  13.546  34.806   8.553
 6663POPC   C2B23444  13.630  34.871   8.253
 6663POPC   C3B23445  13.630  34.826   7.953
 6663POPC   C4B23446  13.617  34.865   7.653
 6664POPC   NC323447  30.667   5.108   9.453
 6664POPC   PO423448  30.716   5.134   9.153
 6664POPC   GL123449  30.718   5.054   8.853
 6664POPC   GL223450  30.607   4.983   8.853
 6664POPC   C1A23451  30.653   5.085   8.553
 6664POPC   D2A23452  30.723   5.082   8.253
 6664POPC   C3A23453  30.720   5.119   7.953
 6664POPC   C4A23454  30.662   5.075   7.653
 6664POPC   C1B23455  30.540   4.925   8.553
 6664POPC   C2B23456  30.522   4.871   8.253
 6664POPC   C3B23457  30.570   4.850   7.953
 6664POPC   C4B23458  30.537   4.884   7.653
 6665POPC   NC323459  19.884  35.305   9.453
 6665POPC   PO423460  19.856  35.383   9.153
 6665POPC   GL123461  19.841  35.387   8.853
 6665POPC   GL223462  19.767  35.259   8.853
 6665POPC   C1A23463  19.799  35.379   8.553
 6665POPC   D2A23464  19.817  35.390   8.253
 6665POPC   C3A23465  19.867  35.329   7.953
 6665POPC   C4A23466  19.871  35.374   7.653
 6665POPC   C1B23467  19.653  35.110   8.553
 6665POPC   C2B23468  19.685  35.136   8.253
 6665POPC   C3B23469  19.690  35.132   7.953
 6665POPC   C4B23470  19.644  35.114   7.653
 6666POPC   NC323471  20.637   3.570   9.453
 6666POPC   PO423472  20.616   3.518   9.153
 6666POPC   GL123473  20.568   3.535   8.853
 6666POPC   GL223474  20.764   3.553   8.853
 6666POPC   C1A23475  20.578   3.545   8.553
 6666POPC   D2A23476  20.585   3.539   8.253
 6666POPC   C3A23477  20.658   3.531   7.953
 6666POPC   C4A23478  20.591   3.517   7.653
 6666POPC   C1B23479  20.848   3.652   8.553
 6666POPC   C2B23480  20.870   3.622   8.253
 6666POPC   C3B23481  20.894   3.594   7.953
 6666POPC   C4B23482  20.892   3.605   7.653
 6667POPC   NC323483   0.442  15.942   9.453
 6667POPC   PO423484   0.419  15.946   9.153
 6667POPC   GL123485   0.443  15.955   8.853
 6667POPC   GL223486   0.501  16.041   8.853
 6667POPC   C1A23487   0.466  15.932   8.553
 6667POPC   D2A23488   0.413  15.919   8.253
 6667POPC   C3A23489   0.463  15.998   7.953
 6667POPC   C4A23490   0.412  15.945   7.653
 6667POPC   C1B23491   0.631  16.105   8.553
 6667POPC   C2B23492   0.661  16.098   8.253
 6667POPC   C3B23493   0.630  16.098   7.953
 6667POPC   C4B23494   0.632  16.080   7.653
 6668POPC   NC323495   1.173  40.001   9.453
 6668POPC   PO423496   1.232  40.023   9.153
 6668POPC   GL123497   1.206  39.986   8.853
 6668POPC   GL223498   1.082  40.041   8.853
 6668POPC   C1A23499   1.218  39.983   8.553
 6668POPC   D2A23500   1.170  40.047   8.253
 6668POPC   C3A23501   1.185  39.975   7.953
 6668POPC   C4A23502   1.188  39.989   7.653
 6668POPC   C1B23503   0.987  40.005   8.553
 6668POPC   C2B23504   0.961  40.010   8.253
 6668POPC   C3B23505   0.983  39.999   7.953
 6668POPC   C4B23506   1.006  40.076   7.653
 6669POPC   NC323507  27.620  26.812   9.453
 6669POPC   PO423508  27.618  26.837   9.153
 6669POPC   GL123509  27.592  26.831   8.853
 6669POPC   GL223510  27.696  26.932   8.853
 6669POPC   C1A23511  27.599  26.862   8.553
 6669POPC   D2A23512  27.590  26.777   8.253
 6669POPC   C3A23513  27.564  26.825   7.953
 6669POPC   C4A23514  27.610  26.862   7.653
 6669POPC   C1B23515  27.722  27.001   8.553
 6669POPC   C2B23516  27.734  26.998   8.253
 6669POPC   C3B23517  27.714  27.058   7.953
 6669POPC   C4B23518  27.671  27.051   7.653
 6670POPC   NC323519  43.843  40.024   9.453
 6670POPC   PO423520  43.881  40.026   9.153
 6670POPC   GL123521  43.924  39.994   8.853
 6670POPC   GL223522  43.874  39.932   8.853
 6670POPC   C1A23523  43.932  39.975   8.553
 6670POPC   D2A23524  43.860  39.995   8.253
 6670POPC   C3A23525  43.846  39.989   7.953
 6670POPC   C4A23526  43.884  40.014   7.653
 6670POPC   C1B23527  43.731  39.739   8.553
 6670POPC   C2B23528  43.743  39.801   8.253
 6670POPC   C3B23529  43.792  39.768   7.953
 6670POPC   C4B23530  43.790  39.766   7.653
 6671POPC   NC323531  23.730  18.318   9.453
 6671POPC   PO423532  23.725  18.242   9.153
 6671POPC   GL123533  23.747  18.235   8.853
 6671POPC   GL223534  23.584  18.224   8.853
 6671POPC   C1A23535  23.738  18.330   8.553
 6671POPC   D2A23536  23.751  18.287   8.253
 6671POPC   C3A23537  23.688  18.300   7.953
 6671POPC   C4A23538  23.741  18.295   7.653
 6671POPC   C1B23539  23.505  18.152   8.553
 6671POPC   C2B23540  23.549  18.082   8.253
 6671POPC   C3B23541  23.568  18.146   7.953
 6671POPC   C4B23542  23.487  18.150   7.653
 6672POPC   NC323543  44.643  43.869   9.453
 6672POPC   PO423544  44.653  43.921   9.153
 6672POPC   GL123545  44.667  43.873   8.853
 6672POPC   GL223546  44.682  43.783   8.853
 6672POPC   C1A23547  44.703  43.877   8.553
 6672POPC   D2A23548  44.696  43.855   8.253
 6672POPC   C3A23549  44.652  43.870   7.953
 6672POPC   C4A23550  44.674  43.841   7.653
 6672POPC   C1B23551  44.637  43.591   8.553
 6672POPC   C2B23552  44.615  43.601   8.253
 6672POPC   C3B23553  44.630  43.620   7.953
 6672POPC   C4B23554  44.596  43.635   7.653
 6673POPC   NC323555  13.613   5.091   9.453
 6673POPC   PO423556  13.641   5.049   9.153
 6673POPC   GL123557  13.621   5.048   8.853
 6673POPC   GL223558  13.516   5.201   8.853
 6673POPC   C1A23559  13.643   5.131   8.553
 6673POPC   D2A23560  13.585   5.059   8.253
 6673POPC   C3A23561  13.637   5.044   7.953
 6673POPC   C4A23562  13.602   5.043   7.653
 6673POPC   C1B23563  13.493   5.283   8.553
 6673POPC   C2B23564  13.410   5.264   8.253
 6673POPC   C3B23565  13.453   5.282   7.953
 6673POPC   C4B23566  13.451   5.235   7.653
 6674POPC   NC323567   9.015  16.004   9.453
 6674POPC   PO423568   8.932  15.954   9.153
 6674POPC   GL123569   8.925  15.941   8.853
 6674POPC   GL223570   9.068  15.907   8.853
 6674POPC   C1A23571   8.938  15.954   8.553
 6674POPC   D2A23572   8.959  15.963   8.253
 6674POPC   C3A23573   9.009  15.923   7.953
 6674POPC   C4A23574   8.930  16.003   7.653
 6674POPC   C1B23575   9.165  15.875   8.553
 6674POPC   C2B23576   9.171  15.818   8.253
 6674POPC   C3B23577   9.176  15.803   7.953
 6674POPC   C4B23578   9.208  15.792   7.653
 6675POPC   NC323579  23.728  34.623   9.453
 6675POPC   PO423580  23.694  34.555   9.153
 6675POPC   GL123581  23.673  34.572   8.853
 6675POPC   GL223582  23.754  34.516   8.853
 6675POPC   C1A23583  23.742  34.578   8.553
 6675POPC   D2A23584  23.734  34.608   8.253
 6675POPC   C3A23585  23.728  34.537   7.953
 6675POPC   C4A23586  23.696  34.609   7.653
 6675POPC   C1B23587  23.871  34.429   8.553
 6675POPC   C2B23588  23.916  34.383   8.253
 6675POPC   C3B23589  23.885  34.380   7.953
 6675POPC   C4B23590  23.907  34.422   7.653
 6676POPC   NC323591  37.687  29.871   9.453
 6676POPC   PO423592  37.646  29.908   9.153
 6676POPC   GL123593  37.639  29.889   8.853
 6676POPC   GL223594  37.774  29.927   8.853
 6676POPC   C1A23595  37.650  29.887   8.553
 6676POPC   D2A23596  37.719  29.916   8.253
 6676POPC   C3A23597  37.648  29.958   7.953
 6676POPC   C4A23598  37.701  29.935   7.653
 6676POPC   C1B23599  37.916  29.909   8.553
 6676POPC   C2B23600  37.913  29.890   8.253
 6676POPC   C3B23601  37.922  29.818   7.953
 6676POPC   C4B23602  37.875  29.820   7.653
 6677POPC   NC323603   7.413   3.571   9.453
 6677POPC   PO423604   7.442   3.516   9.153
 6677POPC   GL123605   7.433   3.516   8.853
 6677POPC   GL223606   7.579   3.562   8.853
 6677POPC   C1A23607   7.421   3.512   8.553
 6677POPC   D2A23608   7.437   3.526   8.253
 6677POPC   C3A23609   7.399   3.503   7.953
 6677POPC   C4A23610   7.388   3.494   7.653
 6677POPC   C1B23611   7.630   3.656   8.553
 6677POPC   C2B23612   7.680   3.675   8.253
 6677POPC   C3B23613   7.649   3.671   7.953
 6677POPC   C4B23614   7.601   3.632   7.653
 6678POPC   NC323615  44.679  33.845   9.453
 6678POPC   PO423616  44.644  33.833   9.153
 6678POPC   GL123617  44.635  33.806   8.853
 6678POPC   GL223618  44.569  33.902   8.853
 6678POPC   C1A23619  44.652  33.809   8.553
 6678POPC   D2A23620  44.631  33.771   8.253
 6678POPC   C3A23621  44.622  33.750   7.953
 6678POPC   C4A23622  44.628  33.831   7.653
 6678POPC   C1B23623  44.452  33.921   8.553
 6678POPC   C2B23624  44.387  33.914   8.253
 6678POPC   C3B23625  44.394  33.925   7.953
 6678POPC   C4B23626  44.407  33.923   7.653
 6679POPC   NC323627   8.969  32.199   9.453
 6679POPC   PO423628   8.998  32.284   9.153
 6679POPC   GL123629   8.950  32.203   8.853
 6679POPC   GL223630   8.903  32.121   8.853
 6679POPC   C1A23631   8.925  32.287   8.553
 6679POPC   D2A23632   8.967  32.281   8.253
 6679POPC   C3A23633   8.971  32.268   7.953
 6679POPC   C4A23634   8.929  32.270   7.653
 6679POPC   C1B23635   8.947  31.994   8.553
 6679POPC   C2B23636   8.929  32.053   8.253
 6679POPC   C3B23637   8.919  32.030   7.953
 6679POPC   C4B23638   8.896  31.973   7.653
 6680POPC   NC323639   6.635  33.062   9.453
 6680POPC   PO423640   6.693  33.038   9.153
 6680POPC   GL123641   6.623  32.997   8.853
 6680POPC   GL223642   6.680  32.903   8.853
 6680POPC   C1A23643   6.667  33.013   8.553
 6680POPC   D2A23644   6.596  33.062   8.253
 6680POPC   C3A23645   6.597  33.054   7.953
 6680POPC   C4A23646   6.662  33.002   7.653
 6680POPC   C1B23647   6.787  32.806   8.553
 6680POPC   C2B23648   6.794  32.770   8.253
 6680POPC   C3B23649   6.790  32.839   7.953
 6680POPC   C4B23650   6.735  32.812   7.653
 6681POPC   NC323651  36.946  29.166   9.453
 6681POPC   PO423652  36.879  29.117   9.153
 6681POPC   GL123653  36.905  29.188   8.853
 6681POPC   GL223654  36.765  29.098   8.853
 6681POPC   C1A23655  36.950  29.136   8.553
 6681POPC   D2A23656  36.876  29.140   8.253
 6681POPC   C3A23657  36.920  29.188   7.953
 6681POPC   C4A23658  36.913  29.116   7.653
 6681POPC   C1B23659  36.712  28.999   8.553
 6681POPC   C2B23660  36.722  28.995   8.253
 6681POPC   C3B23661  36.758  29.021   7.953
 6681POPC   C4B23662  36.669  28.960   7.653
 6682POPC   NC323663   7.411  44.620   9.453
 6682POPC   PO423664   7.437  44.688   9.153
 6682POPC   GL123665   7.445  44.662   8.853
 6682POPC   GL223666   7.523  44.679   8.853
 6682POPC   C1A23667   7.447  44.707   8.553
 6682POPC   D2A23668   7.413  44.622   8.253
 6682POPC   C3A23669   7.378  44.623   7.953
 6682POPC   C4A23670   7.460  44.621   7.653
 6682POPC   C1B23671   7.688  44.581   8.553
 6682POPC   C2B23672   7.662  44.637   8.253
 6682POPC   C3B23673   7.641  44.552   7.953
 6682POPC   C4B23674   7.646  44.624   7.653
 6683POPC   NC323675  37.665  24.485   9.453
 6683POPC   PO423676  37.645  24.473   9.153
 6683POPC   GL123677  37.654  24.475   8.853
 6683POPC   GL223678  37.608  24.434   8.853
 6683POPC   C1A23679  37.693  24.510   8.553
 6683POPC   D2A23680  37.645  24.492   8.253
 6683POPC   C3A23681  37.690  24.525   7.953
 6683POPC   C4A23682  37.726  24.528   7.653
 6683POPC   C1B23683  37.450  24.340   8.553
 6683POPC   C2B23684  37.477  24.301   8.253
 6683POPC   C3B23685  37.509  24.346   7.953
 6683POPC   C4B23686  37.470  24.365   7.653
 6684POPC   NC323687  29.918   0.418   9.453
 6684POPC   PO423688  29.931   0.422   9.153
 6684POPC   GL123689  29.895   0.427   8.853
 6684POPC   GL223690  29.901   0.606   8.853
 6684POPC   C1A23691  29.888   0.410   8.553
 6684POPC   D2A23692  29.873   0.438   8.253
 6684POPC   C3A23693  29.942   0.424   7.953
 6684POPC   C4A23694  29.954   0.487   7.653
 6684POPC   C1B23695  29.957   0.728   8.553
 6684POPC   C2B23696  29.961   0.735   8.253
 6684POPC   C3B23697  29.924   0.686   7.953
 6684POPC   C4B23698  29.923   0.656   7.653
 6685POPC   NC323699  26.014   4.341   9.453
 6685POPC   PO423700  26.067   4.336   9.153
 6685POPC   GL123701  25.999   4.289   8.853
 6685POPC   GL223702  25.913   4.284   8.853
 6685POPC   C1A23703  26.062   4.323   8.553
 6685POPC   D2A23704  26.028   4.321   8.253
 6685POPC   C3A23705  26.059   4.332   7.953
 6685POPC   C4A23706  25.993   4.333   7.653
 6685POPC   C1B23707  25.793   4.286   8.553
 6685POPC   C2B23708  25.751   4.264   8.253
 6685POPC   C3B23709  25.841   4.355   7.953
 6685POPC   C4B23710  25.817   4.283   7.653
 6686POPC   NC323711  44.677  37.695   9.453
 6686POPC   PO423712  44.649  37.710   9.153
 6686POPC   GL123713  44.622  37.652   8.853
 6686POPC   GL223714  44.517  37.799   8.853
 6686POPC   C1A23715  44.659  37.723   8.553
 6686POPC   D2A23716  44.645  37.728   8.253
 6686POPC   C3A23717  44.692  37.698   7.953
 6686POPC   C4A23718  44.707  37.673   7.653
 6686POPC   C1B23719  44.431  37.856   8.553
 6686POPC   C2B23720  44.498  37.852   8.253
 6686POPC   C3B23721  44.497  37.838   7.953
 6686POPC   C4B23722  44.519  37.889   7.653
 6687POPC   NC323723   2.802  37.672   9.453
 6687POPC   PO423724   2.803  37.649   9.153
 6687POPC   GL123725   2.742  37.667   8.853
 6687POPC   GL223726   2.628  37.586   8.853
 6687POPC   C1A23727   2.747  37.636   8.553
 6687POPC   D2A23728   2.740  37.692   8.253
 6687POPC   C3A23729   2.726  37.666   7.953
 6687POPC   C4A23730   2.729  37.716   7.653
 6687POPC   C1B23731   2.517  37.605   8.553
 6687POPC   C2B23732   2.584  37.575   8.253
 6687POPC   C3B23733   2.579  37.526   7.953
 6687POPC   C4B23734   2.534  37.609   7.653
 6688POPC   NC323735  14.423  17.497   9.453
 6688POPC   PO423736  14.402  17.513   9.153
 6688POPC   GL123737  14.428  17.546   8.853
 6688POPC   GL223738  14.292  17.617   8.853
 6688POPC   C1A23739  14.432  17.469   8.553
 6688POPC   D2A23740  14.395  17.542   8.253
 6688POPC   C3A23741  14.372  17.529   7.953
 6688POPC   C4A23742  14.425  17.515   7.653
 6688POPC   C1B23743  14.174  17.647   8.553
 6688POPC   C2B23744  14.198  17.607   8.253
 6688POPC   C3B23745  14.138  17.599   7.953
 6688POPC   C4B23746  14.217  17.605   7.653
 6689POPC   NC323747   8.182   8.179   9.453
 6689POPC   PO423748   8.201   8.185   9.153
 6689POPC   GL123749   8.155   8.167   8.853
 6689POPC   GL223750   8.272   8.139   8.853
 6689POPC   C1A23751   8.231   8.147   8.553
 6689POPC   D2A23752   8.164   8.148   8.253
 6689POPC   C3A23753   8.177   8.204   7.953
 6689POPC   C4A23754   8.152   8.244   7.653
 6689POPC   C1B23755   8.341   7.994   8.553
 6689POPC   C2B23756   8.356   7.970   8.253
 6689POPC   C3B23757   8.358   7.993   7.953
 6689POPC   C4B23758   8.367   7.987   7.653
 6690POPC   NC323759  36.158   5.073   9.453
 6690POPC   PO423760  36.085   5.118   9.153
 6690POPC   GL123761  36.168   5.097   8.853
 6690POPC   GL223762  36.083   4.998   8.853
 6690POPC   C1A23763  36.118   5.130   8.553
 6690POPC   D2A23764  36.157   5.090   8.253
 6690POPC   C3A23765  36.123   5.104   7.953
 6690POPC   C4A23766  36.078   5.091   7.653
 6690POPC   C1B23767  36.127   4.871   8.553
 6690POPC   C2B23768  36.154   4.843   8.253
 6690POPC   C3B23769  36.116   4.846   7.953
 6690POPC   C4B23770  36.092   4.888   7.653
 6691POPC   NC323771  10.548  42.352   9.453
 6691POPC   PO423772  10.518  42.318   9.153
 6691POPC   GL123773  10.518  42.296   8.853
 6691POPC   GL223774  10.468  42.458   8.853
 6691POPC   C1A23775  10.568  42.337   8.553
 6691POPC   D2A23776  10.498  42.324   8.253
 6691POPC   C3A23777  10.505  42.335   7.953
 6691POPC   C4A23778  10.571  42.313   7.653
 6691POPC   C1B23779  10.449  42.601   8.553
 6691POPC   C2B23780  10.448  42.617   8.253
 6691POPC   C3B23781  10.490  42.549   7.953
 6691POPC   C4B23782  10.445  42.599   7.653
 6692POPC   NC323783  12.113  29.159   9.453
 6692POPC   PO423784  12.096  29.096   9.153
 6692POPC   GL123785  12.034  29.124   8.853
 6692POPC   GL223786  12.244  29.156   8.853
 6692POPC   C1A23787  12.119  29.195   8.553
 6692POPC   D2A23788  12.037  29.142   8.253
 6692POPC   C3A23789  12.115  29.112   7.953
 6692POPC   C4A23790  12.040  29.144   7.653
 6692POPC   C1B23791  12.317  29.223   8.553
 6692POPC   C2B23792  12.273  29.167   8.253
 6692POPC   C3B23793  12.320  29.153   7.953
 6692POPC   C4B23794  12.366  29.208   7.653
 6693POPC   NC323795  36.884  42.368   9.453
 6693POPC   PO423796  36.904  42.314   9.153
 6693POPC   GL123797  36.920  42.315   8.853
 6693POPC   GL223798  36.977  42.208   8.853
 6693POPC   C1A23799  36.861  42.356   8.553
 6693POPC   D2A23800  36.882  42.377   8.253
 6693POPC   C3A23801  36.946  42.351   7.953
 6693POPC   C4A23802  36.883  42.384   7.653
 6693POPC   C1B23803  36.981  42.123   8.553
 6693POPC   C2B23804  36.977  42.056   8.253
 6693POPC   C3B23805  36.973  42.091   7.953
 6693POPC   C4B23806  36.954  42.046   7.653
 6694POPC   NC323807  22.148  31.480   9.453
 6694POPC   PO423808  22.152  31.518   9.153
 6694POPC   GL123809  22.173  31.472   8.853
 6694POPC   GL223810  22.250  31.489   8.853
 6694POPC   C1A23811  22.184  31.472   8.553
 6694POPC   D2A23812  22.185  31.491   8.253
 6694POPC   C3A23813  22.210  31.442   7.953
 6694POPC   C4A23814  22.182  31.505   7.653
 6694POPC   C1B23815  22.373  31.481   8.553
 6694POPC   C2B23816  22.437  31.496   8.253
 6694POPC   C3B23817  22.457  31.532   7.953
 6694POPC   C4B23818  22.433  31.485   7.653
 6695POPC   NC323819  15.987  30.727   9.453
 6695POPC   PO423820  15.981  30.698   9.153
 6695POPC   GL123821  15.908  30.689   8.853
 6695POPC   GL223822  15.849  30.633   8.853
 6695POPC   C1A23823  15.962  30.679   8.553
 6695POPC   D2A23824  15.969  30.680   8.253
 6695POPC   C3A23825  15.911  30.737   7.953
 6695POPC   C4A23826  15.920  30.726   7.653
 6695POPC   C1B23827  15.844  30.447   8.553
 6695POPC   C2B23828  15.789  30.474   8.253
 6695POPC   C3B23829  15.861  30.470   7.953
 6695POPC   C4B23830  15.794  30.445   7.653
 6696POPC   NC323831   1.174  10.552   9.453
 6696POPC   PO423832   1.194  10.478   9.153
 6696POPC   GL123833   1.257  10.487   8.853
 6696POPC   GL223834   1.181  10.589   8.853
 6696POPC   C1A23835   1.248  10.514   8.553
 6696POPC   D2A23836   1.255  10.513   8.253
 6696POPC   C3A23837   1.178  10.506   7.953
 6696POPC   C4A23838   1.261  10.519   7.653
 6696POPC   C1B23839   1.099  10.702   8.553
 6696POPC   C2B23840   1.135  10.700   8.253
 6696POPC   C3B23841   1.080  10.789   7.953
 6696POPC   C4B23842   1.148  10.774   7.653
 6697POPC   NC323843  25.264   3.515   9.453
 6697POPC   PO423844  25.267   3.568   9.153
 6697POPC   GL123845  25.296   3.535   8.853
 6697POPC   GL223846  25.271   3.617   8.853
 6697POPC   C1A23847  25.274   3.580   8.553
 6697POPC   D2A23848  25.279   3.565   8.253
 6697POPC   C3A23849  25.281   3.525   7.953
 6697POPC   C4A23850  25.223   3.500   7.653
 6697POPC   C1B23851  25.283   3.800   8.553
 6697POPC   C2B23852  25.313   3.786   8.253
 6697POPC   C3B23853  25.296   3.768   7.953
 6697POPC   C4B23854  25.341   3.763   7.653
 6698POPC   NC323855   3.530  28.320   9.453
 6698POPC   PO423856   3.564  28.324   9.153
 6698POPC   GL123857   3.502  28.357   8.853
 6698POPC   GL223858   3.638  28.231   8.853
 6698POPC   C1A23859   3.507  28.407   8.553
 6698POPC   D2A23860   3.493  28.386   8.253
 6698POPC   C3A23861   3.526  28.322   7.953
 6698POPC   C4A23862   3.501  28.363   7.653
 6698POPC   C1B23863   3.636  28.192   8.553
 6698POPC   C2B23864   3.630  28.156   8.253
 6698POPC   C3B23865   3.622  28.139   7.953
 6698POPC   C4B23866   3.643  28.195   7.653
 6699POPC   NC323867   9.780  13.658   9.453
 6699POPC   PO423868   9.776  13.612   9.153
 6699POPC   GL123869   9.735  13.608   8.853
 6699POPC   GL223870   9.875  13.500   8.853
 6699POPC   C1A23871   9.725  13.650   8.553
 6699POPC   D2A23872   9.705  13.600   8.253
 6699POPC   C3A23873   9.709  13.617   7.953
 6699POPC   C4A23874   9.712  13.587   7.653
 6699POPC   C1B23875   9.904  13.474   8.553
 6699POPC   C2B23876   9.957  13.399   8.253
 6699POPC   C3B23877   9.946  13.395   7.953
 6699POPC   C4B23878   9.914  13.471   7.653
 6700POPC   NC323879  38.431  39.233   9.453
 6700POPC   PO423880  38.460  39.272   9.153
 6700POPC   GL123881  38.445  39.273   8.853
 6700POPC   GL223882  38.351  39.200   8.853
 6700POPC   C1A23883  38.434  39.219   8.553
 6700POPC   D2A23884  38.446  39.212   8.253
 6700POPC   C3A23885  38.483  39.246   7.953
 6700POPC   C4A23886  38.468  39.207   7.653
 6700POPC   C1B23887  38.215  39.079   8.553
 6700POPC   C2B23888  38.295  39.113   8.253
 6700POPC   C3B23889  38.262  39.068   7.953
 6700POPC   C4B23890  38.203  39.053   7.653
 6701POPC   NC323891  18.327  22.890   9.453
 6701POPC   PO423892  18.282  22.902   9.153
 6701POPC   GL123893  18.287  22.947   8.853
 6701POPC   GL223894  18.208  23.049   8.853
 6701POPC   C1A23895  18.314  22.978   8.553
 6701POPC   D2A23896  18.317  22.904   8.253
 6701POPC   C3A23897  18.305  22.958   7.953
 6701POPC   C4A23898  18.252  22.920   7.653
 6701POPC   C1B23899  18.255  23.159   8.553
 6701POPC   C2B23900  18.274  23.159   8.253
 6701POPC   C3B23901  18.210  23.158   7.953
 6701POPC   C4B23902  18.256  23.197   7.653
 6702POPC   NC323903  10.515   8.984   9.453
 6702POPC   PO423904  10.497   9.014   9.153
 6702POPC   GL123905  10.546   8.942   8.853
 6702POPC   GL223906  10.545   8.896   8.853
 6702POPC   C1A23907  10.527   8.943   8.553
 6702POPC   D2A23908  10.475   9.013   8.253
 6702POPC   C3A23909  10.508   9.000   7.953
 6702POPC   C4A23910  10.501   9.010   7.653
 6702POPC   C1B23911  10.644   8.811   8.553
 6702POPC   C2B23912  10.660   8.772   8.253
 6702POPC   C3B23913  10.654   8.728   7.953
 6702POPC   C4B23914  10.616   8.734   7.653
 6703POPC   NC323915  10.504  15.967   9.453
 6703POPC   PO423916  10.484  15.907   9.153
 6703POPC   GL123917  10.509  15.969   8.853
 6703POPC   GL223918  10.495  15.881   8.853
 6703POPC   C1A23919  10.554  15.924   8.553
 6703POPC   D2A23920  10.568  15.931   8.253
 6703POPC   C3A23921  10.495  15.950   7.953
 6703POPC   C4A23922  10.527  15.928   7.653
 6703POPC   C1B23923  10.448  15.686   8.553
 6703POPC   C2B23924  10.487  15.699   8.253
 6703POPC   C3B23925  10.456  15.714   7.953
 6703POPC   C4B23926  10.504  15.734   7.653
 6704POPC   NC323927  25.236  11.276   9.453
 6704POPC   PO423928  25.277  11.289   9.153
 6704POPC   GL123929  25.258  11.303   8.853
 6704POPC   GL223930  25.322  11.187   8.853
 6704POPC   C1A23931  25.315  11.282   8.553
 6704POPC   D2A23932  25.241  11.279   8.253
 6704POPC   C3A23933  25.305  11.335   7.953
 6704POPC   C4A23934  25.271  11.285   7.653
 6704POPC   C1B23935  25.436  11.085   8.553
 6704POPC   C2B23936  25.448  11.120   8.253
 6704POPC   C3B23937  25.438  11.123   7.953
 6704POPC   C4B23938  25.455  11.102   7.653
 6705POPC   NC323939  11.289   7.407   9.453
 6705POPC   PO423940  11.265   7.439   9.153
 6705POPC   GL123941  11.278   7.421   8.853
 6705POPC   GL223942  11.172   7.478   8.853
 6705POPC   C1A23943  11.334   7.468   8.553
 6705POPC   D2A23944  11.300   7.408   8.253
 6705POPC   C3A23945  11.340   7.470   7.953
 6705POPC   C4A23946  11.255   7.423   7.653
 6705POPC   C1B23947  11.063   7.531   8.553
 6705POPC   C2B23948  11.072   7.545   8.253
 6705POPC   C3B23949  11.122   7.498   7.953
 6705POPC   C4B23950  11.075   7.525   7.653
 6706POPC   NC323951  38.498  33.066   9.453
 6706POPC   PO423952  38.444  33.065   9.153
 6706POPC   GL123953  38.408  33.003   8.853
 6706POPC   GL223954  38.369  32.998   8.853
 6706POPC   C1A23955  38.432  33.060   8.553
 6706POPC   D2A23956  38.458  33.015   8.253
 6706POPC   C3A23957  38.407  32.980   7.953
 6706POPC   C4A23958  38.487  32.987   7.653
 6706POPC   C1B23959  38.211  33.076   8.553
 6706POPC   C2B23960  38.247  33.091   8.253
 6706POPC   C3B23961  38.166  33.052   7.953
 6706POPC   C4B23962  38.245  33.038   7.653
 6707POPC   NC323963  25.292  41.561   9.453
 6707POPC   PO423964  25.229  41.538   9.153
 6707POPC   GL123965  25.265  41.581   8.853
 6707POPC   GL223966  25.375  41.547   8.853
 6707POPC   C1A23967  25.276  41.536   8.553
 6707POPC   D2A23968  25.259  41.559   8.253
 6707POPC   C3A23969  25.248  41.514   7.953
 6707POPC   C4A23970  25.225  41.591   7.653
 6707POPC   C1B23971  25.475  41.482   8.553
 6707POPC   C2B23972  25.460  41.467   8.253
 6707POPC   C3B23973  25.484  41.421   7.953
 6707POPC   C4B23974  25.488  41.458   7.653
 6708POPC   NC323975  17.468  19.103   9.453
 6708POPC   PO423976  17.482  19.051   9.153
 6708POPC   GL123977  17.478  19.053   8.853
 6708POPC   GL223978  17.670  19.038   8.853
 6708POPC   C1A23979  17.472  19.053   8.553
 6708POPC   D2A23980  17.526  19.039   8.253
 6708POPC   C3A23981  17.554  19.084   7.953
 6708POPC   C4A23982  17.555  19.015   7.653
 6708POPC   C1B23983  17.747  19.075   8.553
 6708POPC   C2B23984  17.771  19.119   8.253
 6708POPC   C3B23985  17.765  19.118   7.953
 6708POPC   C4B23986  17.749  19.128   7.653
 6709POPC   NC323987   9.707  19.858   9.453
 6709POPC   PO423988   9.743  19.841   9.153
 6709POPC   GL123989   9.754  19.855   8.853
 6709POPC   GL223990   9.819  19.808   8.853
 6709POPC   C1A23991   9.735  19.785   8.553
 6709POPC   D2A23992   9.703  19.857   8.253
 6709POPC   C3A23993   9.788  19.882   7.953
 6709POPC   C4A23994   9.731  19.811   7.653
 6709POPC   C1B23995   9.965  19.723   8.553
 6709POPC   C2B23996   9.984  19.700   8.253
 6709POPC   C3B23997   9.906  19.729   7.953
 6709POPC   C4B23998   9.965  19.733   7.653
 6710POPC   NC323999  26.828  30.734   9.453
 6710POPC   PO424000  26.850  30.665   9.153
 6710POPC   GL124001  26.837  30.648   8.853
 6710POPC   GL224002  26.751  30.776   8.853
 6710POPC   C1A24003  26.784  30.746   8.553
 6710POPC   D2A24004  26.842  30.666   8.253
 6710POPC   C3A24005  26.837  30.713   7.953
 6710POPC   C4A24006  26.858  30.665   7.653
 6710POPC   C1B24007  26.626  30.891   8.553
 6710POPC   C2B24008  26.625  30.835   8.253
 6710POPC   C3B24009  26.632  30.833   7.953
 6710POPC   C4B24010  26.616  30.841   7.653
 6711POPC   NC324011  25.218  19.067   9.453
 6711POPC   PO424012  25.282  19.039   9.153
 6711POPC   GL124013  25.233  19.073   8.853
 6711POPC   GL224014  25.284  19.167   8.853
 6711POPC   C1A24015  25.311  19.093   8.553
 6711POPC   D2A24016  25.242  19.108   8.253
 6711POPC   C3A24017  25.313  19.077   7.953
 6711POPC   C4A24018  25.274  19.085   7.653
 6711POPC   C1B24019  25.355  19.255   8.553
 6711POPC   C2B24020  25.344  19.320   8.253
 6711POPC   C3B24021  25.329  19.321   7.953
 6711POPC   C4B24022  25.278  19.323   7.653
 6712POPC   NC324023  22.165  24.454   9.453
 6712POPC   PO424024  22.143  24.489   9.153
 6712POPC   GL124025  22.148  24.456   8.853
 6712POPC   GL224026  22.272  24.505   8.853
 6712POPC   C1A24027  22.125  24.517   8.553
 6712POPC   D2A24028  22.146  24.499   8.253
 6712POPC   C3A24029  22.126  24.485   7.953
 6712POPC   C4A24030  22.206  24.457   7.653
 6712POPC   C1B24031  22.386  24.418   8.553
 6712POPC   C2B24032  22.441  24.447   8.253
 6712POPC   C3B24033  22.413  24.470   7.953
 6712POPC   C4B24034  22.387  24.411   7.653
 6713POPC   NC324035  35.399  37.664   9.453
 6713POPC   PO424036  35.343  37.680   9.153
 6713POPC   GL124037  35.377  37.651   8.853
 6713POPC   GL224038  35.323  37.843   8.853
 6713POPC   C1A24039  35.308  37.725   8.553
 6713POPC   D2A24040  35.321  37.681   8.253
 6713POPC   C3A24041  35.355  37.631   7.953
 6713POPC   C4A24042  35.390  37.701   7.653
 6713POPC   C1B24043  35.318  37.940   8.553
 6713POPC   C2B24044  35.315  37.891   8.253
 6713POPC   C3B24045  35.373  37.888   7.953
 6713POPC   C4B24046  35.381  37.909   7.653
 6714POPC   NC324047  31.519  23.756   9.453
 6714POPC   PO424048  31.518  23.763   9.153
 6714POPC   GL124049  31.472  23.754   8.853
 6714POPC   GL224050  31.542  23.710   8.853
 6714POPC   C1A24051  31.497  23.676   8.553
 6714POPC   D2A24052  31.486  23.712   8.253
 6714POPC   C3A24053  31.490  23.751   7.953
 6714POPC   C4A24054  31.462  23.738   7.653
 6714POPC   C1B24055  31.685  23.645   8.553
 6714POPC   C2B24056  31.689  23.681   8.253
 6714POPC   C3B24057  31.681  23.673   7.953
 6714POPC   C4B24058  31.691  23.652   7.653
 6715POPC   NC324059  10.533  31.480   9.453
 6715POPC   PO424060  10.544  31.427   9.153
 6715POPC   GL124061  10.534  31.513   8.853
 6715POPC   GL224062  10.652  31.500   8.853
 6715POPC   C1A24063  10.561  31.457   8.553
 6715POPC   D2A24064  10.548  31.432   8.253
 6715POPC   C3A24065  10.567  31.439   7.953
 6715POPC   C4A24066  10.535  31.426   7.653
 6715POPC   C1B24067  10.716  31.566   8.553
 6715POPC   C2B24068  10.777  31.549   8.253
 6715POPC   C3B24069  10.790  31.562   7.953
 6715POPC   C4B24070  10.720  31.575   7.653
 6716POPC   NC324071   1.956   1.176   9.453
 6716POPC   PO424072   2.032   1.232   9.153
 6716POPC   GL124073   2.038   1.205   8.853
 6716POPC   GL224074   1.955   1.091   8.853
 6716POPC   C1A24075   1.961   1.260   8.553
 6716POPC   D2A24076   2.005   1.241   8.253
 6716POPC   C3A24077   2.031   1.244   7.953
 6716POPC   C4A24078   2.017   1.247   7.653
 6716POPC   C1B24079   1.928   1.010   8.553
 6716POPC   C2B24080   1.965   0.984   8.253
 6716POPC   C3B24081   1.901   0.967   7.953
 6716POPC   C4B24082   1.956   0.928   7.653
 6717POPC   NC324083  29.097  28.348   9.453
 6717POPC   PO424084  29.180  28.358   9.153
 6717POPC   GL124085  29.141  28.345   8.853
 6717POPC   GL224086  29.104  28.508   8.853
 6717POPC   C1A24087  29.164  28.374   8.553
 6717POPC   D2A24088  29.105  28.332   8.253
 6717POPC   C3A24089  29.192  28.334   7.953
 6717POPC   C4A24090  29.169  28.418   7.653
 6717POPC   C1B24091  29.112  28.567   8.553
 6717POPC   C2B24092  29.100  28.629   8.253
 6717POPC   C3B24093  29.067  28.583   7.953
 6717POPC   C4B24094  29.148  28.615   7.653
 6718POPC   NC324095  29.106  24.497   9.453
 6718POPC   PO424096  29.118  24.462   9.153
 6718POPC   GL124097  29.191  24.515   8.853
 6718POPC   GL224098  29.294  24.530   8.853
 6718POPC   C1A24099  29.180  24.483   8.553
 6718POPC   D2A24100  29.104  24.494   8.253
 6718POPC   C3A24101  29.168  24.471   7.953
 6718POPC   C4A24102  29.187  24.526   7.653
 6718POPC   C1B24103  29.380  24.555   8.553
 6718POPC   C2B24104  29.402  24.478   8.253
 6718POPC   C3B24105  29.440  24.482   7.953
 6718POPC   C4B24106  29.390  24.483   7.653
 6719POPC   NC324107  30.661  29.109   9.453
 6719POPC   PO424108  30.663  29.095   9.153
 6719POPC   GL124109  30.656  29.149   8.853
 6719POPC   GL224110  30.543  29.042   8.853
 6719POPC   C1A24111  30.687  29.137   8.553
 6719POPC   D2A24112  30.691  29.158   8.253
 6719POPC   C3A24113  30.661  29.183   7.953
 6719POPC   C4A24114  30.726  29.186   7.653
 6719POPC   C1B24115  30.452  28.981   8.553
 6719POPC   C2B24116  30.440  29.028   8.253
 6719POPC   C3B24117  30.515  29.008   7.953
 6719POPC   C4B24118  30.527  29.034   7.653
 6720POPC   NC324119   7.418  35.393   9.453
 6720POPC   PO424120   7.419  35.320   9.153
 6720POPC   GL124121   7.457  35.350   8.853
 6720POPC   GL224122   7.456  35.483   8.853
 6720POPC   C1A24123   7.411  35.370   8.553
 6720POPC   D2A24124   7.449  35.313   8.253
 6720POPC   C3A24125   7.463  35.343   7.953
 6720POPC   C4A24126   7.387  35.402   7.653
 6720POPC   C1B24127   7.461  35.575   8.553
 6720POPC   C2B24128   7.469  35.568   8.253
 6720POPC   C3B24129   7.426  35.611   7.953
 6720POPC   C4B24130   7.411  35.642   7.653
 6721POPC   NC324131   4.270   2.036   9.453
 6721POPC   PO424132   4.297   1.949   9.153
 6721POPC   GL124133   4.289   1.985   8.853
 6721POPC   GL224134   4.469   1.971   8.853
 6721POPC   C1A24135   4.303   1.989   8.553
 6721POPC   D2A24136   4.324   1.982   8.253
 6721POPC   C3A24137   4.301   1.995   7.953
 6721POPC   C4A24138   4.326   1.944   7.653
 6721POPC   C1B24139   4.597   1.979   8.553
 6721POPC   C2B24140   4.594   1.942   8.253
 6721POPC   C3B24141   4.590   1.996   7.953
 6721POPC   C4B24142   4.516   1.967   7.653
 6722POPC   NC324143  25.312  18.239   9.453
 6722POPC   PO424144  25.242  18.325   9.153
 6722POPC   GL124145  25.297  18.264   8.853
 6722POPC   GL224146  25.160  18.269   8.853
 6722POPC   C1A24147  25.273  18.274   8.553
 6722POPC   D2A24148  25.305  18.294   8.253
 6722POPC   C3A24149  25.244  18.252   7.953
 6722POPC   C4A24150  25.243  18.239   7.653
 6722POPC   C1B24151  25.024  18.318   8.553
 6722POPC   C2B24152  25.019  18.247   8.253
 6722POPC   C3B24153  25.056  18.279   7.953
 6722POPC   C4B24154  25.024  18.266   7.653
 6723POPC   NC324155  16.741  18.249   9.453
 6723POPC   PO424156  16.760  18.261   9.153
 6723POPC   GL124157  16.765  18.317   8.853
 6723POPC   GL224158  16.691  18.378   8.853
 6723POPC   C1A24159  16.733  18.286   8.553
 6723POPC   D2A24160  16.708  18.264   8.253
 6723POPC   C3A24161  16.752  18.258   7.953
 6723POPC   C4A24162  16.773  18.264   7.653
 6723POPC   C1B24163  16.540  18.454   8.553
 6723POPC   C2B24164  16.592  18.428   8.253
 6723POPC   C3B24165  16.577  18.466   7.953
 6723POPC   C4B24166  16.541  18.456   7.653
 6724POPC   NC324167  26.031  21.405   9.453
 6724POPC   PO424168  26.027  21.434   9.153
 6724POPC   GL124169  26.072  21.411   8.853
 6724POPC   GL224170  25.969  21.292   8.853
 6724POPC   C1A24171  25.997  21.424   8.553
 6724POPC   D2A24172  26.035  21.398   8.253
 6724POPC   C3A24173  26.036  21.374   7.953
 6724POPC   C4A24174  26.089  21.389   7.653
 6724POPC   C1B24175  25.852  21.287   8.553
 6724POPC   C2B24176  25.837  21.313   8.253
 6724POPC   C3B24177  25.843  21.255   7.953
 6724POPC   C4B24178  25.842  21.253   7.653
 6725POPC   NC324179  43.084  43.135   9.453
 6725POPC   PO424180  43.122  43.105   9.153
 6725POPC   GL124181  43.070  43.128   8.853
 6725POPC   GL224182  43.020  43.055   8.853
 6725POPC   C1A24183  43.136  43.090   8.553
 6725POPC   D2A24184  43.065  43.158   8.253
 6725POPC   C3A24185  43.101  43.068   7.953
 6725POPC   C4A24186  43.104  43.140   7.653
 6725POPC   C1B24187  42.862  42.990   8.553
 6725POPC   C2B24188  42.842  43.084   8.253
 6725POPC   C3B24189  42.860  43.044   7.953
 6725POPC   C4B24190  42.852  43.042   7.653
 6726POPC   NC324191  12.866   5.834   9.453
 6726POPC   PO424192  12.824   5.828   9.153
 6726POPC   GL124193  12.895   5.909   8.853
 6726POPC   GL224194  12.771   5.941   8.853
 6726POPC   C1A24195  12.874   5.908   8.553
 6726POPC   D2A24196  12.862   5.912   8.253
 6726POPC   C3A24197  12.895   5.918   7.953
 6726POPC   C4A24198  12.806   5.858   7.653
 6726POPC   C1B24199  12.788   6.113   8.553
 6726POPC   C2B24200  12.745   6.100   8.253
 6726POPC   C3B24201  12.713   6.142   7.953
 6726POPC   C4B24202  12.718   6.143   7.653
 6727POPC   NC324203   5.130  18.271   9.453
 6727POPC   PO424204   5.051  18.269   9.153
 6727POPC   GL124205   5.087  18.272   8.853
 6727POPC   GL224206   4.997  18.363   8.853
 6727POPC   C1A24207   5.063  18.249   8.553
 6727POPC   D2A24208   5.099  18.267   8.253
 6727POPC   C3A24209   5.140  18.322   7.953
 6727POPC   C4A24210   5.049  18.316   7.653
 6727POPC   C1B24211   4.972  18.498   8.553
 6727POPC   C2B24212   5.024  18.496   8.253
 6727POPC   C3B24213   4.998  18.559   7.953
 6727POPC   C4B24214   5.031  18.476   7.653
 6728POPC   NC324215  25.286  12.897   9.453
 6728POPC   PO424216  25.221  12.835   9.153
 6728POPC   GL124217  25.224  12.897   8.853
 6728POPC   GL224218  25.351  12.761   8.853
 6728POPC   C1A24219  25.264  12.870   8.553
 6728POPC   D2A24220  25.306  12.863   8.253
 6728POPC   C3A24221  25.243  12.817   7.953
 6728POPC   C4A24222  25.252  12.847   7.653
 6728POPC   C1B24223  25.483  12.702   8.553
 6728POPC   C2B24224  25.424  12.737   8.253
 6728POPC   C3B24225  25.426  12.714   7.953
 6728POPC   C4B24226  25.497  12.734   7.653
 6729POPC   NC324227   9.744  17.522   9.453
 6729POPC   PO424228   9.790  17.557   9.153
 6729POPC   GL124229   9.790  17.513   8.853
 6729POPC   GL224230   9.825  17.570   8.853
 6729POPC   C1A24231   9.720  17.486   8.553
 6729POPC   D2A24232   9.724  17.483   8.253
 6729POPC   C3A24233   9.742  17.514   7.953
 6729POPC   C4A24234   9.794  17.534   7.653
 6729POPC   C1B24235   9.990  17.638   8.553
 6729POPC   C2B24236   9.951  17.666   8.253
 6729POPC   C3B24237   9.899  17.679   7.953
 6729POPC   C4B24238   9.973  17.645   7.653
 6730POPC   NC324239  26.847   5.091   9.453
 6730POPC   PO424240  26.772   5.124   9.153
 6730POPC   GL124241  26.775   5.119   8.853
 6730POPC   GL224242  26.908   5.045   8.853
 6730POPC   C1A24243  26.805   5.132   8.553
 6730POPC   D2A24244  26.841   5.069   8.253
 6730POPC   C3A24245  26.838   5.090   7.953
 6730POPC   C4A24246  26.812   5.090   7.653
 6730POPC   C1B24247  27.076   5.062   8.553
 6730POPC   C2B24248  27.021   5.063   8.253
 6730POPC   C3B24249  27.090   5.006   7.953
 6730POPC   C4B24250  27.097   5.012   7.653
 6731POPC   NC324251  29.970   6.643   9.453
 6731POPC   PO424252  29.871   6.661   9.153
 6731POPC   GL124253  29.967   6.692   8.853
 6731POPC   GL224254  29.982   6.762   8.853
 6731POPC   C1A24255  29.882   6.670   8.553
 6731POPC   D2A24256  29.965   6.622   8.253
 6731POPC   C3A24257  29.962   6.595   7.953
 6731POPC   C4A24258  29.956   6.679   7.653
 6731POPC   C1B24259  30.106   6.768   8.553
 6731POPC   C2B24260  30.096   6.770   8.253
 6731POPC   C3B24261  30.082   6.804   7.953
 6731POPC   C4B24262  30.136   6.771   7.653
 6732POPC   NC324263  35.360  26.809   9.453
 6732POPC   PO424264  35.387  26.793   9.153
 6732POPC   GL124265  35.392  26.863   8.853
 6732POPC   GL224266  35.414  26.984   8.853
 6732POPC   C1A24267  35.386  26.845   8.553
 6732POPC   D2A24268  35.401  26.774   8.253
 6732POPC   C3A24269  35.309  26.779   7.953
 6732POPC   C4A24270  35.376  26.863   7.653
 6732POPC   C1B24271  35.369  27.096   8.553
 6732POPC   C2B24272  35.359  27.050   8.253
 6732POPC   C3B24273  35.383  27.032   7.953
 6732POPC   C4B24274  35.369  27.053   7.653
 6733POPC   NC324275  15.142   4.301   9.453
 6733POPC   PO424276  15.197   4.330   9.153
 6733POPC   GL124277  15.176   4.339   8.853
 6733POPC   GL224278  15.082   4.325   8.853
 6733POPC   C1A24279  15.152   4.350   8.553
 6733POPC   D2A24280  15.183   4.272   8.253
 6733POPC   C3A24281  15.151   4.325   7.953
 6733POPC   C4A24282  15.180   4.279   7.653
 6733POPC   C1B24283  14.953   4.270   8.553
 6733POPC   C2B24284  14.934   4.311   8.253
 6733POPC   C3B24285  14.950   4.287   7.953
 6733POPC   C4B24286  14.964   4.298   7.653
 6734POPC   NC324287  22.173  25.313   9.453
 6734POPC   PO424288  22.149  25.298   9.153
 6734POPC   GL124289  22.191  25.228   8.853
 6734POPC   GL224290  22.036  25.193   8.853
 6734POPC   C1A24291  22.153  25.237   8.553
 6734POPC   D2A24292  22.140  25.285   8.253
 6734POPC   C3A24293  22.210  25.287   7.953
 6734POPC   C4A24294  22.191  25.273   7.653
 6734POPC   C1B24295  21.881  25.219   8.553
 6734POPC   C2B24296  21.909  25.195   8.253
 6734POPC   C3B24297  21.935  25.185   7.953
 6734POPC   C4B24298  21.893  25.172   7.653
 6735POPC   NC324299  29.939  29.894   9.453
 6735POPC   PO424300  29.926  29.961   9.153
 6735POPC   GL124301  29.913  29.880   8.853
 6735POPC   GL224302  29.882  30.003   8.853
 6735POPC   C1A24303  29.937  29.876   8.553
 6735POPC   D2A24304  29.936  29.914   8.253
 6735POPC   C3A24305  29.922  29.887   7.953
 6735POPC   C4A24306  29.961  29.919   7.653
 6735POPC   C1B24307  29.937  30.213   8.553
 6735POPC   C2B24308  29.921  30.138   8.253
 6735POPC   C3B24309  29.898  30.203   7.953
 6735POPC   C4B24310  29.956  30.153   7.653
 6736POPC   NC324311  31.519  11.265   9.453
 6736POPC   PO424312  31.443  11.311   9.153
 6736POPC   GL124313  31.434  11.312   8.853
 6736POPC   GL224314  31.553  11.248   8.853
 6736POPC   C1A24315  31.429  11.292   8.553
 6736POPC   D2A24316  31.463  11.265   8.253
 6736POPC   C3A24317  31.425  11.258   7.953
 6736POPC   C4A24318  31.482  11.347   7.653
 6736POPC   C1B24319  31.687  11.196   8.553
 6736POPC   C2B24320  31.696  11.237   8.253
 6736POPC   C3B24321  31.672  11.232   7.953
 6736POPC   C4B24322  31.753  11.192   7.653
 6737POPC   NC324323  12.842  29.185   9.453
 6737POPC   PO424324  12.850  29.103   9.153
 6737POPC   GL124325  12.886  29.137   8.853
 6737POPC   GL224326  12.887  29.225   8.853
 6737POPC   C1A24327  12.827  29.153   8.553
 6737POPC   D2A24328  12.828  29.146   8.253
 6737POPC   C3A24329  12.899  29.132   7.953
 6737POPC   C4A24330  12.888  29.146   7.653
 6737POPC   C1B24331  12.952  29.320   8.553
 6737POPC   C2B24332  12.983  29.324   8.253
 6737POPC   C3B24333  13.036  29.390   7.953
 6737POPC   C4B24334  12.951  29.360   7.653
 6738POPC   NC324335  22.164  39.239   9.453
 6738POPC   PO424336  22.185  39.241   9.153
 6738POPC   GL124337  22.123  39.253   8.853
 6738POPC   GL224338  22.024  39.259   8.853
 6738POPC   C1A24339  22.117  39.281   8.553
 6738POPC   D2A24340  22.134  39.278   8.253
 6738POPC   C3A24341  22.165  39.261   7.953
 6738POPC   C4A24342  22.195  39.269   7.653
 6738POPC   C1B24343  21.898  39.354   8.553
 6738POPC   C2B24344  21.893  39.349   8.253
 6738POPC   C3B24345  21.951  39.290   7.953
 6738POPC   C4B24346  21.927  39.292   7.653
 6739POPC   NC324347  43.873  29.883   9.453
 6739POPC   PO424348  43.936  29.917   9.153
 6739POPC   GL124349  43.882  29.873   8.853
 6739POPC   GL224350  44.026  29.864   8.853
 6739POPC   C1A24351  43.851  29.947   8.553
 6739POPC   D2A24352  43.915  29.945   8.253
 6739POPC   C3A24353  43.847  29.883   7.953
 6739POPC   C4A24354  43.931  29.888   7.653
 6739POPC   C1B24355  44.065  29.812   8.553
 6739POPC   C2B24356  44.135  29.829   8.253
 6739POPC   C3B24357  44.075  29.764   7.953
 6739POPC   C4B24358  44.126  29.800   7.653
 6740POPC   NC324359  34.619  22.124   9.453
 6740POPC   PO424360  34.543  22.120   9.153
 6740POPC   GL124361  34.619  22.151   8.853
 6740POPC   GL224362  34.566  22.279   8.853
 6740POPC   C1A24363  34.603  22.177   8.553
 6740POPC   D2A24364  34.606  22.147   8.253
 6740POPC   C3A24365  34.569  22.133   7.953
 6740POPC   C4A24366  34.613  22.154   7.653
 6740POPC   C1B24367  34.467  22.437   8.553
 6740POPC   C2B24368  34.502  22.347   8.253
 6740POPC   C3B24369  34.449  22.392   7.953
 6740POPC   C4B24370  34.481  22.398   7.653
 6741POPC   NC324371  43.900  19.042   9.453
 6741POPC   PO424372  43.903  19.074   9.153
 6741POPC   GL124373  43.908  19.104   8.853
 6741POPC   GL224374  43.811  19.037   8.853
 6741POPC   C1A24375  43.871  19.099   8.553
 6741POPC   D2A24376  43.924  19.082   8.253
 6741POPC   C3A24377  43.900  19.083   7.953
 6741POPC   C4A24378  43.921  19.011   7.653
 6741POPC   C1B24379  43.645  18.976   8.553
 6741POPC   C2B24380  43.638  18.946   8.253
 6741POPC   C3B24381  43.683  18.933   7.953
 6741POPC   C4B24382  43.628  18.995   7.653
 6742POPC   NC324383  30.735  25.306   9.453
 6742POPC   PO424384  30.734  25.230   9.153
 6742POPC   GL124385  30.741  25.265   8.853
 6742POPC   GL224386  30.600  25.171   8.853
 6742POPC   C1A24387  30.681  25.308   8.553
 6742POPC   D2A24388  30.746  25.269   8.253
 6742POPC   C3A24389  30.697  25.275   7.953
 6742POPC   C4A24390  30.734  25.284   7.653
 6742POPC   C1B24391  30.488  25.150   8.553
 6742POPC   C2B24392  30.457  25.187   8.253
 6742POPC   C3B24393  30.437  25.138   7.953
 6742POPC   C4B24394  30.499  25.219   7.653
 6743POPC   NC324395  42.287  34.598   9.453
 6743POPC   PO424396  42.357  34.541   9.153
 6743POPC   GL124397  42.359  34.584   8.853
 6743POPC   GL224398  42.432  34.441   8.853
 6743POPC   C1A24399  42.327  34.534   8.553
 6743POPC   D2A24400  42.358  34.601   8.253
 6743POPC   C3A24401  42.307  34.542   7.953
 6743POPC   C4A24402  42.302  34.559   7.653
 6743POPC   C1B24403  42.472  34.371   8.553
 6743POPC   C2B24404  42.542  34.366   8.253
 6743POPC   C3B24405  42.493  34.355   7.953
 6743POPC   C4B24406  42.524  34.398   7.653
 6744POPC   NC324407  16.777  16.716   9.453
 6744POPC   PO424408  16.682  16.742   9.153
 6744POPC   GL124409  16.764  16.695   8.853
 6744POPC   GL224410  16.781  16.866   8.853
 6744POPC   C1A24411  16.707  16.717   8.553
 6744POPC   D2A24412  16.757  16.704   8.253
 6744POPC   C3A24413  16.716  16.731   7.953
 6744POPC   C4A24414  16.718  16.756   7.653
 6744POPC   C1B24415  16.734  16.968   8.553
 6744POPC   C2B24416  16.764  16.966   8.253
 6744POPC   C3B24417  16.756  16.984   7.953
 6744POPC   C4B24418  16.757  17.015   7.653
 6745POPC   NC324419  20.618  41.517   9.453
 6745POPC   PO424420  20.615  41.566   9.153
 6745POPC   GL124421  20.611  41.548   8.853
 6745POPC   GL224422  20.558  41.655   8.853
 6745POPC   C1A24423  20.659  41.572   8.553
 6745POPC   D2A24424  20.633  41.567   8.253
 6745POPC   C3A24425  20.628  41.514   7.953
 6745POPC   C4A24426  20.604  41.567   7.653
 6745POPC   C1B24427  20.523  41.846   8.553
 6745POPC   C2B24428  20.519  41.797   8.253
 6745POPC   C3B24429  20.521  41.837   7.953
 6745POPC   C4B24430  20.500  41.833   7.653
 6746POPC   NC324431  19.864   8.219   9.453
 6746POPC   PO424432  19.802   8.148   9.153
 6746POPC   GL124433  19.875   8.157   8.853
 6746POPC   GL224434  19.715   8.332   8.853
 6746POPC   C1A24435  19.848   8.205   8.553
 6746POPC   D2A24436  19.817   8.240   8.253
 6746POPC   C3A24437  19.857   8.160   7.953
 6746POPC   C4A24438  19.851   8.190   7.653
 6746POPC   C1B24439  19.698   8.400   8.553
 6746POPC   C2B24440  19.634   8.397   8.253
 6746POPC   C3B24441  19.663   8.385   7.953
 6746POPC   C4B24442  19.654   8.436   7.653
 6747POPC   NC324443   7.411   9.709   9.453
 6747POPC   PO424444   7.413   9.731   9.153
 6747POPC   GL124445   7.446   9.718   8.853
 6747POPC   GL224446   7.359   9.844   8.853
 6747POPC   C1A24447   7.427   9.772   8.553
 6747POPC   D2A24448   7.431   9.782   8.253
 6747POPC   C3A24449   7.371   9.732   7.953
 6747POPC   C4A24450   7.446   9.779   7.653
 6747POPC   C1B24451   7.317   9.981   8.553
 6747POPC   C2B24452   7.350   9.974   8.253
 6747POPC   C3B24453   7.366  10.026   7.953
 6747POPC   C4B24454   7.293   9.946   7.653
 6748POPC   NC324455  40.830  38.478   9.453
 6748POPC   PO424456  40.775  38.495   9.153
 6748POPC   GL124457  40.790  38.442   8.853
 6748POPC   GL224458  40.853  38.518   8.853
 6748POPC   C1A24459  40.781  38.495   8.553
 6748POPC   D2A24460  40.800  38.477   8.253
 6748POPC   C3A24461  40.825  38.464   7.953
 6748POPC   C4A24462  40.775  38.479   7.653
 6748POPC   C1B24463  40.901  38.677   8.553
 6748POPC   C2B24464  40.872  38.635   8.253
 6748POPC   C3B24465  40.955  38.620   7.953
 6748POPC   C4B24466  40.917  38.714   7.653
 6749POPC   NC324467   6.689  11.296   9.453
 6749POPC   PO424468   6.631  11.349   9.153
 6749POPC   GL124469   6.674  11.340   8.853
 6749POPC   GL224470   6.523  11.269   8.853
 6749POPC   C1A24471   6.644  11.341   8.553
 6749POPC   D2A24472   6.608  11.269   8.253
 6749POPC   C3A24473   6.670  11.261   7.953
 6749POPC   C4A24474   6.687  11.285   7.653
 6749POPC   C1B24475   6.431  11.124   8.553
 6749POPC   C2B24476   6.394  11.201   8.253
 6749POPC   C3B24477   6.449  11.119   7.953
 6749POPC   C4B24478   6.464  11.191   7.653
 6750POPC   NC324479  38.463  13.586   9.453
 6750POPC   PO424480  38.464  13.639   9.153
 6750POPC   GL124481  38.414  13.590   8.853
 6750POPC   GL224482  38.319  13.626   8.853
 6750POPC   C1A24483  38.410  13.599   8.553
 6750POPC   D2A24484  38.436  13.601   8.253
 6750POPC   C3A24485  38.452  13.607   7.953
 6750POPC   C4A24486  38.432  13.592   7.653
 6750POPC   C1B24487  38.189  13.683   8.553
 6750POPC   C2B24488  38.238  13.720   8.253
 6750POPC   C3B24489  38.189  13.716   7.953
 6750POPC   C4B24490  38.225  13.740   7.653
 6751POPC   NC324491  18.270  34.580   9.453
 6751POPC   PO424492  18.303  34.554   9.153
 6751POPC   GL124493  18.294  34.560   8.853
 6751POPC   GL224494  18.295  34.678   8.853
 6751POPC   C1A24495  18.308  34.583   8.553
 6751POPC   D2A24496  18.256  34.540   8.253
 6751POPC   C3A24497  18.250  34.568   7.953
 6751POPC   C4A24498  18.273  34.541   7.653
 6751POPC   C1B24499  18.259  34.821   8.553
 6751POPC   C2B24500  18.272  34.872   8.253
 6751POPC   C3B24501  18.315  34.811   7.953
 6751POPC   C4B24502  18.276  34.781   7.653
 6752POPC   NC324503  38.450  26.049   9.453
 6752POPC   PO424504  38.469  26.028   9.153
 6752POPC   GL124505  38.445  26.039   8.853
 6752POPC   GL224506  38.391  26.131   8.853
 6752POPC   C1A24507  38.465  26.007   8.553
 6752POPC   D2A24508  38.435  26.039   8.253
 6752POPC   C3A24509  38.443  26.026   7.953
 6752POPC   C4A24510  38.417  26.022   7.653
 6752POPC   C1B24511  38.360  26.262   8.553
 6752POPC   C2B24512  38.282  26.292   8.253
 6752POPC   C3B24513  38.342  26.261   7.953
 6752POPC   C4B24514  38.291  26.280   7.653
 6753POPC   NC324515  32.265  26.803   9.453
 6753POPC   PO424516  32.253  26.789   9.153
 6753POPC   GL124517  32.226  26.832   8.853
 6753POPC   GL224518  32.128  26.802   8.853
 6753POPC   C1A24519  32.200  26.803   8.553
 6753POPC   D2A24520  32.282  26.776   8.253
 6753POPC   C3A24521  32.222  26.770   7.953
 6753POPC   C4A24522  32.246  26.784   7.653
 6753POPC   C1B24523  31.993  26.684   8.553
 6753POPC   C2B24524  32.032  26.679   8.253
 6753POPC   C3B24525  32.043  26.746   7.953
 6753POPC   C4B24526  31.992  26.720   7.653
 6754POPC   NC324527  33.823  26.866   9.453
 6754POPC   PO424528  33.802  26.821   9.153
 6754POPC   GL124529  33.790  26.773   8.853
 6754POPC   GL224530  33.762  26.890   8.853
 6754POPC   C1A24531  33.835  26.836   8.553
 6754POPC   D2A24532  33.779  26.850   8.253
 6754POPC   C3A24533  33.848  26.807   7.953
 6754POPC   C4A24534  33.796  26.830   7.653
 6754POPC   C1B24535  33.663  26.987   8.553
 6754POPC   C2B24536  33.699  27.060   8.253
 6754POPC   C3B24537  33.673  27.082   7.953
 6754POPC   C4B24538  33.651  27.026   7.653
 6755POPC   NC324539  10.555  41.557   9.453
 6755POPC   PO424540  10.524  41.533   9.153
 6755POPC   GL124541  10.483  41.550   8.853
 6755POPC   GL224542  10.586  41.515   8.853
 6755POPC   C1A24543  10.475  41.553   8.553
 6755POPC   D2A24544  10.533  41.584   8.253
 6755POPC   C3A24545  10.567  41.566   7.953
 6755POPC   C4A24546  10.568  41.565   7.653
 6755POPC   C1B24547  10.759  41.407   8.553
 6755POPC   C2B24548  10.760  41.451   8.253
 6755POPC   C3B24549  10.773  41.447   7.953
 6755POPC   C4B24550  10.729  41.428   7.653
 6756POPC   NC324551  44.688   6.608   9.453
 6756POPC   PO424552  44.664   6.653   9.153
 6756POPC   GL124553  44.632   6.618   8.853
 6756POPC   GL224554  44.724   6.708   8.853
 6756POPC   C1A24555  44.692   6.637   8.553
 6756POPC   D2A24556  44.689   6.689   8.253
 6756POPC   C3A24557  44.648   6.598   7.953
 6756POPC   C4A24558  44.648   6.683   7.653
 6756POPC   C1B24559  44.872   6.737   8.553
 6756POPC   C2B24560  44.930   6.724   8.253
 6756POPC   C3B24561  44.910   6.774   7.953
 6756POPC   C4B24562  44.894   6.795   7.653
 6757POPC   NC324563  34.587  23.697   9.453
 6757POPC   PO424564  34.556  23.668   9.153
 6757POPC   GL124565  34.585  23.672   8.853
 6757POPC   GL224566  34.650  23.646   8.853
 6757POPC   C1A24567  34.582  23.671   8.553
 6757POPC   D2A24568  34.583  23.718   8.253
 6757POPC   C3A24569  34.589  23.732   7.953
 6757POPC   C4A24570  34.544  23.754   7.653
 6757POPC   C1B24571  34.739  23.507   8.553
 6757POPC   C2B24572  34.702  23.506   8.253
 6757POPC   C3B24573  34.738  23.543   7.953
 6757POPC   C4B24574  34.679  23.510   7.653
 6758POPC   NC324575  20.658  34.603   9.453
 6758POPC   PO424576  20.625  34.603   9.153
 6758POPC   GL124577  20.584  34.621   8.853
 6758POPC   GL224578  20.623  34.673   8.853
 6758POPC   C1A24579  20.657  34.586   8.553
 6758POPC   D2A24580  20.605  34.602   8.253
 6758POPC   C3A24581  20.617  34.625   7.953
 6758POPC   C4A24582  20.566  34.598   7.653
 6758POPC   C1B24583  20.773  34.773   8.553
 6758POPC   C2B24584  20.717  34.800   8.253
 6758POPC   C3B24585  20.773  34.788   7.953
 6758POPC   C4B24586  20.704  34.813   7.653
 6759POPC   NC324587   3.535  25.238   9.453
 6759POPC   PO424588   3.562  25.248   9.153
 6759POPC   GL124589   3.502  25.231   8.853
 6759POPC   GL224590   3.608  25.408   8.853
 6759POPC   C1A24591   3.590  25.273   8.553
 6759POPC   D2A24592   3.552  25.230   8.253
 6759POPC   C3A24593   3.527  25.222   7.953
 6759POPC   C4A24594   3.535  25.291   7.653
 6759POPC   C1B24595   3.653  25.527   8.553
 6759POPC   C2B24596   3.616  25.481   8.253
 6759POPC   C3B24597   3.665  25.509   7.953
 6759POPC   C4B24598   3.624  25.533   7.653
 6760POPC   NC324599  12.108  33.752   9.453
 6760POPC   PO424600  12.050  33.751   9.153
 6760POPC   GL124601  12.026  33.767   8.853
 6760POPC   GL224602  12.038  33.626   8.853
 6760POPC   C1A24603  12.073  33.779   8.553
 6760POPC   D2A24604  12.060  33.817   8.253
 6760POPC   C3A24605  12.118  33.804   7.953
 6760POPC   C4A24606  12.063  33.765   7.653
 6760POPC   C1B24607  12.027  33.548   8.553
 6760POPC   C2B24608  12.092  33.535   8.253
 6760POPC   C3B24609  12.100  33.584   7.953
 6760POPC   C4B24610  12.028  33.550   7.653
 6761POPC   NC324611  26.091   8.234   9.453
 6761POPC   PO424612  26.060   8.166   9.153
 6761POPC   GL124613  26.014   8.183   8.853
 6761POPC   GL224614  26.165   8.212   8.853
 6761POPC   C1A24615  26.076   8.230   8.553
 6761POPC   D2A24616  26.082   8.237   8.253
 6761POPC   C3A24617  26.033   8.218   7.953
 6761POPC   C4A24618  26.088   8.169   7.653
 6761POPC   C1B24619  26.268   8.211   8.553
 6761POPC   C2B24620  26.292   8.236   8.253
 6761POPC   C3B24621  26.304   8.211   7.953
 6761POPC   C4B24622  26.303   8.212   7.653
 6762POPC   NC324623   5.061  33.795   9.453
 6762POPC   PO424624   5.066  33.825   9.153
 6762POPC   GL124625   5.091  33.768   8.853
 6762POPC   GL224626   5.057  33.717   8.853
 6762POPC   C1A24627   5.140  33.848   8.553
 6762POPC   D2A24628   5.070  33.796   8.253
 6762POPC   C3A24629   5.044  33.753   7.953
 6762POPC   C4A24630   5.111  33.843   7.653
 6762POPC   C1B24631   4.934  33.606   8.553
 6762POPC   C2B24632   4.889  33.630   8.253
 6762POPC   C3B24633   4.962  33.574   7.953
 6762POPC   C4B24634   4.975  33.578   7.653
 6763POPC   NC324635  35.332  31.517   9.453
 6763POPC   PO424636  35.396  31.446   9.153
 6763POPC   GL124637  35.367  31.430   8.853
 6763POPC   GL224638  35.352  31.317   8.853
 6763POPC   C1A24639  35.397  31.475   8.553
 6763POPC   D2A24640  35.377  31.434   8.253
 6763POPC   C3A24641  35.303  31.437   7.953
 6763POPC   C4A24642  35.331  31.449   7.653
 6763POPC   C1B24643  35.467  31.212   8.553
 6763POPC   C2B24644  35.460  31.242   8.253
 6763POPC   C3B24645  35.371  31.200   7.953
 6763POPC   C4B24646  35.377  31.188   7.653
 6764POPC   NC324647  44.626  10.561   9.453
 6764POPC   PO424648  44.704  10.511   9.153
 6764POPC   GL124649  44.670  10.491   8.853
 6764POPC   GL224650  44.713  10.599   8.853
 6764POPC   C1A24651  44.632  10.563   8.553
 6764POPC   D2A24652  44.615  10.551   8.253
 6764POPC   C3A24653  44.648  10.540   7.953
 6764POPC   C4A24654  44.613  10.502   7.653
 6764POPC   C1B24655  44.719  10.782   8.553
 6764POPC   C2B24656  44.720  10.770   8.253
 6764POPC   C3B24657  44.722  10.730   7.953
 6764POPC   C4B24658  44.682  10.736   7.653
 6765POPC   NC324659  29.172  19.822   9.453
 6765POPC   PO424660  29.104  19.849   9.153
 6765POPC   GL124661  29.105  19.803   8.853
 6765POPC   GL224662  29.188  19.940   8.853
 6765POPC   C1A24663  29.124  19.849   8.553
 6765POPC   D2A24664  29.176  19.796   8.253
 6765POPC   C3A24665  29.141  19.792   7.953
 6765POPC   C4A24666  29.160  19.867   7.653
 6765POPC   C1B24667  29.229  20.034   8.553
 6765POPC   C2B24668  29.305  20.071   8.253
 6765POPC   C3B24669  29.258  20.072   7.953
 6765POPC   C4B24670  29.314  20.002   7.653
 6766POPC   NC324671   8.192  36.142   9.453
 6766POPC   PO424672   8.197  36.130   9.153
 6766POPC   GL124673   8.243  36.103   8.853
 6766POPC   GL224674   8.326  36.144   8.853
 6766POPC   C1A24675   8.200  36.170   8.553
 6766POPC   D2A24676   8.198  36.115   8.253
 6766POPC   C3A24677   8.225  36.167   7.953
 6766POPC   C4A24678   8.213  36.148   7.653
 6766POPC   C1B24679   8.400  36.226   8.553
 6766POPC   C2B24680   8.391  36.263   8.253
 6766POPC   C3B24681   8.452  36.267   7.953
 6766POPC   C4B24682   8.419  36.221   7.653
 6767POPC   NC324683  14.379   4.361   9.453
 6767POPC   PO424684  14.363   4.337   9.153
 6767POPC   GL124685  14.372   4.323   8.853
 6767POPC   GL224686  14.462   4.472   8.853
 6767POPC   C1A24687  14.393   4.274   8.553
 6767POPC   D2A24688  14.376   4.334   8.253
 6767POPC   C3A24689  14.361   4.287   7.953
 6767POPC   C4A24690  14.389   4.349   7.653
 6767POPC   C1B24691  14.494   4.573   8.553
 6767POPC   C2B24692  14.500   4.534   8.253
 6767POPC   C3B24693  14.471   4.510   7.953
 6767POPC   C4B24694  14.513   4.571   7.653
 6768POPC   NC324695   0.412  22.146   9.453
 6768POPC   PO424696   0.466  22.172   9.153
 6768POPC   GL124697   0.469  22.208   8.853
 6768POPC   GL224698   0.457  22.020   8.853
 6768POPC   C1A24699   0.419  22.181   8.553
 6768POPC   D2A24700   0.418  22.151   8.253
 6768POPC   C3A24701   0.436  22.204   7.953
 6768POPC   C4A24702   0.389  22.149   7.653
 6768POPC   C1B24703   0.564  21.901   8.553
 6768POPC   C2B24704   0.559  21.932   8.253
 6768POPC   C3B24705   0.530  21.973   7.953
 6768POPC   C4B24706   0.555  21.929   7.653
 6769POPC   NC324707  19.839  34.561   9.453
 6769POPC   PO424708  19.844  34.593   9.153
 6769POPC   GL124709  19.817  34.540   8.853
 6769POPC   GL224710  19.852  34.454   8.853
 6769POPC   C1A24711  19.787  34.570   8.553
 6769POPC   D2A24712  19.858  34.573   8.253
 6769POPC   C3A24713  19.812  34.619   7.953
 6769POPC   C4A24714  19.840  34.615   7.653
 6769POPC   C1B24715  20.005  34.400   8.553
 6769POPC   C2B24716  20.007  34.337   8.253
 6769POPC   C3B24717  19.937  34.317   7.953
 6769POPC   C4B24718  19.962  34.337   7.653
 6770POPC   NC324719  42.299  41.556   9.453
 6770POPC   PO424720  42.296  41.559   9.153
 6770POPC   GL124721  42.341  41.527   8.853
 6770POPC   GL224722  42.478  41.654   8.853
 6770POPC   C1A24723  42.326  41.603   8.553
 6770POPC   D2A24724  42.323  41.596   8.253
 6770POPC   C3A24725  42.347  41.585   7.953
 6770POPC   C4A24726  42.287  41.608   7.653
 6770POPC   C1B24727  42.506  41.691   8.553
 6770POPC   C2B24728  42.561  41.701   8.253
 6770POPC   C3B24729  42.538  41.720   7.953
 6770POPC   C4B24730  42.485  41.718   7.653
 6771POPC   NC324731  30.720  24.482   9.453
 6771POPC   PO424732  30.697  24.503   9.153
 6771POPC   GL124733  30.690  24.517   8.853
 6771POPC   GL224734  30.581  24.515   8.853
 6771POPC   C1A24735  30.718  24.504   8.553
 6771POPC   D2A24736  30.744  24.464   8.253
 6771POPC   C3A24737  30.699  24.535   7.953
 6771POPC   C4A24738  30.740  24.444   7.653
 6771POPC   C1B24739  30.490  24.655   8.553
 6771POPC   C2B24740  30.453  24.599   8.253
 6771POPC   C3B24741  30.515  24.576   7.953
 6771POPC   C4B24742  30.460  24.617   7.653
 6772POPC   NC324743  15.912  38.500   9.453
 6772POPC   PO424744  15.976  38.485   9.153
 6772POPC   GL124745  15.946  38.428   8.853
 6772POPC   GL224746  16.016  38.553   8.853
 6772POPC   C1A24747  15.963  38.422   8.553
 6772POPC   D2A24748  15.944  38.440   8.253
 6772POPC   C3A24749  15.970  38.428   7.953
 6772POPC   C4A24750  15.936  38.444   7.653
 6772POPC   C1B24751  16.133  38.617   8.553
 6772POPC   C2B24752  16.108  38.617   8.253
 6772POPC   C3B24753  16.129  38.619   7.953
 6772POPC   C4B24754  16.127  38.645   7.653
 6773POPC   NC324755   7.443  40.814   9.453
 6773POPC   PO424756   7.405  40.827   9.153
 6773POPC   GL124757   7.428  40.756   8.853
 6773POPC   GL224758   7.359  40.846   8.853
 6773POPC   C1A24759   7.439  40.801   8.553
 6773POPC   D2A24760   7.377  40.765   8.253
 6773POPC   C3A24761   7.455  40.770   7.953
 6773POPC   C4A24762   7.447  40.783   7.653
 6773POPC   C1B24763   7.272  41.000   8.553
 6773POPC   C2B24764   7.288  41.020   8.253
 6773POPC   C3B24765   7.248  40.975   7.953
 6773POPC   C4B24766   7.306  40.947   7.653
 6774POPC   NC324767   3.542   2.718   9.453
 6774POPC   PO424768   3.587   2.759   9.153
 6774POPC   GL124769   3.512   2.717   8.853
 6774POPC   GL224770   3.394   2.682   8.853
 6774POPC   C1A24771   3.580   2.759   8.553
 6774POPC   D2A24772   3.554   2.801   8.253
 6774POPC   C3A24773   3.498   2.752   7.953
 6774POPC   C4A24774   3.516   2.720   7.653
 6774POPC   C1B24775   3.281   2.658   8.553
 6774POPC   C2B24776   3.280   2.676   8.253
 6774POPC   C3B24777   3.293   2.635   7.953
 6774POPC   C4B24778   3.330   2.617   7.653
 6775POPC   NC324779  15.211  18.255   9.453
 6775POPC   PO424780  15.158  18.297   9.153
 6775POPC   GL124781  15.172  18.286   8.853
 6775POPC   GL224782  15.054  18.234   8.853
 6775POPC   C1A24783  15.143  18.244   8.553
 6775POPC   D2A24784  15.163  18.255   8.253
 6775POPC   C3A24785  15.228  18.263   7.953
 6775POPC   C4A24786  15.218  18.314   7.653
 6775POPC   C1B24787  14.975  18.068   8.553
 6775POPC   C2B24788  14.966  18.137   8.253
 6775POPC   C3B24789  14.983  18.066   7.953
 6775POPC   C4B24790  15.013  18.095   7.653
 6776POPC   NC324791  31.517  18.329   9.453
 6776POPC   PO424792  31.508  18.315   9.153
 6776POPC   GL124793  31.423  18.267   8.853
 6776POPC   GL224794  31.546  18.152   8.853
 6776POPC   C1A24795  31.442  18.313   8.553
 6776POPC   D2A24796  31.474  18.285   8.253
 6776POPC   C3A24797  31.480  18.300   7.953
 6776POPC   C4A24798  31.439  18.278   7.653
 6776POPC   C1B24799  31.633  18.012   8.553
 6776POPC   C2B24800  31.596  18.015   8.253
 6776POPC   C3B24801  31.621  18.110   7.953
 6776POPC   C4B24802  31.616  18.034   7.653
 6777POPC   NC324803   8.987   3.539   9.453
 6777POPC   PO424804   8.959   3.523   9.153
 6777POPC   GL124805   8.933   3.585   8.853
 6777POPC   GL224806   8.900   3.459   8.853
 6777POPC   C1A24807   9.004   3.587   8.553
 6777POPC   D2A24808   8.990   3.562   8.253
 6777POPC   C3A24809   8.955   3.517   7.953
 6777POPC   C4A24810   8.974   3.518   7.653
 6777POPC   C1B24811   8.891   3.296   8.553
 6777POPC   C2B24812   8.882   3.290   8.253
 6777POPC   C3B24813   8.857   3.316   7.953
 6777POPC   C4B24814   8.878   3.327   7.653
 6778POPC   NC324815  35.342  15.209   9.453
 6778POPC   PO424816  35.331  15.219   9.153
 6778POPC   GL124817  35.311  15.201   8.853
 6778POPC   GL224818  35.215  15.226   8.853
 6778POPC   C1A24819  35.303  15.169   8.553
 6778POPC   D2A24820  35.392  15.137   8.253
 6778POPC   C3A24821  35.346  15.219   7.953
 6778POPC   C4A24822  35.381  15.132   7.653
 6778POPC   C1B24823  35.106  15.264   8.553
 6778POPC   C2B24824  35.130  15.333   8.253
 6778POPC   C3B24825  35.156  15.262   7.953
 6778POPC   C4B24826  35.147  15.308   7.653
 6779POPC   NC324827  26.858  24.469   9.453
 6779POPC   PO424828  26.856  24.466   9.153
 6779POPC   GL124829  26.776  24.510   8.853
 6779POPC   GL224830  26.904  24.482   8.853
 6779POPC   C1A24831  26.828  24.456   8.553
 6779POPC   D2A24832  26.788  24.456   8.253
 6779POPC   C3A24833  26.867  24.520   7.953
 6779POPC   C4A24834  26.822  24.507   7.653
 6779POPC   C1B24835  27.094  24.397   8.553
 6779POPC   C2B24836  27.067  24.405   8.253
 6779POPC   C3B24837  27.037  24.420   7.953
 6779POPC   C4B24838  27.083  24.443   7.653
 6780POPC   NC324839  43.846  12.862   9.453
 6780POPC   PO424840  43.906  12.830   9.153
 6780POPC   GL124841  43.866  12.806   8.853
 6780POPC   GL224842  43.935  12.728   8.853
 6780POPC   C1A24843  43.928  12.826   8.553
 6780POPC   D2A24844  43.878  12.872   8.253
 6780POPC   C3A24845  43.922  12.844   7.953
 6780POPC   C4A24846  43.913  12.889   7.653
 6780POPC   C1B24847  43.972  12.596   8.553
 6780POPC   C2B24848  44.036  12.592   8.253
 6780POPC   C3B24849  44.003  12.647   7.953
 6780POPC   C4B24850  43.968  12.587   7.653
 6781POPC   NC324851   5.822  38.500   9.453
 6781POPC   PO424852   5.918  38.474   9.153
 6781POPC   GL124853   5.891  38.454   8.853
 6781POPC   GL224854   5.746  38.488   8.853
 6781POPC   C1A24855   5.862  38.447   8.553
 6781POPC   D2A24856   5.831  38.410   8.253
 6781POPC   C3A24857   5.844  38.406   7.953
 6781POPC   C4A24858   5.835  38.459   7.653
 6781POPC   C1B24859   5.671  38.541   8.553
 6781POPC   C2B24860   5.635  38.490   8.253
 6781POPC   C3B24861   5.615  38.462   7.953
 6781POPC   C4B24862   5.636  38.472   7.653
 6782POPC   NC324863   7.413  37.722   9.453
 6782POPC   PO424864   7.466  37.672   9.153
 6782POPC   GL124865   7.376  37.656   8.853
 6782POPC   GL224866   7.516  37.645   8.853
 6782POPC   C1A24867   7.425  37.680   8.553
 6782POPC   D2A24868   7.469  37.670   8.253
 6782POPC   C3A24869   7.396  37.695   7.953
 6782POPC   C4A24870   7.387  37.720   7.653
 6782POPC   C1B24871   7.656  37.661   8.553
 6782POPC   C2B24872   7.630  37.624   8.253
 6782POPC   C3B24873   7.673  37.659   7.953
 6782POPC   C4B24874   7.643  37.614   7.653
 6783POPC   NC324875  26.842  26.051   9.453
 6783POPC   PO424876  26.850  26.033   9.153
 6783POPC   GL124877  26.842  26.050   8.853
 6783POPC   GL224878  26.708  26.152   8.853
 6783POPC   C1A24879  26.806  25.998   8.553
 6783POPC   D2A24880  26.806  26.064   8.253
 6783POPC   C3A24881  26.844  26.028   7.953
 6783POPC   C4A24882  26.807  26.054   7.653
 6783POPC   C1B24883  26.701  26.203   8.553
 6783POPC   C2B24884  26.689  26.212   8.253
 6783POPC   C3B24885  26.621  26.258   7.953
 6783POPC   C4B24886  26.655  26.269   7.653
 6784POPC   NC324887  30.653  22.919   9.453
 6784POPC   PO424888  30.739  22.908   9.153
 6784POPC   GL124889  30.662  22.944   8.853
 6784POPC   GL224890  30.766  22.813   8.853
 6784POPC   C1A24891  30.737  22.933   8.553
 6784POPC   D2A24892  30.693  22.973   8.253
 6784POPC   C3A24893  30.735  22.927   7.953
 6784POPC   C4A24894  30.677  22.934   7.653
 6784POPC   C1B24895  30.792  22.760   8.553
 6784POPC   C2B24896  30.819  22.753   8.253
 6784POPC   C3B24897  30.869  22.703   7.953
 6784POPC   C4B24898  30.885  22.697   7.653
 6785POPC   NC324899   3.561  37.700   9.453
 6785POPC   PO424900   3.517  37.638   9.153
 6785POPC   GL124901   3.579  37.691   8.853
 6785POPC   GL224902   3.415  37.702   8.853
 6785POPC   C1A24903   3.544  37.716   8.553
 6785POPC   D2A24904   3.562  37.696   8.253
 6785POPC   C3A24905   3.500  37.677   7.953
 6785POPC   C4A24906   3.513  37.713   7.653
 6785POPC   C1B24907   3.327  37.701   8.553
 6785POPC   C2B24908   3.316  37.746   8.253
 6785POPC   C3B24909   3.286  37.727   7.953
 6785POPC   C4B24910   3.309  37.719   7.653
 6786POPC   NC324911   0.447   8.969   9.453
 6786POPC   PO424912   0.486   8.989   9.153
 6786POPC   GL124913   0.446   8.999   8.853
 6786POPC   GL224914   0.383   9.038   8.853
 6786POPC   C1A24915   0.463   8.967   8.553
 6786POPC   D2A24916   0.422   8.935   8.253
 6786POPC   C3A24917   0.422   8.998   7.953
 6786POPC   C4A24918   0.417   9.002   7.653
 6786POPC   C1B24919   0.260   9.147   8.553
 6786POPC   C2B24920   0.258   9.186   8.253
 6786POPC   C3B24921   0.317   9.165   7.953
 6786POPC   C4B24922   0.283   9.177   7.653
 6787POPC   NC324923  37.632   1.214   9.453
 6787POPC   PO424924  37.641   1.189   9.153
 6787POPC   GL124925  37.659   1.170   8.853
 6787POPC   GL224926  37.689   1.068   8.853
 6787POPC   C1A24927  37.700   1.167   8.553
 6787POPC   D2A24928  37.695   1.164   8.253
 6787POPC   C3A24929  37.662   1.221   7.953
 6787POPC   C4A24930  37.696   1.203   7.653
 6787POPC   C1B24931  37.782   0.952   8.553
 6787POPC   C2B24932  37.712   1.003   8.253
 6787POPC   C3B24933  37.765   0.933   7.953
 6787POPC   C4B24934  37.783   0.990   7.653
 6788POPC   NC324935  28.401  27.637   9.453
 6788POPC   PO424936  28.332  27.613   9.153
 6788POPC   GL124937  28.388  27.544   8.853
 6788POPC   GL224938  28.513  27.569   8.853
 6788POPC   C1A24939  28.398  27.609   8.553
 6788POPC   D2A24940  28.357  27.574   8.253
 6788POPC   C3A24941  28.335  27.564   7.953
 6788POPC   C4A24942  28.372  27.594   7.653
 6788POPC   C1B24943  28.601  27.475   8.553
 6788POPC   C2B24944  28.649  27.520   8.253
 6788POPC   C3B24945  28.566  27.460   7.953
 6788POPC   C4B24946  28.639  27.505   7.653
 6789POPC   NC324947  12.055  37.673   9.453
 6789POPC   PO424948  12.099  37.651   9.153
 6789POPC   GL124949  12.032  37.697   8.853
 6789POPC   GL224950  12.159  37.726   8.853
 6789POPC   C1A24951  12.081  37.725   8.553
 6789POPC   D2A24952  12.044  37.686   8.253
 6789POPC   C3A24953  12.082  37.675   7.953
 6789POPC   C4A24954  12.032  37.676   7.653
 6789POPC   C1B24955  12.279  37.823   8.553
 6789POPC   C2B24956  12.321  37.762   8.253
 6789POPC   C3B24957  12.310  37.736   7.953
 6789POPC   C4B24958  12.292  37.811   7.653
 6790POPC   NC324959  31.490  32.258   9.453
 6790POPC   PO424960  31.472  32.292   9.153
 6790POPC   GL124961  31.494  32.282   8.853
 6790POPC   GL224962  31.545  32.316   8.853
 6790POPC   C1A24963  31.473  32.205   8.553
 6790POPC   D2A24964  31.472  32.295   8.253
 6790POPC   C3A24965  31.505  32.231   7.953
 6790POPC   C4A24966  31.456  32.258   7.653
 6790POPC   C1B24967  31.598  32.423   8.553
 6790POPC   C2B24968  31.580  32.414   8.253
 6790POPC   C3B24969  31.613  32.429   7.953
 6790POPC   C4B24970  31.633  32.401   7.653
 6791POPC   NC324971   7.440  43.922   9.453
 6791POPC   PO424972   7.412  43.887   9.153
 6791POPC   GL124973   7.401  43.901   8.853
 6791POPC   GL224974   7.511  44.024   8.853
 6791POPC   C1A24975   7.421  43.849   8.553
 6791POPC   D2A24976   7.422  43.852   8.253
 6791POPC   C3A24977   7.422  43.872   7.953
 6791POPC   C4A24978   7.406  43.842   7.653
 6791POPC   C1B24979   7.626  44.040   8.553
 6791POPC   C2B24980   7.632  44.107   8.253
 6791POPC   C3B24981   7.597  44.057   7.953
 6791POPC   C4B24982   7.555  44.052   7.653
 6792POPC   NC324983   1.225   2.733   9.453
 6792POPC   PO424984   1.201   2.763   9.153
 6792POPC   GL124985   1.165   2.725   8.853
 6792POPC   GL224986   1.186   2.647   8.853
 6792POPC   C1A24987   1.201   2.774   8.553
 6792POPC   D2A24988   1.249   2.754   8.253
 6792POPC   C3A24989   1.195   2.760   7.953
 6792POPC   C4A24990   1.235   2.792   7.653
 6792POPC   C1B24991   1.132   2.552   8.553
 6792POPC   C2B24992   1.082   2.491   8.253
 6792POPC   C3B24993   1.149   2.495   7.953
 6792POPC   C4B24994   1.100   2.489   7.653
 6793POPC   NC324995   7.400  28.377   9.453
 6793POPC   PO424996   7.375  28.357   9.153
 6793POPC   GL124997   7.443  28.320   8.853
 6793POPC   GL224998   7.340  28.257   8.853
 6793POPC   C1A24999   7.429  28.386   8.553
 6793POPC   D2A25000   7.468  28.327   8.253
 6793POPC   C3A25001   7.451  28.404   7.953
 6793POPC   C4A25002   7.382  28.346   7.653
 6793POPC   C1B25003   7.308  28.097   8.553
 6793POPC   C2B25004   7.326  28.134   8.253
 6793POPC   C3B25005   7.387  28.120   7.953
 6793POPC   C4B25006   7.306  28.085   7.653
 6794POPC   NC325007  31.513  24.500   9.453
 6794POPC   PO425008  31.448  24.500   9.153
 6794POPC   GL125009  31.513  24.462   8.853
 6794POPC   GL225010  31.328  24.457   8.853
 6794POPC   C1A25011  31.464  24.536   8.553
 6794POPC   D2A25012  31.483  24.509   8.253
 6794POPC   C3A25013  31.491  24.445   7.953
 6794POPC   C4A25014  31.447  24.509   7.653
 6794POPC   C1B25015  31.266  24.364   8.553
 6794POPC   C2B25016  31.241  24.377   8.253
 6794POPC   C3B25017  31.286  24.399   7.953
 6794POPC   C4B25018  31.287  24.407   7.653
 6795POPC   NC325019  36.915  11.340   9.453
 6795POPC   PO425020  36.933  11.260   9.153
 6795POPC   GL125021  36.912  11.347   8.853
 6795POPC   GL225022  36.884  11.394   8.853
 6795POPC   C1A25023  36.931  11.269   8.553
 6795POPC   D2A25024  36.908  11.265   8.253
 6795POPC   C3A25025  36.855  11.304   7.953
 6795POPC   C4A25026  36.869  11.316   7.653
 6795POPC   C1B25027  36.844  11.550   8.553
 6795POPC   C2B25028  36.897  11.572   8.253
 6795POPC   C3B25029  36.818  11.546   7.953
 6795POPC   C4B25030  36.834  11.518   7.653
 6796POPC   NC325031  44.628  16.725   9.453
 6796POPC   PO425032  44.687  16.746   9.153
 6796POPC   GL125033  44.664  16.691   8.853
 6796POPC   GL225034  44.746  16.590   8.853
 6796POPC   C1A25035  44.703  16.751   8.553
 6796POPC   D2A25036  44.686  16.750   8.253
 6796POPC   C3A25037  44.684  16.738   7.953
 6796POPC   C4A25038  44.687  16.751   7.653
 6796POPC   C1B25039  44.766  16.494   8.553
 6796POPC   C2B25040  44.797  16.558   8.253
 6796POPC   C3B25041  44.764  16.512   7.953
 6796POPC   C4B25042  44.732  16.467   7.653
 6797POPC   NC325043  14.445  21.380   9.453
 6797POPC   PO425044  14.367  21.421   9.153
 6797POPC   GL125045  14.356  21.336   8.853
 6797POPC   GL225046  14.509  21.490   8.853
 6797POPC   C1A25047  14.403  21.346   8.553
 6797POPC   D2A25048  14.378  21.419   8.253
 6797POPC   C3A25049  14.370  21.380   7.953
 6797POPC   C4A25050  14.388  21.387   7.653
 6797POPC   C1B25051  14.518  21.594   8.553
 6797POPC   C2B25052  14.523  21.620   8.253
 6797POPC   C3B25053  14.544  21.598   7.953
 6797POPC   C4B25054  14.549  21.561   7.653
 6798POPC   NC325055  16.743  40.010   9.453
 6798POPC   PO425056  16.761  39.977   9.153
 6798POPC   GL125057  16.772  39.963   8.853
 6798POPC   GL225058  16.686  39.840   8.853
 6798POPC   C1A25059  16.712  40.004   8.553
 6798POPC   D2A25060  16.743  39.999   8.253
 6798POPC   C3A25061  16.683  39.965   7.953
 6798POPC   C4A25062  16.721  40.019   7.653
 6798POPC   C1B25063  16.673  39.738   8.553
 6798POPC   C2B25064  16.746  39.770   8.253
 6798POPC   C3B25065  16.738  39.711   7.953
 6798POPC   C4B25066  16.759  39.770   7.653
 6799POPC   NC325067  16.696  39.231   9.453
 6799POPC   PO425068  16.778  39.240   9.153
 6799POPC   GL125069  16.723  39.184   8.853
 6799POPC   GL225070  16.775  39.290   8.853
 6799POPC   C1A25071  16.681  39.241   8.553
 6799POPC   D2A25072  16.753  39.256   8.253
 6799POPC   C3A25073  16.684  39.203   7.953
 6799POPC   C4A25074  16.776  39.242   7.653
 6799POPC   C1B25075  16.861  39.377   8.553
 6799POPC   C2B25076  16.924  39.425   8.253
 6799POPC   C3B25077  16.922  39.440   7.953
 6799POPC   C4B25078  16.852  39.391   7.653
 6800POPC   NC325079  30.656  10.520   9.453
 6800POPC   PO425080  30.676  10.530   9.153
 6800POPC   GL125081  30.707  10.487   8.853
 6800POPC   GL225082  30.784  10.394   8.853
 6800POPC   C1A25083  30.661  10.555   8.553
 6800POPC   D2A25084  30.658  10.561   8.253
 6800POPC   C3A25085  30.673  10.478   7.953
 6800POPC   C4A25086  30.713  10.527   7.653
 6800POPC   C1B25087  30.846  10.292   8.553
 6800POPC   C2B25088  30.893  10.372   8.253
 6800POPC   C3B25089  30.840  10.357   7.953
 6800POPC   C4B25090  30.867  10.331   7.653
 6801POPC   NC325091  19.078  44.613   9.453
 6801POPC   PO425092  19.107  44.689   9.153
 6801POPC   GL125093  19.052  44.642   8.853
 6801POPC   GL225094  18.947  44.704   8.853
 6801POPC   C1A25095  19.108  44.646   8.553
 6801POPC   D2A25096  19.025  44.693   8.253
 6801POPC   C3A25097  19.039  44.627   7.953
 6801POPC   C4A25098  19.031  44.686   7.653
 6801POPC   C1B25099  18.918  44.781   8.553
 6801POPC   C2B25100  18.888  44.786   8.253
 6801POPC   C3B25101  18.878  44.782   7.953
 6801POPC   C4B25102  18.862  44.822   7.653
 6802POPC   NC325103  29.137  23.730   9.453
 6802POPC   PO425104  29.100  23.742   9.153
 6802POPC   GL125105  29.139  23.743   8.853
 6802POPC   GL225106  29.245  23.738   8.853
 6802POPC   C1A25107  29.192  23.707   8.553
 6802POPC   D2A25108  29.163  23.743   8.253
 6802POPC   C3A25109  29.139  23.666   7.953
 6802POPC   C4A25110  29.129  23.756   7.653
 6802POPC   C1B25111  29.403  23.740   8.553
 6802POPC   C2B25112  29.400  23.744   8.253
 6802POPC   C3B25113  29.402  23.771   7.953
 6802POPC   C4B25114  29.419  23.712   7.653
 6803POPC   NC325115  34.555  15.915   9.453
 6803POPC   PO425116  34.607  15.997   9.153
 6803POPC   GL125117  34.578  15.938   8.853
 6803POPC   GL225118  34.528  16.076   8.853
 6803POPC   C1A25119  34.532  15.914   8.553
 6803POPC   D2A25120  34.555  15.951   8.253
 6803POPC   C3A25121  34.624  15.907   7.953
 6803POPC   C4A25122  34.552  15.948   7.653
 6803POPC   C1B25123  34.422  16.185   8.553
 6803POPC   C2B25124  34.415  16.129   8.253
 6803POPC   C3B25125  34.437  16.151   7.953
 6803POPC   C4B25126  34.380  16.166   7.653
 6804POPC   NC325127   0.484  26.865   9.453
 6804POPC   PO425128   0.466  26.840   9.153
 6804POPC   GL125129   0.445  26.812   8.853
 6804POPC   GL225130   0.366  26.826   8.853
 6804POPC   C1A25131   0.431  26.786   8.553
 6804POPC   D2A25132   0.444  26.806   8.253
 6804POPC   C3A25133   0.446  26.773   7.953
 6804POPC   C4A25134   0.474  26.814   7.653
 6804POPC   C1B25135   0.242  26.926   8.553
 6804POPC   C2B25136   0.248  26.929   8.253
 6804POPC   C3B25137   0.190  26.890   7.953
 6804POPC   C4B25138   0.252  26.924   7.653
 6805POPC   NC325139  43.887  39.270   9.453
 6805POPC   PO425140  43.922  39.267   9.153
 6805POPC   GL125141  43.875  39.263   8.853
 6805POPC   GL225142  44.026  39.188   8.853
 6805POPC   C1A25143  43.924  39.258   8.553
 6805POPC   D2A25144  43.920  39.278   8.253
 6805POPC   C3A25145  43.911  39.198   7.953
 6805POPC   C4A25146  43.936  39.185   7.653
 6805POPC   C1B25147  44.105  39.140   8.553
 6805POPC   C2B25148  44.069  39.121   8.253
 6805POPC   C3B25149  44.116  39.165   7.953
 6805POPC   C4B25150  44.162  39.159   7.653
 6806POPC   NC325151  42.338  25.246   9.453
 6806POPC   PO425152  42.289  25.291   9.153
 6806POPC   GL125153  42.375  25.244   8.853
 6806POPC   GL225154  42.445  25.224   8.853
 6806POPC   C1A25155  42.361  25.240   8.553
 6806POPC   D2A25156  42.290  25.241   8.253
 6806POPC   C3A25157  42.292  25.243   7.953
 6806POPC   C4A25158  42.361  25.246   7.653
 6806POPC   C1B25159  42.492  25.054   8.553
 6806POPC   C2B25160  42.491  25.133   8.253
 6806POPC   C3B25161  42.508  25.058   7.953
 6806POPC   C4B25162  42.541  25.122   7.653
 6807POPC   NC325163  10.571   0.463   9.453
 6807POPC   PO425164  10.573   0.474   9.153
 6807POPC   GL125165  10.476   0.414   8.853
 6807POPC   GL225166  10.557   0.381   8.853
 6807POPC   C1A25167  10.485   0.401   8.553
 6807POPC   D2A25168  10.484   0.452   8.253
 6807POPC   C3A25169  10.535   0.487   7.953
 6807POPC   C4A25170  10.490   0.487   7.653
 6807POPC   C1B25171  10.624   0.257   8.553
 6807POPC   C2B25172  10.678   0.178   8.253
 6807POPC   C3B25173  10.636   0.240   7.953
 6807POPC   C4B25174  10.666   0.258   7.653
 6808POPC   NC325175  14.385   2.791   9.453
 6808POPC   PO425176  14.421   2.781   9.153
 6808POPC   GL125177  14.422   2.768   8.853
 6808POPC   GL225178  14.328   2.818   8.853
 6808POPC   C1A25179  14.366   2.803   8.553
 6808POPC   D2A25180  14.388   2.717   8.253
 6808POPC   C3A25181  14.433   2.775   7.953
 6808POPC   C4A25182  14.384   2.789   7.653
 6808POPC   C1B25183  14.126   2.841   8.553
 6808POPC   C2B25184  14.130   2.900   8.253
 6808POPC   C3B25185  14.214   2.887   7.953
 6808POPC   C4B25186  14.192   2.874   7.653
 6809POPC   NC325187  35.346  15.992   9.453
 6809POPC   PO425188  35.307  15.990   9.153
 6809POPC   GL125189  35.349  15.971   8.853
 6809POPC   GL225190  35.483  16.009   8.853
 6809POPC   C1A25191  35.311  15.943   8.553
 6809POPC   D2A25192  35.307  15.987   8.253
 6809POPC   C3A25193  35.374  15.931   7.953
 6809POPC   C4A25194  35.346  15.911   7.653
 6809POPC   C1B25195  35.534  16.072   8.553
 6809POPC   C2B25196  35.546  16.059   8.253
 6809POPC   C3B25197  35.540  16.095   7.953
 6809POPC   C4B25198  35.597  16.070   7.653
 6810POPC   NC325199   0.480  29.948   9.453
 6810POPC   PO425200   0.409  29.933   9.153
 6810POPC   GL125201   0.470  29.900   8.853
 6810POPC   GL225202   0.487  30.032   8.853
 6810POPC   C1A25203   0.480  29.912   8.553
 6810POPC   D2A25204   0.486  29.966   8.253
 6810POPC   C3A25205   0.390  29.892   7.953
 6810POPC   C4A25206   0.411  29.877   7.653
 6810POPC   C1B25207   0.586  30.178   8.553
 6810POPC   C2B25208   0.526  30.174   8.253
 6810POPC   C3B25209   0.587  30.129   7.953
 6810POPC   C4B25210   0.586  30.121   7.653
 6811POPC   NC325211  36.128  34.585   9.453
 6811POPC   PO425212  36.127  34.592   9.153
 6811POPC   GL125213  36.095  34.562   8.853
 6811POPC   GL225214  36.135  34.429   8.853
 6811POPC   C1A25215  36.122  34.561   8.553
 6811POPC   D2A25216  36.089  34.571   8.253
 6811POPC   C3A25217  36.168  34.564   7.953
 6811POPC   C4A25218  36.135  34.530   7.653
 6811POPC   C1B25219  36.114  34.328   8.553
 6811POPC   C2B25220  36.149  34.338   8.253
 6811POPC   C3B25221  36.103  34.327   7.953
 6811POPC   C4B25222  36.154  34.315   7.653
 6812POPC   NC325223  26.783   9.784   9.453
 6812POPC   PO425224  26.775   9.753   9.153
 6812POPC   GL125225  26.815   9.745   8.853
 6812POPC   GL225226  26.861   9.602   8.853
 6812POPC   C1A25227  26.772   9.765   8.553
 6812POPC   D2A25228  26.853   9.725   8.253
 6812POPC   C3A25229  26.787   9.722   7.953
 6812POPC   C4A25230  26.789   9.718   7.653
 6812POPC   C1B25231  26.976   9.543   8.553
 6812POPC   C2B25232  26.912   9.484   8.253
 6812POPC   C3B25233  26.976   9.581   7.953
 6812POPC   C4B25234  26.986   9.507   7.653
 6813POPC   NC325235  27.602  15.977   9.453
 6813POPC   PO425236  27.582  15.931   9.153
 6813POPC   GL125237  27.556  15.978   8.853
 6813POPC   GL225238  27.572  16.058   8.853
 6813POPC   C1A25239  27.626  16.001   8.553
 6813POPC   D2A25240  27.643  15.977   8.253
 6813POPC   C3A25241  27.553  15.922   7.953
 6813POPC   C4A25242  27.622  15.980   7.653
 6813POPC   C1B25243  27.619  16.251   8.553
 6813POPC   C2B25244  27.653  16.156   8.253
 6813POPC   C3B25245  27.623  16.181   7.953
 6813POPC   C4B25246  27.661  16.236   7.653
 6814POPC   NC325247  19.878  21.408   9.453
 6814POPC   PO425248  19.846  21.400   9.153
 6814POPC   GL125249  19.801  21.402   8.853
 6814POPC   GL225250  19.842  21.548   8.853
 6814POPC   C1A25251  19.848  21.348   8.553
 6814POPC   D2A25252  19.822  21.434   8.253
 6814POPC   C3A25253  19.807  21.350   7.953
 6814POPC   C4A25254  19.852  21.339   7.653
 6814POPC   C1B25255  19.856  21.644   8.553
 6814POPC   C2B25256  19.846  21.671   8.253
 6814POPC   C3B25257  19.840  21.676   7.953
 6814POPC   C4B25258  19.814  21.593   7.653
 6815POPC   NC325259   2.733  16.716   9.453
 6815POPC   PO425260   2.814  16.732   9.153
 6815POPC   GL125261   2.731  16.691   8.853
 6815POPC   GL225262   2.861  16.794   8.853
 6815POPC   C1A25263   2.788  16.692   8.553
 6815POPC   D2A25264   2.718  16.717   8.253
 6815POPC   C3A25265   2.804  16.721   7.953
 6815POPC   C4A25266   2.717  16.687   7.653
 6815POPC   C1B25267   2.940  16.871   8.553
 6815POPC   C2B25268   2.896  16.934   8.253
 6815POPC   C3B25269   2.937  16.957   7.953
 6815POPC   C4B25270   2.965  16.901   7.653
 6816POPC   NC325271   2.740  15.986   9.453
 6816POPC   PO425272   2.760  15.988   9.153
 6816POPC   GL125273   2.765  15.991   8.853
 6816POPC   GL225274   2.879  15.981   8.853
 6816POPC   C1A25275   2.746  15.917   8.553
 6816POPC   D2A25276   2.716  15.976   8.253
 6816POPC   C3A25277   2.800  15.926   7.953
 6816POPC   C4A25278   2.797  15.983   7.653
 6816POPC   C1B25279   3.039  16.046   8.553
 6816POPC   C2B25280   2.997  16.032   8.253
 6816POPC   C3B25281   3.049  16.017   7.953
 6816POPC   C4B25282   2.959  16.046   7.653
 6817POPC   NC325283  22.183   5.104   9.453
 6817POPC   PO425284  22.165   5.117   9.153
 6817POPC   GL125285  22.176   5.128   8.853
 6817POPC   GL225286  22.115   5.009   8.853
 6817POPC   C1A25287  22.209   5.134   8.553
 6817POPC   D2A25288  22.165   5.126   8.253
 6817POPC   C3A25289  22.208   5.073   7.953
 6817POPC   C4A25290  22.125   5.048   7.653
 6817POPC   C1B25291  21.997   4.947   8.553
 6817POPC   C2B25292  21.921   4.935   8.253
 6817POPC   C3B25293  21.984   4.963   7.953
 6817POPC   C4B25294  21.995   4.971   7.653
 6818POPC   NC325295   2.038  25.289   9.453
 6818POPC   PO425296   2.021  25.279   9.153
 6818POPC   GL125297   1.998  25.216   8.853
 6818POPC   GL225298   1.909  25.177   8.853
 6818POPC   C1A25299   2.009  25.290   8.553
 6818POPC   D2A25300   1.946  25.251   8.253
 6818POPC   C3A25301   1.988  25.309   7.953
 6818POPC   C4A25302   1.989  25.244   7.653
 6818POPC   C1B25303   1.849  25.037   8.553
 6818POPC   C2B25304   1.847  25.020   8.253
 6818POPC   C3B25305   1.802  25.030   7.953
 6818POPC   C4B25306   1.829  25.096   7.653
 6819POPC   NC325307  23.676  11.303   9.453
 6819POPC   PO425308  23.696  11.257   9.153
 6819POPC   GL125309  23.670  11.305   8.853
 6819POPC   GL225310  23.854  11.347   8.853
 6819POPC   C1A25311  23.705  11.269   8.553
 6819POPC   D2A25312  23.676  11.322   8.253
 6819POPC   C3A25313  23.687  11.316   7.953
 6819POPC   C4A25314  23.749  11.266   7.653
 6819POPC   C1B25315  23.989  11.300   8.553
 6819POPC   C2B25316  24.007  11.358   8.253
 6819POPC   C3B25317  23.990  11.335   7.953
 6819POPC   C4B25318  23.959  11.311   7.653
 6820POPC   NC325319  32.987  14.435   9.453
 6820POPC   PO425320  33.042  14.397   9.153
 6820POPC   GL125321  33.066  14.451   8.853
 6820POPC   GL225322  33.110  14.372   8.853
 6820POPC   C1A25323  32.982  14.432   8.553
 6820POPC   D2A25324  32.995  14.434   8.253
 6820POPC   C3A25325  33.062  14.415   7.953
 6820POPC   C4A25326  33.064  14.367   7.653
 6820POPC   C1B25327  33.240  14.359   8.553
 6820POPC   C2B25328  33.302  14.316   8.253
 6820POPC   C3B25329  33.273  14.305   7.953
 6820POPC   C4B25330  33.226  14.274   7.653
 6821POPC   NC325331  31.468  37.681   9.453
 6821POPC   PO425332  31.520  37.679   9.153
 6821POPC   GL125333  31.491  37.701   8.853
 6821POPC   GL225334  31.345  37.617   8.853
 6821POPC   C1A25335  31.502  37.695   8.553
 6821POPC   D2A25336  31.448  37.661   8.253
 6821POPC   C3A25337  31.488  37.717   7.953
 6821POPC   C4A25338  31.469  37.666   7.653
 6821POPC   C1B25339  31.317  37.488   8.553
 6821POPC   C2B25340  31.257  37.476   8.253
 6821POPC   C3B25341  31.334  37.518   7.953
 6821POPC   C4B25342  31.267  37.486   7.653
 6822POPC   NC325343  34.571  15.150   9.453
 6822POPC   PO425344  34.530  15.183   9.153
 6822POPC   GL125345  34.620  15.142   8.853
 6822POPC   GL225346  34.505  15.310   8.853
 6822POPC   C1A25347  34.569  15.189   8.553
 6822POPC   D2A25348  34.581  15.208   8.253
 6822POPC   C3A25349  34.572  15.131   7.953
 6822POPC   C4A25350  34.527  15.227   7.653
 6822POPC   C1B25351  34.366  15.386   8.553
 6822POPC   C2B25352  34.433  15.375   8.253
 6822POPC   C3B25353  34.398  15.315   7.953
 6822POPC   C4B25354  34.376  15.334   7.653
 6823POPC   NC325355  21.436  43.065   9.453
 6823POPC   PO425356  21.364  43.111   9.153
 6823POPC   GL125357  21.377  43.077   8.853
 6823POPC   GL225358  21.476  43.157   8.853
 6823POPC   C1A25359  21.366  43.147   8.553
 6823POPC   D2A25360  21.370  43.116   8.253
 6823POPC   C3A25361  21.361  43.067   7.953
 6823POPC   C4A25362  21.336  43.099   7.653
 6823POPC   C1B25363  21.568  43.312   8.553
 6823POPC   C2B25364  21.634  43.269   8.253
 6823POPC   C3B25365  21.586  43.283   7.953
 6823POPC   C4B25366  21.585  43.268   7.653
 6824POPC   NC325367  13.601  37.652   9.453
 6824POPC   PO425368  13.619  37.632   9.153
 6824POPC   GL125369  13.673  37.651   8.853
 6824POPC   GL225370  13.680  37.605   8.853
 6824POPC   C1A25371  13.650  37.681   8.553
 6824POPC   D2A25372  13.672  37.665   8.253
 6824POPC   C3A25373  13.596  37.637   7.953
 6824POPC   C4A25374  13.645  37.724   7.653
 6824POPC   C1B25375  13.698  37.400   8.553
 6824POPC   C2B25376  13.759  37.405   8.253
 6824POPC   C3B25377  13.701  37.452   7.953
 6824POPC   C4B25378  13.770  37.484   7.653
 6825POPC   NC325379  20.598  44.654   9.453
 6825POPC   PO425380  20.650  44.690   9.153
 6825POPC   GL125381  20.597  44.690   8.853
 6825POPC   GL225382  20.710  44.747   8.853
 6825POPC   C1A25383  20.566  44.669   8.553
 6825POPC   D2A25384  20.640  44.613   8.253
 6825POPC   C3A25385  20.592  44.621   7.953
 6825POPC   C4A25386  20.645  44.676   7.653
 6825POPC   C1B25387  20.807  44.819   8.553
 6825POPC   C2B25388  20.828  44.885   8.253
 6825POPC   C3B25389  20.797  44.846   7.953
 6825POPC   C4B25390  20.741  44.816   7.653
 6826POPC   NC325391  18.327  29.173   9.453
 6826POPC   PO425392  18.279  29.106   9.153
 6826POPC   GL125393  18.289  29.113   8.853
 6826POPC   GL225394  18.309  29.017   8.853
 6826POPC   C1A25395  18.308  29.189   8.553
 6826POPC   D2A25396  18.251  29.171   8.253
 6826POPC   C3A25397  18.270  29.185   7.953
 6826POPC   C4A25398  18.270  29.129   7.653
 6826POPC   C1B25399  18.365  28.876   8.553
 6826POPC   C2B25400  18.364  28.921   8.253
 6826POPC   C3B25401  18.308  28.898   7.953
 6826POPC   C4B25402  18.399  28.946   7.653
 6827POPC   NC325403  27.574  38.485   9.453
 6827POPC   PO425404  27.614  38.421   9.153
 6827POPC   GL125405  27.631  38.486   8.853
 6827POPC   GL225406  27.470  38.475   8.853
 6827POPC   C1A25407  27.602  38.480   8.553
 6827POPC   D2A25408  27.604  38.466   8.253
 6827POPC   C3A25409  27.616  38.461   7.953
 6827POPC   C4A25410  27.579  38.462   7.653
 6827POPC   C1B25411  27.379  38.498   8.553
 6827POPC   C2B25412  27.348  38.550   8.253
 6827POPC   C3B25413  27.371  38.520   7.953
 6827POPC   C4B25414  27.364  38.553   7.653
 6828POPC   NC325415   0.392  36.176   9.453
 6828POPC   PO425416   0.433  36.082   9.153
 6828POPC   GL125417   0.448  36.106   8.853
 6828POPC   GL225418   0.446  35.991   8.853
 6828POPC   C1A25419   0.458  36.116   8.553
 6828POPC   D2A25420   0.397  36.129   8.253
 6828POPC   C3A25421   0.450  36.137   7.953
 6828POPC   C4A25422   0.463  36.126   7.653
 6828POPC   C1B25423   0.423  35.909   8.553
 6828POPC   C2B25424   0.394  35.915   8.253
 6828POPC   C3B25425   0.426  35.885   7.953
 6828POPC   C4B25426   0.355  35.880   7.653
 6829POPC   NC325427  15.188  28.341   9.453
 6829POPC   PO425428  15.159  28.379   9.153
 6829POPC   GL125429  15.176  28.413   8.853
 6829POPC   GL225430  15.215  28.491   8.853
 6829POPC   C1A25431  15.143  28.332   8.553
 6829POPC   D2A25432  15.187  28.395   8.253
 6829POPC   C3A25433  15.134  28.410   7.953
 6829POPC   C4A25434  15.191  28.358   7.653
 6829POPC   C1B25435  15.253  28.587   8.553
 6829POPC   C2B25436  15.219  28.648   8.253
 6829POPC   C3B25437  15.205  28.567   7.953
 6829POPC   C4B25438  15.226  28.635   7.653
 6830POPC   NC325439  33.811  33.777   9.453
 6830POPC   PO425440  33.806  33.806   9.153
 6830POPC   GL125441  33.761  33.789   8.853
 6830POPC   GL225442  33.895  33.714   8.853
 6830POPC   C1A25443  33.767  33.753   8.553
 6830POPC   D2A25444  33.798  33.817   8.253
 6830POPC   C3A25445  33.764  33.762   7.953
 6830POPC   C4A25446  33.757  33.823   7.653
 6830POPC   C1B25447  34.032  33.703   8.553
 6830POPC   C2B25448  33.994  33.730   8.253
 6830POPC   C3B25449  33.974  33.714   7.953
 6830POPC   C4B25450  34.053  33.664   7.653
 6831POPC   NC325451  37.654  32.233   9.453
 6831POPC   PO425452  37.672  32.235   9.153
 6831POPC   GL125453  37.637  32.291   8.853
 6831POPC   GL225454  37.753  32.177   8.853
 6831POPC   C1A25455  37.681  32.237   8.553
 6831POPC   D2A25456  37.630  32.262   8.253
 6831POPC   C3A25457  37.711  32.271   7.953
 6831POPC   C4A25458  37.632  32.285   7.653
 6831POPC   C1B25459  37.917  32.226   8.553
 6831POPC   C2B25460  37.960  32.181   8.253
 6831POPC   C3B25461  37.934  32.216   7.953
 6831POPC   C4B25462  37.909  32.183   7.653
 6832POPC   NC325463  26.785  41.589   9.453
 6832POPC   PO425464  26.786  41.601   9.153
 6832POPC   GL125465  26.801  41.548   8.853
 6832POPC   GL225466  26.752  41.461   8.853
 6832POPC   C1A25467  26.842  41.593   8.553
 6832POPC   D2A25468  26.860  41.562   8.253
 6832POPC   C3A25469  26.770  41.605   7.953
 6832POPC   C4A25470  26.774  41.547   7.653
 6832POPC   C1B25471  26.727  41.359   8.553
 6832POPC   C2B25472  26.725  41.280   8.253
 6832POPC   C3B25473  26.767  41.357   7.953
 6832POPC   C4B25474  26.713  41.340   7.653
 6833POPC   NC325475  33.767  16.711   9.453
 6833POPC   PO425476  33.839  16.735   9.153
 6833POPC   GL125477  33.777  16.698   8.853
 6833POPC   GL225478  33.641  16.691   8.853
 6833POPC   C1A25479  33.768  16.682   8.553
 6833POPC   D2A25480  33.793  16.743   8.253
 6833POPC   C3A25481  33.839  16.723   7.953
 6833POPC   C4A25482  33.830  16.770   7.653
 6833POPC   C1B25483  33.562  16.643   8.553
 6833POPC   C2B25484  33.592  16.684   8.253
 6833POPC   C3B25485  33.577  16.707   7.953
 6833POPC   C4B25486  33.587  16.651   7.653
 6834POPC   NC325487   3.524  13.611   9.453
 6834POPC   PO425488   3.510  13.597   9.153
 6834POPC   GL125489   3.537  13.593   8.853
 6834POPC   GL225490   3.544  13.512   8.853
 6834POPC   C1A25491   3.508  13.588   8.553
 6834POPC   D2A25492   3.565  13.627   8.253
 6834POPC   C3A25493   3.562  13.604   7.953
 6834POPC   C4A25494   3.590  13.618   7.653
 6834POPC   C1B25495   3.597  13.374   8.553
 6834POPC   C2B25496   3.617  13.429   8.253
 6834POPC   C3B25497   3.589  13.434   7.953
 6834POPC   C4B25498   3.569  13.410   7.653
 6835POPC   NC325499  23.763  16.723   9.453
 6835POPC   PO425500  23.731  16.725   9.153
 6835POPC   GL125501  23.749  16.698   8.853
 6835POPC   GL225502  23.807  16.716   8.853
 6835POPC   C1A25503  23.743  16.696   8.553
 6835POPC   D2A25504  23.734  16.750   8.253
 6835POPC   C3A25505  23.691  16.688   7.953
 6835POPC   C4A25506  23.710  16.739   7.653
 6835POPC   C1B25507  23.981  16.609   8.553
 6835POPC   C2B25508  23.978  16.619   8.253
 6835POPC   C3B25509  23.980  16.672   7.953
 6835POPC   C4B25510  23.921  16.620   7.653
 6836POPC   NC325511  28.406  23.750   9.453
 6836POPC   PO425512  28.410  23.763   9.153
 6836POPC   GL125513  28.403  23.706   8.853
 6836POPC   GL225514  28.396  23.821   8.853
 6836POPC   C1A25515  28.360  23.758   8.553
 6836POPC   D2A25516  28.360  23.740   8.253
 6836POPC   C3A25517  28.388  23.715   7.953
 6836POPC   C4A25518  28.327  23.737   7.653
 6836POPC   C1B25519  28.518  23.888   8.553
 6836POPC   C2B25520  28.514  23.963   8.253
 6836POPC   C3B25521  28.532  23.928   7.953
 6836POPC   C4B25522  28.475  23.907   7.653
 6837POPC   NC325523   5.890  42.324   9.453
 6837POPC   PO425524   5.903  42.350   9.153
 6837POPC   GL125525   5.855  42.341   8.853
 6837POPC   GL225526   5.745  42.293   8.853
 6837POPC   C1A25527   5.855  42.371   8.553
 6837POPC   D2A25528   5.863  42.369   8.253
 6837POPC   C3A25529   5.851  42.353   7.953
 6837POPC   C4A25530   5.847  42.334   7.653
 6837POPC   C1B25531   5.644  42.219   8.553
 6837POPC   C2B25532   5.623  42.204   8.253
 6837POPC   C3B25533   5.630  42.228   7.953
 6837POPC   C4B25534   5.619  42.171   7.653
 6838POPC   NC325535  29.933  17.502   9.453
 6838POPC   PO425536  29.906  17.531   9.153
 6838POPC   GL125537  29.924  17.513   8.853
 6838POPC   GL225538  29.932  17.427   8.853
 6838POPC   C1A25539  29.961  17.476   8.553
 6838POPC   D2A25540  29.959  17.547   8.253
 6838POPC   C3A25541  29.893  17.466   7.953
 6838POPC   C4A25542  29.928  17.476   7.653
 6838POPC   C1B25543  29.902  17.262   8.553
 6838POPC   C2B25544  29.888  17.235   8.253
 6838POPC   C3B25545  29.874  17.248   7.953
 6838POPC   C4B25546  29.903  17.269   7.653
 6839POPC   NC325547  24.527  40.794   9.453
 6839POPC   PO425548  24.455  40.831   9.153
 6839POPC   GL125549  24.486  40.791   8.853
 6839POPC   GL225550  24.378  40.786   8.853
 6839POPC   C1A25551  24.468  40.780   8.553
 6839POPC   D2A25552  24.531  40.807   8.253
 6839POPC   C3A25553  24.519  40.796   7.953
 6839POPC   C4A25554  24.474  40.812   7.653
 6839POPC   C1B25555  24.289  40.696   8.553
 6839POPC   C2B25556  24.215  40.735   8.253
 6839POPC   C3B25557  24.240  40.763   7.953
 6839POPC   C4B25558  24.239  40.697   7.653
 6840POPC   NC325559  20.659   5.085   9.453
 6840POPC   PO425560  20.588   5.051   9.153
 6840POPC   GL125561  20.653   5.061   8.853
 6840POPC   GL225562  20.645   5.190   8.853
 6840POPC   C1A25563  20.598   5.063   8.553
 6840POPC   D2A25564  20.627   5.135   8.253
 6840POPC   C3A25565  20.575   5.055   7.953
 6840POPC   C4A25566  20.632   5.113   7.653
 6840POPC   C1B25567  20.619   5.337   8.553
 6840POPC   C2B25568  20.663   5.319   8.253
 6840POPC   C3B25569  20.633   5.360   7.953
 6840POPC   C4B25570  20.616   5.334   7.653
 6841POPC   NC325571  14.424  25.229   9.453
 6841POPC   PO425572  14.377  25.226   9.153
 6841POPC   GL125573  14.417  25.230   8.853
 6841POPC   GL225574  14.495  25.388   8.853
 6841POPC   C1A25575  14.449  25.272   8.553
 6841POPC   D2A25576  14.387  25.269   8.253
 6841POPC   C3A25577  14.384  25.305   7.953
 6841POPC   C4A25578  14.361  25.301   7.653
 6841POPC   C1B25579  14.565  25.430   8.553
 6841POPC   C2B25580  14.529  25.481   8.253
 6841POPC   C3B25581  14.567  25.501   7.953
 6841POPC   C4B25582  14.565  25.511   7.653
 6842POPC   NC325583  29.137   8.960   9.453
 6842POPC   PO425584  29.138   8.987   9.153
 6842POPC   GL125585  29.161   8.944   8.853
 6842POPC   GL225586  29.306   8.923   8.853
 6842POPC   C1A25587  29.161   8.925   8.553
 6842POPC   D2A25588  29.130   9.003   8.253
 6842POPC   C3A25589  29.102   8.988   7.953
 6842POPC   C4A25590  29.192   8.951   7.653
 6842POPC   C1B25591  29.414   8.962   8.553
 6842POPC   C2B25592  29.407   8.937   8.253
 6842POPC   C3B25593  29.431   8.877   7.953
 6842POPC   C4B25594  29.372   8.903   7.653
 6843POPC   NC325595  19.823  31.495   9.453
 6843POPC   PO425596  19.876  31.442   9.153
 6843POPC   GL125597  19.833  31.425   8.853
 6843POPC   GL225598  19.714  31.485   8.853
 6843POPC   C1A25599  19.819  31.469   8.553
 6843POPC   D2A25600  19.843  31.521   8.253
 6843POPC   C3A25601  19.798  31.511   7.953
 6843POPC   C4A25602  19.859  31.474   7.653
 6843POPC   C1B25603  19.629  31.545   8.553
 6843POPC   C2B25604  19.602  31.491   8.253
 6843POPC   C3B25605  19.615  31.542   7.953
 6843POPC   C4B25606  19.591  31.466   7.653
 6844POPC   NC325607   4.312  29.132   9.453
 6844POPC   PO425608   4.346  29.143   9.153
 6844POPC   GL125609   4.282  29.194   8.853
 6844POPC   GL225610   4.411  29.190   8.853
 6844POPC   C1A25611   4.324  29.148   8.553
 6844POPC   D2A25612   4.270  29.139   8.253
 6844POPC   C3A25613   4.346  29.130   7.953
 6844POPC   C4A25614   4.289  29.107   7.653
 6844POPC   C1B25615   4.510  29.297   8.553
 6844POPC   C2B25616   4.527  29.302   8.253
 6844POPC   C3B25617   4.533  29.287   7.953
 6844POPC   C4B25618   4.489  29.290   7.653
 6845POPC   NC325619  23.689  40.033   9.453
 6845POPC   PO425620  23.738  40.040   9.153
 6845POPC   GL125621  23.746  40.033   8.853
 6845POPC   GL225622  23.710  39.846   8.853
 6845POPC   C1A25623  23.729  39.988   8.553
 6845POPC   D2A25624  23.746  39.986   8.253
 6845POPC   C3A25625  23.743  40.054   7.953
 6845POPC   C4A25626  23.755  40.037   7.653
 6845POPC   C1B25627  23.771  39.785   8.553
 6845POPC   C2B25628  23.785  39.742   8.253
 6845POPC   C3B25629  23.789  39.808   7.953
 6845POPC   C4B25630  23.813  39.765   7.653
 6846POPC   NC325631  21.395  23.669   9.453
 6846POPC   PO425632  21.431  23.711   9.153
 6846POPC   GL125633  21.345  23.693   8.853
 6846POPC   GL225634  21.541  23.630   8.853
 6846POPC   C1A25635  21.392  23.724   8.553
 6846POPC   D2A25636  21.364  23.759   8.253
 6846POPC   C3A25637  21.418  23.754   7.953
 6846POPC   C4A25638  21.417  23.714   7.653
 6846POPC   C1B25639  21.589  23.645   8.553
 6846POPC   C2B25640  21.601  23.677   8.253
 6846POPC   C3B25641  21.594  23.592   7.953
 6846POPC   C4B25642  21.591  23.592   7.653
 6847POPC   NC325643  37.656  30.680   9.453
 6847POPC   PO425644  37.637  30.723   9.153
 6847POPC   GL125645  37.723  30.725   8.853
 6847POPC   GL225646  37.705  30.617   8.853
 6847POPC   C1A25647  37.659  30.726   8.553
 6847POPC   D2A25648  37.652  30.730   8.253
 6847POPC   C3A25649  37.631  30.678   7.953
 6847POPC   C4A25650  37.664  30.655   7.653
 6847POPC   C1B25651  37.650  30.433   8.553
 6847POPC   C2B25652  37.705  30.465   8.253
 6847POPC   C3B25653  37.657  30.434   7.953
 6847POPC   C4B25654  37.613  30.452   7.653
 6848POPC   NC325655  26.085  15.178   9.453
 6848POPC   PO425656  26.016  15.164   9.153
 6848POPC   GL125657  26.011  15.219   8.853
 6848POPC   GL225658  26.097  15.018   8.853
 6848POPC   C1A25659  26.026  15.163   8.553
 6848POPC   D2A25660  26.064  15.132   8.253
 6848POPC   C3A25661  26.079  15.188   7.953
 6848POPC   C4A25662  26.049  15.215   7.653
 6848POPC   C1B25663  26.145  14.958   8.553
 6848POPC   C2B25664  26.147  14.959   8.253
 6848POPC   C3B25665  26.062  14.986   7.953
 6848POPC   C4B25666  26.091  14.919   7.653
 6849POPC   NC325667  11.344  12.819   9.453
 6849POPC   PO425668  11.255  12.891   9.153
 6849POPC   GL125669  11.317  12.834   8.853
 6849POPC   GL225670  11.169  12.838   8.853
 6849POPC   C1A25671  11.288  12.810   8.553
 6849POPC   D2A25672  11.296  12.828   8.253
 6849POPC   C3A25673  11.347  12.880   7.953
 6849POPC   C4A25674  11.297  12.812   7.653
 6849POPC   C1B25675  11.070  12.785   8.553
 6849POPC   C2B25676  11.089  12.789   8.253
 6849POPC   C3B25677  11.020  12.826   7.953
 6849POPC   C4B25678  11.062  12.790   7.653
 6850POPC   NC325679  15.995  22.953   9.453
 6850POPC   PO425680  15.947  22.988   9.153
 6850POPC   GL125681  15.920  22.955   8.853
 6850POPC   GL225682  16.025  22.870   8.853
 6850POPC   C1A25683  15.992  22.937   8.553
 6850POPC   D2A25684  15.943  22.923   8.253
 6850POPC   C3A25685  15.909  22.897   7.953
 6850POPC   C4A25686  15.959  22.972   7.653
 6850POPC   C1B25687  16.201  22.828   8.553
 6850POPC   C2B25688  16.189  22.810   8.253
 6850POPC   C3B25689  16.220  22.858   7.953
 6850POPC   C4B25690  16.201  22.819   7.653
 6851POPC   NC325691  44.673  27.600   9.453
 6851POPC   PO425692  44.700  27.562   9.153
 6851POPC   GL125693  44.627  27.606   8.853
 6851POPC   GL225694  44.490  27.644   8.853
 6851POPC   C1A25695  44.620  27.623   8.553
 6851POPC   D2A25696  44.700  27.574   8.253
 6851POPC   C3A25697  44.676  27.557   7.953
 6851POPC   C4A25698  44.626  27.548   7.653
 6851POPC   C1B25699  44.384  27.617   8.553
 6851POPC   C2B25700  44.425  27.651   8.253
 6851POPC   C3B25701  44.402  27.582   7.953
 6851POPC   C4B25702  44.439  27.640   7.653
 6852POPC   NC325703   5.107  44.666   9.453
 6852POPC   PO425704   5.080  44.684   9.153
 6852POPC   GL125705   5.130  44.631   8.853
 6852POPC   GL225706   5.160  44.826   8.853
 6852POPC   C1A25707   5.125  44.677   8.553
 6852POPC   D2A25708   5.127  44.701   8.253
 6852POPC   C3A25709   5.112  44.659   7.953
 6852POPC   C4A25710   5.137  44.694   7.653
 6852POPC   C1B25711   5.168  44.879   8.553
 6852POPC   C2B25712   5.090  44.871   8.253
 6852POPC   C3B25713   5.172  44.928   7.953
 6852POPC   C4B25714   5.100  44.949   7.653
 6853POPC   NC325715  29.170  21.433   9.453
 6853POPC   PO425716  29.106  21.414   9.153
 6853POPC   GL125717  29.147  21.371   8.853
 6853POPC   GL225718  29.151  21.269   8.853
 6853POPC   C1A25719  29.097  21.428   8.553
 6853POPC   D2A25720  29.189  21.379   8.253
 6853POPC   C3A25721  29.102  21.346   7.953
 6853POPC   C4A25722  29.162  21.346   7.653
 6853POPC   C1B25723  29.126  21.181   8.553
 6853POPC   C2B25724  29.055  21.153   8.253
 6853POPC   C3B25725  29.131  21.140   7.953
 6853POPC   C4B25726  29.116  21.168   7.653
 6854POPC   NC325727  28.390  22.137   9.453
 6854POPC   PO425728  28.367  22.184   9.153
 6854POPC   GL125729  28.407  22.142   8.853
 6854POPC   GL225730  28.223  22.053   8.853
 6854POPC   C1A25731  28.356  22.120   8.553
 6854POPC   D2A25732  28.381  22.206   8.253
 6854POPC   C3A25733  28.323  22.192   7.953
 6854POPC   C4A25734  28.399  22.208   7.653
 6854POPC   C1B25735  28.114  22.049   8.553
 6854POPC   C2B25736  28.127  22.054   8.253
 6854POPC   C3B25737  28.189  21.986   7.953
 6854POPC   C4B25738  28.142  22.005   7.653
 6855POPC   NC325739   9.730  36.871   9.453
 6855POPC   PO425740   9.787  36.862   9.153
 6855POPC   GL125741   9.769  36.951   8.853
 6855POPC   GL225742   9.841  36.801   8.853
 6855POPC   C1A25743   9.762  36.947   8.553
 6855POPC   D2A25744   9.790  36.936   8.253
 6855POPC   C3A25745   9.752  36.858   7.953
 6855POPC   C4A25746   9.757  36.885   7.653
 6855POPC   C1B25747   9.893  36.677   8.553
 6855POPC   C2B25748   9.885  36.715   8.253
 6855POPC   C3B25749   9.861  36.726   7.953
 6855POPC   C4B25750   9.839  36.736   7.653
 6856POPC   NC325751  15.182  19.095   9.453
 6856POPC   PO425752  15.196  19.023   9.153
 6856POPC   GL125753  15.176  19.083   8.853
 6856POPC   GL225754  15.210  18.938   8.853
 6856POPC   C1A25755  15.190  19.067   8.553
 6856POPC   D2A25756  15.199  19.073   8.253
 6856POPC   C3A25757  15.136  19.089   7.953
 6856POPC   C4A25758  15.131  19.092   7.653
 6856POPC   C1B25759  15.320  18.896   8.553
 6856POPC   C2B25760  15.284  18.866   8.253
 6856POPC   C3B25761  15.287  18.866   7.953
 6856POPC   C4B25762  15.282  18.892   7.653
 6857POPC   NC325763   2.785  22.168   9.453
 6857POPC   PO425764   2.800  22.202   9.153
 6857POPC   GL125765   2.779  22.162   8.853
 6857POPC   GL225766   2.681  22.243   8.853
 6857POPC   C1A25767   2.717  22.210   8.553
 6857POPC   D2A25768   2.791  22.185   8.253
 6857POPC   C3A25769   2.750  22.149   7.953
 6857POPC   C4A25770   2.745  22.138   7.653
 6857POPC   C1B25771   2.538  22.274   8.553
 6857POPC   C2B25772   2.511  22.253   8.253
 6857POPC   C3B25773   2.517  22.290   7.953
 6857POPC   C4B25774   2.486  22.298   7.653
 6858POPC   NC325775  12.077  34.555   9.453
 6858POPC   PO425776  12.038  34.614   9.153
 6858POPC   GL125777  12.053  34.549   8.853
 6858POPC   GL225778  12.179  34.609   8.853
 6858POPC   C1A25779  12.081  34.614   8.553
 6858POPC   D2A25780  12.118  34.542   8.253
 6858POPC   C3A25781  12.084  34.603   7.953
 6858POPC   C4A25782  12.042  34.588   7.653
 6858POPC   C1B25783  12.356  34.600   8.553
 6858POPC   C2B25784  12.314  34.613   8.253
 6858POPC   C3B25785  12.325  34.619   7.953
 6858POPC   C4B25786  12.301  34.635   7.653
 6859POPC   NC325787  27.619  36.092   9.453
 6859POPC   PO425788  27.566  36.131   9.153
 6859POPC   GL125789  27.640  36.109   8.853
 6859POPC   GL225790  27.499  36.135   8.853
 6859POPC   C1A25791  27.612  36.129   8.553
 6859POPC   D2A25792  27.561  36.173   8.253
 6859POPC   C3A25793  27.572  36.165   7.953
 6859POPC   C4A25794  27.575  36.122   7.653
 6859POPC   C1B25795  27.333  36.234   8.553
 6859POPC   C2B25796  27.320  36.174   8.253
 6859POPC   C3B25797  27.396  36.216   7.953
 6859POPC   C4B25798  27.324  36.219   7.653
 6860POPC   NC325799  38.480  25.233   9.453
 6860POPC   PO425800  38.437  25.299   9.153
 6860POPC   GL125801  38.423  25.272   8.853
 6860POPC   GL225802  38.391  25.392   8.853
 6860POPC   C1A25803  38.437  25.260   8.553
 6860POPC   D2A25804  38.470  25.258   8.253
 6860POPC   C3A25805  38.496  25.294   7.953
 6860POPC   C4A25806  38.478  25.244   7.653
 6860POPC   C1B25807  38.327  25.450   8.553
 6860POPC   C2B25808  38.324  25.538   8.253
 6860POPC   C3B25809  38.325  25.520   7.953
 6860POPC   C4B25810  38.316  25.508   7.653
 6861POPC   NC325811   4.341   3.503   9.453
 6861POPC   PO425812   4.323   3.493   9.153
 6861POPC   GL125813   4.316   3.566   8.853
 6861POPC   GL225814   4.202   3.567   8.853
 6861POPC   C1A25815   4.339   3.526   8.553
 6861POPC   D2A25816   4.293   3.528   8.253
 6861POPC   C3A25817   4.358   3.564   7.953
 6861POPC   C4A25818   4.363   3.572   7.653
 6861POPC   C1B25819   4.059   3.643   8.553
 6861POPC   C2B25820   4.127   3.679   8.253
 6861POPC   C3B25821   4.067   3.610   7.953
 6861POPC   C4B25822   4.044   3.663   7.653
 6862POPC   NC325823  13.614  31.462   9.453
 6862POPC   PO425824  13.614  31.512   9.153
 6862POPC   GL125825  13.645  31.488   8.853
 6862POPC   GL225826  13.550  31.389   8.853
 6862POPC   C1A25827  13.623  31.492   8.553
 6862POPC   D2A25828  13.658  31.489   8.253
 6862POPC   C3A25829  13.643  31.520   7.953
 6862POPC   C4A25830  13.630  31.501   7.653
 6862POPC   C1B25831  13.610  31.214   8.553
 6862POPC   C2B25832  13.551  31.221   8.253
 6862POPC   C3B25833  13.541  31.232   7.953
 6862POPC   C4B25834  13.528  31.242   7.653
 6863POPC   NC325835  15.963   1.953   9.453
 6863POPC   PO425836  15.996   1.974   9.153
 6863POPC   GL125837  15.985   1.995   8.853
 6863POPC   GL225838  15.925   2.138   8.853
 6863POPC   C1A25839  15.989   1.941   8.553
 6863POPC   D2A25840  15.932   2.036   8.253
 6863POPC   C3A25841  15.910   2.035   7.953
 6863POPC   C4A25842  15.999   1.994   7.653
 6863POPC   C1B25843  15.877   2.210   8.553
 6863POPC   C2B25844  15.862   2.166   8.253
 6863POPC   C3B25845  15.841   2.245   7.953
 6863POPC   C4B25846  15.842   2.179   7.653
 6864POPC   NC325847   0.390   0.457   9.453
 6864POPC   PO425848   0.417   0.399   9.153
 6864POPC   GL125849   0.441   0.424   8.853
 6864POPC   GL225850   0.313   0.448   8.853
 6864POPC   C1A25851   0.452   0.404   8.553
 6864POPC   D2A25852   0.417   0.390   8.253
 6864POPC   C3A25853   0.481   0.401   7.953
 6864POPC   C4A25854   0.452   0.425   7.653
 6864POPC   C1B25855   0.235   0.508   8.553
 6864POPC   C2B25856   0.189   0.543   8.253
 6864POPC   C3B25857   0.165   0.527   7.953
 6864POPC   C4B25858   0.241   0.544   7.653
 6865POPC   NC325859  40.824  41.579   9.453
 6865POPC   PO425860  40.756  41.601   9.153
 6865POPC   GL125861  40.764  41.549   8.853
 6865POPC   GL225862  40.903  41.625   8.853
 6865POPC   C1A25863  40.762  41.514   8.553
 6865POPC   D2A25864  40.807  41.588   8.253
 6865POPC   C3A25865  40.770  41.548   7.953
 6865POPC   C4A25866  40.786  41.588   7.653
 6865POPC   C1B25867  40.941  41.713   8.553
 6865POPC   C2B25868  40.975  41.734   8.253
 6865POPC   C3B25869  40.993  41.696   7.953
 6865POPC   C4B25870  40.994  41.767   7.653
 6866POPC   NC325871  17.515  19.807   9.453
 6866POPC   PO425872  17.471  19.803   9.153
 6866POPC   GL125873  17.466  19.822   8.853
 6866POPC   GL225874  17.420  19.813   8.853
 6866POPC   C1A25875  17.502  19.837   8.553
 6866POPC   D2A25876  17.534  19.833   8.253
 6866POPC   C3A25877  17.480  19.786   7.953
 6866POPC   C4A25878  17.518  19.856   7.653
 6866POPC   C1B25879  17.233  19.820   8.553
 6866POPC   C2B25880  17.250  19.768   8.253
 6866POPC   C3B25881  17.266  19.805   7.953
 6866POPC   C4B25882  17.215  19.763   7.653
 6867POPC   NC325883  27.585  19.884   9.453
 6867POPC   PO425884  27.620  19.884   9.153
 6867POPC   GL125885  27.563  19.852   8.853
 6867POPC   GL225886  27.660  19.768   8.853
 6867POPC   C1A25887  27.582  19.822   8.553
 6867POPC   D2A25888  27.640  19.876   8.253
 6867POPC   C3A25889  27.610  19.787   7.953
 6867POPC   C4A25890  27.631  19.852   7.653
 6867POPC   C1B25891  27.710  19.613   8.553
 6867POPC   C2B25892  27.692  19.654   8.253
 6867POPC   C3B25893  27.724  19.635   7.953
 6867POPC   C4B25894  27.757  19.632   7.653
 6868POPC   NC325895  15.972  36.952   9.453
 6868POPC   PO425896  15.938  36.883   9.153
 6868POPC   GL125897  15.954  36.884   8.853
 6868POPC   GL225898  15.885  36.759   8.853
 6868POPC   C1A25899  16.002  36.867   8.553
 6868POPC   D2A25900  15.928  36.894   8.253
 6868POPC   C3A25901  15.953  36.898   7.953
 6868POPC   C4A25902  15.965  36.860   7.653
 6868POPC   C1B25903  15.852  36.703   8.553
 6868POPC   C2B25904  15.801  36.653   8.253
 6868POPC   C3B25905  15.817  36.664   7.953
 6868POPC   C4B25906  15.771  36.672   7.653
 6869POPC   NC325907  15.175  25.253   9.453
 6869POPC   PO425908  15.229  25.295   9.153
 6869POPC   GL125909  15.182  25.263   8.853
 6869POPC   GL225910  15.323  25.260   8.853
 6869POPC   C1A25911  15.163  25.247   8.553
 6869POPC   D2A25912  15.227  25.225   8.253
 6869POPC   C3A25913  15.169  25.281   7.953
 6869POPC   C4A25914  15.225  25.247   7.653
 6869POPC   C1B25915  15.461  25.188   8.553
 6869POPC   C2B25916  15.412  25.233   8.253
 6869POPC   C3B25917  15.394  25.252   7.953
 6869POPC   C4B25918  15.412  25.258   7.653
 6870POPC   NC325919  27.557   6.692   9.453
 6870POPC   PO425920  27.559   6.667   9.153
 6870POPC   GL125921  27.601   6.650   8.853
 6870POPC   GL225922  27.661   6.736   8.853
 6870POPC   C1A25923  27.640   6.641   8.553
 6870POPC   D2A25924  27.617   6.673   8.253
 6870POPC   C3A25925  27.594   6.640   7.953
 6870POPC   C4A25926  27.617   6.678   7.653
 6870POPC   C1B25927  27.795   6.736   8.553
 6870POPC   C2B25928  27.838   6.741   8.253
 6870POPC   C3B25929  27.797   6.757   7.953
 6870POPC   C4B25930  27.854   6.805   7.653
 6871POPC   NC325931  36.164  17.536   9.453
 6871POPC   PO425932  36.083  17.530   9.153
 6871POPC   GL125933  36.101  17.478   8.853
 6871POPC   GL225934  36.097  17.613   8.853
 6871POPC   C1A25935  36.101  17.547   8.553
 6871POPC   D2A25936  36.099  17.547   8.253
 6871POPC   C3A25937  36.128  17.459   7.953
 6871POPC   C4A25938  36.171  17.547   7.653
 6871POPC   C1B25939  36.152  17.727   8.553
 6871POPC   C2B25940  36.144  17.773   8.253
 6871POPC   C3B25941  36.102  17.783   7.953
 6871POPC   C4B25942  36.189  17.744   7.653
 6872POPC   NC325943  23.689  19.068   9.453
 6872POPC   PO425944  23.732  19.067   9.153
 6872POPC   GL125945  23.679  19.095   8.853
 6872POPC   GL225946  23.792  19.141   8.853
 6872POPC   C1A25947  23.712  19.064   8.553
 6872POPC   D2A25948  23.723  19.072   8.253
 6872POPC   C3A25949  23.690  19.009   7.953
 6872POPC   C4A25950  23.673  19.090   7.653
 6872POPC   C1B25951  23.898  19.268   8.553
 6872POPC   C2B25952  23.821  19.229   8.253
 6872POPC   C3B25953  23.882  19.288   7.953
 6872POPC   C4B25954  23.820  19.309   7.653
 6873POPC   NC325955  36.167  32.238   9.453
 6873POPC   PO425956  36.105  32.235   9.153
 6873POPC   GL125957  36.160  32.286   8.853
 6873POPC   GL225958  36.020  32.287   8.853
 6873POPC   C1A25959  36.084  32.199   8.553
 6873POPC   D2A25960  36.170  32.212   8.253
 6873POPC   C3A25961  36.155  32.284   7.953
 6873POPC   C4A25962  36.109  32.228   7.653
 6873POPC   C1B25963  35.869  32.356   8.553
 6873POPC   C2B25964  35.880  32.284   8.253
 6873POPC   C3B25965  35.892  32.279   7.953
 6873POPC   C4B25966  35.880  32.354   7.653
 6874POPC   NC325967  31.438  22.143   9.453
 6874POPC   PO425968  31.495  22.200   9.153
 6874POPC   GL125969  31.480  22.115   8.853
 6874POPC   GL225970  31.433  22.228   8.853
 6874POPC   C1A25971  31.509  22.152   8.553
 6874POPC   D2A25972  31.446  22.150   8.253
 6874POPC   C3A25973  31.514  22.183   7.953
 6874POPC   C4A25974  31.450  22.127   7.653
 6874POPC   C1B25975  31.356  22.382   8.553
 6874POPC   C2B25976  31.379  22.381   8.253
 6874POPC   C3B25977  31.360  22.418   7.953
 6874POPC   C4B25978  31.368  22.409   7.653
 6875POPC   NC325979  22.900  26.778   9.453
 6875POPC   PO425980  22.910  26.831   9.153
 6875POPC   GL125981  22.913  26.843   8.853
 6875POPC   GL225982  22.996  26.772   8.853
 6875POPC   C1A25983  22.954  26.851   8.553
 6875POPC   D2A25984  22.972  26.784   8.253
 6875POPC   C3A25985  22.936  26.852   7.953
 6875POPC   C4A25986  22.975  26.772   7.653
 6875POPC   C1B25987  23.167  26.652   8.553
 6875POPC   C2B25988  23.134  26.679   8.253
 6875POPC   C3B25989  23.143  26.660   7.953
 6875POPC   C4B25990  23.106  26.694   7.653
 6876POPC   NC325991  40.826  34.545   9.453
 6876POPC   PO425992  40.822  34.583   9.153
 6876POPC   GL125993  40.803  34.603   8.853
 6876POPC   GL225994  40.885  34.567   8.853
 6876POPC   C1A25995  40.817  34.620   8.553
 6876POPC   D2A25996  40.830  34.620   8.253
 6876POPC   C3A25997  40.753  34.601   7.953
 6876POPC   C4A25998  40.738  34.555   7.653
 6876POPC   C1B25999  41.045  34.675   8.553
 6876POPC   C2B26000  41.063  34.635   8.253
 6876POPC   C3B26001  41.054  34.643   7.953
 6876POPC   C4B26002  41.041  34.609   7.653
 6877POPC   NC326003   1.186  28.357   9.453
 6877POPC   PO426004   1.186  28.361   9.153
 6877POPC   GL126005   1.195  28.396   8.853
 6877POPC   GL226006   1.197  28.477   8.853
 6877POPC   C1A26007   1.182  28.334   8.553
 6877POPC   D2A26008   1.197  28.351   8.253
 6877POPC   C3A26009   1.181  28.367   7.953
 6877POPC   C4A26010   1.204  28.416   7.653
 6877POPC   C1B26011   1.184  28.623   8.553
 6877POPC   C2B26012   1.195  28.571   8.253
 6877POPC   C3B26013   1.224  28.641   7.953
 6877POPC   C4B26014   1.208  28.660   7.653
 6878POPC   NC326015  43.838  30.659   9.453
 6878POPC   PO426016  43.911  30.708   9.153
 6878POPC   GL126017  43.844  30.727   8.853
 6878POPC   GL226018  43.853  30.756   8.853
 6878POPC   C1A26019  43.911  30.710   8.553
 6878POPC   D2A26020  43.843  30.731   8.253
 6878POPC   C3A26021  43.913  30.653   7.953
 6878POPC   C4A26022  43.864  30.729   7.653
 6878POPC   C1B26023  43.698  30.863   8.553
 6878POPC   C2B26024  43.684  30.939   8.253
 6878POPC   C3B26025  43.763  30.919   7.953
 6878POPC   C4B26026  43.697  30.884   7.653
 6879POPC   NC326027  11.274  43.080   9.453
 6879POPC   PO426028  11.328  43.065   9.153
 6879POPC   GL126029  11.345  43.097   8.853
 6879POPC   GL226030  11.263  43.218   8.853
 6879POPC   C1A26031  11.284  43.120   8.553
 6879POPC   D2A26032  11.287  43.097   8.253
 6879POPC   C3A26033  11.290  43.139   7.953
 6879POPC   C4A26034  11.261  43.071   7.653
 6879POPC   C1B26035  11.225  43.343   8.553
 6879POPC   C2B26036  11.261  43.314   8.253
 6879POPC   C3B26037  11.173  43.341   7.953
 6879POPC   C4B26038  11.266  43.317   7.653
 6880POPC   NC326039  22.925  11.325   9.453
 6880POPC   PO426040  22.910  11.271   9.153
 6880POPC   GL126041  22.919  11.332   8.853
 6880POPC   GL226042  23.045  11.325   8.853
 6880POPC   C1A26043  22.890  11.275   8.553
 6880POPC   D2A26044  22.979  11.286   8.253
 6880POPC   C3A26045  22.905  11.324   7.953
 6880POPC   C4A26046  22.894  11.288   7.653
 6880POPC   C1B26047  23.146  11.379   8.553
 6880POPC   C2B26048  23.193  11.385   8.253
 6880POPC   C3B26049  23.141  11.333   7.953
 6880POPC   C4B26050  23.156  11.343   7.653
 6881POPC   NC326051   2.747  24.519   9.453
 6881POPC   PO426052   2.781  24.472   9.153
 6881POPC   GL126053   2.737  24.489   8.853
 6881POPC   GL226054   2.628  24.364   8.853
 6881POPC   C1A26055   2.725  24.530   8.553
 6881POPC   D2A26056   2.769  24.515   8.253
 6881POPC   C3A26057   2.752  24.501   7.953
 6881POPC   C4A26058   2.761  24.497   7.653
 6881POPC   C1B26059   2.593  24.344   8.553
 6881POPC   C2B26060   2.590  24.290   8.253
 6881POPC   C3B26061   2.584  24.326   7.953
 6881POPC   C4B26062   2.539  24.342   7.653
 6882POPC   NC326063  32.990  12.808   9.453
 6882POPC   PO426064  33.035  12.804   9.153
 6882POPC   GL126065  33.005  12.828   8.853
 6882POPC   GL226066  33.145  12.921   8.853
 6882POPC   C1A26067  33.024  12.841   8.553
 6882POPC   D2A26068  33.073  12.841   8.253
 6882POPC   C3A26069  33.040  12.851   7.953
 6882POPC   C4A26070  33.036  12.833   7.653
 6882POPC   C1B26071  33.200  12.980   8.553
 6882POPC   C2B26072  33.194  12.988   8.253
 6882POPC   C3B26073  33.252  12.959   7.953
 6882POPC   C4B26074  33.225  12.951   7.653
 6883POPC   NC326075  43.109  12.089   9.453
 6883POPC   PO426076  43.119  12.030   9.153
 6883POPC   GL126077  43.085  12.096   8.853
 6883POPC   GL226078  43.225  12.017   8.853
 6883POPC   C1A26079  43.091  12.075   8.553
 6883POPC   D2A26080  43.124  12.121   8.253
 6883POPC   C3A26081  43.122  12.084   7.953
 6883POPC   C4A26082  43.141  12.108   7.653
 6883POPC   C1B26083  43.322  12.016   8.553
 6883POPC   C2B26084  43.382  12.060   8.253
 6883POPC   C3B26085  43.311  12.024   7.953
 6883POPC   C4B26086  43.315  12.022   7.653
 6884POPC   NC326087   6.627   9.015   9.453
 6884POPC   PO426088   6.623   8.975   9.153
 6884POPC   GL126089   6.667   8.986   8.853
 6884POPC   GL226090   6.659   9.111   8.853
 6884POPC   C1A26091   6.616   8.959   8.553
 6884POPC   D2A26092   6.673   8.985   8.253
 6884POPC   C3A26093   6.601   9.017   7.953
 6884POPC   C4A26094   6.675   8.953   7.653
 6884POPC   C1B26095   6.700   9.195   8.553
 6884POPC   C2B26096   6.657   9.253   8.253
 6884POPC   C3B26097   6.634   9.210   7.953
 6884POPC   C4B26098   6.661   9.260   7.653
 6885POPC   NC326099  28.400  12.033   9.453
 6885POPC   PO426100  28.407  12.036   9.153
 6885POPC   GL126101  28.380  12.040   8.853
 6885POPC   GL226102  28.303  12.002   8.853
 6885POPC   C1A26103  28.362  12.097   8.553
 6885POPC   D2A26104  28.349  12.108   8.253
 6885POPC   C3A26105  28.363  12.039   7.953
 6885POPC   C4A26106  28.322  12.030   7.653
 6885POPC   C1B26107  28.244  11.848   8.553
 6885POPC   C2B26108  28.245  11.892   8.253
 6885POPC   C3B26109  28.205  11.879   7.953
 6885POPC   C4B26110  28.243  11.876   7.653
 6886POPC   NC326111  31.455  20.592   9.453
 6886POPC   PO426112  31.436  20.577   9.153
 6886POPC   GL126113  31.491  20.607   8.853
 6886POPC   GL226114  31.566  20.662   8.853
 6886POPC   C1A26115  31.514  20.613   8.553
 6886POPC   D2A26116  31.451  20.613   8.253
 6886POPC   C3A26117  31.465  20.617   7.953
 6886POPC   C4A26118  31.425  20.623   7.653
 6886POPC   C1B26119  31.683  20.728   8.553
 6886POPC   C2B26120  31.734  20.769   8.253
 6886POPC   C3B26121  31.712  20.694   7.953
 6886POPC   C4B26122  31.694  20.732   7.653
 6887POPC   NC326123  37.723  36.886   9.453
 6887POPC   PO426124  37.716  36.922   9.153
 6887POPC   GL126125  37.701  36.927   8.853
 6887POPC   GL226126  37.582  36.960   8.853
 6887POPC   C1A26127  37.700  36.867   8.553
 6887POPC   D2A26128  37.677  36.864   8.253
 6887POPC   C3A26129  37.636  36.884   7.953
 6887POPC   C4A26130  37.649  36.902   7.653
 6887POPC   C1B26131  37.539  37.076   8.553
 6887POPC   C2B26132  37.484  37.045   8.253
 6887POPC   C3B26133  37.483  37.059   7.953
 6887POPC   C4B26134  37.549  37.125   7.653
 6888POPC   NC326135  27.584  42.324   9.453
 6888POPC   PO426136  27.642  42.340   9.153
 6888POPC   GL126137  27.596  42.291   8.853
 6888POPC   GL226138  27.509  42.458   8.853
 6888POPC   C1A26139  27.560  42.368   8.553
 6888POPC   D2A26140  27.543  42.315   8.253
 6888POPC   C3A26141  27.622  42.299   7.953
 6888POPC   C4A26142  27.562  42.289   7.653
 6888POPC   C1B26143  27.494  42.566   8.553
 6888POPC   C2B26144  27.490  42.527   8.253
 6888POPC   C3B26145  27.422  42.513   7.953
 6888POPC   C4B26146  27.462  42.534   7.653
 6889POPC   NC326147  33.029  43.914   9.453
 6889POPC   PO426148  32.983  43.908   9.153
 6889POPC   GL126149  32.995  43.878   8.853
 6889POPC   GL226150  33.102  43.791   8.853
 6889POPC   C1A26151  33.025  43.918   8.553
 6889POPC   D2A26152  33.045  43.845   8.253
 6889POPC   C3A26153  33.046  43.871   7.953
 6889POPC   C4A26154  32.990  43.914   7.653
 6889POPC   C1B26155  33.123  43.621   8.553
 6889POPC   C2B26156  33.063  43.639   8.253
 6889POPC   C3B26157  33.082  43.631   7.953
 6889POPC   C4B26158  33.154  43.611   7.653
 6890POPC   NC326159  43.120  35.323   9.453
 6890POPC   PO426160  43.092  35.350   9.153
 6890POPC   GL126161  43.108  35.397   8.853
 6890POPC   GL226162  43.097  35.476   8.853
 6890POPC   C1A26163  43.156  35.366   8.553
 6890POPC   D2A26164  43.106  35.400   8.253
 6890POPC   C3A26165  43.121  35.390   7.953
 6890POPC   C4A26166  43.089  35.380   7.653
 6890POPC   C1B26167  43.060  35.635   8.553
 6890POPC   C2B26168  43.118  35.625   8.253
 6890POPC   C3B26169  43.114  35.635   7.953
 6890POPC   C4B26170  43.059  35.569   7.653
 6891POPC   NC326171   8.971  39.237   9.453
 6891POPC   PO426172   8.945  39.228   9.153
 6891POPC   GL126173   8.974  39.200   8.853
 6891POPC   GL226174   8.895  39.239   8.853
 6891POPC   C1A26175   9.011  39.225   8.553
 6891POPC   D2A26176   8.958  39.201   8.253
 6891POPC   C3A26177   8.996  39.193   7.953
 6891POPC   C4A26178   8.958  39.264   7.653
 6891POPC   C1B26179   8.773  39.379   8.553
 6891POPC   C2B26180   8.736  39.301   8.253
 6891POPC   C3B26181   8.777  39.357   7.953
 6891POPC   C4B26182   8.782  39.361   7.653
 6892POPC   NC326183  43.103  43.841   9.453
 6892POPC   PO426184  43.072  43.839   9.153
 6892POPC   GL126185  43.092  43.874   8.853
 6892POPC   GL226186  43.048  43.921   8.853
 6892POPC   C1A26187  43.151  43.901   8.553
 6892POPC   D2A26188  43.114  43.925   8.253
 6892POPC   C3A26189  43.133  43.884   7.953
 6892POPC   C4A26190  43.063  43.863   7.653
 6892POPC   C1B26191  42.849  43.972   8.553
 6892POPC   C2B26192  42.924  44.038   8.253
 6892POPC   C3B26193  42.920  44.049   7.953
 6892POPC   C4B26194  42.893  44.014   7.653
 6893POPC   NC326195  15.141   6.604   9.453
 6893POPC   PO426196  15.168   6.601   9.153
 6893POPC   GL126197  15.187   6.624   8.853
 6893POPC   GL226198  15.099   6.727   8.853
 6893POPC   C1A26199  15.227   6.627   8.553
 6893POPC   D2A26200  15.191   6.622   8.253
 6893POPC   C3A26201  15.210   6.693   7.953
 6893POPC   C4A26202  15.209   6.615   7.653
 6893POPC   C1B26203  15.002   6.777   8.553
 6893POPC   C2B26204  15.003   6.759   8.253
 6893POPC   C3B26205  14.995   6.771   7.953
 6893POPC   C4B26206  14.988   6.741   7.653
 6894POPC   NC326207   5.126  19.852   9.453
 6894POPC   PO426208   5.062  19.818   9.153
 6894POPC   GL126209   5.113  19.808   8.853
 6894POPC   GL226210   5.081  19.968   8.853
 6894POPC   C1A26211   5.136  19.799   8.553
 6894POPC   D2A26212   5.143  19.791   8.253
 6894POPC   C3A26213   5.121  19.869   7.953
 6894POPC   C4A26214   5.046  19.859   7.653
 6894POPC   C1B26215   5.015  20.021   8.553
 6894POPC   C2B26216   4.978  20.108   8.253
 6894POPC   C3B26217   4.942  20.077   7.953
 6894POPC   C4B26218   4.985  20.070   7.653
 6895POPC   NC326219   9.006  43.936   9.453
 6895POPC   PO426220   9.020  43.854   9.153
 6895POPC   GL126221   8.986  43.933   8.853
 6895POPC   GL226222   8.821  43.961   8.853
 6895POPC   C1A26223   8.953  43.927   8.553
 6895POPC   D2A26224   8.981  43.842   8.253
 6895POPC   C3A26225   8.987  43.883   7.953
 6895POPC   C4A26226   9.003  43.922   7.653
 6895POPC   C1B26227   8.757  43.977   8.553
 6895POPC   C2B26228   8.774  43.982   8.253
 6895POPC   C3B26229   8.796  44.048   7.953
 6895POPC   C4B26230   8.700  44.043   7.653
 6896POPC   NC326231  32.240   9.006   9.453
 6896POPC   PO426232  32.226   8.966   9.153
 6896POPC   GL126233  32.230   9.009   8.853
 6896POPC   GL226234  32.135   8.891   8.853
 6896POPC   C1A26235  32.214   8.990   8.553
 6896POPC   D2A26236  32.202   8.953   8.253
 6896POPC   C3A26237  32.277   8.960   7.953
 6896POPC   C4A26238  32.208   8.943   7.653
 6896POPC   C1B26239  31.979   8.892   8.553
 6896POPC   C2B26240  32.030   8.875   8.253
 6896POPC   C3B26241  31.992   8.908   7.953
 6896POPC   C4B26242  31.993   8.865   7.653
 6897POPC   NC326243  44.630  44.630   9.453
 6897POPC   PO426244  44.673  44.688   9.153
 6897POPC   GL126245  44.627  44.657   8.853
 6897POPC   GL226246  44.622  44.746   8.853
 6897POPC   C1A26247  44.620  44.648   8.553
 6897POPC   D2A26248  44.658  44.676   8.253
 6897POPC   C3A26249  44.671  44.683   7.953
 6897POPC   C4A26250  44.656  44.653   7.653
 6897POPC   C1B26251  44.635  44.880   8.553
 6897POPC   C2B26252  44.656  44.878   8.253
 6897POPC   C3B26253  44.623  44.882   7.953
 6897POPC   C4B26254  44.653  44.890   7.653
 6898POPC   NC326255  11.290  12.061   9.453
 6898POPC   PO426256  11.262  12.094   9.153
 6898POPC   GL126257  11.293  12.032   8.853
 6898POPC   GL226258  11.298  12.193   8.853
 6898POPC   C1A26259  11.331  12.079   8.553
 6898POPC   D2A26260  11.348  12.053   8.253
 6898POPC   C3A26261  11.316  12.096   7.953
 6898POPC   C4A26262  11.267  12.052   7.653
 6898POPC   C1B26263  11.336  12.332   8.553
 6898POPC   C2B26264  11.281  12.312   8.253
 6898POPC   C3B26265  11.274  12.281   7.953
 6898POPC   C4B26266  11.290  12.328   7.653
 6899POPC   NC326267  29.878  31.474   9.453
 6899POPC   PO426268  29.915  31.511   9.153
 6899POPC   GL126269  29.914  31.506   8.853
 6899POPC   GL226270  29.823  31.367   8.853
 6899POPC   C1A26271  29.900  31.470   8.553
 6899POPC   D2A26272  29.901  31.474   8.253
 6899POPC   C3A26273  29.941  31.444   7.953
 6899POPC   C4A26274  29.918  31.455   7.653
 6899POPC   C1B26275  29.761  31.260   8.553
 6899POPC   C2B26276  29.791  31.319   8.253
 6899POPC   C3B26277  29.713  31.298   7.953
 6899POPC   C4B26278  29.707  31.287   7.653
 6900POPC   NC326279  31.488  17.497   9.453
 6900POPC   PO426280  31.519  17.514   9.153
 6900POPC   GL126281  31.432  17.499   8.853
 6900POPC   GL226282  31.607  17.479   8.853
 6900POPC   C1A26283  31.459  17.527   8.553
 6900POPC   D2A26284  31.479  17.484   8.253
 6900POPC   C3A26285  31.434  17.480   7.953
 6900POPC   C4A26286  31.495  17.548   7.653
 6900POPC   C1B26287  31.759  17.517   8.553
 6900POPC   C2B26288  31.752  17.491   8.253
 6900POPC   C3B26289  31.678  17.435   7.953
 6900POPC   C4B26290  31.735  17.486   7.653
 6901POPC   NC326291  20.599   5.835   9.453
 6901POPC   PO426292  20.578   5.886   9.153
 6901POPC   GL126293  20.634   5.905   8.853
 6901POPC   GL226294  20.722   5.858   8.853
 6901POPC   C1A26295  20.582   5.826   8.553
 6901POPC   D2A26296  20.584   5.900   8.253
 6901POPC   C3A26297  20.647   5.885   7.953
 6901POPC   C4A26298  20.622   5.829   7.653
 6901POPC   C1B26299  20.847   5.972   8.553
 6901POPC   C2B26300  20.866   5.900   8.253
 6901POPC   C3B26301  20.847   5.960   7.953
 6901POPC   C4B26302  20.861   5.961   7.653
 6902POPC   NC326303  12.078  23.755   9.453
 6902POPC   PO426304  12.061  23.715   9.153
 6902POPC   GL126305  12.065  23.664   8.853
 6902POPC   GL226306  12.128  23.817   8.853
 6902POPC   C1A26307  12.068  23.693   8.553
 6902POPC   D2A26308  12.065  23.665   8.253
 6902POPC   C3A26309  12.088  23.742   7.953
 6902POPC   C4A26310  12.087  23.732   7.653
 6902POPC   C1B26311  12.322  23.866   8.553
 6902POPC   C2B26312  12.293  23.822   8.253
 6902POPC   C3B26313  12.227  23.836   7.953
 6902POPC   C4B26314  12.266  23.888   7.653
 6903POPC   NC326315   3.547  26.798   9.453
 6903POPC   PO426316   3.547  26.830   9.153
 6903POPC   GL126317   3.571  26.786   8.853
 6903POPC   GL226318   3.534  26.948   8.853
 6903POPC   C1A26319   3.530  26.856   8.553
 6903POPC   D2A26320   3.524  26.816   8.253
 6903POPC   C3A26321   3.538  26.785   7.953
 6903POPC   C4A26322   3.568  26.798   7.653
 6903POPC   C1B26323   3.546  27.077   8.553
 6903POPC   C2B26324   3.549  27.088   8.253
 6903POPC   C3B26325   3.461  27.072   7.953
 6903POPC   C4B26326   3.537  27.063   7.653
 6904POPC   NC326327  19.024   7.400   9.453
 6904POPC   PO426328  19.096   7.470   9.153
 6904POPC   GL126329  19.076   7.405   8.853
 6904POPC   GL226330  19.215   7.410   8.853
 6904POPC   C1A26331  19.046   7.418   8.553
 6904POPC   D2A26332  19.051   7.383   8.253
 6904POPC   C3A26333  19.022   7.417   7.953
 6904POPC   C4A26334  19.054   7.465   7.653
 6904POPC   C1B26335  19.266   7.379   8.553
 6904POPC   C2B26336  19.303   7.403   8.253
 6904POPC   C3B26337  19.324   7.392   7.953
 6904POPC   C4B26338  19.270   7.396   7.653
 6905POPC   NC326339  15.151  22.186   9.453
 6905POPC   PO426340  15.224  22.175   9.153
 6905POPC   GL126341  15.176  22.205   8.853
 6905POPC   GL226342  15.020  22.100   8.853
 6905POPC   C1A26343  15.142  22.140   8.553
 6905POPC   D2A26344  15.227  22.165   8.253
 6905POPC   C3A26345  15.193  22.139   7.953
 6905POPC   C4A26346  15.133  22.165   7.653
 6905POPC   C1B26347  14.924  22.167   8.553
 6905POPC   C2B26348  14.915  22.127   8.253
 6905POPC   C3B26349  14.897  22.104   7.953
 6905POPC   C4B26350  14.981  22.137   7.653
 6906POPC   NC326351  25.262  43.085   9.453
 6906POPC   PO426352  25.226  43.115   9.153
 6906POPC   GL126353  25.227  43.152   8.853
 6906POPC   GL226354  25.296  43.239   8.853
 6906POPC   C1A26355  25.260  43.137   8.553
 6906POPC   D2A26356  25.267  43.144   8.253
 6906POPC   C3A26357  25.227  43.160   7.953
 6906POPC   C4A26358  25.248  43.099   7.653
 6906POPC   C1B26359  25.345  43.324   8.553
 6906POPC   C2B26360  25.371  43.365   8.253
 6906POPC   C3B26361  25.411  43.301   7.953
 6906POPC   C4B26362  25.405  43.373   7.653
 6907POPC   NC326363  34.563   5.066   9.453
 6907POPC   PO426364  34.599   5.054   9.153
 6907POPC   GL126365  34.603   5.085   8.853
 6907POPC   GL226366  34.437   5.137   8.853
 6907POPC   C1A26367  34.610   5.108   8.553
 6907POPC   D2A26368  34.611   5.117   8.253
 6907POPC   C3A26369  34.566   5.079   7.953
 6907POPC   C4A26370  34.621   5.095   7.653
 6907POPC   C1B26371  34.300   5.205   8.553
 6907POPC   C2B26372  34.333   5.133   8.253
 6907POPC   C3B26373  34.346   5.219   7.953
 6907POPC   C4B26374  34.364   5.194   7.653
 6908POPC   NC326375  36.116  30.690   9.453
 6908POPC   PO426376  36.163  30.669   9.153
 6908POPC   GL126377  36.130  30.693   8.853
 6908POPC   GL226378  36.117  30.763   8.853
 6908POPC   C1A26379  36.086  30.709   8.553
 6908POPC   D2A26380  36.080  30.739   8.253
 6908POPC   C3A26381  36.082  30.741   7.953
 6908POPC   C4A26382  36.151  30.708   7.653
 6908POPC   C1B26383  35.997  30.976   8.553
 6908POPC   C2B26384  36.049  30.962   8.253
 6908POPC   C3B26385  35.989  30.972   7.953
 6908POPC   C4B26386  35.997  30.918   7.653
 6909POPC   NC326387  16.694  43.903   9.453
 6909POPC   PO426388  16.694  43.881   9.153
 6909POPC   GL126389  16.752  43.903   8.853
 6909POPC   GL226390  16.889  43.859   8.853
 6909POPC   C1A26391  16.722  43.926   8.553
 6909POPC   D2A26392  16.730  43.868   8.253
 6909POPC   C3A26393  16.779  43.904   7.953
 6909POPC   C4A26394  16.682  43.916   7.653
 6909POPC   C1B26395  16.956  43.977   8.553
 6909POPC   C2B26396  17.026  43.958   8.253
 6909POPC   C3B26397  16.936  43.910   7.953
 6909POPC   C4B26398  17.005  43.898   7.653
 6910POPC   NC326399  37.720  21.404   9.453
 6910POPC   PO426400  37.728  21.360   9.153
 6910POPC   GL126401  37.652  21.340   8.853
 6910POPC   GL226402  37.595  21.468   8.853
 6910POPC   C1A26403  37.633  21.396   8.553
 6910POPC   D2A26404  37.714  21.338   8.253
 6910POPC   C3A26405  37.700  21.409   7.953
 6910POPC   C4A26406  37.683  21.353   7.653
 6910POPC   C1B26407  37.417  21.442   8.553
 6910POPC   C2B26408  37.481  21.439   8.253
 6910POPC   C3B26409  37.486  21.507   7.953
 6910POPC   C4B26410  37.401  21.493   7.653
 6911POPC   NC326411   8.956  13.633   9.453
 6911POPC   PO426412   8.942  13.589   9.153
 6911POPC   GL126413   8.983  13.588   8.853
 6911POPC   GL226414   8.871  13.698   8.853
 6911POPC   C1A26415   8.974  13.673   8.553
 6911POPC   D2A26416   8.993  13.676   8.253
 6911POPC   C3A26417   8.969  13.589   7.953
 6911POPC   C4A26418   9.009  13.636   7.653
 6911POPC   C1B26419   8.767  13.772   8.553
 6911POPC   C2B26420   8.746  13.757   8.253
 6911POPC   C3B26421   8.772  13.795   7.953
 6911POPC   C4B26422   8.814  13.812   7.653
 6912POPC   NC326423  39.981  35.359   9.453
 6912POPC   PO426424  39.997  35.303   9.153
 6912POPC   GL126425  39.961  35.398   8.853
 6912POPC   GL226426  40.014  35.257   8.853
 6912POPC   C1A26427  39.998  35.318   8.553
 6912POPC   D2A26428  40.043  35.312   8.253
 6912POPC   C3A26429  40.004  35.338   7.953
 6912POPC   C4A26430  39.996  35.373   7.653
 6912POPC   C1B26431  40.117  35.118   8.553
 6912POPC   C2B26432  40.081  35.082   8.253
 6912POPC   C3B26433  40.110  35.159   7.953
 6912POPC   C4B26434  40.071  35.138   7.653
 6913POPC   NC326435  19.076  18.269   9.453
 6913POPC   PO426436  19.030  18.323   9.153
 6913POPC   GL126437  19.021  18.234   8.853
 6913POPC   GL226438  18.954  18.218   8.853
 6913POPC   C1A26439  19.089  18.257   8.553
 6913POPC   D2A26440  19.090  18.280   8.253
 6913POPC   C3A26441  19.057  18.268   7.953
 6913POPC   C4A26442  19.027  18.304   7.653
 6913POPC   C1B26443  18.799  18.228   8.553
 6913POPC   C2B26444  18.875  18.157   8.253
 6913POPC   C3B26445  18.798  18.217   7.953
 6913POPC   C4B26446  18.810  18.194   7.653
 6914POPC   NC326447  12.119   3.519   9.453
 6914POPC   PO426448  12.047   3.509   9.153
 6914POPC   GL126449  12.086   3.580   8.853
 6914POPC   GL226450  12.237   3.585   8.853
 6914POPC   C1A26451  12.117   3.536   8.553
 6914POPC   D2A26452  12.027   3.532   8.253
 6914POPC   C3A26453  12.083   3.560   7.953
 6914POPC   C4A26454  12.088   3.589   7.653
 6914POPC   C1B26455  12.291   3.602   8.553
 6914POPC   C2B26456  12.286   3.601   8.253
 6914POPC   C3B26457  12.299   3.643   7.953
 6914POPC   C4B26458  12.311   3.642   7.653
 6915POPC   NC326459   7.408  22.138   9.453
 6915POPC   PO426460   7.418  22.169   9.153
 6915POPC   GL126461   7.450  22.173   8.853
 6915POPC   GL226462   7.378  22.287   8.853
 6915POPC   C1A26463   7.462  22.209   8.553
 6915POPC   D2A26464   7.419  22.197   8.253
 6915POPC   C3A26465   7.398  22.143   7.953
 6915POPC   C4A26466   7.442  22.159   7.653
 6915POPC   C1B26467   7.356  22.405   8.553
 6915POPC   C2B26468   7.389  22.386   8.253
 6915POPC   C3B26469   7.389  22.425   7.953
 6915POPC   C4B26470   7.401  22.394   7.653
 6916POPC   NC326471  33.816  26.059   9.453
 6916POPC   PO426472  33.769  26.071   9.153
 6916POPC   GL126473  33.830  26.079   8.853
 6916POPC   GL226474  33.815  26.206   8.853
 6916POPC   C1A26475  33.795  26.012   8.553
 6916POPC   D2A26476  33.792  26.032   8.253
 6916POPC   C3A26477  33.846  26.038   7.953
 6916POPC   C4A26478  33.830  26.084   7.653
 6916POPC   C1B26479  33.763  26.284   8.553
 6916POPC   C2B26480  33.776  26.332   8.253
 6916POPC   C3B26481  33.734  26.270   7.953
 6916POPC   C4B26482  33.737  26.309   7.653
 6917POPC   NC326483   2.740  42.346   9.453
 6917POPC   PO426484   2.737  42.369   9.153
 6917POPC   GL126485   2.729  42.337   8.853
 6917POPC   GL226486   2.845  42.215   8.853
 6917POPC   C1A26487   2.763  42.382   8.553
 6917POPC   D2A26488   2.803  42.373   8.253
 6917POPC   C3A26489   2.762  42.352   7.953
 6917POPC   C4A26490   2.746  42.331   7.653
 6917POPC   C1B26491   2.885  42.136   8.553
 6917POPC   C2B26492   2.944  42.180   8.253
 6917POPC   C3B26493   2.884  42.181   7.953
 6917POPC   C4B26494   2.959  42.128   7.653
 6918POPC   NC326495  26.013  14.448   9.453
 6918POPC   PO426496  26.087  14.354   9.153
 6918POPC   GL126497  25.994  14.391   8.853
 6918POPC   GL226498  26.018  14.302   8.853
 6918POPC   C1A26499  26.055  14.365   8.553
 6918POPC   D2A26500  26.047  14.368   8.253
 6918POPC   C3A26501  26.020  14.367   7.953
 6918POPC   C4A26502  26.029  14.431   7.653
 6918POPC   C1B26503  26.017  14.134   8.553
 6918POPC   C2B26504  26.042  14.149   8.253
 6918POPC   C3B26505  25.982  14.184   7.953
 6918POPC   C4B26506  25.978  14.110   7.653
 6919POPC   NC326507  25.293  36.080   9.453
 6919POPC   PO426508  25.302  36.131   9.153
 6919POPC   GL126509  25.296  36.150   8.853
 6919POPC   GL226510  25.260  36.027   8.853
 6919POPC   C1A26511  25.297  36.170   8.553
 6919POPC   D2A26512  25.270  36.095   8.253
 6919POPC   C3A26513  25.288  36.159   7.953
 6919POPC   C4A26514  25.254  36.175   7.653
 6919POPC   C1B26515  25.233  35.902   8.553
 6919POPC   C2B26516  25.220  35.861   8.253
 6919POPC   C3B26517  25.145  35.870   7.953
 6919POPC   C4B26518  25.196  35.929   7.653
 6920POPC   NC326519  26.014  34.591   9.453
 6920POPC   PO426520  26.009  34.612   9.153
 6920POPC   GL126521  26.032  34.602   8.853
 6920POPC   GL226522  25.991  34.721   8.853
 6920POPC   C1A26523  26.049  34.604   8.553
 6920POPC   D2A26524  26.028  34.552   8.253
 6920POPC   C3A26525  26.071  34.610   7.953
 6920POPC   C4A26526  26.008  34.558   7.653
 6920POPC   C1B26527  26.050  34.860   8.553
 6920POPC   C2B26528  25.955  34.789   8.253
 6920POPC   C3B26529  26.017  34.792   7.953
 6920POPC   C4B26530  25.966  34.782   7.653
 6921POPC   NC326531  41.557  14.368   9.453
 6921POPC   PO426532  41.584  14.402   9.153
 6921POPC   GL126533  41.601  14.422   8.853
 6921POPC   GL226534  41.656  14.541   8.853
 6921POPC   C1A26535  41.514  14.430   8.553
 6921POPC   D2A26536  41.543  14.406   8.253
 6921POPC   C3A26537  41.528  14.378   7.953
 6921POPC   C4A26538  41.584  14.415   7.653
 6921POPC   C1B26539  41.696  14.600   8.553
 6921POPC   C2B26540  41.715  14.606   8.253
 6921POPC   C3B26541  41.654  14.601   7.953
 6921POPC   C4B26542  41.752  14.615   7.653
 6922POPC   NC326543  22.899  39.240   9.453
 6922POPC   PO426544  22.901  39.226   9.153
 6922POPC   GL126545  22.939  39.242   8.853
 6922POPC   GL226546  23.049  39.228   8.853
 6922POPC   C1A26547  22.982  39.209   8.553
 6922POPC   D2A26548  22.959  39.190   8.253
 6922POPC   C3A26549  22.953  39.216   7.953
 6922POPC   C4A26550  22.922  39.182   7.653
 6922POPC   C1B26551  23.178  39.202   8.553
 6922POPC   C2B26552  23.180  39.225   8.253
 6922POPC   C3B26553  23.218  39.169   7.953
 6922POPC   C4B26554  23.156  39.165   7.653
 6923POPC   NC326555  21.401  35.383   9.453
 6923POPC   PO426556  21.360  35.322   9.153
 6923POPC   GL126557  21.351  35.348   8.853
 6923POPC   GL226558  21.240  35.335   8.853
 6923POPC   C1A26559  21.341  35.398   8.553
 6923POPC   D2A26560  21.343  35.310   8.253
 6923POPC   C3A26561  21.381  35.312   7.953
 6923POPC   C4A26562  21.374  35.399   7.653
 6923POPC   C1B26563  21.156  35.270   8.553
 6923POPC   C2B26564  21.152  35.328   8.253
 6923POPC   C3B26565  21.143  35.292   7.953
 6923POPC   C4B26566  21.127  35.354   7.653
 6924POPC   NC326567  12.079  21.377   9.453
 6924POPC   PO426568  12.116  21.344   9.153
 6924POPC   GL126569  12.076  21.379   8.853
 6924POPC   GL226570  12.002  21.396   8.853
 6924POPC   C1A26571  12.115  21.409   8.553
 6924POPC   D2A26572  12.065  21.399   8.253
 6924POPC   C3A26573  12.040  21.409   7.953
 6924POPC   C4A26574  12.037  21.389   7.653
 6924POPC   C1B26575  11.856  21.332   8.553
 6924POPC   C2B26576  11.862  21.319   8.253
 6924POPC   C3B26577  11.866  21.298   7.953
 6924POPC   C4B26578  11.843  21.322   7.653
 6925POPC   NC326579   3.568   5.842   9.453
 6925POPC   PO426580   3.576   5.847   9.153
 6925POPC   GL126581   3.577   5.824   8.853
 6925POPC   GL226582   3.567   6.011   8.853
 6925POPC   C1A26583   3.510   5.873   8.553
 6925POPC   D2A26584   3.569   5.873   8.253
 6925POPC   C3A26585   3.531   5.827   7.953
 6925POPC   C4A26586   3.575   5.894   7.653
 6925POPC   C1B26587   3.595   6.094   8.553
 6925POPC   C2B26588   3.675   6.143   8.253
 6925POPC   C3B26589   3.665   6.108   7.953
 6925POPC   C4B26590   3.631   6.098   7.653
 6926POPC   NC326591  37.660  19.027   9.453
 6926POPC   PO426592  37.648  19.022   9.153
 6926POPC   GL126593  37.637  19.068   8.853
 6926POPC   GL226594  37.844  19.061   8.853
 6926POPC   C1A26595  37.656  19.084   8.553
 6926POPC   D2A26596  37.663  19.087   8.253
 6926POPC   C3A26597  37.631  19.060   7.953
 6926POPC   C4A26598  37.629  19.012   7.653
 6926POPC   C1B26599  37.910  19.101   8.553
 6926POPC   C2B26600  37.924  19.073   8.253
 6926POPC   C3B26601  37.919  19.123   7.953
 6926POPC   C4B26602  37.962  19.042   7.653
 6927POPC   NC326603   8.930  42.314   9.453
 6927POPC   PO426604   8.942  42.310   9.153
 6927POPC   GL126605   8.961  42.311   8.853
 6927POPC   GL226606   8.894  42.204   8.853
 6927POPC   C1A26607   8.999  42.298   8.553
 6927POPC   D2A26608   9.021  42.352   8.253
 6927POPC   C3A26609   8.974  42.309   7.953
 6927POPC   C4A26610   8.985  42.341   7.653
 6927POPC   C1B26611   8.901  42.113   8.553
 6927POPC   C2B26612   8.871  42.079   8.253
 6927POPC   C3B26613   8.888  42.063   7.953
 6927POPC   C4B26614   8.899  42.082   7.653
 6928POPC   NC326615   1.219  29.129   9.453
 6928POPC   PO426616   1.200  29.182   9.153
 6928POPC   GL126617   1.196  29.163   8.853
 6928POPC   GL226618   1.338  29.222   8.853
 6928POPC   C1A26619   1.178  29.184   8.553
 6928POPC   D2A26620   1.183  29.172   8.253
 6928POPC   C3A26621   1.250  29.134   7.953
 6928POPC   C4A26622   1.239  29.097   7.653
 6928POPC   C1B26623   1.367  29.350   8.553
 6928POPC   C2B26624   1.390  29.329   8.253
 6928POPC   C3B26625   1.412  29.306   7.953
 6928POPC   C4B26626   1.367  29.319   7.653
 6929POPC   NC326627  38.459  15.146   9.453
 6929POPC   PO426628  38.482  15.167   9.153
 6929POPC   GL126629  38.462  15.215   8.853
 6929POPC   GL226630  38.336  15.116   8.853
 6929POPC   C1A26631  38.476  15.152   8.553
 6929POPC   D2A26632  38.438  15.146   8.253
 6929POPC   C3A26633  38.412  15.193   7.953
 6929POPC   C4A26634  38.430  15.139   7.653
 6929POPC   C1B26635  38.173  15.108   8.553
 6929POPC   C2B26636  38.225  15.127   8.253
 6929POPC   C3B26637  38.228  15.142   7.953
 6929POPC   C4B26638  38.220  15.108   7.653
 6930POPC   NC326639  40.006  13.617   9.453
 6930POPC   PO426640  40.048  13.671   9.153
 6930POPC   GL126641  39.975  13.588   8.853
 6930POPC   GL226642  39.862  13.633   8.853
 6930POPC   C1A26643  40.032  13.611   8.553
 6930POPC   D2A26644  40.052  13.626   8.253
 6930POPC   C3A26645  39.958  13.670   7.953
 6930POPC   C4A26646  40.029  13.677   7.653
 6930POPC   C1B26647  39.807  13.556   8.553
 6930POPC   C2B26648  39.752  13.581   8.253
 6930POPC   C3B26649  39.814  13.558   7.953
 6930POPC   C4B26650  39.758  13.568   7.653
 6931POPC   NC326651  24.508  25.252   9.453
 6931POPC   PO426652  24.504  25.305   9.153
 6931POPC   GL126653  24.505  25.307   8.853
 6931POPC   GL226654  24.629  25.308   8.853
 6931POPC   C1A26655  24.533  25.232   8.553
 6931POPC   D2A26656  24.494  25.289   8.253
 6931POPC   C3A26657  24.455  25.283   7.953
 6931POPC   C4A26658  24.443  25.264   7.653
 6931POPC   C1B26659  24.742  25.349   8.553
 6931POPC   C2B26660  24.692  25.307   8.253
 6931POPC   C3B26661  24.693  25.346   7.953
 6931POPC   C4B26662  24.759  25.272   7.653
 6932POPC   NC326663   1.225   1.191   9.453
 6932POPC   PO426664   1.182   1.203   9.153
 6932POPC   GL126665   1.261   1.199   8.853
 6932POPC   GL226666   1.239   1.130   8.853
 6932POPC   C1A26667   1.253   1.242   8.553
 6932POPC   D2A26668   1.168   1.224   8.253
 6932POPC   C3A26669   1.190   1.252   7.953
 6932POPC   C4A26670   1.195   1.256   7.653
 6932POPC   C1B26671   1.282   1.030   8.553
 6932POPC   C2B26672   1.273   0.939   8.253
 6932POPC   C3B26673   1.340   1.007   7.953
 6932POPC   C4B26674   1.299   1.016   7.653
 6933POPC   NC326675  21.377  34.612   9.453
 6933POPC   PO426676  21.392  34.588   9.153
 6933POPC   GL126677  21.341  34.573   8.853
 6933POPC   GL226678  21.304  34.597   8.853
 6933POPC   C1A26679  21.374  34.554   8.553
 6933POPC   D2A26680  21.387  34.585   8.253
 6933POPC   C3A26681  21.357  34.598   7.953
 6933POPC   C4A26682  21.346  34.622   7.653
 6933POPC   C1B26683  21.111  34.540   8.553
 6933POPC   C2B26684  21.121  34.592   8.253
 6933POPC   C3B26685  21.152  34.524   7.953
 6933POPC   C4B26686  21.106  34.587   7.653
 6934POPC   NC326687   0.458  12.837   9.453
 6934POPC   PO426688   0.486  12.864   9.153
 6934POPC   GL126689   0.436  12.819   8.853
 6934POPC   GL226690   0.326  12.799   8.853
 6934POPC   C1A26691   0.487  12.842   8.553
 6934POPC   D2A26692   0.408  12.803   8.253
 6934POPC   C3A26693   0.460  12.810   7.953
 6934POPC   C4A26694   0.406  12.841   7.653
 6934POPC   C1B26695   0.167  12.856   8.553
 6934POPC   C2B26696   0.153  12.870   8.253
 6934POPC   C3B26697   0.214  12.851   7.953
 6934POPC   C4B26698   0.152  12.808   7.653
 6935POPC   NC326699  34.537   8.197   9.453
 6935POPC   PO426700  34.565   8.227   9.153
 6935POPC   GL126701  34.566   8.224   8.853
 6935POPC   GL226702  34.727   8.188   8.853
 6935POPC   C1A26703  34.555   8.180   8.553
 6935POPC   D2A26704  34.568   8.180   8.253
 6935POPC   C3A26705  34.526   8.238   7.953
 6935POPC   C4A26706  34.583   8.172   7.653
 6935POPC   C1B26707  34.842   8.174   8.553
 6935POPC   C2B26708  34.779   8.120   8.253
 6935POPC   C3B26709  34.812   8.094   7.953
 6935POPC   C4B26710  34.848   8.179   7.653
 6936POPC   NC326711   0.466  36.912   9.453
 6936POPC   PO426712   0.414  36.874   9.153
 6936POPC   GL126713   0.450  36.900   8.853
 6936POPC   GL226714   0.432  37.021   8.853
 6936POPC   C1A26715   0.480  36.888   8.553
 6936POPC   D2A26716   0.452  36.926   8.253
 6936POPC   C3A26717   0.480  36.922   7.953
 6936POPC   C4A26718   0.484  36.907   7.653
 6936POPC   C1B26719   0.365  37.115   8.553
 6936POPC   C2B26720   0.293  37.146   8.253
 6936POPC   C3B26721   0.337  37.100   7.953
 6936POPC   C4B26722   0.299  37.172   7.653
 6937POPC   NC326723  25.247  36.934   9.453
 6937POPC   PO426724  25.240  36.887   9.153
 6937POPC   GL126725  25.233  36.940   8.853
 6937POPC   GL226726  25.317  37.032   8.853
 6937POPC   C1A26727  25.278  36.894   8.553
 6937POPC   D2A26728  25.289  36.898   8.253
 6937POPC   C3A26729  25.300  36.891   7.953
 6937POPC   C4A26730  25.251  36.926   7.653
 6937POPC   C1B26731  25.396  37.105   8.553
 6937POPC   C2B26732  25.443  37.115   8.253
 6937POPC   C3B26733  25.351  37.143   7.953
 6937POPC   C4B26734  25.346  37.145   7.653
 6938POPC   NC326735  39.249  37.665   9.453
 6938POPC   PO426736  39.265  37.642   9.153
 6938POPC   GL126737  39.279  37.696   8.853
 6938POPC   GL226738  39.299  37.714   8.853
 6938POPC   C1A26739  39.187  37.718   8.553
 6938POPC   D2A26740  39.260  37.676   8.253
 6938POPC   C3A26741  39.189  37.701   7.953
 6938POPC   C4A26742  39.254  37.687   7.653
 6938POPC   C1B26743  39.480  37.790   8.553
 6938POPC   C2B26744  39.443  37.774   8.253
 6938POPC   C3B26745  39.490  37.802   7.953
 6938POPC   C4B26746  39.441  37.723   7.653
 6939POPC   NC326747  28.333  40.004   9.453
 6939POPC   PO426748  28.394  39.976   9.153
 6939POPC   GL126749  28.400  39.985   8.853
 6939POPC   GL226750  28.260  40.031   8.853
 6939POPC   C1A26751  28.371  39.999   8.553
 6939POPC   D2A26752  28.383  39.965   8.253
 6939POPC   C3A26753  28.412  40.015   7.953
 6939POPC   C4A26754  28.391  40.006   7.653
 6939POPC   C1B26755  28.084  40.060   8.553
 6939POPC   C2B26756  28.094  40.039   8.253
 6939POPC   C3B26757  28.155  40.026   7.953
 6939POPC   C4B26758  28.141  40.101   7.653
 6940POPC   NC326759  28.320  16.744   9.453
 6940POPC   PO426760  28.360  16.692   9.153
 6940POPC   GL126761  28.345  16.739   8.853
 6940POPC   GL226762  28.325  16.899   8.853
 6940POPC   C1A26763  28.346  16.687   8.553
 6940POPC   D2A26764  28.357  16.760   8.253
 6940POPC   C3A26765  28.418  16.729   7.953
 6940POPC   C4A26766  28.376  16.732   7.653
 6940POPC   C1B26767  28.254  16.931   8.553
 6940POPC   C2B26768  28.337  16.968   8.253
 6940POPC   C3B26769  28.249  17.002   7.953
 6940POPC   C4B26770  28.272  16.990   7.653
 6941POPC   NC326771  12.113  43.080   9.453
 6941POPC   PO426772  12.061  43.113   9.153
 6941POPC   GL126773  12.080  43.095   8.853
 6941POPC   GL226774  11.997  43.118   8.853
 6941POPC   C1A26775  12.073  43.114   8.553
 6941POPC   D2A26776  12.090  43.072   8.253
 6941POPC   C3A26777  12.047  43.159   7.953
 6941POPC   C4A26778  12.072  43.089   7.653
 6941POPC   C1B26779  11.800  43.110   8.553
 6941POPC   C2B26780  11.873  43.092   8.253
 6941POPC   C3B26781  11.793  43.064   7.953
 6941POPC   C4B26782  11.848  43.035   7.653
 6942POPC   NC326783  31.517   8.970   9.453
 6942POPC   PO426784  31.522   8.966   9.153
 6942POPC   GL126785  31.429   9.002   8.853
 6942POPC   GL226786  31.429   9.138   8.853
 6942POPC   C1A26787  31.444   9.021   8.553
 6942POPC   D2A26788  31.516   8.969   8.253
 6942POPC   C3A26789  31.450   8.997   7.953
 6942POPC   C4A26790  31.464   8.926   7.653
 6942POPC   C1B26791  31.405   9.213   8.553
 6942POPC   C2B26792  31.411   9.258   8.253
 6942POPC   C3B26793  31.452   9.174   7.953
 6942POPC   C4B26794  31.445   9.215   7.653
 6943POPC   NC326795  12.038  29.871   9.453
 6943POPC   PO426796  12.069  29.903   9.153
 6943POPC   GL126797  12.030  29.937   8.853
 6943POPC   GL226798  12.000  29.882   8.853
 6943POPC   C1A26799  12.060  29.921   8.553
 6943POPC   D2A26800  12.043  29.929   8.253
 6943POPC   C3A26801  12.116  29.951   7.953
 6943POPC   C4A26802  12.055  29.924   7.653
 6943POPC   C1B26803  11.844  29.889   8.553
 6943POPC   C2B26804  11.805  29.841   8.253
 6943POPC   C3B26805  11.845  29.861   7.953
 6943POPC   C4B26806  11.804  29.861   7.653
 6944POPC   NC326807   3.531  30.664   9.453
 6944POPC   PO426808   3.494  30.682   9.153
 6944POPC   GL126809   3.578  30.673   8.853
 6944POPC   GL226810   3.573  30.529   8.853
 6944POPC   C1A26811   3.559  30.743   8.553
 6944POPC   D2A26812   3.537  30.664   8.253
 6944POPC   C3A26813   3.573  30.667   7.953
 6944POPC   C4A26814   3.560  30.728   7.653
 6944POPC   C1B26815   3.620  30.448   8.553
 6944POPC   C2B26816   3.597  30.404   8.253
 6944POPC   C3B26817   3.594  30.412   7.953
 6944POPC   C4B26818   3.599  30.473   7.653
 6945POPC   NC326819  28.388  15.174   9.453
 6945POPC   PO426820  28.357  15.207   9.153
 6945POPC   GL126821  28.331  15.174   8.853
 6945POPC   GL226822  28.530  15.130   8.853
 6945POPC   C1A26823  28.340  15.207   8.553
 6945POPC   D2A26824  28.389  15.178   8.253
 6945POPC   C3A26825  28.410  15.194   7.953
 6945POPC   C4A26826  28.343  15.225   7.653
 6945POPC   C1B26827  28.647  15.147   8.553
 6945POPC   C2B26828  28.586  15.091   8.253
 6945POPC   C3B26829  28.634  15.156   7.953
 6945POPC   C4B26830  28.624  15.118   7.653
 6946POPC   NC326831  17.524   8.218   9.453
 6946POPC   PO426832  17.484   8.186   9.153
 6946POPC   GL126833  17.463   8.225   8.853
 6946POPC   GL226834  17.344   8.167   8.853
 6946POPC   C1A26835  17.493   8.189   8.553
 6946POPC   D2A26836  17.469   8.203   8.253
 6946POPC   C3A26837  17.488   8.159   7.953
 6946POPC   C4A26838  17.550   8.226   7.653
 6946POPC   C1B26839  17.241   8.258   8.553
 6946POPC   C2B26840  17.293   8.188   8.253
 6946POPC   C3B26841  17.271   8.202   7.953
 6946POPC   C4B26842  17.253   8.226   7.653
 6947POPC   NC326843   5.820   7.386   9.453
 6947POPC   PO426844   5.852   7.394   9.153
 6947POPC   GL126845   5.907   7.406   8.853
 6947POPC   GL226846   5.906   7.301   8.853
 6947POPC   C1A26847   5.882   7.401   8.553
 6947POPC   D2A26848   5.875   7.401   8.253
 6947POPC   C3A26849   5.913   7.399   7.953
 6947POPC   C4A26850   5.828   7.415   7.653
 6947POPC   C1B26851   5.990   7.164   8.553
 6947POPC   C2B26852   5.951   7.190   8.253
 6947POPC   C3B26853   6.015   7.159   7.953
 6947POPC   C4B26854   5.977   7.157   7.653
 6948POPC   NC326855  21.419   3.556   9.453
 6948POPC   PO426856  21.351   3.570   9.153
 6948POPC   GL126857  21.430   3.529   8.853
 6948POPC   GL226858  21.302   3.432   8.853
 6948POPC   C1A26859  21.351   3.560   8.553
 6948POPC   D2A26860  21.432   3.580   8.253
 6948POPC   C3A26861  21.415   3.529   7.953
 6948POPC   C4A26862  21.364   3.560   7.653
 6948POPC   C1B26863  21.238   3.314   8.553
 6948POPC   C2B26864  21.286   3.315   8.253
 6948POPC   C3B26865  21.301   3.371   7.953
 6948POPC   C4B26866  21.299   3.354   7.653
 6949POPC   NC326867  26.802  31.436   9.453
 6949POPC   PO426868  26.838  31.469   9.153
 6949POPC   GL126869  26.768  31.513   8.853
 6949POPC   GL226870  26.746  31.493   8.853
 6949POPC   C1A26871  26.793  31.451   8.553
 6949POPC   D2A26872  26.807  31.508   8.253
 6949POPC   C3A26873  26.804  31.441   7.953
 6949POPC   C4A26874  26.777  31.510   7.653
 6949POPC   C1B26875  26.572  31.606   8.553
 6949POPC   C2B26876  26.625  31.649   8.253
 6949POPC   C3B26877  26.568  31.577   7.953
 6949POPC   C4B26878  26.618  31.597   7.653
 6950POPC   NC326879  34.533  30.725   9.453
 6950POPC   PO426880  34.625  30.649   9.153
 6950POPC   GL126881  34.606  30.661   8.853
 6950POPC   GL226882  34.596  30.603   8.853
 6950POPC   C1A26883  34.618  30.648   8.553
 6950POPC   D2A26884  34.621  30.650   8.253
 6950POPC   C3A26885  34.608  30.694   7.953
 6950POPC   C4A26886  34.595  30.665   7.653
 6950POPC   C1B26887  34.625  30.441   8.553
 6950POPC   C2B26888  34.617  30.444   8.253
 6950POPC   C3B26889  34.639  30.454   7.953
 6950POPC   C4B26890  34.669  30.452   7.653
 6951POPC   NC326891  27.615  29.954   9.453
 6951POPC   PO426892  27.609  29.930   9.153
 6951POPC   GL126893  27.603  29.890   8.853
 6951POPC   GL226894  27.485  29.879   8.853
 6951POPC   C1A26895  27.635  29.945   8.553
 6951POPC   D2A26896  27.626  29.909   8.253
 6951POPC   C3A26897  27.550  29.920   7.953
 6951POPC   C4A26898  27.585  29.960   7.653
 6951POPC   C1B26899  27.351  29.807   8.553
 6951POPC   C2B26900  27.436  29.773   8.253
 6951POPC   C3B26901  27.445  29.795   7.953
 6951POPC   C4B26902  27.379  29.740   7.653
 6952POPC   NC326903  32.243  15.992   9.453
 6952POPC   PO426904  32.250  15.906   9.153
 6952POPC   GL126905  32.216  15.995   8.853
 6952POPC   GL226906  32.146  15.821   8.853
 6952POPC   C1A26907  32.284  15.917   8.553
 6952POPC   D2A26908  32.298  15.920   8.253
 6952POPC   C3A26909  32.211  15.906   7.953
 6952POPC   C4A26910  32.204  15.968   7.653
 6952POPC   C1B26911  32.147  15.781   8.553
 6952POPC   C2B26912  32.088  15.712   8.253
 6952POPC   C3B26913  32.128  15.719   7.953
 6952POPC   C4B26914  32.144  15.700   7.653
 6953POPC   NC326915   6.677   5.075   9.453
 6953POPC   PO426916   6.689   5.063   9.153
 6953POPC   GL126917   6.655   5.087   8.853
 6953POPC   GL226918   6.675   4.980   8.853
 6953POPC   C1A26919   6.607   5.068   8.553
 6953POPC   D2A26920   6.688   5.126   8.253
 6953POPC   C3A26921   6.652   5.111   7.953
 6953POPC   C4A26922   6.637   5.101   7.653
 6953POPC   C1B26923   6.651   4.848   8.553
 6953POPC   C2B26924   6.644   4.803   8.253
 6953POPC   C3B26925   6.664   4.891   7.953
 6953POPC   C4B26926   6.626   4.871   7.653
 6954POPC   NC326927  17.463   9.787   9.453
 6954POPC   PO426928  17.472   9.745   9.153
 6954POPC   GL126929  17.463   9.706   8.853
 6954POPC   GL226930  17.351   9.656   8.853
 6954POPC   C1A26931  17.547   9.782   8.553
 6954POPC   D2A26932  17.544   9.709   8.253
 6954POPC   C3A26933  17.554   9.721   7.953
 6954POPC   C4A26934  17.535   9.704   7.653
 6954POPC   C1B26935  17.242   9.618   8.553
 6954POPC   C2B26936  17.250   9.692   8.253
 6954POPC   C3B26937  17.314   9.646   7.953
 6954POPC   C4B26938  17.312   9.664   7.653
 6955POPC   NC326939  35.321  22.917   9.453
 6955POPC   PO426940  35.402  22.898   9.153
 6955POPC   GL126941  35.324  22.895   8.853
 6955POPC   GL226942  35.236  22.892   8.853
 6955POPC   C1A26943  35.335  22.982   8.553
 6955POPC   D2A26944  35.312  22.914   8.253
 6955POPC   C3A26945  35.319  22.971   7.953
 6955POPC   C4A26946  35.401  22.969   7.653
 6955POPC   C1B26947  35.193  22.742   8.553
 6955POPC   C2B26948  35.138  22.766   8.253
 6955POPC   C3B26949  35.168  22.755   7.953
 6955POPC   C4B26950  35.135  22.752   7.653
 6956POPC   NC326951  26.795   1.991   9.453
 6956POPC   PO426952  26.838   2.015   9.153
 6956POPC   GL126953  26.793   2.016   8.853
 6956POPC   GL226954  26.947   2.078   8.853
 6956POPC   C1A26955  26.812   1.966   8.553
 6956POPC   D2A26956  26.779   2.022   8.253
 6956POPC   C3A26957  26.812   2.034   7.953
 6956POPC   C4A26958  26.786   1.953   7.653
 6956POPC   C1B26959  27.009   2.158   8.553
 6956POPC   C2B26960  27.051   2.128   8.253
 6956POPC   C3B26961  27.013   2.149   7.953
 6956POPC   C4B26962  26.978   2.131   7.653
 6957POPC   NC326963   4.296  21.401   9.453
 6957POPC   PO426964   4.279  21.350   9.153
 6957POPC   GL126965   4.348  21.350   8.853
 6957POPC   GL226966   4.212  21.288   8.853
 6957POPC   C1A26967   4.307  21.372   8.553
 6957POPC   D2A26968   4.297  21.373   8.253
 6957POPC   C3A26969   4.345  21.405   7.953
 6957POPC   C4A26970   4.309  21.344   7.653
 6957POPC   C1B26971   4.201  21.196   8.553
 6957POPC   C2B26972   4.176  21.212   8.253
 6957POPC   C3B26973   4.159  21.155   7.953
 6957POPC   C4B26974   4.159  21.223   7.653
 6958POPC   NC326975  33.754  31.436   9.453
 6958POPC   PO426976  33.750  31.442   9.153
 6958POPC   GL126977  33.791  31.463   8.853
 6958POPC   GL226978  33.782  31.304   8.853
 6958POPC   C1A26979  33.755  31.460   8.553
 6958POPC   D2A26980  33.809  31.476   8.253
 6958POPC   C3A26981  33.823  31.500   7.953
 6958POPC   C4A26982  33.848  31.460   7.653
 6958POPC   C1B26983  33.671  31.279   8.553
 6958POPC   C2B26984  33.691  31.255   8.253
 6958POPC   C3B26985  33.692  31.219   7.953
 6958POPC   C4B26986  33.672  31.240   7.653
 6959POPC   NC326987  28.341  29.113   9.453
 6959POPC   PO426988  28.400  29.157   9.153
 6959POPC   GL126989  28.406  29.133   8.853
 6959POPC   GL226990  28.211  29.095   8.853
 6959POPC   C1A26991  28.330  29.138   8.553
 6959POPC   D2A26992  28.322  29.118   8.253
 6959POPC   C3A26993  28.387  29.185   7.953
 6959POPC   C4A26994  28.358  29.103   7.653
 6959POPC   C1B26995  28.169  29.036   8.553
 6959POPC   C2B26996  28.157  29.100   8.253
 6959POPC   C3B26997  28.180  29.081   7.953
 6959POPC   C4B26998  28.102  29.094   7.653
 6960POPC   NC326999   1.221  12.835   9.453
 6960POPC   PO427000   1.252  12.884   9.153
 6960POPC   GL127001   1.211  12.862   8.853
 6960POPC   GL227002   1.095  12.826   8.853
 6960POPC   C1A27003   1.235  12.845   8.553
 6960POPC   D2A27004   1.219  12.843   8.253
 6960POPC   C3A27005   1.223  12.804   7.953
 6960POPC   C4A27006   1.259  12.825   7.653
 6960POPC   C1B27007   0.991  12.801   8.553
 6960POPC   C2B27008   1.012  12.837   8.253
 6960POPC   C3B27009   0.988  12.835   7.953
 6960POPC   C4B27010   0.931  12.872   7.653
 6961POPC   NC327011   0.418  14.376   9.453
 6961POPC   PO427012   0.403  14.452   9.153
 6961POPC   GL127013   0.390  14.444   8.853
 6961POPC   GL227014   0.288  14.518   8.853
 6961POPC   C1A27015   0.409  14.379   8.553
 6961POPC   D2A27016   0.415  14.450   8.253
 6961POPC   C3A27017   0.396  14.360   7.953
 6961POPC   C4A27018   0.453  14.424   7.653
 6961POPC   C1B27019   0.201  14.530   8.553
 6961POPC   C2B27020   0.192  14.540   8.253
 6961POPC   C3B27021   0.229  14.518   7.953
 6961POPC   C4B27022   0.234  14.553   7.653
 6962POPC   NC327023   9.724  15.972   9.453
 6962POPC   PO427024   9.714  15.974   9.153
 6962POPC   GL127025   9.728  15.971   8.853
 6962POPC   GL227026   9.715  16.114   8.853
 6962POPC   C1A27027   9.742  15.991   8.553
 6962POPC   D2A27028   9.725  15.971   8.253
 6962POPC   C3A27029   9.758  15.931   7.953
 6962POPC   C4A27030   9.723  15.908   7.653
 6962POPC   C1B27031   9.653  16.151   8.553
 6962POPC   C2B27032   9.749  16.201   8.253
 6962POPC   C3B27033   9.652  16.224   7.953
 6962POPC   C4B27034   9.717  16.234   7.653
 6963POPC   NC327035  41.512  26.815   9.453
 6963POPC   PO427036  41.553  26.817   9.153
 6963POPC   GL127037  41.543  26.799   8.853
 6963POPC   GL227038  41.723  26.807   8.853
 6963POPC   C1A27039  41.584  26.851   8.553
 6963POPC   D2A27040  41.518  26.788   8.253
 6963POPC   C3A27041  41.518  26.826   7.953
 6963POPC   C4A27042  41.599  26.841   7.653
 6963POPC   C1B27043  41.836  26.856   8.553
 6963POPC   C2B27044  41.847  26.803   8.253
 6963POPC   C3B27045  41.805  26.784   7.953
 6963POPC   C4B27046  41.791  26.812   7.653
 6964POPC   NC327047  24.537  22.211   9.453
 6964POPC   PO427048  24.479  22.168   9.153
 6964POPC   GL127049  24.478  22.145   8.853
 6964POPC   GL227050  24.535  22.040   8.853
 6964POPC   C1A27051  24.444  22.123   8.553
 6964POPC   D2A27052  24.511  22.113   8.253
 6964POPC   C3A27053  24.457  22.115   7.953
 6964POPC   C4A27054  24.467  22.151   7.653
 6964POPC   C1B27055  24.519  21.947   8.553
 6964POPC   C2B27056  24.469  21.931   8.253
 6964POPC   C3B27057  24.525  21.906   7.953
 6964POPC   C4B27058  24.459  21.950   7.653
 6965POPC   NC327059  24.479  11.257   9.453
 6965POPC   PO427060  24.529  11.266   9.153
 6965POPC   GL127061  24.506  11.332   8.853
 6965POPC   GL227062  24.397  11.328   8.853
 6965POPC   C1A27063  24.454  11.252   8.553
 6965POPC   D2A27064  24.487  11.307   8.253
 6965POPC   C3A27065  24.516  11.334   7.953
 6965POPC   C4A27066  24.440  11.339   7.653
 6965POPC   C1B27067  24.243  11.330   8.553
 6965POPC   C2B27068  24.237  11.318   8.253
 6965POPC   C3B27069  24.198  11.359   7.953
 6965POPC   C4B27070  24.242  11.363   7.653
 6966POPC   NC327071   2.035  43.119   9.453
 6966POPC   PO427072   2.020  43.151   9.153
 6966POPC   GL127073   1.966  43.153   8.853
 6966POPC   GL227074   1.829  43.161   8.853
 6966POPC   C1A27075   1.987  43.098   8.553
 6966POPC   D2A27076   1.985  43.152   8.253
 6966POPC   C3A27077   1.972  43.146   7.953
 6966POPC   C4A27078   1.947  43.094   7.653
 6966POPC   C1B27079   1.711  43.203   8.553
 6966POPC   C2B27080   1.757  43.204   8.253
 6966POPC   C3B27081   1.747  43.217   7.953
 6966POPC   C4B27082   1.762  43.174   7.653
 6967POPC   NC327083  28.374  43.144   9.453
 6967POPC   PO427084  28.383  43.098   9.153
 6967POPC   GL127085  28.378  43.073   8.853
 6967POPC   GL227086  28.232  43.033   8.853
 6967POPC   C1A27087  28.365  43.061   8.553
 6967POPC   D2A27088  28.407  43.117   8.253
 6967POPC   C3A27089  28.385  43.158   7.953
 6967POPC   C4A27090  28.350  43.137   7.653
 6967POPC   C1B27091  28.208  42.984   8.553
 6967POPC   C2B27092  28.169  42.989   8.253
 6967POPC   C3B27093  28.190  42.961   7.953
 6967POPC   C4B27094  28.156  42.965   7.653
 6968POPC   NC327095  12.856  35.377   9.453
 6968POPC   PO427096  12.817  35.312   9.153
 6968POPC   GL127097  12.808  35.391   8.853
 6968POPC   GL227098  12.988  35.324   8.853
 6968POPC   C1A27099  12.812  35.371   8.553
 6968POPC   D2A27100  12.831  35.322   8.253
 6968POPC   C3A27101  12.856  35.302   7.953
 6968POPC   C4A27102  12.867  35.391   7.653
 6968POPC   C1B27103  13.080  35.343   8.553
 6968POPC   C2B27104  13.083  35.285   8.253
 6968POPC   C3B27105  13.087  35.281   7.953
 6968POPC   C4B27106  13.137  35.296   7.653
 6969POPC   NC327107   0.457   5.835   9.453
 6969POPC   PO427108   0.457   5.853   9.153
 6969POPC   GL127109   0.399   5.910   8.853
 6969POPC   GL227110   0.349   5.978   8.853
 6969POPC   C1A27111   0.408   5.852   8.553
 6969POPC   D2A27112   0.437   5.840   8.253
 6969POPC   C3A27113   0.438   5.871   7.953
 6969POPC   C4A27114   0.422   5.900   7.653
 6969POPC   C1B27115   0.275   6.012   8.553
 6969POPC   C2B27116   0.275   5.988   8.253
 6969POPC   C3B27117   0.196   6.029   7.953
 6969POPC   C4B27118   0.192   5.968   7.653
 6970POPC   NC327119  13.611  21.371   9.453
 6970POPC   PO427120  13.669  21.399   9.153
 6970POPC   GL127121  13.590  21.346   8.853
 6970POPC   GL227122  13.618  21.508   8.853
 6970POPC   C1A27123  13.677  21.403   8.553
 6970POPC   D2A27124  13.590  21.386   8.253
 6970POPC   C3A27125  13.648  21.393   7.953
 6970POPC   C4A27126  13.662  21.371   7.653
 6970POPC   C1B27127  13.508  21.582   8.553
 6970POPC   C2B27128  13.532  21.639   8.253
 6970POPC   C3B27129  13.494  21.603   7.953
 6970POPC   C4B27130  13.495  21.655   7.653
 6971POPC   NC327131  26.035  22.916   9.453
 6971POPC   PO427132  26.036  22.931   9.153
 6971POPC   GL127133  26.011  22.931   8.853
 6971POPC   GL227134  25.963  22.998   8.853
 6971POPC   C1A27135  26.000  22.941   8.553
 6971POPC   D2A27136  26.066  22.935   8.253
 6971POPC   C3A27137  25.994  22.978   7.953
 6971POPC   C4A27138  26.078  22.973   7.653
 6971POPC   C1B27139  25.864  23.136   8.553
 6971POPC   C2B27140  25.877  23.145   8.253
 6971POPC   C3B27141  25.899  23.133   7.953
 6971POPC   C4B27142  25.914  23.113   7.653
 6972POPC   NC327143   9.746  30.722   9.453
 6972POPC   PO427144   9.786  30.653   9.153
 6972POPC   GL127145   9.749  30.662   8.853
 6972POPC   GL227146   9.682  30.824   8.853
 6972POPC   C1A27147   9.751  30.654   8.553
 6972POPC   D2A27148   9.780  30.656   8.253
 6972POPC   C3A27149   9.728  30.676   7.953
 6972POPC   C4A27150   9.741  30.702   7.653
 6972POPC   C1B27151   9.627  30.860   8.553
 6972POPC   C2B27152   9.646  30.877   8.253
 6972POPC   C3B27153   9.649  30.870   7.953
 6972POPC   C4B27154   9.592  30.895   7.653
 6973POPC   NC327155  30.700  15.959   9.453
 6973POPC   PO427156  30.689  15.936   9.153
 6973POPC   GL127157  30.678  15.928   8.853
 6973POPC   GL227158  30.849  15.845   8.853
 6973POPC   C1A27159  30.651  15.957   8.553
 6973POPC   D2A27160  30.726  15.920   8.253
 6973POPC   C3A27161  30.681  15.970   7.953
 6973POPC   C4A27162  30.649  16.004   7.653
 6973POPC   C1B27163  30.938  15.856   8.553
 6973POPC   C2B27164  30.885  15.860   8.253
 6973POPC   C3B27165  30.894  15.861   7.953
 6973POPC   C4B27166  30.920  15.861   7.653
 6974POPC   NC327167  19.862   6.652   9.453
 6974POPC   PO427168  19.803   6.615   9.153
 6974POPC   GL127169  19.876   6.641   8.853
 6974POPC   GL227170  19.753   6.570   8.853
 6974POPC   C1A27171  19.822   6.595   8.553
 6974POPC   D2A27172  19.877   6.610   8.253
 6974POPC   C3A27173  19.817   6.688   7.953
 6974POPC   C4A27174  19.789   6.660   7.653
 6974POPC   C1B27175  19.649   6.460   8.553
 6974POPC   C2B27176  19.669   6.505   8.253
 6974POPC   C3B27177  19.660   6.519   7.953
 6974POPC   C4B27178  19.634   6.445   7.653
 6975POPC   NC327179  41.567  12.035   9.453
 6975POPC   PO427180  41.581  12.032   9.153
 6975POPC   GL127181  41.607  12.078   8.853
 6975POPC   GL227182  41.473  11.956   8.853
 6975POPC   C1A27183  41.509  12.047   8.553
 6975POPC   D2A27184  41.541  12.030   8.253
 6975POPC   C3A27185  41.600  12.050   7.953
 6975POPC   C4A27186  41.512  12.119   7.653
 6975POPC   C1B27187  41.446  11.904   8.553
 6975POPC   C2B27188  41.415  11.876   8.253
 6975POPC   C3B27189  41.391  11.870   7.953
 6975POPC   C4B27190  41.415  11.850   7.653
 6976POPC   NC327191   9.701  10.514   9.453
 6976POPC   PO427192   9.716  10.545   9.153
 6976POPC   GL127193   9.762  10.571   8.853
 6976POPC   GL227194   9.861  10.499   8.853
 6976POPC   C1A27195   9.701  10.567   8.553
 6976POPC   D2A27196   9.706  10.530   8.253
 6976POPC   C3A27197   9.750  10.565   7.953
 6976POPC   C4A27198   9.745  10.530   7.653
 6976POPC   C1B27199   9.952  10.398   8.553
 6976POPC   C2B27200   9.998  10.369   8.253
 6976POPC   C3B27201   9.915  10.437   7.953
 6976POPC   C4B27202  10.001  10.416   7.653
 6977POPC   NC327203  11.308  43.912   9.453
 6977POPC   PO427204  11.262  43.893   9.153
 6977POPC   GL127205  11.257  43.905   8.853
 6977POPC   GL227206  11.233  43.822   8.853
 6977POPC   C1A27207  11.339  43.885   8.553
 6977POPC   D2A27208  11.319  43.926   8.253
 6977POPC   C3A27209  11.310  43.873   7.953
 6977POPC   C4A27210  11.325  43.857   7.653
 6977POPC   C1B27211  11.164  43.629   8.553
 6977POPC   C2B27212  11.150  43.632   8.253
 6977POPC   C3B27213  11.142  43.673   7.953
 6977POPC   C4B27214  11.193  43.698   7.653
 6978POPC   NC327215   5.137  10.515   9.453
 6978POPC   PO427216   5.125  10.570   9.153
 6978POPC   GL127217   5.058  10.573   8.853
 6978POPC   GL227218   5.078  10.396   8.853
 6978POPC   C1A27219   5.103  10.528   8.553
 6978POPC   D2A27220   5.069  10.493   8.253
 6978POPC   C3A27221   5.135  10.496   7.953
 6978POPC   C4A27222   5.091  10.558   7.653
 6978POPC   C1B27223   5.067  10.246   8.553
 6978POPC   C2B27224   5.070  10.276   8.253
 6978POPC   C3B27225   5.144  10.268   7.953
 6978POPC   C4B27226   5.159  10.265   7.653
 6979POPC   NC327227  25.271  25.288   9.453
 6979POPC   PO427228  25.274  25.280   9.153
 6979POPC   GL127229  25.270  25.243   8.853
 6979POPC   GL227230  25.174  25.222   8.853
 6979POPC   C1A27231  25.259  25.290   8.553
 6979POPC   D2A27232  25.248  25.267   8.253
 6979POPC   C3A27233  25.272  25.227   7.953
 6979POPC   C4A27234  25.280  25.249   7.653
 6979POPC   C1B27235  25.015  25.128   8.553
 6979POPC   C2B27236  25.001  25.133   8.253
 6979POPC   C3B27237  25.021  25.164   7.953
 6979POPC   C4B27238  25.085  25.152   7.653
 6980POPC   NC327239   7.464  33.764   9.453
 6980POPC   PO427240   7.423  33.820   9.153
 6980POPC   GL127241   7.458  33.846   8.853
 6980POPC   GL227242   7.516  33.858   8.853
 6980POPC   C1A27243   7.382  33.814   8.553
 6980POPC   D2A27244   7.406  33.793   8.253
 6980POPC   C3A27245   7.432  33.787   7.953
 6980POPC   C4A27246   7.413  33.815   7.653
 6980POPC   C1B27247   7.620  33.967   8.553
 6980POPC   C2B27248   7.672  33.938   8.253
 6980POPC   C3B27249   7.601  33.990   7.953
 6980POPC   C4B27250   7.620  33.913   7.653
 6981POPC   NC327251  19.797  12.086   9.453
 6981POPC   PO427252  19.842  12.077   9.153
 6981POPC   GL127253  19.823  12.063   8.853
 6981POPC   GL227254  19.940  12.159   8.853
 6981POPC   C1A27255  19.848  12.028   8.553
 6981POPC   D2A27256  19.855  12.045   8.253
 6981POPC   C3A27257  19.802  12.063   7.953
 6981POPC   C4A27258  19.835  12.117   7.653
 6981POPC   C1B27259  20.015  12.237   8.553
 6981POPC   C2B27260  19.980  12.301   8.253
 6981POPC   C3B27261  20.025  12.233   7.953
 6981POPC   C4B27262  20.037  12.299   7.653
 6982POPC   NC327263  41.597  30.684   9.453
 6982POPC   PO427264  41.608  30.671   9.153
 6982POPC   GL127265  41.598  30.725   8.853
 6982POPC   GL227266  41.641  30.774   8.853
 6982POPC   C1A27267  41.600  30.657   8.553
 6982POPC   D2A27268  41.607  30.670   8.253
 6982POPC   C3A27269  41.606  30.735   7.953
 6982POPC   C4A27270  41.537  30.681   7.653
 6982POPC   C1B27271  41.636  30.951   8.553
 6982POPC   C2B27272  41.697  30.942   8.253
 6982POPC   C3B27273  41.689  30.869   7.953
 6982POPC   C4B27274  41.639  30.935   7.653
 6983POPC   NC327275  40.831  14.376   9.453
 6983POPC   PO427276  40.782  14.404   9.153
 6983POPC   GL127277  40.735  14.449   8.853
 6983POPC   GL227278  40.868  14.491   8.853
 6983POPC   C1A27279  40.818  14.452   8.553
 6983POPC   D2A27280  40.764  14.408   8.253
 6983POPC   C3A27281  40.782  14.452   7.953
 6983POPC   C4A27282  40.787  14.443   7.653
 6983POPC   C1B27283  40.920  14.597   8.553
 6983POPC   C2B27284  40.884  14.673   8.253
 6983POPC   C3B27285  40.872  14.660   7.953
 6983POPC   C4B27286  40.933  14.667   7.653
 6984POPC   NC327287  29.871  13.652   9.453
 6984POPC   PO427288  29.896  13.591   9.153
 6984POPC   GL127289  29.874  13.584   8.853
 6984POPC   GL227290  29.779  13.744   8.853
 6984POPC   C1A27291  29.889  13.596   8.553
 6984POPC   D2A27292  29.937  13.599   8.253
 6984POPC   C3A27293  29.886  13.643   7.953
 6984POPC   C4A27294  29.872  13.651   7.653
 6984POPC   C1B27295  29.711  13.777   8.553
 6984POPC   C2B27296  29.745  13.786   8.253
 6984POPC   C3B27297  29.759  13.794   7.953
 6984POPC   C4B27298  29.728  13.813   7.653
 6985POPC   NC327299  25.278  26.067   9.453
 6985POPC   PO427300  25.254  26.043   9.153
 6985POPC   GL127301  25.290  25.996   8.853
 6985POPC   GL227302  25.356  25.948   8.853
 6985POPC   C1A27303  25.224  26.081   8.553
 6985POPC   D2A27304  25.274  26.072   8.253
 6985POPC   C3A27305  25.242  26.017   7.953
 6985POPC   C4A27306  25.242  26.016   7.653
 6985POPC   C1B27307  25.369  25.787   8.553
 6985POPC   C2B27308  25.369  25.863   8.253
 6985POPC   C3B27309  25.362  25.830   7.953
 6985POPC   C4B27310  25.381  25.825   7.653
 6986POPC   NC327311  12.897  22.981   9.453
 6986POPC   PO427312  12.824  22.959   9.153
 6986POPC   GL127313  12.817  22.890   8.853
 6986POPC   GL227314  12.968  22.994   8.853
 6986POPC   C1A27315  12.814  22.967   8.553
 6986POPC   D2A27316  12.808  22.918   8.253
 6986POPC   C3A27317  12.897  22.972   7.953
 6986POPC   C4A27318  12.827  22.975   7.653
 6986POPC   C1B27319  13.058  23.123   8.553
 6986POPC   C2B27320  13.026  23.069   8.253
 6986POPC   C3B27321  13.044  23.055   7.953
 6986POPC   C4B27322  13.057  23.100   7.653
 6987POPC   NC327323   1.200  20.656   9.453
 6987POPC   PO427324   1.214  20.657   9.153
 6987POPC   GL127325   1.228  20.575   8.853
 6987POPC   GL227326   1.165  20.494   8.853
 6987POPC   C1A27327   1.217  20.594   8.553
 6987POPC   D2A27328   1.230  20.565   8.253
 6987POPC   C3A27329   1.208  20.626   7.953
 6987POPC   C4A27330   1.171  20.645   7.653
 6987POPC   C1B27331   1.062  20.467   8.553
 6987POPC   C2B27332   1.002  20.450   8.253
 6987POPC   C3B27333   1.044  20.434   7.953
 6987POPC   C4B27334   1.065  20.413   7.653
 6988POPC   NC327335  19.085  40.042   9.453
 6988POPC   PO427336  19.036  40.055   9.153
 6988POPC   GL127337  19.040  40.041   8.853
 6988POPC   GL227338  19.212  40.031   8.853
 6988POPC   C1A27339  19.067  39.999   8.553
 6988POPC   D2A27340  19.025  39.960   8.253
 6988POPC   C3A27341  19.014  40.053   7.953
 6988POPC   C4A27342  19.044  39.981   7.653
 6988POPC   C1B27343  19.282  39.966   8.553
 6988POPC   C2B27344  19.278  39.983   8.253
 6988POPC   C3B27345  19.311  39.969   7.953
 6988POPC   C4B27346  19.352  39.963   7.653
 6989POPC   NC327347   0.391   7.401   9.453
 6989POPC   PO427348   0.476   7.415   9.153
 6989POPC   GL127349   0.456   7.456   8.853
 6989POPC   GL227350   0.428   7.531   8.853
 6989POPC   C1A27351   0.461   7.382   8.553
 6989POPC   D2A27352   0.441   7.423   8.253
 6989POPC   C3A27353   0.442   7.405   7.953
 6989POPC   C4A27354   0.445   7.415   7.653
 6989POPC   C1B27355   0.348   7.646   8.553
 6989POPC   C2B27356   0.362   7.671   8.253
 6989POPC   C3B27357   0.352   7.694   7.953
 6989POPC   C4B27358   0.297   7.696   7.653
 6990POPC   NC327359  25.259  33.032   9.453
 6990POPC   PO427360  25.281  33.026   9.153
 6990POPC   GL127361  25.307  33.042   8.853
 6990POPC   GL227362  25.176  33.159   8.853
 6990POPC   C1A27363  25.314  32.976   8.553
 6990POPC   D2A27364  25.297  33.019   8.253
 6990POPC   C3A27365  25.246  33.015   7.953
 6990POPC   C4A27366  25.312  32.981   7.653
 6990POPC   C1B27367  25.119  33.235   8.553
 6990POPC   C2B27368  25.129  33.225   8.253
 6990POPC   C3B27369  25.194  33.216   7.953
 6990POPC   C4B27370  25.127  33.267   7.653
 6991POPC   NC327371  25.303  15.216   9.453
 6991POPC   PO427372  25.309  15.140   9.153
 6991POPC   GL127373  25.217  15.182   8.853
 6991POPC   GL227374  25.253  15.022   8.853
 6991POPC   C1A27375  25.216  15.131   8.553
 6991POPC   D2A27376  25.222  15.170   8.253
 6991POPC   C3A27377  25.243  15.145   7.953
 6991POPC   C4A27378  25.290  15.147   7.653
 6991POPC   C1B27379  25.252  14.959   8.553
 6991POPC   C2B27380  25.201  14.884   8.253
 6991POPC   C3B27381  25.267  14.919   7.953
 6991POPC   C4B27382  25.193  14.961   7.653
 6992POPC   NC327383   2.018  41.512   9.453
 6992POPC   PO427384   2.015  41.599   9.153
 6992POPC   GL127385   2.017  41.519   8.853
 6992POPC   GL227386   1.980  41.448   8.853
 6992POPC   C1A27387   1.967  41.605   8.553
 6992POPC   D2A27388   1.949  41.573   8.253
 6992POPC   C3A27389   2.014  41.583   7.953
 6992POPC   C4A27390   2.013  41.554   7.653
 6992POPC   C1B27391   1.932  41.264   8.553
 6992POPC   C2B27392   1.964  41.260   8.253
 6992POPC   C3B27393   1.959  41.323   7.953
 6992POPC   C4B27394   2.011  41.261   7.653
 6993POPC   NC327395  20.645   4.315   9.453
 6993POPC   PO427396  20.591   4.323   9.153
 6993POPC   GL127397  20.651   4.293   8.853
 6993POPC   GL227398  20.713   4.331   8.853
 6993POPC   C1A27399  20.569   4.277   8.553
 6993POPC   D2A27400  20.626   4.294   8.253
 6993POPC   C3A27401  20.602   4.321   7.953
 6993POPC   C4A27402  20.569   4.366   7.653
 6993POPC   C1B27403  20.854   4.266   8.553
 6993POPC   C2B27404  20.835   4.296   8.253
 6993POPC   C3B27405  20.831   4.242   7.953
 6993POPC   C4B27406  20.900   4.317   7.653
 6994POPC   NC327407  23.740   4.333   9.453
 6994POPC   PO427408  23.708   4.333   9.153
 6994POPC   GL127409  23.720   4.279   8.853
 6994POPC   GL227410  23.750   4.462   8.853
 6994POPC   C1A27411  23.675   4.330   8.553
 6994POPC   D2A27412  23.709   4.286   8.253
 6994POPC   C3A27413  23.673   4.340   7.953
 6994POPC   C4A27414  23.745   4.343   7.653
 6994POPC   C1B27415  23.779   4.569   8.553
 6994POPC   C2B27416  23.727   4.517   8.253
 6994POPC   C3B27417  23.766   4.595   7.953
 6994POPC   C4B27418  23.743   4.563   7.653
 6995POPC   NC327419  35.390  11.265   9.453
 6995POPC   PO427420  35.323  11.348   9.153
 6995POPC   GL127421  35.342  11.255   8.853
 6995POPC   GL227422  35.401  11.420   8.853
 6995POPC   C1A27423  35.337  11.345   8.553
 6995POPC   D2A27424  35.334  11.348   8.253
 6995POPC   C3A27425  35.358  11.334   7.953
 6995POPC   C4A27426  35.318  11.306   7.653
 6995POPC   C1B27427  35.378  11.590   8.553
 6995POPC   C2B27428  35.431  11.585   8.253
 6995POPC   C3B27429  35.442  11.500   7.953
 6995POPC   C4B27430  35.427  11.501   7.653
 6996POPC   NC327431  28.383   9.709   9.453
 6996POPC   PO427432  28.329   9.779   9.153
 6996POPC   GL127433  28.414   9.759   8.853
 6996POPC   GL227434  28.287   9.656   8.853
 6996POPC   C1A27435  28.373   9.709   8.553
 6996POPC   D2A27436  28.373   9.797   8.253
 6996POPC   C3A27437  28.382   9.745   7.953
 6996POPC   C4A27438  28.413   9.775   7.653
 6996POPC   C1B27439  28.156   9.602   8.553
 6996POPC   C2B27440  28.154   9.581   8.253
 6996POPC   C3B27441  28.218   9.627   7.953
 6996POPC   C4B27442  28.221   9.582   7.653
 6997POPC   NC327443   0.469  44.709   9.453
 6997POPC   PO427444   0.469  44.663   9.153
 6997POPC   GL127445   0.389  44.680   8.853
 6997POPC   GL227446   0.327  44.603   8.853
 6997POPC   C1A27447   0.406  44.695   8.553
 6997POPC   D2A27448   0.467  44.654   8.253
 6997POPC   C3A27449   0.486  44.629   7.953
 6997POPC   C4A27450   0.407  44.640   7.653
 6997POPC   C1B27451   0.187  44.601   8.553
 6997POPC   C2B27452   0.181  44.683   8.253
 6997POPC   C3B27453   0.211  44.657   7.953
 6997POPC   C4B27454   0.174  44.647   7.653
 6998POPC   NC327455   0.415  26.043   9.453
 6998POPC   PO427456   0.422  26.000   9.153
 6998POPC   GL127457   0.414  26.044   8.853
 6998POPC   GL227458   0.522  25.976   8.853
 6998POPC   C1A27459   0.409  26.085   8.553
 6998POPC   D2A27460   0.389  26.020   8.253
 6998POPC   C3A27461   0.411  26.012   7.953
 6998POPC   C4A27462   0.415  26.078   7.653
 6998POPC   C1B27463   0.636  25.807   8.553
 6998POPC   C2B27464   0.566  25.796   8.253
 6998POPC   C3B27465   0.585  25.864   7.953
 6998POPC   C4B27466   0.549  25.819   7.653
 6999POPC   NC327467   8.209  34.615   9.453
 6999POPC   PO427468   8.191  34.534   9.153
 6999POPC   GL127469   8.172  34.581   8.853
 6999POPC   GL227470   8.283  34.528   8.853
 6999POPC   C1A27471   8.210  34.619   8.553
 6999POPC   D2A27472   8.224  34.546   8.253
 6999POPC   C3A27473   8.181  34.531   7.953
 6999POPC   C4A27474   8.214  34.577   7.653
 6999POPC   C1B27475   8.459  34.439   8.553
 6999POPC   C2B27476   8.419  34.422   8.253
 6999POPC   C3B27477   8.378  34.482   7.953
 6999POPC   C4B27478   8.380  34.474   7.653
 7000POPC   NC327479   6.625   1.998   9.453
 7000POPC   PO427480   6.662   1.985   9.153
 7000POPC   GL127481   6.678   2.027   8.853
 7000POPC   GL227482   6.724   1.996   8.853
 7000POPC   C1A27483   6.599   1.996   8.553
 7000POPC   D2A27484   6.653   2.012   8.253
 7000POPC   C3A27485   6.638   2.037   7.953
 7000POPC   C4A27486   6.669   2.013   7.653
 7000POPC   C1B27487   6.937   2.012   8.553
 7000POPC   C2B27488   6.849   1.991   8.253
 7000POPC   C3B27489   6.864   2.044   7.953
 7000POPC   C4B27490   6.899   2.038   7.653
 7001POPC   NC327491  24.512  13.652   9.453
 7001POPC   PO427492  24.500  13.588   9.153
 7001POPC   GL127493  24.509  13.591   8.853
 7001POPC   GL227494  24.410  13.682   8.853
 7001POPC   C1A27495  24.538  13.643   8.553
 7001POPC   D2A27496  24.506  13.665   8.253
 7001POPC   C3A27497  24.526  13.630   7.953
 7001POPC   C4A27498  24.507  13.578   7.653
 7001POPC   C1B27499  24.299  13.799   8.553
 7001POPC   C2B27500  24.331  13.742   8.253
 7001POPC   C3B27501  24.319  13.792   7.953
 7001POPC   C4B27502  24.316  13.782   7.653
 7002POPC   NC327503   3.525  41.512   9.453
 7002POPC   PO427504   3.537  41.545   9.153
 7002POPC   GL127505   3.542  41.592   8.853
 7002POPC   GL227506   3.654  41.549   8.853
 7002POPC   C1A27507   3.494  41.550   8.553
 7002POPC   D2A27508   3.574  41.571   8.253
 7002POPC   C3A27509   3.569  41.561   7.953
 7002POPC   C4A27510   3.532  41.572   7.653
 7002POPC   C1B27511   3.756  41.563   8.553
 7002POPC   C2B27512   3.785  41.574   8.253
 7002POPC   C3B27513   3.840  41.571   7.953
 7002POPC   C4B27514   3.784  41.574   7.653
 7003POPC   NC327515  43.868  14.419   9.453
 7003POPC   PO427516  43.881  14.452   9.153
 7003POPC   GL127517  43.850  14.382   8.853
 7003POPC   GL227518  44.003  14.417   8.853
 7003POPC   C1A27519  43.840  14.360   8.553
 7003POPC   D2A27520  43.852  14.383   8.253
 7003POPC   C3A27521  43.887  14.355   7.953
 7003POPC   C4A27522  43.897  14.443   7.653
 7003POPC   C1B27523  44.162  14.481   8.553
 7003POPC   C2B27524  44.128  14.511   8.253
 7003POPC   C3B27525  44.140  14.475   7.953
 7003POPC   C4B27526  44.100  14.461   7.653
 7004POPC   NC327527  25.224  12.062   9.453
 7004POPC   PO427528  25.237  12.086   9.153
 7004POPC   GL127529  25.298  12.124   8.853
 7004POPC   GL227530  25.366  12.221   8.853
 7004POPC   C1A27531  25.290  12.068   8.553
 7004POPC   D2A27532  25.262  12.068   8.253
 7004POPC   C3A27533  25.307  12.074   7.953
 7004POPC   C4A27534  25.282  12.078   7.653
 7004POPC   C1B27535  25.447  12.302   8.553
 7004POPC   C2B27536  25.435  12.298   8.253
 7004POPC   C3B27537  25.425  12.250   7.953
 7004POPC   C4B27538  25.366  12.310   7.653
 7005POPC   NC327539   5.866  17.485   9.453
 7005POPC   PO427540   5.907  17.465   9.153
 7005POPC   GL127541   5.916  17.498   8.853
 7005POPC   GL227542   5.786  17.541   8.853
 7005POPC   C1A27543   5.857  17.464   8.553
 7005POPC   D2A27544   5.840  17.526   8.253
 7005POPC   C3A27545   5.823  17.551   7.953
 7005POPC   C4A27546   5.873  17.474   7.653
 7005POPC   C1B27547   5.662  17.490   8.553
 7005POPC   C2B27548   5.646  17.527   8.253
 7005POPC   C3B27549   5.662  17.483   7.953
 7005POPC   C4B27550   5.612  17.468   7.653
 7006POPC   NC327551  24.449  29.891   9.453
 7006POPC   PO427552  24.532  29.880   9.153
 7006POPC   GL127553  24.520  29.950   8.853
 7006POPC   GL227554  24.329  29.987   8.853
 7006POPC   C1A27555  24.453  29.893   8.553
 7006POPC   D2A27556  24.494  29.921   8.253
 7006POPC   C3A27557  24.441  29.890   7.953
 7006POPC   C4A27558  24.452  29.962   7.653
 7006POPC   C1B27559  24.317  30.086   8.553
 7006POPC   C2B27560  24.244  30.041   8.253
 7006POPC   C3B27561  24.297  30.068   7.953
 7006POPC   C4B27562  24.248  30.055   7.653
 7007POPC   NC327563  27.642  35.342   9.453
 7007POPC   PO427564  27.621  35.353   9.153
 7007POPC   GL127565  27.632  35.397   8.853
 7007POPC   GL227566  27.749  35.282   8.853
 7007POPC   C1A27567  27.625  35.357   8.553
 7007POPC   D2A27568  27.628  35.394   8.253
 7007POPC   C3A27569  27.625  35.319   7.953
 7007POPC   C4A27570  27.566  35.306   7.653
 7007POPC   C1B27571  27.854  35.258   8.553
 7007POPC   C2B27572  27.879  35.309   8.253
 7007POPC   C3B27573  27.877  35.246   7.953
 7007POPC   C4B27574  27.804  35.225   7.653
 7008POPC   NC327575  42.352  40.758   9.453
 7008POPC   PO427576  42.300  40.753   9.153
 7008POPC   GL127577  42.325  40.779   8.853
 7008POPC   GL227578  42.450  40.718   8.853
 7008POPC   C1A27579  42.353  40.771   8.553
 7008POPC   D2A27580  42.347  40.744   8.253
 7008POPC   C3A27581  42.308  40.824   7.953
 7008POPC   C4A27582  42.364  40.814   7.653
 7008POPC   C1B27583  42.571  40.655   8.553
 7008POPC   C2B27584  42.591  40.645   8.253
 7008POPC   C3B27585  42.599  40.698   7.953
 7008POPC   C4B27586  42.545  40.664   7.653
 7009POPC   NC327587  44.695  19.828   9.453
 7009POPC   PO427588  44.620  19.855   9.153
 7009POPC   GL127589  44.632  19.821   8.853
 7009POPC   GL227590  44.757  19.768   8.853
 7009POPC   C1A27591  44.655  19.807   8.553
 7009POPC   D2A27592  44.653  19.792   8.253
 7009POPC   C3A27593  44.666  19.810   7.953
 7009POPC   C4A27594  44.655  19.861   7.653
 7009POPC   C1B27595  44.871  19.665   8.553
 7009POPC   C2B27596  44.840  19.655   8.253
 7009POPC   C3B27597  44.825  19.663   7.953
 7009POPC   C4B27598  44.830  19.707   7.653
 7010POPC   NC327599   2.010  16.749   9.453
 7010POPC   PO427600   1.994  16.709   9.153
 7010POPC   GL127601   1.952  16.686   8.853
 7010POPC   GL227602   2.063  16.709   8.853
 7010POPC   C1A27603   2.010  16.733   8.553
 7010POPC   D2A27604   1.971  16.711   8.253
 7010POPC   C3A27605   2.032  16.695   7.953
 7010POPC   C4A27606   1.973  16.726   7.653
 7010POPC   C1B27607   2.214  16.585   8.553
 7010POPC   C2B27608   2.185  16.577   8.253
 7010POPC   C3B27609   2.210  16.607   7.953
 7010POPC   C4B27610   2.195  16.641   7.653
 7011POPC   NC327611  18.264   8.213   9.453
 7011POPC   PO427612  18.330   8.158   9.153
 7011POPC   GL127613  18.317   8.170   8.853
 7011POPC   GL227614  18.249   8.294   8.853
 7011POPC   C1A27615  18.293   8.183   8.553
 7011POPC   D2A27616  18.249   8.157   8.253
 7011POPC   C3A27617  18.257   8.210   7.953
 7011POPC   C4A27618  18.318   8.161   7.653
 7011POPC   C1B27619  18.283   8.443   8.553
 7011POPC   C2B27620  18.281   8.429   8.253
 7011POPC   C3B27621  18.274   8.421   7.953
 7011POPC   C4B27622  18.266   8.439   7.653
 7012POPC   NC327623   0.446  28.388   9.453
 7012POPC   PO427624   0.442  28.416   9.153
 7012POPC   GL127625   0.473  28.383   8.853
 7012POPC   GL227626   0.456  28.541   8.853
 7012POPC   C1A27627   0.416  28.403   8.553
 7012POPC   D2A27628   0.397  28.385   8.253
 7012POPC   C3A27629   0.462  28.343   7.953
 7012POPC   C4A27630   0.466  28.332   7.653
 7012POPC   C1B27631   0.409  28.651   8.553
 7012POPC   C2B27632   0.438  28.582   8.253
 7012POPC   C3B27633   0.407  28.607   7.953
 7012POPC   C4B27634   0.401  28.573   7.653
 7013POPC   NC327635  26.070  33.753   9.453
 7013POPC   PO427636  26.061  33.793   9.153
 7013POPC   GL127637  26.045  33.771   8.853
 7013POPC   GL227638  26.109  33.856   8.853
 7013POPC   C1A27639  26.061  33.819   8.553
 7013POPC   D2A27640  25.996  33.838   8.253
 7013POPC   C3A27641  26.024  33.794   7.953
 7013POPC   C4A27642  26.035  33.810   7.653
 7013POPC   C1B27643  26.264  33.942   8.553
 7013POPC   C2B27644  26.251  33.888   8.253
 7013POPC   C3B27645  26.209  33.935   7.953
 7013POPC   C4B27646  26.239  33.943   7.653
 7014POPC   NC327647  34.531  37.631   9.453
 7014POPC   PO427648  34.553  37.715   9.153
 7014POPC   GL127649  34.608  37.665   8.853
 7014POPC   GL227650  34.454  37.629   8.853
 7014POPC   C1A27651  34.572  37.705   8.553
 7014POPC   D2A27652  34.613  37.646   8.253
 7014POPC   C3A27653  34.587  37.690   7.953
 7014POPC   C4A27654  34.541  37.633   7.653
 7014POPC   C1B27655  34.369  37.504   8.553
 7014POPC   C2B27656  34.402  37.598   8.253
 7014POPC   C3B27657  34.315  37.573   7.953
 7014POPC   C4B27658  34.343  37.529   7.653
 7015POPC   NC327659  13.631  27.588   9.453
 7015POPC   PO427660  13.666  27.613   9.153
 7015POPC   GL127661  13.598  27.614   8.853
 7015POPC   GL227662  13.679  27.659   8.853
 7015POPC   C1A27663  13.667  27.546   8.553
 7015POPC   D2A27664  13.599  27.614   8.253
 7015POPC   C3A27665  13.586  27.630   7.953
 7015POPC   C4A27666  13.593  27.553   7.653
 7015POPC   C1B27667  13.720  27.808   8.553
 7015POPC   C2B27668  13.794  27.769   8.253
 7015POPC   C3B27669  13.789  27.794   7.953
 7015POPC   C4B27670  13.807  27.768   7.653
 7016POPC   NC327671  29.136  12.029   9.453
 7016POPC   PO427672  29.141  12.080   9.153
 7016POPC   GL127673  29.118  12.060   8.853
 7016POPC   GL227674  29.311  12.078   8.853
 7016POPC   C1A27675  29.150  12.077   8.553
 7016POPC   D2A27676  29.188  12.120   8.253
 7016POPC   C3A27677  29.142  12.081   7.953
 7016POPC   C4A27678  29.155  12.114   7.653
 7016POPC   C1B27679  29.434  12.083   8.553
 7016POPC   C2B27680  29.381  12.092   8.253
 7016POPC   C3B27681  29.429  12.010   7.953
 7016POPC   C4B27682  29.362  12.091   7.653
 7017POPC   NC327683  12.849  36.910   9.453
 7017POPC   PO427684  12.886  36.858   9.153
 7017POPC   GL127685  12.877  36.915   8.853
 7017POPC   GL227686  12.764  37.032   8.853
 7017POPC   C1A27687  12.884  36.855   8.553
 7017POPC   D2A27688  12.900  36.876   8.253
 7017POPC   C3A27689  12.869  36.952   7.953
 7017POPC   C4A27690  12.837  36.885   7.653
 7017POPC   C1B27691  12.704  37.123   8.553
 7017POPC   C2B27692  12.710  37.143   8.253
 7017POPC   C3B27693  12.726  37.081   7.953
 7017POPC   C4B27694  12.742  37.155   7.653
 7018POPC   NC327695  29.116  43.913   9.453
 7018POPC   PO427696  29.120  43.902   9.153
 7018POPC   GL127697  29.125  43.909   8.853
 7018POPC   GL227698  29.240  43.890   8.853
 7018POPC   C1A27699  29.142  43.928   8.553
 7018POPC   D2A27700  29.158  43.894   8.253
 7018POPC   C3A27701  29.192  43.839   7.953
 7018POPC   C4A27702  29.195  43.870   7.653
 7018POPC   C1B27703  29.378  44.018   8.553
 7018POPC   C2B27704  29.390  43.978   8.253
 7018POPC   C3B27705  29.419  44.029   7.953
 7018POPC   C4B27706  29.336  43.966   7.653
 7019POPC   NC327707   2.021   9.003   9.453
 7019POPC   PO427708   1.998   8.954   9.153
 7019POPC   GL127709   1.966   8.950   8.853
 7019POPC   GL227710   1.938   9.099   8.853
 7019POPC   C1A27711   2.014   8.941   8.553
 7019POPC   D2A27712   1.987   9.006   8.253
 7019POPC   C3A27713   2.007   9.013   7.953
 7019POPC   C4A27714   1.944   8.964   7.653
 7019POPC   C1B27715   1.913   9.224   8.553
 7019POPC   C2B27716   1.976   9.219   8.253
 7019POPC   C3B27717   1.968   9.219   7.953
 7019POPC   C4B27718   1.966   9.190   7.653
 7020POPC   NC327719  32.983  28.392   9.453
 7020POPC   PO427720  33.005  28.365   9.153
 7020POPC   GL127721  32.987  28.417   8.853
 7020POPC   GL227722  32.941  28.368   8.853
 7020POPC   C1A27723  32.975  28.413   8.553
 7020POPC   D2A27724  32.989  28.370   8.253
 7020POPC   C3A27725  33.004  28.350   7.953
 7020POPC   C4A27726  32.995  28.398   7.653
 7020POPC   C1B27727  32.813  28.481   8.553
 7020POPC   C2B27728  32.800  28.484   8.253
 7020POPC   C3B27729  32.798  28.478   7.953
 7020POPC   C4B27730  32.751  28.482   7.653
 7021POPC   NC327731  21.414  38.453   9.453
 7021POPC   PO427732  21.337  38.484   9.153
 7021POPC   GL127733  21.405  38.406   8.853
 7021POPC   GL227734  21.340  38.488   8.853
 7021POPC   C1A27735  21.411  38.434   8.553
 7021POPC   D2A27736  21.355  38.409   8.253
 7021POPC   C3A27737  21.432  38.443   7.953
 7021POPC   C4A27738  21.426  38.444   7.653
 7021POPC   C1B27739  21.149  38.578   8.553
 7021POPC   C2B27740  21.197  38.580   8.253
 7021POPC   C3B27741  21.152  38.600   7.953
 7021POPC   C4B27742  21.202  38.656   7.653
 7022POPC   NC327743  25.295   5.846   9.453
 7022POPC   PO427744  25.286   5.821   9.153
 7022POPC   GL127745  25.290   5.867   8.853
 7022POPC   GL227746  25.284   5.753   8.853
 7022POPC   C1A27747  25.281   5.832   8.553
 7022POPC   D2A27748  25.306   5.856   8.253
 7022POPC   C3A27749  25.312   5.837   7.953
 7022POPC   C4A27750  25.217   5.820   7.653
 7022POPC   C1B27751  25.305   5.592   8.553
 7022POPC   C2B27752  25.320   5.644   8.253
 7022POPC   C3B27753  25.293   5.606   7.953
 7022POPC   C4B27754  25.327   5.578   7.653
 7023POPC   NC327755  22.903  41.512   9.453
 7023POPC   PO427756  22.908  41.545   9.153
 7023POPC   GL127757  22.899  41.547   8.853
 7023POPC   GL227758  23.036  41.492   8.853
 7023POPC   C1A27759  22.920  41.569   8.553
 7023POPC   D2A27760  22.911  41.541   8.253
 7023POPC   C3A27761  22.892  41.557   7.953
 7023POPC   C4A27762  22.928  41.576   7.653
 7023POPC   C1B27763  23.121  41.410   8.553
 7023POPC   C2B27764  23.149  41.486   8.253
 7023POPC   C3B27765  23.173  41.432   7.953
 7023POPC   C4B27766  23.163  41.417   7.653
 7024POPC   NC327767  21.434  22.183   9.453
 7024POPC   PO427768  21.358  22.185   9.153
 7024POPC   GL127769  21.376  22.128   8.853
 7024POPC   GL227770  21.296  22.098   8.853
 7024POPC   C1A27771  21.431  22.135   8.553
 7024POPC   D2A27772  21.379  22.155   8.253
 7024POPC   C3A27773  21.361  22.176   7.953
 7024POPC   C4A27774  21.348  22.116   7.653
 7024POPC   C1B27775  21.132  22.119   8.553
 7024POPC   C2B27776  21.120  22.128   8.253
 7024POPC   C3B27777  21.117  22.058   7.953
 7024POPC   C4B27778  21.182  22.118   7.653
 7025POPC   NC327779  10.476  10.507   9.453
 7025POPC   PO427780  10.483  10.526   9.153
 7025POPC   GL127781  10.574  10.540   8.853
 7025POPC   GL227782  10.555  10.398   8.853
 7025POPC   C1A27783  10.567  10.569   8.553
 7025POPC   D2A27784  10.512  10.533   8.253
 7025POPC   C3A27785  10.518  10.543   7.953
 7025POPC   C4A27786  10.519  10.501   7.653
 7025POPC   C1B27787  10.636  10.363   8.553
 7025POPC   C2B27788  10.685  10.359   8.253
 7025POPC   C3B27789  10.690  10.298   7.953
 7025POPC   C4B27790  10.676  10.370   7.653
 7026POPC   NC327791  15.134   5.071   9.453
 7026POPC   PO427792  15.156   5.094   9.153
 7026POPC   GL127793  15.171   5.101   8.853
 7026POPC   GL227794  15.087   5.107   8.853
 7026POPC   C1A27795  15.223   5.054   8.553
 7026POPC   D2A27796  15.205   5.080   8.253
 7026POPC   C3A27797  15.189   5.123   7.953
 7026POPC   C4A27798  15.185   5.069   7.653
 7026POPC   C1B27799  14.898   5.046   8.553
 7026POPC   C2B27800  14.952   5.048   8.253
 7026POPC   C3B27801  14.954   5.016   7.953
 7026POPC   C4B27802  14.945   5.039   7.653
 7027POPC   NC327803  32.198   4.290   9.453
 7027POPC   PO427804  32.211   4.273   9.153
 7027POPC   GL127805  32.234   4.308   8.853
 7027POPC   GL227806  32.196   4.363   8.853
 7027POPC   C1A27807  32.238   4.270   8.553
 7027POPC   D2A27808  32.265   4.293   8.253
 7027POPC   C3A27809  32.267   4.321   7.953
 7027POPC   C4A27810  32.245   4.318   7.653
 7027POPC   C1B27811  32.081   4.550   8.553
 7027POPC   C2B27812  32.034   4.485   8.253
 7027POPC   C3B27813  32.036   4.552   7.953
 7027POPC   C4B27814  32.065   4.490   7.653
 7028POPC   NC327815  21.406  36.120   9.453
 7028POPC   PO427816  21.406  36.139   9.153
 7028POPC   GL127817  21.382  36.159   8.853
 7028POPC   GL227818  21.317  36.277   8.853
 7028POPC   C1A27819  21.344  36.129   8.553
 7028POPC   D2A27820  21.390  36.137   8.253
 7028POPC   C3A27821  21.432  36.165   7.953
 7028POPC   C4A27822  21.340  36.173   7.653
 7028POPC   C1B27823  21.304  36.386   8.553
 7028POPC   C2B27824  21.298  36.348   8.253
 7028POPC   C3B27825  21.282  36.382   7.953
 7028POPC   C4B27826  21.294  36.339   7.653
 7029POPC   NC327827  19.827  29.120   9.453
 7029POPC   PO427828  19.846  29.158   9.153
 7029POPC   GL127829  19.791  29.136   8.853
 7029POPC   GL227830  19.943  29.236   8.853
 7029POPC   C1A27831  19.884  29.148   8.553
 7029POPC   D2A27832  19.818  29.191   8.253
 7029POPC   C3A27833  19.797  29.183   7.953
 7029POPC   C4A27834  19.851  29.154   7.653
 7029POPC   C1B27835  20.071  29.357   8.553
 7029POPC   C2B27836  20.059  29.304   8.253
 7029POPC   C3B27837  20.066  29.266   7.953
 7029POPC   C4B27838  20.056  29.285   7.653
 7030POPC   NC327839  16.744  22.193   9.453
 7030POPC   PO427840  16.739  22.178   9.153
 7030POPC   GL127841  16.740  22.145   8.853
 7030POPC   GL227842  16.592  22.139   8.853
 7030POPC   C1A27843  16.704  22.210   8.553
 7030POPC   D2A27844  16.768  22.174   8.253
 7030POPC   C3A27845  16.778  22.187   7.953
 7030POPC   C4A27846  16.779  22.131   7.653
 7030POPC   C1B27847  16.465  22.080   8.553
 7030POPC   C2B27848  16.492  22.071   8.253
 7030POPC   C3B27849  16.501  22.084   7.953
 7030POPC   C4B27850  16.471  22.062   7.653
 7031POPC   NC327851  10.513   1.959   9.453
 7031POPC   PO427852  10.530   2.037   9.153
 7031POPC   GL127853  10.566   1.985   8.853
 7031POPC   GL227854  10.639   2.080   8.853
 7031POPC   C1A27855  10.534   2.005   8.553
 7031POPC   D2A27856  10.543   1.998   8.253
 7031POPC   C3A27857  10.520   1.962   7.953
 7031POPC   C4A27858  10.487   1.978   7.653
 7031POPC   C1B27859  10.712   2.160   8.553
 7031POPC   C2B27860  10.697   2.126   8.253
 7031POPC   C3B27861  10.752   2.154   7.953
 7031POPC   C4B27862  10.720   2.183   7.653
 7032POPC   NC327863   1.957  27.631   9.453
 7032POPC   PO427864   2.024  27.553   9.153
 7032POPC   GL127865   1.972  27.634   8.853
 7032POPC   GL227866   1.977  27.704   8.853
 7032POPC   C1A27867   1.973  27.564   8.553
 7032POPC   D2A27868   1.998  27.544   8.253
 7032POPC   C3A27869   2.011  27.546   7.953
 7032POPC   C4A27870   1.949  27.549   7.653
 7032POPC   C1B27871   1.975  27.794   8.553
 7032POPC   C2B27872   1.979  27.859   8.253
 7032POPC   C3B27873   2.034  27.813   7.953
 7032POPC   C4B27874   2.065  27.815   7.653
 7033POPC   NC327875  26.810  19.811   9.453
 7033POPC   PO427876  26.837  19.844   9.153
 7033POPC   GL127877  26.843  19.857   8.853
 7033POPC   GL227878  26.702  19.805   8.853
 7033POPC   C1A27879  26.834  19.881   8.553
 7033POPC   D2A27880  26.782  19.882   8.253
 7033POPC   C3A27881  26.839  19.789   7.953
 7033POPC   C4A27882  26.790  19.859   7.653
 7033POPC   C1B27883  26.611  19.828   8.553
 7033POPC   C2B27884  26.610  19.812   8.253
 7033POPC   C3B27885  26.525  19.819   7.953
 7033POPC   C4B27886  26.614  19.847   7.653
 7034POPC   NC327887  27.602   9.743   9.453
 7034POPC   PO427888  27.579   9.787   9.153
 7034POPC   GL127889  27.610   9.737   8.853
 7034POPC   GL227890  27.732   9.722   8.853
 7034POPC   C1A27891  27.600   9.731   8.553
 7034POPC   D2A27892  27.561   9.751   8.253
 7034POPC   C3A27893  27.546   9.769   7.953
 7034POPC   C4A27894  27.566   9.757   7.653
 7034POPC   C1B27895  27.861   9.734   8.553
 7034POPC   C2B27896  27.819   9.806   8.253
 7034POPC   C3B27897  27.855   9.769   7.953
 7034POPC   C4B27898  27.821   9.785   7.653
 7035POPC   NC327899  42.318  40.056   9.453
 7035POPC   PO427900  42.353  39.982   9.153
 7035POPC   GL127901  42.367  40.001   8.853
 7035POPC   GL227902  42.250  40.092   8.853
 7035POPC   C1A27903  42.375  40.025   8.553
 7035POPC   D2A27904  42.332  39.969   8.253
 7035POPC   C3A27905  42.297  40.053   7.953
 7035POPC   C4A27906  42.335  40.001   7.653
 7035POPC   C1B27907  42.073  40.147   8.553
 7035POPC   C2B27908  42.131  40.145   8.253
 7035POPC   C3B27909  42.054  40.078   7.953
 7035POPC   C4B27910  42.115  40.091   7.653
 7036POPC   NC327911  24.450   3.549   9.453
 7036POPC   PO427912  24.523   3.521   9.153
 7036POPC   GL127913  24.532   3.580   8.853
 7036POPC   GL227914  24.419   3.568   8.853
 7036POPC   C1A27915  24.512   3.521   8.553
 7036POPC   D2A27916  24.469   3.537   8.253
 7036POPC   C3A27917  24.535   3.555   7.953
 7036POPC   C4A27918  24.502   3.493   7.653
 7036POPC   C1B27919  24.217   3.616   8.553
 7036POPC   C2B27920  24.239   3.647   8.253
 7036POPC   C3B27921  24.235   3.573   7.953
 7036POPC   C4B27922  24.261   3.631   7.653
 7037POPC   NC327923  37.693  33.040   9.453
 7037POPC   PO427924  37.665  32.975   9.153
 7037POPC   GL127925  37.723  33.007   8.853
 7037POPC   GL227926  37.586  33.125   8.853
 7037POPC   C1A27927  37.662  32.980   8.553
 7037POPC   D2A27928  37.633  32.980   8.253
 7037POPC   C3A27929  37.704  32.982   7.953
 7037POPC   C4A27930  37.648  33.030   7.653
 7037POPC   C1B27931  37.492  33.238   8.553
 7037POPC   C2B27932  37.514  33.243   8.253
 7037POPC   C3B27933  37.514  33.220   7.953
 7037POPC   C4B27934  37.469  33.208   7.653
 7038POPC   NC327935  21.405  19.874   9.453
 7038POPC   PO427936  21.367  19.874   9.153
 7038POPC   GL127937  21.383  19.839   8.853
 7038POPC   GL227938  21.306  19.747   8.853
 7038POPC   C1A27939  21.426  19.832   8.553
 7038POPC   D2A27940  21.350  19.884   8.253
 7038POPC   C3A27941  21.390  19.803   7.953
 7038POPC   C4A27942  21.340  19.786   7.653
 7038POPC   C1B27943  21.234  19.637   8.553
 7038POPC   C2B27944  21.276  19.663   8.253
 7038POPC   C3B27945  21.222  19.668   7.953
 7038POPC   C4B27946  21.286  19.637   7.653
 7039POPC   NC327947  41.552   0.428   9.453
 7039POPC   PO427948  41.583   0.407   9.153
 7039POPC   GL127949  41.512   0.412   8.853
 7039POPC   GL227950  41.607   0.277   8.853
 7039POPC   C1A27951  41.523   0.470   8.553
 7039POPC   D2A27952  41.527   0.461   8.253
 7039POPC   C3A27953  41.596   0.451   7.953
 7039POPC   C4A27954  41.527   0.400   7.653
 7039POPC   C1B27955  41.699   0.241   8.553
 7039POPC   C2B27956  41.679   0.175   8.253
 7039POPC   C3B27957  41.636   0.221   7.953
 7039POPC   C4B27958  41.693   0.187   7.653
 7040POPC   NC327959  12.860   5.141   9.453
 7040POPC   PO427960  12.890   5.102   9.153
 7040POPC   GL127961  12.889   5.087   8.853
 7040POPC   GL227962  12.898   5.202   8.853
 7040POPC   C1A27963  12.814   5.055   8.553
 7040POPC   D2A27964  12.820   5.138   8.253
 7040POPC   C3A27965  12.866   5.099   7.953
 7040POPC   C4A27966  12.838   5.060   7.653
 7040POPC   C1B27967  12.925   5.334   8.553
 7040POPC   C2B27968  12.909   5.367   8.253
 7040POPC   C3B27969  12.908   5.307   7.953
 7040POPC   C4B27970  12.872   5.373   7.653
 7041POPC   NC327971  23.761  20.614   9.453
 7041POPC   PO427972  23.736  20.638   9.153
 7041POPC   GL127973  23.693  20.572   8.853
 7041POPC   GL227974  23.802  20.756   8.853
 7041POPC   C1A27975  23.674  20.617   8.553
 7041POPC   D2A27976  23.725  20.652   8.253
 7041POPC   C3A27977  23.687  20.611   7.953
 7041POPC   C4A27978  23.679  20.627   7.653
 7041POPC   C1B27979  23.829  20.834   8.553
 7041POPC   C2B27980  23.799  20.806   8.253
 7041POPC   C3B27981  23.791  20.779   7.953
 7041POPC   C4B27982  23.857  20.789   7.653
 7042POPC   NC327983  29.100   2.718   9.453
 7042POPC   PO427984  29.102   2.735   9.153
 7042POPC   GL127985  29.112   2.804   8.853
 7042POPC   GL227986  29.214   2.604   8.853
 7042POPC   C1A27987  29.131   2.808   8.553
 7042POPC   D2A27988  29.173   2.753   8.253
 7042POPC   C3A27989  29.168   2.786   7.953
 7042POPC   C4A27990  29.156   2.777   7.653
 7042POPC   C1B27991  29.225   2.502   8.553
 7042POPC   C2B27992  29.272   2.547   8.253
 7042POPC   C3B27993  29.236   2.583   7.953
 7042POPC   C4B27994  29.283   2.501   7.653
 7043POPC   NC327995  12.857  19.867   9.453
 7043POPC   PO427996  12.869  19.833   9.153
 7043POPC   GL127997  12.862  19.855   8.853
 7043POPC   GL227998  12.842  19.959   8.853
 7043POPC   C1A27999  12.883  19.884   8.553
 7043POPC   D2A28000  12.839  19.822   8.253
 7043POPC   C3A28001  12.875  19.801   7.953
 7043POPC   C4A28002  12.832  19.815   7.653
 7043POPC   C1B28003  12.821  20.127   8.553
 7043POPC   C2B28004  12.898  20.130   8.253
 7043POPC   C3B28005  12.833  20.093   7.953
 7043POPC   C4B28006  12.815  20.051   7.653
 7044POPC   NC328007  14.393  32.272   9.453
 7044POPC   PO428008  14.425  32.240   9.153
 7044POPC   GL128009  14.387  32.236   8.853
 7044POPC   GL228010  14.511  32.302   8.853
 7044POPC   C1A28011  14.367  32.279   8.553
 7044POPC   D2A28012  14.395  32.265   8.253
 7044POPC   C3A28013  14.364  32.267   7.953
 7044POPC   C4A28014  14.445  32.288   7.653
 7044POPC   C1B28015  14.587  32.438   8.553
 7044POPC   C2B28016  14.615  32.402   8.253
 7044POPC   C3B28017  14.590  32.358   7.953
 7044POPC   C4B28018  14.588  32.361   7.653
 7045POPC   NC328019  18.267  44.688   9.453
 7045POPC   PO428020  18.312  44.682   9.153
 7045POPC   GL128021  18.235  44.658   8.853
 7045POPC   GL228022  18.213  44.799   8.853
 7045POPC   C1A28023  18.260  44.677   8.553
 7045POPC   D2A28024  18.258  44.693   8.253
 7045POPC   C3A28025  18.318  44.676   7.953
 7045POPC   C4A28026  18.328  44.650   7.653
 7045POPC   C1B28027  18.172  44.858   8.553
 7045POPC   C2B28028  18.174  44.838   8.253
 7045POPC   C3B28029  18.174  44.875   7.953
 7045POPC   C4B28030  18.130  44.826   7.653
 7046POPC   NC328031  44.688  23.669   9.453
 7046POPC   PO428032  44.653  23.737   9.153
 7046POPC   GL128033  44.662  23.743   8.853
 7046POPC   GL228034  44.617  23.868   8.853
 7046POPC   C1A28035  44.690  23.664   8.553
 7046POPC   D2A28036  44.619  23.706   8.253
 7046POPC   C3A28037  44.632  23.724   7.953
 7046POPC   C4A28038  44.629  23.726   7.653
 7046POPC   C1B28039  44.623  23.995   8.553
 7046POPC   C2B28040  44.543  23.950   8.253
 7046POPC   C3B28041  44.632  23.931   7.953
 7046POPC   C4B28042  44.568  23.925   7.653
 7047POPC   NC328043   9.795   2.769   9.453
 7047POPC   PO428044   9.727   2.720   9.153
 7047POPC   GL128045   9.751   2.751   8.853
 7047POPC   GL228046   9.619   2.864   8.853
 7047POPC   C1A28047   9.746   2.721   8.553
 7047POPC   D2A28048   9.733   2.781   8.253
 7047POPC   C3A28049   9.789   2.795   7.953
 7047POPC   C4A28050   9.758   2.813   7.653
 7047POPC   C1B28051   9.593   2.912   8.553
 7047POPC   C2B28052   9.563   2.903   8.253
 7047POPC   C3B28053   9.554   2.968   7.953
 7047POPC   C4B28054   9.602   2.962   7.653
 7048POPC   NC328055   3.503  29.892   9.453
 7048POPC   PO428056   3.550  29.927   9.153
 7048POPC   GL128057   3.507  29.899   8.853
 7048POPC   GL228058   3.617  29.758   8.853
 7048POPC   C1A28059   3.518  29.948   8.553
 7048POPC   D2A28060   3.578  29.892   8.253
 7048POPC   C3A28061   3.507  29.917   7.953
 7048POPC   C4A28062   3.532  29.919   7.653
 7048POPC   C1B28063   3.605  29.653   8.553
 7048POPC   C2B28064   3.573  29.697   8.253
 7048POPC   C3B28065   3.610  29.661   7.953
 7048POPC   C4B28066   3.635  29.706   7.653
 7049POPC   NC328067  27.544  11.315   9.453
 7049POPC   PO428068  27.625  11.260   9.153
 7049POPC   GL128069  27.544  11.308   8.853
 7049POPC   GL228070  27.494  11.381   8.853
 7049POPC   C1A28071  27.572  11.315   8.553
 7049POPC   D2A28072  27.639  11.300   8.253
 7049POPC   C3A28073  27.578  11.312   7.953
 7049POPC   C4A28074  27.589  11.327   7.653
 7049POPC   C1B28075  27.427  11.436   8.553
 7049POPC   C2B28076  27.432  11.418   8.253
 7049POPC   C3B28077  27.424  11.464   7.953
 7049POPC   C4B28078  27.398  11.429   7.653
 7050POPC   NC328079  35.321  20.648   9.453
 7050POPC   PO428080  35.401  20.653   9.153
 7050POPC   GL128081  35.310  20.631   8.853
 7050POPC   GL228082  35.362  20.721   8.853
 7050POPC   C1A28083  35.395  20.598   8.553
 7050POPC   D2A28084  35.304  20.611   8.253
 7050POPC   C3A28085  35.367  20.635   7.953
 7050POPC   C4A28086  35.389  20.636   7.653
 7050POPC   C1B28087  35.340  20.825   8.553
 7050POPC   C2B28088  35.299  20.819   8.253
 7050POPC   C3B28089  35.325  20.804   7.953
 7050POPC   C4B28090  35.305  20.882   7.653
 7051POPC   NC328091  43.122  40.024   9.453
 7051POPC   PO428092  43.119  40.046   9.153
 7051POPC   GL128093  43.119  40.052   8.853
 7051POPC   GL228094  43.059  39.911   8.853
 7051POPC   C1A28095  43.131  40.020   8.553
 7051POPC   D2A28096  43.157  40.020   8.253
 7051POPC   C3A28097  43.154  39.963   7.953
 7051POPC   C4A28098  43.158  40.022   7.653
 7051POPC   C1B28099  43.084  39.786   8.553
 7051POPC   C2B28100  43.063  39.779   8.253
 7051POPC   C3B28101  43.083  39.776   7.953
 7051POPC   C4B28102  43.066  39.809   7.653
 7052POPC   NC328103   4.299  15.952   9.453
 7052POPC   PO428104   4.279  15.953   9.153
 7052POPC   GL128105   4.340  15.979   8.853
 7052POPC   GL228106   4.475  15.904   8.853
 7052POPC   C1A28107   4.329  15.941   8.553
 7052POPC   D2A28108   4.336  15.978   8.253
 7052POPC   C3A28109   4.317  15.969   7.953
 7052POPC   C4A28110   4.363  15.977   7.653
 7052POPC   C1B28111   4.552  15.840   8.553
 7052POPC   C2B28112   4.543  15.914   8.253
 7052POPC   C3B28113   4.564  15.837   7.953
 7052POPC   C4B28114   4.595  15.875   7.653
 7053POPC   NC328115  23.722  31.522   9.453
 7053POPC   PO428116  23.727  31.490   9.153
 7053POPC   GL128117  23.688  31.518   8.853
 7053POPC   GL228118  23.807  31.386   8.853
 7053POPC   C1A28119  23.688  31.520   8.553
 7053POPC   D2A28120  23.718  31.433   8.253
 7053POPC   C3A28121  23.682  31.513   7.953
 7053POPC   C4A28122  23.728  31.434   7.653
 7053POPC   C1B28123  23.913  31.432   8.553
 7053POPC   C2B28124  23.974  31.434   8.253
 7053POPC   C3B28125  23.907  31.390   7.953
 7053POPC   C4B28126  23.942  31.407   7.653
 7054POPC   NC328127  19.866  15.909   9.453
 7054POPC   PO428128  19.865  15.945   9.153
 7054POPC   GL128129  19.884  15.922   8.853
 7054POPC   GL228130  19.693  15.927   8.853
 7054POPC   C1A28131  19.842  15.988   8.553
 7054POPC   D2A28132  19.815  15.922   8.253
 7054POPC   C3A28133  19.855  15.960   7.953
 7054POPC   C4A28134  19.864  15.930   7.653
 7054POPC   C1B28135  19.560  15.897   8.553
 7054POPC   C2B28136  19.549  15.942   8.253
 7054POPC   C3B28137  19.630  15.860   7.953
 7054POPC   C4B28138  19.620  15.894   7.653
 7055POPC   NC328139  21.340  12.803   9.453
 7055POPC   PO428140  21.364  12.806   9.153
 7055POPC   GL128141  21.381  12.858   8.853
 7055POPC   GL228142  21.357  12.720   8.853
 7055POPC   C1A28143  21.349  12.888   8.553
 7055POPC   D2A28144  21.398  12.848   8.253
 7055POPC   C3A28145  21.375  12.845   7.953
 7055POPC   C4A28146  21.417  12.896   7.653
 7055POPC   C1B28147  21.269  12.666   8.553
 7055POPC   C2B28148  21.284  12.636   8.253
 7055POPC   C3B28149  21.311  12.660   7.953
 7055POPC   C4B28150  21.323  12.647   7.653
 7056POPC   NC328151  40.737   9.711   9.453
 7056POPC   PO428152  40.829   9.757   9.153
 7056POPC   GL128153  40.825   9.724   8.853
 7056POPC   GL228154  40.765   9.876   8.853
 7056POPC   C1A28155  40.794   9.797   8.553
 7056POPC   D2A28156  40.808   9.745   8.253
 7056POPC   C3A28157  40.797   9.787   7.953
 7056POPC   C4A28158  40.736   9.786   7.653
 7056POPC   C1B28159  40.715   9.949   8.553
 7056POPC   C2B28160  40.680   9.957   8.253
 7056POPC   C3B28161  40.654   9.985   7.953
 7056POPC   C4B28162  40.712   9.946   7.653
 7057POPC   NC328163  19.066  14.413   9.453
 7057POPC   PO428164  19.025  14.420   9.153
 7057POPC   GL128165  19.019  14.437   8.853
 7057POPC   GL228166  19.034  14.479   8.853
 7057POPC   C1A28167  19.040  14.448   8.553
 7057POPC   D2A28168  19.026  14.399   8.253
 7057POPC   C3A28169  19.097  14.429   7.953
 7057POPC   C4A28170  19.050  14.368   7.653
 7057POPC   C1B28171  18.978  14.691   8.553
 7057POPC   C2B28172  18.946  14.629   8.253
 7057POPC   C3B28173  19.026  14.651   7.953
 7057POPC   C4B28174  19.028  14.634   7.653
 7058POPC   NC328175  12.893  28.345   9.453
 7058POPC   PO428176  12.847  28.320   9.153
 7058POPC   GL128177  12.824  28.373   8.853
 7058POPC   GL228178  12.936  28.447   8.853
 7058POPC   C1A28179  12.857  28.339   8.553
 7058POPC   D2A28180  12.873  28.394   8.253
 7058POPC   C3A28181  12.822  28.362   7.953
 7058POPC   C4A28182  12.890  28.357   7.653
 7058POPC   C1B28183  13.054  28.478   8.553
 7058POPC   C2B28184  13.066  28.496   8.253
 7058POPC   C3B28185  13.090  28.540   7.953
 7058POPC   C4B28186  13.040  28.494   7.653
 7059POPC   NC328187   5.103  40.002   9.453
 7059POPC   PO428188   5.068  40.009   9.153
 7059POPC   GL128189   5.081  39.988   8.853
 7059POPC   GL228190   5.126  39.845   8.853
 7059POPC   C1A28191   5.049  40.048   8.553
 7059POPC   D2A28192   5.123  40.041   8.253
 7059POPC   C3A28193   5.102  40.048   7.953
 7059POPC   C4A28194   5.049  40.005   7.653
 7059POPC   C1B28195   5.142  39.711   8.553
 7059POPC   C2B28196   5.175  39.752   8.253
 7059POPC   C3B28197   5.164  39.773   7.953
 7059POPC   C4B28198   5.089  39.759   7.653
 7060POPC   NC328199   6.599  15.145   9.453
 7060POPC   PO428200   6.640  15.217   9.153
 7060POPC   GL128201   6.670  15.171   8.853
 7060POPC   GL228202   6.755  15.268   8.853
 7060POPC   C1A28203   6.634  15.138   8.553
 7060POPC   D2A28204   6.610  15.153   8.253
 7060POPC   C3A28205   6.678  15.217   7.953
 7060POPC   C4A28206   6.657  15.189   7.653
 7060POPC   C1B28207   6.826  15.351   8.553
 7060POPC   C2B28208   6.811  15.356   8.253
 7060POPC   C3B28209   6.777  15.399   7.953
 7060POPC   C4B28210   6.787  15.389   7.653
 7061POPC   NC328211  42.364  29.906   9.453
 7061POPC   PO428212  42.338  29.960   9.153
 7061POPC   GL128213  42.316  29.915   8.853
 7061POPC   GL228214  42.196  29.939   8.853
 7061POPC   C1A28215  42.298  29.912   8.553
 7061POPC   D2A28216  42.336  29.888   8.253
 7061POPC   C3A28217  42.379  29.879   7.953
 7061POPC   C4A28218  42.343  29.967   7.653
 7061POPC   C1B28219  42.134  30.018   8.553
 7061POPC   C2B28220  42.130  30.032   8.253
 7061POPC   C3B28221  42.105  29.971   7.953
 7061POPC   C4B28222  42.076  29.978   7.653
 7062POPC   NC328223   4.361  36.146   9.453
 7062POPC   PO428224   4.279  36.091   9.153
 7062POPC   GL128225   4.319  36.088   8.853
 7062POPC   GL228226   4.414  36.008   8.853
 7062POPC   C1A28227   4.312  36.083   8.553
 7062POPC   D2A28228   4.279  36.093   8.253
 7062POPC   C3A28229   4.291  36.134   7.953
 7062POPC   C4A28230   4.301  36.111   7.653
 7062POPC   C1B28231   4.476  35.965   8.553
 7062POPC   C2B28232   4.477  35.968   8.253
 7062POPC   C3B28233   4.501  35.986   7.953
 7062POPC   C4B28234   4.497  36.004   7.653
 7063POPC   NC328235  10.532  29.880   9.453
 7063POPC   PO428236  10.502  29.904   9.153
 7063POPC   GL128237  10.517  29.967   8.853
 7063POPC   GL228238  10.628  29.848   8.853
 7063POPC   C1A28239  10.549  29.893   8.553
 7063POPC   D2A28240  10.511  29.950   8.253
 7063POPC   C3A28241  10.545  29.906   7.953
 7063POPC   C4A28242  10.514  29.935   7.653
 7063POPC   C1B28243  10.787  29.840   8.553
 7063POPC   C2B28244  10.759  29.857   8.253
 7063POPC   C3B28245  10.760  29.831   7.953
 7063POPC   C4B28246  10.790  29.839   7.653
 7064POPC   NC328247  11.258  22.121   9.453
 7064POPC   PO428248  11.291  22.127   9.153
 7064POPC   GL128249  11.258  22.162   8.853
 7064POPC   GL228250  11.178  22.288   8.853
 7064POPC   C1A28251  11.346  22.140   8.553
 7064POPC   D2A28252  11.345  22.147   8.253
 7064POPC   C3A28253  11.326  22.195   7.953
 7064POPC   C4A28254  11.274  22.176   7.653
 7064POPC   C1B28255  11.136  22.372   8.553
 7064POPC   C2B28256  11.100  22.344   8.253
 7064POPC   C3B28257  11.085  22.377   7.953
 7064POPC   C4B28258  11.086  22.349   7.653
 7065POPC   NC328259  27.581  14.378   9.453
 7065POPC   PO428260  27.602  14.401   9.153
 7065POPC   GL128261  27.634  14.389   8.853
 7065POPC   GL228262  27.545  14.475   8.853
 7065POPC   C1A28263  27.643  14.437   8.553
 7065POPC   D2A28264  27.549  14.409   8.253
 7065POPC   C3A28265  27.604  14.419   7.953
 7065POPC   C4A28266  27.589  14.442   7.653
 7065POPC   C1B28267  27.529  14.622   8.553
 7065POPC   C2B28268  27.532  14.632   8.253
 7065POPC   C3B28269  27.524  14.619   7.953
 7065POPC   C4B28270  27.447  14.631   7.653
 7066POPC   NC328271   8.946   0.398   9.453
 7066POPC   PO428272   8.984   0.467   9.153
 7066POPC   GL128273   8.992   0.479   8.853
 7066POPC   GL228274   9.089   0.387   8.853
 7066POPC   C1A28275   8.983   0.486   8.553
 7066POPC   D2A28276   9.000   0.452   8.253
 7066POPC   C3A28277   8.979   0.444   7.953
 7066POPC   C4A28278   8.942   0.468   7.653
 7066POPC   C1B28279   9.155   0.333   8.553
 7066POPC   C2B28280   9.159   0.286   8.253
 7066POPC   C3B28281   9.191   0.320   7.953
 7066POPC   C4B28282   9.213   0.308   7.653
 7067POPC   NC328283  40.759  36.880   9.453
 7067POPC   PO428284  40.816  36.883   9.153
 7067POPC   GL128285  40.810  36.889   8.853
 7067POPC   GL228286  40.756  36.974   8.853
 7067POPC   C1A28287  40.787  36.890   8.553
 7067POPC   D2A28288  40.796  36.921   8.253
 7067POPC   C3A28289  40.816  36.875   7.953
 7067POPC   C4A28290  40.755  36.950   7.653
 7067POPC   C1B28291  40.681  37.102   8.553
 7067POPC   C2B28292  40.687  37.120   8.253
 7067POPC   C3B28293  40.705  37.094   7.953
 7067POPC   C4B28294  40.640  37.151   7.653
 7068POPC   NC328295  44.627  36.124   9.453
 7068POPC   PO428296  44.683  36.149   9.153
 7068POPC   GL128297  44.702  36.106   8.853
 7068POPC   GL228298  44.778  36.104   8.853
 7068POPC   C1A28299  44.649  36.090   8.553
 7068POPC   D2A28300  44.660  36.085   8.253
 7068POPC   C3A28301  44.699  36.121   7.953
 7068POPC   C4A28302  44.693  36.147   7.653
 7068POPC   C1B28303  44.888  36.139   8.553
 7068POPC   C2B28304  44.876  36.171   8.253
 7068POPC   C3B28305  44.956  36.119   7.953
 7068POPC   C4B28306  44.946  36.170   7.653
 7069POPC   NC328307  29.951   9.012   9.453
 7069POPC   PO428308  29.908   8.987   9.153
 7069POPC   GL128309  29.887   8.943   8.853
 7069POPC   GL228310  30.008   8.913   8.853
 7069POPC   C1A28311  29.885   8.975   8.553
 7069POPC   D2A28312  29.915   9.014   8.253
 7069POPC   C3A28313  29.943   8.978   7.953
 7069POPC   C4A28314  29.885   9.006   7.653
 7069POPC   C1B28315  30.175   8.837   8.553
 7069POPC   C2B28316  30.152   8.876   8.253
 7069POPC   C3B28317  30.124   8.855   7.953
 7069POPC   C4B28318  30.113   8.878   7.653
 7070POPC   NC328319  33.820  14.357   9.453
 7070POPC   PO428320  33.785  14.423   9.153
 7070POPC   GL128321  33.792  14.399   8.853
 7070POPC   GL228322  33.706  14.336   8.853
 7070POPC   C1A28323  33.768  14.422   8.553
 7070POPC   D2A28324  33.821  14.436   8.253
 7070POPC   C3A28325  33.793  14.437   7.953
 7070POPC   C4A28326  33.773  14.422   7.653
 7070POPC   C1B28327  33.572  14.269   8.553
 7070POPC   C2B28328  33.579  14.334   8.253
 7070POPC   C3B28329  33.607  14.275   7.953
 7070POPC   C4B28330  33.564  14.268   7.653
 7071POPC   NC328331  42.316  15.917   9.453
 7071POPC   PO428332  42.294  15.915   9.153
 7071POPC   GL128333  42.381  16.002   8.853
 7071POPC   GL228334  42.431  15.985   8.853
 7071POPC   C1A28335  42.383  15.927   8.553
 7071POPC   D2A28336  42.373  15.938   8.253
 7071POPC   C3A28337  42.286  15.969   7.953
 7071POPC   C4A28338  42.340  15.927   7.653
 7071POPC   C1B28339  42.563  16.134   8.553
 7071POPC   C2B28340  42.553  16.084   8.253
 7071POPC   C3B28341  42.593  16.073   7.953
 7071POPC   C4B28342  42.597  16.056   7.653
 7072POPC   NC328343   4.270  31.488   9.453
 7072POPC   PO428344   4.305  31.426   9.153
 7072POPC   GL128345   4.366  31.471   8.853
 7072POPC   GL228346   4.288  31.613   8.853
 7072POPC   C1A28347   4.358  31.429   8.553
 7072POPC   D2A28348   4.344  31.435   8.253
 7072POPC   C3A28349   4.297  31.427   7.953
 7072POPC   C4A28350   4.274  31.448   7.653
 7072POPC   C1B28351   4.127  31.688   8.553
 7072POPC   C2B28352   4.140  31.645   8.253
 7072POPC   C3B28353   4.209  31.647   7.953
 7072POPC   C4B28354   4.124  31.665   7.653
 7073POPC   NC328355  21.417  17.513   9.453
 7073POPC   PO428356  21.396  17.508   9.153
 7073POPC   GL128357  21.418  17.555   8.853
 7073POPC   GL228358  21.243  17.456   8.853
 7073POPC   C1A28359  21.355  17.540   8.553
 7073POPC   D2A28360  21.340  17.543   8.253
 7073POPC   C3A28361  21.423  17.514   7.953
 7073POPC   C4A28362  21.348  17.497   7.653
 7073POPC   C1B28363  21.136  17.412   8.553
 7073POPC   C2B28364  21.135  17.399   8.253
 7073POPC   C3B28365  21.124  17.488   7.953
 7073POPC   C4B28366  21.173  17.396   7.653
 7074POPC   NC328367  30.677  12.900   9.453
 7074POPC   PO428368  30.680  12.870   9.153
 7074POPC   GL128369  30.744  12.840   8.853
 7074POPC   GL228370  30.632  12.808   8.853
 7074POPC   C1A28371  30.742  12.811   8.553
 7074POPC   D2A28372  30.690  12.894   8.253
 7074POPC   C3A28373  30.699  12.841   7.953
 7074POPC   C4A28374  30.722  12.820   7.653
 7074POPC   C1B28375  30.499  12.646   8.553
 7074POPC   C2B28376  30.567  12.683   8.253
 7074POPC   C3B28377  30.489  12.645   7.953
 7074POPC   C4B28378  30.540  12.665   7.653
 7075POPC   NC328379  24.441  23.749   9.453
 7075POPC   PO428380  24.461  23.754   9.153
 7075POPC   GL128381  24.487  23.711   8.853
 7075POPC   GL228382  24.338  23.785   8.853
 7075POPC   C1A28383  24.484  23.712   8.553
 7075POPC   D2A28384  24.445  23.690   8.253
 7075POPC   C3A28385  24.515  23.717   7.953
 7075POPC   C4A28386  24.442  23.711   7.653
 7075POPC   C1B28387  24.199  23.758   8.553
 7075POPC   C2B28388  24.230  23.746   8.253
 7075POPC   C3B28389  24.237  23.714   7.953
 7075POPC   C4B28390  24.201  23.762   7.653
 7076POPC   NC328391  35.373  13.597   9.453
 7076POPC   PO428392  35.315  13.585   9.153
 7076POPC   GL128393  35.389  13.663   8.853
 7076POPC   GL228394  35.423  13.572   8.853
 7076POPC   C1A28395  35.361  13.626   8.553
 7076POPC   D2A28396  35.361  13.655   8.253
 7076POPC   C3A28397  35.383  13.677   7.953
 7076POPC   C4A28398  35.367  13.603   7.653
 7076POPC   C1B28399  35.574  13.416   8.553
 7076POPC   C2B28400  35.564  13.440   8.253
 7076POPC   C3B28401  35.541  13.453   7.953
 7076POPC   C4B28402  35.554  13.450   7.653
 7077POPC   NC328403  40.793  25.258   9.453
 7077POPC   PO428404  40.799  25.287   9.153
 7077POPC   GL128405  40.816  25.267   8.853
 7077POPC   GL228406  40.829  25.320   8.853
 7077POPC   C1A28407  40.820  25.283   8.553
 7077POPC   D2A28408  40.798  25.238   8.253
 7077POPC   C3A28409  40.820  25.310   7.953
 7077POPC   C4A28410  40.745  25.256   7.653
 7077POPC   C1B28411  40.989  25.428   8.553
 7077POPC   C2B28412  40.921  25.402   8.253
 7077POPC   C3B28413  40.944  25.454   7.953
 7077POPC   C4B28414  40.986  25.495   7.653
 7078POPC   NC328415  33.759  25.261   9.453
 7078POPC   PO428416  33.783  25.217   9.153
 7078POPC   GL128417  33.835  25.222   8.853
 7078POPC   GL228418  33.894  25.311   8.853
 7078POPC   C1A28419  33.812  25.232   8.553
 7078POPC   D2A28420  33.768  25.291   8.253
 7078POPC   C3A28421  33.809  25.245   7.953
 7078POPC   C4A28422  33.838  25.305   7.653
 7078POPC   C1B28423  33.933  25.476   8.553
 7078POPC   C2B28424  33.995  25.464   8.253
 7078POPC   C3B28425  33.991  25.433   7.953
 7078POPC   C4B28426  33.967  25.420   7.653
 7079POPC   NC328427  36.090  24.523   9.453
 7079POPC   PO428428  36.085  24.446   9.153
 7079POPC   GL128429  36.126  24.531   8.853
 7079POPC   GL228430  36.132  24.390   8.853
 7079POPC   C1A28431  36.085  24.471   8.553
 7079POPC   D2A28432  36.169  24.464   8.253
 7079POPC   C3A28433  36.134  24.456   7.953
 7079POPC   C4A28434  36.092  24.460   7.653
 7079POPC   C1B28435  36.204  24.257   8.553
 7079POPC   C2B28436  36.209  24.270   8.253
 7079POPC   C3B28437  36.134  24.235   7.953
 7079POPC   C4B28438  36.176  24.217   7.653
 7080POPC   NC328439  14.441  19.033   9.453
 7080POPC   PO428440  14.359  19.070   9.153
 7080POPC   GL128441  14.413  19.055   8.853
 7080POPC   GL228442  14.442  19.184   8.853
 7080POPC   C1A28443  14.427  19.038   8.553
 7080POPC   D2A28444  14.443  19.044   8.253
 7080POPC   C3A28445  14.381  19.082   7.953
 7080POPC   C4A28446  14.406  19.012   7.653
 7080POPC   C1B28447  14.497  19.287   8.553
 7080POPC   C2B28448  14.550  19.311   8.253
 7080POPC   C3B28449  14.530  19.228   7.953
 7080POPC   C4B28450  14.495  19.283   7.653
 7081POPC   NC328451  38.429   8.198   9.453
 7081POPC   PO428452  38.486   8.228   9.153
 7081POPC   GL128453  38.465   8.234   8.853
 7081POPC   GL228454  38.358   8.255   8.853
 7081POPC   C1A28455  38.432   8.178   8.553
 7081POPC   D2A28456  38.417   8.233   8.253
 7081POPC   C3A28457  38.504   8.186   7.953
 7081POPC   C4A28458  38.412   8.235   7.653
 7081POPC   C1B28459  38.299   8.411   8.553
 7081POPC   C2B28460  38.273   8.446   8.253
 7081POPC   C3B28461  38.368   8.370   7.953
 7081POPC   C4B28462  38.274   8.367   7.653
 7082POPC   NC328463  41.534  37.693   9.453
 7082POPC   PO428464  41.528  37.662   9.153
 7082POPC   GL128465  41.573  37.639   8.853
 7082POPC   GL228466  41.671  37.714   8.853
 7082POPC   C1A28467  41.527  37.644   8.553
 7082POPC   D2A28468  41.599  37.673   8.253
 7082POPC   C3A28469  41.567  37.659   7.953
 7082POPC   C4A28470  41.513  37.663   7.653
 7082POPC   C1B28471  41.774  37.750   8.553
 7082POPC   C2B28472  41.803  37.779   8.253
 7082POPC   C3B28473  41.769  37.741   7.953
 7082POPC   C4B28474  41.800  37.720   7.653
 7083POPC   NC328475  26.070  26.784   9.453
 7083POPC   PO428476  26.064  26.799   9.153
 7083POPC   GL128477  25.999  26.798   8.853
 7083POPC   GL228478  25.978  26.665   8.853
 7083POPC   C1A28479  26.062  26.861   8.553
 7083POPC   D2A28480  26.001  26.813   8.253
 7083POPC   C3A28481  26.006  26.811   7.953
 7083POPC   C4A28482  26.047  26.838   7.653
 7083POPC   C1B28483  25.992  26.596   8.553
 7083POPC   C2B28484  25.981  26.550   8.253
 7083POPC   C3B28485  26.011  26.597   7.953
 7083POPC   C4B28486  25.935  26.563   7.653
 7084POPC   NC328487  24.525  39.986   9.453
 7084POPC   PO428488  24.528  40.014   9.153
 7084POPC   GL128489  24.445  39.974   8.853
 7084POPC   GL228490  24.577  39.898   8.853
 7084POPC   C1A28491  24.511  40.031   8.553
 7084POPC   D2A28492  24.487  39.996   8.253
 7084POPC   C3A28493  24.524  39.979   7.953
 7084POPC   C4A28494  24.467  40.046   7.653
 7084POPC   C1B28495  24.638  39.793   8.553
 7084POPC   C2B28496  24.665  39.830   8.253
 7084POPC   C3B28497  24.651  39.886   7.953
 7084POPC   C4B28498  24.653  39.807   7.653
 7085POPC   NC328499  14.365   6.625   9.453
 7085POPC   PO428500  14.428   6.611   9.153
 7085POPC   GL128501  14.364   6.632   8.853
 7085POPC   GL228502  14.497   6.556   8.853
 7085POPC   C1A28503  14.410   6.683   8.553
 7085POPC   D2A28504  14.390   6.637   8.253
 7085POPC   C3A28505  14.421   6.662   7.953
 7085POPC   C4A28506  14.428   6.684   7.653
 7085POPC   C1B28507  14.581   6.468   8.553
 7085POPC   C2B28508  14.586   6.450   8.253
 7085POPC   C3B28509  14.608   6.519   7.953
 7085POPC   C4B28510  14.580   6.491   7.653
 7086POPC   NC328511  19.064   4.287   9.453
 7086POPC   PO428512  19.024   4.362   9.153
 7086POPC   GL128513  19.108   4.350   8.853
 7086POPC   GL228514  18.943   4.315   8.853
 7086POPC   C1A28515  19.092   4.302   8.553
 7086POPC   D2A28516  19.031   4.325   8.253
 7086POPC   C3A28517  19.030   4.363   7.953
 7086POPC   C4A28518  19.101   4.277   7.653
 7086POPC   C1B28519  18.779   4.223   8.553
 7086POPC   C2B28520  18.848   4.265   8.253
 7086POPC   C3B28521  18.862   4.202   7.953
 7086POPC   C4B28522  18.810   4.197   7.653
 7087POPC   NC328523   3.514  18.313   9.453
 7087POPC   PO428524   3.574  18.248   9.153
 7087POPC   GL128525   3.589  18.329   8.853
 7087POPC   GL228526   3.565  18.412   8.853
 7087POPC   C1A28527   3.505  18.315   8.553
 7087POPC   D2A28528   3.553  18.271   8.253
 7087POPC   C3A28529   3.562  18.297   7.953
 7087POPC   C4A28530   3.574  18.301   7.653
 7087POPC   C1B28531   3.690  18.504   8.553
 7087POPC   C2B28532   3.700  18.533   8.253
 7087POPC   C3B28533   3.698  18.536   7.953
 7087POPC   C4B28534   3.721  18.485   7.653
 7088POPC   NC328535  23.732  35.305   9.453
 7088POPC   PO428536  23.676  35.344   9.153
 7088POPC   GL128537  23.750  35.358   8.853
 7088POPC   GL228538  23.822  35.435   8.853
 7088POPC   C1A28539  23.699  35.381   8.553
 7088POPC   D2A28540  23.678  35.391   8.253
 7088POPC   C3A28541  23.668  35.380   7.953
 7088POPC   C4A28542  23.683  35.332   7.653
 7088POPC   C1B28543  23.927  35.530   8.553
 7088POPC   C2B28544  23.905  35.560   8.253
 7088POPC   C3B28545  23.864  35.498   7.953
 7088POPC   C4B28546  23.864  35.496   7.653
 7089POPC   NC328547  13.644  22.171   9.453
 7089POPC   PO428548  13.582  22.182   9.153
 7089POPC   GL128549  13.666  22.188   8.853
 7089POPC   GL228550  13.659  22.269   8.853
 7089POPC   C1A28551  13.661  22.146   8.553
 7089POPC   D2A28552  13.620  22.137   8.253
 7089POPC   C3A28553  13.663  22.199   7.953
 7089POPC   C4A28554  13.663  22.128   7.653
 7089POPC   C1B28555  13.656  22.355   8.553
 7089POPC   C2B28556  13.742  22.445   8.253
 7089POPC   C3B28557  13.724  22.386   7.953
 7089POPC   C4B28558  13.724  22.427   7.653
 7090POPC   NC328559  44.709  42.327   9.453
 7090POPC   PO428560  44.688  42.338   9.153
 7090POPC   GL128561  44.686  42.287   8.853
 7090POPC   GL228562  44.668  42.484   8.853
 7090POPC   C1A28563  44.623  42.368   8.553
 7090POPC   D2A28564  44.690  42.374   8.253
 7090POPC   C3A28565  44.707  42.346   7.953
 7090POPC   C4A28566  44.673  42.326   7.653
 7090POPC   C1B28567  44.589  42.547   8.553
 7090POPC   C2B28568  44.598  42.540   8.253
 7090POPC   C3B28569  44.599  42.565   7.953
 7090POPC   C4B28570  44.601  42.595   7.653
 7091POPC   NC328571  16.764   6.641   9.453
 7091POPC   PO428572  16.728   6.694   9.153
 7091POPC   GL128573  16.725   6.615   8.853
 7091POPC   GL228574  16.877   6.659   8.853
 7091POPC   C1A28575  16.695   6.659   8.553
 7091POPC   D2A28576  16.691   6.659   8.253
 7091POPC   C3A28577  16.703   6.635   7.953
 7091POPC   C4A28578  16.707   6.688   7.653
 7091POPC   C1B28579  16.962   6.622   8.553
 7091POPC   C2B28580  16.971   6.692   8.253
 7091POPC   C3B28581  16.979   6.602   7.953
 7091POPC   C4B28582  16.961   6.600   7.653
 7092POPC   NC328583  33.004  26.016   9.453
 7092POPC   PO428584  33.015  26.000   9.153
 7092POPC   GL128585  33.068  25.993   8.853
 7092POPC   GL228586  33.131  25.969   8.853
 7092POPC   C1A28587  33.018  26.084   8.553
 7092POPC   D2A28588  33.018  26.080   8.253
 7092POPC   C3A28589  33.050  26.035   7.953
 7092POPC   C4A28590  33.030  26.088   7.653
 7092POPC   C1B28591  33.143  25.814   8.553
 7092POPC   C2B28592  33.190  25.800   8.253
 7092POPC   C3B28593  33.131  25.844   7.953
 7092POPC   C4B28594  33.152  25.811   7.653
 7093POPC   NC328595  29.881  18.252   9.453
 7093POPC   PO428596  29.900  18.237   9.153
 7093POPC   GL128597  29.878  18.326   8.853
 7093POPC   GL228598  29.903  18.150   8.853
 7093POPC   C1A28599  29.941  18.304   8.553
 7093POPC   D2A28600  29.898  18.298   8.253
 7093POPC   C3A28601  29.945  18.251   7.953
 7093POPC   C4A28602  29.907  18.278   7.653
 7093POPC   C1B28603  29.823  18.023   8.553
 7093POPC   C2B28604  29.761  18.084   8.253
 7093POPC   C3B28605  29.817  18.033   7.953
 7093POPC   C4B28606  29.827  18.095   7.653
 7094POPC   NC328607   2.810   5.859   9.453
 7094POPC   PO428608   2.735   5.835   9.153
 7094POPC   GL128609   2.768   5.824   8.853
 7094POPC   GL228610   2.811   5.738   8.853
 7094POPC   C1A28611   2.777   5.859   8.553
 7094POPC   D2A28612   2.757   5.915   8.253
 7094POPC   C3A28613   2.806   5.869   7.953
 7094POPC   C4A28614   2.757   5.869   7.653
 7094POPC   C1B28615   2.794   5.608   8.553
 7094POPC   C2B28616   2.809   5.638   8.253
 7094POPC   C3B28617   2.816   5.657   7.953
 7094POPC   C4B28618   2.802   5.591   7.653
 7095POPC   NC328619   1.218  21.436   9.453
 7095POPC   PO428620   1.212  21.413   9.153
 7095POPC   GL128621   1.241  21.400   8.853
 7095POPC   GL228622   1.309  21.300   8.853
 7095POPC   C1A28623   1.238  21.377   8.553
 7095POPC   D2A28624   1.222  21.350   8.253
 7095POPC   C3A28625   1.230  21.370   7.953
 7095POPC   C4A28626   1.224  21.346   7.653
 7095POPC   C1B28627   1.327  21.168   8.553
 7095POPC   C2B28628   1.290  21.186   8.253
 7095POPC   C3B28629   1.376  21.188   7.953
 7095POPC   C4B28630   1.300  21.162   7.653
 7096POPC   NC328631  30.732   7.465   9.453
 7096POPC   PO428632  30.727   7.450   9.153
 7096POPC   GL128633  30.729   7.445   8.853
 7096POPC   GL228634  30.638   7.282   8.853
 7096POPC   C1A28635  30.744   7.396   8.553
 7096POPC   D2A28636  30.713   7.427   8.253
 7096POPC   C3A28637  30.736   7.379   7.953
 7096POPC   C4A28638  30.686   7.459   7.653
 7096POPC   C1B28639  30.644   7.218   8.553
 7096POPC   C2B28640  30.641   7.162   8.253
 7096POPC   C3B28641  30.724   7.210   7.953
 7096POPC   C4B28642  30.724   7.140   7.653
 7097POPC   NC328643  20.601  32.257   9.453
 7097POPC   PO428644  20.580  32.231   9.153
 7097POPC   GL128645  20.582  32.257   8.853
 7097POPC   GL228646  20.704  32.329   8.853
 7097POPC   C1A28647  20.638  32.245   8.553
 7097POPC   D2A28648  20.573  32.208   8.253
 7097POPC   C3A28649  20.564  32.215   7.953
 7097POPC   C4A28650  20.595  32.232   7.653
 7097POPC   C1B28651  20.843  32.406   8.553
 7097POPC   C2B28652  20.816  32.373   8.253
 7097POPC   C3B28653  20.794  32.439   7.953
 7097POPC   C4B28654  20.753  32.441   7.653
 7098POPC   NC328655   3.514  22.973   9.453
 7098POPC   PO428656   3.509  22.938   9.153
 7098POPC   GL128657   3.549  22.938   8.853
 7098POPC   GL228658   3.615  22.800   8.853
 7098POPC   C1A28659   3.491  22.908   8.553
 7098POPC   D2A28660   3.565  22.913   8.253
 7098POPC   C3A28661   3.523  22.898   7.953
 7098POPC   C4A28662   3.573  22.895   7.653
 7098POPC   C1B28663   3.696  22.740   8.553
 7098POPC   C2B28664   3.706  22.764   8.253
 7098POPC   C3B28665   3.710  22.803   7.953
 7098POPC   C4B28666   3.706  22.721   7.653
 7099POPC   NC328667   4.354  41.581   9.453
 7099POPC   PO428668   4.332  41.603   9.153
 7099POPC   GL128669   4.290  41.608   8.853
 7099POPC   GL228670   4.209  41.685   8.853
 7099POPC   C1A28671   4.329  41.588   8.553
 7099POPC   D2A28672   4.328  41.552   8.253
 7099POPC   C3A28673   4.334  41.552   7.953
 7099POPC   C4A28674   4.306  41.537   7.653
 7099POPC   C1B28675   4.186  41.724   8.553
 7099POPC   C2B28676   4.174  41.710   8.253
 7099POPC   C3B28677   4.173  41.747   7.953
 7099POPC   C4B28678   4.180  41.735   7.653
 7100POPC   NC328679   7.437   7.410   9.453
 7100POPC   PO428680   7.421   7.388   9.153
 7100POPC   GL128681   7.401   7.380   8.853
 7100POPC   GL228682   7.337   7.542   8.853
 7100POPC   C1A28683   7.392   7.383   8.553
 7100POPC   D2A28684   7.445   7.440   8.253
 7100POPC   C3A28685   7.375   7.449   7.953
 7100POPC   C4A28686   7.413   7.414   7.653
 7100POPC   C1B28687   7.266   7.627   8.553
 7100POPC   C2B28688   7.239   7.646   8.253
 7100POPC   C3B28689   7.307   7.641   7.953
 7100POPC   C4B28690   7.331   7.599   7.653
 7101POPC   NC328691   9.784  26.795   9.453
 7101POPC   PO428692   9.736  26.839   9.153
 7101POPC   GL128693   9.729  26.800   8.853
 7101POPC   GL228694   9.651  26.942   8.853
 7101POPC   C1A28695   9.730  26.782   8.553
 7101POPC   D2A28696   9.732  26.856   8.253
 7101POPC   C3A28697   9.716  26.855   7.953
 7101POPC   C4A28698   9.783  26.790   7.653
 7101POPC   C1B28699   9.678  26.995   8.553
 7101POPC   C2B28700   9.603  26.990   8.253
 7101POPC   C3B28701   9.660  27.086   7.953
 7101POPC   C4B28702   9.646  27.006   7.653
 7102POPC   NC328703  28.345  35.399   9.453
 7102POPC   PO428704  28.391  35.350   9.153
 7102POPC   GL128705  28.350  35.396   8.853
 7102POPC   GL228706  28.483  35.296   8.853
 7102POPC   C1A28707  28.399  35.357   8.553
 7102POPC   D2A28708  28.416  35.341   8.253
 7102POPC   C3A28709  28.371  35.363   7.953
 7102POPC   C4A28710  28.396  35.336   7.653
 7102POPC   C1B28711  28.541  35.123   8.553
 7102POPC   C2B28712  28.551  35.201   8.253
 7102POPC   C3B28713  28.564  35.141   7.953
 7102POPC   C4B28714  28.502  35.192   7.653
 7103POPC   NC328715   8.166  10.550   9.453
 7103POPC   PO428716   8.170  10.509   9.153
 7103POPC   GL128717   8.155  10.546   8.853
 7103POPC   GL228718   8.143  10.456   8.853
 7103POPC   C1A28719   8.161  10.493   8.553
 7103POPC   D2A28720   8.240  10.573   8.253
 7103POPC   C3A28721   8.220  10.495   7.953
 7103POPC   C4A28722   8.191  10.511   7.653
 7103POPC   C1B28723   8.098  10.322   8.553
 7103POPC   C2B28724   8.145  10.280   8.253
 7103POPC   C3B28725   8.105  10.244   7.953
 7103POPC   C4B28726   8.063  10.315   7.653
 7104POPC   NC328727  22.919  32.228   9.453
 7104POPC   PO428728  22.981  32.227   9.153
 7104POPC   GL128729  22.937  32.266   8.853
 7104POPC   GL228730  23.012  32.256   8.853
 7104POPC   C1A28731  22.984  32.277   8.553
 7104POPC   D2A28732  22.955  32.231   8.253
 7104POPC   C3A28733  22.965  32.236   7.953
 7104POPC   C4A28734  22.962  32.224   7.653
 7104POPC   C1B28735  23.136  32.324   8.553
 7104POPC   C2B28736  23.133  32.314   8.253
 7104POPC   C3B28737  23.193  32.372   7.953
 7104POPC   C4B28738  23.140  32.392   7.653
 7105POPC   NC328739  12.033  17.484   9.453
 7105POPC   PO428740  12.059  17.471   9.153
 7105POPC   GL128741  12.058  17.459   8.853
 7105POPC   GL228742  12.001  17.548   8.853
 7105POPC   C1A28743  12.121  17.547   8.553
 7105POPC   D2A28744  12.106  17.468   8.253
 7105POPC   C3A28745  12.052  17.519   7.953
 7105POPC   C4A28746  12.085  17.495   7.653
 7105POPC   C1B28747  11.817  17.499   8.553
 7105POPC   C2B28748  11.873  17.556   8.253
 7105POPC   C3B28749  11.854  17.502   7.953
 7105POPC   C4B28750  11.841  17.571   7.653
 7106POPC   NC328751   7.455  15.186   9.453
 7106POPC   PO428752   7.409  15.216   9.153
 7106POPC   GL128753   7.408  15.132   8.853
 7106POPC   GL228754   7.551  15.155   8.853
 7106POPC   C1A28755   7.466  15.166   8.553
 7106POPC   D2A28756   7.418  15.142   8.253
 7106POPC   C3A28757   7.402  15.177   7.953
 7106POPC   C4A28758   7.441  15.163   7.653
 7106POPC   C1B28759   7.577  15.059   8.553
 7106POPC   C2B28760   7.642  15.069   8.253
 7106POPC   C3B28761   7.661  15.074   7.953
 7106POPC   C4B28762   7.660  15.071   7.653
 7107POPC   NC328763   8.993  16.753   9.453
 7107POPC   PO428764   8.944  16.709   9.153
 7107POPC   GL128765   9.007  16.775   8.853
 7107POPC   GL228766   8.896  16.604   8.853
 7107POPC   C1A28767   8.975  16.774   8.553
 7107POPC   D2A28768   8.997  16.683   8.253
 7107POPC   C3A28769   9.018  16.739   7.953
 7107POPC   C4A28770   9.002  16.712   7.653
 7107POPC   C1B28771   8.888  16.486   8.553
 7107POPC   C2B28772   8.950  16.528   8.253
 7107POPC   C3B28773   8.918  16.450   7.953
 7107POPC   C4B28774   8.888  16.456   7.653
 7108POPC   NC328775   5.119  42.299   9.453
 7108POPC   PO428776   5.052  42.302   9.153
 7108POPC   GL128777   5.108  42.332   8.853
 7108POPC   GL228778   5.258  42.390   8.853
 7108POPC   C1A28779   5.101  42.348   8.553
 7108POPC   D2A28780   5.096  42.286   8.253
 7108POPC   C3A28781   5.137  42.302   7.953
 7108POPC   C4A28782   5.101  42.319   7.653
 7108POPC   C1B28783   5.293  42.408   8.553
 7108POPC   C2B28784   5.348  42.419   8.253
 7108POPC   C3B28785   5.346  42.433   7.953
 7108POPC   C4B28786   5.281  42.422   7.653
 7109POPC   NC328787   1.206   0.404   9.453
 7109POPC   PO428788   1.196   0.404   9.153
 7109POPC   GL128789   1.165   0.455   8.853
 7109POPC   GL228790   1.286   0.353   8.853
 7109POPC   C1A28791   1.217   0.400   8.553
 7109POPC   D2A28792   1.244   0.392   8.253
 7109POPC   C3A28793   1.173   0.485   7.953
 7109POPC   C4A28794   1.261   0.395   7.653
 7109POPC   C1B28795   1.402   0.297   8.553
 7109POPC   C2B28796   1.381   0.264   8.253
 7109POPC   C3B28797   1.363   0.282   7.953
 7109POPC   C4B28798   1.337   0.256   7.653
 7110POPC   NC328799  27.627  43.857   9.453
 7110POPC   PO428800  27.571  43.934   9.153
 7110POPC   GL128801  27.594  43.857   8.853
 7110POPC   GL228802  27.571  43.956   8.853
 7110POPC   C1A28803  27.603  43.880   8.553
 7110POPC   D2A28804  27.568  43.921   8.253
 7110POPC   C3A28805  27.567  43.858   7.953
 7110POPC   C4A28806  27.548  43.924   7.653
 7110POPC   C1B28807  27.482  44.120   8.553
 7110POPC   C2B28808  27.456  44.108   8.253
 7110POPC   C3B28809  27.460  44.117   7.953
 7110POPC   C4B28810  27.463  44.076   7.653
 7111POPC   NC328811  32.205  29.164   9.453
 7111POPC   PO428812  32.200  29.159   9.153
 7111POPC   GL128813  32.250  29.111   8.853
 7111POPC   GL228814  32.397  29.102   8.853
 7111POPC   C1A28815  32.220  29.180   8.553
 7111POPC   D2A28816  32.270  29.148   8.253
 7111POPC   C3A28817  32.201  29.095   7.953
 7111POPC   C4A28818  32.292  29.101   7.653
 7111POPC   C1B28819  32.438  29.017   8.553
 7111POPC   C2B28820  32.506  29.002   8.253
 7111POPC   C3B28821  32.502  29.028   7.953
 7111POPC   C4B28822  32.437  29.028   7.653
 7112POPC   NC328823   5.130  22.189   9.453
 7112POPC   PO428824   5.082  22.116   9.153
 7112POPC   GL128825   5.069  22.130   8.853
 7112POPC   GL228826   5.249  22.222   8.853
 7112POPC   C1A28827   5.106  22.143   8.553
 7112POPC   D2A28828   5.135  22.133   8.253
 7112POPC   C3A28829   5.112  22.182   7.953
 7112POPC   C4A28830   5.133  22.192   7.653
 7112POPC   C1B28831   5.317  22.134   8.553
 7112POPC   C2B28832   5.381  22.229   8.253
 7112POPC   C3B28833   5.392  22.233   7.953
 7112POPC   C4B28834   5.297  22.140   7.653
 7113POPC   NC328835  20.625  24.512   9.453
 7113POPC   PO428836  20.606  24.505   9.153
 7113POPC   GL128837  20.588  24.466   8.853
 7113POPC   GL228838  20.517  24.576   8.853
 7113POPC   C1A28839  20.564  24.463   8.553
 7113POPC   D2A28840  20.635  24.533   8.253
 7113POPC   C3A28841  20.615  24.486   7.953
 7113POPC   C4A28842  20.633  24.467   7.653
 7113POPC   C1B28843  20.415  24.609   8.553
 7113POPC   C2B28844  20.413  24.604   8.253
 7113POPC   C3B28845  20.363  24.606   7.953
 7113POPC   C4B28846  20.375  24.633   7.653
 7114POPC   NC328847  32.258  12.074   9.453
 7114POPC   PO428848  32.207  12.096   9.153
 7114POPC   GL128849  32.291  12.032   8.853
 7114POPC   GL228850  32.320  12.138   8.853
 7114POPC   C1A28851  32.254  12.089   8.553
 7114POPC   D2A28852  32.270  12.075   8.253
 7114POPC   C3A28853  32.208  12.108   7.953
 7114POPC   C4A28854  32.253  12.030   7.653
 7114POPC   C1B28855  32.446  12.242   8.553
 7114POPC   C2B28856  32.474  12.222   8.253
 7114POPC   C3B28857  32.461  12.252   7.953
 7114POPC   C4B28858  32.387  12.239   7.653
 7115POPC   NC328859  26.781   8.214   9.453
 7115POPC   PO428860  26.856   8.198   9.153
 7115POPC   GL128861  26.821   8.230   8.853
 7115POPC   GL228862  26.770   8.259   8.853
 7115POPC   C1A28863  26.842   8.148   8.553
 7115POPC   D2A28864  26.816   8.195   8.253
 7115POPC   C3A28865  26.772   8.208   7.953
 7115POPC   C4A28866  26.790   8.244   7.653
 7115POPC   C1B28867  26.608   8.320   8.553
 7115POPC   C2B28868  26.634   8.350   8.253
 7115POPC   C3B28869  26.603   8.410   7.953
 7115POPC   C4B28870  26.663   8.317   7.653
 7116POPC   NC328871   1.962  42.380   9.453
 7116POPC   PO428872   2.029  42.377   9.153
 7116POPC   GL128873   2.032  42.334   8.853
 7116POPC   GL228874   2.081  42.419   8.853
 7116POPC   C1A28875   2.018  42.367   8.553
 7116POPC   D2A28876   1.961  42.374   8.253
 7116POPC   C3A28877   2.003  42.365   7.953
 7116POPC   C4A28878   1.951  42.375   7.653
 7116POPC   C1B28879   2.094  42.540   8.553
 7116POPC   C2B28880   2.120  42.590   8.253
 7116POPC   C3B28881   2.099  42.604   7.953
 7116POPC   C4B28882   2.054  42.580   7.653
 7117POPC   NC328883  15.919   6.622   9.453
 7117POPC   PO428884  15.921   6.632   9.153
 7117POPC   GL128885  15.989   6.611   8.853
 7117POPC   GL228886  15.857   6.667   8.853
 7117POPC   C1A28887  16.001   6.597   8.553
 7117POPC   D2A28888  15.995   6.602   8.253
 7117POPC   C3A28889  15.917   6.606   7.953
 7117POPC   C4A28890  15.932   6.659   7.653
 7117POPC   C1B28891  15.729   6.830   8.553
 7117POPC   C2B28892  15.789   6.815   8.253
 7117POPC   C3B28893  15.704   6.778   7.953
 7117POPC   C4B28894  15.714   6.789   7.653
 7118POPC   NC328895  23.676  12.844   9.453
 7118POPC   PO428896  23.687  12.809   9.153
 7118POPC   GL128897  23.711  12.864   8.853
 7118POPC   GL228898  23.624  12.704   8.853
 7118POPC   C1A28899  23.675  12.827   8.553
 7118POPC   D2A28900  23.723  12.807   8.253
 7118POPC   C3A28901  23.755  12.830   7.953
 7118POPC   C4A28902  23.721  12.870   7.653
 7118POPC   C1B28903  23.576  12.598   8.553
 7118POPC   C2B28904  23.607  12.584   8.253
 7118POPC   C3B28905  23.636  12.624   7.953
 7118POPC   C4B28906  23.582  12.615   7.653
 7119POPC   NC328907  28.414  13.668   9.453
 7119POPC   PO428908  28.327  13.627   9.153
 7119POPC   GL128909  28.403  13.655   8.853
 7119POPC   GL228910  28.435  13.523   8.853
 7119POPC   C1A28911  28.392  13.625   8.553
 7119POPC   D2A28912  28.320  13.584   8.253
 7119POPC   C3A28913  28.388  13.592   7.953
 7119POPC   C4A28914  28.352  13.630   7.653
 7119POPC   C1B28915  28.530  13.497   8.553
 7119POPC   C2B28916  28.526  13.412   8.253
 7119POPC   C3B28917  28.570  13.478   7.953
 7119POPC   C4B28918  28.555  13.467   7.653
 7120POPC   NC328919  28.354   8.964   9.453
 7120POPC   PO428920  28.382   8.949   9.153
 7120POPC   GL128921  28.383   8.951   8.853
 7120POPC   GL228922  28.380   9.101   8.853
 7120POPC   C1A28923  28.401   9.021   8.553
 7120POPC   D2A28924  28.372   8.966   8.253
 7120POPC   C3A28925  28.410   8.969   7.953
 7120POPC   C4A28926  28.409   9.001   7.653
 7120POPC   C1B28927  28.432   9.231   8.553
 7120POPC   C2B28928  28.465   9.221   8.253
 7120POPC   C3B28929  28.425   9.190   7.953
 7120POPC   C4B28930  28.437   9.224   7.653
 7121POPC   NC328931   5.863  23.762   9.453
 7121POPC   PO428932   5.912  23.717   9.153
 7121POPC   GL128933   5.897  23.692   8.853
 7121POPC   GL228934   5.857  23.625   8.853
 7121POPC   C1A28935   5.874  23.721   8.553
 7121POPC   D2A28936   5.864  23.670   8.253
 7121POPC   C3A28937   5.829  23.673   7.953
 7121POPC   C4A28938   5.870  23.734   7.653
 7121POPC   C1B28939   5.938  23.500   8.553
 7121POPC   C2B28940   5.882  23.508   8.253
 7121POPC   C3B28941   5.893  23.417   7.953
 7121POPC   C4B28942   5.887  23.436   7.653
 7122POPC   NC328943  27.578  17.527   9.453
 7122POPC   PO428944  27.622  17.461   9.153
 7122POPC   GL128945  27.547  17.517   8.853
 7122POPC   GL228946  27.727  17.476   8.853
 7122POPC   C1A28947  27.618  17.478   8.553
 7122POPC   D2A28948  27.555  17.474   8.253
 7122POPC   C3A28949  27.560  17.510   7.953
 7122POPC   C4A28950  27.556  17.540   7.653
 7122POPC   C1B28951  27.798  17.340   8.553
 7122POPC   C2B28952  27.801  17.366   8.253
 7122POPC   C3B28953  27.850  17.387   7.953
 7122POPC   C4B28954  27.833  17.426   7.653
 7123POPC   NC328955  15.930  19.803   9.453
 7123POPC   PO428956  15.986  19.807   9.153
 7123POPC   GL128957  15.908  19.863   8.853
 7123POPC   GL228958  16.060  19.773   8.853
 7123POPC   C1A28959  15.918  19.876   8.553
 7123POPC   D2A28960  15.935  19.852   8.253
 7123POPC   C3A28961  15.938  19.832   7.953
 7123POPC   C4A28962  15.913  19.848   7.653
 7123POPC   C1B28963  16.093  19.622   8.553
 7123POPC   C2B28964  16.072  19.624   8.253
 7123POPC   C3B28965  16.111  19.674   7.953
 7123POPC   C4B28966  16.093  19.610   7.653
 7124POPC   NC328967   4.334  23.728   9.453
 7124POPC   PO428968   4.314  23.711   9.153
 7124POPC   GL128969   4.286  23.693   8.853
 7124POPC   GL228970   4.361  23.620   8.853
 7124POPC   C1A28971   4.286  23.710   8.553
 7124POPC   D2A28972   4.293  23.686   8.253
 7124POPC   C3A28973   4.304  23.673   7.953
 7124POPC   C4A28974   4.366  23.677   7.653
 7124POPC   C1B28975   4.302  23.513   8.553
 7124POPC   C2B28976   4.367  23.505   8.253
 7124POPC   C3B28977   4.352  23.497   7.953
 7124POPC   C4B28978   4.395  23.476   7.653
 7125POPC   NC328979  28.398  19.858   9.453
 7125POPC   PO428980  28.337  19.796   9.153
 7125POPC   GL128981  28.361  19.884   8.853
 7125POPC   GL228982  28.509  19.860   8.853
 7125POPC   C1A28983  28.359  19.820   8.553
 7125POPC   D2A28984  28.396  19.826   8.253
 7125POPC   C3A28985  28.323  19.856   7.953
 7125POPC   C4A28986  28.416  19.869   7.653
 7125POPC   C1B28987  28.621  19.859   8.553
 7125POPC   C2B28988  28.574  19.888   8.253
 7125POPC   C3B28989  28.611  19.859   7.953
 7125POPC   C4B28990  28.653  19.948   7.653
 7126POPC   NC328991  37.660  15.980   9.453
 7126POPC   PO428992  37.683  15.914   9.153
 7126POPC   GL128993  37.665  15.936   8.853
 7126POPC   GL228994  37.664  16.035   8.853
 7126POPC   C1A28995  37.632  15.986   8.553
 7126POPC   D2A28996  37.637  15.958   8.253
 7126POPC   C3A28997  37.668  15.987   7.953
 7126POPC   C4A28998  37.645  15.973   7.653
 7126POPC   C1B28999  37.668  16.163   8.553
 7126POPC   C2B29000  37.647  16.223   8.253
 7126POPC   C3B29001  37.732  16.253   7.953
 7126POPC   C4B29002  37.683  16.178   7.653
 7127POPC   NC329003  17.507   1.992   9.453
 7127POPC   PO429004  17.544   2.034   9.153
 7127POPC   GL129005  17.542   2.039   8.853
 7127POPC   GL229006  17.566   1.911   8.853
 7127POPC   C1A29007  17.474   1.978   8.553
 7127POPC   D2A29008  17.541   1.980   8.253
 7127POPC   C3A29009  17.492   2.028   7.953
 7127POPC   C4A29010  17.462   1.947   7.653
 7127POPC   C1B29011  17.756   1.847   8.553
 7127POPC   C2B29012  17.726   1.818   8.253
 7127POPC   C3B29013  17.756   1.890   7.953
 7127POPC   C4B29014  17.744   1.886   7.653
 7128POPC   NC329015  27.624   3.510   9.453
 7128POPC   PO429016  27.604   3.518   9.153
 7128POPC   GL129017  27.576   3.537   8.853
 7128POPC   GL229018  27.686   3.453   8.853
 7128POPC   C1A29019  27.640   3.518   8.553
 7128POPC   D2A29020  27.552   3.507   8.253
 7128POPC   C3A29021  27.589   3.540   7.953
 7128POPC   C4A29022  27.625   3.512   7.653
 7128POPC   C1B29023  27.793   3.373   8.553
 7128POPC   C2B29024  27.836   3.393   8.253
 7128POPC   C3B29025  27.804   3.449   7.953
 7128POPC   C4B29026  27.845   3.367   7.653
 7129POPC   NC329027  32.234   9.786   9.453
 7129POPC   PO429028  32.259   9.742   9.153
 7129POPC   GL129029  32.290   9.764   8.853
 7129POPC   GL229030  32.228   9.910   8.853
 7129POPC   C1A29031  32.223   9.788   8.553
 7129POPC   D2A29032  32.267   9.796   8.253
 7129POPC   C3A29033  32.203   9.747   7.953
 7129POPC   C4A29034  32.257   9.739   7.653
 7129POPC   C1B29035  32.226  10.045   8.553
 7129POPC   C2B29036  32.273   9.992   8.253
 7129POPC   C3B29037  32.239  10.021   7.953
 7129POPC   C4B29038  32.247   9.953   7.653
 7130POPC   NC329039  44.636  20.627   9.453
 7130POPC   PO429040  44.667  20.573   9.153
 7130POPC   GL129041  44.663  20.580   8.853
 7130POPC   GL229042  44.580  20.691   8.853
 7130POPC   C1A29043  44.646  20.660   8.553
 7130POPC   D2A29044  44.708  20.594   8.253
 7130POPC   C3A29045  44.651  20.605   7.953
 7130POPC   C4A29046  44.623  20.594   7.653
 7130POPC   C1B29047  44.472  20.724   8.553
 7130POPC   C2B29048  44.412  20.735   8.253
 7130POPC   C3B29049  44.424  20.718   7.953
 7130POPC   C4B29050  44.415  20.720   7.653
 7131POPC   NC329051   5.100  26.043   9.453
 7131POPC   PO429052   5.108  26.005   9.153
 7131POPC   GL129053   5.120  26.033   8.853
 7131POPC   GL229054   5.222  26.059   8.853
 7131POPC   C1A29055   5.085  25.998   8.553
 7131POPC   D2A29056   5.090  26.035   8.253
 7131POPC   C3A29057   5.070  26.034   7.953
 7131POPC   C4A29058   5.073  26.076   7.653
 7131POPC   C1B29059   5.365  26.081   8.553
 7131POPC   C2B29060   5.285  26.134   8.253
 7131POPC   C3B29061   5.357  26.119   7.953
 7131POPC   C4B29062   5.315  26.149   7.653
 7132POPC   NC329063  32.201  43.871   9.453
 7132POPC   PO429064  32.276  43.887   9.153
 7132POPC   GL129065  32.203  43.920   8.853
 7132POPC   GL229066  32.307  44.046   8.853
 7132POPC   C1A29067  32.290  43.878   8.553
 7132POPC   D2A29068  32.200  43.844   8.253
 7132POPC   C3A29069  32.279  43.930   7.953
 7132POPC   C4A29070  32.253  43.869   7.653
 7132POPC   C1B29071  32.382  44.077   8.553
 7132POPC   C2B29072  32.320  44.095   8.253
 7132POPC   C3B29073  32.331  44.162   7.953
 7132POPC   C4B29074  32.345  44.093   7.653
 7133POPC   NC329075   8.223  40.789   9.453
 7133POPC   PO429076   8.195  40.779   9.153
 7133POPC   GL129077   8.211  40.750   8.853
 7133POPC   GL229078   8.326  40.900   8.853
 7133POPC   C1A29079   8.174  40.736   8.553
 7133POPC   D2A29080   8.171  40.806   8.253
 7133POPC   C3A29081   8.243  40.788   7.953
 7133POPC   C4A29082   8.224  40.817   7.653
 7133POPC   C1B29083   8.386  40.981   8.553
 7133POPC   C2B29084   8.374  40.929   8.253
 7133POPC   C3B29085   8.376  40.985   7.953
 7133POPC   C4B29086   8.436  40.988   7.653
 7134POPC   NC329087  21.380  29.158   9.453
 7134POPC   PO429088  21.415  29.114   9.153
 7134POPC   GL129089  21.374  29.168   8.853
 7134POPC   GL229090  21.303  29.195   8.853
 7134POPC   C1A29091  21.382  29.145   8.553
 7134POPC   D2A29092  21.341  29.148   8.253
 7134POPC   C3A29093  21.376  29.160   7.953
 7134POPC   C4A29094  21.387  29.161   7.653
 7134POPC   C1B29095  21.188  29.204   8.553
 7134POPC   C2B29096  21.153  29.211   8.253
 7134POPC   C3B29097  21.131  29.220   7.953
 7134POPC   C4B29098  21.129  29.211   7.653
 7135POPC   NC329099  15.198  44.662   9.453
 7135POPC   PO429100  15.178  44.701   9.153
 7135POPC   GL129101  15.137  44.614   8.853
 7135POPC   GL229102  15.107  44.622   8.853
 7135POPC   C1A29103  15.136  44.660   8.553
 7135POPC   D2A29104  15.208  44.683   8.253
 7135POPC   C3A29105  15.147  44.699   7.953
 7135POPC   C4A29106  15.203  44.614   7.653
 7135POPC   C1B29107  14.919  44.539   8.553
 7135POPC   C2B29108  14.922  44.522   8.253
 7135POPC   C3B29109  14.941  44.503   7.953
 7135POPC   C4B29110  14.950  44.556   7.653
 7136POPC   NC329111  22.897  36.927   9.453
 7136POPC   PO429112  22.918  36.935   9.153
 7136POPC   GL129113  22.924  36.866   8.853
 7136POPC   GL229114  22.986  36.741   8.853
 7136POPC   C1A29115  22.918  36.917   8.553
 7136POPC   D2A29116  22.927  36.933   8.253
 7136POPC   C3A29117  22.930  36.895   7.953
 7136POPC   C4A29118  22.986  36.943   7.653
 7136POPC   C1B29119  23.000  36.630   8.553
 7136POPC   C2B29120  23.038  36.709   8.253
 7136POPC   C3B29121  22.997  36.705   7.953
 7136POPC   C4B29122  23.029  36.627   7.653
 7137POPC   NC329123  14.413  27.575   9.453
 7137POPC   PO429124  14.356  27.574   9.153
 7137POPC   GL129125  14.447  27.574   8.853
 7137POPC   GL229126  14.392  27.715   8.853
 7137POPC   C1A29127  14.423  27.612   8.553
 7137POPC   D2A29128  14.436  27.613   8.253
 7137POPC   C3A29129  14.450  27.622   7.953
 7137POPC   C4A29130  14.429  27.623   7.653
 7137POPC   C1B29131  14.388  27.884   8.553
 7137POPC   C2B29132  14.399  27.806   8.253
 7137POPC   C3B29133  14.380  27.814   7.953
 7137POPC   C4B29134  14.416  27.861   7.653
 7138POPC   NC329135  11.273  33.021   9.453
 7138POPC   PO429136  11.281  33.023   9.153
 7138POPC   GL129137  11.343  32.981   8.853
 7138POPC   GL229138  11.315  32.903   8.853
 7138POPC   C1A29139  11.251  33.028   8.553
 7138POPC   D2A29140  11.265  33.016   8.253
 7138POPC   C3A29141  11.259  33.036   7.953
 7138POPC   C4A29142  11.284  33.033   7.653
 7138POPC   C1B29143  11.207  32.776   8.553
 7138POPC   C2B29144  11.199  32.748   8.253
 7138POPC   C3B29145  11.233  32.753   7.953
 7138POPC   C4B29146  11.193  32.732   7.653
 7139POPC   NC329147  34.542  11.338   9.453
 7139POPC   PO429148  34.541  11.320   9.153
 7139POPC   GL129149  34.581  11.334   8.853
 7139POPC   GL229150  34.493  11.223   8.853
 7139POPC   C1A29151  34.618  11.307   8.553
 7139POPC   D2A29152  34.555  11.306   8.253
 7139POPC   C3A29153  34.570  11.301   7.953
 7139POPC   C4A29154  34.535  11.304   7.653
 7139POPC   C1B29155  34.464  11.072   8.553
 7139POPC   C2B29156  34.456  11.080   8.253
 7139POPC   C3B29157  34.480  11.111   7.953
 7139POPC   C4B29158  34.415  11.044   7.653
 7140POPC   NC329159  33.073  15.188   9.453
 7140POPC   PO429160  33.010  15.135   9.153
 7140POPC   GL129161  33.051  15.189   8.853
 7140POPC   GL229162  32.871  15.150   8.853
 7140POPC   C1A29163  33.028  15.135   8.553
 7140POPC   D2A29164  33.005  15.141   8.253
 7140POPC   C3A29165  33.069  15.192   7.953
 7140POPC   C4A29166  32.975  15.203   7.653
 7140POPC   C1B29167  32.780  15.137   8.553
 7140POPC   C2B29168  32.768  15.135   8.253
 7140POPC   C3B29169  32.776  15.118   7.953
 7140POPC   C4B29170  32.785  15.073   7.653
 7141POPC   NC329171   9.748  21.392   9.453
 7141POPC   PO429172   9.748  21.367   9.153
 7141POPC   GL129173   9.787  21.434   8.853
 7141POPC   GL229174   9.839  21.426   8.853
 7141POPC   C1A29175   9.717  21.411   8.553
 7141POPC   D2A29176   9.737  21.395   8.253
 7141POPC   C3A29177   9.771  21.354   7.953
 7141POPC   C4A29178   9.766  21.390   7.653
 7141POPC   C1B29179   9.979  21.563   8.553
 7141POPC   C2B29180   9.956  21.563   8.253
 7141POPC   C3B29181   9.954  21.509   7.953
 7141POPC   C4B29182   9.952  21.534   7.653
 7142POPC   NC329183  13.613  22.948   9.453
 7142POPC   PO429184  13.644  22.988   9.153
 7142POPC   GL129185  13.661  22.903   8.853
 7142POPC   GL229186  13.593  23.086   8.853
 7142POPC   C1A29187  13.666  22.942   8.553
 7142POPC   D2A29188  13.675  22.960   8.253
 7142POPC   C3A29189  13.676  22.935   7.953
 7142POPC   C4A29190  13.634  22.969   7.653
 7142POPC   C1B29191  13.667  23.152   8.553
 7142POPC   C2B29192  13.683  23.143   8.253
 7142POPC   C3B29193  13.648  23.186   7.953
 7142POPC   C4B29194  13.609  23.228   7.653
 7143POPC   NC329195  12.064  10.488   9.453
 7143POPC   PO429196  12.069  10.553   9.153
 7143POPC   GL129197  12.109  10.494   8.853
 7143POPC   GL229198  11.941  10.584   8.853
 7143POPC   C1A29199  12.058  10.516   8.553
 7143POPC   D2A29200  12.058  10.503   8.253
 7143POPC   C3A29201  12.102  10.568   7.953
 7143POPC   C4A29202  12.089  10.542   7.653
 7143POPC   C1B29203  11.780  10.545   8.553
 7143POPC   C2B29204  11.844  10.544   8.253
 7143POPC   C3B29205  11.865  10.574   7.953
 7143POPC   C4B29206  11.877  10.554   7.653
 7144POPC   NC329207  32.274  32.209   9.453
 7144POPC   PO429208  32.203  32.205   9.153
 7144POPC   GL129209  32.256  32.289   8.853
 7144POPC   GL229210  32.251  32.100   8.853
 7144POPC   C1A29211  32.203  32.217   8.553
 7144POPC   D2A29212  32.241  32.249   8.253
 7144POPC   C3A29213  32.224  32.252   7.953
 7144POPC   C4A29214  32.222  32.242   7.653
 7144POPC   C1B29215  32.300  32.031   8.553
 7144POPC   C2B29216  32.348  32.039   8.253
 7144POPC   C3B29217  32.319  31.992   7.953
 7144POPC   C4B29218  32.351  31.979   7.653
 7145POPC   NC329219  34.547  18.251   9.453
 7145POPC   PO429220  34.530  18.296   9.153
 7145POPC   GL129221  34.548  18.307   8.853
 7145POPC   GL229222  34.673  18.362   8.853
 7145POPC   C1A29223  34.552  18.287   8.553
 7145POPC   D2A29224  34.526  18.314   8.253
 7145POPC   C3A29225  34.564  18.285   7.953
 7145POPC   C4A29226  34.543  18.241   7.653
 7145POPC   C1B29227  34.626  18.514   8.553
 7145POPC   C2B29228  34.645  18.500   8.253
 7145POPC   C3B29229  34.634  18.495   7.953
 7145POPC   C4B29230  34.688  18.473   7.653
 7146POPC   NC329231   8.149  30.728   9.453
 7146POPC   PO429232   8.189  30.685   9.153
 7146POPC   GL129233   8.194  30.746   8.853
 7146POPC   GL229234   8.187  30.780   8.853
 7146POPC   C1A29235   8.195  30.680   8.553
 7146POPC   D2A29236   8.212  30.677   8.253
 7146POPC   C3A29237   8.226  30.686   7.953
 7146POPC   C4A29238   8.220  30.657   7.653
 7146POPC   C1B29239   8.109  30.896   8.553
 7146POPC   C2B29240   8.147  30.915   8.253
 7146POPC   C3B29241   8.130  30.908   7.953
 7146POPC   C4B29242   8.067  30.951   7.653
 7147POPC   NC329243  26.859  14.406   9.453
 7147POPC   PO429244  26.784  14.444   9.153
 7147POPC   GL129245  26.810  14.433   8.853
 7147POPC   GL229246  26.800  14.477   8.853
 7147POPC   C1A29247  26.809  14.425   8.553
 7147POPC   D2A29248  26.776  14.371   8.253
 7147POPC   C3A29249  26.812  14.433   7.953
 7147POPC   C4A29250  26.773  14.369   7.653
 7147POPC   C1B29251  26.746  14.653   8.553
 7147POPC   C2B29252  26.697  14.649   8.253
 7147POPC   C3B29253  26.665  14.611   7.953
 7147POPC   C4B29254  26.681  14.624   7.653
 7148POPC   NC329255  28.361  33.794   9.453
 7148POPC   PO429256  28.378  33.792   9.153
 7148POPC   GL129257  28.330  33.821   8.853
 7148POPC   GL229258  28.506  33.852   8.853
 7148POPC   C1A29259  28.408  33.775   8.553
 7148POPC   D2A29260  28.393  33.804   8.253
 7148POPC   C3A29261  28.328  33.835   7.953
 7148POPC   C4A29262  28.324  33.845   7.653
 7148POPC   C1B29263  28.636  33.887   8.553
 7148POPC   C2B29264  28.653  33.804   8.253
 7148POPC   C3B29265  28.605  33.827   7.953
 7148POPC   C4B29266  28.584  33.854   7.653
 7149POPC   NC329267  36.935  22.908   9.453
 7149POPC   PO429268  36.881  22.893   9.153
 7149POPC   GL129269  36.916  22.904   8.853
 7149POPC   GL229270  36.992  23.019   8.853
 7149POPC   C1A29271  36.949  22.939   8.553
 7149POPC   D2A29272  36.928  22.961   8.253
 7149POPC   C3A29273  36.927  22.910   7.953
 7149POPC   C4A29274  36.937  22.893   7.653
 7149POPC   C1B29275  37.031  23.166   8.553
 7149POPC   C2B29276  37.064  23.071   8.253
 7149POPC   C3B29277  37.090  23.132   7.953
 7149POPC   C4B29278  37.052  23.151   7.653
 7150POPC   NC329279   9.727  27.573   9.453
 7150POPC   PO429280   9.795  27.635   9.153
 7150POPC   GL129281   9.780  27.559   8.853
 7150POPC   GL229282   9.711  27.675   8.853
 7150POPC   C1A29283   9.750  27.594   8.553
 7150POPC   D2A29284   9.703  27.586   8.253
 7150POPC   C3A29285   9.795  27.587   7.953
 7150POPC   C4A29286   9.724  27.544   7.653
 7150POPC   C1B29287   9.799  27.872   8.553
 7150POPC   C2B29288   9.714  27.806   8.253
 7150POPC   C3B29289   9.778  27.872   7.953
 7150POPC   C4B29290   9.708  27.858   7.653
 7151POPC   NC329291  14.363  23.762   9.453
 7151POPC   PO429292  14.436  23.692   9.153
 7151POPC   GL129293  14.356  23.684   8.853
 7151POPC   GL229294  14.255  23.689   8.853
 7151POPC   C1A29295  14.364  23.750   8.553
 7151POPC   D2A29296  14.391  23.728   8.253
 7151POPC   C3A29297  14.426  23.755   7.953
 7151POPC   C4A29298  14.412  23.700   7.653
 7151POPC   C1B29299  14.124  23.723   8.553
 7151POPC   C2B29300  14.132  23.776   8.253
 7151POPC   C3B29301  14.154  23.736   7.953
 7151POPC   C4B29302  14.126  23.781   7.653
 7152POPC   NC329303  26.823  29.109   9.453
 7152POPC   PO429304  26.799  29.188   9.153
 7152POPC   GL129305  26.814  29.174   8.853
 7152POPC   GL229306  26.957  29.114   8.853
 7152POPC   C1A29307  26.778  29.166   8.553
 7152POPC   D2A29308  26.832  29.173   8.253
 7152POPC   C3A29309  26.820  29.150   7.953
 7152POPC   C4A29310  26.779  29.127   7.653
 7152POPC   C1B29311  27.033  29.104   8.553
 7152POPC   C2B29312  27.098  29.078   8.253
 7152POPC   C3B29313  27.107  29.058   7.953
 7152POPC   C4B29314  27.074  29.111   7.653
 7153POPC   NC329315  29.935  36.946   9.453
 7153POPC   PO429316  29.896  36.932   9.153
 7153POPC   GL129317  29.896  36.899   8.853
 7153POPC   GL229318  29.787  36.912   8.853
 7153POPC   C1A29319  29.961  36.871   8.553
 7153POPC   D2A29320  29.935  36.925   8.253
 7153POPC   C3A29321  29.940  36.902   7.953
 7153POPC   C4A29322  29.945  36.914   7.653
 7153POPC   C1B29323  29.682  36.919   8.553
 7153POPC   C2B29324  29.640  36.961   8.253
 7153POPC   C3B29325  29.700  36.926   7.953
 7153POPC   C4B29326  29.651  36.943   7.653
 7154POPC   NC329327  30.743   1.187   9.453
 7154POPC   PO429328  30.676   1.186   9.153
 7154POPC   GL129329  30.704   1.211   8.853
 7154POPC   GL229330  30.680   1.301   8.853
 7154POPC   C1A29331  30.728   1.225   8.553
 7154POPC   D2A29332  30.721   1.224   8.253
 7154POPC   C3A29333  30.648   1.212   7.953
 7154POPC   C4A29334  30.671   1.212   7.653
 7154POPC   C1B29335  30.645   1.501   8.553
 7154POPC   C2B29336  30.644   1.492   8.253
 7154POPC   C3B29337  30.646   1.467   7.953
 7154POPC   C4B29338  30.658   1.429   7.653
 7155POPC   NC329339   9.759  44.662   9.453
 7155POPC   PO429340   9.797  44.698   9.153
 7155POPC   GL129341   9.788  44.684   8.853
 7155POPC   GL229342   9.824  44.817   8.853
 7155POPC   C1A29343   9.733  44.682   8.553
 7155POPC   D2A29344   9.712  44.672   8.253
 7155POPC   C3A29345   9.735  44.626   7.953
 7155POPC   C4A29346   9.701  44.695   7.653
 7155POPC   C1B29347   9.876  44.906   8.553
 7155POPC   C2B29348   9.878  44.910   8.253
 7155POPC   C3B29349   9.864  44.884   7.953
 7155POPC   C4B29350   9.912  44.902   7.653
 7156POPC   NC329351   5.842  19.865   9.453
 7156POPC   PO429352   5.850  19.859   9.153
 7156POPC   GL129353   5.839  19.848   8.853
 7156POPC   GL229354   5.832  19.949   8.853
 7156POPC   C1A29355   5.885  19.785   8.553
 7156POPC   D2A29356   5.905  19.841   8.253
 7156POPC   C3A29357   5.899  19.816   7.953
 7156POPC   C4A29358   5.905  19.878   7.653
 7156POPC   C1B29359   5.754  20.091   8.553
 7156POPC   C2B29360   5.783  20.074   8.253
 7156POPC   C3B29361   5.784  20.041   7.953
 7156POPC   C4B29362   5.713  20.081   7.653
 7157POPC   NC329363  11.343  17.489   9.453
 7157POPC   PO429364  11.271  17.493   9.153
 7157POPC   GL129365  11.268  17.528   8.853
 7157POPC   GL229366  11.344  17.448   8.853
 7157POPC   C1A29367  11.297  17.552   8.553
 7157POPC   D2A29368  11.335  17.513   8.253
 7157POPC   C3A29369  11.293  17.464   7.953
 7157POPC   C4A29370  11.350  17.492   7.653
 7157POPC   C1B29371  11.455  17.346   8.553
 7157POPC   C2B29372  11.455  17.360   8.253
 7157POPC   C3B29373  11.526  17.326   7.953
 7157POPC   C4B29374  11.445  17.338   7.653
 7158POPC   NC329375  37.666  28.329   9.453
 7158POPC   PO429376  37.660  28.391   9.153
 7158POPC   GL129377  37.723  28.418   8.853
 7158POPC   GL229378  37.563  28.356   8.853
 7158POPC   C1A29379  37.702  28.353   8.553
 7158POPC   D2A29380  37.633  28.377   8.253
 7158POPC   C3A29381  37.711  28.398   7.953
 7158POPC   C4A29382  37.635  28.341   7.653
 7158POPC   C1B29383  37.401  28.314   8.553
 7158POPC   C2B29384  37.433  28.280   8.253
 7158POPC   C3B29385  37.477  28.288   7.953
 7158POPC   C4B29386  37.460  28.330   7.653
 7159POPC   NC329387   4.347  18.305   9.453
 7159POPC   PO429388   4.325  18.303   9.153
 7159POPC   GL129389   4.322  18.314   8.853
 7159POPC   GL229390   4.172  18.313   8.853
 7159POPC   C1A29391   4.361  18.289   8.553
 7159POPC   D2A29392   4.310  18.258   8.253
 7159POPC   C3A29393   4.280  18.310   7.953
 7159POPC   C4A29394   4.284  18.310   7.653
 7159POPC   C1B29395   4.091  18.469   8.553
 7159POPC   C2B29396   4.073  18.401   8.253
 7159POPC   C3B29397   4.080  18.385   7.953
 7159POPC   C4B29398   4.156  18.433   7.653
 7160POPC   NC329399  34.597  36.092   9.453
 7160POPC   PO429400  34.546  36.084   9.153
 7160POPC   GL129401  34.598  36.133   8.853
 7160POPC   GL229402  34.543  36.064   8.853
 7160POPC   C1A29403  34.532  36.094   8.553
 7160POPC   D2A29404  34.571  36.156   8.253
 7160POPC   C3A29405  34.572  36.146   7.953
 7160POPC   C4A29406  34.555  36.082   7.653
 7160POPC   C1B29407  34.479  35.911   8.553
 7160POPC   C2B29408  34.441  35.949   8.253
 7160POPC   C3B29409  34.422  35.887   7.953
 7160POPC   C4B29410  34.451  35.885   7.653
 7161POPC   NC329411  14.377  20.566   9.453
 7161POPC   PO429412  14.390  20.636   9.153
 7161POPC   GL129413  14.395  20.645   8.853
 7161POPC   GL229414  14.374  20.544   8.853
 7161POPC   C1A29415  14.376  20.582   8.553
 7161POPC   D2A29416  14.446  20.600   8.253
 7161POPC   C3A29417  14.390  20.642   7.953
 7161POPC   C4A29418  14.414  20.590   7.653
 7161POPC   C1B29419  14.273  20.429   8.553
 7161POPC   C2B29420  14.294  20.386   8.253
 7161POPC   C3B29421  14.293  20.362   7.953
 7161POPC   C4B29422  14.232  20.422   7.653
 7162POPC   NC329423  17.551  31.470   9.453
 7162POPC   PO429424  17.544  31.510   9.153
 7162POPC   GL129425  17.472  31.439   8.853
 7162POPC   GL229426  17.369  31.401   8.853
 7162POPC   C1A29427  17.475  31.462   8.553
 7162POPC   D2A29428  17.483  31.509   8.253
 7162POPC   C3A29429  17.543  31.461   7.953
 7162POPC   C4A29430  17.504  31.469   7.653
 7162POPC   C1B29431  17.365  31.332   8.553
 7162POPC   C2B29432  17.326  31.299   8.253
 7162POPC   C3B29433  17.334  31.307   7.953
 7162POPC   C4B29434  17.280  31.280   7.653
 7163POPC   NC329435  22.126   4.332   9.453
 7163POPC   PO429436  22.165   4.328   9.153
 7163POPC   GL129437  22.113   4.271   8.853
 7163POPC   GL229438  22.245   4.375   8.853
 7163POPC   C1A29439  22.167   4.357   8.553
 7163POPC   D2A29440  22.117   4.316   8.253
 7163POPC   C3A29441  22.180   4.350   7.953
 7163POPC   C4A29442  22.167   4.362   7.653
 7163POPC   C1B29443  22.356   4.426   8.553
 7163POPC   C2B29444  22.348   4.461   8.253
 7163POPC   C3B29445  22.354   4.396   7.953
 7163POPC   C4B29446  22.385   4.455   7.653
 7164POPC   NC329447  39.267  33.049   9.453
 7164POPC   PO429448  39.182  33.036   9.153
 7164POPC   GL129449  39.259  33.070   8.853
 7164POPC   GL229450  39.230  33.164   8.853
 7164POPC   C1A29451  39.227  32.994   8.553
 7164POPC   D2A29452  39.192  33.055   8.253
 7164POPC   C3A29453  39.208  33.026   7.953
 7164POPC   C4A29454  39.243  33.058   7.653
 7164POPC   C1B29455  39.202  33.320   8.553
 7164POPC   C2B29456  39.234  33.310   8.253
 7164POPC   C3B29457  39.179  33.226   7.953
 7164POPC   C4B29458  39.211  33.233   7.653
 7165POPC   NC329459  27.547  25.235   9.453
 7165POPC   PO429460  27.635  25.312   9.153
 7165POPC   GL129461  27.603  25.236   8.853
 7165POPC   GL229462  27.598  25.145   8.853
 7165POPC   C1A29463  27.618  25.260   8.553
 7165POPC   D2A29464  27.591  25.267   8.253
 7165POPC   C3A29465  27.588  25.272   7.953
 7165POPC   C4A29466  27.586  25.310   7.653
 7165POPC   C1B29467  27.674  25.060   8.553
 7165POPC   C2B29468  27.648  24.995   8.253
 7165POPC   C3B29469  27.707  25.041   7.953
 7165POPC   C4B29470  27.641  24.992   7.653
 7166POPC   NC329471  12.899  14.453   9.453
 7166POPC   PO429472  12.849  14.430   9.153
 7166POPC   GL129473  12.894  14.427   8.853
 7166POPC   GL229474  12.933  14.256   8.853
 7166POPC   C1A29475  12.830  14.394   8.553
 7166POPC   D2A29476  12.850  14.447   8.253
 7166POPC   C3A29477  12.850  14.391   7.953
 7166POPC   C4A29478  12.867  14.435   7.653
 7166POPC   C1B29479  12.885  14.122   8.553
 7166POPC   C2B29480  12.871  14.163   8.253
 7166POPC   C3B29481  12.899  14.128   7.953
 7166POPC   C4B29482  12.965  14.195   7.653
 7167POPC   NC329483  15.913   2.738   9.453
 7167POPC   PO429484  15.980   2.756   9.153
 7167POPC   GL129485  15.998   2.757   8.853
 7167POPC   GL229486  15.906   2.680   8.853
 7167POPC   C1A29487  15.913   2.719   8.553
 7167POPC   D2A29488  15.954   2.772   8.253
 7167POPC   C3A29489  15.966   2.761   7.953
 7167POPC   C4A29490  15.970   2.763   7.653
 7167POPC   C1B29491  15.935   2.550   8.553
 7167POPC   C2B29492  15.854   2.494   8.253
 7167POPC   C3B29493  15.900   2.534   7.953
 7167POPC   C4B29494  15.949   2.565   7.653
 7168POPC   NC329495  19.823  16.733   9.453
 7168POPC   PO429496  19.868  16.770   9.153
 7168POPC   GL129497  19.855  16.734   8.853
 7168POPC   GL229498  19.809  16.573   8.853
 7168POPC   C1A29499  19.829  16.704   8.553
 7168POPC   D2A29500  19.800  16.776   8.253
 7168POPC   C3A29501  19.807  16.747   7.953
 7168POPC   C4A29502  19.884  16.745   7.653
 7168POPC   C1B29503  19.679  16.496   8.553
 7168POPC   C2B29504  19.695  16.546   8.253
 7168POPC   C3B29505  19.671  16.495   7.953
 7168POPC   C4B29506  19.698  16.518   7.653
 7169POPC   NC329507  22.130  28.415   9.453
 7169POPC   PO429508  22.170  28.378   9.153
 7169POPC   GL129509  22.160  28.394   8.853
 7169POPC   GL229510  22.272  28.283   8.853
 7169POPC   C1A29511  22.119  28.403   8.553
 7169POPC   D2A29512  22.182  28.351   8.253
 7169POPC   C3A29513  22.182  28.330   7.953
 7169POPC   C4A29514  22.169  28.352   7.653
 7169POPC   C1B29515  22.365  28.181   8.553
 7169POPC   C2B29516  22.358  28.188   8.253
 7169POPC   C3B29517  22.279  28.178   7.953
 7169POPC   C4B29518  22.330  28.166   7.653
 7170POPC   NC329519  12.097  25.310   9.453
 7170POPC   PO429520  12.048  25.237   9.153
 7170POPC   GL129521  12.087  25.228   8.853
 7170POPC   GL229522  12.129  25.146   8.853
 7170POPC   C1A29523  12.077  25.239   8.553
 7170POPC   D2A29524  12.118  25.294   8.253
 7170POPC   C3A29525  12.043  25.238   7.953
 7170POPC   C4A29526  12.038  25.263   7.653
 7170POPC   C1B29527  12.277  25.121   8.553
 7170POPC   C2B29528  12.223  25.050   8.253
 7170POPC   C3B29529  12.266  25.073   7.953
 7170POPC   C4B29530  12.220  25.129   7.653
 7171POPC   NC329531  27.557   7.437   9.453
 7171POPC   PO429532  27.587   7.383   9.153
 7171POPC   GL129533  27.590   7.440   8.853
 7171POPC   GL229534  27.594   7.589   8.853
 7171POPC   C1A29535  27.619   7.437   8.553
 7171POPC   D2A29536  27.595   7.439   8.253
 7171POPC   C3A29537  27.566   7.413   7.953
 7171POPC   C4A29538  27.583   7.389   7.653
 7171POPC   C1B29539  27.619   7.651   8.553
 7171POPC   C2B29540  27.644   7.659   8.253
 7171POPC   C3B29541  27.654   7.642   7.953
 7171POPC   C4B29542  27.582   7.681   7.653
 7172POPC   NC329543  13.643  26.000   9.453
 7172POPC   PO429544  13.600  26.034   9.153
 7172POPC   GL129545  13.611  26.083   8.853
 7172POPC   GL229546  13.718  26.029   8.853
 7172POPC   C1A29547  13.658  26.038   8.553
 7172POPC   D2A29548  13.585  26.067   8.253
 7172POPC   C3A29549  13.671  26.029   7.953
 7172POPC   C4A29550  13.661  26.069   7.653
 7172POPC   C1B29551  13.853  25.993   8.553
 7172POPC   C2B29552  13.878  25.974   8.253
 7172POPC   C3B29553  13.862  25.978   7.953
 7172POPC   C4B29554  13.882  26.068   7.653
 7173POPC   NC329555   0.399  43.150   9.453
 7173POPC   PO429556   0.410  43.117   9.153
 7173POPC   GL129557   0.416  43.142   8.853
 7173POPC   GL229558   0.445  43.024   8.853
 7173POPC   C1A29559   0.412  43.103   8.553
 7173POPC   D2A29560   0.477  43.116   8.253
 7173POPC   C3A29561   0.485  43.093   7.953
 7173POPC   C4A29562   0.480  43.157   7.653
 7173POPC   C1B29563   0.385  42.842   8.553
 7173POPC   C2B29564   0.399  42.908   8.253
 7173POPC   C3B29565   0.340  42.901   7.953
 7173POPC   C4B29566   0.355  42.902   7.653
 7174POPC   NC329567   5.885  26.041   9.453
 7174POPC   PO429568   5.906  25.994   9.153
 7174POPC   GL129569   5.871  26.004   8.853
 7174POPC   GL229570   5.712  26.060   8.853
 7174POPC   C1A29571   5.866  26.064   8.553
 7174POPC   D2A29572   5.837  26.021   8.253
 7174POPC   C3A29573   5.849  26.074   7.953
 7174POPC   C4A29574   5.897  26.067   7.653
 7174POPC   C1B29575   5.664  26.086   8.553
 7174POPC   C2B29576   5.652  26.049   8.253
 7174POPC   C3B29577   5.635  26.078   7.953
 7174POPC   C4B29578   5.631  26.119   7.653
 7175POPC   NC329579  12.123  18.294   9.453
 7175POPC   PO429580  12.031  18.273   9.153
 7175POPC   GL129581  12.101  18.304   8.853
 7175POPC   GL229582  11.991  18.188   8.853
 7175POPC   C1A29583  12.122  18.329   8.553
 7175POPC   D2A29584  12.109  18.260   8.253
 7175POPC   C3A29585  12.101  18.285   7.953
 7175POPC   C4A29586  12.106  18.261   7.653
 7175POPC   C1B29587  11.854  18.185   8.553
 7175POPC   C2B29588  11.814  18.179   8.253
 7175POPC   C3B29589  11.882  18.186   7.953
 7175POPC   C4B29590  11.816  18.163   7.653
 7176POPC   NC329591  36.890   2.776   9.453
 7176POPC   PO429592  36.863   2.800   9.153
 7176POPC   GL129593  36.928   2.717   8.853
 7176POPC   GL229594  37.024   2.792   8.853
 7176POPC   C1A29595  36.943   2.729   8.553
 7176POPC   D2A29596  36.887   2.736   8.253
 7176POPC   C3A29597  36.904   2.771   7.953
 7176POPC   C4A29598  36.873   2.773   7.653
 7176POPC   C1B29599  37.107   2.833   8.553
 7176POPC   C2B29600  37.119   2.862   8.253
 7176POPC   C3B29601  37.137   2.923   7.953
 7176POPC   C4B29602  37.087   2.884   7.653
 7177POPC   NC329603  44.634  12.893   9.453
 7177POPC   PO429604  44.712  12.803   9.153
 7177POPC   GL129605  44.706  12.802   8.853
 7177POPC   GL229606  44.597  12.752   8.853
 7177POPC   C1A29607  44.672  12.870   8.553
 7177POPC   D2A29608  44.658  12.852   8.253
 7177POPC   C3A29609  44.679  12.870   7.953
 7177POPC   C4A29610  44.659  12.895   7.653
 7177POPC   C1B29611  44.611  12.658   8.553
 7177POPC   C2B29612  44.585  12.566   8.253
 7177POPC   C3B29613  44.627  12.564   7.953
 7177POPC   C4B29614  44.576  12.661   7.653
 7178POPC   NC329615  41.518  33.783   9.453
 7178POPC   PO429616  41.543  33.840   9.153
 7178POPC   GL129617  41.523  33.848   8.853
 7178POPC   GL229618  41.552  33.713   8.853
 7178POPC   C1A29619  41.569  33.771   8.553
 7178POPC   D2A29620  41.518  33.782   8.253
 7178POPC   C3A29621  41.519  33.843   7.953
 7178POPC   C4A29622  41.539  33.803   7.653
 7178POPC   C1B29623  41.558  33.589   8.553
 7178POPC   C2B29624  41.528  33.550   8.253
 7178POPC   C3B29625  41.543  33.503   7.953
 7178POPC   C4B29626  41.607  33.567   7.653
 7179POPC   NC329627  12.118  32.241   9.453
 7179POPC   PO429628  12.037  32.236   9.153
 7179POPC   GL129629  12.125  32.237   8.853
 7179POPC   GL229630  12.034  32.105   8.853
 7179POPC   C1A29631  12.046  32.285   8.553
 7179POPC   D2A29632  12.117  32.250   8.253
 7179POPC   C3A29633  12.086  32.212   7.953
 7179POPC   C4A29634  12.108  32.221   7.653
 7179POPC   C1B29635  11.917  32.064   8.553
 7179POPC   C2B29636  11.953  31.990   8.253
 7179POPC   C3B29637  11.998  32.052   7.953
 7179POPC   C4B29638  11.915  32.051   7.653
 7180POPC   NC329639  37.687  26.820   9.453
 7180POPC   PO429640  37.642  26.853   9.153
 7180POPC   GL129641  37.713  26.845   8.853
 7180POPC   GL229642  37.589  26.809   8.853
 7180POPC   C1A29643  37.661  26.789   8.553
 7180POPC   D2A29644  37.639  26.775   8.253
 7180POPC   C3A29645  37.728  26.793   7.953
 7180POPC   C4A29646  37.645  26.815   7.653
 7180POPC   C1B29647  37.478  26.817   8.553
 7180POPC   C2B29648  37.388  26.774   8.253
 7180POPC   C3B29649  37.426  26.781   7.953
 7180POPC   C4B29650  37.385  26.795   7.653
 7181POPC   NC329651   1.170  15.951   9.453
 7181POPC   PO429652   1.198  15.998   9.153
 7181POPC   GL129653   1.178  16.000   8.853
 7181POPC   GL229654   1.358  15.864   8.853
 7181POPC   C1A29655   1.240  15.963   8.553
 7181POPC   D2A29656   1.166  15.976   8.253
 7181POPC   C3A29657   1.259  15.927   7.953
 7181POPC   C4A29658   1.247  15.988   7.653
 7181POPC   C1B29659   1.415  15.883   8.553
 7181POPC   C2B29660   1.450  15.845   8.253
 7181POPC   C3B29661   1.431  15.820   7.953
 7181POPC   C4B29662   1.443  15.855   7.653
 7182POPC   NC329663  28.327  28.369   9.453
 7182POPC   PO429664  28.400  28.402   9.153
 7182POPC   GL129665  28.369  28.391   8.853
 7182POPC   GL229666  28.294  28.228   8.853
 7182POPC   C1A29667  28.388  28.345   8.553
 7182POPC   D2A29668  28.342  28.410   8.253
 7182POPC   C3A29669  28.346  28.319   7.953
 7182POPC   C4A29670  28.401  28.367   7.653
 7182POPC   C1B29671  28.186  28.165   8.553
 7182POPC   C2B29672  28.256  28.157   8.253
 7182POPC   C3B29673  28.202  28.190   7.953
 7182POPC   C4B29674  28.191  28.165   7.653
 7183POPC   NC329675   6.667  26.839   9.453
 7183POPC   PO429676   6.693  26.835   9.153
 7183POPC   GL129677   6.653  26.867   8.853
 7183POPC   GL229678   6.677  26.688   8.853
 7183POPC   C1A29679   6.652  26.803   8.553
 7183POPC   D2A29680   6.597  26.787   8.253
 7183POPC   C3A29681   6.619  26.799   7.953
 7183POPC   C4A29682   6.598  26.801   7.653
 7183POPC   C1B29683   6.699  26.572   8.553
 7183POPC   C2B29684   6.689  26.622   8.253
 7183POPC   C3B29685   6.695  26.561   7.953
 7183POPC   C4B29686   6.715  26.591   7.653
 7184POPC   NC329687   6.633   8.203   9.453
 7184POPC   PO429688   6.595   8.199   9.153
 7184POPC   GL129689   6.605   8.242   8.853
 7184POPC   GL229690   6.629   8.036   8.853
 7184POPC   C1A29691   6.675   8.194   8.553
 7184POPC   D2A29692   6.634   8.167   8.253
 7184POPC   C3A29693   6.612   8.188   7.953
 7184POPC   C4A29694   6.608   8.184   7.653
 7184POPC   C1B29695   6.689   7.980   8.553
 7184POPC   C2B29696   6.688   7.970   8.253
 7184POPC   C3B29697   6.695   7.992   7.953
 7184POPC   C4B29698   6.643   7.932   7.653
 7185POPC   NC329699  22.157  26.828   9.453
 7185POPC   PO429700  22.134  26.819   9.153
 7185POPC   GL129701  22.153  26.772   8.853
 7185POPC   GL229702  22.283  26.913   8.853
 7185POPC   C1A29703  22.129  26.806   8.553
 7185POPC   D2A29704  22.209  26.835   8.253
 7185POPC   C3A29705  22.166  26.846   7.953
 7185POPC   C4A29706  22.181  26.781   7.653
 7185POPC   C1B29707  22.281  27.004   8.553
 7185POPC   C2B29708  22.369  26.996   8.253
 7185POPC   C3B29709  22.311  27.022   7.953
 7185POPC   C4B29710  22.332  26.958   7.653
 7186POPC   NC329711  33.760   2.761   9.453
 7186POPC   PO429712  33.756   2.797   9.153
 7186POPC   GL129713  33.780   2.769   8.853
 7186POPC   GL229714  33.650   2.788   8.853
 7186POPC   C1A29715  33.804   2.782   8.553
 7186POPC   D2A29716  33.809   2.773   8.253
 7186POPC   C3A29717  33.850   2.730   7.953
 7186POPC   C4A29718  33.811   2.791   7.653
 7186POPC   C1B29719  33.505   2.788   8.553
 7186POPC   C2B29720  33.556   2.728   8.253
 7186POPC   C3B29721  33.511   2.707   7.953
 7186POPC   C4B29722  33.562   2.755   7.653
 7187POPC   NC329723   3.530  10.481   9.453
 7187POPC   PO429724   3.496  10.495   9.153
 7187POPC   GL129725   3.535  10.491   8.853
 7187POPC   GL229726   3.614  10.583   8.853
 7187POPC   C1A29727   3.515  10.483   8.553
 7187POPC   D2A29728   3.572  10.531   8.253
 7187POPC   C3A29729   3.511  10.564   7.953
 7187POPC   C4A29730   3.561  10.489   7.653
 7187POPC   C1B29731   3.720  10.657   8.553
 7187POPC   C2B29732   3.815  10.615   8.253
 7187POPC   C3B29733   3.761  10.651   7.953
 7187POPC   C4B29734   3.796  10.638   7.653
 7188POPC   NC329735  34.560   4.290   9.453
 7188POPC   PO429736  34.582   4.280   9.153
 7188POPC   GL129737  34.560   4.302   8.853
 7188POPC   GL229738  34.681   4.223   8.853
 7188POPC   C1A29739  34.566   4.307   8.553
 7188POPC   D2A29740  34.548   4.360   8.253
 7188POPC   C3A29741  34.599   4.289   7.953
 7188POPC   C4A29742  34.543   4.355   7.653
 7188POPC   C1B29743  34.762   4.130   8.553
 7188POPC   C2B29744  34.741   4.155   8.253
 7188POPC   C3B29745  34.806   4.109   7.953
 7188POPC   C4B29746  34.776   4.198   7.653
 7189POPC   NC329747  15.139  26.085   9.453
 7189POPC   PO429748  15.213  25.998   9.153
 7189POPC   GL129749  15.165  26.003   8.853
 7189POPC   GL229750  15.272  26.138   8.853
 7189POPC   C1A29751  15.176  26.074   8.553
 7189POPC   D2A29752  15.168  26.058   8.253
 7189POPC   C3A29753  15.170  26.066   7.953
 7189POPC   C4A29754  15.227  25.994   7.653
 7189POPC   C1B29755  15.287  26.235   8.553
 7189POPC   C2B29756  15.280  26.276   8.253
 7189POPC   C3B29757  15.323  26.311   7.953
 7189POPC   C4B29758  15.297  26.284   7.653
 7190POPC   NC329759   2.767  29.901   9.453
 7190POPC   PO429760   2.807  29.936   9.153
 7190POPC   GL129761   2.735  29.938   8.853
 7190POPC   GL229762   2.771  29.808   8.853
 7190POPC   C1A29763   2.787  29.945   8.553
 7190POPC   D2A29764   2.780  29.947   8.253
 7190POPC   C3A29765   2.778  29.908   7.953
 7190POPC   C4A29766   2.799  29.911   7.653
 7190POPC   C1B29767   2.709  29.656   8.553
 7190POPC   C2B29768   2.686  29.688   8.253
 7190POPC   C3B29769   2.729  29.689   7.953
 7190POPC   C4B29770   2.742  29.671   7.653
 7191POPC   NC329771   0.475   1.216   9.453
 7191POPC   PO429772   0.453   1.214   9.153
 7191POPC   GL129773   0.429   1.258   8.853
 7191POPC   GL229774   0.400   1.357   8.853
 7191POPC   C1A29775   0.455   1.234   8.553
 7191POPC   D2A29776   0.419   1.184   8.253
 7191POPC   C3A29777   0.410   1.243   7.953
 7191POPC   C4A29778   0.473   1.212   7.653
 7191POPC   C1B29779   0.315   1.416   8.553
 7191POPC   C2B29780   0.287   1.406   8.253
 7191POPC   C3B29781   0.307   1.413   7.953
 7191POPC   C4B29782   0.307   1.402   7.653
 7192POPC   NC329783  37.693   5.869   9.453
 7192POPC   PO429784  37.655   5.825   9.153
 7192POPC   GL129785  37.707   5.854   8.853
 7192POPC   GL229786  37.700   5.953   8.853
 7192POPC   C1A29787  37.714   5.912   8.553
 7192POPC   D2A29788  37.687   5.855   8.253
 7192POPC   C3A29789  37.728   5.917   7.953
 7192POPC   C4A29790  37.671   5.914   7.653
 7192POPC   C1B29791  37.694   6.153   8.553
 7192POPC   C2B29792  37.711   6.080   8.253
 7192POPC   C3B29793  37.777   6.151   7.953
 7192POPC   C4B29794  37.740   6.143   7.653
 7193POPC   NC329795  30.652  17.486   9.453
 7193POPC   PO429796  30.694  17.508   9.153
 7193POPC   GL129797  30.694  17.552   8.853
 7193POPC   GL229798  30.768  17.493   8.853
 7193POPC   C1A29799  30.702  17.496   8.553
 7193POPC   D2A29800  30.723  17.502   8.253
 7193POPC   C3A29801  30.696  17.524   7.953
 7193POPC   C4A29802  30.736  17.524   7.653
 7193POPC   C1B29803  30.925  17.341   8.553
 7193POPC   C2B29804  30.940  17.415   8.253
 7193POPC   C3B29805  30.933  17.411   7.953
 7193POPC   C4B29806  30.948  17.356   7.653
 7194POPC   NC329807  17.490  10.558   9.453
 7194POPC   PO429808  17.496  10.558   9.153
 7194POPC   GL129809  17.489  10.514   8.853
 7194POPC   GL229810  17.617  10.489   8.853
 7194POPC   C1A29811  17.546  10.547   8.553
 7194POPC   D2A29812  17.495  10.549   8.253
 7194POPC   C3A29813  17.538  10.509   7.953
 7194POPC   C4A29814  17.534  10.515   7.653
 7194POPC   C1B29815  17.713  10.353   8.553
 7194POPC   C2B29816  17.700  10.413   8.253
 7194POPC   C3B29817  17.732  10.421   7.953
 7194POPC   C4B29818  17.699  10.365   7.653
 7195POPC   NC329819  26.040  31.439   9.453
 7195POPC   PO429820  26.005  31.439   9.153
 7195POPC   GL129821  26.087  31.493   8.853
 7195POPC   GL229822  25.964  31.385   8.853
 7195POPC   C1A29823  26.015  31.491   8.553
 7195POPC   D2A29824  26.027  31.511   8.253
 7195POPC   C3A29825  26.000  31.506   7.953
 7195POPC   C4A29826  26.060  31.441   7.653
 7195POPC   C1B29827  25.988  31.224   8.553
 7195POPC   C2B29828  26.000  31.184   8.253
 7195POPC   C3B29829  25.961  31.199   7.953
 7195POPC   C4B29830  25.960  31.248   7.653
 7196POPC   NC329831  31.423  21.415   9.453
 7196POPC   PO429832  31.461  21.380   9.153
 7196POPC   GL129833  31.443  21.344   8.853
 7196POPC   GL229834  31.362  21.384   8.853
 7196POPC   C1A29835  31.509  21.416   8.553
 7196POPC   D2A29836  31.487  21.345   8.253
 7196POPC   C3A29837  31.460  21.377   7.953
 7196POPC   C4A29838  31.490  21.347   7.653
 7196POPC   C1B29839  31.273  21.309   8.553
 7196POPC   C2B29840  31.212  21.318   8.253
 7196POPC   C3B29841  31.268  21.305   7.953
 7196POPC   C4B29842  31.228  21.307   7.653
 7197POPC   NC329843  33.785  38.450   9.453
 7197POPC   PO429844  33.814  38.486   9.153
 7197POPC   GL129845  33.807  38.455   8.853
 7197POPC   GL229846  33.749  38.570   8.853
 7197POPC   C1A29847  33.823  38.499   8.553
 7197POPC   D2A29848  33.825  38.472   8.253
 7197POPC   C3A29849  33.771  38.426   7.953
 7197POPC   C4A29850  33.827  38.426   7.653
 7197POPC   C1B29851  33.748  38.725   8.553
 7197POPC   C2B29852  33.700  38.730   8.253
 7197POPC   C3B29853  33.719  38.691   7.953
 7197POPC   C4B29854  33.677  38.701   7.653
 7198POPC   NC329855  22.894  29.876   9.453
 7198POPC   PO429856  22.969  29.963   9.153
 7198POPC   GL129857  22.912  29.884   8.853
 7198POPC   GL229858  22.924  30.035   8.853
 7198POPC   C1A29859  22.931  29.958   8.553
 7198POPC   D2A29860  22.911  29.895   8.253
 7198POPC   C3A29861  22.936  29.883   7.953
 7198POPC   C4A29862  22.976  29.880   7.653
 7198POPC   C1B29863  23.000  30.213   8.553
 7198POPC   C2B29864  22.944  30.160   8.253
 7198POPC   C3B29865  22.951  30.153   7.953
 7198POPC   C4B29866  22.925  30.167   7.653
 7199POPC   NC329867  15.190   9.781   9.453
 7199POPC   PO429868  15.226   9.759   9.153
 7199POPC   GL129869  15.147   9.759   8.853
 7199POPC   GL229870  15.184   9.859   8.853
 7199POPC   C1A29871  15.213   9.746   8.553
 7199POPC   D2A29872  15.150   9.727   8.253
 7199POPC   C3A29873  15.162   9.753   7.953
 7199POPC   C4A29874  15.171   9.747   7.653
 7199POPC   C1B29875  15.117  10.027   8.553
 7199POPC   C2B29876  15.122   9.958   8.253
 7199POPC   C3B29877  15.128   9.954   7.953
 7199POPC   C4B29878  15.059   9.989   7.653
 7200POPC   NC329879  38.470  20.657   9.453
 7200POPC   PO429880  38.475  20.597   9.153
 7200POPC   GL129881  38.488  20.562   8.853
 7200POPC   GL229882  38.503  20.694   8.853
 7200POPC   C1A29883  38.409  20.601   8.553
 7200POPC   D2A29884  38.425  20.658   8.253
 7200POPC   C3A29885  38.422  20.649   7.953
 7200POPC   C4A29886  38.501  20.639   7.653
 7200POPC   C1B29887  38.502  20.854   8.553
 7200POPC   C2B29888  38.565  20.865   8.253
 7200POPC   C3B29889  38.559  20.824   7.953
 7200POPC   C4B29890  38.564  20.876   7.653
 7201POPC   NC329891  35.383   0.438   9.453
 7201POPC   PO429892  35.357   0.427   9.153
 7201POPC   GL129893  35.317   0.389   8.853
 7201POPC   GL229894  35.222   0.523   8.853
 7201POPC   C1A29895  35.367   0.455   8.553
 7201POPC   D2A29896  35.302   0.455   8.253
 7201POPC   C3A29897  35.330   0.463   7.953
 7201POPC   C4A29898  35.376   0.447   7.653
 7201POPC   C1B29899  35.162   0.628   8.553
 7201POPC   C2B29900  35.204   0.647   8.253
 7201POPC   C3B29901  35.151   0.629   7.953
 7201POPC   C4B29902  35.137   0.668   7.653
 7202POPC   NC329903  20.570  15.224   9.453
 7202POPC   PO429904  20.631  15.149   9.153
 7202POPC   GL129905  20.571  15.139   8.853
 7202POPC   GL229906  20.657  15.031   8.853
 7202POPC   C1A29907  20.643  15.187   8.553
 7202POPC   D2A29908  20.624  15.150   8.253
 7202POPC   C3A29909  20.569  15.142   7.953
 7202POPC   C4A29910  20.622  15.226   7.653
 7202POPC   C1B29911  20.640  14.990   8.553
 7202POPC   C2B29912  20.702  14.972   8.253
 7202POPC   C3B29913  20.642  14.991   7.953
 7202POPC   C4B29914  20.712  14.929   7.653
 7203POPC   NC329915  40.051  37.700   9.453
 7203POPC   PO429916  39.989  37.672   9.153
 7203POPC   GL129917  39.964  37.633   8.853
 7203POPC   GL229918  39.923  37.588   8.853
 7203POPC   C1A29919  39.969  37.693   8.553
 7203POPC   D2A29920  39.997  37.666   8.253
 7203POPC   C3A29921  40.000  37.679   7.953
 7203POPC   C4A29922  39.970  37.647   7.653
 7203POPC   C1B29923  39.892  37.512   8.553
 7203POPC   C2B29924  39.817  37.520   8.253
 7203POPC   C3B29925  39.807  37.475   7.953
 7203POPC   C4B29926  39.841  37.505   7.653
 7204POPC   NC329927  32.271   2.741   9.453
 7204POPC   PO429928  32.240   2.760   9.153
 7204POPC   GL129929  32.294   2.746   8.853
 7204POPC   GL229930  32.270   2.634   8.853
 7204POPC   C1A29931  32.229   2.761   8.553
 7204POPC   D2A29932  32.225   2.721   8.253
 7204POPC   C3A29933  32.259   2.779   7.953
 7204POPC   C4A29934  32.227   2.757   7.653
 7204POPC   C1B29935  32.430   2.592   8.553
 7204POPC   C2B29936  32.359   2.555   8.253
 7204POPC   C3B29937  32.431   2.570   7.953
 7204POPC   C4B29938  32.405   2.513   7.653
 7205POPC   NC329939  19.054   8.219   9.453
 7205POPC   PO429940  19.080   8.180   9.153
 7205POPC   GL129941  19.077   8.163   8.853
 7205POPC   GL229942  19.047   8.094   8.853
 7205POPC   C1A29943  19.076   8.208   8.553
 7205POPC   D2A29944  19.052   8.183   8.253
 7205POPC   C3A29945  19.103   8.239   7.953
 7205POPC   C4A29946  19.081   8.150   7.653
 7205POPC   C1B29947  18.955   7.933   8.553
 7205POPC   C2B29948  18.943   7.972   8.253
 7205POPC   C3B29949  18.989   7.968   7.953
 7205POPC   C4B29950  18.930   8.008   7.653
 7206POPC   NC329951  44.701   9.730   9.453
 7206POPC   PO429952  44.657   9.778   9.153
 7206POPC   GL129953  44.633   9.717   8.853
 7206POPC   GL229954  44.654   9.886   8.853
 7206POPC   C1A29955  44.617   9.762   8.553
 7206POPC   D2A29956  44.677   9.790   8.253
 7206POPC   C3A29957  44.630   9.774   7.953
 7206POPC   C4A29958  44.617   9.722   7.653
 7206POPC   C1B29959  44.605  10.024   8.553
 7206POPC   C2B29960  44.588   9.928   8.253
 7206POPC   C3B29961  44.519   9.991   7.953
 7206POPC   C4B29962  44.574  10.008   7.653
 7207POPC   NC329963  31.450  15.915   9.453
 7207POPC   PO429964  31.469  15.910   9.153
 7207POPC   GL129965  31.514  15.992   8.853
 7207POPC   GL229966  31.560  16.032   8.853
 7207POPC   C1A29967  31.471  15.950   8.553
 7207POPC   D2A29968  31.508  15.927   8.253
 7207POPC   C3A29969  31.491  15.983   7.953
 7207POPC   C4A29970  31.460  15.940   7.653
 7207POPC   C1B29971  31.677  16.160   8.553
 7207POPC   C2B29972  31.649  16.091   8.253
 7207POPC   C3B29973  31.611  16.146   7.953
 7207POPC   C4B29974  31.642  16.121   7.653
 7208POPC   NC329975  31.514  12.890   9.453
 7208POPC   PO429976  31.496  12.825   9.153
 7208POPC   GL129977  31.428  12.867   8.853
 7208POPC   GL229978  31.582  12.990   8.853
 7208POPC   C1A29979  31.456  12.879   8.553
 7208POPC   D2A29980  31.423  12.818   8.253
 7208POPC   C3A29981  31.429  12.844   7.953
 7208POPC   C4A29982  31.476  12.879   7.653
 7208POPC   C1B29983  31.632  13.059   8.553
 7208POPC   C2B29984  31.569  13.037   8.253
 7208POPC   C3B29985  31.608  13.060   7.953
 7208POPC   C4B29986  31.577  13.093   7.653
 7209POPC   NC329987  23.742  24.459   9.453
 7209POPC   PO429988  23.711  24.451   9.153
 7209POPC   GL129989  23.730  24.478   8.853
 7209POPC   GL229990  23.808  24.413   8.853
 7209POPC   C1A29991  23.681  24.443   8.553
 7209POPC   D2A29992  23.680  24.442   8.253
 7209POPC   C3A29993  23.741  24.459   7.953
 7209POPC   C4A29994  23.687  24.452   7.653
 7209POPC   C1B29995  23.934  24.358   8.553
 7209POPC   C2B29996  23.916  24.317   8.253
 7209POPC   C3B29997  23.909  24.304   7.953
 7209POPC   C4B29998  23.882  24.364   7.653
 7210POPC   NC329999  27.571  20.597   9.453
 7210POPC   PO430000  27.588  20.620   9.153
 7210POPC   GL130001  27.605  20.611   8.853
 7210POPC   GL230002  27.476  20.749   8.853
 7210POPC   C1A30003  27.608  20.564   8.553
 7210POPC   D2A30004  27.565  20.585   8.253
 7210POPC   C3A30005  27.580  20.579   7.953
 7210POPC   C4A30006  27.580  20.592   7.653
 7210POPC   C1B30007  27.463  20.760   8.553
 7210POPC   C2B30008  27.395  20.808   8.253
 7210POPC   C3B30009  27.469  20.773   7.953
 7210POPC   C4B30010  27.428  20.812   7.653
 7211POPC   NC330011  28.330  33.053   9.453
 7211POPC   PO430012  28.346  32.994   9.153
 7211POPC   GL130013  28.409  33.024   8.853
 7211POPC   GL230014  28.409  32.918   8.853
 7211POPC   C1A30015  28.376  32.986   8.553
 7211POPC   D2A30016  28.337  33.071   8.253
 7211POPC   C3A30017  28.357  33.054   7.953
 7211POPC   C4A30018  28.334  32.990   7.653
 7211POPC   C1B30019  28.536  32.855   8.553
 7211POPC   C2B30020  28.494  32.824   8.253
 7211POPC   C3B30021  28.506  32.852   7.953
 7211POPC   C4B30022  28.546  32.875   7.653
 7212POPC   NC330023  41.510  39.237   9.453
 7212POPC   PO430024  41.577  39.244   9.153
 7212POPC   GL130025  41.551  39.208   8.853
 7212POPC   GL230026  41.702  39.145   8.853
 7212POPC   C1A30027  41.555  39.264   8.553
 7212POPC   D2A30028  41.564  39.280   8.253
 7212POPC   C3A30029  41.562  39.187   7.953
 7212POPC   C4A30030  41.594  39.273   7.653
 7212POPC   C1B30031  41.748  39.044   8.553
 7212POPC   C2B30032  41.706  39.102   8.253
 7212POPC   C3B30033  41.711  39.100   7.953
 7212POPC   C4B30034  41.731  39.072   7.653
 7213POPC   NC330035   7.375  29.884   9.453
 7213POPC   PO430036   7.442  29.928   9.153
 7213POPC   GL130037   7.381  29.889   8.853
 7213POPC   GL230038   7.540  29.923   8.853
 7213POPC   C1A30039   7.396  29.919   8.553
 7213POPC   D2A30040   7.380  29.898   8.253
 7213POPC   C3A30041   7.423  29.910   7.953
 7213POPC   C4A30042   7.419  29.918   7.653
 7213POPC   C1B30043   7.651  29.932   8.553
 7213POPC   C2B30044   7.714  29.897   8.253
 7213POPC   C3B30045   7.712  29.940   7.953
 7213POPC   C4B30046   7.674  29.876   7.653
 7214POPC   NC330047  29.096  34.576   9.453
 7214POPC   PO430048  29.186  34.553   9.153
 7214POPC   GL130049  29.117  34.551   8.853
 7214POPC   GL230050  28.983  34.557   8.853
 7214POPC   C1A30051  29.183  34.616   8.553
 7214POPC   D2A30052  29.121  34.572   8.253
 7214POPC   C3A30053  29.100  34.546   7.953
 7214POPC   C4A30054  29.127  34.554   7.653
 7214POPC   C1B30055  28.886  34.500   8.553
 7214POPC   C2B30056  28.918  34.507   8.253
 7214POPC   C3B30057  28.880  34.475   7.953
 7214POPC   C4B30058  28.876  34.490   7.653
 7215POPC   NC330059  33.770  23.752   9.453
 7215POPC   PO430060  33.835  23.737   9.153
 7215POPC   GL130061  33.822  23.734   8.853
 7215POPC   GL230062  33.835  23.582   8.853
 7215POPC   C1A30063  33.828  23.669   8.553
 7215POPC   D2A30064  33.777  23.747   8.253
 7215POPC   C3A30065  33.815  23.700   7.953
 7215POPC   C4A30066  33.766  23.742   7.653
 7215POPC   C1B30067  33.931  23.455   8.553
 7215POPC   C2B30068  33.904  23.468   8.253
 7215POPC   C3B30069  33.928  23.449   7.953
 7215POPC   C4B30070  33.945  23.512   7.653
 7216POPC   NC330071   7.395  12.075   9.453
 7216POPC   PO430072   7.375  12.027   9.153
 7216POPC   GL130073   7.390  12.101   8.853
 7216POPC   GL230074   7.259  12.120   8.853
 7216POPC   C1A30075   7.464  12.028   8.553
 7216POPC   D2A30076   7.448  12.053   8.253
 7216POPC   C3A30077   7.461  12.109   7.953
 7216POPC   C4A30078   7.426  12.104   7.653
 7216POPC   C1B30079   7.217  12.159   8.553
 7216POPC   C2B30080   7.202  12.193   8.253
 7216POPC   C3B30081   7.185  12.159   7.953
 7216POPC   C4B30082   7.190  12.127   7.653
 7217POPC   NC330083  18.288  10.532   9.453
 7217POPC   PO430084  18.293  10.557   9.153
 7217POPC   GL130085  18.309  10.519   8.853
 7217POPC   GL230086  18.254  10.605   8.853
 7217POPC   C1A30087  18.266  10.542   8.553
 7217POPC   D2A30088  18.235  10.493   8.253
 7217POPC   C3A30089  18.284  10.483   7.953
 7217POPC   C4A30090  18.330  10.561   7.653
 7217POPC   C1B30091  18.216  10.802   8.553
 7217POPC   C2B30092  18.202  10.765   8.253
 7217POPC   C3B30093  18.196  10.804   7.953
 7217POPC   C4B30094  18.187  10.761   7.653
 7218POPC   NC330095  36.119   6.646   9.453
 7218POPC   PO430096  36.147   6.677   9.153
 7218POPC   GL130097  36.084   6.599   8.853
 7218POPC   GL230098  36.151   6.511   8.853
 7218POPC   C1A30099  36.113   6.673   8.553
 7218POPC   D2A30100  36.106   6.640   8.253
 7218POPC   C3A30101  36.108   6.645   7.953
 7218POPC   C4A30102  36.095   6.678   7.653
 7218POPC   C1B30103  36.249   6.377   8.553
 7218POPC   C2B30104  36.290   6.443   8.253
 7218POPC   C3B30105  36.264   6.419   7.953
 7218POPC   C4B30106  36.288   6.468   7.653
 7219POPC   NC330107  36.856  28.337   9.453
 7219POPC   PO430108  36.883  28.351   9.153
 7219POPC   GL130109  36.870  28.367   8.853
 7219POPC   GL230110  37.002  28.251   8.853
 7219POPC   C1A30111  36.854  28.371   8.553
 7219POPC   D2A30112  36.929  28.353   8.253
 7219POPC   C3A30113  36.936  28.379   7.953
 7219POPC   C4A30114  36.894  28.394   7.653
 7219POPC   C1B30115  37.026  28.163   8.553
 7219POPC   C2B30116  37.089  28.181   8.253
 7219POPC   C3B30117  37.040  28.165   7.953
 7219POPC   C4B30118  37.049  28.232   7.653
 7220POPC   NC330119  43.129  33.849   9.453
 7220POPC   PO430120  43.139  33.754   9.153
 7220POPC   GL130121  43.074  33.784   8.853
 7220POPC   GL230122  43.190  33.743   8.853
 7220POPC   C1A30123  43.061  33.811   8.553
 7220POPC   D2A30124  43.069  33.780   8.253
 7220POPC   C3A30125  43.149  33.831   7.953
 7220POPC   C4A30126  43.084  33.847   7.653
 7220POPC   C1B30127  43.403  33.742   8.553
 7220POPC   C2B30128  43.318  33.775   8.253
 7220POPC   C3B30129  43.404  33.751   7.953
 7220POPC   C4B30130  43.335  33.743   7.653
 7221POPC   NC330131   8.983  20.653   9.453
 7221POPC   PO430132   8.928  20.655   9.153
 7221POPC   GL130133   8.962  20.630   8.853
 7221POPC   GL230134   9.030  20.707   8.853
 7221POPC   C1A30135   9.013  20.621   8.553
 7221POPC   D2A30136   9.010  20.581   8.253
 7221POPC   C3A30137   8.956  20.562   7.953
 7221POPC   C4A30138   8.924  20.568   7.653
 7221POPC   C1B30139   9.007  20.843   8.553
 7221POPC   C2B30140   8.983  20.810   8.253
 7221POPC   C3B30141   9.046  20.885   7.953
 7221POPC   C4B30142   8.985  20.885   7.653
 7222POPC   NC330143   9.763  22.180   9.453
 7222POPC   PO430144   9.794  22.173   9.153
 7222POPC   GL130145   9.735  22.196   8.853
 7222POPC   GL230146   9.921  22.163   8.853
 7222POPC   C1A30147   9.797  22.141   8.553
 7222POPC   D2A30148   9.716  22.202   8.253
 7222POPC   C3A30149   9.710  22.183   7.953
 7222POPC   C4A30150   9.756  22.172   7.653
 7222POPC   C1B30151  10.008  22.213   8.553
 7222POPC   C2B30152   9.994  22.146   8.253
 7222POPC   C3B30153  10.024  22.152   7.953
 7222POPC   C4B30154  10.016  22.153   7.653
 7223POPC   NC330155  17.550  24.485   9.453
 7223POPC   PO430156  17.534  24.491   9.153
 7223POPC   GL130157  17.469  24.495   8.853
 7223POPC   GL230158  17.645  24.516   8.853
 7223POPC   C1A30159  17.494  24.499   8.553
 7223POPC   D2A30160  17.460  24.533   8.253
 7223POPC   C3A30161  17.458  24.513   7.953
 7223POPC   C4A30162  17.516  24.497   7.653
 7223POPC   C1B30163  17.746  24.541   8.553
 7223POPC   C2B30164  17.768  24.527   8.253
 7223POPC   C3B30165  17.792  24.579   7.953
 7223POPC   C4B30166  17.702  24.536   7.653
 7224POPC   NC330167  21.365   2.741   9.453
 7224POPC   PO430168  21.399   2.722   9.153
 7224POPC   GL130169  21.372   2.777   8.853
 7224POPC   GL230170  21.530   2.731   8.853
 7224POPC   C1A30171  21.429   2.758   8.553
 7224POPC   D2A30172  21.415   2.742   8.253
 7224POPC   C3A30173  21.374   2.775   7.953
 7224POPC   C4A30174  21.347   2.741   7.653
 7224POPC   C1B30175  21.621   2.753   8.553
 7224POPC   C2B30176  21.670   2.680   8.253
 7224POPC   C3B30177  21.591   2.701   7.953
 7224POPC   C4B30178  21.659   2.721   7.653
 7225POPC   NC330179   8.216   1.985   9.453
 7225POPC   PO430180   8.160   1.973   9.153
 7225POPC   GL130181   8.222   2.009   8.853
 7225POPC   GL230182   8.278   2.058   8.853
 7225POPC   C1A30183   8.172   1.991   8.553
 7225POPC   D2A30184   8.235   1.995   8.253
 7225POPC   C3A30185   8.218   2.037   7.953
 7225POPC   C4A30186   8.220   1.943   7.653
 7225POPC   C1B30187   8.442   2.004   8.553
 7225POPC   C2B30188   8.449   2.010   8.253
 7225POPC   C3B30189   8.454   2.082   7.953
 7225POPC   C4B30190   8.400   2.044   7.653
 7226POPC   NC330191  33.785   8.194   9.453
 7226POPC   PO430192  33.773   8.180   9.153
 7226POPC   GL130193  33.842   8.235   8.853
 7226POPC   GL230194  33.834   8.351   8.853
 7226POPC   C1A30195  33.796   8.220   8.553
 7226POPC   D2A30196  33.804   8.147   8.253
 7226POPC   C3A30197  33.802   8.169   7.953
 7226POPC   C4A30198  33.806   8.153   7.653
 7226POPC   C1B30199  33.753   8.483   8.553
 7226POPC   C2B30200  33.791   8.448   8.253
 7226POPC   C3B30201  33.839   8.484   7.953
 7226POPC   C4B30202  33.754   8.444   7.653
 7227POPC   NC330203  33.789  43.932   9.453
 7227POPC   PO430204  33.782  43.892   9.153
 7227POPC   GL130205  33.828  43.902   8.853
 7227POPC   GL230206  33.665  43.884   8.853
 7227POPC   C1A30207  33.847  43.914   8.553
 7227POPC   D2A30208  33.790  43.905   8.253
 7227POPC   C3A30209  33.803  43.888   7.953
 7227POPC   C4A30210  33.760  43.934   7.653
 7227POPC   C1B30211  33.542  43.848   8.553
 7227POPC   C2B30212  33.534  43.869   8.253
 7227POPC   C3B30213  33.565  43.873   7.953
 7227POPC   C4B30214  33.569  43.893   7.653
 7228POPC   NC330215   5.104   4.306   9.453
 7228POPC   PO430216   5.128   4.311   9.153
 7228POPC   GL130217   5.049   4.272   8.853
 7228POPC   GL230218   5.175   4.269   8.853
 7228POPC   C1A30219   5.116   4.286   8.553
 7228POPC   D2A30220   5.118   4.280   8.253
 7228POPC   C3A30221   5.109   4.303   7.953
 7228POPC   C4A30222   5.045   4.365   7.653
 7228POPC   C1B30223   5.367   4.157   8.553
 7228POPC   C2B30224   5.312   4.195   8.253
 7228POPC   C3B30225   5.304   4.223   7.953
 7228POPC   C4B30226   5.316   4.221   7.653
 7229POPC   NC330227  40.826  22.986   9.453
 7229POPC   PO430228  40.818  22.949   9.153
 7229POPC   GL130229  40.803  22.980   8.853
 7229POPC   GL230230  40.927  22.904   8.853
 7229POPC   C1A30231  40.784  22.935   8.553
 7229POPC   D2A30232  40.750  22.893   8.253
 7229POPC   C3A30233  40.753  22.968   7.953
 7229POPC   C4A30234  40.748  22.904   7.653
 7229POPC   C1B30235  40.943  22.843   8.553
 7229POPC   C2B30236  40.945  22.832   8.253
 7229POPC   C3B30237  40.981  22.831   7.953
 7229POPC   C4B30238  40.984  22.768   7.653
 7230POPC   NC330239  33.069  36.887   9.453
 7230POPC   PO430240  33.056  36.923   9.153
 7230POPC   GL130241  33.046  36.882   8.853
 7230POPC   GL230242  33.084  36.982   8.853
 7230POPC   C1A30243  33.029  36.925   8.553
 7230POPC   D2A30244  32.981  36.912   8.253
 7230POPC   C3A30245  32.994  36.912   7.953
 7230POPC   C4A30246  33.051  36.913   7.653
 7230POPC   C1B30247  33.084  37.177   8.553
 7230POPC   C2B30248  33.143  37.146   8.253
 7230POPC   C3B30249  33.154  37.176   7.953
 7230POPC   C4B30250  33.161  37.147   7.653
 7231POPC   NC330251  11.300   0.427   9.453
 7231POPC   PO430252  11.334   0.406   9.153
 7231POPC   GL130253  11.261   0.420   8.853
 7231POPC   GL230254  11.339   0.552   8.853
 7231POPC   C1A30255  11.265   0.410   8.553
 7231POPC   D2A30256  11.270   0.475   8.253
 7231POPC   C3A30257  11.306   0.415   7.953
 7231POPC   C4A30258  11.303   0.473   7.653
 7231POPC   C1B30259  11.451   0.637   8.553
 7231POPC   C2B30260  11.429   0.661   8.253
 7231POPC   C3B30261  11.434   0.702   7.953
 7231POPC   C4B30262  11.411   0.619   7.653
 7232POPC   NC330263   7.390   8.965   9.453
 7232POPC   PO430264   7.449   8.942   9.153
 7232POPC   GL130265   7.384   8.992   8.853
 7232POPC   GL230266   7.552   8.950   8.853
 7232POPC   C1A30267   7.375   8.980   8.553
 7232POPC   D2A30268   7.381   9.019   8.253
 7232POPC   C3A30269   7.465   8.924   7.953
 7232POPC   C4A30270   7.460   8.934   7.653
 7232POPC   C1B30271   7.645   8.939   8.553
 7232POPC   C2B30272   7.679   8.945   8.253
 7232POPC   C3B30273   7.637   8.919   7.953
 7232POPC   C4B30274   7.662   8.894   7.653
 7233POPC   NC330275   1.251  22.964   9.453
 7233POPC   PO430276   1.245  22.940   9.153
 7233POPC   GL130277   1.191  22.913   8.853
 7233POPC   GL230278   1.163  22.851   8.853
 7233POPC   C1A30279   1.173  22.965   8.553
 7233POPC   D2A30280   1.179  22.919   8.253
 7233POPC   C3A30281   1.236  22.960   7.953
 7233POPC   C4A30282   1.245  22.889   7.653
 7233POPC   C1B30283   1.173  22.683   8.553
 7233POPC   C2B30284   1.138  22.739   8.253
 7233POPC   C3B30285   1.080  22.738   7.953
 7233POPC   C4B30286   1.133  22.725   7.653
 7234POPC   NC330287   5.824  10.483   9.453
 7234POPC   PO430288   5.854  10.510   9.153
 7234POPC   GL130289   5.845  10.541   8.853
 7234POPC   GL230290   5.759  10.443   8.853
 7234POPC   C1A30291   5.838  10.542   8.553
 7234POPC   D2A30292   5.886  10.541   8.253
 7234POPC   C3A30293   5.833  10.571   7.953
 7234POPC   C4A30294   5.870  10.498   7.653
 7234POPC   C1B30295   5.726  10.371   8.553
 7234POPC   C2B30296   5.764  10.368   8.253
 7234POPC   C3B30297   5.752  10.360   7.953
 7234POPC   C4B30298   5.727  10.314   7.653
 7235POPC   NC330299  36.921  43.077   9.453
 7235POPC   PO430300  36.886  43.092   9.153
 7235POPC   GL130301  36.900  43.124   8.853
 7235POPC   GL230302  36.783  43.023   8.853
 7235POPC   C1A30303  36.881  43.136   8.553
 7235POPC   D2A30304  36.875  43.158   8.253
 7235POPC   C3A30305  36.947  43.140   7.953
 7235POPC   C4A30306  36.910  43.149   7.653
 7235POPC   C1B30307  36.703  42.875   8.553
 7235POPC   C2B30308  36.783  42.940   8.253
 7235POPC   C3B30309  36.771  42.920   7.953
 7235POPC   C4B30310  36.766  42.870   7.653
 7236POPC   NC330311  36.863   6.610   9.453
 7236POPC   PO430312  36.939   6.666   9.153
 7236POPC   GL130313  36.949   6.628   8.853
 7236POPC   GL230314  36.938   6.798   8.853
 7236POPC   C1A30315  36.948   6.691   8.553
 7236POPC   D2A30316  36.885   6.642   8.253
 7236POPC   C3A30317  36.894   6.683   7.953
 7236POPC   C4A30318  36.879   6.641   7.653
 7236POPC   C1B30319  37.013   6.921   8.553
 7236POPC   C2B30320  36.939   6.874   8.253
 7236POPC   C3B30321  36.992   6.895   7.953
 7236POPC   C4B30322  36.994   6.897   7.653
 7237POPC   NC330323  44.666  40.055   9.453
 7237POPC   PO430324  44.679  40.041   9.153
 7237POPC   GL130325  44.706  40.036   8.853
 7237POPC   GL230326  44.701  40.072   8.853
 7237POPC   C1A30327  44.665  40.010   8.553
 7237POPC   D2A30328  44.628  40.029   8.253
 7237POPC   C3A30329  44.686  39.995   7.953
 7237POPC   C4A30330  44.706  39.989   7.653
 7237POPC   C1B30331  44.847  40.236   8.553
 7237POPC   C2B30332  44.850  40.236   8.253
 7237POPC   C3B30333  44.862  40.189   7.953
 7237POPC   C4B30334  44.841  40.231   7.653
 7238POPC   NC330335  22.143  27.637   9.453
 7238POPC   PO430336  22.141  27.557   9.153
 7238POPC   GL130337  22.210  27.588   8.853
 7238POPC   GL230338  22.075  27.627   8.853
 7238POPC   C1A30339  22.148  27.618   8.553
 7238POPC   D2A30340  22.212  27.548   8.253
 7238POPC   C3A30341  22.148  27.631   7.953
 7238POPC   C4A30342  22.198  27.545   7.653
 7238POPC   C1B30343  21.924  27.617   8.553
 7238POPC   C2B30344  21.959  27.595   8.253
 7238POPC   C3B30345  21.870  27.528   7.953
 7238POPC   C4B30346  21.925  27.589   7.653
 7239POPC   NC330347  30.745   4.280   9.453
 7239POPC   PO430348  30.655   4.292   9.153
 7239POPC   GL130349  30.669   4.296   8.853
 7239POPC   GL230350  30.724   4.412   8.853
 7239POPC   C1A30351  30.730   4.290   8.553
 7239POPC   D2A30352  30.679   4.366   8.253
 7239POPC   C3A30353  30.675   4.354   7.953
 7239POPC   C4A30354  30.727   4.340   7.653
 7239POPC   C1B30355  30.781   4.493   8.553
 7239POPC   C2B30356  30.790   4.544   8.253
 7239POPC   C3B30357  30.767   4.568   7.953
 7239POPC   C4B30358  30.827   4.529   7.653
 7240POPC   NC330359  40.008   0.435   9.453
 7240POPC   PO430360  40.044   0.443   9.153
 7240POPC   GL130361  40.044   0.430   8.853
 7240POPC   GL230362  39.896   0.406   8.853
 7240POPC   C1A30363  40.056   0.426   8.553
 7240POPC   D2A30364  39.984   0.462   8.253
 7240POPC   C3A30365  39.989   0.463   7.953
 7240POPC   C4A30366  40.014   0.457   7.653
 7240POPC   C1B30367  39.786   0.364   8.553
 7240POPC   C2B30368  39.803   0.359   8.253
 7240POPC   C3B30369  39.800   0.371   7.953
 7240POPC   C4B30370  39.770   0.352   7.653
 7241POPC   NC330371  13.673  20.572   9.453
 7241POPC   PO430372  13.583  20.655   9.153
 7241POPC   GL130373  13.600  20.591   8.853
 7241POPC   GL230374  13.647  20.532   8.853
 7241POPC   C1A30375  13.632  20.592   8.553
 7241POPC   D2A30376  13.621  20.577   8.253
 7241POPC   C3A30377  13.587  20.644   7.953
 7241POPC   C4A30378  13.640  20.580   7.653
 7241POPC   C1B30379  13.787  20.398   8.553
 7241POPC   C2B30380  13.760  20.381   8.253
 7241POPC   C3B30381  13.787  20.348   7.953
 7241POPC   C4B30382  13.748  20.370   7.653
 7242POPC   NC330383   8.932  37.713   9.453
 7242POPC   PO430384   8.942  37.672   9.153
 7242POPC   GL130385   8.997  37.645   8.853
 7242POPC   GL230386   8.887  37.756   8.853
 7242POPC   C1A30387   8.993  37.715   8.553
 7242POPC   D2A30388   8.926  37.703   8.253
 7242POPC   C3A30389   9.021  37.654   7.953
 7242POPC   C4A30390   9.011  37.705   7.653
 7242POPC   C1B30391   8.812  37.887   8.553
 7242POPC   C2B30392   8.873  37.933   8.253
 7242POPC   C3B30393   8.849  37.937   7.953
 7242POPC   C4B30394   8.848  37.847   7.653
 7243POPC   NC330395  13.652   2.753   9.453
 7243POPC   PO430396  13.664   2.812   9.153
 7243POPC   GL130397  13.661   2.791   8.853
 7243POPC   GL230398  13.682   2.708   8.853
 7243POPC   C1A30399  13.579   2.740   8.553
 7243POPC   D2A30400  13.592   2.744   8.253
 7243POPC   C3A30401  13.599   2.733   7.953
 7243POPC   C4A30402  13.614   2.720   7.653
 7243POPC   C1B30403  13.835   2.560   8.553
 7243POPC   C2B30404  13.768   2.626   8.253
 7243POPC   C3B30405  13.797   2.589   7.953
 7243POPC   C4B30406  13.774   2.622   7.653
 7244POPC   NC330407  43.141  29.128   9.453
 7244POPC   PO430408  43.145  29.174   9.153
 7244POPC   GL130409  43.128  29.185   8.853
 7244POPC   GL230410  43.139  29.002   8.853
 7244POPC   C1A30411  43.144  29.115   8.553
 7244POPC   D2A30412  43.104  29.119   8.253
 7244POPC   C3A30413  43.139  29.104   7.953
 7244POPC   C4A30414  43.092  29.129   7.653
 7244POPC   C1B30415  43.073  28.862   8.553
 7244POPC   C2B30416  43.082  28.911   8.253
 7244POPC   C3B30417  43.106  28.930   7.953
 7244POPC   C4B30418  43.052  28.875   7.653
 7245POPC   NC330419  44.691  19.084   9.453
 7245POPC   PO430420  44.649  19.059   9.153
 7245POPC   GL130421  44.691  19.027   8.853
 7245POPC   GL230422  44.539  19.054   8.853
 7245POPC   C1A30423  44.640  19.041   8.553
 7245POPC   D2A30424  44.623  19.059   8.253
 7245POPC   C3A30425  44.629  19.078   7.953
 7245POPC   C4A30426  44.700  19.042   7.653
 7245POPC   C1B30427  44.404  19.020   8.553
 7245POPC   C2B30428  44.363  19.100   8.253
 7245POPC   C3B30429  44.459  19.096   7.953
 7245POPC   C4B30430  44.371  19.060   7.653
 7246POPC   NC330431  41.561  24.458   9.453
 7246POPC   PO430432  41.518  24.528   9.153
 7246POPC   GL130433  41.550  24.480   8.853
 7246POPC   GL230434  41.478  24.382   8.853
 7246POPC   C1A30435  41.585  24.509   8.553
 7246POPC   D2A30436  41.567  24.513   8.253
 7246POPC   C3A30437  41.561  24.533   7.953
 7246POPC   C4A30438  41.546  24.464   7.653
 7246POPC   C1B30439  41.478  24.263   8.553
 7246POPC   C2B30440  41.437  24.249   8.253
 7246POPC   C3B30441  41.485  24.241   7.953
 7246POPC   C4B30442  41.445  24.217   7.653
 7247POPC   NC330443  18.308  30.672   9.453
 7247POPC   PO430444  18.331  30.652   9.153
 7247POPC   GL130445  18.259  30.738   8.853
 7247POPC   GL230446  18.242  30.555   8.853
 7247POPC   C1A30447  18.283  30.683   8.553
 7247POPC   D2A30448  18.296  30.653   8.253
 7247POPC   C3A30449  18.319  30.702   7.953
 7247POPC   C4A30450  18.263  30.740   7.653
 7247POPC   C1B30451  18.237  30.501   8.553
 7247POPC   C2B30452  18.233  30.457   8.253
 7247POPC   C3B30453  18.196  30.423   7.953
 7247POPC   C4B30454  18.232  30.434   7.653
 7248POPC   NC330455   7.465  18.236   9.453
 7248POPC   PO430456   7.407  18.265   9.153
 7248POPC   GL130457   7.417  18.263   8.853
 7248POPC   GL230458   7.283  18.237   8.853
 7248POPC   C1A30459   7.449  18.311   8.553
 7248POPC   D2A30460   7.403  18.284   8.253
 7248POPC   C3A30461   7.450  18.307   7.953
 7248POPC   C4A30462   7.453  18.262   7.653
 7248POPC   C1B30463   7.242  18.170   8.553
 7248POPC   C2B30464   7.188  18.174   8.253
 7248POPC   C3B30465   7.211  18.192   7.953
 7248POPC   C4B30466   7.189  18.110   7.653
 7249POPC   NC330467  34.528  25.311   9.453
 7249POPC   PO430468  34.543  25.296   9.153
 7249POPC   GL130469  34.539  25.310   8.853
 7249POPC   GL230470  34.489  25.255   8.853
 7249POPC   C1A30471  34.559  25.299   8.553
 7249POPC   D2A30472  34.531  25.296   8.253
 7249POPC   C3A30473  34.620  25.244   7.953
 7249POPC   C4A30474  34.554  25.313   7.653
 7249POPC   C1B30475  34.374  25.203   8.553
 7249POPC   C2B30476  34.313  25.129   8.253
 7249POPC   C3B30477  34.392  25.154   7.953
 7249POPC   C4B30478  34.376  25.210   7.653
 7250POPC   NC330479   8.156  19.079   9.453
 7250POPC   PO430480   8.148  19.045   9.153
 7250POPC   GL130481   8.162  19.049   8.853
 7250POPC   GL230482   8.122  19.070   8.853
 7250POPC   C1A30483   8.201  19.017   8.553
 7250POPC   D2A30484   8.152  19.011   8.253
 7250POPC   C3A30485   8.223  19.054   7.953
 7250POPC   C4A30486   8.170  19.079   7.653
 7250POPC   C1B30487   7.965  19.084   8.553
 7250POPC   C2B30488   7.921  19.105   8.253
 7250POPC   C3B30489   7.918  19.098   7.953
 7250POPC   C4B30490   7.916  19.082   7.653
 7251POPC   NC330491  40.778  42.373   9.453
 7251POPC   PO430492  40.832  42.298   9.153
 7251POPC   GL130493  40.762  42.303   8.853
 7251POPC   GL230494  40.704  42.396   8.853
 7251POPC   C1A30495  40.820  42.316   8.553
 7251POPC   D2A30496  40.733  42.318   8.253
 7251POPC   C3A30497  40.750  42.301   7.953
 7251POPC   C4A30498  40.745  42.373   7.653
 7251POPC   C1B30499  40.508  42.362   8.553
 7251POPC   C2B30500  40.530  42.423   8.253
 7251POPC   C3B30501  40.507  42.363   7.953
 7251POPC   C4B30502  40.565  42.400   7.653
 7252POPC   NC330503  12.891  25.314   9.453
 7252POPC   PO430504  12.876  25.245   9.153
 7252POPC   GL130505  12.893  25.246   8.853
 7252POPC   GL230506  12.948  25.392   8.853
 7252POPC   C1A30507  12.847  25.267   8.553
 7252POPC   D2A30508  12.840  25.240   8.253
 7252POPC   C3A30509  12.835  25.299   7.953
 7252POPC   C4A30510  12.896  25.282   7.653
 7252POPC   C1B30511  12.938  25.489   8.553
 7252POPC   C2B30512  12.969  25.530   8.253
 7252POPC   C3B30513  13.009  25.461   7.953
 7252POPC   C4B30514  13.005  25.462   7.653
 7253POPC   NC330515   5.902   2.735   9.453
 7253POPC   PO430516   5.872   2.810   9.153
 7253POPC   GL130517   5.845   2.720   8.853
 7253POPC   GL230518   5.803   2.929   8.853
 7253POPC   C1A30519   5.833   2.786   8.553
 7253POPC   D2A30520   5.819   2.719   8.253
 7253POPC   C3A30521   5.893   2.754   7.953
 7253POPC   C4A30522   5.898   2.742   7.653
 7253POPC   C1B30523   5.819   2.998   8.553
 7253POPC   C2B30524   5.782   2.989   8.253
 7253POPC   C3B30525   5.805   3.029   7.953
 7253POPC   C4B30526   5.810   3.007   7.653
 7254POPC   NC330527  12.061   2.719   9.453
 7254POPC   PO430528  12.047   2.771   9.153
 7254POPC   GL130529  12.034   2.767   8.853
 7254POPC   GL230530  12.164   2.664   8.853
 7254POPC   C1A30531  12.118   2.755   8.553
 7254POPC   D2A30532  12.122   2.757   8.253
 7254POPC   C3A30533  12.074   2.799   7.953
 7254POPC   C4A30534  12.120   2.794   7.653
 7254POPC   C1B30535  12.234   2.607   8.553
 7254POPC   C2B30536  12.219   2.594   8.253
 7254POPC   C3B30537  12.273   2.540   7.953
 7254POPC   C4B30538  12.256   2.560   7.653
 7255POPC   NC330539  26.075  15.963   9.453
 7255POPC   PO430540  26.022  15.919   9.153
 7255POPC   GL130541  26.076  16.002   8.853
 7255POPC   GL230542  25.917  15.933   8.853
 7255POPC   C1A30543  26.024  15.940   8.553
 7255POPC   D2A30544  26.029  15.977   8.253
 7255POPC   C3A30545  26.078  15.988   7.953
 7255POPC   C4A30546  26.064  15.958   7.653
 7255POPC   C1B30547  25.798  15.853   8.553
 7255POPC   C2B30548  25.839  15.872   8.253
 7255POPC   C3B30549  25.843  15.853   7.953
 7255POPC   C4B30550  25.861  15.815   7.653
 7256POPC   NC330551  36.168  12.094   9.453
 7256POPC   PO430552  36.175  12.109   9.153
 7256POPC   GL130553  36.109  12.109   8.853
 7256POPC   GL230554  35.972  12.107   8.853
 7256POPC   C1A30555  36.122  12.114   8.553
 7256POPC   D2A30556  36.078  12.048   8.253
 7256POPC   C3A30557  36.155  12.059   7.953
 7256POPC   C4A30558  36.079  12.074   7.653
 7256POPC   C1B30559  35.862  12.054   8.553
 7256POPC   C2B30560  35.840  12.132   8.253
 7256POPC   C3B30561  35.897  12.079   7.953
 7256POPC   C4B30562  35.866  12.110   7.653
 7257POPC   NC330563  18.249  42.339   9.453
 7257POPC   PO430564  18.320  42.353   9.153
 7257POPC   GL130565  18.278  42.334   8.853
 7257POPC   GL230566  18.404  42.354   8.853
 7257POPC   C1A30567  18.310  42.325   8.553
 7257POPC   D2A30568  18.255  42.331   8.253
 7257POPC   C3A30569  18.253  42.381   7.953
 7257POPC   C4A30570  18.268  42.287   7.653
 7257POPC   C1B30571  18.521  42.433   8.553
 7257POPC   C2B30572  18.515  42.456   8.253
 7257POPC   C3B30573  18.493  42.458   7.953
 7257POPC   C4B30574  18.548  42.458   7.653
 7258POPC   NC330575  43.842   2.777   9.453
 7258POPC   PO430576  43.897   2.731   9.153
 7258POPC   GL130577  43.897   2.813   8.853
 7258POPC   GL230578  43.759   2.832   8.853
 7258POPC   C1A30579  43.848   2.764   8.553
 7258POPC   D2A30580  43.859   2.776   8.253
 7258POPC   C3A30581  43.909   2.779   7.953
 7258POPC   C4A30582  43.875   2.772   7.653
 7258POPC   C1B30583  43.763   2.974   8.553
 7258POPC   C2B30584  43.717   2.999   8.253
 7258POPC   C3B30585  43.714   2.935   7.953
 7258POPC   C4B30586  43.676   2.933   7.653
 7259POPC   NC330587  18.248  43.148   9.453
 7259POPC   PO430588  18.270  43.078   9.153
 7259POPC   GL130589  18.269  43.143   8.853
 7259POPC   GL230590  18.300  42.946   8.853
 7259POPC   C1A30591  18.253  43.073   8.553
 7259POPC   D2A30592  18.317  43.125   8.253
 7259POPC   C3A30593  18.283  43.089   7.953
 7259POPC   C4A30594  18.269  43.091   7.653
 7259POPC   C1B30595  18.339  42.871   8.553
 7259POPC   C2B30596  18.308  42.832   8.253
 7259POPC   C3B30597  18.329  42.899   7.953
 7259POPC   C4B30598  18.365  42.900   7.653
 7260POPC   NC330599   6.632  41.583   9.453
 7260POPC   PO430600   6.623  41.539   9.153
 7260POPC   GL130601   6.649  41.565   8.853
 7260POPC   GL230602   6.571  41.676   8.853
 7260POPC   C1A30603   6.611  41.547   8.553
 7260POPC   D2A30604   6.637  41.550   8.253
 7260POPC   C3A30605   6.647  41.578   7.953
 7260POPC   C4A30606   6.654  41.512   7.653
 7260POPC   C1B30607   6.506  41.753   8.553
 7260POPC   C2B30608   6.537  41.798   8.253
 7260POPC   C3B30609   6.508  41.805   7.953
 7260POPC   C4B30610   6.477  41.806   7.653
 7261POPC   NC330611  36.901   1.974   9.453
 7261POPC   PO430612  36.863   2.039   9.153
 7261POPC   GL130613  36.927   1.948   8.853
 7261POPC   GL230614  36.781   1.951   8.853
 7261POPC   C1A30615  36.870   1.956   8.553
 7261POPC   D2A30616  36.922   1.981   8.253
 7261POPC   C3A30617  36.902   1.966   7.953
 7261POPC   C4A30618  36.893   2.024   7.653
 7261POPC   C1B30619  36.651   1.823   8.553
 7261POPC   C2B30620  36.717   1.890   8.253
 7261POPC   C3B30621  36.702   1.871   7.953
 7261POPC   C4B30622  36.637   1.839   7.653
 7262POPC   NC330623  39.987  44.637   9.453
 7262POPC   PO430624  40.041  44.680   9.153
 7262POPC   GL130625  39.970  44.635   8.853
 7262POPC   GL230626  40.095  44.743   8.853
 7262POPC   C1A30627  39.967  44.697   8.553
 7262POPC   D2A30628  40.027  44.667   8.253
 7262POPC   C3A30629  40.024  44.622   7.953
 7262POPC   C4A30630  40.036  44.631   7.653
 7262POPC   C1B30631  40.122  44.899   8.553
 7262POPC   C2B30632  40.101  44.832   8.253
 7262POPC   C3B30633  40.183  44.899   7.953
 7262POPC   C4B30634  40.161  44.884   7.653
 7263POPC   NC330635  26.840  15.198   9.453
 7263POPC   PO430636  26.832  15.189   9.153
 7263POPC   GL130637  26.797  15.200   8.853
 7263POPC   GL230638  26.743  15.048   8.853
 7263POPC   C1A30639  26.855  15.137   8.553
 7263POPC   D2A30640  26.788  15.187   8.253
 7263POPC   C3A30641  26.814  15.159   7.953
 7263POPC   C4A30642  26.828  15.228   7.653
 7263POPC   C1B30643  26.678  14.992   8.553
 7263POPC   C2B30644  26.716  14.920   8.253
 7263POPC   C3B30645  26.749  14.897   7.953
 7263POPC   C4B30646  26.721  14.922   7.653
 7264POPC   NC330647  17.522   3.559   9.453
 7264POPC   PO430648  17.510   3.577   9.153
 7264POPC   GL130649  17.465   3.583   8.853
 7264POPC   GL230650  17.344   3.539   8.853
 7264POPC   C1A30651  17.552   3.498   8.553
 7264POPC   D2A30652  17.526   3.551   8.253
 7264POPC   C3A30653  17.539   3.559   7.953
 7264POPC   C4A30654  17.505   3.496   7.653
 7264POPC   C1B30655  17.292   3.496   8.553
 7264POPC   C2B30656  17.209   3.569   8.253
 7264POPC   C3B30657  17.241   3.535   7.953
 7264POPC   C4B30658  17.268   3.504   7.653
 7265POPC   NC330659  21.426  30.682   9.453
 7265POPC   PO430660  21.415  30.671   9.153
 7265POPC   GL130661  21.433  30.660   8.853
 7265POPC   GL230662  21.527  30.698   8.853
 7265POPC   C1A30663  21.376  30.661   8.553
 7265POPC   D2A30664  21.395  30.686   8.253
 7265POPC   C3A30665  21.391  30.713   7.953
 7265POPC   C4A30666  21.363  30.702   7.653
 7265POPC   C1B30667  21.620  30.737   8.553
 7265POPC   C2B30668  21.593  30.676   8.253
 7265POPC   C3B30669  21.666  30.682   7.953
 7265POPC   C4B30670  21.590  30.727   7.653
 7266POPC   NC330671   6.612  18.325   9.453
 7266POPC   PO430672   6.658  18.289   9.153
 7266POPC   GL130673   6.619  18.308   8.853
 7266POPC   GL230674   6.719  18.207   8.853
 7266POPC   C1A30675   6.671  18.269   8.553
 7266POPC   D2A30676   6.665  18.320   8.253
 7266POPC   C3A30677   6.618  18.247   7.953
 7266POPC   C4A30678   6.674  18.283   7.653
 7266POPC   C1B30679   6.708  18.036   8.553
 7266POPC   C2B30680   6.790  18.075   8.253
 7266POPC   C3B30681   6.785  18.103   7.953
 7266POPC   C4B30682   6.778  18.016   7.653
 7267POPC   NC330683  20.607  33.794   9.453
 7267POPC   PO430684  20.616  33.774   9.153
 7267POPC   GL130685  20.601  33.815   8.853
 7267POPC   GL230686  20.703  33.789   8.853
 7267POPC   C1A30687  20.632  33.785   8.553
 7267POPC   D2A30688  20.619  33.762   8.253
 7267POPC   C3A30689  20.627  33.758   7.953
 7267POPC   C4A30690  20.639  33.850   7.653
 7267POPC   C1B30691  20.896  33.746   8.553
 7267POPC   C2B30692  20.846  33.707   8.253
 7267POPC   C3B30693  20.896  33.694   7.953
 7267POPC   C4B30694  20.841  33.782   7.653
 7268POPC   NC330695  18.326  19.857   9.453
 7268POPC   PO430696  18.332  19.854   9.153
 7268POPC   GL130697  18.325  19.807   8.853
 7268POPC   GL230698  18.403  19.960   8.853
 7268POPC   C1A30699  18.330  19.833   8.553
 7268POPC   D2A30700  18.293  19.834   8.253
 7268POPC   C3A30701  18.290  19.812   7.953
 7268POPC   C4A30702  18.315  19.850   7.653
 7268POPC   C1B30703  18.453  19.991   8.553
 7268POPC   C2B30704  18.474  20.000   8.253
 7268POPC   C3B30705  18.481  20.010   7.953
 7268POPC   C4B30706  18.502  20.005   7.653
 7269POPC   NC330707  29.889   2.720   9.453
 7269POPC   PO430708  29.872   2.759   9.153
 7269POPC   GL130709  29.915   2.743   8.853
 7269POPC   GL230710  29.877   2.677   8.853
 7269POPC   C1A30711  29.928   2.719   8.553
 7269POPC   D2A30712  29.907   2.794   8.253
 7269POPC   C3A30713  29.933   2.747   7.953
 7269POPC   C4A30714  29.932   2.785   7.653
 7269POPC   C1B30715  29.715   2.616   8.553
 7269POPC   C2B30716  29.732   2.559   8.253
 7269POPC   C3B30717  29.724   2.581   7.953
 7269POPC   C4B30718  29.759   2.552   7.653
 7270POPC   NC330719   5.869  21.387   9.453
 7270POPC   PO430720   5.855  21.408   9.153
 7270POPC   GL130721   5.870  21.353   8.853
 7270POPC   GL230722   5.827  21.292   8.853
 7270POPC   C1A30723   5.885  21.360   8.553
 7270POPC   D2A30724   5.893  21.433   8.253
 7270POPC   C3A30725   5.822  21.361   7.953
 7270POPC   C4A30726   5.828  21.368   7.653
 7270POPC   C1B30727   5.901  21.111   8.553
 7270POPC   C2B30728   5.909  21.144   8.253
 7270POPC   C3B30729   5.853  21.143   7.953
 7270POPC   C4B30730   5.857  21.150   7.653
 7271POPC   NC330731  33.815  32.289   9.453
 7271POPC   PO430732  33.797  32.284   9.153
 7271POPC   GL130733  33.822  32.294   8.853
 7271POPC   GL230734  33.789  32.323   8.853
 7271POPC   C1A30735  33.818  32.208   8.553
 7271POPC   D2A30736  33.783  32.241   8.253
 7271POPC   C3A30737  33.780  32.280   7.953
 7271POPC   C4A30738  33.817  32.264   7.653
 7271POPC   C1B30739  33.853  32.545   8.553
 7271POPC   C2B30740  33.859  32.502   8.253
 7271POPC   C3B30741  33.835  32.499   7.953
 7271POPC   C4B30742  33.851  32.524   7.653
 7272POPC   NC330743   2.728  11.258   9.453
 7272POPC   PO430744   2.751  11.315   9.153
 7272POPC   GL130745   2.781  11.298   8.853
 7272POPC   GL230746   2.683  11.281   8.853
 7272POPC   C1A30747   2.811  11.299   8.553
 7272POPC   D2A30748   2.717  11.328   8.253
 7272POPC   C3A30749   2.763  11.302   7.953
 7272POPC   C4A30750   2.745  11.271   7.653
 7272POPC   C1B30751   2.542  11.163   8.553
 7272POPC   C2B30752   2.587  11.157   8.253
 7272POPC   C3B30753   2.561  11.210   7.953
 7272POPC   C4B30754   2.511  11.179   7.653
 7273POPC   NC330755   6.649   7.438   9.453
 7273POPC   PO430756   6.625   7.417   9.153
 7273POPC   GL130757   6.624   7.443   8.853
 7273POPC   GL230758   6.709   7.311   8.853
 7273POPC   C1A30759   6.642   7.460   8.553
 7273POPC   D2A30760   6.645   7.400   8.253
 7273POPC   C3A30761   6.604   7.414   7.953
 7273POPC   C4A30762   6.673   7.460   7.653
 7273POPC   C1B30763   6.668   7.205   8.553
 7273POPC   C2B30764   6.715   7.198   8.253
 7273POPC   C3B30765   6.670   7.156   7.953
 7273POPC   C4B30766   6.711   7.207   7.653
 7274POPC   NC330767  30.731   8.985   9.453
 7274POPC   PO430768  30.661   9.015   9.153
 7274POPC   GL130769  30.684   8.960   8.853
 7274POPC   GL230770  30.834   8.997   8.853
 7274POPC   C1A30771  30.736   8.982   8.553
 7274POPC   D2A30772  30.698   8.949   8.253
 7274POPC   C3A30773  30.718   8.948   7.953
 7274POPC   C4A30774  30.670   9.008   7.653
 7274POPC   C1B30775  30.934   9.008   8.553
 7274POPC   C2B30776  30.910   9.003   8.253
 7274POPC   C3B30777  30.974   8.952   7.953
 7274POPC   C4B30778  30.909   9.031   7.653
 7275POPC   NC330779   4.299  43.924   9.453
 7275POPC   PO430780   4.343  43.926   9.153
 7275POPC   GL130781   4.334  43.880   8.853
 7275POPC   GL230782   4.387  44.037   8.853
 7275POPC   C1A30783   4.314  43.917   8.553
 7275POPC   D2A30784   4.311  43.925   8.253
 7275POPC   C3A30785   4.318  43.840   7.953
 7275POPC   C4A30786   4.278  43.873   7.653
 7275POPC   C1B30787   4.466  44.144   8.553
 7275POPC   C2B30788   4.442  44.146   8.253
 7275POPC   C3B30789   4.369  44.096   7.953
 7275POPC   C4B30790   4.401  44.098   7.653
 7276POPC   NC330791  43.877  38.407   9.453
 7276POPC   PO430792  43.846  38.412   9.153
 7276POPC   GL130793  43.863  38.484   8.853
 7276POPC   GL230794  44.026  38.457   8.853
 7276POPC   C1A30795  43.847  38.415   8.553
 7276POPC   D2A30796  43.901  38.455   8.253
 7276POPC   C3A30797  43.839  38.453   7.953
 7276POPC   C4A30798  43.837  38.438   7.653
 7276POPC   C1B30799  44.123  38.481   8.553
 7276POPC   C2B30800  44.147  38.409   8.253
 7276POPC   C3B30801  44.164  38.423   7.953
 7276POPC   C4B30802  44.124  38.448   7.653
 7277POPC   NC330803  38.500  31.435   9.453
 7277POPC   PO430804  38.479  31.488   9.153
 7277POPC   GL130805  38.453  31.431   8.853
 7277POPC   GL230806  38.594  31.426   8.853
 7277POPC   C1A30807  38.423  31.426   8.553
 7277POPC   D2A30808  38.498  31.504   8.253
 7277POPC   C3A30809  38.480  31.428   7.953
 7277POPC   C4A30810  38.495  31.463   7.653
 7277POPC   C1B30811  38.680  31.298   8.553
 7277POPC   C2B30812  38.640  31.333   8.253
 7277POPC   C3B30813  38.638  31.315   7.953
 7277POPC   C4B30814  38.601  31.283   7.653
 7278POPC   NC330815  33.847   5.136   9.453
 7278POPC   PO430816  33.820   5.102   9.153
 7278POPC   GL130817  33.782   5.103   8.853
 7278POPC   GL230818  33.764   5.000   8.853
 7278POPC   C1A30819  33.807   5.136   8.553
 7278POPC   D2A30820  33.801   5.087   8.253
 7278POPC   C3A30821  33.782   5.081   7.953
 7278POPC   C4A30822  33.809   5.076   7.653
 7278POPC   C1B30823  33.787   4.833   8.553
 7278POPC   C2B30824  33.758   4.852   8.253
 7278POPC   C3B30825  33.747   4.801   7.953
 7278POPC   C4B30826  33.810   4.848   7.653
 7279POPC   NC330827   2.757  43.913   9.453
 7279POPC   PO430828   2.734  43.857   9.153
 7279POPC   GL130829   2.755  43.850   8.853
 7279POPC   GL230830   2.881  43.795   8.853
 7279POPC   C1A30831   2.730  43.932   8.553
 7279POPC   D2A30832   2.739  43.907   8.253
 7279POPC   C3A30833   2.770  43.885   7.953
 7279POPC   C4A30834   2.789  43.844   7.653
 7279POPC   C1B30835   3.005  43.786   8.553
 7279POPC   C2B30836   2.949  43.776   8.253
 7279POPC   C3B30837   3.039  43.811   7.953
 7279POPC   C4B30838   2.976  43.805   7.653
 7280POPC   NC330839   3.576   1.976   9.453
 7280POPC   PO430840   3.494   1.981   9.153
 7280POPC   GL130841   3.513   2.014   8.853
 7280POPC   GL230842   3.413   1.850   8.853
 7280POPC   C1A30843   3.515   2.018   8.553
 7280POPC   D2A30844   3.508   1.965   8.253
 7280POPC   C3A30845   3.586   2.015   7.953
 7280POPC   C4A30846   3.574   1.964   7.653
 7280POPC   C1B30847   3.330   1.838   8.553
 7280POPC   C2B30848   3.385   1.788   8.253
 7280POPC   C3B30849   3.404   1.822   7.953
 7280POPC   C4B30850   3.415   1.814   7.653
 7281POPC   NC330851  14.356  18.243   9.453
 7281POPC   PO430852  14.442  18.251   9.153
 7281POPC   GL130853  14.417  18.235   8.853
 7281POPC   GL230854  14.454  18.132   8.853
 7281POPC   C1A30855  14.401  18.269   8.553
 7281POPC   D2A30856  14.444  18.257   8.253
 7281POPC   C3A30857  14.364  18.292   7.953
 7281POPC   C4A30858  14.361  18.317   7.653
 7281POPC   C1B30859  14.565  18.068   8.553
 7281POPC   C2B30860  14.539  18.037   8.253
 7281POPC   C3B30861  14.559  18.117   7.953
 7281POPC   C4B30862  14.530  18.050   7.653
 7282POPC   NC330863  39.210  33.840   9.453
 7282POPC   PO430864  39.273  33.816   9.153
 7282POPC   GL130865  39.236  33.778   8.853
 7282POPC   GL230866  39.373  33.824   8.853
 7282POPC   C1A30867  39.245  33.830   8.553
 7282POPC   D2A30868  39.224  33.837   8.253
 7282POPC   C3A30869  39.196  33.793   7.953
 7282POPC   C4A30870  39.211  33.849   7.653
 7282POPC   C1B30871  39.469  33.947   8.553
 7282POPC   C2B30872  39.414  33.896   8.253
 7282POPC   C3B30873  39.455  33.904   7.953
 7282POPC   C4B30874  39.417  33.965   7.653
 7283POPC   NC330875  30.706  36.084   9.453
 7283POPC   PO430876  30.662  36.084   9.153
 7283POPC   GL130877  30.699  36.097   8.853
 7283POPC   GL230878  30.645  36.226   8.853
 7283POPC   C1A30879  30.675  36.140   8.553
 7283POPC   D2A30880  30.739  36.096   8.253
 7283POPC   C3A30881  30.674  36.129   7.953
 7283POPC   C4A30882  30.673  36.164   7.653
 7283POPC   C1B30883  30.558  36.307   8.553
 7283POPC   C2B30884  30.519  36.364   8.253
 7283POPC   C3B30885  30.557  36.273   7.953
 7283POPC   C4B30886  30.575  36.272   7.653
 7284POPC   NC330887   8.209  35.344   9.453
 7284POPC   PO430888   8.218  35.398   9.153
 7284POPC   GL130889   8.167  35.327   8.853
 7284POPC   GL230890   8.156  35.242   8.853
 7284POPC   C1A30891   8.193  35.395   8.553
 7284POPC   D2A30892   8.212  35.401   8.253
 7284POPC   C3A30893   8.211  35.391   7.953
 7284POPC   C4A30894   8.228  35.396   7.653
 7284POPC   C1B30895   8.108  35.155   8.553
 7284POPC   C2B30896   8.084  35.175   8.253
 7284POPC   C3B30897   8.079  35.170   7.953
 7284POPC   C4B30898   8.015  35.097   7.653
 7285POPC   NC330899   3.508   9.006   9.453
 7285POPC   PO430900   3.547   9.002   9.153
 7285POPC   GL130901   3.579   8.952   8.853
 7285POPC   GL230902   3.571   9.137   8.853
 7285POPC   C1A30903   3.569   8.992   8.553
 7285POPC   D2A30904   3.514   8.975   8.253
 7285POPC   C3A30905   3.545   8.991   7.953
 7285POPC   C4A30906   3.520   8.980   7.653
 7285POPC   C1B30907   3.573   9.201   8.553
 7285POPC   C2B30908   3.578   9.194   8.253
 7285POPC   C3B30909   3.622   9.184   7.953
 7285POPC   C4B30910   3.658   9.217   7.653
 7286POPC   NC330911  16.700   4.310   9.453
 7286POPC   PO430912  16.749   4.273   9.153
 7286POPC   GL130913  16.733   4.357   8.853
 7286POPC   GL230914  16.732   4.407   8.853
 7286POPC   C1A30915  16.715   4.305   8.553
 7286POPC   D2A30916  16.774   4.334   8.253
 7286POPC   C3A30917  16.726   4.323   7.953
 7286POPC   C4A30918  16.748   4.346   7.653
 7286POPC   C1B30919  16.729   4.544   8.553
 7286POPC   C2B30920  16.777   4.522   8.253
 7286POPC   C3B30921  16.724   4.613   7.953
 7286POPC   C4B30922  16.734   4.531   7.653
 7287POPC   NC330923  43.093   8.971   9.453
 7287POPC   PO430924  43.076   8.999   9.153
 7287POPC   GL130925  43.093   9.020   8.853
 7287POPC   GL230926  43.181   9.110   8.853
 7287POPC   C1A30927  43.106   8.993   8.553
 7287POPC   D2A30928  43.113   9.000   8.253
 7287POPC   C3A30929  43.111   8.969   7.953
 7287POPC   C4A30930  43.146   8.954   7.653
 7287POPC   C1B30931  43.247   9.226   8.553
 7287POPC   C2B30932  43.235   9.208   8.253
 7287POPC   C3B30933  43.244   9.170   7.953
 7287POPC   C4B30934  43.199   9.182   7.653
 7288POPC   NC330935  24.527  17.532   9.453
 7288POPC   PO430936  24.464  17.500   9.153
 7288POPC   GL130937  24.532  17.540   8.853
 7288POPC   GL230938  24.597  17.587   8.853
 7288POPC   C1A30939  24.533  17.555   8.553
 7288POPC   D2A30940  24.457  17.536   8.253
 7288POPC   C3A30941  24.533  17.553   7.953
 7288POPC   C4A30942  24.528  17.548   7.653
 7288POPC   C1B30943  24.664  17.696   8.553
 7288POPC   C2B30944  24.618  17.714   8.253
 7288POPC   C3B30945  24.648  17.648   7.953
 7288POPC   C4B30946  24.679  17.667   7.653
 7289POPC   NC330947  26.804   6.598   9.453
 7289POPC   PO430948  26.835   6.667   9.153
 7289POPC   GL130949  26.808   6.598   8.853
 7289POPC   GL230950  26.725   6.643   8.853
 7289POPC   C1A30951  26.863   6.645   8.553
 7289POPC   D2A30952  26.820   6.677   8.253
 7289POPC   C3A30953  26.816   6.646   7.953
 7289POPC   C4A30954  26.812   6.654   7.653
 7289POPC   C1B30955  26.535   6.626   8.553
 7289POPC   C2B30956  26.604   6.599   8.253
 7289POPC   C3B30957  26.601   6.630   7.953
 7289POPC   C4B30958  26.553   6.612   7.653
 7290POPC   NC330959   4.338   1.232   9.453
 7290POPC   PO430960   4.337   1.261   9.153
 7290POPC   GL130961   4.348   1.171   8.853
 7290POPC   GL230962   4.218   1.256   8.853
 7290POPC   C1A30963   4.270   1.259   8.553
 7290POPC   D2A30964   4.320   1.181   8.253
 7290POPC   C3A30965   4.272   1.165   7.953
 7290POPC   C4A30966   4.286   1.164   7.653
 7290POPC   C1B30967   4.065   1.408   8.553
 7290POPC   C2B30968   4.155   1.320   8.253
 7290POPC   C3B30969   4.126   1.328   7.953
 7290POPC   C4B30970   4.136   1.348   7.653
 7291POPC   NC330971   5.115   9.008   9.453
 7291POPC   PO430972   5.137   8.971   9.153
 7291POPC   GL130973   5.066   9.015   8.853
 7291POPC   GL230974   5.042   8.902   8.853
 7291POPC   C1A30975   5.104   8.934   8.553
 7291POPC   D2A30976   5.112   9.010   8.253
 7291POPC   C3A30977   5.086   8.958   7.953
 7291POPC   C4A30978   5.127   8.999   7.653
 7291POPC   C1B30979   5.055   8.691   8.553
 7291POPC   C2B30980   5.038   8.688   8.253
 7291POPC   C3B30981   5.034   8.774   7.953
 7291POPC   C4B30982   5.003   8.769   7.653
 7292POPC   NC330983  44.621  12.041   9.453
 7292POPC   PO430984  44.651  12.104   9.153
 7292POPC   GL130985  44.682  12.034   8.853
 7292POPC   GL230986  44.784  12.147   8.853
 7292POPC   C1A30987  44.626  12.109   8.553
 7292POPC   D2A30988  44.695  12.124   8.253
 7292POPC   C3A30989  44.684  12.067   7.953
 7292POPC   C4A30990  44.705  12.103   7.653
 7292POPC   C1B30991  44.922  12.193   8.553
 7292POPC   C2B30992  44.899  12.161   8.253
 7292POPC   C3B30993  44.843  12.161   7.953
 7292POPC   C4B30994  44.886  12.154   7.653
 7293POPC   NC330995  43.117  39.278   9.453
 7293POPC   PO430996  43.074  39.241   9.153
 7293POPC   GL130997  43.144  39.261   8.853
 7293POPC   GL230998  43.197  39.362   8.853
 7293POPC   C1A30999  43.121  39.212   8.553
 7293POPC   D2A31000  43.085  39.214   8.253
 7293POPC   C3A31001  43.160  39.267   7.953
 7293POPC   C4A31002  43.077  39.200   7.653
 7293POPC   C1B31003  43.218  39.458   8.553
 7293POPC   C2B31004  43.248  39.442   8.253
 7293POPC   C3B31005  43.244  39.503   7.953
 7293POPC   C4B31006  43.204  39.421   7.653
 7294POPC   NC331007   1.998  12.031   9.453
 7294POPC   PO431008   1.943  12.084   9.153
 7294POPC   GL131009   2.036  12.121   8.853
 7294POPC   GL231010   1.887  12.139   8.853
 7294POPC   C1A31011   1.981  12.094   8.553
 7294POPC   D2A31012   2.011  12.041   8.253
 7294POPC   C3A31013   1.980  12.044   7.953
 7294POPC   C4A31014   1.950  12.071   7.653
 7294POPC   C1B31015   1.820  12.236   8.553
 7294POPC   C2B31016   1.801  12.222   8.253
 7294POPC   C3B31017   1.803  12.219   7.953
 7294POPC   C4B31018   1.790  12.217   7.653
 7295POPC   NC331019  10.475  17.513   9.453
 7295POPC   PO431020  10.556  17.500   9.153
 7295POPC   GL131021  10.521  17.502   8.853
 7295POPC   GL231022  10.650  17.427   8.853
 7295POPC   C1A31023  10.477  17.512   8.553
 7295POPC   D2A31024  10.507  17.515   8.253
 7295POPC   C3A31025  10.497  17.471   7.953
 7295POPC   C4A31026  10.532  17.463   7.653
 7295POPC   C1B31027  10.740  17.315   8.553
 7295POPC   C2B31028  10.762  17.388   8.253
 7295POPC   C3B31029  10.697  17.370   7.953
 7295POPC   C4B31030  10.760  17.338   7.653
 7296POPC   NC331031  27.627  12.091   9.453
 7296POPC   PO431032  27.564  12.095   9.153
 7296POPC   GL131033  27.636  12.051   8.853
 7296POPC   GL231034  27.649  12.196   8.853
 7296POPC   C1A31035  27.606  12.041   8.553
 7296POPC   D2A31036  27.547  12.087   8.253
 7296POPC   C3A31037  27.642  12.085   7.953
 7296POPC   C4A31038  27.552  12.094   7.653
 7296POPC   C1B31039  27.672  12.272   8.553
 7296POPC   C2B31040  27.704  12.339   8.253
 7296POPC   C3B31041  27.641  12.359   7.953
 7296POPC   C4B31042  27.619  12.325   7.653
 7297POPC   NC331043  13.620   8.972   9.453
 7297POPC   PO431044  13.621   8.924   9.153
 7297POPC   GL131045  13.592   8.999   8.853
 7297POPC   GL231046  13.611   8.818   8.853
 7297POPC   C1A31047  13.628   8.923   8.553
 7297POPC   D2A31048  13.586   8.944   8.253
 7297POPC   C3A31049  13.616   8.954   7.953
 7297POPC   C4A31050  13.631   8.964   7.653
 7297POPC   C1B31051  13.504   8.744   8.553
 7297POPC   C2B31052  13.512   8.740   8.253
 7297POPC   C3B31053  13.583   8.729   7.953
 7297POPC   C4B31054  13.564   8.723   7.653
 7298POPC   NC331055   8.222  20.647   9.453
 7298POPC   PO431056   8.167  20.642   9.153
 7298POPC   GL131057   8.175  20.605   8.853
 7298POPC   GL231058   8.299  20.711   8.853
 7298POPC   C1A31059   8.191  20.579   8.553
 7298POPC   D2A31060   8.196  20.610   8.253
 7298POPC   C3A31061   8.222  20.635   7.953
 7298POPC   C4A31062   8.215  20.610   7.653
 7298POPC   C1B31063   8.389  20.754   8.553
 7298POPC   C2B31064   8.328  20.831   8.253
 7298POPC   C3B31065   8.339  20.828   7.953
 7298POPC   C4B31066   8.406  20.769   7.653
 7299POPC   NC331067   8.954   5.085   9.453
 7299POPC   PO431068   8.930   5.044   9.153
 7299POPC   GL131069   8.960   5.132   8.853
 7299POPC   GL231070   8.952   5.224   8.853
 7299POPC   C1A31071   8.975   5.124   8.553
 7299POPC   D2A31072   8.948   5.061   8.253
 7299POPC   C3A31073   8.927   5.108   7.953
 7299POPC   C4A31074   9.003   5.047   7.653
 7299POPC   C1B31075   9.017   5.381   8.553
 7299POPC   C2B31076   9.071   5.349   8.253
 7299POPC   C3B31077   8.977   5.347   7.953
 7299POPC   C4B31078   9.035   5.333   7.653
 7300POPC   NC331079  23.729  41.569   9.453
 7300POPC   PO431080  23.718  41.600   9.153
 7300POPC   GL131081  23.753  41.593   8.853
 7300POPC   GL231082  23.663  41.455   8.853
 7300POPC   C1A31083  23.729  41.553   8.553
 7300POPC   D2A31084  23.708  41.563   8.253
 7300POPC   C3A31085  23.705  41.537   7.953
 7300POPC   C4A31086  23.716  41.555   7.653
 7300POPC   C1B31087  23.675  41.282   8.553
 7300POPC   C2B31088  23.630  41.303   8.253
 7300POPC   C3B31089  23.697  41.317   7.953
 7300POPC   C4B31090  23.621  41.269   7.653
 7301POPC   NC331091   6.677  32.245   9.453
 7301POPC   PO431092   6.693  32.283   9.153
 7301POPC   GL131093   6.642  32.278   8.853
 7301POPC   GL231094   6.544  32.158   8.853
 7301POPC   C1A31095   6.671  32.218   8.553
 7301POPC   D2A31096   6.613  32.245   8.253
 7301POPC   C3A31097   6.670  32.225   7.953
 7301POPC   C4A31098   6.676  32.288   7.653
 7301POPC   C1B31099   6.480  32.077   8.553
 7301POPC   C2B31100   6.395  32.096   8.253
 7301POPC   C3B31101   6.392  32.121   7.953
 7301POPC   C4B31102   6.391  32.118   7.653
 7302POPC   NC331103  15.927  26.831   9.453
 7302POPC   PO431104  15.999  26.773   9.153
 7302POPC   GL131105  16.005  26.833   8.853
 7302POPC   GL231106  15.869  26.720   8.853
 7302POPC   C1A31107  15.946  26.807   8.553
 7302POPC   D2A31108  15.995  26.807   8.253
 7302POPC   C3A31109  15.950  26.792   7.953
 7302POPC   C4A31110  15.908  26.786   7.653
 7302POPC   C1B31111  15.815  26.609   8.553
 7302POPC   C2B31112  15.763  26.619   8.253
 7302POPC   C3B31113  15.721  26.684   7.953
 7302POPC   C4B31114  15.761  26.680   7.653
 7303POPC   NC331115  12.027  15.987   9.453
 7303POPC   PO431116  12.082  16.004   9.153
 7303POPC   GL131117  12.026  15.942   8.853
 7303POPC   GL231118  12.125  16.080   8.853
 7303POPC   C1A31119  12.036  15.929   8.553
 7303POPC   D2A31120  12.047  15.951   8.253
 7303POPC   C3A31121  12.062  15.938   7.953
 7303POPC   C4A31122  12.116  15.980   7.653
 7303POPC   C1B31123  12.247  16.150   8.553
 7303POPC   C2B31124  12.275  16.120   8.253
 7303POPC   C3B31125  12.298  16.069   7.953
 7303POPC   C4B31126  12.274  16.142   7.653
 7304POPC   NC331127   6.665  29.879   9.453
 7304POPC   PO431128   6.615  29.916   9.153
 7304POPC   GL131129   6.602  29.911   8.853
 7304POPC   GL231130   6.710  29.853   8.853
 7304POPC   C1A31131   6.631  29.900   8.553
 7304POPC   D2A31132   6.645  29.911   8.253
 7304POPC   C3A31133   6.639  29.956   7.953
 7304POPC   C4A31134   6.666  29.887   7.653
 7304POPC   C1B31135   6.757  29.712   8.553
 7304POPC   C2B31136   6.700  29.692   8.253
 7304POPC   C3B31137   6.755  29.696   7.953
 7304POPC   C4B31138   6.706  29.658   7.653
 7305POPC   NC331139  12.082  22.194   9.453
 7305POPC   PO431140  12.110  22.131   9.153
 7305POPC   GL131141  12.103  22.186   8.853
 7305POPC   GL231142  12.107  22.252   8.853
 7305POPC   C1A31143  12.051  22.175   8.553
 7305POPC   D2A31144  12.103  22.204   8.253
 7305POPC   C3A31145  12.096  22.159   7.953
 7305POPC   C4A31146  12.032  22.137   7.653
 7305POPC   C1B31147  12.079  22.456   8.553
 7305POPC   C2B31148  12.158  22.381   8.253
 7305POPC   C3B31149  12.106  22.376   7.953
 7305POPC   C4B31150  12.135  22.384   7.653
 7306POPC   NC331151  10.572  36.870   9.453
 7306POPC   PO431152  10.547  36.946   9.153
 7306POPC   GL131153  10.559  36.950   8.853
 7306POPC   GL231154  10.450  36.869   8.853
 7306POPC   C1A31155  10.483  36.893   8.553
 7306POPC   D2A31156  10.542  36.855   8.253
 7306POPC   C3A31157  10.481  36.887   7.953
 7306POPC   C4A31158  10.495  36.909   7.653
 7306POPC   C1B31159  10.251  36.887   8.553
 7306POPC   C2B31160  10.239  36.837   8.253
 7306POPC   C3B31161  10.280  36.866   7.953
 7306POPC   C4B31162  10.237  36.906   7.653
 7307POPC   NC331163   3.549  29.161   9.453
 7307POPC   PO431164   3.572  29.104   9.153
 7307POPC   GL131165   3.552  29.190   8.853
 7307POPC   GL231166   3.538  29.296   8.853
 7307POPC   C1A31167   3.505  29.142   8.553
 7307POPC   D2A31168   3.516  29.185   8.253
 7307POPC   C3A31169   3.531  29.142   7.953
 7307POPC   C4A31170   3.555  29.142   7.653
 7307POPC   C1B31171   3.630  29.372   8.553
 7307POPC   C2B31172   3.584  29.342   8.253
 7307POPC   C3B31173   3.588  29.385   7.953
 7307POPC   C4B31174   3.605  29.352   7.653
 7308POPC   NC331175  12.860  38.477   9.453
 7308POPC   PO431176  12.803  38.413   9.153
 7308POPC   GL131177  12.854  38.460   8.853
 7308POPC   GL231178  12.738  38.475   8.853
 7308POPC   C1A31179  12.817  38.491   8.553
 7308POPC   D2A31180  12.888  38.466   8.253
 7308POPC   C3A31181  12.815  38.443   7.953
 7308POPC   C4A31182  12.822  38.444   7.653
 7308POPC   C1B31183  12.638  38.397   8.553
 7308POPC   C2B31184  12.594  38.393   8.253
 7308POPC   C3B31185  12.555  38.426   7.953
 7308POPC   C4B31186  12.598  38.468   7.653
 7309POPC   NC331187  44.711  15.979   9.453
 7309POPC   PO431188  44.629  15.956   9.153
 7309POPC   GL131189  44.654  15.961   8.853
 7309POPC   GL231190  44.564  16.038   8.853
 7309POPC   C1A31191  44.674  15.996   8.553
 7309POPC   D2A31192  44.678  16.005   8.253
 7309POPC   C3A31193  44.697  15.978   7.953
 7309POPC   C4A31194  44.619  15.956   7.653
 7309POPC   C1B31195  44.478  16.101   8.553
 7309POPC   C2B31196  44.501  16.135   8.253
 7309POPC   C3B31197  44.461  16.153   7.953
 7309POPC   C4B31198  44.477  16.125   7.653
 7310POPC   NC331199  14.413   1.248   9.453
 7310POPC   PO431200  14.421   1.244   9.153
 7310POPC   GL131201  14.426   1.201   8.853
 7310POPC   GL231202  14.389   1.130   8.853
 7310POPC   C1A31203  14.403   1.175   8.553
 7310POPC   D2A31204  14.409   1.202   8.253
 7310POPC   C3A31205  14.394   1.232   7.953
 7310POPC   C4A31206  14.367   1.185   7.653
 7310POPC   C1B31207  14.353   1.007   8.553
 7310POPC   C2B31208  14.381   0.951   8.253
 7310POPC   C3B31209  14.318   0.987   7.953
 7310POPC   C4B31210  14.335   0.922   7.653
 7311POPC   NC331211  25.287  34.534   9.453
 7311POPC   PO431212  25.287  34.592   9.153
 7311POPC   GL131213  25.269  34.582   8.853
 7311POPC   GL231214  25.399  34.643   8.853
 7311POPC   C1A31215  25.272  34.544   8.553
 7311POPC   D2A31216  25.299  34.550   8.253
 7311POPC   C3A31217  25.241  34.529   7.953
 7311POPC   C4A31218  25.232  34.544   7.653
 7311POPC   C1B31219  25.504  34.584   8.553
 7311POPC   C2B31220  25.514  34.620   8.253
 7311POPC   C3B31221  25.483  34.674   7.953
 7311POPC   C4B31222  25.481  34.640   7.653
 7312POPC   NC331223  19.873   2.002   9.453
 7312POPC   PO431224  19.809   2.016   9.153
 7312POPC   GL131225  19.859   2.011   8.853
 7312POPC   GL231226  19.957   2.046   8.853
 7312POPC   C1A31227  19.811   1.993   8.553
 7312POPC   D2A31228  19.821   2.034   8.253
 7312POPC   C3A31229  19.866   2.022   7.953
 7312POPC   C4A31230  19.823   1.950   7.653
 7312POPC   C1B31231  20.082   2.175   8.553
 7312POPC   C2B31232  20.011   2.121   8.253
 7312POPC   C3B31233  20.046   2.090   7.953
 7312POPC   C4B31234  20.030   2.143   7.653
 7313POPC   NC331235  29.097  43.076   9.453
 7313POPC   PO431236  29.170  43.065   9.153
 7313POPC   GL131237  29.167  43.118   8.853
 7313POPC   GL231238  29.265  43.193   8.853
 7313POPC   C1A31239  29.100  43.067   8.553
 7313POPC   D2A31240  29.138  43.081   8.253
 7313POPC   C3A31241  29.165  43.121   7.953
 7313POPC   C4A31242  29.127  43.154   7.653
 7313POPC   C1B31243  29.417  43.164   8.553
 7313POPC   C2B31244  29.376  43.188   8.253
 7313POPC   C3B31245  29.357  43.196   7.953
 7313POPC   C4B31246  29.345  43.184   7.653
 7314POPC   NC331247  12.084  39.273   9.453
 7314POPC   PO431248  12.123  39.252   9.153
 7314POPC   GL131249  12.061  39.220   8.853
 7314POPC   GL231250  12.127  39.357   8.853
 7314POPC   C1A31251  12.048  39.190   8.553
 7314POPC   D2A31252  12.086  39.184   8.253
 7314POPC   C3A31253  12.035  39.188   7.953
 7314POPC   C4A31254  12.097  39.270   7.653
 7314POPC   C1B31255  12.254  39.380   8.553
 7314POPC   C2B31256  12.227  39.412   8.253
 7314POPC   C3B31257  12.295  39.411   7.953
 7314POPC   C4B31258  12.289  39.374   7.653
 7315POPC   NC331259  14.453  30.746   9.453
 7315POPC   PO431260  14.438  30.651   9.153
 7315POPC   GL131261  14.382  30.649   8.853
 7315POPC   GL231262  14.548  30.666   8.853
 7315POPC   C1A31263  14.402  30.662   8.553
 7315POPC   D2A31264  14.390  30.666   8.253
 7315POPC   C3A31265  14.398  30.698   7.953
 7315POPC   C4A31266  14.413  30.745   7.653
 7315POPC   C1B31267  14.675  30.740   8.553
 7315POPC   C2B31268  14.661  30.659   8.253
 7315POPC   C3B31269  14.613  30.655   7.953
 7315POPC   C4B31270  14.678  30.687   7.653
 7316POPC   NC331271   8.188  12.877   9.453
 7316POPC   PO431272   8.240  12.868   9.153
 7316POPC   GL131273   8.213  12.817   8.853
 7316POPC   GL231274   8.300  12.967   8.853
 7316POPC   C1A31275   8.226  12.855   8.553
 7316POPC   D2A31276   8.154  12.808   8.253
 7316POPC   C3A31277   8.215  12.812   7.953
 7316POPC   C4A31278   8.222  12.839   7.653
 7316POPC   C1B31279   8.418  12.979   8.553
 7316POPC   C2B31280   8.408  13.017   8.253
 7316POPC   C3B31281   8.445  12.990   7.953
 7316POPC   C4B31282   8.400  13.034   7.653
 7317POPC   NC331283  29.144   1.258   9.453
 7317POPC   PO431284  29.095   1.229   9.153
 7317POPC   GL131285  29.122   1.263   8.853
 7317POPC   GL231286  28.972   1.237   8.853
 7317POPC   C1A31287  29.136   1.216   8.553
 7317POPC   D2A31288  29.151   1.172   8.253
 7317POPC   C3A31289  29.167   1.168   7.953
 7317POPC   C4A31290  29.121   1.171   7.653
 7317POPC   C1B31291  28.847   1.171   8.553
 7317POPC   C2B31292  28.880   1.175   8.253
 7317POPC   C3B31293  28.867   1.229   7.953
 7317POPC   C4B31294  28.938   1.147   7.653
 7318POPC   NC331295   6.646  38.496   9.453
 7318POPC   PO431296   6.644  38.413   9.153
 7318POPC   GL131297   6.605  38.504   8.853
 7318POPC   GL231298   6.614  38.298   8.853
 7318POPC   C1A31299   6.687  38.502   8.553
 7318POPC   D2A31300   6.636  38.406   8.253
 7318POPC   C3A31301   6.668  38.416   7.953
 7318POPC   C4A31302   6.630  38.479   7.653
 7318POPC   C1B31303   6.502  38.252   8.553
 7318POPC   C2B31304   6.537  38.237   8.253
 7318POPC   C3B31305   6.568  38.275   7.953
 7318POPC   C4B31306   6.560  38.251   7.653
 7319POPC   NC331307  17.495   5.120   9.453
 7319POPC   PO431308  17.487   5.108   9.153
 7319POPC   GL131309  17.545   5.102   8.853
 7319POPC   GL231310  17.377   5.137   8.853
 7319POPC   C1A31311  17.540   5.110   8.553
 7319POPC   D2A31312  17.533   5.087   8.253
 7319POPC   C3A31313  17.549   5.080   7.953
 7319POPC   C4A31314  17.533   5.093   7.653
 7319POPC   C1B31315  17.282   5.092   8.553
 7319POPC   C2B31316  17.259   5.157   8.253
 7319POPC   C3B31317  17.297   5.097   7.953
 7319POPC   C4B31318  17.299   5.162   7.653
 7320POPC   NC331319  18.309  39.206   9.453
 7320POPC   PO431320  18.248  39.267   9.153
 7320POPC   GL131321  18.255  39.192   8.853
 7320POPC   GL231322  18.127  39.198   8.853
 7320POPC   C1A31323  18.240  39.192   8.553
 7320POPC   D2A31324  18.292  39.271   8.253
 7320POPC   C3A31325  18.236  39.207   7.953
 7320POPC   C4A31326  18.266  39.254   7.653
 7320POPC   C1B31327  18.026  39.274   8.553
 7320POPC   C2B31328  18.006  39.246   8.253
 7320POPC   C3B31329  18.001  39.230   7.953
 7320POPC   C4B31330  18.013  39.281   7.653
 7321POPC   NC331331  30.698  34.588   9.453
 7321POPC   PO431332  30.667  34.591   9.153
 7321POPC   GL131333  30.693  34.599   8.853
 7321POPC   GL231334  30.637  34.480   8.853
 7321POPC   C1A31335  30.696  34.529   8.553
 7321POPC   D2A31336  30.726  34.624   8.253
 7321POPC   C3A31337  30.673  34.546   7.953
 7321POPC   C4A31338  30.731  34.565   7.653
 7321POPC   C1B31339  30.604  34.367   8.553
 7321POPC   C2B31340  30.608  34.343   8.253
 7321POPC   C3B31341  30.530  34.333   7.953
 7321POPC   C4B31342  30.550  34.358   7.653
 7322POPC   NC331343  43.133  32.212   9.453
 7322POPC   PO431344  43.140  32.262   9.153
 7322POPC   GL131345  43.072  32.247   8.853
 7322POPC   GL231346  43.103  32.384   8.853
 7322POPC   C1A31347  43.080  32.279   8.553
 7322POPC   D2A31348  43.145  32.200   8.253
 7322POPC   C3A31349  43.063  32.235   7.953
 7322POPC   C4A31350  43.116  32.277   7.653
 7322POPC   C1B31351  43.181  32.521   8.553
 7322POPC   C2B31352  43.130  32.530   8.253
 7322POPC   C3B31353  43.163  32.500   7.953
 7322POPC   C4B31354  43.141  32.507   7.653
 7323POPC   NC331355  41.563  43.138   9.453
 7323POPC   PO431356  41.570  43.134   9.153
 7323POPC   GL131357  41.551  43.071   8.853
 7323POPC   GL231358  41.484  43.026   8.853
 7323POPC   C1A31359  41.603  43.114   8.553
 7323POPC   D2A31360  41.582  43.078   8.253
 7323POPC   C3A31361  41.583  43.084   7.953
 7323POPC   C4A31362  41.591  43.152   7.653
 7323POPC   C1B31363  41.318  43.033   8.553
 7323POPC   C2B31364  41.387  42.969   8.253
 7323POPC   C3B31365  41.314  43.013   7.953
 7323POPC   C4B31366  41.330  42.954   7.653
 7324POPC   NC331367  23.720  22.930   9.453
 7324POPC   PO431368  23.737  22.936   9.153
 7324POPC   GL131369  23.754  22.986   8.853
 7324POPC   GL231370  23.800  22.919   8.853
 7324POPC   C1A31371  23.680  22.920   8.553
 7324POPC   D2A31372  23.692  22.960   8.253
 7324POPC   C3A31373  23.708  22.911   7.953
 7324POPC   C4A31374  23.729  22.987   7.653
 7324POPC   C1B31375  24.010  22.921   8.553
 7324POPC   C2B31376  23.950  22.900   8.253
 7324POPC   C3B31377  24.011  22.879   7.953
 7324POPC   C4B31378  24.004  22.973   7.653
 7325POPC   NC331379   4.325  28.369   9.453
 7325POPC   PO431380   4.327  28.386   9.153
 7325POPC   GL131381   4.357  28.374   8.853
 7325POPC   GL231382   4.461  28.435   8.853
 7325POPC   C1A31383   4.355  28.375   8.553
 7325POPC   D2A31384   4.285  28.390   8.253
 7325POPC   C3A31385   4.277  28.405   7.953
 7325POPC   C4A31386   4.308  28.403   7.653
 7325POPC   C1B31387   4.541  28.541   8.553
 7325POPC   C2B31388   4.476  28.571   8.253
 7325POPC   C3B31389   4.552  28.513   7.953
 7325POPC   C4B31390   4.552  28.493   7.653
 7326POPC   NC331391  15.963  23.679   9.453
 7326POPC   PO431392  15.994  23.761   9.153
 7326POPC   GL131393  15.942  23.748   8.853
 7326POPC   GL231394  15.845  23.655   8.853
 7326POPC   C1A31395  15.995  23.688   8.553
 7326POPC   D2A31396  15.981  23.733   8.253
 7326POPC   C3A31397  15.949  23.738   7.953
 7326POPC   C4A31398  15.990  23.679   7.653
 7326POPC   C1B31399  15.789  23.578   8.553
 7326POPC   C2B31400  15.778  23.547   8.253
 7326POPC   C3B31401  15.760  23.617   7.953
 7326POPC   C4B31402  15.772  23.569   7.653
 7327POPC   NC331403   1.237  18.329   9.453
 7327POPC   PO431404   1.238  18.302   9.153
 7327POPC   GL131405   1.229  18.243   8.853
 7327POPC   GL231406   1.129  18.210   8.853
 7327POPC   C1A31407   1.227  18.301   8.553
 7327POPC   D2A31408   1.253  18.293   8.253
 7327POPC   C3A31409   1.164  18.310   7.953
 7327POPC   C4A31410   1.247  18.234   7.653
 7327POPC   C1B31411   1.095  18.012   8.553
 7327POPC   C2B31412   1.148  18.048   8.253
 7327POPC   C3B31413   1.163  18.057   7.953
 7327POPC   C4B31414   1.066  18.094   7.653
 7328POPC   NC331415  12.847  12.038   9.453
 7328POPC   PO431416  12.863  12.066   9.153
 7328POPC   GL131417  12.807  12.038   8.853
 7328POPC   GL231418  12.687  12.085   8.853
 7328POPC   C1A31419  12.856  12.065   8.553
 7328POPC   D2A31420  12.883  12.033   8.253
 7328POPC   C3A31421  12.848  12.029   7.953
 7328POPC   C4A31422  12.838  12.038   7.653
 7328POPC   C1B31423  12.575  12.150   8.553
 7328POPC   C2B31424  12.623  12.108   8.253
 7328POPC   C3B31425  12.616  12.076   7.953
 7328POPC   C4B31426  12.612  12.138   7.653
 7329POPC   NC331427  23.689  27.601   9.453
 7329POPC   PO431428  23.720  27.588   9.153
 7329POPC   GL131429  23.741  27.610   8.853
 7329POPC   GL231430  23.756  27.728   8.853
 7329POPC   C1A31431  23.713  27.571   8.553
 7329POPC   D2A31432  23.706  27.593   8.253
 7329POPC   C3A31433  23.754  27.587   7.953
 7329POPC   C4A31434  23.711  27.602   7.653
 7329POPC   C1B31435  23.782  27.843   8.553
 7329POPC   C2B31436  23.732  27.864   8.253
 7329POPC   C3B31437  23.790  27.886   7.953
 7329POPC   C4B31438  23.807  27.798   7.653
 7330POPC   NC331439  37.729   5.104   9.453
 7330POPC   PO431440  37.655   5.053   9.153
 7330POPC   GL131441  37.676   5.142   8.853
 7330POPC   GL231442  37.582   5.061   8.853
 7330POPC   C1A31443  37.720   5.080   8.553
 7330POPC   D2A31444  37.633   5.109   8.253
 7330POPC   C3A31445  37.725   5.073   7.953
 7330POPC   C4A31446  37.665   5.092   7.653
 7330POPC   C1B31447  37.431   4.968   8.553
 7330POPC   C2B31448  37.482   5.024   8.253
 7330POPC   C3B31449  37.434   4.978   7.953
 7330POPC   C4B31450  37.462   4.933   7.653
 7331POPC   NC331451   5.135  39.235   9.453
 7331POPC   PO431452   5.103  39.261   9.153
 7331POPC   GL131453   5.117  39.259   8.853
 7331POPC   GL231454   5.199  39.175   8.853
 7331POPC   C1A31455   5.087  39.219   8.553
 7331POPC   D2A31456   5.089  39.248   8.253
 7331POPC   C3A31457   5.112  39.248   7.953
 7331POPC   C4A31458   5.083  39.247   7.653
 7331POPC   C1B31459   5.282  39.046   8.553
 7331POPC   C2B31460   5.244  39.082   8.253
 7331POPC   C3B31461   5.249  39.003   7.953
 7331POPC   C4B31462   5.301  39.024   7.653
 7332POPC   NC331463  37.693  34.579   9.453
 7332POPC   PO431464  37.691  34.533   9.153
 7332POPC   GL131465  37.670  34.535   8.853
 7332POPC   GL231466  37.773  34.487   8.853
 7332POPC   C1A31467  37.651  34.577   8.553
 7332POPC   D2A31468  37.689  34.581   8.253
 7332POPC   C3A31469  37.729  34.621   7.953
 7332POPC   C4A31470  37.672  34.619   7.653
 7332POPC   C1B31471  37.776  34.390   8.553
 7332POPC   C2B31472  37.786  34.370   8.253
 7332POPC   C3B31473  37.792  34.355   7.953
 7332POPC   C4B31474  37.845  34.381   7.653
 7333POPC   NC331475   0.450  37.650   9.453
 7333POPC   PO431476   0.398  37.639   9.153
 7333POPC   GL131477   0.399  37.671   8.853
 7333POPC   GL231478   0.331  37.659   8.853
 7333POPC   C1A31479   0.464  37.643   8.553
 7333POPC   D2A31480   0.423  37.647   8.253
 7333POPC   C3A31481   0.435  37.651   7.953
 7333POPC   C4A31482   0.487  37.663   7.653
 7333POPC   C1B31483   0.237  37.563   8.553
 7333POPC   C2B31484   0.250  37.519   8.253
 7333POPC   C3B31485   0.191  37.593   7.953
 7333POPC   C4B31486   0.259  37.606   7.653
 7334POPC   NC331487   7.394  41.606   9.453
 7334POPC   PO431488   7.467  41.588   9.153
 7334POPC   GL131489   7.404  41.562   8.853
 7334POPC   GL231490   7.284  41.521   8.853
 7334POPC   C1A31491   7.377  41.555   8.553
 7334POPC   D2A31492   7.400  41.520   8.253
 7334POPC   C3A31493   7.458  41.603   7.953
 7334POPC   C4A31494   7.408  41.540   7.653
 7334POPC   C1B31495   7.204  41.423   8.553
 7334POPC   C2B31496   7.192  41.420   8.253
 7334POPC   C3B31497   7.209  41.463   7.953
 7334POPC   C4B31498   7.193  41.436   7.653
 7335POPC   NC331499  26.771  43.129   9.453
 7335POPC   PO431500  26.812  43.108   9.153
 7335POPC   GL131501  26.864  43.125   8.853
 7335POPC   GL231502  26.949  43.126   8.853
 7335POPC   C1A31503  26.852  43.130   8.553
 7335POPC   D2A31504  26.836  43.098   8.253
 7335POPC   C3A31505  26.774  43.144   7.953
 7335POPC   C4A31506  26.826  43.069   7.653
 7335POPC   C1B31507  27.037  43.161   8.553
 7335POPC   C2B31508  27.020  43.187   8.253
 7335POPC   C3B31509  27.005  43.233   7.953
 7335POPC   C4B31510  27.074  43.186   7.653
 7336POPC   NC331511   9.772   1.245   9.453
 7336POPC   PO431512   9.712   1.216   9.153
 7336POPC   GL131513   9.787   1.207   8.853
 7336POPC   GL231514   9.597   1.130   8.853
 7336POPC   C1A31515   9.742   1.253   8.553
 7336POPC   D2A31516   9.768   1.216   8.253
 7336POPC   C3A31517   9.722   1.200   7.953
 7336POPC   C4A31518   9.729   1.184   7.653
 7336POPC   C1B31519   9.564   1.133   8.553
 7336POPC   C2B31520   9.486   1.123   8.253
 7336POPC   C3B31521   9.495   1.078   7.953
 7336POPC   C4B31522   9.567   1.117   7.653
 7337POPC   NC331523  19.059   5.122   9.453
 7337POPC   PO431524  19.088   5.079   9.153
 7337POPC   GL131525  19.053   5.112   8.853
 7337POPC   GL231526  18.940   5.093   8.853
 7337POPC   C1A31527  19.091   5.143   8.553
 7337POPC   D2A31528  19.062   5.071   8.253
 7337POPC   C3A31529  19.065   5.052   7.953
 7337POPC   C4A31530  19.094   5.079   7.653
 7337POPC   C1B31531  18.780   5.195   8.553
 7337POPC   C2B31532  18.840   5.149   8.253
 7337POPC   C3B31533  18.782   5.203   7.953
 7337POPC   C4B31534  18.813   5.162   7.653
 7338POPC   NC331535  25.245  10.521   9.453
 7338POPC   PO431536  25.274  10.553   9.153
 7338POPC   GL131537  25.257  10.475   8.853
 7338POPC   GL231538  25.297  10.434   8.853
 7338POPC   C1A31539  25.246  10.485   8.553
 7338POPC   D2A31540  25.273  10.549   8.253
 7338POPC   C3A31541  25.286  10.551   7.953
 7338POPC   C4A31542  25.308  10.496   7.653
 7338POPC   C1B31543  25.354  10.289   8.553
 7338POPC   C2B31544  25.370  10.307   8.253
 7338POPC   C3B31545  25.340  10.263   7.953
 7338POPC   C4B31546  25.403  10.350   7.653
 7339POPC   NC331547  26.072  32.202   9.453
 7339POPC   PO431548  26.002  32.281   9.153
 7339POPC   GL131549  26.026  32.296   8.853
 7339POPC   GL231550  25.989  32.365   8.853
 7339POPC   C1A31551  26.053  32.284   8.553
 7339POPC   D2A31552  26.025  32.255   8.253
 7339POPC   C3A31553  26.071  32.204   7.953
 7339POPC   C4A31554  26.070  32.205   7.653
 7339POPC   C1B31555  25.945  32.535   8.553
 7339POPC   C2B31556  25.946  32.514   8.253
 7339POPC   C3B31557  25.988  32.441   7.953
 7339POPC   C4B31558  25.927  32.512   7.653
 7340POPC   NC331559  25.263  13.594   9.453
 7340POPC   PO431560  25.285  13.656   9.153
 7340POPC   GL131561  25.258  13.637   8.853
 7340POPC   GL231562  25.253  13.778   8.853
 7340POPC   C1A31563  25.235  13.667   8.553
 7340POPC   D2A31564  25.300  13.655   8.253
 7340POPC   C3A31565  25.249  13.658   7.953
 7340POPC   C4A31566  25.279  13.621   7.653
 7340POPC   C1B31567  25.285  13.857   8.553
 7340POPC   C2B31568  25.230  13.862   8.253
 7340POPC   C3B31569  25.206  13.913   7.953
 7340POPC   C4B31570  25.210  13.911   7.653
 7341POPC   NC331571  11.318  39.971   9.453
 7341POPC   PO431572  11.330  40.024   9.153
 7341POPC   GL131573  11.263  40.006   8.853
 7341POPC   GL231574  11.202  40.045   8.853
 7341POPC   C1A31575  11.284  40.047   8.553
 7341POPC   D2A31576  11.332  39.994   8.253
 7341POPC   C3A31577  11.276  39.958   7.953
 7341POPC   C4A31578  11.300  39.992   7.653
 7341POPC   C1B31579  11.062  40.114   8.553
 7341POPC   C2B31580  11.071  40.110   8.253
 7341POPC   C3B31581  11.099  40.095   7.953
 7341POPC   C4B31582  11.093  40.093   7.653
 7342POPC   NC331583  36.854  20.603   9.453
 7342POPC   PO431584  36.871  20.628   9.153
 7342POPC   GL131585  36.857  20.578   8.853
 7342POPC   GL231586  36.904  20.472   8.853
 7342POPC   C1A31587  36.856  20.603   8.553
 7342POPC   D2A31588  36.865  20.656   8.253
 7342POPC   C3A31589  36.891  20.568   7.953
 7342POPC   C4A31590  36.890  20.571   7.653
 7342POPC   C1B31591  36.776  20.374   8.553
 7342POPC   C2B31592  36.814  20.376   8.253
 7342POPC   C3B31593  36.819  20.386   7.953
 7342POPC   C4B31594  36.854  20.368   7.653
 7343POPC   NC331595  19.794  12.824   9.453
 7343POPC   PO431596  19.879  12.850   9.153
 7343POPC   GL131597  19.833  12.806   8.853
 7343POPC   GL231598  19.895  12.874   8.853
 7343POPC   C1A31599  19.861  12.864   8.553
 7343POPC   D2A31600  19.795  12.883   8.253
 7343POPC   C3A31601  19.846  12.824   7.953
 7343POPC   C4A31602  19.875  12.809   7.653
 7343POPC   C1B31603  20.047  12.967   8.553
 7343POPC   C2B31604  20.062  12.962   8.253
 7343POPC   C3B31605  20.062  13.018   7.953
 7343POPC   C4B31606  20.044  12.968   7.653
 7344POPC   NC331607  11.295  13.677   9.453
 7344POPC   PO431608  11.343  13.614   9.153
 7344POPC   GL131609  11.281  13.644   8.853
 7344POPC   GL231610  11.152  13.692   8.853
 7344POPC   C1A31611  11.332  13.598   8.553
 7344POPC   D2A31612  11.349  13.633   8.253
 7344POPC   C3A31613  11.333  13.676   7.953
 7344POPC   C4A31614  11.253  13.673   7.653
 7344POPC   C1B31615  11.061  13.732   8.553
 7344POPC   C2B31616  11.089  13.696   8.253
 7344POPC   C3B31617  11.011  13.687   7.953
 7344POPC   C4B31618  11.057  13.667   7.653
 7345POPC   NC331619  32.261   1.212   9.453
 7345POPC   PO431620  32.281   1.193   9.153
 7345POPC   GL131621  32.199   1.181   8.853
 7345POPC   GL231622  32.220   1.295   8.853
 7345POPC   C1A31623  32.266   1.232   8.553
 7345POPC   D2A31624  32.207   1.239   8.253
 7345POPC   C3A31625  32.201   1.215   7.953
 7345POPC   C4A31626  32.235   1.260   7.653
 7345POPC   C1B31627  32.142   1.465   8.553
 7345POPC   C2B31628  32.191   1.404   8.253
 7345POPC   C3B31629  32.154   1.474   7.953
 7345POPC   C4B31630  32.102   1.487   7.653
 7346POPC   NC331631  27.637  33.808   9.453
 7346POPC   PO431632  27.560  33.754   9.153
 7346POPC   GL131633  27.629  33.784   8.853
 7346POPC   GL231634  27.721  33.729   8.853
 7346POPC   C1A31635  27.551  33.778   8.553
 7346POPC   D2A31636  27.601  33.831   8.253
 7346POPC   C3A31637  27.619  33.808   7.953
 7346POPC   C4A31638  27.609  33.808   7.653
 7346POPC   C1B31639  27.792  33.697   8.553
 7346POPC   C2B31640  27.841  33.681   8.253
 7346POPC   C3B31641  27.803  33.681   7.953
 7346POPC   C4B31642  27.763  33.676   7.653
 7347POPC   NC331643  32.294  30.673   9.453
 7347POPC   PO431644  32.261  30.744   9.153
 7347POPC   GL131645  32.243  30.714   8.853
 7347POPC   GL231646  32.125  30.743   8.853
 7347POPC   C1A31647  32.283  30.698   8.553
 7347POPC   D2A31648  32.266  30.682   8.253
 7347POPC   C3A31649  32.271  30.726   7.953
 7347POPC   C4A31650  32.268  30.664   7.653
 7347POPC   C1B31651  32.009  30.758   8.553
 7347POPC   C2B31652  32.041  30.714   8.253
 7347POPC   C3B31653  31.960  30.692   7.953
 7347POPC   C4B31654  31.960  30.705   7.653
 7348POPC   NC331655  15.973   7.469   9.453
 7348POPC   PO431656  15.931   7.377   9.153
 7348POPC   GL131657  15.949   7.389   8.853
 7348POPC   GL231658  15.833   7.453   8.853
 7348POPC   C1A31659  15.916   7.464   8.553
 7348POPC   D2A31660  15.919   7.420   8.253
 7348POPC   C3A31661  15.953   7.381   7.953
 7348POPC   C4A31662  15.928   7.398   7.653
 7348POPC   C1B31663  15.685   7.571   8.553
 7348POPC   C2B31664  15.680   7.476   8.253
 7348POPC   C3B31665  15.761   7.531   7.953
 7348POPC   C4B31666  15.741   7.499   7.653
 7349POPC   NC331667  15.137   1.957   9.453
 7349POPC   PO431668  15.223   1.955   9.153
 7349POPC   GL131669  15.143   2.005   8.853
 7349POPC   GL231670  15.055   2.021   8.853
 7349POPC   C1A31671  15.184   1.983   8.553
 7349POPC   D2A31672  15.153   1.975   8.253
 7349POPC   C3A31673  15.134   1.960   7.953
 7349POPC   C4A31674  15.188   2.028   7.653
 7349POPC   C1B31675  14.962   2.129   8.553
 7349POPC   C2B31676  14.974   2.112   8.253
 7349POPC   C3B31677  14.947   2.153   7.953
 7349POPC   C4B31678  14.960   2.190   7.653
 7350POPC   NC331679  43.851  15.928   9.453
 7350POPC   PO431680  43.929  15.972   9.153
 7350POPC   GL131681  43.898  15.996   8.853
 7350POPC   GL231682  43.726  15.950   8.853
 7350POPC   C1A31683  43.850  15.921   8.553
 7350POPC   D2A31684  43.930  15.974   8.253
 7350POPC   C3A31685  43.851  15.920   7.953
 7350POPC   C4A31686  43.919  15.956   7.653
 7350POPC   C1B31687  43.680  15.877   8.553
 7350POPC   C2B31688  43.611  15.866   8.253
 7350POPC   C3B31689  43.620  15.819   7.953
 7350POPC   C4B31690  43.686  15.824   7.653
 7351POPC   NC331691   2.739  27.564   9.453
 7351POPC   PO431692   2.765  27.560   9.153
 7351POPC   GL131693   2.772  27.555   8.853
 7351POPC   GL231694   2.826  27.652   8.853
 7351POPC   C1A31695   2.804  27.560   8.553
 7351POPC   D2A31696   2.776  27.641   8.253
 7351POPC   C3A31697   2.734  27.558   7.953
 7351POPC   C4A31698   2.760  27.602   7.653
 7351POPC   C1B31699   2.995  27.773   8.553
 7351POPC   C2B31700   2.923  27.735   8.253
 7351POPC   C3B31701   2.969  27.769   7.953
 7351POPC   C4B31702   2.899  27.751   7.653
 7352POPC   NC331703  12.039  12.830   9.453
 7352POPC   PO431704  12.073  12.826   9.153
 7352POPC   GL131705  12.066  12.897   8.853
 7352POPC   GL231706  11.903  12.813   8.853
 7352POPC   C1A31707  12.035  12.901   8.553
 7352POPC   D2A31708  12.103  12.886   8.253
 7352POPC   C3A31709  12.028  12.890   7.953
 7352POPC   C4A31710  12.097  12.866   7.653
 7352POPC   C1B31711  11.862  12.834   8.553
 7352POPC   C2B31712  11.837  12.788   8.253
 7352POPC   C3B31713  11.801  12.804   7.953
 7352POPC   C4B31714  11.832  12.826   7.653
 7353POPC   NC331715  18.235   4.350   9.453
 7353POPC   PO431716  18.275   4.345   9.153
 7353POPC   GL131717  18.292   4.333   8.853
 7353POPC   GL231718  18.184   4.414   8.853
 7353POPC   C1A31719  18.298   4.272   8.553
 7353POPC   D2A31720  18.250   4.358   8.253
 7353POPC   C3A31721  18.325   4.282   7.953
 7353POPC   C4A31722  18.234   4.323   7.653
 7353POPC   C1B31723  18.109   4.517   8.553
 7353POPC   C2B31724  18.157   4.479   8.253
 7353POPC   C3B31725  18.139   4.472   7.953
 7353POPC   C4B31726  18.072   4.489   7.653
 7354POPC   NC331727  12.119   9.761   9.453
 7354POPC   PO431728  12.032   9.717   9.153
 7354POPC   GL131729  12.042   9.785   8.853
 7354POPC   GL231730  12.118   9.866   8.853
 7354POPC   C1A31731  12.060   9.707   8.553
 7354POPC   D2A31732  12.087   9.772   8.253
 7354POPC   C3A31733  12.037   9.709   7.953
 7354POPC   C4A31734  12.086   9.777   7.653
 7354POPC   C1B31735  12.215   9.955   8.553
 7354POPC   C2B31736  12.203   9.950   8.253
 7354POPC   C3B31737  12.141   9.989   7.953
 7354POPC   C4B31738  12.131  10.026   7.653
 7355POPC   NC331739  11.342  31.447   9.453
 7355POPC   PO431740  11.319  31.504   9.153
 7355POPC   GL131741  11.315  31.491   8.853
 7355POPC   GL231742  11.262  31.591   8.853
 7355POPC   C1A31743  11.340  31.493   8.553
 7355POPC   D2A31744  11.287  31.503   8.253
 7355POPC   C3A31745  11.321  31.441   7.953
 7355POPC   C4A31746  11.295  31.499   7.653
 7355POPC   C1B31747  11.180  31.658   8.553
 7355POPC   C2B31748  11.111  31.670   8.253
 7355POPC   C3B31749  11.115  31.682   7.953
 7355POPC   C4B31750  11.151  31.693   7.653
 7356POPC   NC331751  37.690  38.486   9.453
 7356POPC   PO431752  37.709  38.444   9.153
 7356POPC   GL131753  37.634  38.456   8.853
 7356POPC   GL231754  37.726  38.301   8.853
 7356POPC   C1A31755  37.658  38.474   8.553
 7356POPC   D2A31756  37.655  38.495   8.253
 7356POPC   C3A31757  37.718  38.459   7.953
 7356POPC   C4A31758  37.639  38.493   7.653
 7356POPC   C1B31759  37.737  38.248   8.553
 7356POPC   C2B31760  37.661  38.177   8.253
 7356POPC   C3B31761  37.710  38.209   7.953
 7356POPC   C4B31762  37.673  38.240   7.653
 7357POPC   NC331763   0.399  30.740   9.453
 7357POPC   PO431764   0.479  30.728   9.153
 7357POPC   GL131765   0.416  30.727   8.853
 7357POPC   GL231766   0.372  30.618   8.853
 7357POPC   C1A31767   0.488  30.720   8.553
 7357POPC   D2A31768   0.390  30.698   8.253
 7357POPC   C3A31769   0.439  30.693   7.953
 7357POPC   C4A31770   0.428  30.648   7.653
 7357POPC   C1B31771   0.249  30.452   8.553
 7357POPC   C2B31772   0.326  30.531   8.253
 7357POPC   C3B31773   0.244  30.448   7.953
 7357POPC   C4B31774   0.322  30.487   7.653
 7358POPC   NC331775   7.451  13.616   9.453
 7358POPC   PO431776   7.374  13.593   9.153
 7358POPC   GL131777   7.386  13.645   8.853
 7358POPC   GL231778   7.487  13.731   8.853
 7358POPC   C1A31779   7.422  13.621   8.553
 7358POPC   D2A31780   7.375  13.663   8.253
 7358POPC   C3A31781   7.408  13.674   7.953
 7358POPC   C4A31782   7.438  13.658   7.653
 7358POPC   C1B31783   7.457  13.816   8.553
 7358POPC   C2B31784   7.522  13.853   8.253
 7358POPC   C3B31785   7.505  13.857   7.953
 7358POPC   C4B31786   7.534  13.815   7.653
 7359POPC   NC331787  40.793  36.094   9.453
 7359POPC   PO431788  40.740  36.122   9.153
 7359POPC   GL131789  40.798  36.177   8.853
 7359POPC   GL231790  40.897  36.179   8.853
 7359POPC   C1A31791  40.744  36.080   8.553
 7359POPC   D2A31792  40.794  36.157   8.253
 7359POPC   C3A31793  40.819  36.090   7.953
 7359POPC   C4A31794  40.797  36.085   7.653
 7359POPC   C1B31795  40.991  36.294   8.553
 7359POPC   C2B31796  40.967  36.241   8.253
 7359POPC   C3B31797  40.948  36.261   7.953
 7359POPC   C4B31798  40.970  36.298   7.653
 7360POPC   NC331799  23.753  29.124   9.453
 7360POPC   PO431800  23.744  29.175   9.153
 7360POPC   GL131801  23.756  29.154   8.853
 7360POPC   GL231802  23.639  29.111   8.853
 7360POPC   C1A31803  23.751  29.157   8.553
 7360POPC   D2A31804  23.751  29.123   8.253
 7360POPC   C3A31805  23.715  29.184   7.953
 7360POPC   C4A31806  23.673  29.096   7.653
 7360POPC   C1B31807  23.467  28.998   8.553
 7360POPC   C2B31808  23.512  29.031   8.253
 7360POPC   C3B31809  23.445  29.046   7.953
 7360POPC   C4B31810  23.532  29.051   7.653
 7361POPC   NC331811  42.377   8.936   9.453
 7361POPC   PO431812  42.345   8.963   9.153
 7361POPC   GL131813  42.356   9.012   8.853
 7361POPC   GL231814  42.297   8.833   8.853
 7361POPC   C1A31815  42.343   8.955   8.553
 7361POPC   D2A31816  42.340   8.937   8.253
 7361POPC   C3A31817  42.341   8.992   7.953
 7361POPC   C4A31818  42.300   9.021   7.653
 7361POPC   C1B31819  42.310   8.698   8.553
 7361POPC   C2B31820  42.370   8.735   8.253
 7361POPC   C3B31821  42.295   8.693   7.953
 7361POPC   C4B31822  42.343   8.721   7.653
 7362POPC   NC331823  32.995   7.459   9.453
 7362POPC   PO431824  33.038   7.470   9.153
 7362POPC   GL131825  33.011   7.455   8.853
 7362POPC   GL231826  32.947   7.498   8.853
 7362POPC   C1A31827  32.981   7.373   8.553
 7362POPC   D2A31828  33.023   7.442   8.253
 7362POPC   C3A31829  32.992   7.448   7.953
 7362POPC   C4A31830  33.001   7.428   7.653
 7362POPC   C1B31831  32.742   7.484   8.553
 7362POPC   C2B31832  32.779   7.542   8.253
 7362POPC   C3B31833  32.829   7.467   7.953
 7362POPC   C4B31834  32.786   7.531   7.653
 7363POPC   NC331835  28.386  11.304   9.453
 7363POPC   PO431836  28.339  11.270   9.153
 7363POPC   GL131837  28.401  11.259   8.853
 7363POPC   GL231838  28.469  11.372   8.853
 7363POPC   C1A31839  28.390  11.323   8.553
 7363POPC   D2A31840  28.337  11.311   8.253
 7363POPC   C3A31841  28.364  11.292   7.953
 7363POPC   C4A31842  28.397  11.279   7.653
 7363POPC   C1B31843  28.523  11.456   8.553
 7363POPC   C2B31844  28.574  11.406   8.253
 7363POPC   C3B31845  28.576  11.417   7.953
 7363POPC   C4B31846  28.569  11.447   7.653
 7364POPC   NC331847  19.883  40.049   9.453
 7364POPC   PO431848  19.860  39.961   9.153
 7364POPC   GL131849  19.847  40.025   8.853
 7364POPC   GL231850  19.702  39.970   8.853
 7364POPC   C1A31851  19.843  39.970   8.553
 7364POPC   D2A31852  19.843  40.016   8.253
 7364POPC   C3A31853  19.847  39.999   7.953
 7364POPC   C4A31854  19.854  40.014   7.653
 7364POPC   C1B31855  19.542  39.984   8.553
 7364POPC   C2B31856  19.570  39.951   8.253
 7364POPC   C3B31857  19.568  39.997   7.953
 7364POPC   C4B31858  19.563  40.040   7.653
 7365POPC   NC331859  19.017  38.425   9.453
 7365POPC   PO431860  19.051  38.460   9.153
 7365POPC   GL131861  19.074  38.502   8.853
 7365POPC   GL231862  18.997  38.393   8.853
 7365POPC   C1A31863  19.058  38.503   8.553
 7365POPC   D2A31864  19.061  38.437   8.253
 7365POPC   C3A31865  19.073  38.445   7.953
 7365POPC   C4A31866  19.055  38.483   7.653
 7365POPC   C1B31867  18.884  38.359   8.553
 7365POPC   C2B31868  18.856  38.374   8.253
 7365POPC   C3B31869  18.869  38.302   7.953
 7365POPC   C4B31870  18.816  38.294   7.653
 7366POPC   NC331871  29.178  19.057   9.453
 7366POPC   PO431872  29.115  19.013   9.153
 7366POPC   GL131873  29.173  19.027   8.853
 7366POPC   GL231874  29.271  19.157   8.853
 7366POPC   C1A31875  29.121  19.057   8.553
 7366POPC   D2A31876  29.137  19.047   8.253
 7366POPC   C3A31877  29.167  19.100   7.953
 7366POPC   C4A31878  29.116  19.014   7.653
 7366POPC   C1B31879  29.367  19.142   8.553
 7366POPC   C2B31880  29.399  19.173   8.253
 7366POPC   C3B31881  29.385  19.149   7.953
 7366POPC   C4B31882  29.402  19.148   7.653
 7367POPC   NC331883  19.100  10.558   9.453
 7367POPC   PO431884  19.049  10.479   9.153
 7367POPC   GL131885  19.033  10.554   8.853
 7367POPC   GL231886  19.062  10.684   8.853
 7367POPC   C1A31887  19.014  10.552   8.553
 7367POPC   D2A31888  19.082  10.563   8.253
 7367POPC   C3A31889  19.083  10.540   7.953
 7367POPC   C4A31890  19.070  10.488   7.653
 7367POPC   C1B31891  19.045  10.813   8.553
 7367POPC   C2B31892  19.049  10.763   8.253
 7367POPC   C3B31893  19.042  10.725   7.953
 7367POPC   C4B31894  19.049  10.772   7.653
 7368POPC   NC331895  43.927   1.941   9.453
 7368POPC   PO431896  43.844   2.005   9.153
 7368POPC   GL131897  43.875   1.989   8.853
 7368POPC   GL231898  44.012   1.940   8.853
 7368POPC   C1A31899  43.922   1.997   8.553
 7368POPC   D2A31900  43.841   1.960   8.253
 7368POPC   C3A31901  43.848   2.021   7.953
 7368POPC   C4A31902  43.862   1.977   7.653
 7368POPC   C1B31903  44.095   2.000   8.553
 7368POPC   C2B31904  44.124   1.912   8.253
 7368POPC   C3B31905  44.130   1.932   7.953
 7368POPC   C4B31906  44.163   1.965   7.653
 7369POPC   NC331907   9.776   5.840   9.453
 7369POPC   PO431908   9.792   5.894   9.153
 7369POPC   GL131909   9.705   5.837   8.853
 7369POPC   GL231910   9.751   5.796   8.853
 7369POPC   C1A31911   9.752   5.826   8.553
 7369POPC   D2A31912   9.797   5.844   8.253
 7369POPC   C3A31913   9.712   5.837   7.953
 7369POPC   C4A31914   9.727   5.827   7.653
 7369POPC   C1B31915   9.666   5.615   8.553
 7369POPC   C2B31916   9.722   5.636   8.253
 7369POPC   C3B31917   9.649   5.607   7.953
 7369POPC   C4B31918   9.707   5.577   7.653
 7370POPC   NC331919  34.585  34.571   9.453
 7370POPC   PO431920  34.563  34.622   9.153
 7370POPC   GL131921  34.556  34.602   8.853
 7370POPC   GL231922  34.664  34.419   8.853
 7370POPC   C1A31923  34.538  34.555   8.553
 7370POPC   D2A31924  34.527  34.535   8.253
 7370POPC   C3A31925  34.559  34.566   7.953
 7370POPC   C4A31926  34.559  34.530   7.653
 7370POPC   C1B31927  34.701  34.352   8.553
 7370POPC   C2B31928  34.686  34.315   8.253
 7370POPC   C3B31929  34.651  34.339   7.953
 7370POPC   C4B31930  34.675  34.326   7.653
 7371POPC   NC331931  33.847   7.469   9.453
 7371POPC   PO431932  33.830   7.400   9.153
 7371POPC   GL131933  33.820   7.456   8.853
 7371POPC   GL231934  33.811   7.279   8.853
 7371POPC   C1A31935  33.784   7.435   8.553
 7371POPC   D2A31936  33.791   7.421   8.253
 7371POPC   C3A31937  33.750   7.443   7.953
 7371POPC   C4A31938  33.844   7.444   7.653
 7371POPC   C1B31939  33.835   7.139   8.553
 7371POPC   C2B31940  33.802   7.194   8.253
 7371POPC   C3B31941  33.761   7.179   7.953
 7371POPC   C4B31942  33.776   7.175   7.653
 7372POPC   NC331943  24.455  35.364   9.453
 7372POPC   PO431944  24.520  35.338   9.153
 7372POPC   GL131945  24.443  35.343   8.853
 7372POPC   GL231946  24.470  35.218   8.853
 7372POPC   C1A31947  24.516  35.397   8.553
 7372POPC   D2A31948  24.506  35.390   8.253
 7372POPC   C3A31949  24.440  35.396   7.953
 7372POPC   C4A31950  24.455  35.340   7.653
 7372POPC   C1B31951  24.450  35.129   8.553
 7372POPC   C2B31952  24.490  35.068   8.253
 7372POPC   C3B31953  24.504  35.103   7.953
 7372POPC   C4B31954  24.518  35.145   7.653
 7373POPC   NC331955   7.420  11.312   9.453
 7373POPC   PO431956   7.449  11.256   9.153
 7373POPC   GL131957   7.406  11.329   8.853
 7373POPC   GL231958   7.557  11.306   8.853
 7373POPC   C1A31959   7.391  11.327   8.553
 7373POPC   D2A31960   7.415  11.328   8.253
 7373POPC   C3A31961   7.464  11.278   7.953
 7373POPC   C4A31962   7.375  11.277   7.653
 7373POPC   C1B31963   7.635  11.322   8.553
 7373POPC   C2B31964   7.658  11.265   8.253
 7373POPC   C3B31965   7.641  11.284   7.953
 7373POPC   C4B31966   7.635  11.298   7.653
 7374POPC   NC331967   3.582  15.142   9.453
 7374POPC   PO431968   3.543  15.192   9.153
 7374POPC   GL131969   3.498  15.220   8.853
 7374POPC   GL231970   3.575  15.033   8.853
 7374POPC   C1A31971   3.590  15.180   8.553
 7374POPC   D2A31972   3.520  15.204   8.253
 7374POPC   C3A31973   3.517  15.158   7.953
 7374POPC   C4A31974   3.576  15.189   7.653
 7374POPC   C1B31975   3.576  14.966   8.553
 7374POPC   C2B31976   3.546  14.970   8.253
 7374POPC   C3B31977   3.541  14.883   7.953
 7374POPC   C4B31978   3.566  14.971   7.653
 7375POPC   NC331979   6.646  22.137   9.453
 7375POPC   PO431980   6.601  22.191   9.153
 7375POPC   GL131981   6.644  22.126   8.853
 7375POPC   GL231982   6.479  22.146   8.853
 7375POPC   C1A31983   6.604  22.205   8.553
 7375POPC   D2A31984   6.671  22.165   8.253
 7375POPC   C3A31985   6.626  22.198   7.953
 7375POPC   C4A31986   6.647  22.154   7.653
 7375POPC   C1B31987   6.442  22.166   8.553
 7375POPC   C2B31988   6.429  22.187   8.253
 7375POPC   C3B31989   6.399  22.205   7.953
 7375POPC   C4B31990   6.398  22.216   7.653
 7376POPC   NC331991  22.207  34.561   9.453
 7376POPC   PO431992  22.122  34.529   9.153
 7376POPC   GL131993  22.200  34.595   8.853
 7376POPC   GL231994  22.115  34.477   8.853
 7376POPC   C1A31995  22.183  34.591   8.553
 7376POPC   D2A31996  22.212  34.586   8.253
 7376POPC   C3A31997  22.146  34.532   7.953
 7376POPC   C4A31998  22.158  34.562   7.653
 7376POPC   C1B31999  22.069  34.357   8.553
 7376POPC   C2B32000  22.045  34.361   8.253
 7376POPC   C3B32001  21.998  34.399   7.953
 7376POPC   C4B32002  22.027  34.322   7.653
 7377POPC   NC332003  33.809  12.814   9.453
 7377POPC   PO432004  33.821  12.842   9.153
 7377POPC   GL132005  33.786  12.856   8.853
 7377POPC   GL232006  33.877  12.917   8.853
 7377POPC   C1A32007  33.832  12.857   8.553
 7377POPC   D2A32008  33.800  12.864   8.253
 7377POPC   C3A32009  33.837  12.835   7.953
 7377POPC   C4A32010  33.764  12.847   7.653
 7377POPC   C1B32011  34.020  12.934   8.553
 7377POPC   C2B32012  34.065  12.931   8.253
 7377POPC   C3B32013  34.033  12.905   7.953
 7377POPC   C4B32014  34.037  12.962   7.653
 7378POPC   NC332015  43.062  36.135   9.453
 7378POPC   PO432016  43.121  36.086   9.153
 7378POPC   GL132017  43.129  36.131   8.853
 7378POPC   GL232018  43.122  36.010   8.853
 7378POPC   C1A32019  43.090  36.125   8.553
 7378POPC   D2A32020  43.089  36.092   8.253
 7378POPC   C3A32021  43.147  36.170   7.953
 7378POPC   C4A32022  43.067  36.174   7.653
 7378POPC   C1B32023  43.065  35.863   8.553
 7378POPC   C2B32024  43.014  35.906   8.253
 7378POPC   C3B32025  43.100  35.906   7.953
 7378POPC   C4B32026  43.028  35.840   7.653
 7379POPC   NC332027  44.619  36.936   9.453
 7379POPC   PO432028  44.710  36.932   9.153
 7379POPC   GL132029  44.631  36.905   8.853
 7379POPC   GL232030  44.539  36.965   8.853
 7379POPC   C1A32031  44.663  36.934   8.553
 7379POPC   D2A32032  44.677  36.897   8.253
 7379POPC   C3A32033  44.675  36.871   7.953
 7379POPC   C4A32034  44.683  36.942   7.653
 7379POPC   C1B32035  44.518  37.053   8.553
 7379POPC   C2B32036  44.449  37.126   8.253
 7379POPC   C3B32037  44.450  37.060   7.953
 7379POPC   C4B32038  44.504  37.096   7.653
 7380POPC   NC332039  27.636  10.502   9.453
 7380POPC   PO432040  27.609  10.495   9.153
 7380POPC   GL132041  27.605  10.520   8.853
 7380POPC   GL232042  27.493  10.592   8.853
 7380POPC   C1A32043  27.604  10.503   8.553
 7380POPC   D2A32044  27.616  10.535   8.253
 7380POPC   C3A32045  27.630  10.530   7.953
 7380POPC   C4A32046  27.556  10.529   7.653
 7380POPC   C1B32047  27.450  10.785   8.553
 7380POPC   C2B32048  27.471  10.745   8.253
 7380POPC   C3B32049  27.522  10.727   7.953
 7380POPC   C4B32050  27.451  10.713   7.653
 7381POPC   NC332051   8.198  22.907   9.453
 7381POPC   PO432052   8.213  22.977   9.153
 7381POPC   GL132053   8.168  22.948   8.853
 7381POPC   GL232054   8.141  23.067   8.853
 7381POPC   C1A32055   8.158  22.972   8.553
 7381POPC   D2A32056   8.238  22.957   8.253
 7381POPC   C3A32057   8.166  22.895   7.953
 7381POPC   C4A32058   8.210  22.889   7.653
 7381POPC   C1B32059   8.054  23.108   8.553
 7381POPC   C2B32060   8.023  23.074   8.253
 7381POPC   C3B32061   8.018  23.069   7.953
 7381POPC   C4B32062   8.048  23.129   7.653
 7382POPC   NC332063  27.577  22.949   9.453
 7382POPC   PO432064  27.636  22.935   9.153
 7382POPC   GL132065  27.628  22.938   8.853
 7382POPC   GL232066  27.620  22.821   8.853
 7382POPC   C1A32067  27.551  22.980   8.553
 7382POPC   D2A32068  27.575  22.947   8.253
 7382POPC   C3A32069  27.553  22.900   7.953
 7382POPC   C4A32070  27.546  22.901   7.653
 7382POPC   C1B32071  27.672  22.656   8.553
 7382POPC   C2B32072  27.609  22.708   8.253
 7382POPC   C3B32073  27.657  22.716   7.953
 7382POPC   C4B32074  27.635  22.730   7.653
 7383POPC   NC332075  16.730  19.057   9.453
 7383POPC   PO432076  16.746  19.030   9.153
 7383POPC   GL132077  16.765  19.087   8.853
 7383POPC   GL232078  16.700  19.214   8.853
 7383POPC   C1A32079  16.708  19.097   8.553
 7383POPC   D2A32080  16.726  19.032   8.253
 7383POPC   C3A32081  16.695  19.069   7.953
 7383POPC   C4A32082  16.695  19.030   7.653
 7383POPC   C1B32083  16.669  19.314   8.553
 7383POPC   C2B32084  16.736  19.349   8.253
 7383POPC   C3B32085  16.693  19.333   7.953
 7383POPC   C4B32086  16.708  19.311   7.653
 7384POPC   NC332087  28.406  21.390   9.453
 7384POPC   PO432088  28.365  21.427   9.153
 7384POPC   GL132089  28.387  21.406   8.853
 7384POPC   GL232090  28.295  21.283   8.853
 7384POPC   C1A32091  28.408  21.353   8.553
 7384POPC   D2A32092  28.394  21.406   8.253
 7384POPC   C3A32093  28.375  21.430   7.953
 7384POPC   C4A32094  28.415  21.375   7.653
 7384POPC   C1B32095  28.263  21.194   8.553
 7384POPC   C2B32096  28.275  21.173   8.253
 7384POPC   C3B32097  28.237  21.151   7.953
 7384POPC   C4B32098  28.249  21.173   7.653
 7385POPC   NC332099  35.387   6.636   9.453
 7385POPC   PO432100  35.364   6.660   9.153
 7385POPC   GL132101  35.332   6.651   8.853
 7385POPC   GL232102  35.279   6.763   8.853
 7385POPC   C1A32103  35.347   6.614   8.553
 7385POPC   D2A32104  35.346   6.656   8.253
 7385POPC   C3A32105  35.377   6.632   7.953
 7385POPC   C4A32106  35.392   6.619   7.653
 7385POPC   C1B32107  35.268   6.834   8.553
 7385POPC   C2B32108  35.250   6.872   8.253
 7385POPC   C3B32109  35.282   6.840   7.953
 7385POPC   C4B32110  35.191   6.895   7.653
 7386POPC   NC332111  10.564  12.857   9.453
 7386POPC   PO432112  10.544  12.893   9.153
 7386POPC   GL132113  10.515  12.814   8.853
 7386POPC   GL232114  10.413  12.932   8.853
 7386POPC   C1A32115  10.551  12.880   8.553
 7386POPC   D2A32116  10.542  12.822   8.253
 7386POPC   C3A32117  10.516  12.895   7.953
 7386POPC   C4A32118  10.502  12.846   7.653
 7386POPC   C1B32119  10.312  13.002   8.553
 7386POPC   C2B32120  10.358  12.982   8.253
 7386POPC   C3B32121  10.283  13.038   7.953
 7386POPC   C4B32122  10.284  13.036   7.653
 7387POPC   NC332123  42.346   1.257   9.453
 7387POPC   PO432124  42.292   1.176   9.153
 7387POPC   GL132125  42.289   1.263   8.853
 7387POPC   GL232126  42.249   1.315   8.853
 7387POPC   C1A32127  42.372   1.180   8.553
 7387POPC   D2A32128  42.344   1.190   8.253
 7387POPC   C3A32129  42.301   1.259   7.953
 7387POPC   C4A32130  42.381   1.213   7.653
 7387POPC   C1B32131  42.237   1.480   8.553
 7387POPC   C2B32132  42.258   1.405   8.253
 7387POPC   C3B32133  42.184   1.469   7.953
 7387POPC   C4B32134  42.246   1.443   7.653
 7388POPC   NC332135   8.201  15.208   9.453
 7388POPC   PO432136   8.151  15.227   9.153
 7388POPC   GL132137   8.217  15.188   8.853
 7388POPC   GL232138   8.270  15.149   8.853
 7388POPC   C1A32139   8.229  15.212   8.553
 7388POPC   D2A32140   8.219  15.191   8.253
 7388POPC   C3A32141   8.234  15.131   7.953
 7388POPC   C4A32142   8.214  15.220   7.653
 7388POPC   C1B32143   8.431  15.141   8.553
 7388POPC   C2B32144   8.458  15.132   8.253
 7388POPC   C3B32145   8.395  15.098   7.953
 7388POPC   C4B32146   8.475  15.055   7.653
 7389POPC   NC332147  42.337  35.390   9.453
 7389POPC   PO432148  42.351  35.377   9.153
 7389POPC   GL132149  42.312  35.317   8.853
 7389POPC   GL232150  42.460  35.228   8.853
 7389POPC   C1A32151  42.379  35.358   8.553
 7389POPC   D2A32152  42.315  35.394   8.253
 7389POPC   C3A32153  42.374  35.382   7.953
 7389POPC   C4A32154  42.370  35.320   7.653
 7389POPC   C1B32155  42.492  35.188   8.553
 7389POPC   C2B32156  42.505  35.165   8.253
 7389POPC   C3B32157  42.506  35.141   7.953
 7389POPC   C4B32158  42.554  35.161   7.653
 7390POPC   NC332159   2.751  23.741   9.453
 7390POPC   PO432160   2.741  23.715   9.153
 7390POPC   GL132161   2.749  23.669   8.853
 7390POPC   GL232162   2.909  23.651   8.853
 7390POPC   C1A32163   2.730  23.665   8.553
 7390POPC   D2A32164   2.719  23.682   8.253
 7390POPC   C3A32165   2.745  23.748   7.953
 7390POPC   C4A32166   2.778  23.734   7.653
 7390POPC   C1B32167   3.030  23.644   8.553
 7390POPC   C2B32168   2.972  23.648   8.253
 7390POPC   C3B32169   2.976  23.590   7.953
 7390POPC   C4B32170   2.997  23.568   7.653
 7391POPC   NC332171  28.342  26.857   9.453
 7391POPC   PO432172  28.407  26.778   9.153
 7391POPC   GL132173  28.402  26.826   8.853
 7391POPC   GL232174  28.257  26.762   8.853
 7391POPC   C1A32175  28.329  26.770   8.553
 7391POPC   D2A32176  28.415  26.829   8.253
 7391POPC   C3A32177  28.407  26.787   7.953
 7391POPC   C4A32178  28.322  26.796   7.653
 7391POPC   C1B32179  28.102  26.709   8.553
 7391POPC   C2B32180  28.107  26.692   8.253
 7391POPC   C3B32181  28.147  26.690   7.953
 7391POPC   C4B32182  28.128  26.753   7.653
 7392POPC   NC332183  21.350  12.072   9.453
 7392POPC   PO432184  21.377  12.035   9.153
 7392POPC   GL132185  21.433  12.059   8.853
 7392POPC   GL232186  21.304  12.138   8.853
 7392POPC   C1A32187  21.370  12.052   8.553
 7392POPC   D2A32188  21.417  12.045   8.253
 7392POPC   C3A32189  21.417  12.088   7.953
 7392POPC   C4A32190  21.339  12.059   7.653
 7392POPC   C1B32191  21.205  12.228   8.553
 7392POPC   C2B32192  21.217  12.205   8.253
 7392POPC   C3B32193  21.191  12.273   7.953
 7392POPC   C4B32194  21.231  12.254   7.653
 7393POPC   NC332195  18.254  14.387   9.453
 7393POPC   PO432196  18.233  14.385   9.153
 7393POPC   GL132197  18.236  14.377   8.853
 7393POPC   GL232198  18.199  14.393   8.853
 7393POPC   C1A32199  18.318  14.448   8.553
 7393POPC   D2A32200  18.296  14.428   8.253
 7393POPC   C3A32201  18.323  14.442   7.953
 7393POPC   C4A32202  18.256  14.401   7.653
 7393POPC   C1B32203  18.047  14.475   8.553
 7393POPC   C2B32204  18.026  14.407   8.253
 7393POPC   C3B32205  18.050  14.497   7.953
 7393POPC   C4B32206  18.062  14.488   7.653
 7394POPC   NC332207  22.161  29.944   9.453
 7394POPC   PO432208  22.137  29.894   9.153
 7394POPC   GL132209  22.166  29.875   8.853
 7394POPC   GL232210  22.242  30.018   8.853
 7394POPC   C1A32211  22.127  29.955   8.553
 7394POPC   D2A32212  22.138  29.910   8.253
 7394POPC   C3A32213  22.160  29.961   7.953
 7394POPC   C4A32214  22.134  29.878   7.653
 7394POPC   C1B32215  22.410  30.009   8.553
 7394POPC   C2B32216  22.392  30.048   8.253
 7394POPC   C3B32217  22.362  30.013   7.953
 7394POPC   C4B32218  22.371  30.078   7.653
 7395POPC   NC332219   5.824   4.277   9.453
 7395POPC   PO432220   5.906   4.367   9.153
 7395POPC   GL132221   5.827   4.314   8.853
 7395POPC   GL232222   5.874   4.472   8.853
 7395POPC   C1A32223   5.893   4.350   8.553
 7395POPC   D2A32224   5.848   4.347   8.253
 7395POPC   C3A32225   5.875   4.338   7.953
 7395POPC   C4A32226   5.887   4.345   7.653
 7395POPC   C1B32227   5.929   4.607   8.553
 7395POPC   C2B32228   5.893   4.578   8.253
 7395POPC   C3B32229   5.879   4.609   7.953
 7395POPC   C4B32230   5.920   4.590   7.653
 7396POPC   NC332231  20.624  43.103   9.453
 7396POPC   PO432232  20.621  43.071   9.153
 7396POPC   GL132233  20.621  43.140   8.853
 7396POPC   GL232234  20.513  43.136   8.853
 7396POPC   C1A32235  20.604  43.062   8.553
 7396POPC   D2A32236  20.572  43.136   8.253
 7396POPC   C3A32237  20.565  43.101   7.953
 7396POPC   C4A32238  20.627  43.061   7.653
 7396POPC   C1B32239  20.372  43.124   8.553
 7396POPC   C2B32240  20.405  43.172   8.253
 7396POPC   C3B32241  20.383  43.133   7.953
 7396POPC   C4B32242  20.367  43.085   7.653
 7397POPC   NC332243  33.826   6.677   9.453
 7397POPC   PO432244  33.808   6.622   9.153
 7397POPC   GL132245  33.821   6.651   8.853
 7397POPC   GL232246  33.909   6.631   8.853
 7397POPC   C1A32247  33.826   6.643   8.553
 7397POPC   D2A32248  33.759   6.650   8.253
 7397POPC   C3A32249  33.767   6.625   7.953
 7397POPC   C4A32250  33.808   6.616   7.653
 7397POPC   C1B32251  34.044   6.533   8.553
 7397POPC   C2B32252  34.001   6.524   8.253
 7397POPC   C3B32253  33.989   6.570   7.953
 7397POPC   C4B32254  33.991   6.521   7.653
 7398POPC   NC332255  36.123  37.715   9.453
 7398POPC   PO432256  36.104  37.673   9.153
 7398POPC   GL132257  36.150  37.708   8.853
 7398POPC   GL232258  36.248  37.692   8.853
 7398POPC   C1A32259  36.083  37.636   8.553
 7398POPC   D2A32260  36.110  37.674   8.253
 7398POPC   C3A32261  36.152  37.688   7.953
 7398POPC   C4A32262  36.114  37.689   7.653
 7398POPC   C1B32263  36.336  37.677   8.553
 7398POPC   C2B32264  36.408  37.629   8.253
 7398POPC   C3B32265  36.405  37.697   7.953
 7398POPC   C4B32266  36.360  37.656   7.653
 7399POPC   NC332267  35.341  40.795   9.453
 7399POPC   PO432268  35.357  40.821   9.153
 7399POPC   GL132269  35.312  40.792   8.853
 7399POPC   GL232270  35.332  40.876   8.853
 7399POPC   C1A32271  35.329  40.780   8.553
 7399POPC   D2A32272  35.391  40.817   8.253
 7399POPC   C3A32273  35.337  40.813   7.953
 7399POPC   C4A32274  35.362  40.784   7.653
 7399POPC   C1B32275  35.403  41.005   8.553
 7399POPC   C2B32276  35.373  41.062   8.253
 7399POPC   C3B32277  35.399  41.067   7.953
 7399POPC   C4B32278  35.355  40.982   7.653
 7400POPC   NC332279  22.197  32.201   9.453
 7400POPC   PO432280  22.209  32.280   9.153
 7400POPC   GL132281  22.121  32.211   8.853
 7400POPC   GL232282  22.246  32.377   8.853
 7400POPC   C1A32283  22.150  32.226   8.553
 7400POPC   D2A32284  22.163  32.241   8.253
 7400POPC   C3A32285  22.157  32.218   7.953
 7400POPC   C4A32286  22.205  32.229   7.653
 7400POPC   C1B32287  22.335  32.410   8.553
 7400POPC   C2B32288  22.323  32.477   8.253
 7400POPC   C3B32289  22.379  32.477   7.953
 7400POPC   C4B32290  22.297  32.390   7.653
 7401POPC   NC332291  27.592  32.243   9.453
 7401POPC   PO432292  27.624  32.287   9.153
 7401POPC   GL132293  27.577  32.281   8.853
 7401POPC   GL232294  27.758  32.242   8.853
 7401POPC   C1A32295  27.596  32.247   8.553
 7401POPC   D2A32296  27.595  32.235   8.253
 7401POPC   C3A32297  27.555  32.258   7.953
 7401POPC   C4A32298  27.546  32.274   7.653
 7401POPC   C1B32299  27.796  32.162   8.553
 7401POPC   C2B32300  27.816  32.164   8.253
 7401POPC   C3B32301  27.831  32.235   7.953
 7401POPC   C4B32302  27.844  32.171   7.653
 7402POPC   NC332303  18.270  15.226   9.453
 7402POPC   PO432304  18.313  15.152   9.153
 7402POPC   GL132305  18.321  15.224   8.853
 7402POPC   GL232306  18.371  15.286   8.853
 7402POPC   C1A32307  18.320  15.134   8.553
 7402POPC   D2A32308  18.322  15.176   8.253
 7402POPC   C3A32309  18.234  15.131   7.953
 7402POPC   C4A32310  18.260  15.177   7.653
 7402POPC   C1B32311  18.437  15.361   8.553
 7402POPC   C2B32312  18.422  15.334   8.253
 7402POPC   C3B32313  18.511  15.364   7.953
 7402POPC   C4B32314  18.486  15.341   7.653
 7403POPC   NC332315  20.653  30.700   9.453
 7403POPC   PO432316  20.562  30.673   9.153
 7403POPC   GL132317  20.600  30.698   8.853
 7403POPC   GL232318  20.653  30.865   8.853
 7403POPC   C1A32319  20.637  30.729   8.553
 7403POPC   D2A32320  20.569  30.668   8.253
 7403POPC   C3A32321  20.570  30.660   7.953
 7403POPC   C4A32322  20.583  30.735   7.653
 7403POPC   C1B32323  20.641  30.986   8.553
 7403POPC   C2B32324  20.728  30.936   8.253
 7403POPC   C3B32325  20.655  30.895   7.953
 7403POPC   C4B32326  20.646  30.919   7.653
 7404POPC   NC332327  44.703  43.093   9.453
 7404POPC   PO432328  44.620  43.091   9.153
 7404POPC   GL132329  44.687  43.158   8.853
 7404POPC   GL232330  44.792  43.160   8.853
 7404POPC   C1A32331  44.640  43.120   8.553
 7404POPC   D2A32332  44.668  43.110   8.253
 7404POPC   C3A32333  44.677  43.117   7.953
 7404POPC   C4A32334  44.698  43.158   7.653
 7404POPC   C1B32335  44.899  43.157   8.553
 7404POPC   C2B32336  44.876  43.174   8.253
 7404POPC   C3B32337  44.890  43.128   7.953
 7404POPC   C4B32338  44.922  43.168   7.653
 7405POPC   NC332339  31.461  29.890   9.453
 7405POPC   PO432340  31.445  29.889   9.153
 7405POPC   GL132341  31.429  29.922   8.853
 7405POPC   GL232342  31.410  29.997   8.853
 7405POPC   C1A32343  31.442  29.960   8.553
 7405POPC   D2A32344  31.425  29.899   8.253
 7405POPC   C3A32345  31.460  29.960   7.953
 7405POPC   C4A32346  31.451  29.963   7.653
 7405POPC   C1B32347  31.260  30.068   8.553
 7405POPC   C2B32348  31.303  30.061   8.253
 7405POPC   C3B32349  31.239  30.054   7.953
 7405POPC   C4B32350  31.271  30.084   7.653
 7406POPC   NC332351  37.726  35.349   9.453
 7406POPC   PO432352  37.632  35.389   9.153
 7406POPC   GL132353  37.651  35.365   8.853
 7406POPC   GL232354  37.590  35.237   8.853
 7406POPC   C1A32355  37.693  35.397   8.553
 7406POPC   D2A32356  37.639  35.317   8.253
 7406POPC   C3A32357  37.667  35.335   7.953
 7406POPC   C4A32358  37.663  35.370   7.653
 7406POPC   C1B32359  37.529  35.085   8.553
 7406POPC   C2B32360  37.571  35.131   8.253
 7406POPC   C3B32361  37.573  35.088   7.953
 7406POPC   C4B32362  37.600  35.101   7.653
 7407POPC   NC332363  37.660  11.315   9.453
 7407POPC   PO432364  37.684  11.287   9.153
 7407POPC   GL132365  37.701  11.264   8.853
 7407POPC   GL232366  37.550  11.174   8.853
 7407POPC   C1A32367  37.631  11.323   8.553
 7407POPC   D2A32368  37.654  11.280   8.253
 7407POPC   C3A32369  37.711  11.286   7.953
 7407POPC   C4A32370  37.633  11.265   7.653
 7407POPC   C1B32371  37.489  11.166   8.553
 7407POPC   C2B32372  37.437  11.113   8.253
 7407POPC   C3B32373  37.439  11.132   7.953
 7407POPC   C4B32374  37.471  11.142   7.653
 7408POPC   NC332375  33.800  21.358   9.453
 7408POPC   PO432376  33.845  21.347   9.153
 7408POPC   GL132377  33.778  21.368   8.853
 7408POPC   GL232378  33.673  21.396   8.853
 7408POPC   C1A32379  33.752  21.421   8.553
 7408POPC   D2A32380  33.780  21.364   8.253
 7408POPC   C3A32381  33.803  21.425   7.953
 7408POPC   C4A32382  33.805  21.407   7.653
 7408POPC   C1B32383  33.598  21.508   8.553
 7408POPC   C2B32384  33.526  21.435   8.253
 7408POPC   C3B32385  33.529  21.513   7.953
 7408POPC   C4B32386  33.530  21.473   7.653
 7409POPC   NC332387  33.005   8.971   9.453
 7409POPC   PO432388  32.998   8.984   9.153
 7409POPC   GL132389  33.049   8.986   8.853
 7409POPC   GL232390  33.092   8.844   8.853
 7409POPC   C1A32391  33.016   8.959   8.553
 7409POPC   D2A32392  33.055   8.992   8.253
 7409POPC   C3A32393  33.001   8.989   7.953
 7409POPC   C4A32394  32.979   8.926   7.653
 7409POPC   C1B32395  33.082   8.775   8.553
 7409POPC   C2B32396  33.078   8.765   8.253
 7409POPC   C3B32397  33.052   8.751   7.953
 7409POPC   C4B32398  33.122   8.724   7.653
 7410POPC   NC332399  43.837  22.948   9.453
 7410POPC   PO432400  43.878  22.973   9.153
 7410POPC   GL132401  43.918  22.923   8.853
 7410POPC   GL232402  43.884  22.768   8.853
 7410POPC   C1A32403  43.837  22.890   8.553
 7410POPC   D2A32404  43.932  22.936   8.253
 7410POPC   C3A32405  43.842  22.983   7.953
 7410POPC   C4A32406  43.911  22.925   7.653
 7410POPC   C1B32407  43.951  22.644   8.553
 7410POPC   C2B32408  43.929  22.677   8.253
 7410POPC   C3B32409  43.909  22.683   7.953
 7410POPC   C4B32410  43.862  22.723   7.653
 7411POPC   NC332411  19.806  30.723   9.453
 7411POPC   PO432412  19.787  30.721   9.153
 7411POPC   GL132413  19.813  30.647   8.853
 7411POPC   GL232414  19.914  30.728   8.853
 7411POPC   C1A32415  19.794  30.686   8.553
 7411POPC   D2A32416  19.854  30.706   8.253
 7411POPC   C3A32417  19.841  30.690   7.953
 7411POPC   C4A32418  19.866  30.722   7.653
 7411POPC   C1B32419  20.042  30.739   8.553
 7411POPC   C2B32420  20.035  30.738   8.253
 7411POPC   C3B32421  20.050  30.726   7.953
 7411POPC   C4B32422  20.081  30.749   7.653
 7412POPC   NC332423   9.705  22.974   9.453
 7412POPC   PO432424   9.723  22.903   9.153
 7412POPC   GL132425   9.727  22.927   8.853
 7412POPC   GL232426   9.680  23.035   8.853
 7412POPC   C1A32427   9.720  22.939   8.553
 7412POPC   D2A32428   9.705  22.954   8.253
 7412POPC   C3A32429   9.759  22.979   7.953
 7412POPC   C4A32430   9.767  22.956   7.653
 7412POPC   C1B32431   9.673  23.152   8.553
 7412POPC   C2B32432   9.728  23.214   8.253
 7412POPC   C3B32433   9.700  23.222   7.953
 7412POPC   C4B32434   9.679  23.147   7.653
 7413POPC   NC332435  29.876  10.524   9.453
 7413POPC   PO432436  29.948  10.529   9.153
 7413POPC   GL132437  29.924  10.476   8.853
 7413POPC   GL232438  29.845  10.442   8.853
 7413POPC   C1A32439  29.897  10.549   8.553
 7413POPC   D2A32440  29.915  10.553   8.253
 7413POPC   C3A32441  29.895  10.534   7.953
 7413POPC   C4A32442  29.900  10.552   7.653
 7413POPC   C1B32443  29.782  10.300   8.553
 7413POPC   C2B32444  29.773  10.367   8.253
 7413POPC   C3B32445  29.728  10.339   7.953
 7413POPC   C4B32446  29.751  10.292   7.653
 7414POPC   NC332447  20.623  42.286   9.453
 7414POPC   PO432448  20.609  42.371   9.153
 7414POPC   GL132449  20.650  42.358   8.853
 7414POPC   GL232450  20.506  42.335   8.853
 7414POPC   C1A32451  20.582  42.350   8.553
 7414POPC   D2A32452  20.621  42.379   8.253
 7414POPC   C3A32453  20.629  42.371   7.953
 7414POPC   C4A32454  20.632  42.373   7.653
 7414POPC   C1B32455  20.395  42.319   8.553
 7414POPC   C2B32456  20.368  42.327   8.253
 7414POPC   C3B32457  20.373  42.301   7.953
 7414POPC   C4B32458  20.330  42.258   7.653
 7415POPC   NC332459  39.243  31.451   9.453
 7415POPC   PO432460  39.229  31.447   9.153
 7415POPC   GL132461  39.250  31.462   8.853
 7415POPC   GL232462  39.079  31.551   8.853
 7415POPC   C1A32463  39.241  31.501   8.553
 7415POPC   D2A32464  39.259  31.436   8.253
 7415POPC   C3A32465  39.260  31.487   7.953
 7415POPC   C4A32466  39.186  31.478   7.653
 7415POPC   C1B32467  39.044  31.567   8.553
 7415POPC   C2B32468  38.957  31.567   8.253
 7415POPC   C3B32469  39.040  31.606   7.953
 7415POPC   C4B32470  38.958  31.525   7.653
 7416POPC   NC332471   5.128   0.411   9.453
 7416POPC   PO432472   5.097   0.420   9.153
 7416POPC   GL132473   5.143   0.392   8.853
 7416POPC   GL232474   5.189   0.312   8.853
 7416POPC   C1A32475   5.049   0.448   8.553
 7416POPC   D2A32476   5.073   0.453   8.253
 7416POPC   C3A32477   5.113   0.389   7.953
 7416POPC   C4A32478   5.110   0.446   7.653
 7416POPC   C1B32479   5.239   0.222   8.553
 7416POPC   C2B32480   5.205   0.259   8.253
 7416POPC   C3B32481   5.226   0.229   7.953
 7416POPC   C4B32482   5.239   0.235   7.653
 7417POPC   NC332483  26.060  12.880   9.453
 7417POPC   PO432484  26.051  12.821   9.153
 7417POPC   GL132485  26.047  12.856   8.853
 7417POPC   GL232486  26.058  12.731   8.853
 7417POPC   C1A32487  26.069  12.889   8.553
 7417POPC   D2A32488  26.059  12.862   8.253
 7417POPC   C3A32489  26.011  12.866   7.953
 7417POPC   C4A32490  26.038  12.812   7.653
 7417POPC   C1B32491  26.054  12.554   8.553
 7417POPC   C2B32492  26.014  12.554   8.253
 7417POPC   C3B32493  26.032  12.562   7.953
 7417POPC   C4B32494  26.067  12.575   7.653
 7418POPC   NC332495   4.327  20.573   9.453
 7418POPC   PO432496   4.294  20.588   9.153
 7418POPC   GL132497   4.346  20.584   8.853
 7418POPC   GL232498   4.214  20.611   8.853
 7418POPC   C1A32499   4.343  20.598   8.553
 7418POPC   D2A32500   4.299  20.586   8.253
 7418POPC   C3A32501   4.285  20.598   7.953
 7418POPC   C4A32502   4.320  20.617   7.653
 7418POPC   C1B32503   4.121  20.480   8.553
 7418POPC   C2B32504   4.083  20.573   8.253
 7418POPC   C3B32505   4.044  20.483   7.953
 7418POPC   C4B32506   4.131  20.503   7.653
 7419POPC   NC332507  17.497  39.267   9.453
 7419POPC   PO432508  17.540  39.255   9.153
 7419POPC   GL132509  17.490  39.238   8.853
 7419POPC   GL232510  17.593  39.210   8.853
 7419POPC   C1A32511  17.519  39.181   8.553
 7419POPC   D2A32512  17.466  39.219   8.253
 7419POPC   C3A32513  17.541  39.217   7.953
 7419POPC   C4A32514  17.483  39.278   7.653
 7419POPC   C1B32515  17.723  39.066   8.553
 7419POPC   C2B32516  17.734  39.086   8.253
 7419POPC   C3B32517  17.710  39.051   7.953
 7419POPC   C4B32518  17.698  39.054   7.653
 7420POPC   NC332519   6.688   1.187   9.453
 7420POPC   PO432520   6.644   1.252   9.153
 7420POPC   GL132521   6.650   1.204   8.853
 7420POPC   GL232522   6.510   1.303   8.853
 7420POPC   C1A32523   6.650   1.208   8.553
 7420POPC   D2A32524   6.674   1.186   8.253
 7420POPC   C3A32525   6.604   1.176   7.953
 7420POPC   C4A32526   6.684   1.198   7.653
 7420POPC   C1B32527   6.395   1.383   8.553
 7420POPC   C2B32528   6.466   1.335   8.253
 7420POPC   C3B32529   6.459   1.373   7.953
 7420POPC   C4B32530   6.483   1.385   7.653
 7421POPC   NC332531  33.849  15.133   9.453
 7421POPC   PO432532  33.787  15.197   9.153
 7421POPC   GL132533  33.807  15.186   8.853
 7421POPC   GL232534  33.813  15.281   8.853
 7421POPC   C1A32535  33.824  15.206   8.553
 7421POPC   D2A32536  33.775  15.168   8.253
 7421POPC   C3A32537  33.829  15.208   7.953
 7421POPC   C4A32538  33.821  15.157   7.653
 7421POPC   C1B32539  33.886  15.415   8.553
 7421POPC   C2B32540  33.843  15.389   8.253
 7421POPC   C3B32541  33.866  15.394   7.953
 7421POPC   C4B32542  33.847  15.448   7.653
 7422POPC   NC332543   5.065  24.517   9.453
 7422POPC   PO432544   5.081  24.493   9.153
 7422POPC   GL132545   5.109  24.534   8.853
 7422POPC   GL232546   5.163  24.403   8.853
 7422POPC   C1A32547   5.095  24.455   8.553
 7422POPC   D2A32548   5.073  24.468   8.253
 7422POPC   C3A32549   5.065  24.471   7.953
 7422POPC   C4A32550   5.044  24.533   7.653
 7422POPC   C1B32551   5.211  24.318   8.553
 7422POPC   C2B32552   5.272  24.332   8.253
 7422POPC   C3B32553   5.211  24.253   7.953
 7422POPC   C4B32554   5.280  24.318   7.653
 7423POPC   NC332555   6.654  36.898   9.453
 7423POPC   PO432556   6.691  36.860   9.153
 7423POPC   GL132557   6.656  36.858   8.853
 7423POPC   GL232558   6.567  36.829   8.853
 7423POPC   C1A32559   6.670  36.929   8.553
 7423POPC   D2A32560   6.616  36.936   8.253
 7423POPC   C3A32561   6.637  36.904   7.953
 7423POPC   C4A32562   6.611  36.950   7.653
 7423POPC   C1B32563   6.514  36.727   8.553
 7423POPC   C2B32564   6.483  36.713   8.253
 7423POPC   C3B32565   6.508  36.743   7.953
 7423POPC   C4B32566   6.521  36.743   7.653
 7424POPC   NC332567   0.427  43.900   9.453
 7424POPC   PO432568   0.447  43.846   9.153
 7424POPC   GL132569   0.428  43.911   8.853
 7424POPC   GL232570   0.295  43.992   8.853
 7424POPC   C1A32571   0.404  43.871   8.553
 7424POPC   D2A32572   0.445  43.930   8.253
 7424POPC   C3A32573   0.436  43.874   7.953
 7424POPC   C4A32574   0.427  43.850   7.653
 7424POPC   C1B32575   0.213  44.033   8.553
 7424POPC   C2B32576   0.194  44.028   8.253
 7424POPC   C3B32577   0.260  44.013   7.953
 7424POPC   C4B32578   0.275  44.015   7.653
 7425POPC   NC332579  38.490  44.613   9.453
 7425POPC   PO432580  38.451  44.632   9.153
 7425POPC   GL132581  38.473  44.651   8.853
 7425POPC   GL232582  38.318  44.704   8.853
 7425POPC   C1A32583  38.500  44.711   8.553
 7425POPC   D2A32584  38.502  44.637   8.253
 7425POPC   C3A32585  38.449  44.706   7.953
 7425POPC   C4A32586  38.435  44.706   7.653
 7425POPC   C1B32587  38.204  44.692   8.553
 7425POPC   C2B32588  38.227  44.686   8.253
 7425POPC   C3B32589  38.221  44.717   7.953
 7425POPC   C4B32590  38.204  44.728   7.653
 7426POPC   NC332591  34.581  41.592   9.453
 7426POPC   PO432592  34.555  41.510   9.153
 7426POPC   GL132593  34.539  41.522   8.853
 7426POPC   GL232594  34.706  41.675   8.853
 7426POPC   C1A32595  34.598  41.544   8.553
 7426POPC   D2A32596  34.548  41.580   8.253
 7426POPC   C3A32597  34.570  41.525   7.953
 7426POPC   C4A32598  34.601  41.560   7.653
 7426POPC   C1B32599  34.787  41.683   8.553
 7426POPC   C2B32600  34.802  41.755   8.253
 7426POPC   C3B32601  34.740  41.739   7.953
 7426POPC   C4B32602  34.786  41.703   7.653
 7427POPC   NC332603  27.638  34.604   9.453
 7427POPC   PO432604  27.583  34.602   9.153
 7427POPC   GL132605  27.545  34.531   8.853
 7427POPC   GL232606  27.530  34.670   8.853
 7427POPC   C1A32607  27.590  34.603   8.553
 7427POPC   D2A32608  27.600  34.625   8.253
 7427POPC   C3A32609  27.585  34.609   7.953
 7427POPC   C4A32610  27.608  34.529   7.653
 7427POPC   C1B32611  27.402  34.799   8.553
 7427POPC   C2B32612  27.448  34.767   8.253
 7427POPC   C3B32613  27.451  34.809   7.953
 7427POPC   C4B32614  27.431  34.815   7.653
 7428POPC   NC332615  15.143  21.418   9.453
 7428POPC   PO432616  15.139  21.365   9.153
 7428POPC   GL132617  15.159  21.369   8.853
 7428POPC   GL232618  15.081  21.524   8.853
 7428POPC   C1A32619  15.202  21.400   8.553
 7428POPC   D2A32620  15.163  21.350   8.253
 7428POPC   C3A32621  15.145  21.393   7.953
 7428POPC   C4A32622  15.142  21.417   7.653
 7428POPC   C1B32623  15.072  21.636   8.553
 7428POPC   C2B32624  15.037  21.646   8.253
 7428POPC   C3B32625  15.050  21.572   7.953
 7428POPC   C4B32626  15.080  21.590   7.653
 7429POPC   NC332627  19.021  15.179   9.453
 7429POPC   PO432628  19.039  15.223   9.153
 7429POPC   GL132629  19.071  15.213   8.853
 7429POPC   GL232630  19.192  15.187   8.853
 7429POPC   C1A32631  19.038  15.171   8.553
 7429POPC   D2A32632  19.097  15.156   8.253
 7429POPC   C3A32633  19.084  15.176   7.953
 7429POPC   C4A32634  19.038  15.145   7.653
 7429POPC   C1B32635  19.324  15.062   8.553
 7429POPC   C2B32636  19.262  15.103   8.253
 7429POPC   C3B32637  19.336  15.075   7.953
 7429POPC   C4B32638  19.272  15.065   7.653
 7430POPC   NC332639  15.187  15.976   9.453
 7430POPC   PO432640  15.150  15.979   9.153
 7430POPC   GL132641  15.221  15.929   8.853
 7430POPC   GL232642  15.020  15.917   8.853
 7430POPC   C1A32643  15.215  15.978   8.553
 7430POPC   D2A32644  15.146  15.930   8.253
 7430POPC   C3A32645  15.184  15.994   7.953
 7430POPC   C4A32646  15.227  15.945   7.653
 7430POPC   C1B32647  14.977  15.919   8.553
 7430POPC   C2B32648  14.958  15.912   8.253
 7430POPC   C3B32649  14.923  15.866   7.953
 7430POPC   C4B32650  14.952  15.922   7.653
 7431POPC   NC332651  44.640   5.095   9.453
 7431POPC   PO432652  44.640   5.127   9.153
 7431POPC   GL132653  44.633   5.134   8.853
 7431POPC   GL232654  44.713   5.144   8.853
 7431POPC   C1A32655  44.709   5.084   8.553
 7431POPC   D2A32656  44.648   5.119   8.253
 7431POPC   C3A32657  44.640   5.124   7.953
 7431POPC   C4A32658  44.629   5.071   7.653
 7431POPC   C1B32659  44.839   5.271   8.553
 7431POPC   C2B32660  44.795   5.338   8.253
 7431POPC   C3B32661  44.835   5.284   7.953
 7431POPC   C4B32662  44.862   5.319   7.653
 7432POPC   NC332663  22.949  19.054   9.453
 7432POPC   PO432664  22.912  19.073   9.153
 7432POPC   GL132665  22.892  19.074   8.853
 7432POPC   GL232666  22.985  19.121   8.853
 7432POPC   C1A32667  22.936  19.107   8.553
 7432POPC   D2A32668  22.988  19.016   8.253
 7432POPC   C3A32669  22.922  19.016   7.953
 7432POPC   C4A32670  22.956  19.057   7.653
 7432POPC   C1B32671  23.116  19.301   8.553
 7432POPC   C2B32672  23.100  19.253   8.253
 7432POPC   C3B32673  23.074  19.260   7.953
 7432POPC   C4B32674  23.040  19.224   7.653
 7433POPC   NC332675  43.907  41.598   9.453
 7433POPC   PO432676  43.923  41.517   9.153
 7433POPC   GL132677  43.853  41.597   8.853
 7433POPC   GL232678  43.924  41.661   8.853
 7433POPC   C1A32679  43.862  41.561   8.553
 7433POPC   D2A32680  43.888  41.587   8.253
 7433POPC   C3A32681  43.924  41.579   7.953
 7433POPC   C4A32682  43.861  41.597   7.653
 7433POPC   C1B32683  43.902  41.838   8.553
 7433POPC   C2B32684  43.940  41.858   8.253
 7433POPC   C3B32685  43.865  41.791   7.953
 7433POPC   C4B32686  43.917  41.829   7.653
 7434POPC   NC332687  36.908  33.842   9.453
 7434POPC   PO432688  36.879  33.814   9.153
 7434POPC   GL132689  36.882  33.754   8.853
 7434POPC   GL232690  36.789  33.714   8.853
 7434POPC   C1A32691  36.907  33.821   8.553
 7434POPC   D2A32692  36.907  33.837   8.253
 7434POPC   C3A32693  36.901  33.816   7.953
 7434POPC   C4A32694  36.946  33.809   7.653
 7434POPC   C1B32695  36.805  33.547   8.553
 7434POPC   C2B32696  36.793  33.582   8.253
 7434POPC   C3B32697  36.803  33.584   7.953
 7434POPC   C4B32698  36.752  33.631   7.653
 7435POPC   NC332699  35.321  12.888   9.453
 7435POPC   PO432700  35.372  12.872   9.153
 7435POPC   GL132701  35.401  12.898   8.853
 7435POPC   GL232702  35.455  12.888   8.853
 7435POPC   C1A32703  35.395  12.804   8.553
 7435POPC   D2A32704  35.391  12.806   8.253
 7435POPC   C3A32705  35.319  12.830   7.953
 7435POPC   C4A32706  35.334  12.836   7.653
 7435POPC   C1B32707  35.566  12.817   8.553
 7435POPC   C2B32708  35.628  12.867   8.253
 7435POPC   C3B32709  35.583  12.871   7.953
 7435POPC   C4B32710  35.647  12.900   7.653
 7436POPC   NC332711  36.112   0.414   9.453
 7436POPC   PO432712  36.147   0.423   9.153
 7436POPC   GL132713  36.172   0.388   8.853
 7436POPC   GL232714  36.061   0.469   8.853
 7436POPC   C1A32715  36.129   0.417   8.553
 7436POPC   D2A32716  36.164   0.409   8.253
 7436POPC   C3A32717  36.093   0.417   7.953
 7436POPC   C4A32718  36.119   0.438   7.653
 7436POPC   C1B32719  35.884   0.612   8.553
 7436POPC   C2B32720  35.924   0.523   8.253
 7436POPC   C3B32721  35.914   0.583   7.953
 7436POPC   C4B32722  35.871   0.525   7.653
 7437POPC   NC332723  31.429   1.962   9.453
 7437POPC   PO432724  31.522   2.039   9.153
 7437POPC   GL132725  31.516   2.002   8.853
 7437POPC   GL232726  31.362   2.052   8.853
 7437POPC   C1A32727  31.450   2.035   8.553
 7437POPC   D2A32728  31.519   1.960   8.253
 7437POPC   C3A32729  31.430   1.948   7.953
 7437POPC   C4A32730  31.442   2.038   7.653
 7437POPC   C1B32731  31.287   2.122   8.553
 7437POPC   C2B32732  31.232   2.046   8.253
 7437POPC   C3B32733  31.202   2.054   7.953
 7437POPC   C4B32734  31.250   2.127   7.653
 7438POPC   NC332735  29.101  26.835   9.453
 7438POPC   PO432736  29.144  26.853   9.153
 7438POPC   GL132737  29.182  26.843   8.853
 7438POPC   GL232738  29.052  26.932   8.853
 7438POPC   C1A32739  29.129  26.775   8.553
 7438POPC   D2A32740  29.147  26.790   8.253
 7438POPC   C3A32741  29.150  26.806   7.953
 7438POPC   C4A32742  29.183  26.836   7.653
 7438POPC   C1B32743  29.087  27.039   8.553
 7438POPC   C2B32744  29.001  27.057   8.253
 7438POPC   C3B32745  29.046  27.059   7.953
 7438POPC   C4B32746  29.092  27.045   7.653
 7439POPC   NC332747   1.176  41.604   9.453
 7439POPC   PO432748   1.227  41.578   9.153
 7439POPC   GL132749   1.257  41.573   8.853
 7439POPC   GL232750   1.278  41.522   8.853
 7439POPC   C1A32751   1.184  41.573   8.553
 7439POPC   D2A32752   1.253  41.595   8.253
 7439POPC   C3A32753   1.243  41.568   7.953
 7439POPC   C4A32754   1.255  41.540   7.653
 7439POPC   C1B32755   1.373  41.429   8.553
 7439POPC   C2B32756   1.399  41.367   8.253
 7439POPC   C3B32757   1.450  41.405   7.953
 7439POPC   C4B32758   1.379  41.448   7.653
 7440POPC   NC332759  29.912  22.146   9.453
 7440POPC   PO432760  29.873  22.210   9.153
 7440POPC   GL132761  29.905  22.121   8.853
 7440POPC   GL232762  29.869  22.254   8.853
 7440POPC   C1A32763  29.924  22.171   8.553
 7440POPC   D2A32764  29.943  22.140   8.253
 7440POPC   C3A32765  29.881  22.197   7.953
 7440POPC   C4A32766  29.917  22.194   7.653
 7440POPC   C1B32767  29.818  22.361   8.553
 7440POPC   C2B32768  29.833  22.354   8.253
 7440POPC   C3B32769  29.851  22.423   7.953
 7440POPC   C4B32770  29.835  22.444   7.653
 7441POPC   NC332771  12.865  33.812   9.453
 7441POPC   PO432772  12.846  33.788   9.153
 7441POPC   GL132773  12.807  33.782   8.853
 7441POPC   GL232774  12.921  33.768   8.853
 7441POPC   C1A32775  12.874  33.809   8.553
 7441POPC   D2A32776  12.868  33.829   8.253
 7441POPC   C3A32777  12.824  33.805   7.953
 7441POPC   C4A32778  12.872  33.825   7.653
 7441POPC   C1B32779  13.049  33.699   8.553
 7441POPC   C2B32780  13.088  33.682   8.253
 7441POPC   C3B32781  13.025  33.712   7.953
 7441POPC   C4B32782  13.111  33.654   7.653
 7442POPC   NC332783  43.102  38.451   9.453
 7442POPC   PO432784  43.122  38.498   9.153
 7442POPC   GL132785  43.070  38.489   8.853
 7442POPC   GL232786  42.957  38.410   8.853
 7442POPC   C1A32787  43.125  38.407   8.553
 7442POPC   D2A32788  43.082  38.469   8.253
 7442POPC   C3A32789  43.064  38.479   7.953
 7442POPC   C4A32790  43.107  38.477   7.653
 7442POPC   C1B32791  42.867  38.362   8.553
 7442POPC   C2B32792  42.854  38.332   8.253
 7442POPC   C3B32793  42.884  38.336   7.953
 7442POPC   C4B32794  42.846  38.411   7.653
 7443POPC   NC332795  27.623  29.139   9.453
 7443POPC   PO432796  27.566  29.109   9.153
 7443POPC   GL132797  27.621  29.177   8.853
 7443POPC   GL232798  27.474  29.132   8.853
 7443POPC   C1A32799  27.596  29.138   8.553
 7443POPC   D2A32800  27.562  29.101   8.253
 7443POPC   C3A32801  27.577  29.163   7.953
 7443POPC   C4A32802  27.640  29.104   7.653
 7443POPC   C1B32803  27.358  29.183   8.553
 7443POPC   C2B32804  27.335  29.185   8.253
 7443POPC   C3B32805  27.329  29.176   7.953
 7443POPC   C4B32806  27.307  29.171   7.653
 7444POPC   NC332807   5.886  32.995   9.453
 7444POPC   PO432808   5.860  33.010   9.153
 7444POPC   GL132809   5.857  33.006   8.853
 7444POPC   GL232810   5.940  32.946   8.853
 7444POPC   C1A32811   5.841  33.066   8.553
 7444POPC   D2A32812   5.858  33.047   8.253
 7444POPC   C3A32813   5.860  32.993   7.953
 7444POPC   C4A32814   5.867  32.993   7.653
 7444POPC   C1B32815   6.081  32.851   8.553
 7444POPC   C2B32816   5.995  32.792   8.253
 7444POPC   C3B32817   6.072  32.798   7.953
 7444POPC   C4B32818   6.052  32.872   7.653
 7445POPC   NC332819  28.330  44.684   9.453
 7445POPC   PO432820  28.345  44.641   9.153
 7445POPC   GL132821  28.328  44.663   8.853
 7445POPC   GL232822  28.530  44.590   8.853
 7445POPC   C1A32823  28.413  44.712   8.553
 7445POPC   D2A32824  28.417  44.708   8.253
 7445POPC   C3A32825  28.401  44.619   7.953
 7445POPC   C4A32826  28.375  44.640   7.653
 7445POPC   C1B32827  28.635  44.628   8.553
 7445POPC   C2B32828  28.640  44.615   8.253
 7445POPC   C3B32829  28.576  44.608   7.953
 7445POPC   C4B32830  28.604  44.580   7.653
 7446POPC   NC332831  22.138  38.496   9.453
 7446POPC   PO432832  22.167  38.421   9.153
 7446POPC   GL132833  22.182  38.451   8.853
 7446POPC   GL232834  22.070  38.530   8.853
 7446POPC   C1A32835  22.195  38.464   8.553
 7446POPC   D2A32836  22.205  38.452   8.253
 7446POPC   C3A32837  22.113  38.481   7.953
 7446POPC   C4A32838  22.166  38.497   7.653
 7446POPC   C1B32839  22.000  38.638   8.553
 7446POPC   C2B32840  22.063  38.706   8.253
 7446POPC   C3B32841  22.030  38.625   7.953
 7446POPC   C4B32842  21.999  38.681   7.653
 7447POPC   NC332843  19.835  23.701   9.453
 7447POPC   PO432844  19.805  23.726   9.153
 7447POPC   GL132845  19.854  23.747   8.853
 7447POPC   GL232846  19.736  23.585   8.853
 7447POPC   C1A32847  19.798  23.732   8.553
 7447POPC   D2A32848  19.843  23.736   8.253
 7447POPC   C3A32849  19.840  23.749   7.953
 7447POPC   C4A32850  19.882  23.689   7.653
 7447POPC   C1B32851  19.666  23.522   8.553
 7447POPC   C2B32852  19.628  23.547   8.253
 7447POPC   C3B32853  19.627  23.517   7.953
 7447POPC   C4B32854  19.679  23.514   7.653
 7448POPC   NC332855  33.794   1.251   9.453
 7448POPC   PO432856  33.831   1.182   9.153
 7448POPC   GL132857  33.842   1.252   8.853
 7448POPC   GL232858  33.884   1.146   8.853
 7448POPC   C1A32859  33.791   1.241   8.553
 7448POPC   D2A32860  33.755   1.219   8.253
 7448POPC   C3A32861  33.784   1.214   7.953
 7448POPC   C4A32862  33.826   1.167   7.653
 7448POPC   C1B32863  34.031   1.150   8.553
 7448POPC   C2B32864  34.066   1.134   8.253
 7448POPC   C3B32865  34.038   1.123   7.953
 7448POPC   C4B32866  34.079   1.130   7.653
 7449POPC   NC332867  35.335  43.881   9.453
 7449POPC   PO432868  35.361  43.878   9.153
 7449POPC   GL132869  35.380  43.875   8.853
 7449POPC   GL232870  35.276  43.939   8.853
 7449POPC   C1A32871  35.394  43.903   8.553
 7449POPC   D2A32872  35.385  43.882   8.253
 7449POPC   C3A32873  35.323  43.920   7.953
 7449POPC   C4A32874  35.365  43.874   7.653
 7449POPC   C1B32875  35.073  43.948   8.553
 7449POPC   C2B32876  35.064  43.992   8.253
 7449POPC   C3B32877  35.142  43.979   7.953
 7449POPC   C4B32878  35.117  43.930   7.653
 7450POPC   NC332879  14.382  19.837   9.453
 7450POPC   PO432880  14.416  19.815   9.153
 7450POPC   GL132881  14.379  19.815   8.853
 7450POPC   GL232882  14.380  19.671   8.853
 7450POPC   C1A32883  14.445  19.808   8.553
 7450POPC   D2A32884  14.417  19.799   8.253
 7450POPC   C3A32885  14.360  19.842   7.953
 7450POPC   C4A32886  14.446  19.801   7.653
 7450POPC   C1B32887  14.251  19.568   8.553
 7450POPC   C2B32888  14.333  19.571   8.253
 7450POPC   C3B32889  14.251  19.629   7.953
 7450POPC   C4B32890  14.252  19.653   7.653
 7451POPC   NC332891  11.299  39.221   9.453
 7451POPC   PO432892  11.300  39.264   9.153
 7451POPC   GL132893  11.337  39.279   8.853
 7451POPC   GL232894  11.150  39.242   8.853
 7451POPC   C1A32895  11.315  39.229   8.553
 7451POPC   D2A32896  11.302  39.230   8.253
 7451POPC   C3A32897  11.340  39.257   7.953
 7451POPC   C4A32898  11.298  39.197   7.653
 7451POPC   C1B32899  11.075  39.342   8.553
 7451POPC   C2B32900  11.053  39.305   8.253
 7451POPC   C3B32901  11.083  39.326   7.953
 7451POPC   C4B32902  11.060  39.343   7.653
 7452POPC   NC332903  36.110  21.347   9.453
 7452POPC   PO432904  36.115  21.363   9.153
 7452POPC   GL132905  36.095  21.384   8.853
 7452POPC   GL232906  36.110  21.265   8.853
 7452POPC   C1A32907  36.087  21.420   8.553
 7452POPC   D2A32908  36.117  21.409   8.253
 7452POPC   C3A32909  36.097  21.394   7.953
 7452POPC   C4A32910  36.092  21.357   7.653
 7452POPC   C1B32911  36.158  21.087   8.553
 7452POPC   C2B32912  36.068  21.148   8.253
 7452POPC   C3B32913  36.084  21.134   7.953
 7452POPC   C4B32914  36.065  21.098   7.653
 7453POPC   NC332915  11.325  37.679   9.453
 7453POPC   PO432916  11.259  37.726   9.153
 7453POPC   GL132917  11.343  37.671   8.853
 7453POPC   GL232918  11.183  37.733   8.853
 7453POPC   C1A32919  11.261  37.713   8.553
 7453POPC   D2A32920  11.338  37.662   8.253
 7453POPC   C3A32921  11.270  37.720   7.953
 7453POPC   C4A32922  11.346  37.692   7.653
 7453POPC   C1B32923  11.078  37.811   8.553
 7453POPC   C2B32924  11.065  37.809   8.253
 7453POPC   C3B32925  11.135  37.848   7.953
 7453POPC   C4B32926  11.143  37.837   7.653
 7454POPC   NC332927   8.237  31.485   9.453
 7454POPC   PO432928   8.186  31.452   9.153
 7454POPC   GL132929   8.215  31.478   8.853
 7454POPC   GL232930   8.134  31.376   8.853
 7454POPC   C1A32931   8.201  31.498   8.553
 7454POPC   D2A32932   8.229  31.423   8.253
 7454POPC   C3A32933   8.236  31.509   7.953
 7454POPC   C4A32934   8.159  31.494   7.653
 7454POPC   C1B32935   7.986  31.322   8.553
 7454POPC   C2B32936   7.970  31.385   8.253
 7454POPC   C3B32937   7.978  31.312   7.953
 7454POPC   C4B32938   8.010  31.342   7.653
 7455POPC   NC332939  23.741  17.520   9.453
 7455POPC   PO432940  23.749  17.513   9.153
 7455POPC   GL132941  23.722  17.552   8.853
 7455POPC   GL232942  23.586  17.517   8.853
 7455POPC   C1A32943  23.738  17.466   8.553
 7455POPC   D2A32944  23.705  17.476   8.253
 7455POPC   C3A32945  23.712  17.470   7.953
 7455POPC   C4A32946  23.707  17.480   7.653
 7455POPC   C1B32947  23.485  17.556   8.553
 7455POPC   C2B32948  23.466  17.596   8.253
 7455POPC   C3B32949  23.469  17.568   7.953
 7455POPC   C4B32950  23.520  17.620   7.653
 7456POPC   NC332951   4.323  29.905   9.453
 7456POPC   PO432952   4.305  29.928   9.153
 7456POPC   GL132953   4.338  29.886   8.853
 7456POPC   GL232954   4.290  29.852   8.853
 7456POPC   C1A32955   4.356  29.906   8.553
 7456POPC   D2A32956   4.284  29.912   8.253
 7456POPC   C3A32957   4.335  29.897   7.953
 7456POPC   C4A32958   4.293  29.909   7.653
 7456POPC   C1B32959   4.148  29.693   8.553
 7456POPC   C2B32960   4.190  29.761   8.253
 7456POPC   C3B32961   4.194  29.751   7.953
 7456POPC   C4B32962   4.213  29.671   7.653
 7457POPC   NC332963   5.131  29.156   9.453
 7457POPC   PO432964   5.123  29.126   9.153
 7457POPC   GL132965   5.075  29.114   8.853
 7457POPC   GL232966   5.005  29.130   8.853
 7457POPC   C1A32967   5.122  29.181   8.553
 7457POPC   D2A32968   5.069  29.133   8.253
 7457POPC   C3A32969   5.057  29.194   7.953
 7457POPC   C4A32970   5.111  29.100   7.653
 7457POPC   C1B32971   4.834  29.089   8.553
 7457POPC   C2B32972   4.857  29.093   8.253
 7457POPC   C3B32973   4.841  29.146   7.953
 7457POPC   C4B32974   4.838  29.094   7.653
 7458POPC   NC332975  39.231   1.234   9.453
 7458POPC   PO432976  39.196   1.181   9.153
 7458POPC   GL132977  39.241   1.178   8.853
 7458POPC   GL232978  39.201   1.275   8.853
 7458POPC   C1A32979  39.240   1.165   8.553
 7458POPC   D2A32980  39.275   1.207   8.253
 7458POPC   C3A32981  39.194   1.182   7.953
 7458POPC   C4A32982  39.222   1.168   7.653
 7458POPC   C1B32983  39.069   1.412   8.553
 7458POPC   C2B32984  39.055   1.380   8.253
 7458POPC   C3B32985  39.054   1.380   7.953
 7458POPC   C4B32986  39.114   1.416   7.653
 7459POPC   NC332987  30.675  20.608   9.453
 7459POPC   PO432988  30.686  20.598   9.153
 7459POPC   GL132989  30.707  20.632   8.853
 7459POPC   GL232990  30.591  20.688   8.853
 7459POPC   C1A32991  30.647  20.614   8.553
 7459POPC   D2A32992  30.710  20.591   8.253
 7459POPC   C3A32993  30.647  20.642   7.953
 7459POPC   C4A32994  30.650  20.609   7.653
 7459POPC   C1B32995  30.502  20.798   8.553
 7459POPC   C2B32996  30.539  20.783   8.253
 7459POPC   C3B32997  30.445  20.709   7.953
 7459POPC   C4B32998  30.482  20.773   7.653
 7460POPC   NC332999  43.919  28.367   9.453
 7460POPC   PO433000  43.846  28.383   9.153
 7460POPC   GL133001  43.893  28.331   8.853
 7460POPC   GL233002  43.789  28.355   8.853
 7460POPC   C1A33003  43.851  28.337   8.553
 7460POPC   D2A33004  43.911  28.339   8.253
 7460POPC   C3A33005  43.877  28.413   7.953
 7460POPC   C4A33006  43.857  28.401   7.653
 7460POPC   C1B33007  43.677  28.283   8.553
 7460POPC   C2B33008  43.669  28.325   8.253
 7460POPC   C3B33009  43.629  28.250   7.953
 7460POPC   C4B33010  43.618  28.335   7.653
 7461POPC   NC333011  22.934  17.520   9.453
 7461POPC   PO433012  22.975  17.463   9.153
 7461POPC   GL133013  22.978  17.540   8.853
 7461POPC   GL233014  22.926  17.658   8.853
 7461POPC   C1A33015  22.960  17.458   8.553
 7461POPC   D2A33016  22.925  17.550   8.253
 7461POPC   C3A33017  22.976  17.519   7.953
 7461POPC   C4A33018  22.908  17.495   7.653
 7461POPC   C1B33019  22.870  17.784   8.553
 7461POPC   C2B33020  22.934  17.794   8.253
 7461POPC   C3B33021  22.855  17.759   7.953
 7461POPC   C4B33022  22.901  17.798   7.653
 7462POPC   NC333023  27.602   1.257   9.453
 7462POPC   PO433024  27.565   1.189   9.153
 7462POPC   GL133025  27.561   1.197   8.853
 7462POPC   GL233026  27.618   1.356   8.853
 7462POPC   C1A33027  27.569   1.240   8.553
 7462POPC   D2A33028  27.548   1.217   8.253
 7462POPC   C3A33029  27.635   1.195   7.953
 7462POPC   C4A33030  27.583   1.165   7.653
 7462POPC   C1B33031  27.654   1.429   8.553
 7462POPC   C2B33032  27.634   1.500   8.253
 7462POPC   C3B33033  27.601   1.486   7.953
 7462POPC   C4B33034  27.633   1.434   7.653
 7463POPC   NC333035   8.992  31.499   9.453
 7463POPC   PO433036   8.971  31.462   9.153
 7463POPC   GL133037   8.975  31.448   8.853
 7463POPC   GL233038   9.009  31.356   8.853
 7463POPC   C1A33039   9.000  31.429   8.553
 7463POPC   D2A33040   8.972  31.501   8.253
 7463POPC   C3A33041   8.925  31.498   7.953
 7463POPC   C4A33042   9.019  31.463   7.653
 7463POPC   C1B33043   9.171  31.304   8.553
 7463POPC   C2B33044   9.118  31.297   8.253
 7463POPC   C3B33045   9.112  31.307   7.953
 7463POPC   C4B33046   9.112  31.275   7.653
 7464POPC   NC333047   8.986   2.006   9.453
 7464POPC   PO433048   8.996   1.951   9.153
 7464POPC   GL133049   9.000   2.001   8.853
 7464POPC   GL233050   8.862   2.016   8.853
 7464POPC   C1A33051   8.984   1.946   8.553
 7464POPC   D2A33052   8.978   2.017   8.253
 7464POPC   C3A33053   8.949   1.959   7.953
 7464POPC   C4A33054   9.014   1.957   7.653
 7464POPC   C1B33055   8.735   2.064   8.553
 7464POPC   C2B33056   8.737   2.092   8.253
 7464POPC   C3B33057   8.728   2.073   7.953
 7464POPC   C4B33058   8.709   2.114   7.653
 7465POPC   NC333059  29.189   8.162   9.453
 7465POPC   PO433060  29.116   8.152   9.153
 7465POPC   GL133061  29.101   8.193   8.853
 7465POPC   GL233062  29.112   8.295   8.853
 7465POPC   C1A33063  29.154   8.183   8.553
 7465POPC   D2A33064  29.141   8.172   8.253
 7465POPC   C3A33065  29.179   8.240   7.953
 7465POPC   C4A33066  29.177   8.227   7.653
 7465POPC   C1B33067  29.040   8.400   8.553
 7465POPC   C2B33068  29.105   8.403   8.253
 7465POPC   C3B33069  29.060   8.475   7.953
 7465POPC   C4B33070  29.125   8.446   7.653
 7466POPC   NC333071  43.864  44.706   9.453
 7466POPC   PO433072  43.909  44.701   9.153
 7466POPC   GL133073  43.903  44.635   8.853
 7466POPC   GL233074  43.970  44.765   8.853
 7466POPC   C1A33075  43.880  44.688   8.553
 7466POPC   D2A33076  43.889  44.675   8.253
 7466POPC   C3A33077  43.904  44.692   7.953
 7466POPC   C4A33078  43.930  44.678   7.653
 7466POPC   C1B33079  43.960  44.872   8.553
 7466POPC   C2B33080  44.027  44.877   8.253
 7466POPC   C3B33081  43.992  44.847   7.953
 7466POPC   C4B33082  43.993  44.923   7.653
 7467POPC   NC333083  26.847  10.555   9.453
 7467POPC   PO433084  26.798  10.538   9.153
 7467POPC   GL133085  26.855  10.542   8.853
 7467POPC   GL233086  26.748  10.512   8.853
 7467POPC   C1A33087  26.841  10.476   8.553
 7467POPC   D2A33088  26.802  10.533   8.253
 7467POPC   C3A33089  26.804  10.480   7.953
 7467POPC   C4A33090  26.768  10.533   7.653
 7467POPC   C1B33091  26.578  10.400   8.553
 7467POPC   C2B33092  26.612  10.388   8.253
 7467POPC   C3B33093  26.562  10.446   7.953
 7467POPC   C4B33094  26.558  10.450   7.653
 7468POPC   NC333095  33.006  27.586   9.453
 7468POPC   PO433096  33.003  27.579   9.153
 7468POPC   GL133097  33.063  27.631   8.853
 7468POPC   GL233098  33.124  27.459   8.853
 7468POPC   C1A33099  33.042  27.579   8.553
 7468POPC   D2A33100  33.071  27.592   8.253
 7468POPC   C3A33101  33.061  27.550   7.953
 7468POPC   C4A33102  33.056  27.583   7.653
 7468POPC   C1B33103  33.233  27.430   8.553
 7468POPC   C2B33104  33.203  27.366   8.253
 7468POPC   C3B33105  33.156  27.438   7.953
 7468POPC   C4B33106  33.238  27.383   7.653
 7469POPC   NC333107   6.690  14.439   9.453
 7469POPC   PO433108   6.623  14.400   9.153
 7469POPC   GL133109   6.668  14.415   8.853
 7469POPC   GL233110   6.650  14.556   8.853
 7469POPC   C1A33111   6.665  14.428   8.553
 7469POPC   D2A33112   6.619  14.368   8.253
 7469POPC   C3A33113   6.675  14.441   7.953
 7469POPC   C4A33114   6.685  14.361   7.653
 7469POPC   C1B33115   6.595  14.615   8.553
 7469POPC   C2B33116   6.629  14.685   8.253
 7469POPC   C3B33117   6.638  14.648   7.953
 7469POPC   C4B33118   6.646  14.656   7.653
 7470POPC   NC333119  15.157   7.417   9.453
 7470POPC   PO433120  15.208   7.455   9.153
 7470POPC   GL133121  15.156   7.391   8.853
 7470POPC   GL233122  15.058   7.432   8.853
 7470POPC   C1A33123  15.141   7.447   8.553
 7470POPC   D2A33124  15.151   7.385   8.253
 7470POPC   C3A33125  15.147   7.412   7.953
 7470POPC   C4A33126  15.217   7.464   7.653
 7470POPC   C1B33127  14.984   7.480   8.553
 7470POPC   C2B33128  14.975   7.495   8.253
 7470POPC   C3B33129  14.930   7.506   7.953
 7470POPC   C4B33130  14.922   7.450   7.653
 7471POPC   NC333131  26.862   1.229   9.453
 7471POPC   PO433132  26.852   1.188   9.153
 7471POPC   GL133133  26.770   1.179   8.853
 7471POPC   GL233134  26.948   1.248   8.853
 7471POPC   C1A33135  26.832   1.217   8.553
 7471POPC   D2A33136  26.862   1.216   8.253
 7471POPC   C3A33137  26.856   1.169   7.953
 7471POPC   C4A33138  26.818   1.184   7.653
 7471POPC   C1B33139  26.979   1.339   8.553
 7471POPC   C2B33140  27.007   1.342   8.253
 7471POPC   C3B33141  27.006   1.340   7.953
 7471POPC   C4B33142  26.982   1.395   7.653
 7472POPC   NC333143  12.893   7.404   9.453
 7472POPC   PO433144  12.824   7.445   9.153
 7472POPC   GL133145  12.817   7.464   8.853
 7472POPC   GL233146  12.823   7.534   8.853
 7472POPC   C1A33147  12.901   7.386   8.553
 7472POPC   D2A33148  12.806   7.391   8.253
 7472POPC   C3A33149  12.829   7.418   7.953
 7472POPC   C4A33150  12.847   7.414   7.653
 7472POPC   C1B33151  12.801   7.711   8.553
 7472POPC   C2B33152  12.835   7.689   8.253
 7472POPC   C3B33153  12.834   7.684   7.953
 7472POPC   C4B33154  12.812   7.711   7.653
 7473POPC   NC333155   8.945  43.089   9.453
 7473POPC   PO433156   8.972  43.142   9.153
 7473POPC   GL133157   8.926  43.061   8.853
 7473POPC   GL233158   9.021  43.181   8.853
 7473POPC   C1A33159   8.950  43.076   8.553
 7473POPC   D2A33160   8.971  43.114   8.253
 7473POPC   C3A33161   8.969  43.141   7.953
 7473POPC   C4A33162   9.002  43.159   7.653
 7473POPC   C1B33163   9.186  43.322   8.553
 7473POPC   C2B33164   9.150  43.319   8.253
 7473POPC   C3B33165   9.125  43.285   7.953
 7473POPC   C4B33166   9.148  43.305   7.653
 7474POPC   NC333167  43.148   8.163   9.453
 7474POPC   PO433168  43.114   8.156   9.153
 7474POPC   GL133169  43.124   8.175   8.853
 7474POPC   GL233170  43.151   8.058   8.853
 7474POPC   C1A33171  43.101   8.153   8.553
 7474POPC   D2A33172  43.077   8.179   8.253
 7474POPC   C3A33173  43.154   8.210   7.953
 7474POPC   C4A33174  43.091   8.164   7.653
 7474POPC   C1B33175  43.205   7.942   8.553
 7474POPC   C2B33176  43.242   7.970   8.253
 7474POPC   C3B33177  43.262   8.016   7.953
 7474POPC   C4B33178  43.185   7.960   7.653
 7475POPC   NC333179  10.563  14.405   9.453
 7475POPC   PO433180  10.495  14.412   9.153
 7475POPC   GL133181  10.507  14.369   8.853
 7475POPC   GL233182  10.451  14.357   8.853
 7475POPC   C1A33183  10.489  14.448   8.553
 7475POPC   D2A33184  10.567  14.364   8.253
 7475POPC   C3A33185  10.550  14.425   7.953
 7475POPC   C4A33186  10.503  14.434   7.653
 7475POPC   C1B33187  10.339  14.200   8.553
 7475POPC   C2B33188  10.325  14.217   8.253
 7475POPC   C3B33189  10.316  14.280   7.953
 7475POPC   C4B33190  10.317  14.297   7.653
 7476POPC   NC333191  36.125  43.881   9.453
 7476POPC   PO433192  36.177  43.906   9.153
 7476POPC   GL133193  36.087  43.865   8.853
 7476POPC   GL233194  36.061  43.980   8.853
 7476POPC   C1A33195  36.136  43.871   8.553
 7476POPC   D2A33196  36.154  43.842   8.253
 7476POPC   C3A33197  36.092  43.931   7.953
 7476POPC   C4A33198  36.122  43.900   7.653
 7476POPC   C1B33199  35.888  43.957   8.553
 7476POPC   C2B33200  35.905  44.055   8.253
 7476POPC   C3B33201  35.859  44.003   7.953
 7476POPC   C4B33202  35.918  44.037   7.653
 7477POPC   NC333203  29.193  15.210   9.453
 7477POPC   PO433204  29.123  15.224   9.153
 7477POPC   GL133205  29.194  15.210   8.853
 7477POPC   GL233206  29.105  15.038   8.853
 7477POPC   C1A33207  29.130  15.222   8.553
 7477POPC   D2A33208  29.160  15.208   8.253
 7477POPC   C3A33209  29.185  15.153   7.953
 7477POPC   C4A33210  29.114  15.164   7.653
 7477POPC   C1B33211  29.075  14.930   8.553
 7477POPC   C2B33212  29.094  14.990   8.253
 7477POPC   C3B33213  29.087  14.971   7.953
 7477POPC   C4B33214  29.048  14.944   7.653
 7478POPC   NC333215  22.977  19.855   9.453
 7478POPC   PO433216  22.919  19.843   9.153
 7478POPC   GL133217  22.899  19.801   8.853
 7478POPC   GL233218  22.777  19.828   8.853
 7478POPC   C1A33219  22.903  19.823   8.553
 7478POPC   D2A33220  22.960  19.882   8.253
 7478POPC   C3A33221  22.940  19.814   7.953
 7478POPC   C4A33222  22.946  19.834   7.653
 7478POPC   C1B33223  22.721  19.950   8.553
 7478POPC   C2B33224  22.694  19.887   8.253
 7478POPC   C3B33225  22.658  19.913   7.953
 7478POPC   C4B33226  22.740  19.910   7.653
 7479POPC   NC333227   2.736  21.348   9.453
 7479POPC   PO433228   2.721  21.378   9.153
 7479POPC   GL133229   2.764  21.431   8.853
 7479POPC   GL233230   2.754  21.295   8.853
 7479POPC   C1A33231   2.770  21.384   8.553
 7479POPC   D2A33232   2.735  21.402   8.253
 7479POPC   C3A33233   2.759  21.389   7.953
 7479POPC   C4A33234   2.734  21.397   7.653
 7479POPC   C1B33235   2.675  21.171   8.553
 7479POPC   C2B33236   2.695  21.197   8.253
 7479POPC   C3B33237   2.625  21.191   7.953
 7479POPC   C4B33238   2.680  21.147   7.653
 7480POPC   NC333239   1.979   7.408   9.453
 7480POPC   PO433240   1.940   7.376   9.153
 7480POPC   GL133241   2.036   7.403   8.853
 7480POPC   GL233242   1.858   7.350   8.853
 7480POPC   C1A33243   1.948   7.390   8.553
 7480POPC   D2A33244   2.033   7.408   8.253
 7480POPC   C3A33245   1.944   7.400   7.953
 7480POPC   C4A33246   2.030   7.416   7.653
 7480POPC   C1B33247   1.755   7.318   8.553
 7480POPC   C2B33248   1.820   7.272   8.253
 7480POPC   C3B33249   1.792   7.251   7.953
 7480POPC   C4B33250   1.807   7.288   7.653
 7481POPC   NC333251  25.993   2.795   9.453
 7481POPC   PO433252  26.025   2.732   9.153
 7481POPC   GL133253  26.051   2.805   8.853
 7481POPC   GL233254  25.958   2.836   8.853
 7481POPC   C1A33255  26.045   2.769   8.553
 7481POPC   D2A33256  26.056   2.814   8.253
 7481POPC   C3A33257  26.017   2.812   7.953
 7481POPC   C4A33258  26.042   2.756   7.653
 7481POPC   C1B33259  25.931   2.933   8.553
 7481POPC   C2B33260  25.939   3.020   8.253
 7481POPC   C3B33261  25.956   2.984   7.953
 7481POPC   C4B33262  25.885   3.021   7.653
 7482POPC   NC333263  38.499  27.563   9.453
 7482POPC   PO433264  38.406  27.605   9.153
 7482POPC   GL133265  38.425  27.635   8.853
 7482POPC   GL233266  38.508  27.436   8.853
 7482POPC   C1A33267  38.452  27.564   8.553
 7482POPC   D2A33268  38.448  27.619   8.253
 7482POPC   C3A33269  38.481  27.626   7.953
 7482POPC   C4A33270  38.428  27.570   7.653
 7482POPC   C1B33271  38.517  27.301   8.553
 7482POPC   C2B33272  38.506  27.332   8.253
 7482POPC   C3B33273  38.517  27.363   7.953
 7482POPC   C4B33274  38.552  27.364   7.653
 7483POPC   NC333275  33.013  23.763   9.453
 7483POPC   PO433276  33.014  23.753   9.153
 7483POPC   GL133277  32.987  23.692   8.853
 7483POPC   GL233278  33.021  23.566   8.853
 7483POPC   C1A33279  33.064  23.709   8.553
 7483POPC   D2A33280  33.029  23.702   8.253
 7483POPC   C3A33281  33.035  23.697   7.953
 7483POPC   C4A33282  32.997  23.700   7.653
 7483POPC   C1B33283  33.097  23.446   8.553
 7483POPC   C2B33284  33.048  23.438   8.253
 7483POPC   C3B33285  33.068  23.505   7.953
 7483POPC   C4B33286  33.060  23.469   7.653
 7484POPC   NC333287  37.690  27.549   9.453
 7484POPC   PO433288  37.634  27.582   9.153
 7484POPC   GL133289  37.675  27.622   8.853
 7484POPC   GL233290  37.815  27.464   8.853
 7484POPC   C1A33291  37.693  27.592   8.553
 7484POPC   D2A33292  37.669  27.629   8.253
 7484POPC   C3A33293  37.724  27.625   7.953
 7484POPC   C4A33294  37.700  27.584   7.653
 7484POPC   C1B33295  37.905  27.423   8.553
 7484POPC   C2B33296  37.852  27.440   8.253
 7484POPC   C3B33297  37.859  27.466   7.953
 7484POPC   C4B33298  37.905  27.446   7.653
 7485POPC   NC333299   1.245  31.423   9.453
 7485POPC   PO433300   1.166  31.511   9.153
 7485POPC   GL133301   1.229  31.504   8.853
 7485POPC   GL233302   1.082  31.481   8.853
 7485POPC   C1A33303   1.176  31.517   8.553
 7485POPC   D2A33304   1.173  31.447   8.253
 7485POPC   C3A33305   1.181  31.496   7.953
 7485POPC   C4A33306   1.223  31.478   7.653
 7485POPC   C1B33307   1.005  31.560   8.553
 7485POPC   C2B33308   0.949  31.550   8.253
 7485POPC   C3B33309   0.920  31.507   7.953
 7485POPC   C4B33310   0.969  31.545   7.653
 7486POPC   NC333311  27.620   9.006   9.453
 7486POPC   PO433312  27.615   8.994   9.153
 7486POPC   GL133313  27.626   8.943   8.853
 7486POPC   GL233314  27.511   8.947   8.853
 7486POPC   C1A33315  27.620   9.010   8.553
 7486POPC   D2A33316  27.623   8.990   8.253
 7486POPC   C3A33317  27.553   8.964   7.953
 7486POPC   C4A33318  27.576   9.014   7.653
 7486POPC   C1B33319  27.336   8.949   8.553
 7486POPC   C2B33320  27.319   8.959   8.253
 7486POPC   C3B33321  27.298   8.919   7.953
 7486POPC   C4B33322  27.368   8.933   7.653
 7487POPC   NC333323  26.060   2.022   9.453
 7487POPC   PO433324  26.032   1.994   9.153
 7487POPC   GL133325  26.061   1.975   8.853
 7487POPC   GL233326  26.173   2.035   8.853
 7487POPC   C1A33327  26.056   2.029   8.553
 7487POPC   D2A33328  26.017   2.001   8.253
 7487POPC   C3A33329  26.022   2.008   7.953
 7487POPC   C4A33330  26.030   1.962   7.653
 7487POPC   C1B33331  26.294   2.072   8.553
 7487POPC   C2B33332  26.227   2.104   8.253
 7487POPC   C3B33333  26.277   2.126   7.953
 7487POPC   C4B33334  26.217   2.157   7.653
 7488POPC   NC333335   7.445  34.604   9.453
 7488POPC   PO433336   7.436  34.534   9.153
 7488POPC   GL133337   7.375  34.561   8.853
 7488POPC   GL233338   7.466  34.639   8.853
 7488POPC   C1A33339   7.441  34.626   8.553
 7488POPC   D2A33340   7.466  34.539   8.253
 7488POPC   C3A33341   7.452  34.615   7.953
 7488POPC   C4A33342   7.451  34.526   7.653
 7488POPC   C1B33343   7.532  34.835   8.553
 7488POPC   C2B33344   7.513  34.814   8.253
 7488POPC   C3B33345   7.561  34.844   7.953
 7488POPC   C4B33346   7.565  34.786   7.653
 7489POPC   NC333347  19.025  43.089   9.453
 7489POPC   PO433348  19.080  43.132   9.153
 7489POPC   GL133349  19.106  43.147   8.853
 7489POPC   GL233350  18.992  43.042   8.853
 7489POPC   C1A33351  19.077  43.096   8.553
 7489POPC   D2A33352  19.064  43.086   8.253
 7489POPC   C3A33353  19.069  43.143   7.953
 7489POPC   C4A33354  19.011  43.146   7.653
 7489POPC   C1B33355  18.818  42.967   8.553
 7489POPC   C2B33356  18.789  42.956   8.253
 7489POPC   C3B33357  18.856  42.979   7.953
 7489POPC   C4B33358  18.838  43.032   7.653
 7490POPC   NC333359  37.676   1.990   9.453
 7490POPC   PO433360  37.709   2.036   9.153
 7490POPC   GL133361  37.680   1.943   8.853
 7490POPC   GL233362  37.553   1.936   8.853
 7490POPC   C1A33363  37.722   1.941   8.553
 7490POPC   D2A33364  37.724   1.951   8.253
 7490POPC   C3A33365  37.709   2.034   7.953
 7490POPC   C4A33366  37.645   1.963   7.653
 7490POPC   C1B33367  37.451   1.982   8.553
 7490POPC   C2B33368  37.477   2.021   8.253
 7490POPC   C3B33369  37.443   1.931   7.953
 7490POPC   C4B33370  37.392   1.942   7.653
 7491POPC   NC333371   4.276  43.070   9.453
 7491POPC   PO433372   4.335  43.122   9.153
 7491POPC   GL133373   4.271  43.143   8.853
 7491POPC   GL233374   4.472  43.148   8.853
 7491POPC   C1A33375   4.323  43.077   8.553
 7491POPC   D2A33376   4.307  43.126   8.253
 7491POPC   C3A33377   4.329  43.088   7.953
 7491POPC   C4A33378   4.335  43.131   7.653
 7491POPC   C1B33379   4.525  43.175   8.553
 7491POPC   C2B33380   4.509  43.177   8.253
 7491POPC   C3B33381   4.567  43.221   7.953
 7491POPC   C4B33382   4.585  43.159   7.653
 7492POPC   NC333383  39.203  41.530   9.453
 7492POPC   PO433384  39.268  41.522   9.153
 7492POPC   GL133385  39.223  41.572   8.853
 7492POPC   GL233386  39.391  41.620   8.853
 7492POPC   C1A33387  39.271  41.560   8.553
 7492POPC   D2A33388  39.262  41.587   8.253
 7492POPC   C3A33389  39.239  41.600   7.953
 7492POPC   C4A33390  39.184  41.515   7.653
 7492POPC   C1B33391  39.509  41.671   8.553
 7492POPC   C2B33392  39.455  41.640   8.253
 7492POPC   C3B33393  39.467  41.645   7.953
 7492POPC   C4B33394  39.480  41.627   7.653
 7493POPC   NC333395  40.045  15.905   9.453
 7493POPC   PO433396  39.967  15.926   9.153
 7493POPC   GL133397  40.045  15.955   8.853
 7493POPC   GL233398  40.087  16.062   8.853
 7493POPC   C1A33399  40.026  15.962   8.553
 7493POPC   D2A33400  39.979  15.962   8.253
 7493POPC   C3A33401  39.969  15.920   7.953
 7493POPC   C4A33402  40.025  15.988   7.653
 7493POPC   C1B33403  40.111  16.133   8.553
 7493POPC   C2B33404  40.132  16.119   8.253
 7493POPC   C3B33405  40.117  16.123   7.953
 7493POPC   C4B33406  40.146  16.189   7.653
 7494POPC   NC333407  35.312  16.728   9.453
 7494POPC   PO433408  35.385  16.700   9.153
 7494POPC   GL133409  35.393  16.701   8.853
 7494POPC   GL233410  35.443  16.623   8.853
 7494POPC   C1A33411  35.337  16.709   8.553
 7494POPC   D2A33412  35.395  16.764   8.253
 7494POPC   C3A33413  35.309  16.745   7.953
 7494POPC   C4A33414  35.312  16.754   7.653
 7494POPC   C1B33415  35.410  16.539   8.553
 7494POPC   C2B33416  35.411  16.488   8.253
 7494POPC   C3B33417  35.490  16.487   7.953
 7494POPC   C4B33418  35.461  16.498   7.653
 7495POPC   NC333419  29.957  26.790   9.453
 7495POPC   PO433420  29.956  26.828   9.153
 7495POPC   GL133421  29.878  26.834   8.853
 7495POPC   GL233422  29.817  26.782   8.853
 7495POPC   C1A33423  29.897  26.792   8.553
 7495POPC   D2A33424  29.906  26.770   8.253
 7495POPC   C3A33425  29.968  26.848   7.953
 7495POPC   C4A33426  29.876  26.802   7.653
 7495POPC   C1B33427  29.737  26.679   8.553
 7495POPC   C2B33428  29.705  26.770   8.253
 7495POPC   C3B33429  29.640  26.745   7.953
 7495POPC   C4B33430  29.658  26.678   7.653
 7496POPC   NC333431  12.874  22.130   9.453
 7496POPC   PO433432  12.875  22.164   9.153
 7496POPC   GL133433  12.815  22.165   8.853
 7496POPC   GL233434  12.978  22.205   8.853
 7496POPC   C1A33435  12.900  22.180   8.553
 7496POPC   D2A33436  12.839  22.206   8.253
 7496POPC   C3A33437  12.813  22.156   7.953
 7496POPC   C4A33438  12.877  22.152   7.653
 7496POPC   C1B33439  13.018  22.302   8.553
 7496POPC   C2B33440  13.020  22.295   8.253
 7496POPC   C3B33441  13.017  22.322   7.953
 7496POPC   C4B33442  13.030  22.380   7.653
 7497POPC   NC333443  31.508  30.734   9.453
 7497POPC   PO433444  31.461  30.708   9.153
 7497POPC   GL133445  31.425  30.662   8.853
 7497POPC   GL233446  31.347  30.699   8.853
 7497POPC   C1A33447  31.506  30.730   8.553
 7497POPC   D2A33448  31.493  30.695   8.253
 7497POPC   C3A33449  31.446  30.717   7.953
 7497POPC   C4A33450  31.507  30.738   7.653
 7497POPC   C1B33451  31.276  30.757   8.553
 7497POPC   C2B33452  31.207  30.781   8.253
 7497POPC   C3B33453  31.268  30.764   7.953
 7497POPC   C4B33454  31.247  30.780   7.653
 7498POPC   NC333455  39.978  25.283   9.453
 7498POPC   PO433456  40.034  25.220   9.153
 7498POPC   GL133457  40.027  25.295   8.853
 7498POPC   GL233458  40.136  25.215   8.853
 7498POPC   C1A33459  40.009  25.266   8.553
 7498POPC   D2A33460  39.989  25.293   8.253
 7498POPC   C3A33461  40.019  25.222   7.953
 7498POPC   C4A33462  39.982  25.256   7.653
 7498POPC   C1B33463  40.254  25.197   8.553
 7498POPC   C2B33464  40.277  25.244   8.253
 7498POPC   C3B33465  40.275  25.223   7.953
 7498POPC   C4B33466  40.261  25.174   7.653
 7499POPC   NC333467   7.403  12.899   9.453
 7499POPC   PO433468   7.394  12.879   9.153
 7499POPC   GL133469   7.462  12.895   8.853
 7499POPC   GL233470   7.420  12.762   8.853
 7499POPC   C1A33471   7.397  12.837   8.553
 7499POPC   D2A33472   7.433  12.857   8.253
 7499POPC   C3A33473   7.401  12.833   7.953
 7499POPC   C4A33474   7.425  12.807   7.653
 7499POPC   C1B33475   7.385  12.564   8.553
 7499POPC   C2B33476   7.330  12.624   8.253
 7499POPC   C3B33477   7.326  12.588   7.953
 7499POPC   C4B33478   7.412  12.566   7.653
 7500POPC   NC333479   6.634  40.782   9.453
 7500POPC   PO433480   6.673  40.798   9.153
 7500POPC   GL133481   6.678  40.797   8.853
 7500POPC   GL233482   6.594  40.911   8.853
 7500POPC   C1A33483   6.675  40.818   8.553
 7500POPC   D2A33484   6.670  40.754   8.253
 7500POPC   C3A33485   6.665  40.823   7.953
 7500POPC   C4A33486   6.686  40.816   7.653
 7500POPC   C1B33487   6.620  41.064   8.553
 7500POPC   C2B33488   6.602  40.990   8.253
 7500POPC   C3B33489   6.641  41.042   7.953
 7500POPC   C4B33490   6.624  40.991   7.653
 7501POPC   NC333491  12.825  39.269   9.453
 7501POPC   PO433492  12.823  39.195   9.153
 7501POPC   GL133493  12.832  39.233   8.853
 7501POPC   GL233494  12.825  39.068   8.853
 7501POPC   C1A33495  12.875  39.240   8.553
 7501POPC   D2A33496  12.817  39.269   8.253
 7501POPC   C3A33497  12.841  39.252   7.953
 7501POPC   C4A33498  12.840  39.235   7.653
 7501POPC   C1B33499  12.828  39.011   8.553
 7501POPC   C2B33500  12.857  39.000   8.253
 7501POPC   C3B33501  12.848  39.010   7.953
 7501POPC   C4B33502  12.908  39.030   7.653
 7502POPC   NC333503   4.341  16.688   9.453
 7502POPC   PO433504   4.352  16.686   9.153
 7502POPC   GL133505   4.292  16.737   8.853
 7502POPC   GL233506   4.175  16.828   8.853
 7502POPC   C1A33507   4.276  16.752   8.553
 7502POPC   D2A33508   4.362  16.721   8.253
 7502POPC   C3A33509   4.336  16.744   7.953
 7502POPC   C4A33510   4.287  16.710   7.653
 7502POPC   C1B33511   4.125  16.887   8.553
 7502POPC   C2B33512   4.109  16.813   8.253
 7502POPC   C3B33513   4.063  16.900   7.953
 7502POPC   C4B33514   4.055  16.864   7.653
 7503POPC   NC333515   6.678  28.415   9.453
 7503POPC   PO433516   6.650  28.394   9.153
 7503POPC   GL133517   6.693  28.354   8.853
 7503POPC   GL233518   6.718  28.505   8.853
 7503POPC   C1A33519   6.691  28.367   8.553
 7503POPC   D2A33520   6.626  28.354   8.253
 7503POPC   C3A33521   6.667  28.334   7.953
 7503POPC   C4A33522   6.658  28.324   7.653
 7503POPC   C1B33523   6.707  28.632   8.553
 7503POPC   C2B33524   6.715  28.573   8.253
 7503POPC   C3B33525   6.729  28.561   7.953
 7503POPC   C4B33526   6.720  28.624   7.653
 7504POPC   NC333527   5.070  23.713   9.453
 7504POPC   PO433528   5.095  23.676   9.153
 7504POPC   GL133529   5.097  23.678   8.853
 7504POPC   GL233530   5.013  23.838   8.853
 7504POPC   C1A33531   5.059  23.718   8.553
 7504POPC   D2A33532   5.074  23.756   8.253
 7504POPC   C3A33533   5.102  23.677   7.953
 7504POPC   C4A33534   5.119  23.719   7.653
 7504POPC   C1B33535   4.849  23.904   8.553
 7504POPC   C2B33536   4.865  23.894   8.253
 7504POPC   C3B33537   4.917  23.884   7.953
 7504POPC   C4B33538   4.938  23.837   7.653
 7505POPC   NC333539  39.261   8.191   9.453
 7505POPC   PO433540  39.236   8.218   9.153
 7505POPC   GL133541  39.281   8.237   8.853
 7505POPC   GL233542  39.131   8.324   8.853
 7505POPC   C1A33543  39.209   8.173   8.553
 7505POPC   D2A33544  39.268   8.222   8.253
 7505POPC   C3A33545  39.218   8.208   7.953
 7505POPC   C4A33546  39.208   8.192   7.653
 7505POPC   C1B33547  39.103   8.336   8.553
 7505POPC   C2B33548  39.088   8.381   8.253
 7505POPC   C3B33549  39.030   8.339   7.953
 7505POPC   C4B33550  39.083   8.402   7.653
 7506POPC   NC333551  12.852   2.019   9.453
 7506POPC   PO433552  12.862   1.950   9.153
 7506POPC   GL133553  12.891   1.988   8.853
 7506POPC   GL233554  12.962   1.902   8.853
 7506POPC   C1A33555  12.859   1.956   8.553
 7506POPC   D2A33556  12.816   1.991   8.253
 7506POPC   C3A33557  12.852   1.970   7.953
 7506POPC   C4A33558  12.874   1.969   7.653
 7506POPC   C1B33559  13.027   1.764   8.553
 7506POPC   C2B33560  12.957   1.744   8.253
 7506POPC   C3B33561  13.018   1.766   7.953
 7506POPC   C4B33562  13.030   1.755   7.653
 7507POPC   NC333563  19.080   1.211   9.453
 7507POPC   PO433564  19.021   1.192   9.153
 7507POPC   GL133565  19.067   1.247   8.853
 7507POPC   GL233566  19.170   1.188   8.853
 7507POPC   C1A33567  19.029   1.164   8.553
 7507POPC   D2A33568  19.087   1.210   8.253
 7507POPC   C3A33569  19.026   1.179   7.953
 7507POPC   C4A33570  19.041   1.220   7.653
 7507POPC   C1B33571  19.311   1.246   8.553
 7507POPC   C2B33572  19.304   1.180   8.253
 7507POPC   C3B33573  19.309   1.159   7.953
 7507POPC   C4B33574  19.278   1.154   7.653
 7508POPC   NC333575  12.823  20.628   9.453
 7508POPC   PO433576  12.824  20.632   9.153
 7508POPC   GL133577  12.864  20.597   8.853
 7508POPC   GL233578  12.956  20.751   8.853
 7508POPC   C1A33579  12.849  20.580   8.553
 7508POPC   D2A33580  12.873  20.659   8.253
 7508POPC   C3A33581  12.881  20.659   7.953
 7508POPC   C4A33582  12.873  20.639   7.653
 7508POPC   C1B33583  12.963  20.822   8.553
 7508POPC   C2B33584  13.010  20.818   8.253
 7508POPC   C3B33585  13.011  20.828   7.953
 7508POPC   C4B33586  12.972  20.836   7.653
 7509POPC   NC333587  32.237  37.686   9.453
 7509POPC   PO433588  32.218  37.712   9.153
 7509POPC   GL133589  32.231  37.638   8.853
 7509POPC   GL233590  32.372  37.605   8.853
 7509POPC   C1A33591  32.278  37.631   8.553
 7509POPC   D2A33592  32.267  37.680   8.253
 7509POPC   C3A33593  32.259  37.703   7.953
 7509POPC   C4A33594  32.272  37.677   7.653
 7509POPC   C1B33595  32.450  37.486   8.553
 7509POPC   C2B33596  32.441  37.522   8.253
 7509POPC   C3B33597  32.389  37.470   7.953
 7509POPC   C4B33598  32.409  37.493   7.653
 7510POPC   NC333599   6.598  43.899   9.453
 7510POPC   PO433600   6.627  43.916   9.153
 7510POPC   GL133601   6.687  43.865   8.853
 7510POPC   GL233602   6.475  43.866   8.853
 7510POPC   C1A33603   6.599  43.866   8.553
 7510POPC   D2A33604   6.686  43.909   8.253
 7510POPC   C3A33605   6.642  43.878   7.953
 7510POPC   C4A33606   6.631  43.901   7.653
 7510POPC   C1B33607   6.386  43.894   8.553
 7510POPC   C2B33608   6.368  43.882   8.253
 7510POPC   C3B33609   6.388  43.840   7.953
 7510POPC   C4B33610   6.393  43.835   7.653
 7511POPC   NC333611   0.432  25.246   9.453
 7511POPC   PO433612   0.406  25.227   9.153
 7511POPC   GL133613   0.452  25.270   8.853
 7511POPC   GL233614   0.301  25.235   8.853
 7511POPC   C1A33615   0.419  25.292   8.553
 7511POPC   D2A33616   0.403  25.260   8.253
 7511POPC   C3A33617   0.470  25.237   7.953
 7511POPC   C4A33618   0.392  25.292   7.653
 7511POPC   C1B33619   0.145  25.266   8.553
 7511POPC   C2B33620   0.165  25.186   8.253
 7511POPC   C3B33621   0.168  25.255   7.953
 7511POPC   C4B33622   0.182  25.193   7.653
 7512POPC   NC333623  10.500  21.366   9.453
 7512POPC   PO433624  10.561  21.389   9.153
 7512POPC   GL133625  10.529  21.380   8.853
 7512POPC   GL233626  10.463  21.348   8.853
 7512POPC   C1A33627  10.482  21.389   8.553
 7512POPC   D2A33628  10.541  21.366   8.253
 7512POPC   C3A33629  10.498  21.347   7.953
 7512POPC   C4A33630  10.520  21.432   7.653
 7512POPC   C1B33631  10.354  21.296   8.553
 7512POPC   C2B33632  10.286  21.289   8.253
 7512POPC   C3B33633  10.325  21.240   7.953
 7512POPC   C4B33634  10.271  21.308   7.653
 7513POPC   NC333635  37.653   9.780   9.453
 7513POPC   PO433636  37.711   9.742   9.153
 7513POPC   GL133637  37.647   9.796   8.853
 7513POPC   GL233638  37.625   9.673   8.853
 7513POPC   C1A33639  37.667   9.773   8.553
 7513POPC   D2A33640  37.718   9.786   8.253
 7513POPC   C3A33641  37.655   9.788   7.953
 7513POPC   C4A33642  37.709   9.706   7.653
 7513POPC   C1B33643  37.495   9.525   8.553
 7513POPC   C2B33644  37.557   9.569   8.253
 7513POPC   C3B33645  37.522   9.565   7.953
 7513POPC   C4B33646  37.546   9.499   7.653
 7514POPC   NC333647  29.965  29.176   9.453
 7514POPC   PO433648  29.940  29.097   9.153
 7514POPC   GL133649  29.874  29.128   8.853
 7514POPC   GL233650  30.080  29.114   8.853
 7514POPC   C1A33651  29.880  29.157   8.553
 7514POPC   D2A33652  29.964  29.116   8.253
 7514POPC   C3A33653  29.939  29.144   7.953
 7514POPC   C4A33654  29.942  29.131   7.653
 7514POPC   C1B33655  30.151  29.018   8.553
 7514POPC   C2B33656  30.152  29.023   8.253
 7514POPC   C3B33657  30.145  29.047   7.953
 7514POPC   C4B33658  30.112  29.099   7.653
 7515POPC   NC333659  30.669  43.903   9.453
 7515POPC   PO433660  30.718  43.893   9.153
 7515POPC   GL133661  30.713  43.919   8.853
 7515POPC   GL233662  30.659  43.794   8.853
 7515POPC   C1A33663  30.666  43.897   8.553
 7515POPC   D2A33664  30.686  43.893   8.253
 7515POPC   C3A33665  30.673  43.930   7.953
 7515POPC   C4A33666  30.648  43.885   7.653
 7515POPC   C1B33667  30.507  43.728   8.553
 7515POPC   C2B33668  30.547  43.675   8.253
 7515POPC   C3B33669  30.537  43.655   7.953
 7515POPC   C4B33670  30.489  43.702   7.653
 7516POPC   NC333671  18.275  39.986   9.453
 7516POPC   PO433672  18.243  39.993   9.153
 7516POPC   GL133673  18.242  39.982   8.853
 7516POPC   GL233674  18.253  39.894   8.853
 7516POPC   C1A33675  18.298  39.958   8.553
 7516POPC   D2A33676  18.235  39.987   8.253
 7516POPC   C3A33677  18.272  40.033   7.953
 7516POPC   C4A33678  18.239  39.963   7.653
 7516POPC   C1B33679  18.182  39.807   8.553
 7516POPC   C2B33680  18.261  39.808   8.253
 7516POPC   C3B33681  18.170  39.794   7.953
 7516POPC   C4B33682  18.187  39.717   7.653
 7517POPC   NC333683   1.228  17.516   9.453
 7517POPC   PO433684   1.179  17.465   9.153
 7517POPC   GL133685   1.181  17.550   8.853
 7517POPC   GL233686   1.301  17.495   8.853
 7517POPC   C1A33687   1.167  17.479   8.553
 7517POPC   D2A33688   1.207  17.519   8.253
 7517POPC   C3A33689   1.207  17.534   7.953
 7517POPC   C4A33690   1.187  17.532   7.653
 7517POPC   C1B33691   1.498  17.410   8.553
 7517POPC   C2B33692   1.419  17.381   8.253
 7517POPC   C3B33693   1.477  17.459   7.953
 7517POPC   C4B33694   1.438  17.446   7.653
 7518POPC   NC333695   0.477  24.529   9.453
 7518POPC   PO433696   0.463  24.473   9.153
 7518POPC   GL133697   0.481  24.531   8.853
 7518POPC   GL233698   0.595  24.406   8.853
 7518POPC   C1A33699   0.438  24.490   8.553
 7518POPC   D2A33700   0.430  24.448   8.253
 7518POPC   C3A33701   0.486  24.476   7.953
 7518POPC   C4A33702   0.456  24.538   7.653
 7518POPC   C1B33703   0.699  24.405   8.553
 7518POPC   C2B33704   0.688  24.394   8.253
 7518POPC   C3B33705   0.620  24.405   7.953
 7518POPC   C4B33706   0.692  24.369   7.653
 7519POPC   NC333707  40.799  44.674   9.453
 7519POPC   PO433708  40.774  44.651   9.153
 7519POPC   GL133709  40.778  44.629   8.853
 7519POPC   GL233710  40.924  44.724   8.853
 7519POPC   C1A33711  40.829  44.639   8.553
 7519POPC   D2A33712  40.823  44.657   8.253
 7519POPC   C3A33713  40.814  44.651   7.953
 7519POPC   C4A33714  40.776  44.655   7.653
 7519POPC   C1B33715  40.932  44.864   8.553
 7519POPC   C2B33716  40.964  44.792   8.253
 7519POPC   C3B33717  40.988  44.877   7.953
 7519POPC   C4B33718  40.934  44.827   7.653
 7520POPC   NC333719   7.375  26.055   9.453
 7520POPC   PO433720   7.407  26.080   9.153
 7520POPC   GL133721   7.441  26.013   8.853
 7520POPC   GL233722   7.352  25.940   8.853
 7520POPC   C1A33723   7.411  26.006   8.553
 7520POPC   D2A33724   7.378  25.998   8.253
 7520POPC   C3A33725   7.463  25.994   7.953
 7520POPC   C4A33726   7.461  26.007   7.653
 7520POPC   C1B33727   7.241  25.824   8.553
 7520POPC   C2B33728   7.296  25.873   8.253
 7520POPC   C3B33729   7.233  25.857   7.953
 7520POPC   C4B33730   7.231  25.795   7.653
 7521POPC   NC333731  43.115  23.734   9.453
 7521POPC   PO433732  43.074  23.757   9.153
 7521POPC   GL133733  43.063  23.733   8.853
 7521POPC   GL233734  43.034  23.681   8.853
 7521POPC   C1A33735  43.098  23.725   8.553
 7521POPC   D2A33736  43.119  23.753   8.253
 7521POPC   C3A33737  43.075  23.710   7.953
 7521POPC   C4A33738  43.130  23.732   7.653
 7521POPC   C1B33739  42.916  23.550   8.553
 7521POPC   C2B33740  42.904  23.600   8.253
 7521POPC   C3B33741  42.865  23.603   7.953
 7521POPC   C4B33742  42.873  23.559   7.653
 7522POPC   NC333743  42.346  33.065   9.453
 7522POPC   PO433744  42.368  33.046   9.153
 7522POPC   GL133745  42.328  33.001   8.853
 7522POPC   GL233746  42.380  33.165   8.853
 7522POPC   C1A33747  42.308  32.981   8.553
 7522POPC   D2A33748  42.329  33.064   8.253
 7522POPC   C3A33749  42.314  33.058   7.953
 7522POPC   C4A33750  42.368  33.030   7.653
 7522POPC   C1B33751  42.375  33.270   8.553
 7522POPC   C2B33752  42.407  33.311   8.253
 7522POPC   C3B33753  42.396  33.258   7.953
 7522POPC   C4B33754  42.437  33.269   7.653
 7523POPC   NC333755  22.174  16.691   9.453
 7523POPC   PO433756  22.206  16.759   9.153
 7523POPC   GL133757  22.193  16.739   8.853
 7523POPC   GL233758  22.224  16.613   8.853
 7523POPC   C1A33759  22.191  16.759   8.553
 7523POPC   D2A33760  22.114  16.728   8.253
 7523POPC   C3A33761  22.131  16.780   7.953
 7523POPC   C4A33762  22.182  16.757   7.653
 7523POPC   C1B33763  22.352  16.589   8.553
 7523POPC   C2B33764  22.395  16.540   8.253
 7523POPC   C3B33765  22.398  16.585   7.953
 7523POPC   C4B33766  22.319  16.605   7.653
 7524POPC   NC333767  35.358  12.088   9.453
 7524POPC   PO433768  35.309  12.109   9.153
 7524POPC   GL133769  35.359  12.108   8.853
 7524POPC   GL233770  35.328  12.242   8.853
 7524POPC   C1A33771  35.340  12.097   8.553
 7524POPC   D2A33772  35.352  12.027   8.253
 7524POPC   C3A33773  35.346  12.071   7.953
 7524POPC   C4A33774  35.324  12.095   7.653
 7524POPC   C1B33775  35.246  12.341   8.553
 7524POPC   C2B33776  35.227  12.342   8.253
 7524POPC   C3B33777  35.243  12.308   7.953
 7524POPC   C4B33778  35.226  12.314   7.653
 7525POPC   NC333779   7.416  38.477   9.453
 7525POPC   PO433780   7.468  38.483   9.153
 7525POPC   GL133781   7.433  38.455   8.853
 7525POPC   GL233782   7.311  38.446   8.853
 7525POPC   C1A33783   7.371  38.444   8.553
 7525POPC   D2A33784   7.372  38.444   8.253
 7525POPC   C3A33785   7.425  38.412   7.953
 7525POPC   C4A33786   7.433  38.452   7.653
 7525POPC   C1B33787   7.178  38.373   8.553
 7525POPC   C2B33788   7.199  38.368   8.253
 7525POPC   C3B33789   7.183  38.401   7.953
 7525POPC   C4B33790   7.222  38.434   7.653
 7526POPC   NC333791  14.446  31.479   9.453
 7526POPC   PO433792  14.418  31.465   9.153
 7526POPC   GL133793  14.441  31.438   8.853
 7526POPC   GL233794  14.532  31.487   8.853
 7526POPC   C1A33795  14.398  31.430   8.553
 7526POPC   D2A33796  14.444  31.478   8.253
 7526POPC   C3A33797  14.360  31.438   7.953
 7526POPC   C4A33798  14.428  31.434   7.653
 7526POPC   C1B33799  14.663  31.534   8.553
 7526POPC   C2B33800  14.651  31.498   8.253
 7526POPC   C3B33801  14.627  31.503   7.953
 7526POPC   C4B33802  14.648  31.524   7.653
 7527POPC   NC333803   6.596  36.110   9.453
 7527POPC   PO433804   6.680  36.116   9.153
 7527POPC   GL133805   6.612  36.122   8.853
 7527POPC   GL233806   6.715  36.051   8.853
 7527POPC   C1A33807   6.678  36.119   8.553
 7527POPC   D2A33808   6.682  36.110   8.253
 7527POPC   C3A33809   6.694  36.078   7.953
 7527POPC   C4A33810   6.621  36.142   7.653
 7527POPC   C1B33811   6.820  35.951   8.553
 7527POPC   C2B33812   6.839  35.907   8.253
 7527POPC   C3B33813   6.867  35.985   7.953
 7527POPC   C4B33814   6.849  35.946   7.653
 7528POPC   NC333815  32.217   8.198   9.453
 7528POPC   PO433816  32.262   8.235   9.153
 7528POPC   GL133817  32.246   8.246   8.853
 7528POPC   GL233818  32.303   8.078   8.853
 7528POPC   C1A33819  32.297   8.233   8.553
 7528POPC   D2A33820  32.286   8.197   8.253
 7528POPC   C3A33821  32.283   8.158   7.953
 7528POPC   C4A33822  32.226   8.222   7.653
 7528POPC   C1B33823  32.384   7.936   8.553
 7528POPC   C2B33824  32.341   7.998   8.253
 7528POPC   C3B33825  32.388   8.014   7.953
 7528POPC   C4B33826  32.354   7.938   7.653
 7529POPC   NC333827  43.122  21.417   9.453
 7529POPC   PO433828  43.149  21.343   9.153
 7529POPC   GL133829  43.116  21.403   8.853
 7529POPC   GL233830  43.193  21.385   8.853
 7529POPC   C1A33831  43.148  21.393   8.553
 7529POPC   D2A33832  43.160  21.432   8.253
 7529POPC   C3A33833  43.144  21.391   7.953
 7529POPC   C4A33834  43.157  21.354   7.653
 7529POPC   C1B33835  43.320  21.355   8.553
 7529POPC   C2B33836  43.404  21.402   8.253
 7529POPC   C3B33837  43.369  21.387   7.953
 7529POPC   C4B33838  43.398  21.397   7.653
 7530POPC   NC333839  29.113   0.406   9.453
 7530POPC   PO433840  29.155   0.428   9.153
 7530POPC   GL133841  29.176   0.396   8.853
 7530POPC   GL233842  29.306   0.350   8.853
 7530POPC   C1A33843  29.195   0.410   8.553
 7530POPC   D2A33844  29.105   0.436   8.253
 7530POPC   C3A33845  29.123   0.417   7.953
 7530POPC   C4A33846  29.133   0.473   7.653
 7530POPC   C1B33847  29.363   0.369   8.553
 7530POPC   C2B33848  29.413   0.309   8.253
 7530POPC   C3B33849  29.342   0.319   7.953
 7530POPC   C4B33850  29.341   0.377   7.653
 7531POPC   NC333851   8.225  36.878   9.453
 7531POPC   PO433852   8.203  36.868   9.153
 7531POPC   GL133853   8.190  36.931   8.853
 7531POPC   GL233854   8.177  36.771   8.853
 7531POPC   C1A33855   8.184  36.864   8.553
 7531POPC   D2A33856   8.178  36.893   8.253
 7531POPC   C3A33857   8.199  36.914   7.953
 7531POPC   C4A33858   8.192  36.874   7.653
 7531POPC   C1B33859   8.218  36.695   8.553
 7531POPC   C2B33860   8.207  36.638   8.253
 7531POPC   C3B33861   8.279  36.696   7.953
 7531POPC   C4B33862   8.218  36.626   7.653
 7532POPC   NC333863  18.301   9.021   9.453
 7532POPC   PO433864  18.289   9.021   9.153
 7532POPC   GL133865  18.262   9.017   8.853
 7532POPC   GL233866  18.400   9.000   8.853
 7532POPC   C1A33867  18.281   8.955   8.553
 7532POPC   D2A33868  18.316   9.010   8.253
 7532POPC   C3A33869  18.264   9.014   7.953
 7532POPC   C4A33870  18.276   8.975   7.653
 7532POPC   C1B33871  18.530   9.136   8.553
 7532POPC   C2B33872  18.497   9.097   8.253
 7532POPC   C3B33873  18.465   9.082   7.953
 7532POPC   C4B33874  18.469   9.134   7.653
 7533POPC   NC333875  18.264   1.205   9.453
 7533POPC   PO433876  18.299   1.209   9.153
 7533POPC   GL133877  18.284   1.212   8.853
 7533POPC   GL233878  18.436   1.172   8.853
 7533POPC   C1A33879  18.288   1.261   8.553
 7533POPC   D2A33880  18.251   1.196   8.253
 7533POPC   C3A33881  18.246   1.228   7.953
 7533POPC   C4A33882  18.249   1.218   7.653
 7533POPC   C1B33883  18.487   1.217   8.553
 7533POPC   C2B33884  18.545   1.170   8.253
 7533POPC   C3B33885  18.489   1.148   7.953
 7533POPC   C4B33886  18.523   1.154   7.653
 7534POPC   NC333887  35.318  29.929   9.453
 7534POPC   PO433888  35.312  29.879   9.153
 7534POPC   GL133889  35.305  29.928   8.853
 7534POPC   GL233890  35.496  29.981   8.853
 7534POPC   C1A33891  35.390  29.906   8.553
 7534POPC   D2A33892  35.318  29.938   8.253
 7534POPC   C3A33893  35.381  29.913   7.953
 7534POPC   C4A33894  35.333  29.930   7.653
 7534POPC   C1B33895  35.581  29.964   8.553
 7534POPC   C2B33896  35.583  29.986   8.253
 7534POPC   C3B33897  35.614  29.906   7.953
 7534POPC   C4B33898  35.648  29.934   7.653
 7535POPC   NC333899   8.180   7.450   9.453
 7535POPC   PO433900   8.172   7.452   9.153
 7535POPC   GL133901   8.203   7.447   8.853
 7535POPC   GL233902   8.262   7.540   8.853
 7535POPC   C1A33903   8.224   7.409   8.553
 7535POPC   D2A33904   8.163   7.435   8.253
 7535POPC   C3A33905   8.245   7.382   7.953
 7535POPC   C4A33906   8.233   7.383   7.653
 7535POPC   C1B33907   8.335   7.590   8.553
 7535POPC   C2B33908   8.279   7.608   8.253
 7535POPC   C3B33909   8.351   7.608   7.953
 7535POPC   C4B33910   8.374   7.615   7.653
 7536POPC   NC333911  42.357  10.520   9.453
 7536POPC   PO433912  42.290  10.530   9.153
 7536POPC   GL133913  42.343  10.539   8.853
 7536POPC   GL233914  42.325  10.402   8.853
 7536POPC   C1A33915  42.294  10.551   8.553
 7536POPC   D2A33916  42.349  10.522   8.253
 7536POPC   C3A33917  42.317  10.526   7.953
 7536POPC   C4A33918  42.321  10.524   7.653
 7536POPC   C1B33919  42.241  10.311   8.553
 7536POPC   C2B33920  42.257  10.266   8.253
 7536POPC   C3B33921  42.257  10.301   7.953
 7536POPC   C4B33922  42.216  10.271   7.653
 7537POPC   NC333923   5.078  27.616   9.453
 7537POPC   PO433924   5.137  27.585   9.153
 7537POPC   GL133925   5.132  27.559   8.853
 7537POPC   GL233926   4.987  27.660   8.853
 7537POPC   C1A33927   5.067  27.642   8.553
 7537POPC   D2A33928   5.097  27.621   8.253
 7537POPC   C3A33929   5.114  27.614   7.953
 7537POPC   C4A33930   5.077  27.613   7.653
 7537POPC   C1B33931   4.841  27.652   8.553
 7537POPC   C2B33932   4.867  27.628   8.253
 7537POPC   C3B33933   4.821  27.706   7.953
 7537POPC   C4B33934   4.891  27.664   7.653
 7538POPC   NC333935  36.164  23.716   9.453
 7538POPC   PO433936  36.173  23.708   9.153
 7538POPC   GL133937  36.142  23.749   8.853
 7538POPC   GL233938  36.019  23.723   8.853
 7538POPC   C1A33939  36.123  23.711   8.553
 7538POPC   D2A33940  36.094  23.686   8.253
 7538POPC   C3A33941  36.114  23.733   7.953
 7538POPC   C4A33942  36.172  23.672   7.653
 7538POPC   C1B33943  35.892  23.695   8.553
 7538POPC   C2B33944  35.857  23.707   8.253
 7538POPC   C3B33945  35.840  23.692   7.953
 7538POPC   C4B33946  35.924  23.745   7.653
 7539POPC   NC333947  13.652  26.805   9.453
 7539POPC   PO433948  13.588  26.845   9.153
 7539POPC   GL133949  13.591  26.778   8.853
 7539POPC   GL233950  13.703  26.848   8.853
 7539POPC   C1A33951  13.587  26.778   8.553
 7539POPC   D2A33952  13.623  26.827   8.253
 7539POPC   C3A33953  13.622  26.843   7.953
 7539POPC   C4A33954  13.642  26.810   7.653
 7539POPC   C1B33955  13.817  26.928   8.553
 7539POPC   C2B33956  13.880  26.956   8.253
 7539POPC   C3B33957  13.820  26.924   7.953
 7539POPC   C4B33958  13.873  26.942   7.653
 7540POPC   NC333959  19.821  41.546   9.453
 7540POPC   PO433960  19.790  41.592   9.153
 7540POPC   GL133961  19.872  41.603   8.853
 7540POPC   GL233962  19.909  41.606   8.853
 7540POPC   C1A33963  19.796  41.603   8.553
 7540POPC   D2A33964  19.804  41.509   8.253
 7540POPC   C3A33965  19.815  41.549   7.953
 7540POPC   C4A33966  19.866  41.572   7.653
 7540POPC   C1B33967  20.076  41.718   8.553
 7540POPC   C2B33968  20.081  41.691   8.253
 7540POPC   C3B33969  19.996  41.740   7.953
 7540POPC   C4B33970  20.066  41.670   7.653
 7541POPC   NC333971  43.087  26.085   9.453
 7541POPC   PO433972  43.113  26.000   9.153
 7541POPC   GL133973  43.076  26.004   8.853
 7541POPC   GL233974  43.173  26.165   8.853
 7541POPC   C1A33975  43.102  26.048   8.553
 7541POPC   D2A33976  43.154  26.078   8.253
 7541POPC   C3A33977  43.090  26.038   7.953
 7541POPC   C4A33978  43.146  26.079   7.653
 7541POPC   C1B33979  43.312  26.213   8.553
 7541POPC   C2B33980  43.313  26.200   8.253
 7541POPC   C3B33981  43.233  26.207   7.953
 7541POPC   C4B33982  43.323  26.209   7.653
 7542POPC   NC333983  21.343   5.131   9.453
 7542POPC   PO433984  21.341   5.071   9.153
 7542POPC   GL133985  21.373   5.045   8.853
 7542POPC   GL233986  21.270   5.140   8.853
 7542POPC   C1A33987  21.340   5.099   8.553
 7542POPC   D2A33988  21.354   5.133   8.253
 7542POPC   C3A33989  21.401   5.078   7.953
 7542POPC   C4A33990  21.345   5.126   7.653
 7542POPC   C1B33991  21.149   5.183   8.553
 7542POPC   C2B33992  21.114   5.182   8.253
 7542POPC   C3B33993  21.124   5.230   7.953
 7542POPC   C4B33994  21.115   5.238   7.653
 7543POPC   NC333995  42.346  26.788   9.453
 7543POPC   PO433996  42.360  26.853   9.153
 7543POPC   GL133997  42.366  26.824   8.853
 7543POPC   GL233998  42.231  26.903   8.853
 7543POPC   C1A33999  42.362  26.781   8.553
 7543POPC   D2A34000  42.359  26.789   8.253
 7543POPC   C3A34001  42.348  26.783   7.953
 7543POPC   C4A34002  42.319  26.774   7.653
 7543POPC   C1B34003  42.123  27.026   8.553
 7543POPC   C2B34004  42.179  27.026   8.253
 7543POPC   C3B34005  42.166  27.018   7.953
 7543POPC   C4B34006  42.132  27.015   7.653
 7544POPC   NC334007  43.910   5.052   9.453
 7544POPC   PO434008  43.889   5.069   9.153
 7544POPC   GL134009  43.930   5.053   8.853
 7544POPC   GL234010  43.937   5.191   8.853
 7544POPC   C1A34011  43.898   5.060   8.553
 7544POPC   D2A34012  43.855   5.141   8.253
 7544POPC   C3A34013  43.902   5.069   7.953
 7544POPC   C4A34014  43.887   5.097   7.653
 7544POPC   C1B34015  43.945   5.371   8.553
 7544POPC   C2B34016  43.876   5.354   8.253
 7544POPC   C3B34017  43.905   5.304   7.953
 7544POPC   C4B34018  43.934   5.302   7.653
 7545POPC   NC334019   4.289  40.035   9.453
 7545POPC   PO434020   4.324  39.958   9.153
 7545POPC   GL134021   4.347  39.979   8.853
 7545POPC   GL234022   4.257  40.133   8.853
 7545POPC   C1A34023   4.363  40.034   8.553
 7545POPC   D2A34024   4.277  40.006   8.253
 7545POPC   C3A34025   4.283  39.993   7.953
 7545POPC   C4A34026   4.276  39.992   7.653
 7545POPC   C1B34027   4.154  40.160   8.553
 7545POPC   C2B34028   4.143  40.227   8.253
 7545POPC   C3B34029   4.105  40.182   7.953
 7545POPC   C4B34030   4.123  40.161   7.653
 7546POPC   NC334031   6.663  24.524   9.453
 7546POPC   PO434032   6.613  24.502   9.153
 7546POPC   GL134033   6.667  24.446   8.853
 7546POPC   GL234034   6.567  24.377   8.853
 7546POPC   C1A34035   6.694  24.509   8.553
 7546POPC   D2A34036   6.629  24.486   8.253
 7546POPC   C3A34037   6.687  24.467   7.953
 7546POPC   C4A34038   6.637  24.502   7.653
 7546POPC   C1B34039   6.466  24.279   8.553
 7546POPC   C2B34040   6.436  24.303   8.253
 7546POPC   C3B34041   6.440  24.284   7.953
 7546POPC   C4B34042   6.484  24.360   7.653
 7547POPC   NC334043   2.796  26.028   9.453
 7547POPC   PO434044   2.792  25.995   9.153
 7547POPC   GL134045   2.782  26.011   8.853
 7547POPC   GL234046   2.725  26.113   8.853
 7547POPC   C1A34047   2.791  26.085   8.553
 7547POPC   D2A34048   2.791  26.019   8.253
 7547POPC   C3A34049   2.781  26.028   7.953
 7547POPC   C4A34050   2.809  25.993   7.653
 7547POPC   C1B34051   2.674  26.218   8.553
 7547POPC   C2B34052   2.634  26.303   8.253
 7547POPC   C3B34053   2.634  26.253   7.953
 7547POPC   C4B34054   2.597  26.230   7.653
 7548POPC   NC334055   7.428   2.760   9.453
 7548POPC   PO434056   7.417   2.751   9.153
 7548POPC   GL134057   7.382   2.727   8.853
 7548POPC   GL234058   7.257   2.759   8.853
 7548POPC   C1A34059   7.377   2.782   8.553
 7548POPC   D2A34060   7.420   2.716   8.253
 7548POPC   C3A34061   7.402   2.782   7.953
 7548POPC   C4A34062   7.459   2.803   7.653
 7548POPC   C1B34063   7.154   2.774   8.553
 7548POPC   C2B34064   7.215   2.773   8.253
 7548POPC   C3B34065   7.197   2.722   7.953
 7548POPC   C4B34066   7.212   2.686   7.653
 7549POPC   NC334067   5.076  30.731   9.453
 7549POPC   PO434068   5.109  30.655   9.153
 7549POPC   GL134069   5.124  30.662   8.853
 7549POPC   GL234070   5.059  30.573   8.853
 7549POPC   C1A34071   5.094  30.696   8.553
 7549POPC   D2A34072   5.068  30.656   8.253
 7549POPC   C3A34073   5.083  30.687   7.953
 7549POPC   C4A34074   5.066  30.702   7.653
 7549POPC   C1B34075   5.064  30.476   8.553
 7549POPC   C2B34076   4.979  30.482   8.253
 7549POPC   C3B34077   5.017  30.412   7.953
 7549POPC   C4B34078   5.022  30.433   7.653
 7550POPC   NC334079  17.495   0.400   9.453
 7550POPC   PO434080  17.512   0.487   9.153
 7550POPC   GL134081  17.478   0.460   8.853
 7550POPC   GL234082  17.394   0.340   8.853
 7550POPC   C1A34083  17.461   0.435   8.553
 7550POPC   D2A34084  17.473   0.461   8.253
 7550POPC   C3A34085  17.521   0.406   7.953
 7550POPC   C4A34086  17.518   0.400   7.653
 7550POPC   C1B34087  17.325   0.337   8.553
 7550POPC   C2B34088  17.328   0.331   8.253
 7550POPC   C3B34089  17.337   0.335   7.953
 7550POPC   C4B34090  17.292   0.334   7.653
 7551POPC   NC334091  26.005  30.733   9.453
 7551POPC   PO434092  26.023  30.653   9.153
 7551POPC   GL134093  25.995  30.669   8.853
 7551POPC   GL234094  26.156  30.748   8.853
 7551POPC   C1A34095  25.993  30.652   8.553
 7551POPC   D2A34096  25.999  30.737   8.253
 7551POPC   C3A34097  26.075  30.673   7.953
 7551POPC   C4A34098  26.083  30.742   7.653
 7551POPC   C1B34099  26.188  30.874   8.553
 7551POPC   C2B34100  26.226  30.930   8.253
 7551POPC   C3B34101  26.230  30.908   7.953
 7551POPC   C4B34102  26.168  30.836   7.653
 7552POPC   NC334103  43.931  23.759   9.453
 7552POPC   PO434104  43.839  23.664   9.153
 7552POPC   GL134105  43.838  23.725   8.853
 7552POPC   GL234106  43.968  23.740   8.853
 7552POPC   C1A34107  43.899  23.763   8.553
 7552POPC   D2A34108  43.914  23.664   8.253
 7552POPC   C3A34109  43.931  23.735   7.953
 7552POPC   C4A34110  43.909  23.747   7.653
 7552POPC   C1B34111  44.087  23.754   8.553
 7552POPC   C2B34112  44.182  23.674   8.253
 7552POPC   C3B34113  44.165  23.713   7.953
 7552POPC   C4B34114  44.162  23.687   7.653
 7553POPC   NC334115  24.523  15.159   9.453
 7553POPC   PO434116  24.510  15.176   9.153
 7553POPC   GL134117  24.488  15.130   8.853
 7553POPC   GL234118  24.582  15.290   8.853
 7553POPC   C1A34119  24.444  15.189   8.553
 7553POPC   D2A34120  24.445  15.180   8.253
 7553POPC   C3A34121  24.490  15.160   7.953
 7553POPC   C4A34122  24.524  15.215   7.653
 7553POPC   C1B34123  24.598  15.455   8.553
 7553POPC   C2B34124  24.578  15.431   8.253
 7553POPC   C3B34125  24.596  15.416   7.953
 7553POPC   C4B34126  24.532  15.420   7.653
 7554POPC   NC334127  22.963  27.591   9.453
 7554POPC   PO434128  22.957  27.608   9.153
 7554POPC   GL134129  22.963  27.633   8.853
 7554POPC   GL234130  22.821  27.566   8.853
 7554POPC   C1A34131  22.979  27.572   8.553
 7554POPC   D2A34132  22.952  27.637   8.253
 7554POPC   C3A34133  22.902  27.642   7.953
 7554POPC   C4A34134  22.965  27.543   7.653
 7554POPC   C1B34135  22.733  27.656   8.553
 7554POPC   C2B34136  22.706  27.628   8.253
 7554POPC   C3B34137  22.735  27.640   7.953
 7554POPC   C4B34138  22.676  27.632   7.653
 7555POPC   NC334139   1.949  44.627   9.453
 7555POPC   PO434140   1.956  44.633   9.153
 7555POPC   GL134141   2.035  44.692   8.853
 7555POPC   GL234142   2.077  44.545   8.853
 7555POPC   C1A34143   1.985  44.663   8.553
 7555POPC   D2A34144   1.943  44.695   8.253
 7555POPC   C3A34145   2.033  44.618   7.953
 7555POPC   C4A34146   1.987  44.617   7.653
 7555POPC   C1B34147   2.106  44.439   8.553
 7555POPC   C2B34148   2.052  44.455   8.253
 7555POPC   C3B34149   2.063  44.480   7.953
 7555POPC   C4B34150   2.081  44.429   7.653
 7556POPC   NC334151  38.406   6.608   9.453
 7556POPC   PO434152  38.484   6.598   9.153
 7556POPC   GL134153  38.459   6.607   8.853
 7556POPC   GL234154  38.432   6.505   8.853
 7556POPC   C1A34155  38.504   6.627   8.553
 7556POPC   D2A34156  38.478   6.659   8.253
 7556POPC   C3A34157  38.477   6.694   7.953
 7556POPC   C4A34158  38.439   6.616   7.653
 7556POPC   C1B34159  38.409   6.359   8.553
 7556POPC   C2B34160  38.451   6.416   8.253
 7556POPC   C3B34161  38.440   6.362   7.953
 7556POPC   C4B34162  38.436   6.410   7.653
 7557POPC   NC334163   1.978   3.533   9.453
 7557POPC   PO434164   1.979   3.520   9.153
 7557POPC   GL134165   1.969   3.560   8.853
 7557POPC   GL234166   1.992   3.400   8.853
 7557POPC   C1A34167   2.030   3.519   8.553
 7557POPC   D2A34168   1.960   3.542   8.253
 7557POPC   C3A34169   2.037   3.548   7.953
 7557POPC   C4A34170   1.942   3.516   7.653
 7557POPC   C1B34171   2.096   3.268   8.553
 7557POPC   C2B34172   2.053   3.319   8.253
 7557POPC   C3B34173   2.076   3.313   7.953
 7557POPC   C4B34174   2.035   3.359   7.653
 7558POPC   NC334175  34.560  16.771   9.453
 7558POPC   PO434176  34.534  16.766   9.153
 7558POPC   GL134177  34.545  16.752   8.853
 7558POPC   GL234178  34.565  16.842   8.853
 7558POPC   C1A34179  34.545  16.723   8.553
 7558POPC   D2A34180  34.613  16.759   8.253
 7558POPC   C3A34181  34.534  16.719   7.953
 7558POPC   C4A34182  34.533  16.696   7.653
 7558POPC   C1B34183  34.443  16.958   8.553
 7558POPC   C2B34184  34.430  16.945   8.253
 7558POPC   C3B34185  34.427  16.985   7.953
 7558POPC   C4B34186  34.500  16.920   7.653
 7559POPC   NC334187  13.593   6.599   9.453
 7559POPC   PO434188  13.627   6.655   9.153
 7559POPC   GL134189  13.674   6.607   8.853
 7559POPC   GL234190  13.793   6.664   8.853
 7559POPC   C1A34191  13.649   6.659   8.553
 7559POPC   D2A34192  13.644   6.635   8.253
 7559POPC   C3A34193  13.671   6.659   7.953
 7559POPC   C4A34194  13.641   6.671   7.653
 7559POPC   C1B34195  13.885   6.670   8.553
 7559POPC   C2B34196  13.873   6.674   8.253
 7559POPC   C3B34197  13.862   6.653   7.953
 7559POPC   C4B34198  13.856   6.665   7.653
 7560POPC   NC334199  15.229  38.425   9.453
 7560POPC   PO434200  15.170  38.425   9.153
 7560POPC   GL134201  15.177  38.435   8.853
 7560POPC   GL234202  15.319  38.386   8.853
 7560POPC   C1A34203  15.135  38.434   8.553
 7560POPC   D2A34204  15.213  38.432   8.253
 7560POPC   C3A34205  15.202  38.436   7.953
 7560POPC   C4A34206  15.129  38.493   7.653
 7560POPC   C1B34207  15.409  38.254   8.553
 7560POPC   C2B34208  15.333  38.310   8.253
 7560POPC   C3B34209  15.330  38.284   7.953
 7560POPC   C4B34210  15.314  38.236   7.653
 7561POPC   NC334211   3.511  16.766   9.453
 7561POPC   PO434212   3.582  16.777   9.153
 7561POPC   GL134213   3.560  16.762   8.853
 7561POPC   GL234214   3.664  16.828   8.853
 7561POPC   C1A34215   3.510  16.739   8.553
 7561POPC   D2A34216   3.584  16.682   8.253
 7561POPC   C3A34217   3.562  16.722   7.953
 7561POPC   C4A34218   3.493  16.727   7.653
 7561POPC   C1B34219   3.767  16.844   8.553
 7561POPC   C2B34220   3.804  16.854   8.253
 7561POPC   C3B34221   3.745  16.839   7.953
 7561POPC   C4B34222   3.803  16.789   7.653
 7562POPC   NC334223   2.010  20.607   9.453
 7562POPC   PO434224   2.035  20.624   9.153
 7562POPC   GL134225   2.001  20.632   8.853
 7562POPC   GL234226   1.895  20.731   8.853
 7562POPC   C1A34227   1.946  20.601   8.553
 7562POPC   D2A34228   1.998  20.608   8.253
 7562POPC   C3A34229   1.982  20.579   7.953
 7562POPC   C4A34230   1.978  20.612   7.653
 7562POPC   C1B34231   1.741  20.740   8.553
 7562POPC   C2B34232   1.778  20.772   8.253
 7562POPC   C3B34233   1.834  20.771   7.953
 7562POPC   C4B34234   1.741  20.729   7.653
 7563POPC   NC334235  29.139  15.994   9.453
 7563POPC   PO434236  29.121  15.975   9.153
 7563POPC   GL134237  29.100  15.979   8.853
 7563POPC   GL234238  29.280  15.916   8.853
 7563POPC   C1A34239  29.115  15.980   8.553
 7563POPC   D2A34240  29.192  15.960   8.253
 7563POPC   C3A34241  29.108  15.943   7.953
 7563POPC   C4A34242  29.165  15.993   7.653
 7563POPC   C1B34243  29.414  15.869   8.553
 7563POPC   C2B34244  29.412  15.863   8.253
 7563POPC   C3B34245  29.389  15.858   7.953
 7563POPC   C4B34246  29.344  15.842   7.653
 7564POPC   NC334247  21.421  42.322   9.453
 7564POPC   PO434248  21.392  42.381   9.153
 7564POPC   GL134249  21.423  42.345   8.853
 7564POPC   GL234250  21.512  42.326   8.853
 7564POPC   C1A34251  21.377  42.295   8.553
 7564POPC   D2A34252  21.346  42.313   8.253
 7564POPC   C3A34253  21.424  42.323   7.953
 7564POPC   C4A34254  21.397  42.331   7.653
 7564POPC   C1B34255  21.668  42.356   8.553
 7564POPC   C2B34256  21.684  42.304   8.253
 7564POPC   C3B34257  21.652  42.297   7.953
 7564POPC   C4B34258  21.592  42.340   7.653
 7565POPC   NC334259  33.809  28.405   9.453
 7565POPC   PO434260  33.775  28.371   9.153
 7565POPC   GL134261  33.798  28.358   8.853
 7565POPC   GL234262  33.890  28.380   8.853
 7565POPC   C1A34263  33.827  28.352   8.553
 7565POPC   D2A34264  33.778  28.331   8.253
 7565POPC   C3A34265  33.806  28.384   7.953
 7565POPC   C4A34266  33.751  28.354   7.653
 7565POPC   C1B34267  34.008  28.294   8.553
 7565POPC   C2B34268  34.085  28.314   8.253
 7565POPC   C3B34269  34.070  28.257   7.953
 7565POPC   C4B34270  34.085  28.315   7.653
 7566POPC   NC334271  22.184  12.883   9.453
 7566POPC   PO434272  22.160  12.826   9.153
 7566POPC   GL134273  22.115  12.809   8.853
 7566POPC   GL234274  22.245  12.729   8.853
 7566POPC   C1A34275  22.193  12.899   8.553
 7566POPC   D2A34276  22.175  12.883   8.253
 7566POPC   C3A34277  22.114  12.835   7.953
 7566POPC   C4A34278  22.189  12.828   7.653
 7566POPC   C1B34279  22.359  12.697   8.553
 7566POPC   C2B34280  22.395  12.666   8.253
 7566POPC   C3B34281  22.388  12.752   7.953
 7566POPC   C4B34282  22.391  12.696   7.653
 7567POPC   NC334283   0.486   5.107   9.453
 7567POPC   PO434284   0.474   5.079   9.153
 7567POPC   GL134285   0.471   5.118   8.853
 7567POPC   GL234286   0.425   4.954   8.853
 7567POPC   C1A34287   0.451   5.089   8.553
 7567POPC   D2A34288   0.460   5.134   8.253
 7567POPC   C3A34289   0.454   5.075   7.953
 7567POPC   C4A34290   0.459   5.073   7.653
 7567POPC   C1B34291   0.390   4.852   8.553
 7567POPC   C2B34292   0.342   4.832   8.253
 7567POPC   C3B34293   0.365   4.874   7.953
 7567POPC   C4B34294   0.339   4.809   7.653
 7568POPC   NC334295   6.681  26.079   9.453
 7568POPC   PO434296   6.681  26.056   9.153
 7568POPC   GL134297   6.671  26.046   8.853
 7568POPC   GL234298   6.722  25.934   8.853
 7568POPC   C1A34299   6.595  26.085   8.553
 7568POPC   D2A34300   6.659  26.026   8.253
 7568POPC   C3A34301   6.606  26.060   7.953
 7568POPC   C4A34302   6.603  26.002   7.653
 7568POPC   C1B34303   6.869  25.872   8.553
 7568POPC   C2B34304   6.864  25.878   8.253
 7568POPC   C3B34305   6.892  25.884   7.953
 7568POPC   C4B34306   6.818  25.854   7.653
 7569POPC   NC334307   7.400  42.318   9.453
 7569POPC   PO434308   7.400  42.364   9.153
 7569POPC   GL134309   7.413  42.332   8.853
 7569POPC   GL234310   7.397  42.464   8.853
 7569POPC   C1A34311   7.454  42.295   8.553
 7569POPC   D2A34312   7.442  42.347   8.253
 7569POPC   C3A34313   7.402  42.346   7.953
 7569POPC   C4A34314   7.469  42.331   7.653
 7569POPC   C1B34315   7.247  42.510   8.553
 7569POPC   C2B34316   7.308  42.586   8.253
 7569POPC   C3B34317   7.310  42.542   7.953
 7569POPC   C4B34318   7.312  42.575   7.653
 7570POPC   NC334319  43.155  24.475   9.453
 7570POPC   PO434320  43.086  24.500   9.153
 7570POPC   GL134321  43.097  24.468   8.853
 7570POPC   GL234322  43.179  24.418   8.853
 7570POPC   C1A34323  43.111  24.467   8.553
 7570POPC   D2A34324  43.131  24.505   8.253
 7570POPC   C3A34325  43.105  24.440   7.953
 7570POPC   C4A34326  43.090  24.513   7.653
 7570POPC   C1B34327  43.252  24.236   8.553
 7570POPC   C2B34328  43.239  24.293   8.253
 7570POPC   C3B34329  43.244  24.306   7.953
 7570POPC   C4B34330  43.233  24.242   7.653
 7571POPC   NC334331   6.604  33.765   9.453
 7571POPC   PO434332   6.651  33.817   9.153
 7571POPC   GL134333   6.647  33.800   8.853
 7571POPC   GL234334   6.786  33.791   8.853
 7571POPC   C1A34335   6.646  33.762   8.553
 7571POPC   D2A34336   6.674  33.767   8.253
 7571POPC   C3A34337   6.659  33.780   7.953
 7571POPC   C4A34338   6.672  33.825   7.653
 7571POPC   C1B34339   6.926  33.737   8.553
 7571POPC   C2B34340   6.901  33.746   8.253
 7571POPC   C3B34341   6.871  33.755   7.953
 7571POPC   C4B34342   6.922  33.698   7.653
 7572POPC   NC334343  11.326  19.840   9.453
 7572POPC   PO434344  11.261  19.852   9.153
 7572POPC   GL134345  11.342  19.865   8.853
 7572POPC   GL234346  11.424  19.856   8.853
 7572POPC   C1A34347  11.255  19.862   8.553
 7572POPC   D2A34348  11.276  19.822   8.253
 7572POPC   C3A34349  11.311  19.787   7.953
 7572POPC   C4A34350  11.293  19.882   7.653
 7572POPC   C1B34351  11.522  19.960   8.553
 7572POPC   C2B34352  11.508  19.976   8.253
 7572POPC   C3B34353  11.544  19.999   7.953
 7572POPC   C4B34354  11.476  20.013   7.653
 7573POPC   NC334355   3.545   0.398   9.453
 7573POPC   PO434356   3.561   0.470   9.153
 7573POPC   GL134357   3.560   0.445   8.853
 7573POPC   GL234358   3.586   0.496   8.853
 7573POPC   C1A34359   3.549   0.430   8.553
 7573POPC   D2A34360   3.562   0.404   8.253
 7573POPC   C3A34361   3.494   0.466   7.953
 7573POPC   C4A34362   3.584   0.412   7.653
 7573POPC   C1B34363   3.659   0.614   8.553
 7573POPC   C2B34364   3.735   0.670   8.253
 7573POPC   C3B34365   3.668   0.665   7.953
 7573POPC   C4B34366   3.718   0.657   7.653
 7574POPC   NC334367  39.279  36.865   9.453
 7574POPC   PO434368  39.255  36.902   9.153
 7574POPC   GL134369  39.240  36.865   8.853
 7574POPC   GL234370  39.295  36.980   8.853
 7574POPC   C1A34371  39.247  36.915   8.553
 7574POPC   D2A34372  39.250  36.930   8.253
 7574POPC   C3A34373  39.200  36.933   7.953
 7574POPC   C4A34374  39.277  36.867   7.653
 7574POPC   C1B34375  39.380  37.048   8.553
 7574POPC   C2B34376  39.349  37.067   8.253
 7574POPC   C3B34377  39.391  37.107   7.953
 7574POPC   C4B34378  39.422  37.140   7.653
 7575POPC   NC334379  11.254  20.588   9.453
 7575POPC   PO434380  11.298  20.570   9.153
 7575POPC   GL134381  11.303  20.603   8.853
 7575POPC   GL234382  11.427  20.497   8.853
 7575POPC   C1A34383  11.319  20.646   8.553
 7575POPC   D2A34384  11.292  20.604   8.253
 7575POPC   C3A34385  11.336  20.615   7.953
 7575POPC   C4A34386  11.338  20.621   7.653
 7575POPC   C1B34387  11.494  20.406   8.553
 7575POPC   C2B34388  11.448  20.418   8.253
 7575POPC   C3B34389  11.484  20.439   7.953
 7575POPC   C4B34390  11.455  20.475   7.653
 7576POPC   NC334391  12.094  38.422   9.453
 7576POPC   PO434392  12.077  38.487   9.153
 7576POPC   GL134393  12.101  38.431   8.853
 7576POPC   GL234394  12.174  38.443   8.853
 7576POPC   C1A34395  12.093  38.417   8.553
 7576POPC   D2A34396  12.043  38.469   8.253
 7576POPC   C3A34397  12.079  38.405   7.953
 7576POPC   C4A34398  12.036  38.427   7.653
 7576POPC   C1B34399  12.345  38.533   8.553
 7576POPC   C2B34400  12.319  38.462   8.253
 7576POPC   C3B34401  12.297  38.503   7.953
 7576POPC   C4B34402  12.317  38.480   7.653
 7577POPC   NC334403   5.916  29.151   9.453
 7577POPC   PO434404   5.845  29.172   9.153
 7577POPC   GL134405   5.841  29.147   8.853
 7577POPC   GL234406   5.996  29.085   8.853
 7577POPC   C1A34407   5.904  29.175   8.553
 7577POPC   D2A34408   5.835  29.124   8.253
 7577POPC   C3A34409   5.860  29.127   7.953
 7577POPC   C4A34410   5.887  29.156   7.653
 7577POPC   C1B34411   6.072  29.077   8.553
 7577POPC   C2B34412   6.070  29.073   8.253
 7577POPC   C3B34413   6.101  29.148   7.953
 7577POPC   C4B34414   6.100  29.150   7.653
 7578POPC   NC334415   3.492   4.362   9.453
 7578POPC   PO434416   3.516   4.284   9.153
 7578POPC   GL134417   3.558   4.366   8.853
 7578POPC   GL234418   3.536   4.224   8.853
 7578POPC   C1A34419   3.500   4.343   8.553
 7578POPC   D2A34420   3.516   4.280   8.253
 7578POPC   C3A34421   3.557   4.285   7.953
 7578POPC   C4A34422   3.559   4.303   7.653
 7578POPC   C1B34423   3.493   4.103   8.553
 7578POPC   C2B34424   3.504   4.096   8.253
 7578POPC   C3B34425   3.530   4.066   7.953
 7578POPC   C4B34426   3.501   4.090   7.653
 7579POPC   NC334427  34.603  12.887   9.453
 7579POPC   PO434428  34.575  12.902   9.153
 7579POPC   GL134429  34.564  12.803   8.853
 7579POPC   GL234430  34.651  12.888   8.853
 7579POPC   C1A34431  34.528  12.855   8.553
 7579POPC   D2A34432  34.539  12.809   8.253
 7579POPC   C3A34433  34.564  12.898   7.953
 7579POPC   C4A34434  34.536  12.870   7.653
 7579POPC   C1B34435  34.808  12.938   8.553
 7579POPC   C2B34436  34.816  12.925   8.253
 7579POPC   C3B34437  34.793  12.931   7.953
 7579POPC   C4B34438  34.816  12.966   7.653
 7580POPC   NC334439  43.085  44.686   9.453
 7580POPC   PO434440  43.148  44.670   9.153
 7580POPC   GL134441  43.101  44.690   8.853
 7580POPC   GL234442  43.201  44.790   8.853
 7580POPC   C1A34443  43.112  44.684   8.553
 7580POPC   D2A34444  43.147  44.708   8.253
 7580POPC   C3A34445  43.093  44.684   7.953
 7580POPC   C4A34446  43.100  44.623   7.653
 7580POPC   C1B34447  43.268  44.831   8.553
 7580POPC   C2B34448  43.260  44.829   8.253
 7580POPC   C3B34449  43.217  44.850   7.953
 7580POPC   C4B34450  43.299  44.916   7.653
 7581POPC   NC334451  33.825   4.296   9.453
 7581POPC   PO434452  33.779   4.320   9.153
 7581POPC   GL134453  33.840   4.291   8.853
 7581POPC   GL234454  33.946   4.311   8.853
 7581POPC   C1A34455  33.845   4.355   8.553
 7581POPC   D2A34456  33.838   4.287   8.253
 7581POPC   C3A34457  33.842   4.271   7.953
 7581POPC   C4A34458  33.757   4.315   7.653
 7581POPC   C1B34459  34.027   4.223   8.553
 7581POPC   C2B34460  34.036   4.214   8.253
 7581POPC   C3B34461  34.040   4.195   7.953
 7581POPC   C4B34462  33.997   4.283   7.653
 7582POPC   NC334463  25.266  20.569   9.453
 7582POPC   PO434464  25.245  20.588   9.153
 7582POPC   GL134465  25.228  20.576   8.853
 7582POPC   GL234466  25.325  20.747   8.853
 7582POPC   C1A34467  25.291  20.601   8.553
 7582POPC   D2A34468  25.272  20.623   8.253
 7582POPC   C3A34469  25.301  20.660   7.953
 7582POPC   C4A34470  25.242  20.576   7.653
 7582POPC   C1B34471  25.304  20.861   8.553
 7582POPC   C2B34472  25.329  20.862   8.253
 7582POPC   C3B34473  25.299  20.836   7.953
 7582POPC   C4B34474  25.285  20.802   7.653
 7583POPC   NC334475  19.795  28.323   9.453
 7583POPC   PO434476  19.790  28.360   9.153
 7583POPC   GL134477  19.825  28.342   8.853
 7583POPC   GL234478  19.974  28.325   8.853
 7583POPC   C1A34479  19.792  28.403   8.553
 7583POPC   D2A34480  19.883  28.391   8.253
 7583POPC   C3A34481  19.856  28.359   7.953
 7583POPC   C4A34482  19.855  28.353   7.653
 7583POPC   C1B34483  19.986  28.175   8.553
 7583POPC   C2B34484  20.022  28.172   8.253
 7583POPC   C3B34485  20.009  28.206   7.953
 7583POPC   C4B34486  20.058  28.161   7.653
 7584POPC   NC334487  23.753   5.897   9.453
 7584POPC   PO434488  23.707   5.869   9.153
 7584POPC   GL134489  23.691   5.875   8.853
 7584POPC   GL234490  23.648   5.834   8.853
 7584POPC   C1A34491  23.681   5.863   8.553
 7584POPC   D2A34492  23.744   5.881   8.253
 7584POPC   C3A34493  23.708   5.839   7.953
 7584POPC   C4A34494  23.700   5.856   7.653
 7584POPC   C1B34495  23.551   5.750   8.553
 7584POPC   C2B34496  23.519   5.768   8.253
 7584POPC   C3B34497  23.521   5.695   7.953
 7584POPC   C4B34498  23.469   5.723   7.653
 7585POPC   NC334499  21.363  15.213   9.453
 7585POPC   PO434500  21.373  15.136   9.153
 7585POPC   GL134501  21.384  15.182   8.853
 7585POPC   GL234502  21.293  15.276   8.853
 7585POPC   C1A34503  21.404  15.218   8.553
 7585POPC   D2A34504  21.352  15.143   8.253
 7585POPC   C3A34505  21.398  15.172   7.953
 7585POPC   C4A34506  21.347  15.174   7.653
 7585POPC   C1B34507  21.244  15.392   8.553
 7585POPC   C2B34508  21.241  15.374   8.253
 7585POPC   C3B34509  21.269  15.428   7.953
 7585POPC   C4B34510  21.240  15.431   7.653
 7586POPC   NC334511  25.310  31.423   9.453
 7586POPC   PO434512  25.223  31.476   9.153
 7586POPC   GL134513  25.275  31.500   8.853
 7586POPC   GL234514  25.187  31.361   8.853
 7586POPC   C1A34515  25.281  31.444   8.553
 7586POPC   D2A34516  25.239  31.507   8.253
 7586POPC   C3A34517  25.278  31.485   7.953
 7586POPC   C4A34518  25.243  31.425   7.653
 7586POPC   C1B34519  25.207  31.231   8.553
 7586POPC   C2B34520  25.163  31.257   8.253
 7586POPC   C3B34521  25.179  31.211   7.953
 7586POPC   C4B34522  25.155  31.260   7.653
 7587POPC   NC334523   5.824  20.609   9.453
 7587POPC   PO434524   5.823  20.646   9.153
 7587POPC   GL134525   5.825  20.571   8.853
 7587POPC   GL234526   5.813  20.755   8.853
 7587POPC   C1A34527   5.874  20.567   8.553
 7587POPC   D2A34528   5.842  20.616   8.253
 7587POPC   C3A34529   5.837  20.577   7.953
 7587POPC   C4A34530   5.869  20.637   7.653
 7587POPC   C1B34531   5.760  20.793   8.553
 7587POPC   C2B34532   5.769  20.793   8.253
 7587POPC   C3B34533   5.702  20.770   7.953
 7587POPC   C4B34534   5.672  20.801   7.653
 7588POPC   NC334535   5.052  12.821   9.453
 7588POPC   PO434536   5.066  12.815   9.153
 7588POPC   GL134537   5.084  12.848   8.853
 7588POPC   GL234538   5.055  12.981   8.853
 7588POPC   C1A34539   5.057  12.877   8.553
 7588POPC   D2A34540   5.110  12.835   8.253
 7588POPC   C3A34541   5.044  12.803   7.953
 7588POPC   C4A34542   5.140  12.839   7.653
 7588POPC   C1B34543   4.972  13.039   8.553
 7588POPC   C2B34544   5.022  13.129   8.253
 7588POPC   C3B34545   5.053  13.047   7.953
 7588POPC   C4B34546   4.991  13.081   7.653
 7589POPC   NC334547  39.267  28.419   9.453
 7589POPC   PO434548  39.257  28.370   9.153
 7589POPC   GL134549  39.209  28.375   8.853
 7589POPC   GL234550  39.307  28.337   8.853
 7589POPC   C1A34551  39.244  28.384   8.553
 7589POPC   D2A34552  39.214  28.412   8.253
 7589POPC   C3A34553  39.185  28.343   7.953
 7589POPC   C4A34554  39.243  28.341   7.653
 7589POPC   C1B34555  39.412  28.242   8.553
 7589POPC   C2B34556  39.399  28.237   8.253
 7589POPC   C3B34557  39.486  28.209   7.953
 7589POPC   C4B34558  39.477  28.189   7.653
 7590POPC   NC334559  32.289  34.526   9.453
 7590POPC   PO434560  32.274  34.561   9.153
 7590POPC   GL134561  32.227  34.536   8.853
 7590POPC   GL234562  32.182  34.642   8.853
 7590POPC   C1A34563  32.272  34.604   8.553
 7590POPC   D2A34564  32.280  34.529   8.253
 7590POPC   C3A34565  32.292  34.579   7.953
 7590POPC   C4A34566  32.278  34.541   7.653
 7590POPC   C1B34567  32.064  34.800   8.553
 7590POPC   C2B34568  32.086  34.750   8.253
 7590POPC   C3B34569  32.037  34.800   7.953
 7590POPC   C4B34570  32.041  34.733   7.653
 7591POPC   NC334571  29.126   7.405   9.453
 7591POPC   PO434572  29.156   7.414   9.153
 7591POPC   GL134573  29.095   7.408   8.853
 7591POPC   GL234574  28.996   7.406   8.853
 7591POPC   C1A34575  29.104   7.394   8.553
 7591POPC   D2A34576  29.158   7.453   8.253
 7591POPC   C3A34577  29.108   7.388   7.953
 7591POPC   C4A34578  29.122   7.384   7.653
 7591POPC   C1B34579  28.877   7.300   8.553
 7591POPC   C2B34580  28.937   7.361   8.253
 7591POPC   C3B34581  28.952   7.325   7.953
 7591POPC   C4B34582  28.903   7.334   7.653
 7592POPC   NC334583   8.195  41.579   9.453
 7592POPC   PO434584   8.164  41.537   9.153
 7592POPC   GL134585   8.222  41.545   8.853
 7592POPC   GL234586   8.102  41.510   8.853
 7592POPC   C1A34587   8.181  41.594   8.553
 7592POPC   D2A34588   8.241  41.545   8.253
 7592POPC   C3A34589   8.192  41.542   7.953
 7592POPC   C4A34590   8.155  41.518   7.653
 7592POPC   C1B34591   7.962  41.549   8.553
 7592POPC   C2B34592   7.914  41.475   8.253
 7592POPC   C3B34593   7.910  41.522   7.953
 7592POPC   C4B34594   7.961  41.488   7.653
 7593POPC   NC334595   9.720  28.381   9.453
 7593POPC   PO434596   9.698  28.368   9.153
 7593POPC   GL134597   9.769  28.360   8.853
 7593POPC   GL234598   9.813  28.487   8.853
 7593POPC   C1A34599   9.737  28.355   8.553
 7593POPC   D2A34600   9.750  28.411   8.253
 7593POPC   C3A34601   9.722  28.416   7.953
 7593POPC   C4A34602   9.797  28.418   7.653
 7593POPC   C1B34603   9.778  28.642   8.553
 7593POPC   C2B34604   9.803  28.640   8.253
 7593POPC   C3B34605   9.859  28.605   7.953
 7593POPC   C4B34606   9.779  28.574   7.653
 7594POPC   NC334607  31.475   9.781   9.453
 7594POPC   PO434608  31.479   9.738   9.153
 7594POPC   GL134609  31.461   9.749   8.853
 7594POPC   GL234610  31.525   9.892   8.853
 7594POPC   C1A34611  31.439   9.711   8.553
 7594POPC   D2A34612  31.445   9.782   8.253
 7594POPC   C3A34613  31.443   9.761   7.953
 7594POPC   C4A34614  31.522   9.770   7.653
 7594POPC   C1B34615  31.560   9.940   8.553
 7594POPC   C2B34616  31.581   9.978   8.253
 7594POPC   C3B34617  31.605  10.027   7.953
 7594POPC   C4B34618  31.588   9.967   7.653
 7595POPC   NC334619  15.941   8.156   9.453
 7595POPC   PO434620  16.004   8.205   9.153
 7595POPC   GL134621  15.998   8.217   8.853
 7595POPC   GL234622  15.915   8.107   8.853
 7595POPC   C1A34623  15.931   8.199   8.553
 7595POPC   D2A34624  15.990   8.191   8.253
 7595POPC   C3A34625  15.988   8.214   7.953
 7595POPC   C4A34626  15.968   8.206   7.653
 7595POPC   C1B34627  15.920   7.962   8.553
 7595POPC   C2B34628  15.884   7.990   8.253
 7595POPC   C3B34629  15.879   7.914   7.953
 7595POPC   C4B34630  15.925   7.950   7.653
 7596POPC   NC334631  35.384  36.896   9.453
 7596POPC   PO434632  35.380  36.876   9.153
 7596POPC   GL134633  35.315  36.948   8.853
 7596POPC   GL234634  35.222  36.809   8.853
 7596POPC   C1A34635  35.355  36.866   8.553
 7596POPC   D2A34636  35.326  36.887   8.253
 7596POPC   C3A34637  35.329  36.907   7.953
 7596POPC   C4A34638  35.356  36.925   7.653
 7596POPC   C1B34639  35.183  36.730   8.553
 7596POPC   C2B34640  35.148  36.724   8.253
 7596POPC   C3B34641  35.189  36.719   7.953
 7596POPC   C4B34642  35.158  36.742   7.653
 7597POPC   NC334643   0.392  33.838   9.453
 7597POPC   PO434644   0.420  33.766   9.153
 7597POPC   GL134645   0.402  33.770   8.853
 7597POPC   GL234646   0.408  33.894   8.853
 7597POPC   C1A34647   0.438  33.838   8.553
 7597POPC   D2A34648   0.402  33.767   8.253
 7597POPC   C3A34649   0.440  33.764   7.953
 7597POPC   C4A34650   0.442  33.816   7.653
 7597POPC   C1B34651   0.339  33.991   8.553
 7597POPC   C2B34652   0.253  34.030   8.253
 7597POPC   C3B34653   0.323  34.007   7.953
 7597POPC   C4B34654   0.309  34.048   7.653
 7598POPC   NC334655   7.445   0.403   9.453
 7598POPC   PO434656   7.387   0.399   9.153
 7598POPC   GL134657   7.439   0.394   8.853
 7598POPC   GL234658   7.330   0.453   8.853
 7598POPC   C1A34659   7.425   0.477   8.553
 7598POPC   D2A34660   7.456   0.400   8.253
 7598POPC   C3A34661   7.442   0.469   7.953
 7598POPC   C4A34662   7.380   0.436   7.653
 7598POPC   C1B34663   7.141   0.482   8.553
 7598POPC   C2B34664   7.178   0.510   8.253
 7598POPC   C3B34665   7.142   0.495   7.953
 7598POPC   C4B34666   7.155   0.516   7.653
 7599POPC   NC334667  22.179  40.742   9.453
 7599POPC   PO434668  22.135  40.778   9.153
 7599POPC   GL134669  22.114  40.787   8.853
 7599POPC   GL234670  22.103  40.876   8.853
 7599POPC   C1A34671  22.206  40.758   8.553
 7599POPC   D2A34672  22.145  40.784   8.253
 7599POPC   C3A34673  22.121  40.777   7.953
 7599POPC   C4A34674  22.138  40.783   7.653
 7599POPC   C1B34675  21.967  40.964   8.553
 7599POPC   C2B34676  22.009  40.958   8.253
 7599POPC   C3B34677  22.040  40.959   7.953
 7599POPC   C4B34678  21.959  40.932   7.653
 7600POPC   NC334679   3.576  20.628   9.453
 7600POPC   PO434680   3.494  20.651   9.153
 7600POPC   GL134681   3.552  20.635   8.853
 7600POPC   GL234682   3.676  20.569   8.853
 7600POPC   C1A34683   3.492  20.590   8.553
 7600POPC   D2A34684   3.505  20.624   8.253
 7600POPC   C3A34685   3.591  20.638   7.953
 7600POPC   C4A34686   3.526  20.615   7.653
 7600POPC   C1B34687   3.718  20.451   8.553
 7600POPC   C2B34688   3.756  20.447   8.253
 7600POPC   C3B34689   3.755  20.516   7.953
 7600POPC   C4B34690   3.773  20.532   7.653
 7601POPC   NC334691  42.361  13.607   9.453
 7601POPC   PO434692  42.315  13.658   9.153
 7601POPC   GL134693  42.334  13.625   8.853
 7601POPC   GL234694  42.407  13.586   8.853
 7601POPC   C1A34695  42.286  13.639   8.553
 7601POPC   D2A34696  42.308  13.605   8.253
 7601POPC   C3A34697  42.335  13.676   7.953
 7601POPC   C4A34698  42.292  13.646   7.653
 7601POPC   C1B34699  42.510  13.486   8.553
 7601POPC   C2B34700  42.521  13.509   8.253
 7601POPC   C3B34701  42.582  13.492   7.953
 7601POPC   C4B34702  42.520  13.456   7.653
 7602POPC   NC334703   5.121   8.149   9.453
 7602POPC   PO434704   5.126   8.226   9.153
 7602POPC   GL134705   5.119   8.226   8.853
 7602POPC   GL234706   5.191   8.268   8.853
 7602POPC   C1A34707   5.071   8.228   8.553
 7602POPC   D2A34708   5.085   8.203   8.253
 7602POPC   C3A34709   5.089   8.148   7.953
 7602POPC   C4A34710   5.062   8.236   7.653
 7602POPC   C1B34711   5.331   8.300   8.553
 7602POPC   C2B34712   5.315   8.300   8.253
 7602POPC   C3B34713   5.367   8.287   7.953
 7602POPC   C4B34714   5.326   8.293   7.653
 7603POPC   NC334715   1.974  17.553   9.453
 7603POPC   PO434716   1.967  17.545   9.153
 7603POPC   GL134717   1.988  17.524   8.853
 7603POPC   GL234718   1.904  17.506   8.853
 7603POPC   C1A34719   2.036  17.478   8.553
 7603POPC   D2A34720   1.981  17.555   8.253
 7603POPC   C3A34721   2.038  17.495   7.953
 7603POPC   C4A34722   2.022  17.523   7.653
 7603POPC   C1B34723   1.755  17.496   8.553
 7603POPC   C2B34724   1.691  17.468   8.253
 7603POPC   C3B34725   1.738  17.450   7.953
 7603POPC   C4B34726   1.767  17.499   7.653
 7604POPC   NC334727  23.726  38.428   9.453
 7604POPC   PO434728  23.745  38.449   9.153
 7604POPC   GL134729  23.716  38.477   8.853
 7604POPC   GL234730  23.623  38.552   8.853
 7604POPC   C1A34731  23.675  38.445   8.553
 7604POPC   D2A34732  23.723  38.418   8.253
 7604POPC   C3A34733  23.754  38.486   7.953
 7604POPC   C4A34734  23.699  38.482   7.653
 7604POPC   C1B34735  23.538  38.560   8.553
 7604POPC   C2B34736  23.492  38.592   8.253
 7604POPC   C3B34737  23.537  38.611   7.953
 7604POPC   C4B34738  23.514  38.581   7.653
 7605POPC   NC334739  26.032  43.917   9.453
 7605POPC   PO434740  26.080  43.840   9.153
 7605POPC   GL134741  26.081  43.847   8.853
 7605POPC   GL234742  26.172  43.939   8.853
 7605POPC   C1A34743  25.996  43.852   8.553
 7605POPC   D2A34744  26.070  43.843   8.253
 7605POPC   C3A34745  25.993  43.917   7.953
 7605POPC   C4A34746  26.025  43.840   7.653
 7605POPC   C1B34747  26.257  44.021   8.553
 7605POPC   C2B34748  26.221  44.050   8.253
 7605POPC   C3B34749  26.265  44.046   7.953
 7605POPC   C4B34750  26.279  44.002   7.653
 7606POPC   NC334751   4.308  13.588   9.453
 7606POPC   PO434752   4.347  13.669   9.153
 7606POPC   GL134753   4.357  13.656   8.853
 7606POPC   GL234754   4.152  13.594   8.853
 7606POPC   C1A34755   4.359  13.609   8.553
 7606POPC   D2A34756   4.287  13.605   8.253
 7606POPC   C3A34757   4.331  13.624   7.953
 7606POPC   C4A34758   4.340  13.628   7.653
 7606POPC   C1B34759   4.060  13.521   8.553
 7606POPC   C2B34760   4.107  13.553   8.253
 7606POPC   C3B34761   4.036  13.593   7.953
 7606POPC   C4B34762   4.071  13.574   7.653
 7607POPC   NC334763  44.710  13.611   9.453
 7607POPC   PO434764  44.653  13.634   9.153
 7607POPC   GL134765  44.665  13.610   8.853
 7607POPC   GL234766  44.750  13.676   8.853
 7607POPC   C1A34767  44.708  13.617   8.553
 7607POPC   D2A34768  44.661  13.615   8.253
 7607POPC   C3A34769  44.660  13.652   7.953
 7607POPC   C4A34770  44.640  13.629   7.653
 7607POPC   C1B34771  44.930  13.721   8.553
 7607POPC   C2B34772  44.854  13.716   8.253
 7607POPC   C3B34773  44.945  13.681   7.953
 7607POPC   C4B34774  44.940  13.707   7.653
 7608POPC   NC334775  30.738  19.804   9.453
 7608POPC   PO434776  30.701  19.884   9.153
 7608POPC   GL134777  30.690  19.824   8.853
 7608POPC   GL234778  30.750  19.763   8.853
 7608POPC   C1A34779  30.722  19.844   8.553
 7608POPC   D2A34780  30.652  19.861   8.253
 7608POPC   C3A34781  30.696  19.877   7.953
 7608POPC   C4A34782  30.743  19.818   7.653
 7608POPC   C1B34783  30.824  19.629   8.553
 7608POPC   C2B34784  30.862  19.699   8.253
 7608POPC   C3B34785  30.837  19.615   7.953
 7608POPC   C4B34786  30.896  19.669   7.653
 7609POPC   NC334787  38.481  28.366   9.453
 7609POPC   PO434788  38.461  28.396   9.153
 7609POPC   GL134789  38.488  28.382   8.853
 7609POPC   GL234790  38.540  28.278   8.853
 7609POPC   C1A34791  38.428  28.356   8.553
 7609POPC   D2A34792  38.414  28.412   8.253
 7609POPC   C3A34793  38.444  28.412   7.953
 7609POPC   C4A34794  38.410  28.370   7.653
 7609POPC   C1B34795  38.585  28.150   8.553
 7609POPC   C2B34796  38.592  28.160   8.253
 7609POPC   C3B34797  38.653  28.200   7.953
 7609POPC   C4B34798  38.642  28.139   7.653
 7610POPC   NC334799   7.397  15.952   9.453
 7610POPC   PO434800   7.396  15.970   9.153
 7610POPC   GL134801   7.375  15.968   8.853
 7610POPC   GL234802   7.311  15.967   8.853
 7610POPC   C1A34803   7.381  15.991   8.553
 7610POPC   D2A34804   7.433  15.939   8.253
 7610POPC   C3A34805   7.458  15.937   7.953
 7610POPC   C4A34806   7.381  15.962   7.653
 7610POPC   C1B34807   7.228  16.046   8.553
 7610POPC   C2B34808   7.194  16.024   8.253
 7610POPC   C3B34809   7.145  16.037   7.953
 7610POPC   C4B34810   7.140  16.062   7.653
 7611POPC   NC334811  20.598  11.291   9.453
 7611POPC   PO434812  20.576  11.314   9.153
 7611POPC   GL134813  20.616  11.303   8.853
 7611POPC   GL234814  20.618  11.449   8.853
 7611POPC   C1A34815  20.633  11.310   8.553
 7611POPC   D2A34816  20.628  11.347   8.253
 7611POPC   C3A34817  20.626  11.305   7.953
 7611POPC   C4A34818  20.562  11.273   7.653
 7611POPC   C1B34819  20.689  11.484   8.553
 7611POPC   C2B34820  20.664  11.483   8.253
 7611POPC   C3B34821  20.757  11.560   7.953
 7611POPC   C4B34822  20.715  11.566   7.653
 7612POPC   NC334823  41.586  42.365   9.453
 7612POPC   PO434824  41.562  42.362   9.153
 7612POPC   GL134825  41.558  42.334   8.853
 7612POPC   GL234826  41.653  42.260   8.853
 7612POPC   C1A34827  41.520  42.297   8.553
 7612POPC   D2A34828  41.575  42.309   8.253
 7612POPC   C3A34829  41.525  42.382   7.953
 7612POPC   C4A34830  41.599  42.358   7.653
 7612POPC   C1B34831  41.791  42.277   8.553
 7612POPC   C2B34832  41.803  42.245   8.253
 7612POPC   C3B34833  41.751  42.280   7.953
 7612POPC   C4B34834  41.779  42.226   7.653
 7613POPC   NC334835  23.761  26.030   9.453
 7613POPC   PO434836  23.755  26.091   9.153
 7613POPC   GL134837  23.742  26.065   8.853
 7613POPC   GL234838  23.856  26.022   8.853
 7613POPC   C1A34839  23.731  26.066   8.553
 7613POPC   D2A34840  23.688  26.061   8.253
 7613POPC   C3A34841  23.668  26.041   7.953
 7613POPC   C4A34842  23.743  26.005   7.653
 7613POPC   C1B34843  23.958  26.045   8.553
 7613POPC   C2B34844  23.927  26.044   8.253
 7613POPC   C3B34845  24.008  26.049   7.953
 7613POPC   C4B34846  23.955  26.095   7.653
 7614POPC   NC334847  44.684   7.442   9.453
 7614POPC   PO434848  44.636   7.382   9.153
 7614POPC   GL134849  44.659   7.452   8.853
 7614POPC   GL234850  44.558   7.413   8.853
 7614POPC   C1A34851  44.682   7.400   8.553
 7614POPC   D2A34852  44.711   7.435   8.253
 7614POPC   C3A34853  44.674   7.420   7.953
 7614POPC   C4A34854  44.687   7.425   7.653
 7614POPC   C1B34855  44.416   7.527   8.553
 7614POPC   C2B34856  44.443   7.433   8.253
 7614POPC   C3B34857  44.371   7.430   7.953
 7614POPC   C4B34858  44.421   7.502   7.653
 7615POPC   NC334859   2.773   8.174   9.453
 7615POPC   PO434860   2.771   8.161   9.153
 7615POPC   GL134861   2.798   8.210   8.853
 7615POPC   GL234862   2.875   8.251   8.853
 7615POPC   C1A34863   2.752   8.245   8.553
 7615POPC   D2A34864   2.734   8.200   8.253
 7615POPC   C3A34865   2.814   8.156   7.953
 7615POPC   C4A34866   2.800   8.212   7.653
 7615POPC   C1B34867   2.984   8.397   8.553
 7615POPC   C2B34868   2.977   8.371   8.253
 7615POPC   C3B34869   2.962   8.313   7.953
 7615POPC   C4B34870   2.950   8.399   7.653
 7616POPC   NC334871  36.894   1.165   9.453
 7616POPC   PO434872  36.936   1.203   9.153
 7616POPC   GL134873  36.877   1.257   8.853
 7616POPC   GL234874  37.053   1.140   8.853
 7616POPC   C1A34875  36.859   1.169   8.553
 7616POPC   D2A34876  36.912   1.177   8.253
 7616POPC   C3A34877  36.913   1.221   7.953
 7616POPC   C4A34878  36.914   1.244   7.653
 7616POPC   C1B34879  37.076   1.093   8.553
 7616POPC   C2B34880  37.110   1.068   8.253
 7616POPC   C3B34881  37.129   1.099   7.953
 7616POPC   C4B34882  37.144   1.122   7.653
 7617POPC   NC334883   8.207   8.979   9.453
 7617POPC   PO434884   8.186   8.959   9.153
 7617POPC   GL134885   8.180   9.000   8.853
 7617POPC   GL234886   8.241   8.919   8.853
 7617POPC   C1A34887   8.244   8.934   8.553
 7617POPC   D2A34888   8.198   9.009   8.253
 7617POPC   C3A34889   8.215   9.021   7.953
 7617POPC   C4A34890   8.149   9.019   7.653
 7617POPC   C1B34891   8.369   8.772   8.553
 7617POPC   C2B34892   8.382   8.807   8.253
 7617POPC   C3B34893   8.376   8.812   7.953
 7617POPC   C4B34894   8.389   8.773   7.653
 7618POPC   NC334895  24.503   7.431   9.453
 7618POPC   PO434896  24.481   7.452   9.153
 7618POPC   GL134897  24.475   7.459   8.853
 7618POPC   GL234898  24.404   7.401   8.853
 7618POPC   C1A34899  24.455   7.448   8.553
 7618POPC   D2A34900  24.472   7.378   8.253
 7618POPC   C3A34901  24.491   7.458   7.953
 7618POPC   C4A34902  24.504   7.443   7.653
 7618POPC   C1B34903  24.203   7.448   8.553
 7618POPC   C2B34904  24.283   7.422   8.253
 7618POPC   C3B34905  24.231   7.417   7.953
 7618POPC   C4B34906  24.205   7.443   7.653
 7619POPC   NC334907   3.528  26.023   9.453
 7619POPC   PO434908   3.498  25.997   9.153
 7619POPC   GL134909   3.575  26.064   8.853
 7619POPC   GL234910   3.433  26.118   8.853
 7619POPC   C1A34911   3.561  26.034   8.553
 7619POPC   D2A34912   3.504  26.067   8.253
 7619POPC   C3A34913   3.551  26.036   7.953
 7619POPC   C4A34914   3.578  26.058   7.653
 7619POPC   C1B34915   3.340  26.189   8.553
 7619POPC   C2B34916   3.278  26.119   8.253
 7619POPC   C3B34917   3.319  26.145   7.953
 7619POPC   C4B34918   3.310  26.211   7.653
 7620POPC   NC334919  22.970   3.583   9.453
 7620POPC   PO434920  22.975   3.541   9.153
 7620POPC   GL134921  22.888   3.568   8.853
 7620POPC   GL234922  22.930   3.383   8.853
 7620POPC   C1A34923  22.973   3.549   8.553
 7620POPC   D2A34924  22.966   3.551   8.253
 7620POPC   C3A34925  22.889   3.583   7.953
 7620POPC   C4A34926  22.916   3.538   7.653
 7620POPC   C1B34927  23.002   3.265   8.553
 7620POPC   C2B34928  22.938   3.310   8.253
 7620POPC   C3B34929  22.972   3.275   7.953
 7620POPC   C4B34930  22.984   3.272   7.653
 7621POPC   NC334931  36.159   3.546   9.453
 7621POPC   PO434932  36.162   3.539   9.153
 7621POPC   GL134933  36.170   3.575   8.853
 7621POPC   GL234934  36.049   3.633   8.853
 7621POPC   C1A34935  36.079   3.524   8.553
 7621POPC   D2A34936  36.145   3.500   8.253
 7621POPC   C3A34937  36.147   3.520   7.953
 7621POPC   C4A34938  36.079   3.523   7.653
 7621POPC   C1B34939  35.953   3.803   8.553
 7621POPC   C2B34940  36.023   3.775   8.253
 7621POPC   C3B34941  36.036   3.719   7.953
 7621POPC   C4B34942  36.042   3.757   7.653
 7622POPC   NC334943  41.567  15.917   9.453
 7622POPC   PO434944  41.554  15.977   9.153
 7622POPC   GL134945  41.603  15.949   8.853
 7622POPC   GL234946  41.511  15.837   8.853
 7622POPC   C1A34947  41.533  15.972   8.553
 7622POPC   D2A34948  41.512  15.996   8.253
 7622POPC   C3A34949  41.518  15.956   7.953
 7622POPC   C4A34950  41.560  15.969   7.653
 7622POPC   C1B34951  41.592  15.701   8.553
 7622POPC   C2B34952  41.563  15.707   8.253
 7622POPC   C3B34953  41.542  15.739   7.953
 7622POPC   C4B34954  41.583  15.735   7.653
 7623POPC   NC334955  36.918   5.863   9.453
 7623POPC   PO434956  36.935   5.890   9.153
 7623POPC   GL134957  36.875   5.855   8.853
 7623POPC   GL234958  36.825   5.787   8.853
 7623POPC   C1A34959  36.947   5.832   8.553
 7623POPC   D2A34960  36.884   5.870   8.253
 7623POPC   C3A34961  36.902   5.878   7.953
 7623POPC   C4A34962  36.856   5.913   7.653
 7623POPC   C1B34963  36.718   5.792   8.553
 7623POPC   C2B34964  36.708   5.798   8.253
 7623POPC   C3B34965  36.672   5.801   7.953
 7623POPC   C4B34966  36.672   5.733   7.653
 7624POPC   NC334967   0.444  21.400   9.453
 7624POPC   PO434968   0.485  21.403   9.153
 7624POPC   GL134969   0.391  21.416   8.853
 7624POPC   GL234970   0.338  21.295   8.853
 7624POPC   C1A34971   0.429  21.404   8.553
 7624POPC   D2A34972   0.396  21.387   8.253
 7624POPC   C3A34973   0.480  21.415   7.953
 7624POPC   C4A34974   0.405  21.351   7.653
 7624POPC   C1B34975   0.201  21.335   8.553
 7624POPC   C2B34976   0.205  21.283   8.253
 7624POPC   C3B34977   0.227  21.317   7.953
 7624POPC   C4B34978   0.199  21.290   7.653
 7625POPC   NC334979  40.048  31.456   9.453
 7625POPC   PO434980  40.005  31.438   9.153
 7625POPC   GL134981  39.967  31.427   8.853
 7625POPC   GL234982  40.112  31.539   8.853
 7625POPC   C1A34983  40.002  31.502   8.553
 7625POPC   D2A34984  39.991  31.460   8.253
 7625POPC   C3A34985  39.985  31.440   7.953
 7625POPC   C4A34986  39.966  31.487   7.653
 7625POPC   C1B34987  40.248  31.552   8.553
 7625POPC   C2B34988  40.277  31.625   8.253
 7625POPC   C3B34989  40.259  31.607   7.953
 7625POPC   C4B34990  40.268  31.584   7.653
 7626POPC   NC334991  18.287  13.650   9.453
 7626POPC   PO434992  18.237  13.579   9.153
 7626POPC   GL134993  18.302  13.583   8.853
 7626POPC   GL234994  18.330  13.549   8.853
 7626POPC   C1A34995  18.291  13.670   8.553
 7626POPC   D2A34996  18.254  13.636   8.253
 7626POPC   C3A34997  18.312  13.655   7.953
 7626POPC   C4A34998  18.284  13.589   7.653
 7626POPC   C1B34999  18.413  13.396   8.553
 7626POPC   C2B35000  18.453  13.407   8.253
 7626POPC   C3B35001  18.429  13.449   7.953
 7626POPC   C4B35002  18.375  13.386   7.653
 7627POPC   NC335003  25.220  16.731   9.453
 7627POPC   PO435004  25.258  16.739   9.153
 7627POPC   GL135005  25.284  16.718   8.853
 7627POPC   GL235006  25.203  16.865   8.853
 7627POPC   C1A35007  25.314  16.719   8.553
 7627POPC   D2A35008  25.219  16.762   8.253
 7627POPC   C3A35009  25.290  16.713   7.953
 7627POPC   C4A35010  25.233  16.714   7.653
 7627POPC   C1B35011  25.217  16.945   8.553
 7627POPC   C2B35012  25.168  16.927   8.253
 7627POPC   C3B35013  25.242  16.939   7.953
 7627POPC   C4B35014  25.189  16.953   7.653
 7628POPC   NC335015  10.562  29.141   9.453
 7628POPC   PO435016  10.564  29.127   9.153
 7628POPC   GL135017  10.483  29.142   8.853
 7628POPC   GL235018  10.420  29.060   8.853
 7628POPC   C1A35019  10.573  29.184   8.553
 7628POPC   D2A35020  10.487  29.152   8.253
 7628POPC   C3A35021  10.520  29.118   7.953
 7628POPC   C4A35022  10.509  29.136   7.653
 7628POPC   C1B35023  10.294  29.021   8.553
 7628POPC   C2B35024  10.287  29.078   8.253
 7628POPC   C3B35025  10.251  29.023   7.953
 7628POPC   C4B35026  10.328  29.118   7.653
 7629POPC   NC335027  37.679  41.538   9.453
 7629POPC   PO435028  37.646  41.594   9.153
 7629POPC   GL135029  37.662  41.581   8.853
 7629POPC   GL235030  37.547  41.636   8.853
 7629POPC   C1A35031  37.661  41.591   8.553
 7629POPC   D2A35032  37.647  41.570   8.253
 7629POPC   C3A35033  37.700  41.560   7.953
 7629POPC   C4A35034  37.658  41.568   7.653
 7629POPC   C1B35035  37.473  41.646   8.553
 7629POPC   C2B35036  37.433  41.689   8.253
 7629POPC   C3B35037  37.428  41.647   7.953
 7629POPC   C4B35038  37.474  41.682   7.653
 7630POPC   NC335039  39.257  44.647   9.453
 7630POPC   PO435040  39.181  44.617   9.153
 7630POPC   GL135041  39.196  44.658   8.853
 7630POPC   GL235042  39.277  44.552   8.853
 7630POPC   C1A35043  39.246  44.711   8.553
 7630POPC   D2A35044  39.196  44.621   8.253
 7630POPC   C3A35045  39.197  44.632   7.953
 7630POPC   C4A35046  39.224  44.624   7.653
 7630POPC   C1B35047  39.300  44.403   8.553
 7630POPC   C2B35048  39.268  44.385   8.253
 7630POPC   C3B35049  39.287  44.452   7.953
 7630POPC   C4B35050  39.312  44.429   7.653
 7631POPC   NC335051  27.566  16.768   9.453
 7631POPC   PO435052  27.555  16.733   9.153
 7631POPC   GL135053  27.546  16.775   8.853
 7631POPC   GL235054  27.604  16.625   8.853
 7631POPC   C1A35055  27.594  16.724   8.553
 7631POPC   D2A35056  27.604  16.771   8.253
 7631POPC   C3A35057  27.560  16.703   7.953
 7631POPC   C4A35058  27.584  16.756   7.653
 7631POPC   C1B35059  27.603  16.438   8.553
 7631POPC   C2B35060  27.567  16.531   8.253
 7631POPC   C3B35061  27.580  16.440   7.953
 7631POPC   C4B35062  27.612  16.491   7.653
 7632POPC   NC335063  36.917  32.222   9.453
 7632POPC   PO435064  36.877  32.275   9.153
 7632POPC   GL135065  36.887  32.235   8.853
 7632POPC   GL235066  37.045  32.132   8.853
 7632POPC   C1A35067  36.918  32.254   8.553
 7632POPC   D2A35068  36.881  32.269   8.253
 7632POPC   C3A35069  36.882  32.200   7.953
 7632POPC   C4A35070  36.915  32.244   7.653
 7632POPC   C1B35071  37.140  32.107   8.553
 7632POPC   C2B35072  37.124  32.141   8.253
 7632POPC   C3B35073  37.079  32.142   7.953
 7632POPC   C4B35074  37.089  32.135   7.653
 7633POPC   NC335075  35.320   7.396   9.453
 7633POPC   PO435076  35.303   7.444   9.153
 7633POPC   GL135077  35.399   7.390   8.853
 7633POPC   GL235078  35.498   7.356   8.853
 7633POPC   C1A35079  35.374   7.396   8.553
 7633POPC   D2A35080  35.337   7.445   8.253
 7633POPC   C3A35081  35.396   7.407   7.953
 7633POPC   C4A35082  35.348   7.423   7.653
 7633POPC   C1B35083  35.572   7.367   8.553
 7633POPC   C2B35084  35.613   7.367   8.253
 7633POPC   C3B35085  35.579   7.318   7.953
 7633POPC   C4B35086  35.539   7.334   7.653
 7634POPC   NC335087  26.006  10.501   9.453
 7634POPC   PO435088  26.059  10.481   9.153
 7634POPC   GL135089  26.053  10.481   8.853
 7634POPC   GL235090  25.941  10.450   8.853
 7634POPC   C1A35091  26.078  10.499   8.553
 7634POPC   D2A35092  26.080  10.537   8.253
 7634POPC   C3A35093  26.009  10.477   7.953
 7634POPC   C4A35094  26.034  10.516   7.653
 7634POPC   C1B35095  25.956  10.332   8.553
 7634POPC   C2B35096  25.930  10.335   8.253
 7634POPC   C3B35097  25.941  10.354   7.953
 7634POPC   C4B35098  25.931  10.284   7.653
 7635POPC   NC335099  19.083  39.230   9.453
 7635POPC   PO435100  19.060  39.215   9.153
 7635POPC   GL135101  19.012  39.261   8.853
 7635POPC   GL235102  18.947  39.229   8.853
 7635POPC   C1A35103  19.014  39.182   8.553
 7635POPC   D2A35104  19.012  39.249   8.253
 7635POPC   C3A35105  19.058  39.246   7.953
 7635POPC   C4A35106  19.086  39.270   7.653
 7635POPC   C1B35107  18.822  39.290   8.553
 7635POPC   C2B35108  18.800  39.237   8.253
 7635POPC   C3B35109  18.824  39.210   7.953
 7635POPC   C4B35110  18.822  39.228   7.653
 7636POPC   NC335111   1.164  36.148   9.453
 7636POPC   PO435112   1.221  36.133   9.153
 7636POPC   GL135113   1.188  36.130   8.853
 7636POPC   GL235114   1.382  36.080   8.853
 7636POPC   C1A35115   1.171  36.123   8.553
 7636POPC   D2A35116   1.254  36.136   8.253
 7636POPC   C3A35117   1.199  36.144   7.953
 7636POPC   C4A35118   1.234  36.085   7.653
 7636POPC   C1B35119   1.419  36.108   8.553
 7636POPC   C2B35120   1.499  36.159   8.253
 7636POPC   C3B35121   1.486  36.143   7.953
 7636POPC   C4B35122   1.472  36.165   7.653
 7637POPC   NC335123  36.079   9.016   9.453
 7637POPC   PO435124  36.150   8.992   9.153
 7637POPC   GL135125  36.172   8.975   8.853
 7637POPC   GL235126  36.064   8.816   8.853
 7637POPC   C1A35127  36.125   8.948   8.553
 7637POPC   D2A35128  36.090   8.948   8.253
 7637POPC   C3A35129  36.160   8.947   7.953
 7637POPC   C4A35130  36.160   9.014   7.653
 7637POPC   C1B35131  36.063   8.702   8.553
 7637POPC   C2B35132  36.094   8.696   8.253
 7637POPC   C3B35133  36.139   8.689   7.953
 7637POPC   C4B35134  36.098   8.707   7.653
 7638POPC   NC335135   1.193  11.276   9.453
 7638POPC   PO435136   1.247  11.256   9.153
 7638POPC   GL135137   1.246  11.309   8.853
 7638POPC   GL235138   1.056  11.292   8.853
 7638POPC   C1A35139   1.211  11.293   8.553
 7638POPC   D2A35140   1.231  11.344   8.253
 7638POPC   C3A35141   1.259  11.260   7.953
 7638POPC   C4A35142   1.198  11.282   7.653
 7638POPC   C1B35143   0.984  11.356   8.553
 7638POPC   C2B35144   0.923  11.382   8.253
 7638POPC   C3B35145   0.976  11.364   7.953
 7638POPC   C4B35146   1.005  11.395   7.653
 7639POPC   NC335147  15.963  22.170   9.453
 7639POPC   PO435148  15.929  22.152   9.153
 7639POPC   GL135149  15.993  22.162   8.853
 7639POPC   GL235150  15.868  22.041   8.853
 7639POPC   C1A35151  15.907  22.166   8.553
 7639POPC   D2A35152  15.957  22.131   8.253
 7639POPC   C3A35153  16.005  22.136   7.953
 7639POPC   C4A35154  15.978  22.163   7.653
 7639POPC   C1B35155  15.865  21.986   8.553
 7639POPC   C2B35156  15.880  21.926   8.253
 7639POPC   C3B35157  15.793  21.896   7.953
 7639POPC   C4B35158  15.863  21.925   7.653
 7640POPC   NC335159  21.393  24.472   9.453
 7640POPC   PO435160  21.391  24.486   9.153
 7640POPC   GL135161  21.389  24.518   8.853
 7640POPC   GL235162  21.362  24.640   8.853
 7640POPC   C1A35163  21.375  24.477   8.553
 7640POPC   D2A35164  21.426  24.536   8.253
 7640POPC   C3A35165  21.388  24.493   7.953
 7640POPC   C4A35166  21.397  24.499   7.653
 7640POPC   C1B35167  21.461  24.760   8.553
 7640POPC   C2B35168  21.389  24.706   8.253
 7640POPC   C3B35169  21.395  24.777   7.953
 7640POPC   C4B35170  21.424  24.774   7.653
 7641POPC   NC335171  16.731  19.850   9.453
 7641POPC   PO435172  16.693  19.855   9.153
 7641POPC   GL135173  16.719  19.803   8.853
 7641POPC   GL235174  16.745  19.916   8.853
 7641POPC   C1A35175  16.684  19.846   8.553
 7641POPC   D2A35176  16.684  19.805   8.253
 7641POPC   C3A35177  16.699  19.820   7.953
 7641POPC   C4A35178  16.687  19.814   7.653
 7641POPC   C1B35179  16.810  20.106   8.553
 7641POPC   C2B35180  16.816  20.031   8.253
 7641POPC   C3B35181  16.758  20.065   7.953
 7641POPC   C4B35182  16.822  20.034   7.653
 7642POPC   NC335183  40.045  41.540   9.453
 7642POPC   PO435184  40.016  41.521   9.153
 7642POPC   GL135185  39.967  41.592   8.853
 7642POPC   GL235186  40.056  41.457   8.853
 7642POPC   C1A35187  39.959  41.575   8.553
 7642POPC   D2A35188  40.044  41.521   8.253
 7642POPC   C3A35189  39.993  41.587   7.953
 7642POPC   C4A35190  39.974  41.566   7.653
 7642POPC   C1B35191  40.012  41.262   8.553
 7642POPC   C2B35192  39.980  41.262   8.253
 7642POPC   C3B35193  40.004  41.331   7.953
 7642POPC   C4B35194  39.974  41.292   7.653
 7643POPC   NC335195  39.961   1.257   9.453
 7643POPC   PO435196  40.006   1.181   9.153
 7643POPC   GL135197  39.984   1.195   8.853
 7643POPC   GL235198  40.020   1.338   8.853
 7643POPC   C1A35199  39.989   1.207   8.553
 7643POPC   D2A35200  40.026   1.193   8.253
 7643POPC   C3A35201  39.984   1.167   7.953
 7643POPC   C4A35202  40.023   1.208   7.653
 7643POPC   C1B35203  39.987   1.433   8.553
 7643POPC   C2B35204  40.026   1.420   8.253
 7643POPC   C3B35205  40.026   1.494   7.953
 7643POPC   C4B35206  40.035   1.483   7.653
 7644POPC   NC335207  18.252   5.906   9.453
 7644POPC   PO435208  18.309   5.879   9.153
 7644POPC   GL135209  18.296   5.866   8.853
 7644POPC   GL235210  18.433   5.844   8.853
 7644POPC   C1A35211  18.272   5.857   8.553
 7644POPC   D2A35212  18.319   5.897   8.253
 7644POPC   C3A35213  18.294   5.887   7.953
 7644POPC   C4A35214  18.233   5.821   7.653
 7644POPC   C1B35215  18.568   5.822   8.553
 7644POPC   C2B35216  18.482   5.766   8.253
 7644POPC   C3B35217  18.519   5.782   7.953
 7644POPC   C4B35218  18.567   5.776   7.653
 7645POPC   NC335219  33.770   8.949   9.453
 7645POPC   PO435220  33.832   8.998   9.153
 7645POPC   GL135221  33.767   8.977   8.853
 7645POPC   GL235222  33.883   9.067   8.853
 7645POPC   C1A35223  33.761   8.923   8.553
 7645POPC   D2A35224  33.768   8.927   8.253
 7645POPC   C3A35225  33.772   8.972   7.953
 7645POPC   C4A35226  33.780   9.022   7.653
 7645POPC   C1B35227  33.828   9.166   8.553
 7645POPC   C2B35228  33.848   9.210   8.253
 7645POPC   C3B35229  33.896   9.190   7.953
 7645POPC   C4B35230  33.897   9.220   7.653
 7646POPC   NC335231  10.495  23.719   9.453
 7646POPC   PO435232  10.503  23.701   9.153
 7646POPC   GL135233  10.510  23.745   8.853
 7646POPC   GL235234  10.614  23.736   8.853
 7646POPC   C1A35235  10.566  23.709   8.553
 7646POPC   D2A35236  10.566  23.710   8.253
 7646POPC   C3A35237  10.483  23.727   7.953
 7646POPC   C4A35238  10.537  23.718   7.653
 7646POPC   C1B35239  10.794  23.802   8.553
 7646POPC   C2B35240  10.816  23.736   8.253
 7646POPC   C3B35241  10.772  23.784   7.953
 7646POPC   C4B35242  10.743  23.805   7.653
 7647POPC   NC335243   9.744  12.062   9.453
 7647POPC   PO435244   9.718  12.047   9.153
 7647POPC   GL135245   9.704  12.120   8.853
 7647POPC   GL235246   9.725  12.008   8.853
 7647POPC   C1A35247   9.709  12.048   8.553
 7647POPC   D2A35248   9.757  12.099   8.253
 7647POPC   C3A35249   9.718  12.031   7.953
 7647POPC   C4A35250   9.699  12.074   7.653
 7647POPC   C1B35251   9.593  11.886   8.553
 7647POPC   C2B35252   9.624  11.895   8.253
 7647POPC   C3B35253   9.621  11.827   7.953
 7647POPC   C4B35254   9.588  11.820   7.653
 7648POPC   NC335255  36.135  29.098   9.453
 7648POPC   PO435256  36.098  29.154   9.153
 7648POPC   GL135257  36.081  29.143   8.853
 7648POPC   GL235258  36.240  29.048   8.853
 7648POPC   C1A35259  36.115  29.102   8.553
 7648POPC   D2A35260  36.094  29.147   8.253
 7648POPC   C3A35261  36.085  29.178   7.953
 7648POPC   C4A35262  36.164  29.132   7.653
 7648POPC   C1B35263  36.309  28.903   8.553
 7648POPC   C2B35264  36.250  28.930   8.253
 7648POPC   C3B35265  36.312  28.905   7.953
 7648POPC   C4B35266  36.328  28.988   7.653
 7649POPC   NC335267  38.448  41.556   9.453
 7649POPC   PO435268  38.476  41.539   9.153
 7649POPC   GL135269  38.455  41.601   8.853
 7649POPC   GL235270  38.337  41.678   8.853
 7649POPC   C1A35271  38.459  41.513   8.553
 7649POPC   D2A35272  38.445  41.594   8.253
 7649POPC   C3A35273  38.448  41.590   7.953
 7649POPC   C4A35274  38.466  41.573   7.653
 7649POPC   C1B35275  38.278  41.741   8.553
 7649POPC   C2B35276  38.307  41.690   8.253
 7649POPC   C3B35277  38.245  41.725   7.953
 7649POPC   C4B35278  38.320  41.686   7.653
 7650POPC   NC335279  36.921  24.531   9.453
 7650POPC   PO435280  36.880  24.445   9.153
 7650POPC   GL135281  36.924  24.461   8.853
 7650POPC   GL235282  36.882  24.340   8.853
 7650POPC   C1A35283  36.903  24.483   8.553
 7650POPC   D2A35284  36.936  24.500   8.253
 7650POPC   C3A35285  36.874  24.475   7.953
 7650POPC   C4A35286  36.865  24.487   7.653
 7650POPC   C1B35287  36.804  24.301   8.553
 7650POPC   C2B35288  36.802  24.316   8.253
 7650POPC   C3B35289  36.783  24.283   7.953
 7650POPC   C4B35290  36.802  24.322   7.653
 7651POPC   NC335291  15.149  20.583   9.453
 7651POPC   PO435292  15.174  20.588   9.153
 7651POPC   GL135293  15.152  20.623   8.853
 7651POPC   GL235294  15.110  20.724   8.853
 7651POPC   C1A35295  15.165  20.595   8.553
 7651POPC   D2A35296  15.180  20.658   8.253
 7651POPC   C3A35297  15.198  20.590   7.953
 7651POPC   C4A35298  15.224  20.566   7.653
 7651POPC   C1B35299  15.175  20.846   8.553
 7651POPC   C2B35300  15.099  20.867   8.253
 7651POPC   C3B35301  15.145  20.824   7.953
 7651POPC   C4B35302  15.144  20.857   7.653
 7652POPC   NC335303  41.517  10.541   9.453
 7652POPC   PO435304  41.605  10.566   9.153
 7652POPC   GL135305  41.582  10.556   8.853
 7652POPC   GL235306  41.515  10.601   8.853
 7652POPC   C1A35307  41.583  10.561   8.553
 7652POPC   D2A35308  41.596  10.538   8.253
 7652POPC   C3A35309  41.588  10.549   7.953
 7652POPC   C4A35310  41.529  10.514   7.653
 7652POPC   C1B35311  41.409  10.740   8.553
 7652POPC   C2B35312  41.447  10.746   8.253
 7652POPC   C3B35313  41.502  10.778   7.953
 7652POPC   C4B35314  41.467  10.727   7.653
 7653POPC   NC335315  40.820  12.050   9.453
 7653POPC   PO435316  40.748  12.099   9.153
 7653POPC   GL135317  40.819  12.037   8.853
 7653POPC   GL235318  40.895  12.193   8.853
 7653POPC   C1A35319  40.761  12.111   8.553
 7653POPC   D2A35320  40.819  12.046   8.253
 7653POPC   C3A35321  40.777  12.048   7.953
 7653POPC   C4A35322  40.824  12.034   7.653
 7653POPC   C1B35323  40.923  12.280   8.553
 7653POPC   C2B35324  40.941  12.228   8.253
 7653POPC   C3B35325  40.937  12.272   7.953
 7653POPC   C4B35326  40.974  12.238   7.653
 7654POPC   NC335327  19.795  14.394   9.453
 7654POPC   PO435328  19.816  14.437   9.153
 7654POPC   GL135329  19.811  14.410   8.853
 7654POPC   GL235330  19.884  14.255   8.853
 7654POPC   C1A35331  19.828  14.365   8.553
 7654POPC   D2A35332  19.811  14.380   8.253
 7654POPC   C3A35333  19.801  14.372   7.953
 7654POPC   C4A35334  19.833  14.444   7.653
 7654POPC   C1B35335  19.916  14.203   8.553
 7654POPC   C2B35336  19.853  14.121   8.253
 7654POPC   C3B35337  19.834  14.128   7.953
 7654POPC   C4B35338  19.826  14.134   7.653
 7655POPC   NC335339  27.617  30.663   9.453
 7655POPC   PO435340  27.633  30.665   9.153
 7655POPC   GL135341  27.589  30.745   8.853
 7655POPC   GL235342  27.676  30.551   8.853
 7655POPC   C1A35343  27.544  30.741   8.553
 7655POPC   D2A35344  27.612  30.706   8.253
 7655POPC   C3A35345  27.597  30.741   7.953
 7655POPC   C4A35346  27.625  30.671   7.653
 7655POPC   C1B35347  27.766  30.461   8.553
 7655POPC   C2B35348  27.716  30.449   8.253
 7655POPC   C3B35349  27.705  30.530   7.953
 7655POPC   C4B35350  27.752  30.535   7.653
 7656POPC   NC335351  27.594   5.834   9.453
 7656POPC   PO435352  27.581   5.879   9.153
 7656POPC   GL135353  27.599   5.881   8.853
 7656POPC   GL235354  27.749   5.849   8.853
 7656POPC   C1A35355  27.596   5.868   8.553
 7656POPC   D2A35356  27.628   5.914   8.253
 7656POPC   C3A35357  27.549   5.903   7.953
 7656POPC   C4A35358  27.604   5.829   7.653
 7656POPC   C1B35359  27.841   5.832   8.553
 7656POPC   C2B35360  27.860   5.799   8.253
 7656POPC   C3B35361  27.844   5.779   7.953
 7656POPC   C4B35362  27.786   5.808   7.653
 7657POPC   NC335363   1.206  16.722   9.453
 7657POPC   PO435364   1.229  16.780   9.153
 7657POPC   GL135365   1.213  16.725   8.853
 7657POPC   GL235366   1.077  16.675   8.853
 7657POPC   C1A35367   1.262  16.741   8.553
 7657POPC   D2A35368   1.181  16.759   8.253
 7657POPC   C3A35369   1.186  16.770   7.953
 7657POPC   C4A35370   1.178  16.700   7.653
 7657POPC   C1B35371   1.051  16.522   8.553
 7657POPC   C2B35372   1.011  16.526   8.253
 7657POPC   C3B35373   1.006  16.537   7.953
 7657POPC   C4B35374   1.023  16.599   7.653
 7658POPC   NC335375   9.766  20.563   9.453
 7658POPC   PO435376   9.769  20.611   9.153
 7658POPC   GL135377   9.704  20.562   8.853
 7658POPC   GL235378   9.615  20.624   8.853
 7658POPC   C1A35379   9.795  20.616   8.553
 7658POPC   D2A35380   9.756  20.605   8.253
 7658POPC   C3A35381   9.725  20.587   7.953
 7658POPC   C4A35382   9.702  20.614   7.653
 7658POPC   C1B35383   9.492  20.568   8.553
 7658POPC   C2B35384   9.536  20.564   8.253
 7658POPC   C3B35385   9.505  20.536   7.953
 7658POPC   C4B35386   9.539  20.568   7.653
 7659POPC   NC335387  29.904  37.651   9.453
 7659POPC   PO435388  29.914  37.694   9.153
 7659POPC   GL135389  29.877  37.677   8.853
 7659POPC   GL235390  29.835  37.631   8.853
 7659POPC   C1A35391  29.899  37.687   8.553
 7659POPC   D2A35392  29.927  37.666   8.253
 7659POPC   C3A35393  29.932  37.650   7.953
 7659POPC   C4A35394  29.964  37.652   7.653
 7659POPC   C1B35395  29.698  37.724   8.553
 7659POPC   C2B35396  29.715  37.710   8.253
 7659POPC   C3B35397  29.666  37.699   7.953
 7659POPC   C4B35398  29.655  37.709   7.653
 7660POPC   NC335399  43.838   7.399   9.453
 7660POPC   PO435400  43.927   7.420   9.153
 7660POPC   GL135401  43.899   7.372   8.853
 7660POPC   GL235402  43.955   7.262   8.853
 7660POPC   C1A35403  43.887   7.406   8.553
 7660POPC   D2A35404  43.880   7.381   8.253
 7660POPC   C3A35405  43.886   7.384   7.953
 7660POPC   C4A35406  43.855   7.439   7.653
 7660POPC   C1B35407  43.890   7.128   8.553
 7660POPC   C2B35408  43.971   7.142   8.253
 7660POPC   C3B35409  43.910   7.131   7.953
 7660POPC   C4B35410  43.891   7.212   7.653
 7661POPC   NC335411   1.261  24.509   9.453
 7661POPC   PO435412   1.208  24.504   9.153
 7661POPC   GL135413   1.258  24.463   8.853
 7661POPC   GL235414   1.278  24.653   8.853
 7661POPC   C1A35415   1.235  24.472   8.553
 7661POPC   D2A35416   1.201  24.442   8.253
 7661POPC   C3A35417   1.199  24.513   7.953
 7661POPC   C4A35418   1.177  24.477   7.653
 7661POPC   C1B35419   1.251  24.727   8.553
 7661POPC   C2B35420   1.282  24.707   8.253
 7661POPC   C3B35421   1.330  24.703   7.953
 7661POPC   C4B35422   1.338  24.682   7.653
 7662POPC   NC335423  33.794  18.264   9.453
 7662POPC   PO435424  33.793  18.304   9.153
 7662POPC   GL135425  33.800  18.264   8.853
 7662POPC   GL235426  33.873  18.421   8.853
 7662POPC   C1A35427  33.801  18.264   8.553
 7662POPC   D2A35428  33.798  18.298   8.253
 7662POPC   C3A35429  33.753  18.236   7.953
 7662POPC   C4A35430  33.785  18.248   7.653
 7662POPC   C1B35431  33.944  18.511   8.553
 7662POPC   C2B35432  33.917  18.478   8.253
 7662POPC   C3B35433  33.957  18.458   7.953
 7662POPC   C4B35434  34.007  18.480   7.653
 7663POPC   NC335435   0.473  41.554   9.453
 7663POPC   PO435436   0.392  41.563   9.153
 7663POPC   GL135437   0.486  41.519   8.853
 7663POPC   GL235438   0.303  41.495   8.853
 7663POPC   C1A35439   0.400  41.512   8.553
 7663POPC   D2A35440   0.390  41.587   8.253
 7663POPC   C3A35441   0.445  41.571   7.953
 7663POPC   C4A35442   0.487  41.565   7.653
 7663POPC   C1B35443   0.233  41.344   8.553
 7663POPC   C2B35444   0.277  41.339   8.253
 7663POPC   C3B35445   0.221  41.391   7.953
 7663POPC   C4B35446   0.244  41.358   7.653
 7664POPC   NC335447  43.860   8.151   9.453
 7664POPC   PO435448  43.911   8.152   9.153
 7664POPC   GL135449  43.890   8.205   8.853
 7664POPC   GL235450  43.913   8.047   8.853
 7664POPC   C1A35451  43.874   8.171   8.553
 7664POPC   D2A35452  43.849   8.152   8.253
 7664POPC   C3A35453  43.888   8.240   7.953
 7664POPC   C4A35454  43.884   8.195   7.653
 7664POPC   C1B35455  44.006   7.949   8.553
 7664POPC   C2B35456  44.010   7.975   8.253
 7664POPC   C3B35457  44.011   8.004   7.953
 7664POPC   C4B35458  43.925   7.924   7.653
 7665POPC   NC335459  29.129  36.166   9.453
 7665POPC   PO435460  29.183  36.092   9.153
 7665POPC   GL135461  29.139  36.082   8.853
 7665POPC   GL235462  29.049  36.170   8.853
 7665POPC   C1A35463  29.194  36.117   8.553
 7665POPC   D2A35464  29.173  36.146   8.253
 7665POPC   C3A35465  29.126  36.097   7.953
 7665POPC   C4A35466  29.118  36.147   7.653
 7665POPC   C1B35467  28.976  36.252   8.553
 7665POPC   C2B35468  28.883  36.259   8.253
 7665POPC   C3B35469  28.903  36.243   7.953
 7665POPC   C4B35470  28.918  36.232   7.653
 7666POPC   NC335471   0.475  19.066   9.453
 7666POPC   PO435472   0.410  19.036   9.153
 7666POPC   GL135473   0.418  19.091   8.853
 7666POPC   GL235474   0.525  19.138   8.853
 7666POPC   C1A35475   0.426  19.105   8.553
 7666POPC   D2A35476   0.486  19.086   8.253
 7666POPC   C3A35477   0.393  19.009   7.953
 7666POPC   C4A35478   0.478  19.104   7.653
 7666POPC   C1B35479   0.688  19.114   8.553
 7666POPC   C2B35480   0.719  19.097   8.253
 7666POPC   C3B35481   0.696  19.111   7.953
 7666POPC   C4B35482   0.693  19.079   7.653
 7667POPC   NC335483   9.016  27.560   9.453
 7667POPC   PO435484   8.987  27.610   9.153
 7667POPC   GL135485   9.015  27.599   8.853
 7667POPC   GL235486   8.898  27.744   8.853
 7667POPC   C1A35487   9.015  27.621   8.553
 7667POPC   D2A35488   9.013  27.621   8.253
 7667POPC   C3A35489   8.985  27.562   7.953
 7667POPC   C4A35490   8.943  27.609   7.653
 7667POPC   C1B35491   8.871  27.799   8.553
 7667POPC   C2B35492   8.877  27.774   8.253
 7667POPC   C3B35493   8.867  27.825   7.953
 7667POPC   C4B35494   8.913  27.853   7.653
 7668POPC   NC335495  26.063  39.967   9.453
 7668POPC   PO435496  26.023  40.016   9.153
 7668POPC   GL135497  26.088  40.034   8.853
 7668POPC   GL235498  26.198  40.012   8.853
 7668POPC   C1A35499  26.059  40.053   8.553
 7668POPC   D2A35500  26.019  40.036   8.253
 7668POPC   C3A35501  26.048  39.987   7.953
 7668POPC   C4A35502  26.091  40.036   7.653
 7668POPC   C1B35503  26.278  40.043   8.553
 7668POPC   C2B35504  26.341  40.036   8.253
 7668POPC   C3B35505  26.334  40.004   7.953
 7668POPC   C4B35506  26.277  40.044   7.653
 7669POPC   NC335507  29.920  33.768   9.453
 7669POPC   PO435508  29.929  33.753   9.153
 7669POPC   GL135509  29.934  33.826   8.853
 7669POPC   GL235510  29.987  33.681   8.853
 7669POPC   C1A35511  29.881  33.842   8.553
 7669POPC   D2A35512  29.874  33.816   8.253
 7669POPC   C3A35513  29.921  33.818   7.953
 7669POPC   C4A35514  29.964  33.834   7.653
 7669POPC   C1B35515  30.024  33.546   8.553
 7669POPC   C2B35516  29.974  33.570   8.253
 7669POPC   C3B35517  30.057  33.558   7.953
 7669POPC   C4B35518  30.023  33.560   7.653
 7670POPC   NC335519   5.132   2.793   9.453
 7670POPC   PO435520   5.104   2.788   9.153
 7670POPC   GL135521   5.100   2.722   8.853
 7670POPC   GL235522   5.142   2.861   8.853
 7670POPC   C1A35523   5.081   2.754   8.553
 7670POPC   D2A35524   5.062   2.790   8.253
 7670POPC   C3A35525   5.071   2.814   7.953
 7670POPC   C4A35526   5.133   2.792   7.653
 7670POPC   C1B35527   5.184   3.002   8.553
 7670POPC   C2B35528   5.259   2.947   8.253
 7670POPC   C3B35529   5.237   3.009   7.953
 7670POPC   C4B35530   5.173   2.968   7.653
 7671POPC   NC335531  39.248  32.271   9.453
 7671POPC   PO435532  39.246  32.240   9.153
 7671POPC   GL135533  39.209  32.216   8.853
 7671POPC   GL235534  39.303  32.232   8.853
 7671POPC   C1A35535  39.249  32.257   8.553
 7671POPC   D2A35536  39.186  32.226   8.253
 7671POPC   C3A35537  39.258  32.232   7.953
 7671POPC   C4A35538  39.227  32.296   7.653
 7671POPC   C1B35539  39.444  32.159   8.553
 7671POPC   C2B35540  39.406  32.119   8.253
 7671POPC   C3B35541  39.493  32.123   7.953
 7671POPC   C4B35542  39.472  32.080   7.653
 7672POPC   NC335543  40.758  24.518   9.453
 7672POPC   PO435544  40.800  24.480   9.153
 7672POPC   GL135545  40.832  24.491   8.853
 7672POPC   GL235546  40.808  24.336   8.853
 7672POPC   C1A35547  40.760  24.480   8.553
 7672POPC   D2A35548  40.790  24.477   8.253
 7672POPC   C3A35549  40.743  24.513   7.953
 7672POPC   C4A35550  40.749  24.481   7.653
 7672POPC   C1B35551  40.759  24.230   8.553
 7672POPC   C2B35552  40.761  24.274   8.253
 7672POPC   C3B35553  40.834  24.210   7.953
 7672POPC   C4B35554  40.811  24.209   7.653
 7673POPC   NC335555  22.186  17.494   9.453
 7673POPC   PO435556  22.118  17.538   9.153
 7673POPC   GL135557  22.182  17.464   8.853
 7673POPC   GL235558  22.320  17.550   8.853
 7673POPC   C1A35559  22.163  17.533   8.553
 7673POPC   D2A35560  22.202  17.536   8.253
 7673POPC   C3A35561  22.184  17.468   7.953
 7673POPC   C4A35562  22.184  17.539   7.653
 7673POPC   C1B35563  22.402  17.503   8.553
 7673POPC   C2B35564  22.366  17.485   8.253
 7673POPC   C3B35565  22.382  17.495   7.953
 7673POPC   C4B35566  22.443  17.481   7.653
 7674POPC   NC335567  11.261  29.126   9.453
 7674POPC   PO435568  11.256  29.178   9.153
 7674POPC   GL135569  11.257  29.172   8.853
 7674POPC   GL235570  11.166  29.138   8.853
 7674POPC   C1A35571  11.345  29.103   8.553
 7674POPC   D2A35572  11.306  29.165   8.253
 7674POPC   C3A35573  11.342  29.168   7.953
 7674POPC   C4A35574  11.312  29.147   7.653
 7674POPC   C1B35575  11.052  29.051   8.553
 7674POPC   C2B35576  11.035  29.121   8.253
 7674POPC   C3B35577  11.014  29.124   7.953
 7674POPC   C4B35578  11.078  29.082   7.653
 7675POPC   NC335579  12.056   7.448   9.453
 7675POPC   PO435580  12.118   7.453   9.153
 7675POPC   GL135581  12.091   7.414   8.853
 7675POPC   GL235582  11.938   7.436   8.853
 7675POPC   C1A35583  12.098   7.432   8.553
 7675POPC   D2A35584  12.056   7.405   8.253
 7675POPC   C3A35585  12.048   7.376   7.953
 7675POPC   C4A35586  12.114   7.413   7.653
 7675POPC   C1B35587  11.854   7.367   8.553
 7675POPC   C2B35588  11.791   7.450   8.253
 7675POPC   C3B35589  11.835   7.369   7.953
 7675POPC   C4B35590  11.815   7.367   7.653
 7676POPC   NC335591  19.872  43.087   9.453
 7676POPC   PO435592  19.865  43.091   9.153
 7676POPC   GL135593  19.881  43.119   8.853
 7676POPC   GL235594  19.726  43.025   8.853
 7676POPC   C1A35595  19.796  43.064   8.553
 7676POPC   D2A35596  19.824  43.149   8.253
 7676POPC   C3A35597  19.792  43.062   7.953
 7676POPC   C4A35598  19.864  43.064   7.653
 7676POPC   C1B35599  19.661  42.982   8.553
 7676POPC   C2B35600  19.666  42.980   8.253
 7676POPC   C3B35601  19.626  42.927   7.953
 7676POPC   C4B35602  19.602  42.964   7.653
 7677POPC   NC335603  12.835  40.000   9.453
 7677POPC   PO435604  12.844  39.990   9.153
 7677POPC   GL135605  12.894  40.047   8.853
 7677POPC   GL235606  12.834  39.881   8.853
 7677POPC   C1A35607  12.881  40.005   8.553
 7677POPC   D2A35608  12.842  40.025   8.253
 7677POPC   C3A35609  12.901  40.050   7.953
 7677POPC   C4A35610  12.872  40.031   7.653
 7677POPC   C1B35611  12.724  39.757   8.553
 7677POPC   C2B35612  12.753  39.771   8.253
 7677POPC   C3B35613  12.712  39.791   7.953
 7677POPC   C4B35614  12.699  39.798   7.653
 7678POPC   NC335615  22.138  22.893   9.453
 7678POPC   PO435616  22.133  22.944   9.153
 7678POPC   GL135617  22.156  22.951   8.853
 7678POPC   GL235618  22.213  22.794   8.853
 7678POPC   C1A35619  22.139  22.982   8.553
 7678POPC   D2A35620  22.115  22.980   8.253
 7678POPC   C3A35621  22.123  22.965   7.953
 7678POPC   C4A35622  22.207  22.985   7.653
 7678POPC   C1B35623  22.254  22.709   8.553
 7678POPC   C2B35624  22.262  22.702   8.253
 7678POPC   C3B35625  22.295  22.735   7.953
 7678POPC   C4B35626  22.250  22.696   7.653
 7679POPC   NC335627  33.023  22.188   9.453
 7679POPC   PO435628  32.987  22.159   9.153
 7679POPC   GL135629  32.993  22.174   8.853
 7679POPC   GL235630  33.141  22.268   8.853
 7679POPC   C1A35631  33.013  22.133   8.553
 7679POPC   D2A35632  33.013  22.149   8.253
 7679POPC   C3A35633  33.041  22.139   7.953
 7679POPC   C4A35634  32.985  22.167   7.653
 7679POPC   C1B35635  33.273  22.275   8.553
 7679POPC   C2B35636  33.185  22.306   8.253
 7679POPC   C3B35637  33.247  22.285   7.953
 7679POPC   C4B35638  33.212  22.346   7.653
 7680POPC   NC335639  38.475  39.966   9.453
 7680POPC   PO435640  38.474  40.000   9.153
 7680POPC   GL135641  38.469  39.979   8.853
 7680POPC   GL235642  38.563  40.000   8.853
 7680POPC   C1A35643  38.454  39.995   8.553
 7680POPC   D2A35644  38.501  39.987   8.253
 7680POPC   C3A35645  38.479  40.023   7.953
 7680POPC   C4A35646  38.449  40.020   7.653
 7680POPC   C1B35647  38.655  39.869   8.553
 7680POPC   C2B35648  38.706  39.884   8.253
 7680POPC   C3B35649  38.687  39.862   7.953
 7680POPC   C4B35650  38.648  39.929   7.653
 7681POPC   NC335651  44.636  34.562   9.453
 7681POPC   PO435652  44.693  34.589   9.153
 7681POPC   GL135653  44.686  34.589   8.853
 7681POPC   GL235654  44.685  34.674   8.853
 7681POPC   C1A35655  44.675  34.584   8.553
 7681POPC   D2A35656  44.632  34.535   8.253
 7681POPC   C3A35657  44.625  34.586   7.953
 7681POPC   C4A35658  44.612  34.540   7.653
 7681POPC   C1B35659  44.734  34.837   8.553
 7681POPC   C2B35660  44.669  34.784   8.253
 7681POPC   C3B35661  44.677  34.830   7.953
 7681POPC   C4B35662  44.736  34.822   7.653
 7682POPC   NC335663  33.832  43.069   9.453
 7682POPC   PO435664  33.806  43.078   9.153
 7682POPC   GL135665  33.790  43.140   8.853
 7682POPC   GL235666  33.758  43.049   8.853
 7682POPC   C1A35667  33.823  43.109   8.553
 7682POPC   D2A35668  33.795  43.075   8.253
 7682POPC   C3A35669  33.803  43.079   7.953
 7682POPC   C4A35670  33.785  43.085   7.653
 7682POPC   C1B35671  33.632  42.902   8.553
 7682POPC   C2B35672  33.611  42.938   8.253
 7682POPC   C3B35673  33.634  42.951   7.953
 7682POPC   C4B35674  33.584  42.916   7.653
 7683POPC   NC335675  15.139  24.460   9.453
 7683POPC   PO435676  15.145  24.519   9.153
 7683POPC   GL135677  15.168  24.444   8.853
 7683POPC   GL235678  15.025  24.457   8.853
 7683POPC   C1A35679  15.180  24.535   8.553
 7683POPC   D2A35680  15.209  24.519   8.253
 7683POPC   C3A35681  15.188  24.463   7.953
 7683POPC   C4A35682  15.220  24.463   7.653
 7683POPC   C1B35683  14.964  24.403   8.553
 7683POPC   C2B35684  14.928  24.422   8.253
 7683POPC   C3B35685  14.963  24.439   7.953
 7683POPC   C4B35686  14.970  24.463   7.653
 7684POPC   NC335687  18.315   6.625   9.453
 7684POPC   PO435688  18.244   6.680   9.153
 7684POPC   GL135689  18.297   6.653   8.853
 7684POPC   GL235690  18.298   6.810   8.853
 7684POPC   C1A35691  18.308   6.654   8.553
 7684POPC   D2A35692  18.290   6.610   8.253
 7684POPC   C3A35693  18.326   6.623   7.953
 7684POPC   C4A35694  18.242   6.631   7.653
 7684POPC   C1B35695  18.318   6.877   8.553
 7684POPC   C2B35696  18.313   6.897   8.253
 7684POPC   C3B35697  18.297   6.879   7.953
 7684POPC   C4B35698  18.313   6.933   7.653
 7685POPC   NC335699  37.696  16.715   9.453
 7685POPC   PO435700  37.661  16.775   9.153
 7685POPC   GL135701  37.704  16.707   8.853
 7685POPC   GL235702  37.706  16.890   8.853
 7685POPC   C1A35703  37.692  16.696   8.553
 7685POPC   D2A35704  37.705  16.697   8.253
 7685POPC   C3A35705  37.637  16.777   7.953
 7685POPC   C4A35706  37.714  16.767   7.653
 7685POPC   C1B35707  37.688  16.960   8.553
 7685POPC   C2B35708  37.709  16.947   8.253
 7685POPC   C3B35709  37.723  16.946   7.953
 7685POPC   C4B35710  37.749  16.968   7.653
 7686POPC   NC335711  43.147  40.765   9.453
 7686POPC   PO435712  43.090  40.827   9.153
 7686POPC   GL135713  43.131  40.761   8.853
 7686POPC   GL235714  43.203  40.861   8.853
 7686POPC   C1A35715  43.088  40.743   8.553
 7686POPC   D2A35716  43.068  40.821   8.253
 7686POPC   C3A35717  43.159  40.807   7.953
 7686POPC   C4A35718  43.107  40.791   7.653
 7686POPC   C1B35719  43.350  40.828   8.553
 7686POPC   C2B35720  43.358  40.819   8.253
 7686POPC   C3B35721  43.303  40.912   7.953
 7686POPC   C4B35722  43.371  40.828   7.653
 7687POPC   NC335723   8.208   3.544   9.453
 7687POPC   PO435724   8.244   3.540   9.153
 7687POPC   GL135725   8.228   3.544   8.853
 7687POPC   GL235726   8.233   3.443   8.853
 7687POPC   C1A35727   8.172   3.588   8.553
 7687POPC   D2A35728   8.173   3.503   8.253
 7687POPC   C3A35729   8.222   3.523   7.953
 7687POPC   C4A35730   8.157   3.584   7.653
 7687POPC   C1B35731   8.253   3.316   8.553
 7687POPC   C2B35732   8.198   3.253   8.253
 7687POPC   C3B35733   8.260   3.267   7.953
 7687POPC   C4B35734   8.235   3.276   7.653
 7688POPC   NC335735  30.737  33.768   9.453
 7688POPC   PO435736  30.700  33.841   9.153
 7688POPC   GL135737  30.727  33.774   8.853
 7688POPC   GL235738  30.529  33.786   8.853
 7688POPC   C1A35739  30.677  33.841   8.553
 7688POPC   D2A35740  30.726  33.797   8.253
 7688POPC   C3A35741  30.693  33.809   7.953
 7688POPC   C4A35742  30.739  33.803   7.653
 7688POPC   C1B35743  30.451  33.839   8.553
 7688POPC   C2B35744  30.442  33.895   8.253
 7688POPC   C3B35745  30.482  33.840   7.953
 7688POPC   C4B35746  30.453  33.815   7.653
 7689POPC   NC335747  33.811  24.487   9.453
 7689POPC   PO435748  33.824  24.520   9.153
 7689POPC   GL135749  33.846  24.485   8.853
 7689POPC   GL235750  33.673  24.537   8.853
 7689POPC   C1A35751  33.781  24.533   8.553
 7689POPC   D2A35752  33.792  24.489   8.253
 7689POPC   C3A35753  33.801  24.491   7.953
 7689POPC   C4A35754  33.796  24.479   7.653
 7689POPC   C1B35755  33.568  24.503   8.553
 7689POPC   C2B35756  33.511  24.503   8.253
 7689POPC   C3B35757  33.572  24.479   7.953
 7689POPC   C4B35758  33.569  24.527   7.653
 7690POPC   NC335759  40.038  26.019   9.453
 7690POPC   PO435760  40.024  26.084   9.153
 7690POPC   GL135761  40.023  26.028   8.853
 7690POPC   GL235762  39.932  26.085   8.853
 7690POPC   C1A35763  40.018  26.089   8.553
 7690POPC   D2A35764  39.982  26.059   8.253
 7690POPC   C3A35765  39.999  26.066   7.953
 7690POPC   C4A35766  40.045  26.085   7.653
 7690POPC   C1B35767  39.779  26.171   8.553
 7690POPC   C2B35768  39.846  26.146   8.253
 7690POPC   C3B35769  39.816  26.154   7.953
 7690POPC   C4B35770  39.769  26.154   7.653
 7691POPC   NC335771  10.510  40.800   9.453
 7691POPC   PO435772  10.506  40.798   9.153
 7691POPC   GL135773  10.534  40.793   8.853
 7691POPC   GL235774  10.601  40.801   8.853
 7691POPC   C1A35775  10.553  40.807   8.553
 7691POPC   D2A35776  10.551  40.811   8.253
 7691POPC   C3A35777  10.501  40.776   7.953
 7691POPC   C4A35778  10.544  40.800   7.653
 7691POPC   C1B35779  10.799  40.926   8.553
 7691POPC   C2B35780  10.713  40.845   8.253
 7691POPC   C3B35781  10.701  40.876   7.953
 7691POPC   C4B35782  10.794  40.931   7.653
 7692POPC   NC335783  29.956  30.718   9.453
 7692POPC   PO435784  29.922  30.694   9.153
 7692POPC   GL135785  29.892  30.694   8.853
 7692POPC   GL235786  29.960  30.802   8.853
 7692POPC   C1A35787  29.879  30.661   8.553
 7692POPC   D2A35788  29.918  30.686   8.253
 7692POPC   C3A35789  29.907  30.733   7.953
 7692POPC   C4A35790  29.904  30.674   7.653
 7692POPC   C1B35791  29.906  30.912   8.553
 7692POPC   C2B35792  29.898  30.959   8.253
 7692POPC   C3B35793  29.923  30.952   7.953
 7692POPC   C4B35794  29.922  30.982   7.653
 7693POPC   NC335795   9.778   8.239   9.453
 7693POPC   PO435796   9.769   8.176   9.153
 7693POPC   GL135797   9.785   8.162   8.853
 7693POPC   GL235798   9.848   8.229   8.853
 7693POPC   C1A35799   9.768   8.198   8.553
 7693POPC   D2A35800   9.703   8.226   8.253
 7693POPC   C3A35801   9.739   8.216   7.953
 7693POPC   C4A35802   9.743   8.244   7.653
 7693POPC   C1B35803   9.955   8.222   8.553
 7693POPC   C2B35804   9.952   8.248   8.253
 7693POPC   C3B35805   9.959   8.253   7.953
 7693POPC   C4B35806   9.964   8.245   7.653
 7694POPC   NC335807   5.833  11.324   9.453
 7694POPC   PO435808   5.881  11.251   9.153
 7694POPC   GL135809   5.907  11.338   8.853
 7694POPC   GL235810   5.832  11.145   8.853
 7694POPC   C1A35811   5.830  11.258   8.553
 7694POPC   D2A35812   5.910  11.296   8.253
 7694POPC   C3A35813   5.851  11.251   7.953
 7694POPC   C4A35814   5.886  11.315   7.653
 7694POPC   C1B35815   5.840  11.023   8.553
 7694POPC   C2B35816   5.779  11.106   8.253
 7694POPC   C3B35817   5.857  11.067   7.953
 7694POPC   C4B35818   5.843  11.035   7.653
 7695POPC   NC335819  19.020   2.731   9.453
 7695POPC   PO435820  19.038   2.772   9.153
 7695POPC   GL135821  19.069   2.812   8.853
 7695POPC   GL235822  19.170   2.721   8.853
 7695POPC   C1A35823  19.054   2.783   8.553
 7695POPC   D2A35824  19.089   2.795   8.253
 7695POPC   C3A35825  19.030   2.725   7.953
 7695POPC   C4A35826  19.071   2.813   7.653
 7695POPC   C1B35827  19.263   2.655   8.553
 7695POPC   C2B35828  19.306   2.635   8.253
 7695POPC   C3B35829  19.295   2.672   7.953
 7695POPC   C4B35830  19.330   2.649   7.653
 7696POPC   NC335831  42.304  43.098   9.453
 7696POPC   PO435832  42.361  43.152   9.153
 7696POPC   GL135833  42.312  43.113   8.853
 7696POPC   GL235834  42.474  43.121   8.853
 7696POPC   C1A35835  42.354  43.152   8.553
 7696POPC   D2A35836  42.372  43.094   8.253
 7696POPC   C3A35837  42.382  43.119   7.953
 7696POPC   C4A35838  42.345  43.072   7.653
 7696POPC   C1B35839  42.570  43.113   8.553
 7696POPC   C2B35840  42.549  43.118   8.253
 7696POPC   C3B35841  42.623  43.145   7.953
 7696POPC   C4B35842  42.589  43.170   7.653
 7697POPC   NC335843  43.118   1.215   9.453
 7697POPC   PO435844  43.133   1.171   9.153
 7697POPC   GL135845  43.067   1.227   8.853
 7697POPC   GL235846  43.253   1.248   8.853
 7697POPC   C1A35847  43.094   1.194   8.553
 7697POPC   D2A35848  43.158   1.183   8.253
 7697POPC   C3A35849  43.157   1.223   7.953
 7697POPC   C4A35850  43.110   1.195   7.653
 7697POPC   C1B35851  43.370   1.299   8.553
 7697POPC   C2B35852  43.338   1.280   8.253
 7697POPC   C3B35853  43.335   1.325   7.953
 7697POPC   C4B35854  43.359   1.321   7.653
 7698POPC   NC335855  36.901  15.957   9.453
 7698POPC   PO435856  36.876  15.972   9.153
 7698POPC   GL135857  36.875  15.907   8.853
 7698POPC   GL235858  36.808  15.871   8.853
 7698POPC   C1A35859  36.949  16.002   8.553
 7698POPC   D2A35860  36.867  15.990   8.253
 7698POPC   C3A35861  36.895  15.971   7.953
 7698POPC   C4A35862  36.948  15.963   7.653
 7698POPC   C1B35863  36.665  15.922   8.553
 7698POPC   C2B35864  36.671  15.919   8.253
 7698POPC   C3B35865  36.697  15.910   7.953
 7698POPC   C4B35866  36.621  15.892   7.653
 7699POPC   NC335867  13.626  38.422   9.453
 7699POPC   PO435868  13.666  38.471   9.153
 7699POPC   GL135869  13.669  38.449   8.853
 7699POPC   GL235870  13.667  38.329   8.853
 7699POPC   C1A35871  13.596  38.504   8.553
 7699POPC   D2A35872  13.589  38.483   8.253
 7699POPC   C3A35873  13.588  38.458   7.953
 7699POPC   C4A35874  13.651  38.493   7.653
 7699POPC   C1B35875  13.641  38.168   8.553
 7699POPC   C2B35876  13.650  38.165   8.253
 7699POPC   C3B35877  13.585  38.251   7.953
 7699POPC   C4B35878  13.643  38.204   7.653
 7700POPC   NC335879  15.984  17.465   9.453
 7700POPC   PO435880  15.905  17.488   9.153
 7700POPC   GL135881  15.972  17.462   8.853
 7700POPC   GL235882  15.879  17.426   8.853
 7700POPC   C1A35883  15.932  17.528   8.553
 7700POPC   D2A35884  15.943  17.536   8.253
 7700POPC   C3A35885  15.909  17.543   7.953
 7700POPC   C4A35886  15.966  17.471   7.653
 7700POPC   C1B35887  15.731  17.378   8.553
 7700POPC   C2B35888  15.721  17.386   8.253
 7700POPC   C3B35889  15.753  17.448   7.953
 7700POPC   C4B35890  15.685  17.412   7.653
 7701POPC   NC335891   8.217  37.688   9.453
 7701POPC   PO435892   8.173  37.706   9.153
 7701POPC   GL135893   8.213  37.649   8.853
 7701POPC   GL235894   8.346  37.733   8.853
 7701POPC   C1A35895   8.220  37.718   8.553
 7701POPC   D2A35896   8.163  37.685   8.253
 7701POPC   C3A35897   8.190  37.661   7.953
 7701POPC   C4A35898   8.209  37.677   7.653
 7701POPC   C1B35899   8.402  37.771   8.553
 7701POPC   C2B35900   8.411  37.776   8.253
 7701POPC   C3B35901   8.387  37.830   7.953
 7701POPC   C4B35902   8.446  37.820   7.653
 7702POPC   NC335903  33.034   8.168   9.453
 7702POPC   PO435904  32.985   8.194   9.153
 7702POPC   GL135905  33.071   8.198   8.853
 7702POPC   GL235906  33.146   8.183   8.853
 7702POPC   C1A35907  33.034   8.246   8.553
 7702POPC   D2A35908  32.983   8.207   8.253
 7702POPC   C3A35909  33.023   8.149   7.953
 7702POPC   C4A35910  33.037   8.182   7.653
 7702POPC   C1B35911  33.276   8.132   8.553
 7702POPC   C2B35912  33.265   8.182   8.253
 7702POPC   C3B35913  33.293   8.144   7.953
 7702POPC   C4B35914  33.254   8.180   7.653
 7703POPC   NC335915   5.850  22.897   9.453
 7703POPC   PO435916   5.912  22.969   9.153
 7703POPC   GL135917   5.830  22.952   8.853
 7703POPC   GL235918   5.762  22.935   8.853
 7703POPC   C1A35919   5.856  22.941   8.553
 7703POPC   D2A35920   5.903  22.976   8.253
 7703POPC   C3A35921   5.861  22.921   7.953
 7703POPC   C4A35922   5.918  22.920   7.653
 7703POPC   C1B35923   5.602  22.984   8.553
 7703POPC   C2B35924   5.629  23.010   8.253
 7703POPC   C3B35925   5.578  22.931   7.953
 7703POPC   C4B35926   5.660  23.017   7.653
 7704POPC   NC335927  41.603  36.154   9.453
 7704POPC   PO435928  41.555  36.160   9.153
 7704POPC   GL135929  41.569  36.176   8.853
 7704POPC   GL235930  41.466  36.139   8.853
 7704POPC   C1A35931  41.570  36.134   8.553
 7704POPC   D2A35932  41.524  36.149   8.253
 7704POPC   C3A35933  41.515  36.176   7.953
 7704POPC   C4A35934  41.512  36.119   7.653
 7704POPC   C1B35935  41.337  36.140   8.553
 7704POPC   C2B35936  41.326  36.125   8.253
 7704POPC   C3B35937  41.300  36.130   7.953
 7704POPC   C4B35938  41.306  36.156   7.653
 7705POPC   NC335939  19.072   0.478   9.453
 7705POPC   PO435940  19.027   0.393   9.153
 7705POPC   GL135941  19.063   0.483   8.853
 7705POPC   GL235942  19.179   0.458   8.853
 7705POPC   C1A35943  19.026   0.447   8.553
 7705POPC   D2A35944  19.075   0.446   8.253
 7705POPC   C3A35945  19.032   0.483   7.953
 7705POPC   C4A35946  19.031   0.463   7.653
 7705POPC   C1B35947  19.346   0.451   8.553
 7705POPC   C2B35948  19.319   0.455   8.253
 7705POPC   C3B35949  19.274   0.520   7.953
 7705POPC   C4B35950  19.300   0.440   7.653
 7706POPC   NC335951  18.323   3.498   9.453
 7706POPC   PO435952  18.236   3.572   9.153
 7706POPC   GL135953  18.238   3.530   8.853
 7706POPC   GL235954  18.241   3.448   8.853
 7706POPC   C1A35955  18.289   3.571   8.553
 7706POPC   D2A35956  18.311   3.508   8.253
 7706POPC   C3A35957  18.245   3.575   7.953
 7706POPC   C4A35958  18.296   3.539   7.653
 7706POPC   C1B35959  18.300   3.333   8.553
 7706POPC   C2B35960  18.269   3.307   8.253
 7706POPC   C3B35961  18.249   3.251   7.953
 7706POPC   C4B35962  18.231   3.316   7.653
 7707POPC   NC335963   1.218  42.365   9.453
 7707POPC   PO435964   1.198  42.314   9.153
 7707POPC   GL135965   1.198  42.373   8.853
 7707POPC   GL235966   1.041  42.309   8.853
 7707POPC   C1A35967   1.196  42.368   8.553
 7707POPC   D2A35968   1.169  42.364   8.253
 7707POPC   C3A35969   1.167  42.379   7.953
 7707POPC   C4A35970   1.226  42.308   7.653
 7707POPC   C1B35971   0.946  42.373   8.553
 7707POPC   C2B35972   0.961  42.324   8.253
 7707POPC   C3B35973   1.010  42.400   7.953
 7707POPC   C4B35974   0.953  42.382   7.653
 7708POPC   NC335975   1.998  19.874   9.453
 7708POPC   PO435976   2.009  19.841   9.153
 7708POPC   GL135977   1.995  19.853   8.853
 7708POPC   GL235978   2.032  19.931   8.853
 7708POPC   C1A35979   2.034  19.843   8.553
 7708POPC   D2A35980   2.039  19.829   8.253
 7708POPC   C3A35981   1.942  19.799   7.953
 7708POPC   C4A35982   2.031  19.856   7.653
 7708POPC   C1B35983   2.002  20.128   8.553
 7708POPC   C2B35984   1.971  20.058   8.253
 7708POPC   C3B35985   1.932  20.128   7.953
 7708POPC   C4B35986   1.935  20.094   7.653
 7709POPC   NC335987  29.184  10.524   9.453
 7709POPC   PO435988  29.104  10.476   9.153
 7709POPC   GL135989  29.143  10.563   8.853
 7709POPC   GL235990  29.184  10.662   8.853
 7709POPC   C1A35991  29.159  10.495   8.553
 7709POPC   D2A35992  29.150  10.522   8.253
 7709POPC   C3A35993  29.166  10.570   7.953
 7709POPC   C4A35994  29.116  10.568   7.653
 7709POPC   C1B35995  29.320  10.708   8.553
 7709POPC   C2B35996  29.264  10.765   8.253
 7709POPC   C3B35997  29.278  10.701   7.953
 7709POPC   C4B35998  29.227  10.729   7.653
 7710POPC   NC335999  37.717   7.389   9.453
 7710POPC   PO436000  37.691   7.378   9.153
 7710POPC   GL136001  37.728   7.375   8.853
 7710POPC   GL236002  37.746   7.331   8.853
 7710POPC   C1A36003  37.717   7.386   8.553
 7710POPC   D2A36004  37.674   7.438   8.253
 7710POPC   C3A36005  37.654   7.391   7.953
 7710POPC   C4A36006  37.723   7.383   7.653
 7710POPC   C1B36007  37.921   7.245   8.553
 7710POPC   C2B36008  37.912   7.247   8.253
 7710POPC   C3B36009  37.905   7.243   7.953
 7710POPC   C4B36010  37.905   7.271   7.653
 7711POPC   NC336011   5.043  38.497   9.453
 7711POPC   PO436012   5.113  38.423   9.153
 7711POPC   GL136013   5.072  38.490   8.853
 7711POPC   GL236014   5.103  38.612   8.853
 7711POPC   C1A36015   5.067  38.498   8.553
 7711POPC   D2A36016   5.095  38.406   8.253
 7711POPC   C3A36017   5.090  38.460   7.953
 7711POPC   C4A36018   5.099  38.427   7.653
 7711POPC   C1B36019   5.016  38.703   8.553
 7711POPC   C2B36020   5.001  38.680   8.253
 7711POPC   C3B36021   5.069  38.712   7.953
 7711POPC   C4B36022   4.999  38.654   7.653
 7712POPC   NC336023  37.690  12.894   9.453
 7712POPC   PO436024  37.672  12.882   9.153
 7712POPC   GL136025  37.669  12.879   8.853
 7712POPC   GL236026  37.599  12.777   8.853
 7712POPC   C1A36027  37.698  12.856   8.553
 7712POPC   D2A36028  37.645  12.809   8.253
 7712POPC   C3A36029  37.696  12.820   7.953
 7712POPC   C4A36030  37.638  12.897   7.653
 7712POPC   C1B36031  37.602  12.581   8.553
 7712POPC   C2B36032  37.611  12.659   8.253
 7712POPC   C3B36033  37.568  12.634   7.953
 7712POPC   C4B36034  37.610  12.641   7.653
 7713POPC   NC336035  28.336  26.033   9.453
 7713POPC   PO436036  28.352  26.079   9.153
 7713POPC   GL136037  28.324  26.026   8.853
 7713POPC   GL236038  28.510  26.044   8.853
 7713POPC   C1A36039  28.350  26.080   8.553
 7713POPC   D2A36040  28.346  25.998   8.253
 7713POPC   C3A36041  28.373  26.018   7.953
 7713POPC   C4A36042  28.382  26.043   7.653
 7713POPC   C1B36043  28.628  26.113   8.553
 7713POPC   C2B36044  28.636  26.117   8.253
 7713POPC   C3B36045  28.656  26.112   7.953
 7713POPC   C4B36046  28.629  26.125   7.653
 7714POPC   NC336047  25.266  14.417   9.453
 7714POPC   PO436048  25.247  14.393   9.153
 7714POPC   GL136049  25.229  14.443   8.853
 7714POPC   GL236050  25.185  14.502   8.853
 7714POPC   C1A36051  25.285  14.369   8.553
 7714POPC   D2A36052  25.242  14.448   8.253
 7714POPC   C3A36053  25.224  14.422   7.953
 7714POPC   C4A36054  25.238  14.360   7.653
 7714POPC   C1B36055  25.123  14.679   8.553
 7714POPC   C2B36056  25.137  14.606   8.253
 7714POPC   C3B36057  25.125  14.613   7.953
 7714POPC   C4B36058  25.152  14.587   7.653
 7715POPC   NC336059  19.804   0.434   9.453
 7715POPC   PO436060  19.867   0.401   9.153
 7715POPC   GL136061  19.843   0.479   8.853
 7715POPC   GL236062  19.716   0.376   8.853
 7715POPC   C1A36063  19.799   0.400   8.553
 7715POPC   D2A36064  19.854   0.391   8.253
 7715POPC   C3A36065  19.816   0.401   7.953
 7715POPC   C4A36066  19.803   0.479   7.653
 7715POPC   C1B36067  19.595   0.412   8.553
 7715POPC   C2B36068  19.604   0.418   8.253
 7715POPC   C3B36069  19.579   0.438   7.953
 7715POPC   C4B36070  19.624   0.405   7.653
 7716POPC   NC336071  28.322   3.575   9.453
 7716POPC   PO436072  28.412   3.510   9.153
 7716POPC   GL136073  28.384   3.522   8.853
 7716POPC   GL236074  28.277   3.674   8.853
 7716POPC   C1A36075  28.372   3.544   8.553
 7716POPC   D2A36076  28.410   3.495   8.253
 7716POPC   C3A36077  28.323   3.518   7.953
 7716POPC   C4A36078  28.321   3.532   7.653
 7716POPC   C1B36079  28.207   3.707   8.553
 7716POPC   C2B36080  28.199   3.695   8.253
 7716POPC   C3B36081  28.190   3.697   7.953
 7716POPC   C4B36082  28.218   3.782   7.653
 7717POPC   NC336083  40.017  17.508   9.453
 7717POPC   PO436084  40.041  17.507   9.153
 7717POPC   GL136085  40.020  17.487   8.853
 7717POPC   GL236086  39.856  17.539   8.853
 7717POPC   C1A36087  40.024  17.490   8.553
 7717POPC   D2A36088  40.012  17.501   8.253
 7717POPC   C3A36089  40.006  17.485   7.953
 7717POPC   C4A36090  40.055  17.543   7.653
 7717POPC   C1B36091  39.760  17.622   8.553
 7717POPC   C2B36092  39.804  17.552   8.253
 7717POPC   C3B36093  39.779  17.620   7.953
 7717POPC   C4B36094  39.737  17.552   7.653
 7718POPC   NC336095   8.990  24.516   9.453
 7718POPC   PO436096   9.003  24.476   9.153
 7718POPC   GL136097   8.989  24.447   8.853
 7718POPC   GL236098   8.848  24.492   8.853
 7718POPC   C1A36099   8.994  24.496   8.553
 7718POPC   D2A36100   8.958  24.470   8.253
 7718POPC   C3A36101   8.951  24.504   7.953
 7718POPC   C4A36102   8.986  24.533   7.653
 7718POPC   C1B36103   8.718  24.443   8.553
 7718POPC   C2B36104   8.738  24.488   8.253
 7718POPC   C3B36105   8.732  24.414   7.953
 7718POPC   C4B36106   8.685  24.493   7.653
 7719POPC   NC336107  24.474   4.277   9.453
 7719POPC   PO436108  24.465   4.341   9.153
 7719POPC   GL136109  24.441   4.314   8.853
 7719POPC   GL236110  24.402   4.455   8.853
 7719POPC   C1A36111  24.536   4.298   8.553
 7719POPC   D2A36112  24.484   4.354   8.253
 7719POPC   C3A36113  24.522   4.332   7.953
 7719POPC   C4A36114  24.486   4.330   7.653
 7719POPC   C1B36115  24.348   4.550   8.553
 7719POPC   C2B36116  24.354   4.577   8.253
 7719POPC   C3B36117  24.393   4.582   7.953
 7719POPC   C4B36118  24.382   4.572   7.653
 7720POPC   NC336119  35.385  29.160   9.453
 7720POPC   PO436120  35.305  29.133   9.153
 7720POPC   GL136121  35.350  29.100   8.853
 7720POPC   GL236122  35.201  29.150   8.853
 7720POPC   C1A36123  35.324  29.171   8.553
 7720POPC   D2A36124  35.366  29.186   8.253
 7720POPC   C3A36125  35.358  29.162   7.953
 7720POPC   C4A36126  35.310  29.137   7.653
 7720POPC   C1B36127  35.083  29.226   8.553
 7720POPC   C2B36128  35.112  29.263   8.253
 7720POPC   C3B36129  35.150  29.205   7.953
 7720POPC   C4B36130  35.090  29.185   7.653
 7721POPC   NC336131  36.110  33.814   9.453
 7721POPC   PO436132  36.166  33.848   9.153
 7721POPC   GL136133  36.115  33.784   8.853
 7721POPC   GL236134  36.132  33.687   8.853
 7721POPC   C1A36135  36.147  33.769   8.553
 7721POPC   D2A36136  36.086  33.812   8.253
 7721POPC   C3A36137  36.098  33.835   7.953
 7721POPC   C4A36138  36.118  33.827   7.653
 7721POPC   C1B36139  36.193  33.580   8.553
 7721POPC   C2B36140  36.193  33.602   8.253
 7721POPC   C3B36141  36.155  33.601   7.953
 7721POPC   C4B36142  36.180  33.508   7.653
 7722POPC   NC336143  33.844  13.637   9.453
 7722POPC   PO436144  33.771  13.625   9.153
 7722POPC   GL136145  33.755  13.623   8.853
 7722POPC   GL236146  33.869  13.555   8.853
 7722POPC   C1A36147  33.829  13.618   8.553
 7722POPC   D2A36148  33.805  13.610   8.253
 7722POPC   C3A36149  33.837  13.606   7.953
 7722POPC   C4A36150  33.790  13.598   7.653
 7722POPC   C1B36151  33.822  13.407   8.553
 7722POPC   C2B36152  33.841  13.342   8.253
 7722POPC   C3B36153  33.884  13.411   7.953
 7722POPC   C4B36154  33.805  13.374   7.653
 7723POPC   NC336155  13.581  39.181   9.453
 7723POPC   PO436156  13.615  39.257   9.153
 7723POPC   GL136157  13.580  39.183   8.853
 7723POPC   GL236158  13.754  39.247   8.853
 7723POPC   C1A36159  13.665  39.195   8.553
 7723POPC   D2A36160  13.596  39.225   8.253
 7723POPC   C3A36161  13.578  39.229   7.953
 7723POPC   C4A36162  13.652  39.238   7.653
 7723POPC   C1B36163  13.849  39.304   8.553
 7723POPC   C2B36164  13.883  39.337   8.253
 7723POPC   C3B36165  13.862  39.277   7.953
 7723POPC   C4B36166  13.898  39.330   7.653
 7724POPC   NC336167  41.519   8.951   9.453
 7724POPC   PO436168  41.534   9.003   9.153
 7724POPC   GL136169  41.603   8.927   8.853
 7724POPC   GL236170  41.510   8.901   8.853
 7724POPC   C1A36171  41.533   8.977   8.553
 7724POPC   D2A36172  41.556   8.923   8.253
 7724POPC   C3A36173  41.513   8.942   7.953
 7724POPC   C4A36174  41.528   9.005   7.653
 7724POPC   C1B36175  41.396   8.824   8.553
 7724POPC   C2B36176  41.331   8.804   8.253
 7724POPC   C3B36177  41.366   8.796   7.953
 7724POPC   C4B36178  41.370   8.802   7.653
 7725POPC   NC336179  28.326  34.546   9.453
 7725POPC   PO436180  28.336  34.571   9.153
 7725POPC   GL136181  28.399  34.539   8.853
 7725POPC   GL236182  28.265  34.534   8.853
 7725POPC   C1A36183  28.350  34.527   8.553
 7725POPC   D2A36184  28.337  34.536   8.253
 7725POPC   C3A36185  28.334  34.528   7.953
 7725POPC   C4A36186  28.366  34.558   7.653
 7725POPC   C1B36187  28.106  34.579   8.553
 7725POPC   C2B36188  28.126  34.596   8.253
 7725POPC   C3B36189  28.070  34.560   7.953
 7725POPC   C4B36190  28.154  34.580   7.653
 7726POPC   NC336191  22.904   9.749   9.453
 7726POPC   PO436192  22.967   9.726   9.153
 7726POPC   GL136193  22.946   9.734   8.853
 7726POPC   GL236194  22.869   9.792   8.853
 7726POPC   C1A36195  22.896   9.761   8.553
 7726POPC   D2A36196  22.971   9.760   8.253
 7726POPC   C3A36197  22.986   9.788   7.953
 7726POPC   C4A36198  22.921   9.698   7.653
 7726POPC   C1B36199  22.730   9.913   8.553
 7726POPC   C2B36200  22.780   9.886   8.253
 7726POPC   C3B36201  22.790   9.963   7.953
 7726POPC   C4B36202  22.751   9.960   7.653
 7727POPC   NC336203  33.025  16.751   9.453
 7727POPC   PO436204  33.040  16.721   9.153
 7727POPC   GL136205  33.008  16.778   8.853
 7727POPC   GL236206  32.978  16.627   8.853
 7727POPC   C1A36207  33.008  16.759   8.553
 7727POPC   D2A36208  32.985  16.724   8.253
 7727POPC   C3A36209  33.010  16.708   7.953
 7727POPC   C4A36210  33.025  16.729   7.653
 7727POPC   C1B36211  32.922  16.538   8.553
 7727POPC   C2B36212  32.874  16.513   8.253
 7727POPC   C3B36213  32.903  16.521   7.953
 7727POPC   C4B36214  32.928  16.480   7.653
 7728POPC   NC336215  10.517  28.385   9.453
 7728POPC   PO436216  10.492  28.359   9.153
 7728POPC   GL136217  10.499  28.353   8.853
 7728POPC   GL236218  10.422  28.276   8.853
 7728POPC   C1A36219  10.505  28.327   8.553
 7728POPC   D2A36220  10.483  28.366   8.253
 7728POPC   C3A36221  10.480  28.416   7.953
 7728POPC   C4A36222  10.497  28.332   7.653
 7728POPC   C1B36223  10.337  28.166   8.553
 7728POPC   C2B36224  10.416  28.168   8.253
 7728POPC   C3B36225  10.333  28.194   7.953
 7728POPC   C4B36226  10.372  28.183   7.653
 7729POPC   NC336227  19.088  22.178   9.453
 7729POPC   PO436228  19.084  22.182   9.153
 7729POPC   GL136229  19.021  22.128   8.853
 7729POPC   GL236230  19.058  22.050   8.853
 7729POPC   C1A36231  19.093  22.164   8.553
 7729POPC   D2A36232  19.104  22.201   8.253
 7729POPC   C3A36233  19.046  22.153   7.953
 7729POPC   C4A36234  19.038  22.124   7.653
 7729POPC   C1B36235  19.025  21.887   8.553
 7729POPC   C2B36236  19.005  21.957   8.253
 7729POPC   C3B36237  18.996  21.875   7.953
 7729POPC   C4B36238  18.979  21.886   7.653
 7730POPC   NC336239  31.456  19.045   9.453
 7730POPC   PO436240  31.490  19.051   9.153
 7730POPC   GL136241  31.435  19.064   8.853
 7730POPC   GL236242  31.531  19.184   8.853
 7730POPC   C1A36243  31.517  19.097   8.553
 7730POPC   D2A36244  31.495  19.060   8.253
 7730POPC   C3A36245  31.509  19.064   7.953
 7730POPC   C4A36246  31.439  19.042   7.653
 7730POPC   C1B36247  31.478  19.294   8.553
 7730POPC   C2B36248  31.559  19.279   8.253
 7730POPC   C3B36249  31.531  19.280   7.953
 7730POPC   C4B36250  31.535  19.332   7.653
 7731POPC   NC336251   6.617  22.925   9.453
 7731POPC   PO436252   6.618  22.923   9.153
 7731POPC   GL136253   6.634  22.939   8.853
 7731POPC   GL236254   6.576  22.891   8.853
 7731POPC   C1A36255   6.654  22.955   8.553
 7731POPC   D2A36256   6.606  22.954   8.253
 7731POPC   C3A36257   6.692  22.924   7.953
 7731POPC   C4A36258   6.604  22.937   7.653
 7731POPC   C1B36259   6.481  22.753   8.553
 7731POPC   C2B36260   6.446  22.765   8.253
 7731POPC   C3B36261   6.442  22.800   7.953
 7731POPC   C4B36262   6.419  22.805   7.653
 7732POPC   NC336263  11.270  32.237   9.453
 7732POPC   PO436264  11.256  32.227   9.153
 7732POPC   GL136265  11.276  32.256   8.853
 7732POPC   GL236266  11.338  32.392   8.853
 7732POPC   C1A36267  11.300  32.267   8.553
 7732POPC   D2A36268  11.340  32.234   8.253
 7732POPC   C3A36269  11.329  32.213   7.953
 7732POPC   C4A36270  11.266  32.238   7.653
 7732POPC   C1B36271  11.301  32.465   8.553
 7732POPC   C2B36272  11.255  32.503   8.253
 7732POPC   C3B36273  11.320  32.540   7.953
 7732POPC   C4B36274  11.242  32.464   7.653
 7733POPC   NC336275   6.630   2.757   9.453
 7733POPC   PO436276   6.669   2.724   9.153
 7733POPC   GL136277   6.668   2.771   8.853
 7733POPC   GL236278   6.553   2.635   8.853
 7733POPC   C1A36279   6.606   2.792   8.553
 7733POPC   D2A36280   6.662   2.743   8.253
 7733POPC   C3A36281   6.666   2.789   7.953
 7733POPC   C4A36282   6.670   2.814   7.653
 7733POPC   C1B36283   6.486   2.561   8.553
 7733POPC   C2B36284   6.494   2.503   8.253
 7733POPC   C3B36285   6.518   2.557   7.953
 7733POPC   C4B36286   6.534   2.519   7.653
 7734POPC   NC336287  23.738  39.214   9.453
 7734POPC   PO436288  23.755  39.267   9.153
 7734POPC   GL136289  23.749  39.237   8.853
 7734POPC   GL236290  23.761  39.084   8.853
 7734POPC   C1A36291  23.735  39.238   8.553
 7734POPC   D2A36292  23.752  39.213   8.253
 7734POPC   C3A36293  23.701  39.252   7.953
 7734POPC   C4A36294  23.722  39.212   7.653
 7734POPC   C1B36295  23.822  38.980   8.553
 7734POPC   C2B36296  23.771  39.037   8.253
 7734POPC   C3B36297  23.773  39.012   7.953
 7734POPC   C4B36298  23.783  38.949   7.653
 7735POPC   NC336299  39.183   1.940   9.453
 7735POPC   PO436300  39.241   1.998   9.153
 7735POPC   GL136301  39.230   2.009   8.853
 7735POPC   GL236302  39.344   1.912   8.853
 7735POPC   C1A36303  39.188   1.956   8.553
 7735POPC   D2A36304  39.271   1.956   8.253
 7735POPC   C3A36305  39.207   2.007   7.953
 7735POPC   C4A36306  39.196   1.958   7.653
 7735POPC   C1B36307  39.413   1.770   8.553
 7735POPC   C2B36308  39.344   1.784   8.253
 7735POPC   C3B36309  39.387   1.768   7.953
 7735POPC   C4B36310  39.345   1.746   7.653
 7736POPC   NC336311   1.965  10.489   9.453
 7736POPC   PO436312   2.020  10.532   9.153
 7736POPC   GL136313   1.977  10.537   8.853
 7736POPC   GL236314   2.061  10.514   8.853
 7736POPC   C1A36315   1.998  10.517   8.553
 7736POPC   D2A36316   1.959  10.513   8.253
 7736POPC   C3A36317   1.986  10.573   7.953
 7736POPC   C4A36318   2.004  10.477   7.653
 7736POPC   C1B36319   2.230  10.471   8.553
 7736POPC   C2B36320   2.241  10.466   8.253
 7736POPC   C3B36321   2.219  10.509   7.953
 7736POPC   C4B36322   2.201  10.510   7.653
 7737POPC   NC336323   5.067   1.942   9.453
 7737POPC   PO436324   5.134   2.008   9.153
 7737POPC   GL136325   5.065   1.967   8.853
 7737POPC   GL236326   4.998   1.943   8.853
 7737POPC   C1A36327   5.064   1.963   8.553
 7737POPC   D2A36328   5.140   1.944   8.253
 7737POPC   C3A36329   5.063   1.966   7.953
 7737POPC   C4A36330   5.127   1.968   7.653
 7737POPC   C1B36331   4.888   1.941   8.553
 7737POPC   C2B36332   4.879   2.016   8.253
 7737POPC   C3B36333   4.862   1.999   7.953
 7737POPC   C4B36334   4.818   2.014   7.653
 7738POPC   NC336335  26.001  28.368   9.453
 7738POPC   PO436336  26.050  28.360   9.153
 7738POPC   GL136337  26.020  28.398   8.853
 7738POPC   GL236338  26.167  28.276   8.853
 7738POPC   C1A36339  26.003  28.347   8.553
 7738POPC   D2A36340  26.080  28.365   8.253
 7738POPC   C3A36341  26.058  28.373   7.953
 7738POPC   C4A36342  26.063  28.370   7.653
 7738POPC   C1B36343  26.270  28.169   8.553
 7738POPC   C2B36344  26.198  28.247   8.253
 7738POPC   C3B36345  26.205  28.155   7.953
 7738POPC   C4B36346  26.260  28.199   7.653
 7739POPC   NC336347  34.531  43.112   9.453
 7739POPC   PO436348  34.550  43.092   9.153
 7739POPC   GL136349  34.533  43.064   8.853
 7739POPC   GL236350  34.618  42.989   8.853
 7739POPC   C1A36351  34.625  43.151   8.553
 7739POPC   D2A36352  34.550  43.103   8.253
 7739POPC   C3A36353  34.529  43.107   7.953
 7739POPC   C4A36354  34.610  43.072   7.653
 7739POPC   C1B36355  34.635  42.815   8.553
 7739POPC   C2B36356  34.581  42.845   8.253
 7739POPC   C3B36357  34.654  42.825   7.953
 7739POPC   C4B36358  34.651  42.912   7.653
 7740POPC   NC336359  40.027  23.672   9.453
 7740POPC   PO436360  40.015  23.744   9.153
 7740POPC   GL136361  39.978  23.700   8.853
 7740POPC   GL236362  39.914  23.709   8.853
 7740POPC   C1A36363  40.038  23.706   8.553
 7740POPC   D2A36364  40.033  23.748   8.253
 7740POPC   C3A36365  40.041  23.743   7.953
 7740POPC   C4A36366  39.969  23.692   7.653
 7740POPC   C1B36367  39.747  23.648   8.553
 7740POPC   C2B36368  39.720  23.677   8.253
 7740POPC   C3B36369  39.741  23.629   7.953
 7740POPC   C4B36370  39.765  23.636   7.653
 7741POPC   NC336371  14.378  26.812   9.453
 7741POPC   PO436372  14.446  26.796   9.153
 7741POPC   GL136373  14.383  26.782   8.853
 7741POPC   GL236374  14.487  26.832   8.853
 7741POPC   C1A36375  14.368  26.846   8.553
 7741POPC   D2A36376  14.437  26.801   8.253
 7741POPC   C3A36377  14.408  26.820   7.953
 7741POPC   C4A36378  14.447  26.770   7.653
 7741POPC   C1B36379  14.694  26.917   8.553
 7741POPC   C2B36380  14.641  26.835   8.253
 7741POPC   C3B36381  14.665  26.827   7.953
 7741POPC   C4B36382  14.668  26.836   7.653
 7742POPC   NC336383  22.154  12.106   9.453
 7742POPC   PO436384  22.134  12.082   9.153
 7742POPC   GL136385  22.154  12.028   8.853
 7742POPC   GL236386  22.176  11.917   8.853
 7742POPC   C1A36387  22.180  12.122   8.553
 7742POPC   D2A36388  22.145  12.073   8.253
 7742POPC   C3A36389  22.201  12.042   7.953
 7742POPC   C4A36390  22.158  12.100   7.653
 7742POPC   C1B36391  22.194  11.843   8.553
 7742POPC   C2B36392  22.158  11.806   8.253
 7742POPC   C3B36393  22.199  11.871   7.953
 7742POPC   C4B36394  22.174  11.869   7.653
 7743POPC   NC336395  40.779  26.057   9.453
 7743POPC   PO436396  40.774  26.085   9.153
 7743POPC   GL136397  40.785  26.021   8.853
 7743POPC   GL236398  40.874  25.946   8.853
 7743POPC   C1A36399  40.810  26.002   8.553
 7743POPC   D2A36400  40.802  26.064   8.253
 7743POPC   C3A36401  40.761  26.059   7.953
 7743POPC   C4A36402  40.770  26.084   7.653
 7743POPC   C1B36403  40.975  25.844   8.553
 7743POPC   C2B36404  40.976  25.910   8.253
 7743POPC   C3B36405  40.932  25.842   7.953
 7743POPC   C4B36406  40.968  25.886   7.653
 7744POPC   NC336407  12.034  28.324   9.453
 7744POPC   PO436408  12.060  28.388   9.153
 7744POPC   GL136409  12.040  28.372   8.853
 7744POPC   GL236410  12.081  28.264   8.853
 7744POPC   C1A36411  12.116  28.353   8.553
 7744POPC   D2A36412  12.098  28.374   8.253
 7744POPC   C3A36413  12.029  28.413   7.953
 7744POPC   C4A36414  12.113  28.340   7.653
 7744POPC   C1B36415  12.136  28.118   8.553
 7744POPC   C2B36416  12.163  28.096   8.253
 7744POPC   C3B36417  12.219  28.158   7.953
 7744POPC   C4B36418  12.174  28.132   7.653
 7745POPC   NC336419  41.542  32.222   9.453
 7745POPC   PO436420  41.595  32.296   9.153
 7745POPC   GL136421  41.553  32.222   8.853
 7745POPC   GL236422  41.508  32.404   8.853
 7745POPC   C1A36423  41.579  32.228   8.553
 7745POPC   D2A36424  41.553  32.290   8.253
 7745POPC   C3A36425  41.571  32.200   7.953
 7745POPC   C4A36426  41.605  32.280   7.653
 7745POPC   C1B36427  41.506  32.488   8.553
 7745POPC   C2B36428  41.456  32.529   8.253
 7745POPC   C3B36429  41.423  32.442   7.953
 7745POPC   C4B36430  41.425  32.489   7.653
 7746POPC   NC336431  30.673  30.662   9.453
 7746POPC   PO436432  30.696  30.649   9.153
 7746POPC   GL136433  30.683  30.713   8.853
 7746POPC   GL236434  30.789  30.815   8.853
 7746POPC   C1A36435  30.719  30.650   8.553
 7746POPC   D2A36436  30.660  30.721   8.253
 7746POPC   C3A36437  30.651  30.650   7.953
 7746POPC   C4A36438  30.684  30.684   7.653
 7746POPC   C1B36439  30.792  30.961   8.553
 7746POPC   C2B36440  30.812  30.958   8.253
 7746POPC   C3B36441  30.787  30.899   7.953
 7746POPC   C4B36442  30.804  30.961   7.653
 7747POPC   NC336443  24.526  21.356   9.453
 7747POPC   PO436444  24.530  21.416   9.153
 7747POPC   GL136445  24.488  21.343   8.853
 7747POPC   GL236446  24.502  21.310   8.853
 7747POPC   C1A36447  24.499  21.435   8.553
 7747POPC   D2A36448  24.526  21.388   8.253
 7747POPC   C3A36449  24.442  21.430   7.953
 7747POPC   C4A36450  24.480  21.430   7.653
 7747POPC   C1B36451  24.542  21.153   8.553
 7747POPC   C2B36452  24.507  21.147   8.253
 7747POPC   C3B36453  24.517  21.156   7.953
 7747POPC   C4B36454  24.497  21.109   7.653
 7748POPC   NC336455  44.649  17.514   9.453
 7748POPC   PO436456  44.646  17.525   9.153
 7748POPC   GL136457  44.632  17.463   8.853
 7748POPC   GL236458  44.498  17.539   8.853
 7748POPC   C1A36459  44.695  17.480   8.553
 7748POPC   D2A36460  44.646  17.472   8.253
 7748POPC   C3A36461  44.632  17.471   7.953
 7748POPC   C4A36462  44.701  17.463   7.653
 7748POPC   C1B36463  44.420  17.467   8.553
 7748POPC   C2B36464  44.378  17.474   8.253
 7748POPC   C3B36465  44.404  17.478   7.953
 7748POPC   C4B36466  44.371  17.499   7.653
 7749POPC   NC336467  10.531   8.243   9.453
 7749POPC   PO436468  10.479   8.238   9.153
 7749POPC   GL136469  10.530   8.181   8.853
 7749POPC   GL236470  10.574   8.098   8.853
 7749POPC   C1A36471  10.556   8.214   8.553
 7749POPC   D2A36472  10.492   8.215   8.253
 7749POPC   C3A36473  10.506   8.157   7.953
 7749POPC   C4A36474  10.537   8.197   7.653
 7749POPC   C1B36475  10.647   7.937   8.553
 7749POPC   C2B36476  10.614   7.945   8.253
 7749POPC   C3B36477  10.625   7.922   7.953
 7749POPC   C4B36478  10.635   7.989   7.653
 7750POPC   NC336479  26.005  26.066   9.453
 7750POPC   PO436480  26.084  26.064   9.153
 7750POPC   GL136481  25.998  26.035   8.853
 7750POPC   GL236482  25.930  26.190   8.853
 7750POPC   C1A36483  26.066  26.072   8.553
 7750POPC   D2A36484  26.001  26.033   8.253
 7750POPC   C3A36485  26.001  26.059   7.953
 7750POPC   C4A36486  26.037  26.070   7.653
 7750POPC   C1B36487  25.878  26.272   8.553
 7750POPC   C2B36488  25.890  26.281   8.253
 7750POPC   C3B36489  25.878  26.266   7.953
 7750POPC   C4B36490  25.890  26.202   7.653
 7751POPC   NC336491  26.066  20.652   9.453
 7751POPC   PO436492  26.080  20.624   9.153
 7751POPC   GL136493  26.055  20.645   8.853
 7751POPC   GL236494  25.951  20.566   8.853
 7751POPC   C1A36495  26.024  20.604   8.553
 7751POPC   D2A36496  26.023  20.640   8.253
 7751POPC   C3A36497  25.993  20.658   7.953
 7751POPC   C4A36498  26.038  20.605   7.653
 7751POPC   C1B36499  25.774  20.575   8.553
 7751POPC   C2B36500  25.788  20.580   8.253
 7751POPC   C3B36501  25.791  20.641   7.953
 7751POPC   C4B36502  25.823  20.652   7.653
 7752POPC   NC336503   7.394  29.098   9.453
 7752POPC   PO436504   7.417  29.168   9.153
 7752POPC   GL136505   7.427  29.163   8.853
 7752POPC   GL236506   7.318  29.254   8.853
 7752POPC   C1A36507   7.449  29.109   8.553
 7752POPC   D2A36508   7.375  29.169   8.253
 7752POPC   C3A36509   7.375  29.193   7.953
 7752POPC   C4A36510   7.432  29.146   7.653
 7752POPC   C1B36511   7.338  29.334   8.553
 7752POPC   C2B36512   7.308  29.395   8.253
 7752POPC   C3B36513   7.290  29.387   7.953
 7752POPC   C4B36514   7.252  29.395   7.653
 7753POPC   NC336515  33.765  34.621   9.453
 7753POPC   PO436516  33.803  34.528   9.153
 7753POPC   GL136517  33.757  34.618   8.853
 7753POPC   GL236518  33.701  34.551   8.853
 7753POPC   C1A36519  33.833  34.537   8.553
 7753POPC   D2A36520  33.844  34.614   8.253
 7753POPC   C3A36521  33.826  34.536   7.953
 7753POPC   C4A36522  33.782  34.615   7.653
 7753POPC   C1B36523  33.578  34.441   8.553
 7753POPC   C2B36524  33.554  34.443   8.253
 7753POPC   C3B36525  33.606  34.436   7.953
 7753POPC   C4B36526  33.609  34.470   7.653
 7754POPC   NC336527  38.426  29.106   9.453
 7754POPC   PO436528  38.407  29.140   9.153
 7754POPC   GL136529  38.466  29.121   8.853
 7754POPC   GL236530  38.378  29.004   8.853
 7754POPC   C1A36531  38.505  29.131   8.553
 7754POPC   D2A36532  38.408  29.175   8.253
 7754POPC   C3A36533  38.436  29.139   7.953
 7754POPC   C4A36534  38.471  29.176   7.653
 7754POPC   C1B36535  38.370  28.880   8.553
 7754POPC   C2B36536  38.351  28.901   8.253
 7754POPC   C3B36537  38.388  28.927   7.953
 7754POPC   C4B36538  38.299  28.908   7.653
 7755POPC   NC336539   3.498  44.707   9.453
 7755POPC   PO436540   3.574  44.653   9.153
 7755POPC   GL136541   3.581  44.675   8.853
 7755POPC   GL236542   3.553  44.522   8.853
 7755POPC   C1A36543   3.495  44.683   8.553
 7755POPC   D2A36544   3.527  44.682   8.253
 7755POPC   C3A36545   3.560  44.651   7.953
 7755POPC   C4A36546   3.518  44.677   7.653
 7755POPC   C1B36547   3.670  44.477   8.553
 7755POPC   C2B36548   3.656  44.471   8.253
 7755POPC   C3B36549   3.588  44.416   7.953
 7755POPC   C4B36550   3.612  44.464   7.653
 7756POPC   NC336551   8.979  33.797   9.453
 7756POPC   PO436552   8.946  33.814   9.153
 7756POPC   GL136553   8.970  33.832   8.853
 7756POPC   GL236554   9.121  33.889   8.853
 7756POPC   C1A36555   8.998  33.790   8.553
 7756POPC   D2A36556   8.953  33.826   8.253
 7756POPC   C3A36557   9.021  33.815   7.953
 7756POPC   C4A36558   8.932  33.757   7.653
 7756POPC   C1B36559   9.186  33.892   8.553
 7756POPC   C2B36560   9.194  33.958   8.253
 7756POPC   C3B36561   9.168  33.874   7.953
 7756POPC   C4B36562   9.172  33.916   7.653
 7757POPC   NC336563   8.232  25.259   9.453
 7757POPC   PO436564   8.148  25.248   9.153
 7757POPC   GL136565   8.203  25.243   8.853
 7757POPC   GL236566   8.111  25.251   8.853
 7757POPC   C1A36567   8.152  25.236   8.553
 7757POPC   D2A36568   8.161  25.238   8.253
 7757POPC   C3A36569   8.207  25.268   7.953
 7757POPC   C4A36570   8.192  25.276   7.653
 7757POPC   C1B36571   7.958  25.191   8.553
 7757POPC   C2B36572   7.942  25.162   8.253
 7757POPC   C3B36573   7.945  25.162   7.953
 7757POPC   C4B36574   7.968  25.186   7.653
 7758POPC   NC336575  22.199  26.080   9.453
 7758POPC   PO436576  22.135  26.019   9.153
 7758POPC   GL136577  22.208  26.043   8.853
 7758POPC   GL236578  22.189  26.193   8.853
 7758POPC   C1A36579  22.131  26.073   8.553
 7758POPC   D2A36580  22.200  26.015   8.253
 7758POPC   C3A36581  22.185  26.024   7.953
 7758POPC   C4A36582  22.179  26.061   7.653
 7758POPC   C1B36583  22.194  26.279   8.553
 7758POPC   C2B36584  22.159  26.314   8.253
 7758POPC   C3B36585  22.192  26.317   7.953
 7758POPC   C4B36586  22.243  26.256   7.653
 7759POPC   NC336587   5.892  43.883   9.453
 7759POPC   PO436588   5.840  43.897   9.153
 7759POPC   GL136589   5.835  43.901   8.853
 7759POPC   GL236590   6.007  43.856   8.853
 7759POPC   C1A36591   5.889  43.902   8.553
 7759POPC   D2A36592   5.867  43.837   8.253
 7759POPC   C3A36593   5.847  43.886   7.953
 7759POPC   C4A36594   5.846  43.925   7.653
 7759POPC   C1B36595   6.077  43.790   8.553
 7759POPC   C2B36596   6.147  43.792   8.253
 7759POPC   C3B36597   6.161  43.852   7.953
 7759POPC   C4B36598   6.070  43.851   7.653
 7760POPC   NC336599  41.572  41.596   9.453
 7760POPC   PO436600  41.552  41.601   9.153
 7760POPC   GL136601  41.576  41.559   8.853
 7760POPC   GL236602  41.543  41.635   8.853
 7760POPC   C1A36603  41.567  41.550   8.553
 7760POPC   D2A36604  41.522  41.600   8.253
 7760POPC   C3A36605  41.592  41.606   7.953
 7760POPC   C4A36606  41.538  41.566   7.653
 7760POPC   C1B36607  41.506  41.799   8.553
 7760POPC   C2B36608  41.486  41.834   8.253
 7760POPC   C3B36609  41.512  41.838   7.953
 7760POPC   C4B36610  41.507  41.782   7.653
 7761POPC   NC336611  28.342  16.002   9.453
 7761POPC   PO436612  28.353  15.940   9.153
 7761POPC   GL136613  28.417  15.949   8.853
 7761POPC   GL236614  28.339  15.797   8.853
 7761POPC   C1A36615  28.368  15.933   8.553
 7761POPC   D2A36616  28.348  15.964   8.253
 7761POPC   C3A36617  28.416  15.995   7.953
 7761POPC   C4A36618  28.382  15.950   7.653
 7761POPC   C1B36619  28.285  15.707   8.553
 7761POPC   C2B36620  28.295  15.757   8.253
 7761POPC   C3B36621  28.273  15.737   7.953
 7761POPC   C4B36622  28.255  15.750   7.653
 7762POPC   NC336623  11.346  34.538   9.453
 7762POPC   PO436624  11.347  34.620   9.153
 7762POPC   GL136625  11.279  34.527   8.853
 7762POPC   GL236626  11.435  34.505   8.853
 7762POPC   C1A36627  11.324  34.549   8.553
 7762POPC   D2A36628  11.308  34.563   8.253
 7762POPC   C3A36629  11.264  34.540   7.953
 7762POPC   C4A36630  11.266  34.598   7.653
 7762POPC   C1B36631  11.546  34.431   8.553
 7762POPC   C2B36632  11.496  34.425   8.253
 7762POPC   C3B36633  11.577  34.470   7.953
 7762POPC   C4B36634  11.482  34.424   7.653
 7763POPC   NC336635   5.092   7.372   9.453
 7763POPC   PO436636   5.068   7.439   9.153
 7763POPC   GL136637   5.096   7.433   8.853
 7763POPC   GL236638   5.167   7.469   8.853
 7763POPC   C1A36639   5.094   7.464   8.553
 7763POPC   D2A36640   5.053   7.470   8.253
 7763POPC   C3A36641   5.063   7.373   7.953
 7763POPC   C4A36642   5.065   7.461   7.653
 7763POPC   C1B36643   5.277   7.544   8.553
 7763POPC   C2B36644   5.285   7.496   8.253
 7763POPC   C3B36645   5.280   7.533   7.953
 7763POPC   C4B36646   5.306   7.550   7.653
 7764POPC   NC336647   5.902  12.834   9.453
 7764POPC   PO436648   5.850  12.846   9.153
 7764POPC   GL136649   5.843  12.821   8.853
 7764POPC   GL236650   5.946  12.892   8.853
 7764POPC   C1A36651   5.860  12.865   8.553
 7764POPC   D2A36652   5.901  12.845   8.253
 7764POPC   C3A36653   5.856  12.874   7.953
 7764POPC   C4A36654   5.831  12.889   7.653
 7764POPC   C1B36655   6.099  12.978   8.553
 7764POPC   C2B36656   6.131  12.989   8.253
 7764POPC   C3B36657   6.068  12.914   7.953
 7764POPC   C4B36658   6.091  12.920   7.653
 7765POPC   NC336659   1.235   8.922   9.453
 7765POPC   PO436660   1.238   8.967   9.153
 7765POPC   GL136661   1.262   8.984   8.853
 7765POPC   GL236662   1.201   9.043   8.853
 7765POPC   C1A36663   1.170   8.941   8.553
 7765POPC   D2A36664   1.194   8.958   8.253
 7765POPC   C3A36665   1.201   8.923   7.953
 7765POPC   C4A36666   1.254   8.929   7.653
 7765POPC   C1B36667   1.235   9.256   8.553
 7765POPC   C2B36668   1.234   9.240   8.253
 7765POPC   C3B36669   1.307   9.253   7.953
 7765POPC   C4B36670   1.321   9.251   7.653
 7766POPC   NC336671   1.259  43.073   9.453
 7766POPC   PO436672   1.194  43.094   9.153
 7766POPC   GL136673   1.173  43.143   8.853
 7766POPC   GL236674   1.138  43.123   8.853
 7766POPC   C1A36675   1.196  43.153   8.553
 7766POPC   D2A36676   1.171  43.128   8.253
 7766POPC   C3A36677   1.262  43.105   7.953
 7766POPC   C4A36678   1.241  43.138   7.653
 7766POPC   C1B36679   0.997  43.149   8.553
 7766POPC   C2B36680   0.926  43.171   8.253
 7766POPC   C3B36681   0.998  43.143   7.953
 7766POPC   C4B36682   0.944  43.169   7.653
 7767POPC   NC336683  39.250  25.255   9.453
 7767POPC   PO436684  39.217  25.287   9.153
 7767POPC   GL136685  39.274  25.219   8.853
 7767POPC   GL236686  39.292  25.378   8.853
 7767POPC   C1A36687  39.237  25.216   8.553
 7767POPC   D2A36688  39.255  25.291   8.253
 7767POPC   C3A36689  39.184  25.236   7.953
 7767POPC   C4A36690  39.191  25.265   7.653
 7767POPC   C1B36691  39.332  25.457   8.553
 7767POPC   C2B36692  39.298  25.486   8.253
 7767POPC   C3B36693  39.301  25.479   7.953
 7767POPC   C4B36694  39.341  25.510   7.653
 7768POPC   NC336695   1.231  30.743   9.453
 7768POPC   PO436696   1.252  30.722   9.153
 7768POPC   GL136697   1.165  30.651   8.853
 7768POPC   GL236698   1.175  30.527   8.853
 7768POPC   C1A36699   1.229  30.731   8.553
 7768POPC   D2A36700   1.171  30.657   8.253
 7768POPC   C3A36701   1.183  30.666   7.953
 7768POPC   C4A36702   1.227  30.707   7.653
 7768POPC   C1B36703   1.168  30.486   8.553
 7768POPC   C2B36704   1.198  30.424   8.253
 7768POPC   C3B36705   1.244  30.472   7.953
 7768POPC   C4B36706   1.168  30.483   7.653
 7769POPC   NC336707  26.048  43.095   9.453
 7769POPC   PO436708  25.998  43.113   9.153
 7769POPC   GL136709  26.089  43.157   8.853
 7769POPC   GL236710  25.937  43.015   8.853
 7769POPC   C1A36711  26.070  43.136   8.553
 7769POPC   D2A36712  25.996  43.105   8.253
 7769POPC   C3A36713  26.027  43.129   7.953
 7769POPC   C4A36714  26.004  43.073   7.653
 7769POPC   C1B36715  25.927  42.864   8.553
 7769POPC   C2B36716  25.900  42.917   8.253
 7769POPC   C3B36717  25.962  42.859   7.953
 7769POPC   C4B36718  25.950  42.935   7.653
 7770POPC   NC336719  26.855  26.768   9.453
 7770POPC   PO436720  26.770  26.826   9.153
 7770POPC   GL136721  26.805  26.839   8.853
 7770POPC   GL236722  26.757  26.680   8.853
 7770POPC   C1A36723  26.824  26.770   8.553
 7770POPC   D2A36724  26.851  26.819   8.253
 7770POPC   C3A36725  26.859  26.838   7.953
 7770POPC   C4A36726  26.796  26.827   7.653
 7770POPC   C1B36727  26.642  26.584   8.553
 7770POPC   C2B36728  26.729  26.589   8.253
 7770POPC   C3B36729  26.655  26.602   7.953
 7770POPC   C4B36730  26.721  26.609   7.653
 7771POPC   NC336731  41.556  43.850   9.453
 7771POPC   PO436732  41.535  43.852   9.153
 7771POPC   GL136733  41.565  43.911   8.853
 7771POPC   GL236734  41.672  43.825   8.853
 7771POPC   C1A36735  41.581  43.881   8.553
 7771POPC   D2A36736  41.580  43.907   8.253
 7771POPC   C3A36737  41.596  43.921   7.953
 7771POPC   C4A36738  41.521  43.923   7.653
 7771POPC   C1B36739  41.691  43.705   8.553
 7771POPC   C2B36740  41.662  43.649   8.253
 7771POPC   C3B36741  41.656  43.654   7.953
 7771POPC   C4B36742  41.688  43.646   7.653
 7772POPC   NC336743  35.322  40.011   9.453
 7772POPC   PO436744  35.309  39.992   9.153
 7772POPC   GL136745  35.321  40.054   8.853
 7772POPC   GL236746  35.375  39.850   8.853
 7772POPC   C1A36747  35.378  39.960   8.553
 7772POPC   D2A36748  35.393  40.021   8.253
 7772POPC   C3A36749  35.396  40.024   7.953
 7772POPC   C4A36750  35.348  39.970   7.653
 7772POPC   C1B36751  35.334  39.769   8.553
 7772POPC   C2B36752  35.262  39.737   8.253
 7772POPC   C3B36753  35.276  39.761   7.953
 7772POPC   C4B36754  35.254  39.775   7.653
 7773POPC   NC336755  28.338  25.291   9.453
 7773POPC   PO436756  28.345  25.303   9.153
 7773POPC   GL136757  28.397  25.303   8.853
 7773POPC   GL236758  28.337  25.167   8.853
 7773POPC   C1A36759  28.400  25.283   8.553
 7773POPC   D2A36760  28.345  25.259   8.253
 7773POPC   C3A36761  28.363  25.228   7.953
 7773POPC   C4A36762  28.391  25.239   7.653
 7773POPC   C1B36763  28.255  25.016   8.553
 7773POPC   C2B36764  28.264  25.060   8.253
 7773POPC   C3B36765  28.206  25.018   7.953
 7773POPC   C4B36766  28.244  25.080   7.653
 7774POPC   NC336767   9.789  40.754   9.453
 7774POPC   PO436768   9.700  40.739   9.153
 7774POPC   GL136769   9.714  40.733   8.853
 7774POPC   GL236770   9.908  40.783   8.853
 7774POPC   C1A36771   9.795  40.814   8.553
 7774POPC   D2A36772   9.723  40.811   8.253
 7774POPC   C3A36773   9.699  40.832   7.953
 7774POPC   C4A36774   9.737  40.794   7.653
 7774POPC   C1B36775   9.963  40.704   8.553
 7774POPC   C2B36776   9.967  40.738   8.253
 7774POPC   C3B36777   9.948  40.708   7.953
 7774POPC   C4B36778  10.019  40.700   7.653
 7775POPC   NC336779   6.595  27.571   9.453
 7775POPC   PO436780   6.621  27.547   9.153
 7775POPC   GL136781   6.672  27.635   8.853
 7775POPC   GL236782   6.606  27.516   8.853
 7775POPC   C1A36783   6.672  27.614   8.553
 7775POPC   D2A36784   6.650  27.561   8.253
 7775POPC   C3A36785   6.663  27.593   7.953
 7775POPC   C4A36786   6.658  27.606   7.653
 7775POPC   C1B36787   6.555  27.356   8.553
 7775POPC   C2B36788   6.559  27.351   8.253
 7775POPC   C3B36789   6.566  27.314   7.953
 7775POPC   C4B36790   6.519  27.339   7.653
 7776POPC   NC336791  24.534  26.061   9.453
 7776POPC   PO436792  24.526  26.016   9.153
 7776POPC   GL136793  24.509  26.040   8.853
 7776POPC   GL236794  24.545  26.133   8.853
 7776POPC   C1A36795  24.471  26.013   8.553
 7776POPC   D2A36796  24.539  26.038   8.253
 7776POPC   C3A36797  24.489  26.050   7.953
 7776POPC   C4A36798  24.498  26.050   7.653
 7776POPC   C1B36799  24.709  26.180   8.553
 7776POPC   C2B36800  24.640  26.211   8.253
 7776POPC   C3B36801  24.675  26.251   7.953
 7776POPC   C4B36802  24.714  26.259   7.653
 7777POPC   NC336803  19.013   2.013   9.453
 7777POPC   PO436804  19.022   1.952   9.153
 7777POPC   GL136805  19.052   2.002   8.853
 7777POPC   GL236806  19.142   2.102   8.853
 7777POPC   C1A36807  19.098   1.954   8.553
 7777POPC   D2A36808  19.011   2.028   8.253
 7777POPC   C3A36809  19.015   1.992   7.953
 7777POPC   C4A36810  19.041   1.996   7.653
 7777POPC   C1B36811  19.118   2.219   8.553
 7777POPC   C2B36812  19.098   2.195   8.253
 7777POPC   C3B36813  19.170   2.198   7.953
 7777POPC   C4B36814  19.109   2.217   7.653
 7778POPC   NC336815   7.447  10.547   9.453
 7778POPC   PO436816   7.410  10.534   9.153
 7778POPC   GL136817   7.451  10.519   8.853
 7778POPC   GL236818   7.444  10.595   8.853
 7778POPC   C1A36819   7.373  10.540   8.553
 7778POPC   D2A36820   7.426  10.486   8.253
 7778POPC   C3A36821   7.456  10.559   7.953
 7778POPC   C4A36822   7.390  10.552   7.653
 7778POPC   C1B36823   7.597  10.760   8.553
 7778POPC   C2B36824   7.562  10.685   8.253
 7778POPC   C3B36825   7.553  10.683   7.953
 7778POPC   C4B36826   7.543  10.758   7.653
 7779POPC   NC336827  10.479  16.758   9.453
 7779POPC   PO436828  10.491  16.702   9.153
 7779POPC   GL136829  10.552  16.774   8.853
 7779POPC   GL236830  10.662  16.832   8.853
 7779POPC   C1A36831  10.493  16.769   8.553
 7779POPC   D2A36832  10.543  16.773   8.253
 7779POPC   C3A36833  10.535  16.765   7.953
 7779POPC   C4A36834  10.571  16.743   7.653
 7779POPC   C1B36835  10.724  16.912   8.553
 7779POPC   C2B36836  10.669  16.839   8.253
 7779POPC   C3B36837  10.683  16.928   7.953
 7779POPC   C4B36838  10.734  16.863   7.653
 7780POPC   NC336839   8.240   9.770   9.453
 7780POPC   PO436840   8.239   9.756   9.153
 7780POPC   GL136841   8.166   9.767   8.853
 7780POPC   GL236842   8.368   9.720   8.853
 7780POPC   C1A36843   8.167   9.743   8.553
 7780POPC   D2A36844   8.181   9.757   8.253
 7780POPC   C3A36845   8.207   9.734   7.953
 7780POPC   C4A36846   8.159   9.745   7.653
 7780POPC   C1B36847   8.479   9.797   8.553
 7780POPC   C2B36848   8.490   9.786   8.253
 7780POPC   C3B36849   8.465   9.739   7.953
 7780POPC   C4B36850   8.405   9.753   7.653
 7781POPC   NC336851   8.177  42.302   9.453
 7781POPC   PO436852   8.185  42.370   9.153
 7781POPC   GL136853   8.212  42.369   8.853
 7781POPC   GL236854   8.091  42.289   8.853
 7781POPC   C1A36855   8.228  42.338   8.553
 7781POPC   D2A36856   8.154  42.304   8.253
 7781POPC   C3A36857   8.182  42.288   7.953
 7781POPC   C4A36858   8.223  42.337   7.653
 7781POPC   C1B36859   7.945  42.276   8.553
 7781POPC   C2B36860   8.008  42.194   8.253
 7781POPC   C3B36861   7.988  42.276   7.953
 7781POPC   C4B36862   7.923  42.178   7.653
 7782POPC   NC336863  13.608  36.883   9.453
 7782POPC   PO436864  13.674  36.905   9.153
 7782POPC   GL136865  13.642  36.905   8.853
 7782POPC   GL236866  13.514  36.792   8.853
 7782POPC   C1A36867  13.645  36.935   8.553
 7782POPC   D2A36868  13.586  36.930   8.253
 7782POPC   C3A36869  13.615  36.923   7.953
 7782POPC   C4A36870  13.592  36.881   7.653
 7782POPC   C1B36871  13.475  36.679   8.553
 7782POPC   C2B36872  13.467  36.742   8.253
 7782POPC   C3B36873  13.417  36.754   7.953
 7782POPC   C4B36874  13.420  36.748   7.653
 7783POPC   NC336875  25.227  26.790   9.453
 7783POPC   PO436876  25.231  26.864   9.153
 7783POPC   GL136877  25.225  26.812   8.853
 7783POPC   GL236878  25.224  26.652   8.853
 7783POPC   C1A36879  25.296  26.782   8.553
 7783POPC   D2A36880  25.283  26.859   8.253
 7783POPC   C3A36881  25.302  26.821   7.953
 7783POPC   C4A36882  25.243  26.772   7.653
 7783POPC   C1B36883  25.274  26.582   8.553
 7783POPC   C2B36884  25.232  26.610   8.253
 7783POPC   C3B36885  25.292  26.555   7.953
 7783POPC   C4B36886  25.248  26.583   7.653
 7784POPC   NC336887  26.776  36.912   9.453
 7784POPC   PO436888  26.812  36.893   9.153
 7784POPC   GL136889  26.784  36.886   8.853
 7784POPC   GL236890  26.752  36.970   8.853
 7784POPC   C1A36891  26.822  36.896   8.553
 7784POPC   D2A36892  26.778  36.896   8.253
 7784POPC   C3A36893  26.791  36.867   7.953
 7784POPC   C4A36894  26.863  36.952   7.653
 7784POPC   C1B36895  26.667  37.112   8.553
 7784POPC   C2B36896  26.653  37.062   8.253
 7784POPC   C3B36897  26.659  37.082   7.953
 7784POPC   C4B36898  26.632  37.116   7.653
 7785POPC   NC336899  26.845  19.058   9.453
 7785POPC   PO436900  26.791  19.106   9.153
 7785POPC   GL136901  26.828  19.076   8.853
 7785POPC   GL236902  26.657  19.056   8.853
 7785POPC   C1A36903  26.863  19.093   8.553
 7785POPC   D2A36904  26.791  19.071   8.253
 7785POPC   C3A36905  26.849  19.022   7.953
 7785POPC   C4A36906  26.858  19.057   7.653
 7785POPC   C1B36907  26.541  19.071   8.553
 7785POPC   C2B36908  26.612  19.043   8.253
 7785POPC   C3B36909  26.518  19.097   7.953
 7785POPC   C4B36910  26.563  19.030   7.653
 7786POPC   NC336911  29.120   9.762   9.453
 7786POPC   PO436912  29.115   9.723   9.153
 7786POPC   GL136913  29.126   9.721   8.853
 7786POPC   GL236914  29.223   9.671   8.853
 7786POPC   C1A36915  29.143   9.703   8.553
 7786POPC   D2A36916  29.102   9.707   8.253
 7786POPC   C3A36917  29.104   9.732   7.953
 7786POPC   C4A36918  29.162   9.753   7.653
 7786POPC   C1B36919  29.336   9.701   8.553
 7786POPC   C2B36920  29.382   9.692   8.253
 7786POPC   C3B36921  29.427   9.628   7.953
 7786POPC   C4B36922  29.356   9.724   7.653
 7787POPC   NC336923   3.570  38.435   9.453
 7787POPC   PO436924   3.561  38.411   9.153
 7787POPC   GL136925   3.498  38.436   8.853
 7787POPC   GL236926   3.445  38.443   8.853
 7787POPC   C1A36927   3.504  38.434   8.553
 7787POPC   D2A36928   3.516  38.495   8.253
 7787POPC   C3A36929   3.570  38.474   7.953
 7787POPC   C4A36930   3.514  38.448   7.653
 7787POPC   C1B36931   3.280  38.431   8.553
 7787POPC   C2B36932   3.264  38.488   8.253
 7787POPC   C3B36933   3.290  38.489   7.953
 7787POPC   C4B36934   3.320  38.432   7.653
 7788POPC   NC336935  33.069  24.497   9.453
 7788POPC   PO436936  32.990  24.498   9.153
 7788POPC   GL136937  33.034  24.477   8.853
 7788POPC   GL236938  33.108  24.439   8.853
 7788POPC   C1A36939  33.064  24.503   8.553
 7788POPC   D2A36940  32.989  24.449   8.253
 7788POPC   C3A36941  33.031  24.463   7.953
 7788POPC   C4A36942  33.063  24.515   7.653
 7788POPC   C1B36943  33.168  24.286   8.553
 7788POPC   C2B36944  33.226  24.254   8.253
 7788POPC   C3B36945  33.158  24.328   7.953
 7788POPC   C4B36946  33.167  24.294   7.653
 7789POPC   NC336947  28.397  22.915   9.453
 7789POPC   PO436948  28.407  22.945   9.153
 7789POPC   GL136949  28.392  22.965   8.853
 7789POPC   GL236950  28.218  23.028   8.853
 7789POPC   C1A36951  28.411  22.926   8.553
 7789POPC   D2A36952  28.369  22.952   8.253
 7789POPC   C3A36953  28.330  22.975   7.953
 7789POPC   C4A36954  28.342  22.926   7.653
 7789POPC   C1B36955  28.180  23.028   8.553
 7789POPC   C2B36956  28.140  22.985   8.253
 7789POPC   C3B36957  28.171  23.031   7.953
 7789POPC   C4B36958  28.164  23.024   7.653
 7790POPC   NC336959  43.908  15.155   9.453
 7790POPC   PO436960  43.887  15.208   9.153
 7790POPC   GL136961  43.846  15.164   8.853
 7790POPC   GL236962  43.803  15.035   8.853
 7790POPC   C1A36963  43.935  15.227   8.553
 7790POPC   D2A36964  43.887  15.213   8.253
 7790POPC   C3A36965  43.858  15.185   7.953
 7790POPC   C4A36966  43.861  15.146   7.653
 7790POPC   C1B36967  43.751  14.949   8.553
 7790POPC   C2B36968  43.813  14.898   8.253
 7790POPC   C3B36969  43.814  14.915   7.953
 7790POPC   C4B36970  43.842  14.954   7.653
 7791POPC   NC336971   5.842  22.170   9.453
 7791POPC   PO436972   5.873  22.190   9.153
 7791POPC   GL136973   5.913  22.209   8.853
 7791POPC   GL236974   5.791  22.050   8.853
 7791POPC   C1A36975   5.833  22.135   8.553
 7791POPC   D2A36976   5.849  22.134   8.253
 7791POPC   C3A36977   5.837  22.131   7.953
 7791POPC   C4A36978   5.904  22.176   7.653
 7791POPC   C1B36979   5.789  21.903   8.553
 7791POPC   C2B36980   5.725  21.944   8.253
 7791POPC   C3B36981   5.751  21.936   7.953
 7791POPC   C4B36982   5.777  21.930   7.653
 7792POPC   NC336983  15.161  30.701   9.453
 7792POPC   PO436984  15.190  30.651   9.153
 7792POPC   GL136985  15.200  30.682   8.853
 7792POPC   GL236986  15.202  30.576   8.853
 7792POPC   C1A36987  15.226  30.703   8.553
 7792POPC   D2A36988  15.197  30.676   8.253
 7792POPC   C3A36989  15.143  30.707   7.953
 7792POPC   C4A36990  15.164  30.716   7.653
 7792POPC   C1B36991  15.211  30.472   8.553
 7792POPC   C2B36992  15.241  30.506   8.253
 7792POPC   C3B36993  15.291  30.408   7.953
 7792POPC   C4B36994  15.284  30.460   7.653
 7793POPC   NC336995  29.901  35.376   9.453
 7793POPC   PO436996  29.928  35.397   9.153
 7793POPC   GL136997  29.889  35.336   8.853
 7793POPC   GL236998  29.830  35.225   8.853
 7793POPC   C1A36999  29.968  35.373   8.553
 7793POPC   D2A37000  29.903  35.326   8.253
 7793POPC   C3A37001  29.939  35.309   7.953
 7793POPC   C4A37002  29.941  35.317   7.653
 7793POPC   C1B37003  29.814  35.172   8.553
 7793POPC   C2B37004  29.845  35.084   8.253
 7793POPC   C3B37005  29.854  35.099   7.953
 7793POPC   C4B37006  29.819  35.118   7.653
 7794POPC   NC337007  23.741  26.786   9.453
 7794POPC   PO437008  23.680  26.847   9.153
 7794POPC   GL137009  23.752  26.845   8.853
 7794POPC   GL237010  23.817  26.743   8.853
 7794POPC   C1A37011  23.736  26.812   8.553
 7794POPC   D2A37012  23.669  26.787   8.253
 7794POPC   C3A37013  23.714  26.836   7.953
 7794POPC   C4A37014  23.694  26.784   7.653
 7794POPC   C1B37015  23.825  26.610   8.553
 7794POPC   C2B37016  23.827  26.622   8.253
 7794POPC   C3B37017  23.895  26.613   7.953
 7794POPC   C4B37018  23.835  26.561   7.653
 7795POPC   NC337019  33.827  17.466   9.453
 7795POPC   PO437020  33.795  17.546   9.153
 7795POPC   GL137021  33.802  17.495   8.853
 7795POPC   GL237022  33.911  17.575   8.853
 7795POPC   C1A37023  33.789  17.473   8.553
 7795POPC   D2A37024  33.751  17.468   8.253
 7795POPC   C3A37025  33.844  17.501   7.953
 7795POPC   C4A37026  33.823  17.464   7.653
 7795POPC   C1B37027  33.932  17.713   8.553
 7795POPC   C2B37028  33.918  17.723   8.253
 7795POPC   C3B37029  33.968  17.691   7.953
 7795POPC   C4B37030  33.932  17.739   7.653
 7796POPC   NC337031   1.261   5.081   9.453
 7796POPC   PO437032   1.165   5.119   9.153
 7796POPC   GL137033   1.191   5.122   8.853
 7796POPC   GL237034   1.101   4.972   8.853
 7796POPC   C1A37035   1.232   5.106   8.553
 7796POPC   D2A37036   1.263   5.054   8.253
 7796POPC   C3A37037   1.227   5.044   7.953
 7796POPC   C4A37038   1.220   5.133   7.653
 7796POPC   C1B37039   1.089   4.859   8.553
 7796POPC   C2B37040   1.095   4.879   8.253
 7796POPC   C3B37041   1.094   4.906   7.953
 7796POPC   C4B37042   1.073   4.908   7.653
 7797POPC   NC337043   5.864  15.153   9.453
 7797POPC   PO437044   5.888  15.214   9.153
 7797POPC   GL137045   5.854  15.199   8.853
 7797POPC   GL237046   5.797  15.251   8.853
 7797POPC   C1A37047   5.846  15.160   8.553
 7797POPC   D2A37048   5.850  15.206   8.253
 7797POPC   C3A37049   5.906  15.215   7.953
 7797POPC   C4A37050   5.840  15.143   7.653
 7797POPC   C1B37051   5.672  15.315   8.553
 7797POPC   C2B37052   5.636  15.271   8.253
 7797POPC   C3B37053   5.637  15.354   7.953
 7797POPC   C4B37054   5.652  15.358   7.653
 7798POPC   NC337055  33.839  20.655   9.453
 7798POPC   PO437056  33.794  20.628   9.153
 7798POPC   GL137057  33.759  20.571   8.853
 7798POPC   GL237058  33.931  20.737   8.853
 7798POPC   C1A37059  33.813  20.627   8.553
 7798POPC   D2A37060  33.836  20.630   8.253
 7798POPC   C3A37061  33.827  20.645   7.953
 7798POPC   C4A37062  33.751  20.592   7.653
 7798POPC   C1B37063  33.966  20.817   8.553
 7798POPC   C2B37064  34.026  20.756   8.253
 7798POPC   C3B37065  34.031  20.811   7.953
 7798POPC   C4B37066  33.999  20.784   7.653
 7799POPC   NC337067  15.196  39.233   9.453
 7799POPC   PO437068  15.206  39.245   9.153
 7799POPC   GL137069  15.147  39.182   8.853
 7799POPC   GL237070  15.259  39.110   8.853
 7799POPC   C1A37071  15.155  39.238   8.553
 7799POPC   D2A37072  15.159  39.213   8.253
 7799POPC   C3A37073  15.185  39.208   7.953
 7799POPC   C4A37074  15.162  39.189   7.653
 7799POPC   C1B37075  15.302  39.027   8.553
 7799POPC   C2B37076  15.328  39.073   8.253
 7799POPC   C3B37077  15.368  39.056   7.953
 7799POPC   C4B37078  15.320  39.009   7.653
 7800POPC   NC337079  23.702  42.324   9.453
 7800POPC   PO437080  23.705  42.305   9.153
 7800POPC   GL137081  23.717  42.368   8.853
 7800POPC   GL237082  23.544  42.403   8.853
 7800POPC   C1A37083  23.745  42.384   8.553
 7800POPC   D2A37084  23.710  42.291   8.253
 7800POPC   C3A37085  23.747  42.334   7.953
 7800POPC   C4A37086  23.738  42.311   7.653
 7800POPC   C1B37087  23.454  42.410   8.553
 7800POPC   C2B37088  23.499  42.386   8.253
 7800POPC   C3B37089  23.491  42.376   7.953
 7800POPC   C4B37090  23.494  42.349   7.653
 7801POPC   NC337091  16.709  11.309   9.453
 7801POPC   PO437092  16.731  11.341   9.153
 7801POPC   GL137093  16.756  11.308   8.853
 7801POPC   GL237094  16.593  11.390   8.853
 7801POPC   C1A37095  16.731  11.334   8.553
 7801POPC   D2A37096  16.764  11.272   8.253
 7801POPC   C3A37097  16.727  11.312   7.953
 7801POPC   C4A37098  16.749  11.270   7.653
 7801POPC   C1B37099  16.556  11.435   8.553
 7801POPC   C2B37100  16.559  11.380   8.253
 7801POPC   C3B37101  16.518  11.434   7.953
 7801POPC   C4B37102  16.512  11.440   7.653
 7802POPC   NC337103  22.118  23.718   9.453
 7802POPC   PO437104  22.196  23.763   9.153
 7802POPC   GL137105  22.149  23.668   8.853
 7802POPC   GL237106  22.107  23.786   8.853
 7802POPC   C1A37107  22.156  23.699   8.553
 7802POPC   D2A37108  22.148  23.721   8.253
 7802POPC   C3A37109  22.169  23.713   7.953
 7802POPC   C4A37110  22.140  23.759   7.653
 7802POPC   C1B37111  22.079  23.929   8.553
 7802POPC   C2B37112  22.131  23.922   8.253
 7802POPC   C3B37113  22.108  23.994   7.953
 7802POPC   C4B37114  22.089  23.952   7.653
 7803POPC   NC337115  43.933  13.620   9.453
 7803POPC   PO437116  43.851  13.645   9.153
 7803POPC   GL137117  43.850  13.659   8.853
 7803POPC   GL237118  43.961  13.790   8.853
 7803POPC   C1A37119  43.924  13.677   8.553
 7803POPC   D2A37120  43.867  13.662   8.253
 7803POPC   C3A37121  43.875  13.631   7.953
 7803POPC   C4A37122  43.889  13.623   7.653
 7803POPC   C1B37123  43.986  13.878   8.553
 7803POPC   C2B37124  43.976  13.848   8.253
 7803POPC   C3B37125  43.922  13.831   7.953
 7803POPC   C4B37126  43.906  13.896   7.653
 7804POPC   NC337127   1.191  14.364   9.453
 7804POPC   PO437128   1.262  14.356   9.153
 7804POPC   GL137129   1.256  14.421   8.853
 7804POPC   GL237130   1.184  14.247   8.853
 7804POPC   C1A37131   1.197  14.399   8.553
 7804POPC   D2A37132   1.198  14.418   8.253
 7804POPC   C3A37133   1.202  14.363   7.953
 7804POPC   C4A37134   1.188  14.377   7.653
 7804POPC   C1B37135   1.122  14.144   8.553
 7804POPC   C2B37136   1.147  14.160   8.253
 7804POPC   C3B37137   1.204  14.153   7.953
 7804POPC   C4B37138   1.125  14.121   7.653
 7805POPC   NC337139  33.763  36.891   9.453
 7805POPC   PO437140  33.830  36.908   9.153
 7805POPC   GL137141  33.797  36.932   8.853
 7805POPC   GL237142  33.939  36.875   8.853
 7805POPC   C1A37143  33.793  36.897   8.553
 7805POPC   D2A37144  33.788  36.926   8.253
 7805POPC   C3A37145  33.823  36.860   7.953
 7805POPC   C4A37146  33.786  36.876   7.653
 7805POPC   C1B37147  34.090  36.839   8.553
 7805POPC   C2B37148  34.006  36.874   8.253
 7805POPC   C3B37149  34.027  36.899   7.953
 7805POPC   C4B37150  34.062  36.885   7.653
 7806POPC   NC337151   8.158  43.858   9.453
 7806POPC   PO437152   8.191  43.875   9.153
 7806POPC   GL137153   8.182  43.838   8.853
 7806POPC   GL237154   8.157  43.951   8.853
 7806POPC   C1A37155   8.152  43.905   8.553
 7806POPC   D2A37156   8.157  43.905   8.253
 7806POPC   C3A37157   8.202  43.855   7.953
 7806POPC   C4A37158   8.211  43.900   7.653
 7806POPC   C1B37159   8.069  44.076   8.553
 7806POPC   C2B37160   8.013  44.037   8.253
 7806POPC   C3B37161   8.007  44.057   7.953
 7806POPC   C4B37162   8.053  44.071   7.653
 7807POPC   NC337163   9.739   8.967   9.453
 7807POPC   PO437164   9.711   8.963   9.153
 7807POPC   GL137165   9.751   8.992   8.853
 7807POPC   GL237166   9.834   8.948   8.853
 7807POPC   C1A37167   9.744   9.010   8.553
 7807POPC   D2A37168   9.791   8.932   8.253
 7807POPC   C3A37169   9.740   8.927   7.953
 7807POPC   C4A37170   9.762   8.941   7.653
 7807POPC   C1B37171   9.974   8.862   8.553
 7807POPC   C2B37172   9.995   8.854   8.253
 7807POPC   C3B37173  10.007   8.864   7.953
 7807POPC   C4B37174  10.000   8.917   7.653
 7808POPC   NC337175  43.883  17.556   9.453
 7808POPC   PO437176  43.920  17.481   9.153
 7808POPC   GL137177  43.907  17.515   8.853
 7808POPC   GL237178  43.984  17.542   8.853
 7808POPC   C1A37179  43.926  17.546   8.553
 7808POPC   D2A37180  43.854  17.475   8.253
 7808POPC   C3A37181  43.879  17.500   7.953
 7808POPC   C4A37182  43.932  17.469   7.653
 7808POPC   C1B37183  44.093  17.572   8.553
 7808POPC   C2B37184  44.103  17.594   8.253
 7808POPC   C3B37185  44.148  17.510   7.953
 7808POPC   C4B37186  44.158  17.521   7.653
 7809POPC   NC337187   3.556  42.336   9.453
 7809POPC   PO437188   3.569  42.342   9.153
 7809POPC   GL137189   3.500  42.291   8.853
 7809POPC   GL237190   3.646  42.439   8.853
 7809POPC   C1A37191   3.532  42.328   8.553
 7809POPC   D2A37192   3.500  42.341   8.253
 7809POPC   C3A37193   3.580  42.313   7.953
 7809POPC   C4A37194   3.590  42.315   7.653
 7809POPC   C1B37195   3.690  42.509   8.553
 7809POPC   C2B37196   3.708  42.507   8.253
 7809POPC   C3B37197   3.648  42.542   7.953
 7809POPC   C4B37198   3.706  42.566   7.653
 7810POPC   NC337199  32.295  28.400   9.453
 7810POPC   PO437200  32.250  28.350   9.153
 7810POPC   GL137201  32.273  28.418   8.853
 7810POPC   GL237202  32.266  28.197   8.853
 7810POPC   C1A37203  32.273  28.328   8.553
 7810POPC   D2A37204  32.268  28.370   8.253
 7810POPC   C3A37205  32.270  28.395   7.953
 7810POPC   C4A37206  32.236  28.382   7.653
 7810POPC   C1B37207  32.212  28.153   8.553
 7810POPC   C2B37208  32.210  28.136   8.253
 7810POPC   C3B37209  32.226  28.144   7.953
 7810POPC   C4B37210  32.219  28.137   7.653
 7811POPC   NC337211  27.616  26.071   9.453
 7811POPC   PO437212  27.570  26.039   9.153
 7811POPC   GL137213  27.603  26.013   8.853
 7811POPC   GL237214  27.477  26.097   8.853
 7811POPC   C1A37215  27.633  26.044   8.553
 7811POPC   D2A37216  27.582  25.996   8.253
 7811POPC   C3A37217  27.549  26.085   7.953
 7811POPC   C4A37218  27.601  26.001   7.653
 7811POPC   C1B37219  27.381  26.043   8.553
 7811POPC   C2B37220  27.330  26.054   8.253
 7811POPC   C3B37221  27.333  26.072   7.953
 7811POPC   C4B37222  27.319  26.087   7.653
 7812POPC   NC337223  36.080  19.068   9.453
 7812POPC   PO437224  36.134  19.065   9.153
 7812POPC   GL137225  36.139  19.023   8.853
 7812POPC   GL237226  36.160  19.187   8.853
 7812POPC   C1A37227  36.127  19.080   8.553
 7812POPC   D2A37228  36.176  19.089   8.253
 7812POPC   C3A37229  36.116  19.096   7.953
 7812POPC   C4A37230  36.172  19.050   7.653
 7812POPC   C1B37231  36.090  19.292   8.553
 7812POPC   C2B37232  36.102  19.264   8.253
 7812POPC   C3B37233  36.118  19.328   7.953
 7812POPC   C4B37234  36.153  19.333   7.653
 7813POPC   NC337235  40.053   2.727   9.453
 7813POPC   PO437236  40.040   2.716   9.153
 7813POPC   GL137237  40.007   2.779   8.853
 7813POPC   GL237238  39.924   2.825   8.853
 7813POPC   C1A37239  39.990   2.718   8.553
 7813POPC   D2A37240  40.008   2.770   8.253
 7813POPC   C3A37241  40.024   2.759   7.953
 7813POPC   C4A37242  40.008   2.797   7.653
 7813POPC   C1B37243  39.860   2.972   8.553
 7813POPC   C2B37244  39.820   2.950   8.253
 7813POPC   C3B37245  39.790   2.919   7.953
 7813POPC   C4B37246  39.784   2.963   7.653
 7814POPC   NC337247   2.020  19.078   9.453
 7814POPC   PO437248   1.978  19.102   9.153
 7814POPC   GL137249   1.952  19.038   8.853
 7814POPC   GL237250   1.986  19.162   8.853
 7814POPC   C1A37251   1.983  19.047   8.553
 7814POPC   D2A37252   1.954  19.022   8.253
 7814POPC   C3A37253   1.970  19.009   7.953
 7814POPC   C4A37254   2.030  19.073   7.653
 7814POPC   C1B37255   1.948  19.283   8.553
 7814POPC   C2B37256   1.909  19.310   8.253
 7814POPC   C3B37257   1.927  19.320   7.953
 7814POPC   C4B37258   1.938  19.304   7.653
 7815POPC   NC337259  44.706  18.280   9.453
 7815POPC   PO437260  44.695  18.255   9.153
 7815POPC   GL137261  44.707  18.276   8.853
 7815POPC   GL237262  44.765  18.273   8.853
 7815POPC   C1A37263  44.664  18.246   8.553
 7815POPC   D2A37264  44.700  18.311   8.253
 7815POPC   C3A37265  44.642  18.292   7.953
 7815POPC   C4A37266  44.634  18.313   7.653
 7815POPC   C1B37267  44.892  18.297   8.553
 7815POPC   C2B37268  44.951  18.227   8.253
 7815POPC   C3B37269  44.874  18.237   7.953
 7815POPC   C4B37270  44.936  18.234   7.653
 7816POPC   NC337271  28.365  37.636   9.453
 7816POPC   PO437272  28.329  37.640   9.153
 7816POPC   GL137273  28.389  37.725   8.853
 7816POPC   GL237274  28.466  37.606   8.853
 7816POPC   C1A37275  28.319  37.691   8.553
 7816POPC   D2A37276  28.339  37.692   8.253
 7816POPC   C3A37277  28.350  37.721   7.953
 7816POPC   C4A37278  28.411  37.718   7.653
 7816POPC   C1B37279  28.466  37.491   8.553
 7816POPC   C2B37280  28.471  37.420   8.253
 7816POPC   C3B37281  28.433  37.444   7.953
 7816POPC   C4B37282  28.446  37.483   7.653
 7817POPC   NC337283  33.752   3.573   9.453
 7817POPC   PO437284  33.760   3.557   9.153
 7817POPC   GL137285  33.779   3.522   8.853
 7817POPC   GL237286  33.927   3.510   8.853
 7817POPC   C1A37287  33.815   3.558   8.553
 7817POPC   D2A37288  33.773   3.499   8.253
 7817POPC   C3A37289  33.802   3.585   7.953
 7817POPC   C4A37290  33.801   3.512   7.653
 7817POPC   C1B37291  34.056   3.484   8.553
 7817POPC   C2B37292  34.011   3.507   8.253
 7817POPC   C3B37293  34.033   3.566   7.953
 7817POPC   C4B37294  34.033   3.558   7.653
 7818POPC   NC337295  37.681   8.973   9.453
 7818POPC   PO437296  37.679   8.981   9.153
 7818POPC   GL137297  37.664   8.947   8.853
 7818POPC   GL237298  37.618   8.874   8.853
 7818POPC   C1A37299  37.665   8.994   8.553
 7818POPC   D2A37300  37.697   8.965   8.253
 7818POPC   C3A37301  37.672   8.947   7.953
 7818POPC   C4A37302  37.665   8.973   7.653
 7818POPC   C1B37303  37.456   8.837   8.553
 7818POPC   C2B37304  37.485   8.788   8.253
 7818POPC   C3B37305  37.504   8.840   7.953
 7818POPC   C4B37306  37.441   8.820   7.653
 7819POPC   NC337307  38.442  11.268   9.453
 7819POPC   PO437308  38.488  11.278   9.153
 7819POPC   GL137309  38.505  11.271   8.853
 7819POPC   GL237310  38.408  11.415   8.853
 7819POPC   C1A37311  38.490  11.280   8.553
 7819POPC   D2A37312  38.414  11.318   8.253
 7819POPC   C3A37313  38.439  11.308   7.953
 7819POPC   C4A37314  38.458  11.274   7.653
 7819POPC   C1B37315  38.282  11.530   8.553
 7819POPC   C2B37316  38.319  11.492   8.253
 7819POPC   C3B37317  38.344  11.522   7.953
 7819POPC   C4B37318  38.318  11.521   7.653
 7820POPC   NC337319  36.866   5.095   9.453
 7820POPC   PO437320  36.940   5.100   9.153
 7820POPC   GL137321  36.883   5.121   8.853
 7820POPC   GL237322  36.909   4.997   8.853
 7820POPC   C1A37323  36.901   5.046   8.553
 7820POPC   D2A37324  36.934   5.140   8.253
 7820POPC   C3A37325  36.867   5.089   7.953
 7820POPC   C4A37326  36.855   5.095   7.653
 7820POPC   C1B37327  37.051   4.891   8.553
 7820POPC   C2B37328  36.995   4.894   8.253
 7820POPC   C3B37329  36.962   4.847   7.953
 7820POPC   C4B37330  36.976   4.901   7.653
 7821POPC   NC337331  23.687  19.827   9.453
 7821POPC   PO437332  23.755  19.854   9.153
 7821POPC   GL137333  23.702  19.788   8.853
 7821POPC   GL237334  23.569  19.934   8.853
 7821POPC   C1A37335  23.671  19.849   8.553
 7821POPC   D2A37336  23.737  19.843   8.253
 7821POPC   C3A37337  23.678  19.807   7.953
 7821POPC   C4A37338  23.677  19.821   7.653
 7821POPC   C1B37339  23.518  19.971   8.553
 7821POPC   C2B37340  23.486  19.993   8.253
 7821POPC   C3B37341  23.465  19.971   7.953
 7821POPC   C4B37342  23.520  20.028   7.653
 7822POPC   NC337343  36.881  43.841   9.453
 7822POPC   PO437344  36.944  43.919   9.153
 7822POPC   GL137345  36.904  43.922   8.853
 7822POPC   GL237346  36.986  43.869   8.853
 7822POPC   C1A37347  36.930  43.888   8.553
 7822POPC   D2A37348  36.946  43.888   8.253
 7822POPC   C3A37349  36.926  43.851   7.953
 7822POPC   C4A37350  36.855  43.931   7.653
 7822POPC   C1B37351  37.166  43.886   8.553
 7822POPC   C2B37352  37.115  43.876   8.253
 7822POPC   C3B37353  37.191  43.921   7.953
 7822POPC   C4B37354  37.173  43.934   7.653
 7823POPC   NC337355  17.527   7.420   9.453
 7823POPC   PO437356  17.459   7.458   9.153
 7823POPC   GL137357  17.519   7.466   8.853
 7823POPC   GL237358  17.581   7.333   8.853
 7823POPC   C1A37359  17.457   7.380   8.553
 7823POPC   D2A37360  17.548   7.427   8.253
 7823POPC   C3A37361  17.538   7.438   7.953
 7823POPC   C4A37362  17.524   7.404   7.653
 7823POPC   C1B37363  17.644   7.219   8.553
 7823POPC   C2B37364  17.620   7.189   8.253
 7823POPC   C3B37365  17.587   7.169   7.953
 7823POPC   C4B37366  17.654   7.201   7.653
 7824POPC   NC337367   9.756  16.689   9.453
 7824POPC   PO437368   9.762  16.757   9.153
 7824POPC   GL137369   9.757  16.762   8.853
 7824POPC   GL237370   9.659  16.736   8.853
 7824POPC   C1A37371   9.744  16.720   8.553
 7824POPC   D2A37372   9.790  16.700   8.253
 7824POPC   C3A37373   9.775  16.767   7.953
 7824POPC   C4A37374   9.699  16.717   7.653
 7824POPC   C1B37375   9.505  16.715   8.553
 7824POPC   C2B37376   9.515  16.741   8.253
 7824POPC   C3B37377   9.527  16.753   7.953
 7824POPC   C4B37378   9.494  16.732   7.653
 7825POPC   NC337379  25.291   1.957   9.453
 7825POPC   PO437380  25.291   1.969   9.153
 7825POPC   GL137381  25.219   1.953   8.853
 7825POPC   GL237382  25.396   2.058   8.853
 7825POPC   C1A37383  25.277   1.968   8.553
 7825POPC   D2A37384  25.264   1.998   8.253
 7825POPC   C3A37385  25.243   2.020   7.953
 7825POPC   C4A37386  25.286   1.946   7.653
 7825POPC   C1B37387  25.467   2.224   8.553
 7825POPC   C2B37388  25.431   2.174   8.253
 7825POPC   C3B37389  25.446   2.190   7.953
 7825POPC   C4B37390  25.471   2.168   7.653
 7826POPC   NC337391   9.010  19.835   9.453
 7826POPC   PO437392   8.929  19.850   9.153
 7826POPC   GL137393   8.990  19.872   8.853
 7826POPC   GL237394   9.056  19.802   8.853
 7826POPC   C1A37395   9.020  19.786   8.553
 7826POPC   D2A37396   9.000  19.846   8.253
 7826POPC   C3A37397   8.941  19.839   7.953
 7826POPC   C4A37398   8.928  19.869   7.653
 7826POPC   C1B37399   9.168  19.751   8.553
 7826POPC   C2B37400   9.237  19.719   8.253
 7826POPC   C3B37401   9.230  19.768   7.953
 7826POPC   C4B37402   9.176  19.720   7.653
 7827POPC   NC337403   1.169  36.912   9.453
 7827POPC   PO437404   1.243  36.924   9.153
 7827POPC   GL137405   1.184  36.872   8.853
 7827POPC   GL237406   1.052  36.950   8.853
 7827POPC   C1A37407   1.174  36.917   8.553
 7827POPC   D2A37408   1.173  36.927   8.253
 7827POPC   C3A37409   1.180  36.887   7.953
 7827POPC   C4A37410   1.181  36.916   7.653
 7827POPC   C1B37411   0.949  36.945   8.553
 7827POPC   C2B37412   0.960  36.853   8.253
 7827POPC   C3B37413   0.917  36.871   7.953
 7827POPC   C4B37414   1.008  36.934   7.653
 7828POPC   NC337415   7.417  21.349   9.453
 7828POPC   PO437416   7.463  21.386   9.153
 7828POPC   GL137417   7.436  21.407   8.853
 7828POPC   GL237418   7.350  21.245   8.853
 7828POPC   C1A37419   7.404  21.343   8.553
 7828POPC   D2A37420   7.464  21.342   8.253
 7828POPC   C3A37421   7.441  21.406   7.953
 7828POPC   C4A37422   7.440  21.363   7.653
 7828POPC   C1B37423   7.254  21.232   8.553
 7828POPC   C2B37424   7.296  21.244   8.253
 7828POPC   C3B37425   7.253  21.247   7.953
 7828POPC   C4B37426   7.246  21.177   7.653
 7829POPC   NC337427  21.414   6.655   9.453
 7829POPC   PO437428  21.431   6.645   9.153
 7829POPC   GL137429  21.414   6.655   8.853
 7829POPC   GL237430  21.522   6.532   8.853
 7829POPC   C1A37431  21.338   6.601   8.553
 7829POPC   D2A37432  21.339   6.600   8.253
 7829POPC   C3A37433  21.392   6.632   7.953
 7829POPC   C4A37434  21.399   6.649   7.653
 7829POPC   C1B37435  21.596   6.504   8.553
 7829POPC   C2B37436  21.631   6.549   8.253
 7829POPC   C3B37437  21.555   6.535   7.953
 7829POPC   C4B37438  21.611   6.543   7.653
 7830POPC   NC337439  28.322   2.776   9.453
 7830POPC   PO437440  28.407   2.738   9.153
 7830POPC   GL137441  28.369   2.767   8.853
 7830POPC   GL237442  28.236   2.799   8.853
 7830POPC   C1A37443  28.353   2.721   8.553
 7830POPC   D2A37444  28.390   2.754   8.253
 7830POPC   C3A37445  28.362   2.743   7.953
 7830POPC   C4A37446  28.412   2.762   7.653
 7830POPC   C1B37447  28.162   2.802   8.553
 7830POPC   C2B37448  28.125   2.738   8.253
 7830POPC   C3B37449  28.153   2.743   7.953
 7830POPC   C4B37450  28.168   2.801   7.653
 7831POPC   NC337451  36.120  28.411   9.453
 7831POPC   PO437452  36.134  28.401   9.153
 7831POPC   GL137453  36.148  28.369   8.853
 7831POPC   GL237454  36.279  28.351   8.853
 7831POPC   C1A37455  36.157  28.333   8.553
 7831POPC   D2A37456  36.119  28.378   8.253
 7831POPC   C3A37457  36.122  28.364   7.953
 7831POPC   C4A37458  36.128  28.391   7.653
 7831POPC   C1B37459  36.387  28.396   8.553
 7831POPC   C2B37460  36.362  28.374   8.253
 7831POPC   C3B37461  36.379  28.371   7.953
 7831POPC   C4B37462  36.412  28.313   7.653
 7832POPC   NC337463   6.613  44.642   9.453
 7832POPC   PO437464   6.607  44.627   9.153
 7832POPC   GL137465   6.645  44.709   8.853
 7832POPC   GL237466   6.673  44.568   8.853
 7832POPC   C1A37467   6.621  44.661   8.553
 7832POPC   D2A37468   6.598  44.658   8.253
 7832POPC   C3A37469   6.630  44.624   7.953
 7832POPC   C4A37470   6.640  44.658   7.653
 7832POPC   C1B37471   6.734  44.405   8.553
 7832POPC   C2B37472   6.706  44.399   8.253
 7832POPC   C3B37473   6.741  44.418   7.953
 7832POPC   C4B37474   6.725  44.456   7.653
 7833POPC   NC337475   6.599  17.463   9.453
 7833POPC   PO437476   6.612  17.495   9.153
 7833POPC   GL137477   6.598  17.552   8.853
 7833POPC   GL237478   6.657  17.391   8.853
 7833POPC   C1A37479   6.618  17.518   8.553
 7833POPC   D2A37480   6.595  17.511   8.253
 7833POPC   C3A37481   6.619  17.486   7.953
 7833POPC   C4A37482   6.614  17.525   7.653
 7833POPC   C1B37483   6.704  17.277   8.553
 7833POPC   C2B37484   6.743  17.315   8.253
 7833POPC   C3B37485   6.771  17.245   7.953
 7833POPC   C4B37486   6.715  17.313   7.653
 7834POPC   NC337487  43.153  22.946   9.453
 7834POPC   PO437488  43.071  22.894   9.153
 7834POPC   GL137489  43.080  22.935   8.853
 7834POPC   GL237490  43.090  23.063   8.853
 7834POPC   C1A37491  43.087  22.966   8.553
 7834POPC   D2A37492  43.108  22.933   8.253
 7834POPC   C3A37493  43.136  22.947   7.953
 7834POPC   C4A37494  43.115  22.954   7.653
 7834POPC   C1B37495  43.015  23.137   8.553
 7834POPC   C2B37496  43.001  23.228   8.253
 7834POPC   C3B37497  43.094  23.214   7.953
 7834POPC   C4B37498  43.009  23.199   7.653
 7835POPC   NC337499  22.940   5.911   9.453
 7835POPC   PO437500  22.961   5.886   9.153
 7835POPC   GL137501  22.962   5.833   8.853
 7835POPC   GL237502  23.064   5.934   8.853
 7835POPC   C1A37503  22.957   5.903   8.553
 7835POPC   D2A37504  22.948   5.866   8.253
 7835POPC   C3A37505  22.888   5.823   7.953
 7835POPC   C4A37506  22.890   5.894   7.653
 7835POPC   C1B37507  23.054   6.080   8.553
 7835POPC   C2B37508  23.121   6.054   8.253
 7835POPC   C3B37509  23.079   6.100   7.953
 7835POPC   C4B37510  23.078   6.034   7.653
 7836POPC   NC337511   0.483  40.825   9.453
 7836POPC   PO437512   0.484  40.782   9.153
 7836POPC   GL137513   0.426  40.799   8.853
 7836POPC   GL237514   0.526  40.642   8.853
 7836POPC   C1A37515   0.438  40.743   8.553
 7836POPC   D2A37516   0.453  40.811   8.253
 7836POPC   C3A37517   0.444  40.819   7.953
 7836POPC   C4A37518   0.474  40.770   7.653
 7836POPC   C1B37519   0.628  40.573   8.553
 7836POPC   C2B37520   0.568  40.594   8.253
 7836POPC   C3B37521   0.546  40.536   7.953
 7836POPC   C4B37522   0.604  40.598   7.653
 7837POPC   NC337523  19.048  17.458   9.453
 7837POPC   PO437524  19.010  17.551   9.153
 7837POPC   GL137525  19.091  17.556   8.853
 7837POPC   GL237526  19.020  17.348   8.853
 7837POPC   C1A37527  19.052  17.465   8.553
 7837POPC   D2A37528  19.044  17.518   8.253
 7837POPC   C3A37529  19.011  17.511   7.953
 7837POPC   C4A37530  19.059  17.528   7.653
 7837POPC   C1B37531  19.004  17.296   8.553
 7837POPC   C2B37532  18.974  17.283   8.253
 7837POPC   C3B37533  18.975  17.311   7.953
 7837POPC   C4B37534  18.981  17.298   7.653
 7838POPC   NC337535   7.469  30.732   9.453
 7838POPC   PO437536   7.467  30.725   9.153
 7838POPC   GL137537   7.418  30.703   8.853
 7838POPC   GL237538   7.409  30.613   8.853
 7838POPC   C1A37539   7.407  30.684   8.553
 7838POPC   D2A37540   7.462  30.691   8.253
 7838POPC   C3A37541   7.440  30.682   7.953
 7838POPC   C4A37542   7.447  30.694   7.653
 7838POPC   C1B37543   7.371  30.494   8.553
 7838POPC   C2B37544   7.327  30.503   8.253
 7838POPC   C3B37545   7.310  30.436   7.953
 7838POPC   C4B37546   7.343  30.499   7.653
 7839POPC   NC337547  18.291  12.122   9.453
 7839POPC   PO437548  18.249  12.106   9.153
 7839POPC   GL137549  18.266  12.123   8.853
 7839POPC   GL237550  18.371  11.924   8.853
 7839POPC   C1A37551  18.234  12.026   8.553
 7839POPC   D2A37552  18.263  12.069   8.253
 7839POPC   C3A37553  18.255  12.095   7.953
 7839POPC   C4A37554  18.268  12.035   7.653
 7839POPC   C1B37555  18.411  11.886   8.553
 7839POPC   C2B37556  18.448  11.829   8.253
 7839POPC   C3B37557  18.402  11.843   7.953
 7839POPC   C4B37558  18.378  11.906   7.653
 7840POPC   NC337559  41.557   8.224   9.453
 7840POPC   PO437560  41.595   8.203   9.153
 7840POPC   GL137561  41.565   8.165   8.853
 7840POPC   GL237562  41.661   8.203   8.853
 7840POPC   C1A37563  41.523   8.150   8.553
 7840POPC   D2A37564  41.566   8.164   8.253
 7840POPC   C3A37565  41.556   8.176   7.953
 7840POPC   C4A37566  41.594   8.234   7.653
 7840POPC   C1B37567  41.769   8.160   8.553
 7840POPC   C2B37568  41.828   8.155   8.253
 7840POPC   C3B37569  41.771   8.141   7.953
 7840POPC   C4B37570  41.814   8.166   7.653
 7841POPC   NC337571  19.882  18.301   9.453
 7841POPC   PO437572  19.796  18.275   9.153
 7841POPC   GL137573  19.841  18.285   8.853
 7841POPC   GL237574  19.872  18.139   8.853
 7841POPC   C1A37575  19.855  18.307   8.553
 7841POPC   D2A37576  19.876  18.270   8.253
 7841POPC   C3A37577  19.868  18.327   7.953
 7841POPC   C4A37578  19.881  18.278   7.653
 7841POPC   C1B37579  19.853  18.080   8.553
 7841POPC   C2B37580  19.818  18.057   8.253
 7841POPC   C3B37581  19.840  18.011   7.953
 7841POPC   C4B37582  19.857  18.065   7.653
 7842POPC   NC337583  26.011  16.750   9.453
 7842POPC   PO437584  26.004  16.754   9.153
 7842POPC   GL137585  26.042  16.763   8.853
 7842POPC   GL237586  25.957  16.769   8.853
 7842POPC   C1A37587  26.029  16.774   8.553
 7842POPC   D2A37588  26.019  16.704   8.253
 7842POPC   C3A37589  26.040  16.709   7.953
 7842POPC   C4A37590  26.067  16.698   7.653
 7842POPC   C1B37591  25.801  16.849   8.553
 7842POPC   C2B37592  25.824  16.848   8.253
 7842POPC   C3B37593  25.787  16.805   7.953
 7842POPC   C4B37594  25.822  16.854   7.653
 7843POPC   NC337595   6.661   3.494   9.453
 7843POPC   PO437596   6.675   3.541   9.153
 7843POPC   GL137597   6.671   3.555   8.853
 7843POPC   GL237598   6.602   3.643   8.853
 7843POPC   C1A37599   6.603   3.520   8.553
 7843POPC   D2A37600   6.656   3.553   8.253
 7843POPC   C3A37601   6.643   3.525   7.953
 7843POPC   C4A37602   6.674   3.569   7.653
 7843POPC   C1B37603   6.610   3.754   8.553
 7843POPC   C2B37604   6.631   3.836   8.253
 7843POPC   C3B37605   6.644   3.746   7.953
 7843POPC   C4B37606   6.604   3.840   7.653
 7844POPC   NC337607   4.362  14.417   9.453
 7844POPC   PO437608   4.360  14.386   9.153
 7844POPC   GL137609   4.280  14.367   8.853
 7844POPC   GL237610   4.450  14.300   8.853
 7844POPC   C1A37611   4.316  14.406   8.553
 7844POPC   D2A37612   4.334  14.376   8.253
 7844POPC   C3A37613   4.347  14.366   7.953
 7844POPC   C4A37614   4.333  14.448   7.653
 7844POPC   C1B37615   4.527  14.207   8.553
 7844POPC   C2B37616   4.529  14.270   8.253
 7844POPC   C3B37617   4.476  14.244   7.953
 7844POPC   C4B37618   4.438  14.268   7.653
 7845POPC   NC337619  27.593  36.922   9.453
 7845POPC   PO437620  27.591  36.878   9.153
 7845POPC   GL137621  27.550  36.858   8.853
 7845POPC   GL237622  27.641  36.835   8.853
 7845POPC   C1A37623  27.553  36.917   8.553
 7845POPC   D2A37624  27.580  36.933   8.253
 7845POPC   C3A37625  27.637  36.882   7.953
 7845POPC   C4A37626  27.640  36.865   7.653
 7845POPC   C1B37627  27.687  36.655   8.553
 7845POPC   C2B37628  27.696  36.695   8.253
 7845POPC   C3B37629  27.657  36.711   7.953
 7845POPC   C4B37630  27.717  36.670   7.653
 7846POPC   NC337631   3.555   1.193   9.453
 7846POPC   PO437632   3.573   1.171   9.153
 7846POPC   GL137633   3.566   1.191   8.853
 7846POPC   GL237634   3.467   1.243   8.853
 7846POPC   C1A37635   3.550   1.243   8.553
 7846POPC   D2A37636   3.517   1.250   8.253
 7846POPC   C3A37637   3.491   1.184   7.953
 7846POPC   C4A37638   3.582   1.168   7.653
 7846POPC   C1B37639   3.272   1.219   8.553
 7846POPC   C2B37640   3.339   1.250   8.253
 7846POPC   C3B37641   3.330   1.214   7.953
 7846POPC   C4B37642   3.326   1.239   7.653
 7847POPC   NC337643  31.511  28.361   9.453
 7847POPC   PO437644  31.439  28.410   9.153
 7847POPC   GL137645  31.458  28.391   8.853
 7847POPC   GL237646  31.464  28.264   8.853
 7847POPC   C1A37647  31.428  28.328   8.553
 7847POPC   D2A37648  31.506  28.330   8.253
 7847POPC   C3A37649  31.423  28.321   7.953
 7847POPC   C4A37650  31.435  28.361   7.653
 7847POPC   C1B37651  31.479  28.113   8.553
 7847POPC   C2B37652  31.489  28.120   8.253
 7847POPC   C3B37653  31.479  28.149   7.953
 7847POPC   C4B37654  31.421  28.099   7.653
 7848POPC   NC337655  38.491  29.898   9.453
 7848POPC   PO437656  38.498  29.898   9.153
 7848POPC   GL137657  38.495  29.954   8.853
 7848POPC   GL237658  38.323  30.005   8.853
 7848POPC   C1A37659  38.424  29.957   8.553
 7848POPC   D2A37660  38.420  29.943   8.253
 7848POPC   C3A37661  38.408  29.948   7.953
 7848POPC   C4A37662  38.470  29.969   7.653
 7848POPC   C1B37663  38.262  30.106   8.553
 7848POPC   C2B37664  38.280  30.087   8.253
 7848POPC   C3B37665  38.284  30.102   7.953
 7848POPC   C4B37666  38.247  30.075   7.653
 7849POPC   NC337667  16.742  26.830   9.453
 7849POPC   PO437668  16.743  26.807   9.153
 7849POPC   GL137669  16.776  26.768   8.853
 7849POPC   GL237670  16.681  26.722   8.853
 7849POPC   C1A37671  16.744  26.835   8.553
 7849POPC   D2A37672  16.709  26.787   8.253
 7849POPC   C3A37673  16.775  26.855   7.953
 7849POPC   C4A37674  16.694  26.846   7.653
 7849POPC   C1B37675  16.568  26.614   8.553
 7849POPC   C2B37676  16.570  26.591   8.253
 7849POPC   C3B37677  16.579  26.615   7.953
 7849POPC   C4B37678  16.579  26.644   7.653
 7850POPC   NC337679  29.148  22.113   9.453
 7850POPC   PO437680  29.115  22.164   9.153
 7850POPC   GL137681  29.109  22.167   8.853
 7850POPC   GL237682  29.214  22.023   8.853
 7850POPC   C1A37683  29.143  22.209   8.553
 7850POPC   D2A37684  29.119  22.144   8.253
 7850POPC   C3A37685  29.156  22.144   7.953
 7850POPC   C4A37686  29.191  22.192   7.653
 7850POPC   C1B37687  29.224  21.959   8.553
 7850POPC   C2B37688  29.216  21.892   8.253
 7850POPC   C3B37689  29.251  21.983   7.953
 7850POPC   C4B37690  29.290  21.943   7.653
 7851POPC   NC337691  38.438  37.712   9.453
 7851POPC   PO437692  38.477  37.638   9.153
 7851POPC   GL137693  38.465  37.670   8.853
 7851POPC   GL237694  38.536  37.780   8.853
 7851POPC   C1A37695  38.419  37.721   8.553
 7851POPC   D2A37696  38.504  37.639   8.253
 7851POPC   C3A37697  38.466  37.709   7.953
 7851POPC   C4A37698  38.448  37.685   7.653
 7851POPC   C1B37699  38.582  37.935   8.553
 7851POPC   C2B37700  38.581  37.868   8.253
 7851POPC   C3B37701  38.569  37.865   7.953
 7851POPC   C4B37702  38.520  37.884   7.653
 7852POPC   NC337703  40.832  11.286   9.453
 7852POPC   PO437704  40.812  11.346   9.153
 7852POPC   GL137705  40.802  11.349   8.853
 7852POPC   GL237706  40.739  11.142   8.853
 7852POPC   C1A37707  40.818  11.339   8.553
 7852POPC   D2A37708  40.774  11.294   8.253
 7852POPC   C3A37709  40.736  11.303   7.953
 7852POPC   C4A37710  40.791  11.294   7.653
 7852POPC   C1B37711  40.682  11.034   8.553
 7852POPC   C2B37712  40.717  11.093   8.253
 7852POPC   C3B37713  40.630  11.103   7.953
 7852POPC   C4B37714  40.622  11.068   7.653
 7853POPC   NC337715  13.650  17.541   9.453
 7853POPC   PO437716  13.661  17.541   9.153
 7853POPC   GL137717  13.643  17.493   8.853
 7853POPC   GL237718  13.496  17.567   8.853
 7853POPC   C1A37719  13.647  17.497   8.553
 7853POPC   D2A37720  13.662  17.510   8.253
 7853POPC   C3A37721  13.641  17.520   7.953
 7853POPC   C4A37722  13.658  17.505   7.653
 7853POPC   C1B37723  13.395  17.607   8.553
 7853POPC   C2B37724  13.377  17.584   8.253
 7853POPC   C3B37725  13.401  17.569   7.953
 7853POPC   C4B37726  13.350  17.546   7.653
 7854POPC   NC337727  38.449   0.392   9.453
 7854POPC   PO437728  38.406   0.430   9.153
 7854POPC   GL137729  38.408   0.450   8.853
 7854POPC   GL237730  38.318   0.552   8.853
 7854POPC   C1A37731  38.408   0.396   8.553
 7854POPC   D2A37732  38.479   0.440   8.253
 7854POPC   C3A37733  38.500   0.404   7.953
 7854POPC   C4A37734  38.423   0.466   7.653
 7854POPC   C1B37735  38.282   0.620   8.553
 7854POPC   C2B37736  38.222   0.583   8.253
 7854POPC   C3B37737  38.228   0.628   7.953
 7854POPC   C4B37738  38.252   0.583   7.653
 7855POPC   NC337739  21.345  39.982   9.453
 7855POPC   PO437740  21.413  40.047   9.153
 7855POPC   GL137741  21.384  39.978   8.853
 7855POPC   GL237742  21.379  40.098   8.853
 7855POPC   C1A37743  21.338  39.994   8.553
 7855POPC   D2A37744  21.434  39.991   8.253
 7855POPC   C3A37745  21.394  39.964   7.953
 7855POPC   C4A37746  21.346  39.959   7.653
 7855POPC   C1B37747  21.464  40.282   8.553
 7855POPC   C2B37748  21.412  40.299   8.253
 7855POPC   C3B37749  21.398  40.288   7.953
 7855POPC   C4B37750  21.441  40.259   7.653
 7856POPC   NC337751  34.581   6.645   9.453
 7856POPC   PO437752  34.620   6.661   9.153
 7856POPC   GL137753  34.571   6.599   8.853
 7856POPC   GL237754  34.552   6.770   8.853
 7856POPC   C1A37755  34.560   6.600   8.553
 7856POPC   D2A37756  34.563   6.632   8.253
 7856POPC   C3A37757  34.622   6.612   7.953
 7856POPC   C4A37758  34.577   6.665   7.653
 7856POPC   C1B37759  34.485   6.930   8.553
 7856POPC   C2B37760  34.537   6.907   8.253
 7856POPC   C3B37761  34.506   6.879   7.953
 7856POPC   C4B37762  34.562   6.916   7.653
 7857POPC   NC337763  30.668  32.991   9.453
 7857POPC   PO437764  30.736  32.976   9.153
 7857POPC   GL137765  30.698  33.050   8.853
 7857POPC   GL237766  30.808  32.954   8.853
 7857POPC   C1A37767  30.706  33.024   8.553
 7857POPC   D2A37768  30.713  33.003   8.253
 7857POPC   C3A37769  30.664  33.020   7.953
 7857POPC   C4A37770  30.711  33.032   7.653
 7857POPC   C1B37771  30.861  32.898   8.553
 7857POPC   C2B37772  30.843  32.887   8.253
 7857POPC   C3B37773  30.921  32.901   7.953
 7857POPC   C4B37774  30.879  32.866   7.653
 7858POPC   NC337775   0.444  34.593   9.453
 7858POPC   PO437776   0.486  34.604   9.153
 7858POPC   GL137777   0.443  34.588   8.853
 7858POPC   GL237778   0.554  34.537   8.853
 7858POPC   C1A37779   0.398  34.595   8.553
 7858POPC   D2A37780   0.416  34.553   8.253
 7858POPC   C3A37781   0.483  34.590   7.953
 7858POPC   C4A37782   0.473  34.625   7.653
 7858POPC   C1B37783   0.614  34.425   8.553
 7858POPC   C2B37784   0.658  34.438   8.253
 7858POPC   C3B37785   0.622  34.428   7.953
 7858POPC   C4B37786   0.608  34.398   7.653
 7859POPC   NC337787  12.085  26.810   9.453
 7859POPC   PO437788  12.039  26.790   9.153
 7859POPC   GL137789  12.083  26.785   8.853
 7859POPC   GL237790  12.047  26.949   8.853
 7859POPC   C1A37791  12.067  26.784   8.553
 7859POPC   D2A37792  12.051  26.840   8.253
 7859POPC   C3A37793  12.116  26.772   7.953
 7859POPC   C4A37794  12.060  26.843   7.653
 7859POPC   C1B37795  12.032  27.103   8.553
 7859POPC   C2B37796  12.028  27.041   8.253
 7859POPC   C3B37797  11.967  27.049   7.953
 7859POPC   C4B37798  11.983  27.054   7.653
 7860POPC   NC337799   4.286  27.605   9.453
 7860POPC   PO437800   4.295  27.605   9.153
 7860POPC   GL137801   4.355  27.599   8.853
 7860POPC   GL237802   4.218  27.660   8.853
 7860POPC   C1A37803   4.358  27.547   8.553
 7860POPC   D2A37804   4.272  27.605   8.253
 7860POPC   C3A37805   4.299  27.633   7.953
 7860POPC   C4A37806   4.272  27.617   7.653
 7860POPC   C1B37807   4.151  27.812   8.553
 7860POPC   C2B37808   4.159  27.767   8.253
 7860POPC   C3B37809   4.125  27.797   7.953
 7860POPC   C4B37810   4.122  27.789   7.653
 7861POPC   NC337811  16.746  28.391   9.453
 7861POPC   PO437812  16.764  28.396   9.153
 7861POPC   GL137813  16.779  28.386   8.853
 7861POPC   GL237814  16.715  28.508   8.853
 7861POPC   C1A37815  16.758  28.320   8.553
 7861POPC   D2A37816  16.729  28.370   8.253
 7861POPC   C3A37817  16.692  28.389   7.953
 7861POPC   C4A37818  16.769  28.367   7.653
 7861POPC   C1B37819  16.667  28.639   8.553
 7861POPC   C2B37820  16.637  28.630   8.253
 7861POPC   C3B37821  16.699  28.585   7.953
 7861POPC   C4B37822  16.635  28.573   7.653
 7862POPC   NC337823  36.127  20.570   9.453
 7862POPC   PO437824  36.117  20.570   9.153
 7862POPC   GL137825  36.078  20.634   8.853
 7862POPC   GL237826  36.055  20.735   8.853
 7862POPC   C1A37827  36.166  20.648   8.553
 7862POPC   D2A37828  36.134  20.612   8.253
 7862POPC   C3A37829  36.145  20.587   7.953
 7862POPC   C4A37830  36.175  20.561   7.653
 7862POPC   C1B37831  35.999  20.891   8.553
 7862POPC   C2B37832  36.057  20.851   8.253
 7862POPC   C3B37833  36.016  20.864   7.953
 7862POPC   C4B37834  36.079  20.888   7.653
 7863POPC   NC337835  29.145  29.191   9.453
 7863POPC   PO437836  29.179  29.185   9.153
 7863POPC   GL137837  29.194  29.194   8.853
 7863POPC   GL237838  29.243  29.065   8.853
 7863POPC   C1A37839  29.179  29.137   8.553
 7863POPC   D2A37840  29.184  29.115   8.253
 7863POPC   C3A37841  29.144  29.149   7.953
 7863POPC   C4A37842  29.146  29.181   7.653
 7863POPC   C1B37843  29.343  29.096   8.553
 7863POPC   C2B37844  29.387  29.020   8.253
 7863POPC   C3B37845  29.346  29.001   7.953
 7863POPC   C4B37846  29.336  29.050   7.653
 7864POPC   NC337847  39.183  11.290   9.453
 7864POPC   PO437848  39.231  11.298   9.153
 7864POPC   GL137849  39.227  11.329   8.853
 7864POPC   GL237850  39.285  11.404   8.853
 7864POPC   C1A37851  39.248  11.254   8.553
 7864POPC   D2A37852  39.273  11.290   8.253
 7864POPC   C3A37853  39.240  11.310   7.953
 7864POPC   C4A37854  39.213  11.276   7.653
 7864POPC   C1B37855  39.299  11.572   8.553
 7864POPC   C2B37856  39.228  11.509   8.253
 7864POPC   C3B37857  39.315  11.551   7.953
 7864POPC   C4B37858  39.275  11.586   7.653
 7865POPC   NC337859   6.614  19.082   9.453
 7865POPC   PO437860   6.642  19.084   9.153
 7865POPC   GL137861   6.642  19.088   8.853
 7865POPC   GL237862   6.737  19.132   8.853
 7865POPC   C1A37863   6.614  19.085   8.553
 7865POPC   D2A37864   6.693  19.027   8.253
 7865POPC   C3A37865   6.595  19.047   7.953
 7865POPC   C4A37866   6.625  19.019   7.653
 7865POPC   C1B37867   6.772  19.243   8.553
 7865POPC   C2B37868   6.735  19.289   8.253
 7865POPC   C3B37869   6.743  19.280   7.953
 7865POPC   C4B37870   6.747  19.223   7.653
 7866POPC   NC337871  19.830  19.028   9.453
 7866POPC   PO437872  19.883  19.061   9.153
 7866POPC   GL137873  19.791  19.077   8.853
 7866POPC   GL237874  19.829  18.920   8.853
 7866POPC   C1A37875  19.816  19.039   8.553
 7866POPC   D2A37876  19.834  19.052   8.253
 7866POPC   C3A37877  19.848  19.052   7.953
 7866POPC   C4A37878  19.880  19.065   7.653
 7866POPC   C1B37879  19.949  18.847   8.553
 7866POPC   C2B37880  19.940  18.866   8.253
 7866POPC   C3B37881  19.866  18.802   7.953
 7866POPC   C4B37882  19.893  18.773   7.653
 7867POPC   NC337883  12.859  11.278   9.453
 7867POPC   PO437884  12.809  11.309   9.153
 7867POPC   GL137885  12.854  11.328   8.853
 7867POPC   GL237886  13.004  11.349   8.853
 7867POPC   C1A37887  12.877  11.279   8.553
 7867POPC   D2A37888  12.878  11.265   8.253
 7867POPC   C3A37889  12.901  11.287   7.953
 7867POPC   C4A37890  12.842  11.327   7.653
 7867POPC   C1B37891  13.047  11.366   8.553
 7867POPC   C2B37892  13.031  11.434   8.253
 7867POPC   C3B37893  13.037  11.391   7.953
 7867POPC   C4B37894  13.085  11.431   7.653
 7868POPC   NC337895  19.884  40.832   9.453
 7868POPC   PO437896  19.873  40.820   9.153
 7868POPC   GL137897  19.827  40.773   8.853
 7868POPC   GL237898  19.759  40.682   8.853
 7868POPC   C1A37899  19.821  40.804   8.553
 7868POPC   D2A37900  19.882  40.789   8.253
 7868POPC   C3A37901  19.860  40.754   7.953
 7868POPC   C4A37902  19.823  40.791   7.653
 7868POPC   C1B37903  19.715  40.585   8.553
 7868POPC   C2B37904  19.735  40.550   8.253
 7868POPC   C3B37905  19.694  40.575   7.953
 7868POPC   C4B37906  19.699  40.517   7.653
 7869POPC   NC337907   5.111  21.372   9.453
 7869POPC   PO437908   5.064  21.396   9.153
 7869POPC   GL137909   5.101  21.424   8.853
 7869POPC   GL237910   4.986  21.287   8.853
 7869POPC   C1A37911   5.111  21.403   8.553
 7869POPC   D2A37912   5.101  21.397   8.253
 7869POPC   C3A37913   5.076  21.426   7.953
 7869POPC   C4A37914   5.049  21.416   7.653
 7869POPC   C1B37915   4.971  21.142   8.553
 7869POPC   C2B37916   4.928  21.133   8.253
 7869POPC   C3B37917   4.987  21.125   7.953
 7869POPC   C4B37918   4.941  21.154   7.653
 7870POPC   NC337919   1.242  44.690   9.453
 7870POPC   PO437920   1.264  44.711   9.153
 7870POPC   GL137921   1.196  44.692   8.853
 7870POPC   GL237922   1.314  44.602   8.853
 7870POPC   C1A37923   1.234  44.614   8.553
 7870POPC   D2A37924   1.214  44.663   8.253
 7870POPC   C3A37925   1.258  44.666   7.953
 7870POPC   C4A37926   1.247  44.708   7.653
 7870POPC   C1B37927   1.428  44.440   8.553
 7870POPC   C2B37928   1.381  44.441   8.253
 7870POPC   C3B37929   1.384  44.498   7.953
 7870POPC   C4B37930   1.349  44.530   7.653
 7871POPC   NC337931  26.001  35.323   9.453
 7871POPC   PO437932  26.011  35.327   9.153
 7871POPC   GL137933  25.993  35.377   8.853
 7871POPC   GL237934  26.165  35.365   8.853
 7871POPC   C1A37935  26.040  35.323   8.553
 7871POPC   D2A37936  26.042  35.306   8.253
 7871POPC   C3A37937  26.001  35.350   7.953
 7871POPC   C4A37938  26.074  35.376   7.653
 7871POPC   C1B37939  26.328  35.467   8.553
 7871POPC   C2B37940  26.276  35.476   8.253
 7871POPC   C3B37941  26.303  35.441   7.953
 7871POPC   C4B37942  26.284  35.414   7.653
 7872POPC   NC337943  20.623  38.505   9.453
 7872POPC   PO437944  20.564  38.440   9.153
 7872POPC   GL137945  20.637  38.453   8.853
 7872POPC   GL237946  20.660  38.411   8.853
 7872POPC   C1A37947  20.571  38.498   8.553
 7872POPC   D2A37948  20.629  38.491   8.253
 7872POPC   C3A37949  20.628  38.416   7.953
 7872POPC   C4A37950  20.585  38.475   7.653
 7872POPC   C1B37951  20.810  38.253   8.553
 7872POPC   C2B37952  20.784  38.221   8.253
 7872POPC   C3B37953  20.735  38.235   7.953
 7872POPC   C4B37954  20.765  38.243   7.653
 7873POPC   NC337955  32.200  18.263   9.453
 7873POPC   PO437956  32.288  18.297   9.153
 7873POPC   GL137957  32.283  18.313   8.853
 7873POPC   GL237958  32.137  18.385   8.853
 7873POPC   C1A37959  32.239  18.291   8.553
 7873POPC   D2A37960  32.292  18.280   8.253
 7873POPC   C3A37961  32.255  18.246   7.953
 7873POPC   C4A37962  32.216  18.252   7.653
 7873POPC   C1B37963  32.031  18.484   8.553
 7873POPC   C2B37964  32.037  18.460   8.253
 7873POPC   C3B37965  32.011  18.463   7.953
 7873POPC   C4B37966  32.011  18.430   7.653
 7874POPC   NC337967  38.479  15.924   9.453
 7874POPC   PO437968  38.444  15.989   9.153
 7874POPC   GL137969  38.481  15.928   8.853
 7874POPC   GL237970  38.427  16.035   8.853
 7874POPC   C1A37971  38.491  15.910   8.553
 7874POPC   D2A37972  38.439  15.910   8.253
 7874POPC   C3A37973  38.479  15.926   7.953
 7874POPC   C4A37974  38.420  15.987   7.653
 7874POPC   C1B37975  38.281  16.150   8.553
 7874POPC   C2B37976  38.350  16.183   8.253
 7874POPC   C3B37977  38.307  16.134   7.953
 7874POPC   C4B37978  38.264  16.107   7.653
 7875POPC   NC337979  30.716  23.683   9.453
 7875POPC   PO437980  30.745  23.711   9.153
 7875POPC   GL137981  30.687  23.680   8.853
 7875POPC   GL237982  30.773  23.717   8.853
 7875POPC   C1A37983  30.717  23.732   8.553
 7875POPC   D2A37984  30.672  23.701   8.253
 7875POPC   C3A37985  30.691  23.691   7.953
 7875POPC   C4A37986  30.653  23.676   7.653
 7875POPC   C1B37987  30.989  23.804   8.553
 7875POPC   C2B37988  30.942  23.807   8.253
 7875POPC   C3B37989  30.942  23.802   7.953
 7875POPC   C4B37990  30.981  23.714   7.653
 7876POPC   NC337991  25.245  39.244   9.453
 7876POPC   PO437992  25.234  39.204   9.153
 7876POPC   GL137993  25.300  39.207   8.853
 7876POPC   GL237994  25.206  39.128   8.853
 7876POPC   C1A37995  25.278  39.215   8.553
 7876POPC   D2A37996  25.224  39.234   8.253
 7876POPC   C3A37997  25.238  39.236   7.953
 7876POPC   C4A37998  25.255  39.230   7.653
 7876POPC   C1B37999  25.130  39.025   8.553
 7876POPC   C2B38000  25.102  39.074   8.253
 7876POPC   C3B38001  25.128  39.025   7.953
 7876POPC   C4B38002  25.071  39.090   7.653
 7877POPC   NC338003  42.301  44.674   9.453
 7877POPC   PO438004  42.363  44.633   9.153
 7877POPC   GL138005  42.372  44.694   8.853
 7877POPC   GL238006  42.488  44.696   8.853
 7877POPC   C1A38007  42.291  44.651   8.553
 7877POPC   D2A38008  42.309  44.659   8.253
 7877POPC   C3A38009  42.285  44.692   7.953
 7877POPC   C4A38010  42.370  44.626   7.653
 7877POPC   C1B38011  42.606  44.720   8.553
 7877POPC   C2B38012  42.563  44.802   8.253
 7877POPC   C3B38013  42.602  44.753   7.953
 7877POPC   C4B38014  42.602  44.795   7.653
 7878POPC   NC338015  12.860  17.470   9.453
 7878POPC   PO438016  12.863  17.491   9.153
 7878POPC   GL138017  12.830  17.470   8.853
 7878POPC   GL238018  12.746  17.508   8.853
 7878POPC   C1A38019  12.842  17.536   8.553
 7878POPC   D2A38020  12.887  17.461   8.253
 7878POPC   C3A38021  12.877  17.516   7.953
 7878POPC   C4A38022  12.854  17.468   7.653
 7878POPC   C1B38023  12.620  17.560   8.553
 7878POPC   C2B38024  12.564  17.532   8.253
 7878POPC   C3B38025  12.580  17.578   7.953
 7878POPC   C4B38026  12.609  17.562   7.653
 7879POPC   NC338027  37.679  26.006   9.453
 7879POPC   PO438028  37.711  26.023   9.153
 7879POPC   GL138029  37.684  26.056   8.853
 7879POPC   GL238030  37.677  26.176   8.853
 7879POPC   C1A38031  37.630  26.055   8.553
 7879POPC   D2A38032  37.696  26.059   8.253
 7879POPC   C3A38033  37.658  26.068   7.953
 7879POPC   C4A38034  37.643  26.088   7.653
 7879POPC   C1B38035  37.699  26.261   8.553
 7879POPC   C2B38036  37.643  26.268   8.253
 7879POPC   C3B38037  37.683  26.301   7.953
 7879POPC   C4B38038  37.635  26.283   7.653
 7880POPC   NC338039   9.716  41.549   9.453
 7880POPC   PO438040   9.731  41.588   9.153
 7880POPC   GL138041   9.789  41.579   8.853
 7880POPC   GL238042   9.759  41.415   8.853
 7880POPC   C1A38043   9.750  41.511   8.553
 7880POPC   D2A38044   9.776  41.526   8.253
 7880POPC   C3A38045   9.716  41.588   7.953
 7880POPC   C4A38046   9.754  41.520   7.653
 7880POPC   C1B38047   9.669  41.345   8.553
 7880POPC   C2B38048   9.670  41.306   8.253
 7880POPC   C3B38049   9.731  41.301   7.953
 7880POPC   C4B38050   9.705  41.332   7.653
 7881POPC   NC338051  24.448  12.102   9.453
 7881POPC   PO438052  24.476  12.061   9.153
 7881POPC   GL138053  24.448  12.067   8.853
 7881POPC   GL238054  24.531  12.221   8.853
 7881POPC   C1A38055  24.482  12.120   8.553
 7881POPC   D2A38056  24.481  12.098   8.253
 7881POPC   C3A38057  24.489  12.076   7.953
 7881POPC   C4A38058  24.501  12.079   7.653
 7881POPC   C1B38059  24.484  12.345   8.553
 7881POPC   C2B38060  24.495  12.305   8.253
 7881POPC   C3B38061  24.536  12.336   7.953
 7881POPC   C4B38062  24.525  12.375   7.653
 7882POPC   NC338063  27.578  15.197   9.453
 7882POPC   PO438064  27.590  15.134   9.153
 7882POPC   GL138065  27.593  15.202   8.853
 7882POPC   GL238066  27.578  15.107   8.853
 7882POPC   C1A38067  27.605  15.199   8.553
 7882POPC   D2A38068  27.605  15.160   8.253
 7882POPC   C3A38069  27.585  15.137   7.953
 7882POPC   C4A38070  27.549  15.156   7.653
 7882POPC   C1B38071  27.522  14.959   8.553
 7882POPC   C2B38072  27.543  14.955   8.253
 7882POPC   C3B38073  27.499  14.983   7.953
 7882POPC   C4B38074  27.561  14.911   7.653
 7883POPC   NC338075  33.802  33.050   9.453
 7883POPC   PO438076  33.776  33.065   9.153
 7883POPC   GL138077  33.797  33.002   8.853
 7883POPC   GL238078  33.702  33.096   8.853
 7883POPC   C1A38079  33.849  33.020   8.553
 7883POPC   D2A38080  33.815  33.022   8.253
 7883POPC   C3A38081  33.820  32.983   7.953
 7883POPC   C4A38082  33.833  33.028   7.653
 7883POPC   C1B38083  33.600  33.063   8.553
 7883POPC   C2B38084  33.598  33.118   8.253
 7883POPC   C3B38085  33.606  33.069   7.953
 7883POPC   C4B38086  33.534  33.086   7.653
 7884POPC   NC338087  37.717   4.307   9.453
 7884POPC   PO438088  37.633   4.313   9.153
 7884POPC   GL138089  37.710   4.282   8.853
 7884POPC   GL238090  37.751   4.447   8.853
 7884POPC   C1A38091  37.657   4.294   8.553
 7884POPC   D2A38092  37.687   4.284   8.253
 7884POPC   C3A38093  37.640   4.357   7.953
 7884POPC   C4A38094  37.664   4.308   7.653
 7884POPC   C1B38095  37.709   4.549   8.553
 7884POPC   C2B38096  37.765   4.560   8.253
 7884POPC   C3B38097  37.755   4.550   7.953
 7884POPC   C4B38098  37.767   4.534   7.653
 7885POPC   NC338099  10.572  33.795   9.453
 7885POPC   PO438100  10.476  33.826   9.153
 7885POPC   GL138101  10.540  33.786   8.853
 7885POPC   GL238102  10.380  33.780   8.853
 7885POPC   C1A38103  10.552  33.800   8.553
 7885POPC   D2A38104  10.515  33.809   8.253
 7885POPC   C3A38105  10.552  33.790   7.953
 7885POPC   C4A38106  10.496  33.753   7.653
 7885POPC   C1B38107  10.268  33.715   8.553
 7885POPC   C2B38108  10.323  33.720   8.253
 7885POPC   C3B38109  10.272  33.769   7.953
 7885POPC   C4B38110  10.295  33.773   7.653
 7886POPC   NC338111   3.537  14.380   9.453
 7886POPC   PO438112   3.499  14.355   9.153
 7886POPC   GL138113   3.553  14.423   8.853
 7886POPC   GL238114   3.476  14.356   8.853
 7886POPC   C1A38115   3.554  14.374   8.553
 7886POPC   D2A38116   3.516  14.394   8.253
 7886POPC   C3A38117   3.500  14.370   7.953
 7886POPC   C4A38118   3.567  14.387   7.653
 7886POPC   C1B38119   3.390  14.193   8.553
 7886POPC   C2B38120   3.396  14.259   8.253
 7886POPC   C3B38121   3.315  14.211   7.953
 7886POPC   C4B38122   3.406  14.198   7.653
 7887POPC   NC338123  32.294  17.506   9.453
 7887POPC   PO438124  32.279  17.518   9.153
 7887POPC   GL138125  32.271  17.464   8.853
 7887POPC   GL238126  32.347  17.372   8.853
 7887POPC   C1A38127  32.241  17.519   8.553
 7887POPC   D2A38128  32.254  17.540   8.253
 7887POPC   C3A38129  32.230  17.496   7.953
 7887POPC   C4A38130  32.244  17.479   7.653
 7887POPC   C1B38131  32.363  17.353   8.553
 7887POPC   C2B38132  32.391  17.294   8.253
 7887POPC   C3B38133  32.369  17.327   7.953
 7887POPC   C4B38134  32.399  17.335   7.653
 7888POPC   NC338135   3.492  32.211   9.453
 7888POPC   PO438136   3.506  32.203   9.153
 7888POPC   GL138137   3.507  32.208   8.853
 7888POPC   GL238138   3.552  32.093   8.853
 7888POPC   C1A38139   3.540  32.250   8.553
 7888POPC   D2A38140   3.527  32.260   8.253
 7888POPC   C3A38141   3.573  32.251   7.953
 7888POPC   C4A38142   3.586  32.238   7.653
 7888POPC   C1B38143   3.644  32.031   8.553
 7888POPC   C2B38144   3.594  32.040   8.253
 7888POPC   C3B38145   3.622  31.996   7.953
 7888POPC   C4B38146   3.658  32.052   7.653
 7889POPC   NC338147  14.418  22.170   9.453
 7889POPC   PO438148  14.356  22.189   9.153
 7889POPC   GL138149  14.445  22.114   8.853
 7889POPC   GL238150  14.376  22.035   8.853
 7889POPC   C1A38151  14.363  22.182   8.553
 7889POPC   D2A38152  14.385  22.184   8.253
 7889POPC   C3A38153  14.405  22.144   7.953
 7889POPC   C4A38154  14.402  22.139   7.653
 7889POPC   C1B38155  14.380  21.943   8.553
 7889POPC   C2B38156  14.393  21.905   8.253
 7889POPC   C3B38157  14.390  21.947   7.953
 7889POPC   C4B38158  14.456  21.915   7.653
 7890POPC   NC338159  18.298  40.803   9.453
 7890POPC   PO438160  18.272  40.748   9.153
 7890POPC   GL138161  18.234  40.816   8.853
 7890POPC   GL238162  18.152  40.814   8.853
 7890POPC   C1A38163  18.326  40.800   8.553
 7890POPC   D2A38164  18.257  40.738   8.253
 7890POPC   C3A38165  18.313  40.830   7.953
 7890POPC   C4A38166  18.240  40.775   7.653
 7890POPC   C1B38167  18.017  40.840   8.553
 7890POPC   C2B38168  18.006  40.821   8.253
 7890POPC   C3B38169  18.008  40.901   7.953
 7890POPC   C4B38170  18.017  40.881   7.653
 7891POPC   NC338171   5.086  16.686   9.453
 7891POPC   PO438172   5.136  16.757   9.153
 7891POPC   GL138173   5.056  16.769   8.853
 7891POPC   GL238174   5.167  16.641   8.853
 7891POPC   C1A38175   5.098  16.700   8.553
 7891POPC   D2A38176   5.135  16.768   8.253
 7891POPC   C3A38177   5.078  16.713   7.953
 7891POPC   C4A38178   5.117  16.739   7.653
 7891POPC   C1B38179   5.373  16.682   8.553
 7891POPC   C2B38180   5.365  16.615   8.253
 7891POPC   C3B38181   5.342  16.663   7.953
 7891POPC   C4B38182   5.300  16.666   7.653
 7892POPC   NC338183  43.083  19.060   9.453
 7892POPC   PO438184  43.073  19.082   9.153
 7892POPC   GL138185  43.120  19.053   8.853
 7892POPC   GL238186  43.204  19.174   8.853
 7892POPC   C1A38187  43.105  19.100   8.553
 7892POPC   D2A38188  43.072  19.036   8.253
 7892POPC   C3A38189  43.077  19.107   7.953
 7892POPC   C4A38190  43.111  19.102   7.653
 7892POPC   C1B38191  43.328  19.188   8.553
 7892POPC   C2B38192  43.361  19.203   8.253
 7892POPC   C3B38193  43.323  19.157   7.953
 7892POPC   C4B38194  43.319  19.174   7.653
 7893POPC   NC338195  38.447  35.359   9.453
 7893POPC   PO438196  38.493  35.365   9.153
 7893POPC   GL138197  38.412  35.321   8.853
 7893POPC   GL238198  38.431  35.269   8.853
 7893POPC   C1A38199  38.412  35.359   8.553
 7893POPC   D2A38200  38.447  35.304   8.253
 7893POPC   C3A38201  38.501  35.359   7.953
 7893POPC   C4A38202  38.407  35.399   7.653
 7893POPC   C1B38203  38.344  35.092   8.553
 7893POPC   C2B38204  38.288  35.155   8.253
 7893POPC   C3B38205  38.289  35.133   7.953
 7893POPC   C4B38206  38.346  35.106   7.653
 7894POPC   NC338207  11.257  21.344   9.453
 7894POPC   PO438208  11.299  21.385   9.153
 7894POPC   GL138209  11.262  21.347   8.853
 7894POPC   GL238210  11.336  21.482   8.853
 7894POPC   C1A38211  11.343  21.431   8.553
 7894POPC   D2A38212  11.304  21.386   8.253
 7894POPC   C3A38213  11.300  21.407   7.953
 7894POPC   C4A38214  11.299  21.406   7.653
 7894POPC   C1B38215  11.448  21.634   8.553
 7894POPC   C2B38216  11.392  21.610   8.253
 7894POPC   C3B38217  11.391  21.642   7.953
 7894POPC   C4B38218  11.409  21.560   7.653
 7895POPC   NC338219  31.483  27.633   9.453
 7895POPC   PO438220  31.488  27.555   9.153
 7895POPC   GL138221  31.476  27.630   8.853
 7895POPC   GL238222  31.565  27.670   8.853
 7895POPC   C1A38223  31.458  27.548   8.553
 7895POPC   D2A38224  31.440  27.611   8.253
 7895POPC   C3A38225  31.516  27.638   7.953
 7895POPC   C4A38226  31.514  27.594   7.653
 7895POPC   C1B38227  31.542  27.853   8.553
 7895POPC   C2B38228  31.536  27.866   8.253
 7895POPC   C3B38229  31.586  27.848   7.953
 7895POPC   C4B38230  31.529  27.829   7.653
 7896POPC   NC338231  42.360  27.599   9.453
 7896POPC   PO438232  42.290  27.622   9.153
 7896POPC   GL138233  42.367  27.623   8.853
 7896POPC   GL238234  42.299  27.698   8.853
 7896POPC   C1A38235  42.348  27.597   8.553
 7896POPC   D2A38236  42.304  27.583   8.253
 7896POPC   C3A38237  42.291  27.640   7.953
 7896POPC   C4A38238  42.318  27.615   7.653
 7896POPC   C1B38239  42.339  27.880   8.553
 7896POPC   C2B38240  42.374  27.880   8.253
 7896POPC   C3B38241  42.299  27.797   7.953
 7896POPC   C4B38242  42.368  27.882   7.653
 7897POPC   NC338243  41.543  40.033   9.453
 7897POPC   PO438244  41.513  39.958   9.153
 7897POPC   GL138245  41.550  40.001   8.853
 7897POPC   GL238246  41.468  40.060   8.853
 7897POPC   C1A38247  41.592  39.971   8.553
 7897POPC   D2A38248  41.522  39.970   8.253
 7897POPC   C3A38249  41.575  39.977   7.953
 7897POPC   C4A38250  41.531  40.038   7.653
 7897POPC   C1B38251  41.354  40.089   8.553
 7897POPC   C2B38252  41.296  40.086   8.253
 7897POPC   C3B38253  41.328  40.117   7.953
 7897POPC   C4B38254  41.309  40.064   7.653
 7898POPC   NC338255  34.582  22.933   9.453
 7898POPC   PO438256  34.599  22.890   9.153
 7898POPC   GL138257  34.550  22.918   8.853
 7898POPC   GL238258  34.486  23.004   8.853
 7898POPC   C1A38259  34.587  22.967   8.553
 7898POPC   D2A38260  34.624  22.979   8.253
 7898POPC   C3A38261  34.527  22.980   7.953
 7898POPC   C4A38262  34.595  22.980   7.653
 7898POPC   C1B38263  34.368  23.018   8.553
 7898POPC   C2B38264  34.365  23.027   8.253
 7898POPC   C3B38265  34.339  22.990   7.953
 7898POPC   C4B38266  34.316  23.006   7.653
 7899POPC   NC338267   5.087   6.661   9.453
 7899POPC   PO438268   5.122   6.629   9.153
 7899POPC   GL138269   5.140   6.660   8.853
 7899POPC   GL238270   5.048   6.554   8.853
 7899POPC   C1A38271   5.119   6.677   8.553
 7899POPC   D2A38272   5.071   6.672   8.253
 7899POPC   C3A38273   5.078   6.666   7.953
 7899POPC   C4A38274   5.117   6.629   7.653
 7899POPC   C1B38275   4.982   6.384   8.553
 7899POPC   C2B38276   4.956   6.422   8.253
 7899POPC   C3B38277   4.965   6.427   7.953
 7899POPC   C4B38278   4.980   6.429   7.653
 7900POPC   NC338279   8.979  19.027   9.453
 7900POPC   PO438280   8.978  19.102   9.153
 7900POPC   GL138281   8.933  19.054   8.853
 7900POPC   GL238282   8.829  18.999   8.853
 7900POPC   C1A38283   8.937  19.061   8.553
 7900POPC   D2A38284   8.937  19.106   8.253
 7900POPC   C3A38285   8.948  19.080   7.953
 7900POPC   C4A38286   9.015  19.091   7.653
 7900POPC   C1B38287   8.709  19.004   8.553
 7900POPC   C2B38288   8.710  18.952   8.253
 7900POPC   C3B38289   8.693  18.980   7.953
 7900POPC   C4B38290   8.739  18.989   7.653
 7901POPC   NC338291  20.561  14.370   9.453
 7901POPC   PO438292  20.656  14.401   9.153
 7901POPC   GL138293  20.597  14.436   8.853
 7901POPC   GL238294  20.620  14.556   8.853
 7901POPC   C1A38295  20.593  14.354   8.553
 7901POPC   D2A38296  20.623  14.390   8.253
 7901POPC   C3A38297  20.648  14.445   7.953
 7901POPC   C4A38298  20.570  14.444   7.653
 7901POPC   C1B38299  20.666  14.675   8.553
 7901POPC   C2B38300  20.679  14.660   8.253
 7901POPC   C3B38301  20.755  14.675   7.953
 7901POPC   C4B38302  20.699  14.610   7.653
 7902POPC   NC338303  19.074  24.458   9.453
 7902POPC   PO438304  19.026  24.468   9.153
 7902POPC   GL138305  19.062  24.445   8.853
 7902POPC   GL238306  19.148  24.546   8.853
 7902POPC   C1A38307  19.074  24.483   8.553
 7902POPC   D2A38308  19.029  24.500   8.253
 7902POPC   C3A38309  19.105  24.511   7.953
 7902POPC   C4A38310  19.100  24.479   7.653
 7902POPC   C1B38311  19.245  24.739   8.553
 7902POPC   C2B38312  19.190  24.696   8.253
 7902POPC   C3B38313  19.225  24.664   7.953
 7902POPC   C4B38314  19.231  24.726   7.653
 7903POPC   NC338315   3.553   7.426   9.453
 7903POPC   PO438316   3.493   7.456   9.153
 7903POPC   GL138317   3.581   7.468   8.853
 7903POPC   GL238318   3.428   7.493   8.853
 7903POPC   C1A38319   3.546   7.374   8.553
 7903POPC   D2A38320   3.520   7.414   8.253
 7903POPC   C3A38321   3.496   7.420   7.953
 7903POPC   C4A38322   3.525   7.468   7.653
 7903POPC   C1B38323   3.248   7.437   8.553
 7903POPC   C2B38324   3.307   7.438   8.253
 7903POPC   C3B38325   3.346   7.438   7.953
 7903POPC   C4B38326   3.323   7.444   7.653
 7904POPC   NC338327   5.888  41.514   9.453
 7904POPC   PO438328   5.864  41.574   9.153
 7904POPC   GL138329   5.847  41.526   8.853
 7904POPC   GL238330   5.850  41.659   8.853
 7904POPC   C1A38331   5.914  41.523   8.553
 7904POPC   D2A38332   5.868  41.514   8.253
 7904POPC   C3A38333   5.825  41.604   7.953
 7904POPC   C4A38334   5.899  41.607   7.653
 7904POPC   C1B38335   5.897  41.759   8.553
 7904POPC   C2B38336   5.917  41.808   8.253
 7904POPC   C3B38337   5.926  41.815   7.953
 7904POPC   C4B38338   5.976  41.842   7.653
 7905POPC   NC338339  41.548   2.004   9.453
 7905POPC   PO438340  41.595   1.995   9.153
 7905POPC   GL138341  41.597   1.995   8.853
 7905POPC   GL238342  41.446   2.098   8.853
 7905POPC   C1A38343  41.540   2.034   8.553
 7905POPC   D2A38344  41.510   2.014   8.253
 7905POPC   C3A38345  41.588   1.993   7.953
 7905POPC   C4A38346  41.557   1.991   7.653
 7905POPC   C1B38347  41.393   2.246   8.553
 7905POPC   C2B38348  41.396   2.165   8.253
 7905POPC   C3B38349  41.440   2.185   7.953
 7905POPC   C4B38350  41.415   2.246   7.653
 7906POPC   NC338351  36.150  39.248   9.453
 7906POPC   PO438352  36.142  39.258   9.153
 7906POPC   GL138353  36.160  39.212   8.853
 7906POPC   GL238354  36.231  39.369   8.853
 7906POPC   C1A38355  36.152  39.260   8.553
 7906POPC   D2A38356  36.122  39.196   8.253
 7906POPC   C3A38357  36.144  39.263   7.953
 7906POPC   C4A38358  36.098  39.218   7.653
 7906POPC   C1B38359  36.257  39.461   8.553
 7906POPC   C2B38360  36.252  39.436   8.253
 7906POPC   C3B38361  36.277  39.455   7.953
 7906POPC   C4B38362  36.255  39.408   7.653
 7907POPC   NC338363  36.088  19.880   9.453
 7907POPC   PO438364  36.151  19.880   9.153
 7907POPC   GL138365  36.104  19.870   8.853
 7907POPC   GL238366  36.245  19.907   8.853
 7907POPC   C1A38367  36.162  19.787   8.553
 7907POPC   D2A38368  36.091  19.792   8.253
 7907POPC   C3A38369  36.160  19.837   7.953
 7907POPC   C4A38370  36.121  19.842   7.653
 7907POPC   C1B38371  36.361  20.028   8.553
 7907POPC   C2B38372  36.276  19.963   8.253
 7907POPC   C3B38373  36.300  19.957   7.953
 7907POPC   C4B38374  36.360  20.005   7.653
 7908POPC   NC338375  34.546  32.261   9.453
 7908POPC   PO438376  34.551  32.295   9.153
 7908POPC   GL138377  34.574  32.275   8.853
 7908POPC   GL238378  34.638  32.171   8.853
 7908POPC   C1A38379  34.550  32.296   8.553
 7908POPC   D2A38380  34.595  32.226   8.253
 7908POPC   C3A38381  34.611  32.225   7.953
 7908POPC   C4A38382  34.583  32.249   7.653
 7908POPC   C1B38383  34.705  32.065   8.553
 7908POPC   C2B38384  34.642  32.016   8.253
 7908POPC   C3B38385  34.701  32.049   7.953
 7908POPC   C4B38386  34.719  32.044   7.653
 7909POPC   NC338387  16.758   8.234   9.453
 7909POPC   PO438388  16.758   8.240   9.153
 7909POPC   GL138389  16.780   8.156   8.853
 7909POPC   GL238390  16.739   8.295   8.853
 7909POPC   C1A38391  16.736   8.163   8.553
 7909POPC   D2A38392  16.721   8.203   8.253
 7909POPC   C3A38393  16.722   8.147   7.953
 7909POPC   C4A38394  16.761   8.164   7.653
 7909POPC   C1B38395  16.789   8.459   8.553
 7909POPC   C2B38396  16.735   8.481   8.253
 7909POPC   C3B38397  16.737   8.431   7.953
 7909POPC   C4B38398  16.782   8.423   7.653
 7910POPC   NC338399   5.086  14.358   9.453
 7910POPC   PO438400   5.110  14.391   9.153
 7910POPC   GL138401   5.102  14.399   8.853
 7910POPC   GL238402   5.026  14.497   8.853
 7910POPC   C1A38403   5.125  14.448   8.553
 7910POPC   D2A38404   5.129  14.432   8.253
 7910POPC   C3A38405   5.076  14.412   7.953
 7910POPC   C4A38406   5.060  14.363   7.653
 7910POPC   C1B38407   5.025  14.625   8.553
 7910POPC   C2B38408   5.026  14.658   8.253
 7910POPC   C3B38409   5.041  14.673   7.953
 7910POPC   C4B38410   5.077  14.610   7.653
 7911POPC   NC338411  15.139  26.825   9.453
 7911POPC   PO438412  15.162  26.867   9.153
 7911POPC   GL138413  15.152  26.849   8.853
 7911POPC   GL238414  15.185  26.897   8.853
 7911POPC   C1A38415  15.130  26.848   8.553
 7911POPC   D2A38416  15.161  26.776   8.253
 7911POPC   C3A38417  15.160  26.800   7.953
 7911POPC   C4A38418  15.166  26.810   7.653
 7911POPC   C1B38419  15.293  27.007   8.553
 7911POPC   C2B38420  15.241  27.030   8.253
 7911POPC   C3B38421  15.229  27.022   7.953
 7911POPC   C4B38422  15.284  27.019   7.653
 7912POPC   NC338423   9.019  22.954   9.453
 7912POPC   PO438424   8.946  22.937   9.153
 7912POPC   GL138425   8.940  22.890   8.853
 7912POPC   GL238426   9.026  23.043   8.853
 7912POPC   C1A38427   8.976  22.949   8.553
 7912POPC   D2A38428   8.928  22.916   8.253
 7912POPC   C3A38429   8.934  22.960   7.953
 7912POPC   C4A38430   9.014  22.960   7.653
 7912POPC   C1B38431   9.112  23.146   8.553
 7912POPC   C2B38432   9.150  23.085   8.253
 7912POPC   C3B38433   9.102  23.090   7.953
 7912POPC   C4B38434   9.158  23.151   7.653
 7913POPC   NC338435  22.126  42.308   9.453
 7913POPC   PO438436  22.183  42.355   9.153
 7913POPC   GL138437  22.192  42.380   8.853
 7913POPC   GL238438  22.063  42.313   8.853
 7913POPC   C1A38439  22.154  42.338   8.553
 7913POPC   D2A38440  22.165  42.334   8.253
 7913POPC   C3A38441  22.148  42.302   7.953
 7913POPC   C4A38442  22.130  42.286   7.653
 7913POPC   C1B38443  21.879  42.342   8.553
 7913POPC   C2B38444  21.943  42.414   8.253
 7913POPC   C3B38445  21.884  42.402   7.953
 7913POPC   C4B38446  21.950  42.400   7.653
 7914POPC   NC338447   4.298  26.085   9.453
 7914POPC   PO438448   4.300  26.019   9.153
 7914POPC   GL138449   4.364  26.064   8.853
 7914POPC   GL238450   4.257  26.143   8.853
 7914POPC   C1A38451   4.364  26.039   8.553
 7914POPC   D2A38452   4.322  26.082   8.253
 7914POPC   C3A38453   4.282  26.007   7.953
 7914POPC   C4A38454   4.338  26.053   7.653
 7914POPC   C1B38455   4.100  26.145   8.553
 7914POPC   C2B38456   4.090  26.238   8.253
 7914POPC   C3B38457   4.132  26.154   7.953
 7914POPC   C4B38458   4.095  26.145   7.653
 7915POPC   NC338459  29.898  12.848   9.453
 7915POPC   PO438460  29.947  12.879   9.153
 7915POPC   GL138461  29.939  12.881   8.853
 7915POPC   GL238462  30.008  12.952   8.853
 7915POPC   C1A38463  29.915  12.879   8.553
 7915POPC   D2A38464  29.954  12.840   8.253
 7915POPC   C3A38465  29.902  12.812   7.953
 7915POPC   C4A38466  29.919  12.834   7.653
 7915POPC   C1B38467  30.115  12.963   8.553
 7915POPC   C2B38468  30.113  12.942   8.253
 7915POPC   C3B38469  30.098  12.939   7.953
 7915POPC   C4B38470  30.109  12.997   7.653
 7916POPC   NC338471  31.521  19.814   9.453
 7916POPC   PO438472  31.435  19.827   9.153
 7916POPC   GL138473  31.512  19.835   8.853
 7916POPC   GL238474  31.583  19.688   8.853
 7916POPC   C1A38475  31.456  19.883   8.553
 7916POPC   D2A38476  31.435  19.875   8.253
 7916POPC   C3A38477  31.497  19.789   7.953
 7916POPC   C4A38478  31.498  19.841   7.653
 7916POPC   C1B38479  31.578  19.590   8.553
 7916POPC   C2B38480  31.626  19.656   8.253
 7916POPC   C3B38481  31.603  19.632   7.953
 7916POPC   C4B38482  31.615  19.663   7.653
 7917POPC   NC338483   1.182  25.247   9.453
 7917POPC   PO438484   1.215  25.289   9.153
 7917POPC   GL138485   1.243  25.300   8.853
 7917POPC   GL238486   1.253  25.144   8.853
 7917POPC   C1A38487   1.191  25.277   8.553
 7917POPC   D2A38488   1.260  25.275   8.253
 7917POPC   C3A38489   1.205  25.233   7.953
 7917POPC   C4A38490   1.164  25.273   7.653
 7917POPC   C1B38491   1.258  25.032   8.553
 7917POPC   C2B38492   1.285  25.029   8.253
 7917POPC   C3B38493   1.321  25.007   7.953
 7917POPC   C4B38494   1.342  25.012   7.653
 7918POPC   NC338495  21.369  32.235   9.453
 7918POPC   PO438496  21.379  32.274   9.153
 7918POPC   GL138497  21.351  32.261   8.853
 7918POPC   GL238498  21.282  32.156   8.853
 7918POPC   C1A38499  21.408  32.251   8.553
 7918POPC   D2A38500  21.407  32.233   8.253
 7918POPC   C3A38501  21.363  32.296   7.953
 7918POPC   C4A38502  21.358  32.294   7.653
 7918POPC   C1B38503  21.125  32.155   8.553
 7918POPC   C2B38504  21.112  32.171   8.253
 7918POPC   C3B38505  21.203  32.173   7.953
 7918POPC   C4B38506  21.169  32.137   7.653
 7919POPC   NC338507  19.874   1.215   9.453
 7919POPC   PO438508  19.798   1.185   9.153
 7919POPC   GL138509  19.828   1.177   8.853
 7919POPC   GL238510  19.923   1.330   8.853
 7919POPC   C1A38511  19.844   1.255   8.553
 7919POPC   D2A38512  19.789   1.232   8.253
 7919POPC   C3A38513  19.803   1.187   7.953
 7919POPC   C4A38514  19.856   1.236   7.653
 7919POPC   C1B38515  20.074   1.372   8.553
 7919POPC   C2B38516  20.018   1.341   8.253
 7919POPC   C3B38517  19.997   1.405   7.953
 7919POPC   C4B38518  20.032   1.365   7.653
 7920POPC   NC338519  22.939  37.729   9.453
 7920POPC   PO438520  22.979  37.692   9.153
 7920POPC   GL138521  22.900  37.646   8.853
 7920POPC   GL238522  23.009  37.562   8.853
 7920POPC   C1A38523  22.911  37.653   8.553
 7920POPC   D2A38524  22.890  37.674   8.253
 7920POPC   C3A38525  22.980  37.638   7.953
 7920POPC   C4A38526  22.967  37.693   7.653
 7920POPC   C1B38527  23.012  37.452   8.553
 7920POPC   C2B38528  22.970  37.405   8.253
 7920POPC   C3B38529  22.962  37.428   7.953
 7920POPC   C4B38530  22.964  37.476   7.653
 7921POPC   NC338531  30.652  14.436   9.453
 7921POPC   PO438532  30.678  14.399   9.153
 7921POPC   GL138533  30.677  14.380   8.853
 7921POPC   GL238534  30.604  14.368   8.853
 7921POPC   C1A38535  30.712  14.412   8.553
 7921POPC   D2A38536  30.655  14.397   8.253
 7921POPC   C3A38537  30.744  14.381   7.953
 7921POPC   C4A38538  30.653  14.394   7.653
 7921POPC   C1B38539  30.480  14.306   8.553
 7921POPC   C2B38540  30.521  14.273   8.253
 7921POPC   C3B38541  30.480  14.261   7.953
 7921POPC   C4B38542  30.537  14.252   7.653
 7922POPC   NC338543  29.102  27.632   9.453
 7922POPC   PO438544  29.191  27.556   9.153
 7922POPC   GL138545  29.152  27.558   8.853
 7922POPC   GL238546  29.225  27.539   8.853
 7922POPC   C1A38547  29.101  27.630   8.553
 7922POPC   D2A38548  29.166  27.639   8.253
 7922POPC   C3A38549  29.100  27.614   7.953
 7922POPC   C4A38550  29.195  27.641   7.653
 7922POPC   C1B38551  29.388  27.532   8.553
 7922POPC   C2B38552  29.414  27.490   8.253
 7922POPC   C3B38553  29.389  27.542   7.953
 7922POPC   C4B38554  29.374  27.515   7.653
 7923POPC   NC338555  24.490  19.027   9.453
 7923POPC   PO438556  24.476  19.039   9.153
 7923POPC   GL138557  24.489  19.106   8.853
 7923POPC   GL238558  24.346  19.067   8.853
 7923POPC   C1A38559  24.531  19.054   8.553
 7923POPC   D2A38560  24.486  19.090   8.253
 7923POPC   C3A38561  24.506  19.105   7.953
 7923POPC   C4A38562  24.511  19.073   7.653
 7923POPC   C1B38563  24.256  19.039   8.553
 7923POPC   C2B38564  24.239  19.045   8.253
 7923POPC   C3B38565  24.196  19.114   7.953
 7923POPC   C4B38566  24.268  19.067   7.653
 7924POPC   NC338567  14.432  24.465   9.453
 7924POPC   PO438568  14.383  24.456   9.153
 7924POPC   GL138569  14.448  24.452   8.853
 7924POPC   GL238570  14.489  24.431   8.853
 7924POPC   C1A38571  14.368  24.453   8.553
 7924POPC   D2A38572  14.386  24.464   8.253
 7924POPC   C3A38573  14.440  24.514   7.953
 7924POPC   C4A38574  14.412  24.518   7.653
 7924POPC   C1B38575  14.682  24.415   8.553
 7924POPC   C2B38576  14.637  24.374   8.253
 7924POPC   C3B38577  14.598  24.350   7.953
 7924POPC   C4B38578  14.604  24.431   7.653
 7925POPC   NC338579   3.525  23.737   9.453
 7925POPC   PO438580   3.510  23.729   9.153
 7925POPC   GL138581   3.499  23.694   8.853
 7925POPC   GL238582   3.657  23.778   8.853
 7925POPC   C1A38583   3.538  23.750   8.553
 7925POPC   D2A38584   3.555  23.745   8.253
 7925POPC   C3A38585   3.511  23.702   7.953
 7925POPC   C4A38586   3.588  23.710   7.653
 7925POPC   C1B38587   3.724  23.890   8.553
 7925POPC   C2B38588   3.780  23.904   8.253
 7925POPC   C3B38589   3.765  23.875   7.953
 7925POPC   C4B38590   3.685  23.856   7.653
 7926POPC   NC338591   4.362  37.707   9.453
 7926POPC   PO438592   4.307  37.639   9.153
 7926POPC   GL138593   4.339  37.722   8.853
 7926POPC   GL238594   4.292  37.547   8.853
 7926POPC   C1A38595   4.364  37.643   8.553
 7926POPC   D2A38596   4.276  37.688   8.253
 7926POPC   C3A38597   4.276  37.641   7.953
 7926POPC   C4A38598   4.340  37.651   7.653
 7926POPC   C1B38599   4.162  37.507   8.553
 7926POPC   C2B38600   4.166  37.508   8.253
 7926POPC   C3B38601   4.213  37.431   7.953
 7926POPC   C4B38602   4.161  37.446   7.653
 7927POPC   NC338603  38.481   2.764   9.453
 7927POPC   PO438604  38.489   2.773   9.153
 7927POPC   GL138605  38.425   2.768   8.853
 7927POPC   GL238606  38.427   2.691   8.853
 7927POPC   C1A38607  38.426   2.757   8.553
 7927POPC   D2A38608  38.416   2.781   8.253
 7927POPC   C3A38609  38.464   2.777   7.953
 7927POPC   C4A38610  38.434   2.728   7.653
 7927POPC   C1B38611  38.425   2.537   8.553
 7927POPC   C2B38612  38.381   2.534   8.253
 7927POPC   C3B38613  38.365   2.480   7.953
 7927POPC   C4B38614  38.419   2.476   7.653
 7928POPC   NC338615   9.715  33.022   9.453
 7928POPC   PO438616   9.774  33.069   9.153
 7928POPC   GL138617   9.703  33.041   8.853
 7928POPC   GL238618   9.897  32.989   8.853
 7928POPC   C1A38619   9.712  33.001   8.553
 7928POPC   D2A38620   9.748  32.995   8.253
 7928POPC   C3A38621   9.740  33.003   7.953
 7928POPC   C4A38622   9.765  32.995   7.653
 7928POPC   C1B38623   9.976  32.856   8.553
 7928POPC   C2B38624   9.925  32.858   8.253
 7928POPC   C3B38625   9.920  32.866   7.953
 7928POPC   C4B38626   9.937  32.913   7.653
 7929POPC   NC338627  23.736  33.813   9.453
 7929POPC   PO438628  23.763  33.777   9.153
 7929POPC   GL138629  23.738  33.815   8.853
 7929POPC   GL238630  23.654  33.671   8.853
 7929POPC   C1A38631  23.746  33.829   8.553
 7929POPC   D2A38632  23.695  33.791   8.253
 7929POPC   C3A38633  23.716  33.795   7.953
 7929POPC   C4A38634  23.736  33.822   7.653
 7929POPC   C1B38635  23.650  33.536   8.553
 7929POPC   C2B38636  23.643  33.560   8.253
 7929POPC   C3B38637  23.612  33.547   7.953
 7929POPC   C4B38638  23.645  33.541   7.653
 7930POPC   NC338639  43.904  32.233   9.453
 7930POPC   PO438640  43.849  32.225   9.153
 7930POPC   GL138641  43.849  32.255   8.853
 7930POPC   GL238642  43.757  32.311   8.853
 7930POPC   C1A38643  43.926  32.282   8.553
 7930POPC   D2A38644  43.906  32.270   8.253
 7930POPC   C3A38645  43.891  32.241   7.953
 7930POPC   C4A38646  43.851  32.268   7.653
 7930POPC   C1B38647  43.647  32.255   8.553
 7930POPC   C2B38648  43.667  32.307   8.253
 7930POPC   C3B38649  43.607  32.317   7.953
 7930POPC   C4B38650  43.602  32.306   7.653
 7931POPC   NC338651   2.782  28.413   9.453
 7931POPC   PO438652   2.789  28.384   9.153
 7931POPC   GL138653   2.766  28.417   8.853
 7931POPC   GL238654   2.601  28.450   8.853
 7931POPC   C1A38655   2.786  28.387   8.553
 7931POPC   D2A38656   2.815  28.347   8.253
 7931POPC   C3A38657   2.759  28.380   7.953
 7931POPC   C4A38658   2.781  28.398   7.653
 7931POPC   C1B38659   2.535  28.484   8.553
 7931POPC   C2B38660   2.550  28.474   8.253
 7931POPC   C3B38661   2.491  28.462   7.953
 7931POPC   C4B38662   2.504  28.406   7.653
 7932POPC   NC338663  13.631   7.428   9.453
 7932POPC   PO438664  13.648   7.404   9.153
 7932POPC   GL138665  13.610   7.452   8.853
 7932POPC   GL238666  13.630   7.311   8.853
 7932POPC   C1A38667  13.664   7.455   8.553
 7932POPC   D2A38668  13.629   7.415   8.253
 7932POPC   C3A38669  13.638   7.373   7.953
 7932POPC   C4A38670  13.646   7.462   7.653
 7932POPC   C1B38671  13.641   7.142   8.553
 7932POPC   C2B38672  13.641   7.203   8.253
 7932POPC   C3B38673  13.652   7.175   7.953
 7932POPC   C4B38674  13.609   7.185   7.653
 7933POPC   NC338675  10.476  13.663   9.453
 7933POPC   PO438676  10.572  13.626   9.153
 7933POPC   GL138677  10.562  13.620   8.853
 7933POPC   GL238678  10.631  13.562   8.853
 7933POPC   C1A38679  10.554  13.640   8.553
 7933POPC   D2A38680  10.482  13.610   8.253
 7933POPC   C3A38681  10.572  13.609   7.953
 7933POPC   C4A38682  10.549  13.586   7.653
 7933POPC   C1B38683  10.651  13.468   8.553
 7933POPC   C2B38684  10.732  13.451   8.253
 7933POPC   C3B38685  10.718  13.456   7.953
 7933POPC   C4B38686  10.673  13.482   7.653
 7934POPC   NC338687   8.198  39.270   9.453
 7934POPC   PO438688   8.185  39.280   9.153
 7934POPC   GL138689   8.173  39.209   8.853
 7934POPC   GL238690   8.197  39.121   8.853
 7934POPC   C1A38691   8.211  39.221   8.553
 7934POPC   D2A38692   8.245  39.223   8.253
 7934POPC   C3A38693   8.153  39.211   7.953
 7934POPC   C4A38694   8.170  39.236   7.653
 7934POPC   C1B38695   8.254  38.977   8.553
 7934POPC   C2B38696   8.294  38.996   8.253
 7934POPC   C3B38697   8.250  39.027   7.953
 7934POPC   C4B38698   8.228  38.982   7.653
 7935POPC   NC338699   8.160  16.001   9.453
 7935POPC   PO438700   8.219  15.911   9.153
 7935POPC   GL138701   8.173  15.981   8.853
 7935POPC   GL238702   8.272  16.029   8.853
 7935POPC   C1A38703   8.179  15.910   8.553
 7935POPC   D2A38704   8.159  15.992   8.253
 7935POPC   C3A38705   8.194  15.930   7.953
 7935POPC   C4A38706   8.196  15.957   7.653
 7935POPC   C1B38707   8.323  16.176   8.553
 7935POPC   C2B38708   8.319  16.191   8.253
 7935POPC   C3B38709   8.257  16.191   7.953
 7935POPC   C4B38710   8.332  16.212   7.653
 7936POPC   NC338711   5.895   8.943   9.453
 7936POPC   PO438712   5.870   8.983   9.153
 7936POPC   GL138713   5.869   8.945   8.853
 7936POPC   GL238714   5.985   8.970   8.853
 7936POPC   C1A38715   5.830   8.994   8.553
 7936POPC   D2A38716   5.883   8.975   8.253
 7936POPC   C3A38717   5.870   9.007   7.953
 7936POPC   C4A38718   5.841   9.003   7.653
 7936POPC   C1B38719   6.152   8.974   8.553
 7936POPC   C2B38720   6.111   8.879   8.253
 7936POPC   C3B38721   6.159   8.973   7.953
 7936POPC   C4B38722   6.067   8.962   7.653
 7937POPC   NC338723  37.654  15.228   9.453
 7937POPC   PO438724  37.653  15.223   9.153
 7937POPC   GL138725  37.713  15.210   8.853
 7937POPC   GL238726  37.810  15.091   8.853
 7937POPC   C1A38727  37.646  15.144   8.553
 7937POPC   D2A38728  37.716  15.212   8.253
 7937POPC   C3A38729  37.720  15.137   7.953
 7937POPC   C4A38730  37.632  15.209   7.653
 7937POPC   C1B38731  37.862  15.026   8.553
 7937POPC   C2B38732  37.874  15.019   8.253
 7937POPC   C3B38733  37.853  14.995   7.953
 7937POPC   C4B38734  37.871  15.067   7.653
 7938POPC   NC338735  10.535  26.062   9.453
 7938POPC   PO438736  10.522  26.087   9.153
 7938POPC   GL138737  10.569  26.077   8.853
 7938POPC   GL238738  10.595  26.007   8.853
 7938POPC   C1A38739  10.548  26.038   8.553
 7938POPC   D2A38740  10.527  26.037   8.253
 7938POPC   C3A38741  10.546  26.061   7.953
 7938POPC   C4A38742  10.513  26.070   7.653
 7938POPC   C1B38743  10.745  25.902   8.553
 7938POPC   C2B38744  10.746  25.893   8.253
 7938POPC   C3B38745  10.700  25.878   7.953
 7938POPC   C4B38746  10.754  25.945   7.653
 7939POPC   NC338747  41.580  26.023   9.453
 7939POPC   PO438748  41.605  26.078   9.153
 7939POPC   GL138749  41.518  26.005   8.853
 7939POPC   GL238750  41.674  25.961   8.853
 7939POPC   C1A38751  41.552  26.005   8.553
 7939POPC   D2A38752  41.561  26.023   8.253
 7939POPC   C3A38753  41.528  26.072   7.953
 7939POPC   C4A38754  41.511  26.067   7.653
 7939POPC   C1B38755  41.702  25.838   8.553
 7939POPC   C2B38756  41.775  25.895   8.253
 7939POPC   C3B38757  41.722  25.900   7.953
 7939POPC   C4B38758  41.754  25.818   7.653
 7940POPC   NC338759  28.411  17.514   9.453
 7940POPC   PO438760  28.333  17.547   9.153
 7940POPC   GL138761  28.340  17.510   8.853
 7940POPC   GL238762  28.487  17.398   8.853
 7940POPC   C1A38763  28.349  17.548   8.553
 7940POPC   D2A38764  28.378  17.490   8.253
 7940POPC   C3A38765  28.413  17.530   7.953
 7940POPC   C4A38766  28.411  17.531   7.653
 7940POPC   C1B38767  28.571  17.291   8.553
 7940POPC   C2B38768  28.578  17.342   8.253
 7940POPC   C3B38769  28.508  17.332   7.953
 7940POPC   C4B38770  28.525  17.381   7.653
 7941POPC   NC338771  17.468  44.660   9.453
 7941POPC   PO438772  17.483  44.686   9.153
 7941POPC   GL138773  17.493  44.616   8.853
 7941POPC   GL238774  17.442  44.765   8.853
 7941POPC   C1A38775  17.486  44.635   8.553
 7941POPC   D2A38776  17.472  44.680   8.253
 7941POPC   C3A38777  17.542  44.692   7.953
 7941POPC   C4A38778  17.528  44.661   7.653
 7941POPC   C1B38779  17.386  44.814   8.553
 7941POPC   C2B38780  17.347  44.820   8.253
 7941POPC   C3B38781  17.370  44.857   7.953
 7941POPC   C4B38782  17.389  44.886   7.653
 7942POPC   NC338783  32.995  20.655   9.453
 7942POPC   PO438784  32.988  20.601   9.153
 7942POPC   GL138785  33.066  20.605   8.853
 7942POPC   GL238786  33.050  20.452   8.853
 7942POPC   C1A38787  33.042  20.606   8.553
 7942POPC   D2A38788  33.014  20.587   8.253
 7942POPC   C3A38789  33.041  20.611   7.953
 7942POPC   C4A38790  32.995  20.573   7.653
 7942POPC   C1B38791  33.077  20.401   8.553
 7942POPC   C2B38792  33.015  20.342   8.253
 7942POPC   C3B38793  33.058  20.314   7.953
 7942POPC   C4B38794  33.033  20.328   7.653
 7943POPC   NC338795   7.440   5.101   9.453
 7943POPC   PO438796   7.453   5.075   9.153
 7943POPC   GL138797   7.401   5.117   8.853
 7943POPC   GL238798   7.248   5.071   8.853
 7943POPC   C1A38799   7.408   5.101   8.553
 7943POPC   D2A38800   7.405   5.127   8.253
 7943POPC   C3A38801   7.457   5.111   7.953
 7943POPC   C4A38802   7.453   5.074   7.653
 7943POPC   C1B38803   7.179   5.100   8.553
 7943POPC   C2B38804   7.150   5.112   8.253
 7943POPC   C3B38805   7.182   5.160   7.953
 7943POPC   C4B38806   7.148   5.087   7.653
 7944POPC   NC338807  35.358  23.741   9.453
 7944POPC   PO438808  35.334  23.736   9.153
 7944POPC   GL138809  35.305  23.731   8.853
 7944POPC   GL238810  35.352  23.862   8.853
 7944POPC   C1A38811  35.388  23.758   8.553
 7944POPC   D2A38812  35.359  23.697   8.253
 7944POPC   C3A38813  35.304  23.724   7.953
 7944POPC   C4A38814  35.352  23.723   7.653
 7944POPC   C1B38815  35.361  23.965   8.553
 7944POPC   C2B38816  35.419  23.957   8.253
 7944POPC   C3B38817  35.421  23.939   7.953
 7944POPC   C4B38818  35.414  23.944   7.653
 7945POPC   NC338819  39.259  36.130   9.453
 7945POPC   PO438820  39.252  36.167   9.153
 7945POPC   GL138821  39.224  36.139   8.853
 7945POPC   GL238822  39.103  36.205   8.853
 7945POPC   C1A38823  39.228  36.143   8.553
 7945POPC   D2A38824  39.235  36.109   8.253
 7945POPC   C3A38825  39.183  36.087   7.953
 7945POPC   C4A38826  39.186  36.161   7.653
 7945POPC   C1B38827  38.977  36.234   8.553
 7945POPC   C2B38828  39.002  36.251   8.253
 7945POPC   C3B38829  39.025  36.222   7.953
 7945POPC   C4B38830  39.025  36.227   7.653
 7946POPC   NC338831  26.840  16.001   9.453
 7946POPC   PO438832  26.788  15.915   9.153
 7946POPC   GL138833  26.797  16.003   8.853
 7946POPC   GL238834  26.922  15.888   8.853
 7946POPC   C1A38835  26.818  15.992   8.553
 7946POPC   D2A38836  26.805  15.934   8.253
 7946POPC   C3A38837  26.861  15.974   7.953
 7946POPC   C4A38838  26.817  15.956   7.653
 7946POPC   C1B38839  26.970  15.726   8.553
 7946POPC   C2B38840  26.955  15.814   8.253
 7946POPC   C3B38841  26.949  15.775   7.953
 7946POPC   C4B38842  26.969  15.764   7.653
 7947POPC   NC338843  10.509  19.107   9.453
 7947POPC   PO438844  10.540  19.075   9.153
 7947POPC   GL138845  10.493  19.028   8.853
 7947POPC   GL238846  10.564  19.148   8.853
 7947POPC   C1A38847  10.480  19.103   8.553
 7947POPC   D2A38848  10.542  19.073   8.253
 7947POPC   C3A38849  10.494  19.089   7.953
 7947POPC   C4A38850  10.502  19.017   7.653
 7947POPC   C1B38851  10.549  19.337   8.553
 7947POPC   C2B38852  10.616  19.263   8.253
 7947POPC   C3B38853  10.602  19.251   7.953
 7947POPC   C4B38854  10.567  19.299   7.653
 7948POPC   NC338855   4.335  44.614   9.453
 7948POPC   PO438856   4.356  44.656   9.153
 7948POPC   GL138857   4.274  44.636   8.853
 7948POPC   GL238858   4.226  44.674   8.853
 7948POPC   C1A38859   4.338  44.710   8.553
 7948POPC   D2A38860   4.299  44.646   8.253
 7948POPC   C3A38861   4.285  44.652   7.953
 7948POPC   C4A38862   4.316  44.689   7.653
 7948POPC   C1B38863   4.033  44.625   8.553
 7948POPC   C2B38864   4.051  44.646   8.253
 7948POPC   C3B38865   4.068  44.590   7.953
 7948POPC   C4B38866   4.078  44.577   7.653
 7949POPC   NC338867  40.746  23.738   9.453
 7949POPC   PO438868  40.763  23.732   9.153
 7949POPC   GL138869  40.824  23.701   8.853
 7949POPC   GL238870  40.655  23.770   8.853
 7949POPC   C1A38871  40.772  23.743   8.553
 7949POPC   D2A38872  40.780  23.680   8.253
 7949POPC   C3A38873  40.743  23.750   7.953
 7949POPC   C4A38874  40.742  23.681   7.653
 7949POPC   C1B38875  40.488  23.715   8.553
 7949POPC   C2B38876  40.515  23.794   8.253
 7949POPC   C3B38877  40.573  23.770   7.953
 7949POPC   C4B38878  40.503  23.792   7.653
 7950POPC   NC338879  24.499  16.738   9.453
 7950POPC   PO438880  24.526  16.750   9.153
 7950POPC   GL138881  24.517  16.683   8.853
 7950POPC   GL238882  24.459  16.575   8.853
 7950POPC   C1A38883  24.505  16.739   8.553
 7950POPC   D2A38884  24.501  16.736   8.253
 7950POPC   C3A38885  24.447  16.733   7.953
 7950POPC   C4A38886  24.485  16.755   7.653
 7950POPC   C1B38887  24.413  16.533   8.553
 7950POPC   C2B38888  24.420  16.488   8.253
 7950POPC   C3B38889  24.413  16.463   7.953
 7950POPC   C4B38890  24.424  16.531   7.653
 7951POPC   NC338891   9.000   1.165   9.453
 7951POPC   PO438892   8.999   1.195   9.153
 7951POPC   GL138893   8.933   1.191   8.853
 7951POPC   GL238894   9.074   1.290   8.853
 7951POPC   C1A38895   8.961   1.256   8.553
 7951POPC   D2A38896   8.968   1.229   8.253
 7951POPC   C3A38897   9.012   1.164   7.953
 7951POPC   C4A38898   8.931   1.165   7.653
 7951POPC   C1B38899   9.170   1.361   8.553
 7951POPC   C2B38900   9.120   1.375   8.253
 7951POPC   C3B38901   9.160   1.376   7.953
 7951POPC   C4B38902   9.153   1.407   7.653
 7952POPC   NC338903  38.440  12.815   9.453
 7952POPC   PO438904  38.441  12.882   9.153
 7952POPC   GL138905  38.408  12.831   8.853
 7952POPC   GL238906  38.348  12.768   8.853
 7952POPC   C1A38907  38.484  12.877   8.553
 7952POPC   D2A38908  38.503  12.807   8.253
 7952POPC   C3A38909  38.471  12.844   7.953
 7952POPC   C4A38910  38.420  12.857   7.653
 7952POPC   C1B38911  38.277  12.681   8.553
 7952POPC   C2B38912  38.259  12.641   8.253
 7952POPC   C3B38913  38.278  12.694   7.953
 7952POPC   C4B38914  38.291  12.717   7.653
 7953POPC   NC338915   5.917  18.248   9.453
 7953POPC   PO438916   5.913  18.251   9.153
 7953POPC   GL138917   5.820  18.260   8.853
 7953POPC   GL238918   5.844  18.208   8.853
 7953POPC   C1A38919   5.853  18.276   8.553
 7953POPC   D2A38920   5.842  18.261   8.253
 7953POPC   C3A38921   5.849  18.267   7.953
 7953POPC   C4A38922   5.913  18.315   7.653
 7953POPC   C1B38923   5.793  18.054   8.553
 7953POPC   C2B38924   5.760  18.050   8.253
 7953POPC   C3B38925   5.833  18.004   7.953
 7953POPC   C4B38926   5.821  18.064   7.653
 7954POPC   NC338927  36.877  19.848   9.453
 7954POPC   PO438928  36.940  19.862   9.153
 7954POPC   GL138929  36.905  19.798   8.853
 7954POPC   GL238930  37.028  19.778   8.853
 7954POPC   C1A38931  36.860  19.881   8.553
 7954POPC   D2A38932  36.854  19.803   8.253
 7954POPC   C3A38933  36.904  19.859   7.953
 7954POPC   C4A38934  36.940  19.806   7.653
 7954POPC   C1B38935  37.163  19.702   8.553
 7954POPC   C2B38936  37.102  19.676   8.253
 7954POPC   C3B38937  37.148  19.717   7.953
 7954POPC   C4B38938  37.092  19.676   7.653
 7955POPC   NC338939  19.851  42.311   9.453
 7955POPC   PO438940  19.823  42.379   9.153
 7955POPC   GL138941  19.883  42.328   8.853
 7955POPC   GL238942  19.705  42.401   8.853
 7955POPC   C1A38943  19.815  42.348   8.553
 7955POPC   D2A38944  19.854  42.304   8.253
 7955POPC   C3A38945  19.806  42.320   7.953
 7955POPC   C4A38946  19.801  42.308   7.653
 7955POPC   C1B38947  19.586  42.369   8.553
 7955POPC   C2B38948  19.624  42.378   8.253
 7955POPC   C3B38949  19.564  42.419   7.953
 7955POPC   C4B38950  19.562  42.405   7.653
 7956POPC   NC338951  39.982  40.734   9.453
 7956POPC   PO438952  39.959  40.771   9.153
 7956POPC   GL138953  39.990  40.803   8.853
 7956POPC   GL238954  39.971  40.879   8.853
 7956POPC   C1A38955  39.982  40.816   8.553
 7956POPC   D2A38956  40.043  40.767   8.253
 7956POPC   C3A38957  39.993  40.827   7.953
 7956POPC   C4A38958  39.989  40.794   7.653
 7956POPC   C1B38959  39.919  41.052   8.553
 7956POPC   C2B38960  39.885  40.987   8.253
 7956POPC   C3B38961  39.856  40.972   7.953
 7956POPC   C4B38962  39.853  40.962   7.653
 7957POPC   NC338963   2.014  15.227   9.453
 7957POPC   PO438964   1.988  15.213   9.153
 7957POPC   GL138965   2.017  15.136   8.853
 7957POPC   GL238966   1.828  15.199   8.853
 7957POPC   C1A38967   2.015  15.202   8.553
 7957POPC   D2A38968   2.008  15.228   8.253
 7957POPC   C3A38969   2.021  15.174   7.953
 7957POPC   C4A38970   1.955  15.228   7.653
 7957POPC   C1B38971   1.769  15.148   8.553
 7957POPC   C2B38972   1.775  15.167   8.253
 7957POPC   C3B38973   1.732  15.141   7.953
 7957POPC   C4B38974   1.705  15.163   7.653
 7958POPC   NC338975  10.562   9.768   9.453
 7958POPC   PO438976  10.548   9.727   9.153
 7958POPC   GL138977  10.535   9.756   8.853
 7958POPC   GL238978  10.401   9.745   8.853
 7958POPC   C1A38979  10.550   9.790   8.553
 7958POPC   D2A38980  10.501   9.734   8.253
 7958POPC   C3A38981  10.568   9.730   7.953
 7958POPC   C4A38982  10.479   9.781   7.653
 7958POPC   C1B38983  10.253   9.843   8.553
 7958POPC   C2B38984  10.260   9.790   8.253
 7958POPC   C3B38985  10.231   9.801   7.953
 7958POPC   C4B38986  10.305   9.826   7.653
 7959POPC   NC338987   2.770  22.965   9.453
 7959POPC   PO438988   2.744  22.917   9.153
 7959POPC   GL138989   2.803  22.982   8.853
 7959POPC   GL238990   2.765  23.028   8.853
 7959POPC   C1A38991   2.739  22.961   8.553
 7959POPC   D2A38992   2.748  22.917   8.253
 7959POPC   C3A38993   2.805  22.968   7.953
 7959POPC   C4A38994   2.780  22.968   7.653
 7959POPC   C1B38995   2.817  23.158   8.553
 7959POPC   C2B38996   2.762  23.229   8.253
 7959POPC   C3B38997   2.761  23.218   7.953
 7959POPC   C4B38998   2.748  23.159   7.653
 7960POPC   NC338999   8.244  23.731   9.453
 7960POPC   PO439000   8.226  23.714   9.153
 7960POPC   GL139001   8.187  23.760   8.853
 7960POPC   GL239002   8.237  23.640   8.853
 7960POPC   C1A39003   8.226  23.695   8.553
 7960POPC   D2A39004   8.201  23.747   8.253
 7960POPC   C3A39005   8.238  23.671   7.953
 7960POPC   C4A39006   8.212  23.668   7.653
 7960POPC   C1B39007   8.312  23.509   8.553
 7960POPC   C2B39008   8.325  23.486   8.253
 7960POPC   C3B39009   8.382  23.544   7.953
 7960POPC   C4B39010   8.377  23.486   7.653
 7961POPC   NC339011  11.267  35.384   9.453
 7961POPC   PO439012  11.253  35.308   9.153
 7961POPC   GL139013  11.271  35.381   8.853
 7961POPC   GL239014  11.392  35.370   8.853
 7961POPC   C1A39015  11.282  35.353   8.553
 7961POPC   D2A39016  11.309  35.382   8.253
 7961POPC   C3A39017  11.346  35.391   7.953
 7961POPC   C4A39018  11.301  35.371   7.653
 7961POPC   C1B39019  11.547  35.389   8.553
 7961POPC   C2B39020  11.553  35.431   8.253
 7961POPC   C3B39021  11.556  35.442   7.953
 7961POPC   C4B39022  11.584  35.423   7.653
 7962POPC   NC339023  44.640   5.880   9.453
 7962POPC   PO439024  44.686   5.861   9.153
 7962POPC   GL139025  44.709   5.866   8.853
 7962POPC   GL239026  44.630   6.033   8.853
 7962POPC   C1A39027  44.683   5.877   8.553
 7962POPC   D2A39028  44.615   5.892   8.253
 7962POPC   C3A39029  44.652   5.824   7.953
 7962POPC   C4A39030  44.613   5.865   7.653
 7962POPC   C1B39031  44.689   6.138   8.553
 7962POPC   C2B39032  44.670   6.152   8.253
 7962POPC   C3B39033  44.681   6.085   7.953
 7962POPC   C4B39034  44.747   6.117   7.653
 7963POPC   NC339035  25.230  23.756   9.453
 7963POPC   PO439036  25.237  23.763   9.153
 7963POPC   GL139037  25.217  23.671   8.853
 7963POPC   GL239038  25.188  23.603   8.853
 7963POPC   C1A39039  25.281  23.757   8.553
 7963POPC   D2A39040  25.304  23.714   8.253
 7963POPC   C3A39041  25.253  23.744   7.953
 7963POPC   C4A39042  25.296  23.731   7.653
 7963POPC   C1B39043  25.155  23.502   8.553
 7963POPC   C2B39044  25.117  23.463   8.253
 7963POPC   C3B39045  25.087  23.494   7.953
 7963POPC   C4B39046  25.099  23.518   7.653
 7964POPC   NC339047  42.288  11.258   9.453
 7964POPC   PO439048  42.308  11.275   9.153
 7964POPC   GL139049  42.335  11.302   8.853
 7964POPC   GL239050  42.288  11.194   8.853
 7964POPC   C1A39051  42.355  11.343   8.553
 7964POPC   D2A39052  42.346  11.297   8.253
 7964POPC   C3A39053  42.292  11.333   7.953
 7964POPC   C4A39054  42.365  11.321   7.653
 7964POPC   C1B39055  42.339  11.033   8.553
 7964POPC   C2B39056  42.328  11.060   8.253
 7964POPC   C3B39057  42.318  11.101   7.953
 7964POPC   C4B39058  42.260  11.092   7.653
 7965POPC   NC339059  22.186  35.378   9.453
 7965POPC   PO439060  22.155  35.391   9.153
 7965POPC   GL139061  22.179  35.397   8.853
 7965POPC   GL239062  22.256  35.268   8.853
 7965POPC   C1A39063  22.140  35.337   8.553
 7965POPC   D2A39064  22.186  35.361   8.253
 7965POPC   C3A39065  22.205  35.401   7.953
 7965POPC   C4A39066  22.168  35.329   7.653
 7965POPC   C1B39067  22.389  35.184   8.553
 7965POPC   C2B39068  22.389  35.146   8.253
 7965POPC   C3B39069  22.369  35.215   7.953
 7965POPC   C4B39070  22.363  35.204   7.653
 7966POPC   NC339071  33.821  36.087   9.453
 7966POPC   PO439072  33.844  36.097   9.153
 7966POPC   GL139073  33.834  36.081   8.853
 7966POPC   GL239074  33.879  36.144   8.853
 7966POPC   C1A39075  33.836  36.167   8.553
 7966POPC   D2A39076  33.809  36.078   8.253
 7966POPC   C3A39077  33.767  36.089   7.953
 7966POPC   C4A39078  33.764  36.116   7.653
 7966POPC   C1B39079  34.066  36.079   8.553
 7966POPC   C2B39080  34.082  36.033   8.253
 7966POPC   C3B39081  34.064  36.112   7.953
 7966POPC   C4B39082  34.044  36.068   7.653
 7967POPC   NC339083  43.070  19.838   9.453
 7967POPC   PO439084  43.143  19.860   9.153
 7967POPC   GL139085  43.079  19.788   8.853
 7967POPC   GL239086  42.944  19.785   8.853
 7967POPC   C1A39087  43.069  19.877   8.553
 7967POPC   D2A39088  43.070  19.841   8.253
 7967POPC   C3A39089  43.063  19.875   7.953
 7967POPC   C4A39090  43.131  19.789   7.653
 7967POPC   C1B39091  42.833  19.752   8.553
 7967POPC   C2B39092  42.832  19.738   8.253
 7967POPC   C3B39093  42.845  19.798   7.953
 7967POPC   C4B39094  42.841  19.757   7.653
 7968POPC   NC339095  41.548  36.922   9.453
 7968POPC   PO439096  41.559  36.900   9.153
 7968POPC   GL139097  41.585  36.934   8.853
 7968POPC   GL239098  41.673  36.948   8.853
 7968POPC   C1A39099  41.522  36.929   8.553
 7968POPC   D2A39100  41.556  36.876   8.253
 7968POPC   C3A39101  41.542  36.907   7.953
 7968POPC   C4A39102  41.608  36.932   7.653
 7968POPC   C1B39103  41.806  36.998   8.553
 7968POPC   C2B39104  41.736  37.067   8.253
 7968POPC   C3B39105  41.722  37.011   7.953
 7968POPC   C4B39106  41.802  37.056   7.653
 7969POPC   NC339107  28.366  18.256   9.453
 7969POPC   PO439108  28.418  18.282   9.153
 7969POPC   GL139109  28.357  18.292   8.853
 7969POPC   GL239110  28.321  18.330   8.853
 7969POPC   C1A39111  28.401  18.234   8.553
 7969POPC   D2A39112  28.370  18.275   8.253
 7969POPC   C3A39113  28.353  18.304   7.953
 7969POPC   C4A39114  28.403  18.272   7.653
 7969POPC   C1B39115  28.199  18.488   8.553
 7969POPC   C2B39116  28.173  18.424   8.253
 7969POPC   C3B39117  28.153  18.449   7.953
 7969POPC   C4B39118  28.176  18.458   7.653
 7970POPC   NC339119  13.607  30.660   9.453
 7970POPC   PO439120  13.593  30.688   9.153
 7970POPC   GL139121  13.599  30.709   8.853
 7970POPC   GL239122  13.654  30.616   8.853
 7970POPC   C1A39123  13.607  30.673   8.553
 7970POPC   D2A39124  13.584  30.703   8.253
 7970POPC   C3A39125  13.632  30.678   7.953
 7970POPC   C4A39126  13.639  30.680   7.653
 7970POPC   C1B39127  13.667  30.426   8.553
 7970POPC   C2B39128  13.646  30.404   8.253
 7970POPC   C3B39129  13.593  30.469   7.953
 7970POPC   C4B39130  13.585  30.444   7.653
 7971POPC   NC339131   4.350   6.650   9.453
 7971POPC   PO439132   4.269   6.692   9.153
 7971POPC   GL139133   4.310   6.642   8.853
 7971POPC   GL239134   4.174   6.664   8.853
 7971POPC   C1A39135   4.330   6.606   8.553
 7971POPC   D2A39136   4.342   6.689   8.253
 7971POPC   C3A39137   4.357   6.618   7.953
 7971POPC   C4A39138   4.268   6.603   7.653
 7971POPC   C1B39139   4.087   6.749   8.553
 7971POPC   C2B39140   4.094   6.719   8.253
 7971POPC   C3B39141   4.107   6.751   7.953
 7971POPC   C4B39142   4.034   6.727   7.653
 7972POPC   NC339143  32.216   5.132   9.453
 7972POPC   PO439144  32.237   5.117   9.153
 7972POPC   GL139145  32.261   5.096   8.853
 7972POPC   GL239146  32.364   5.112   8.853
 7972POPC   C1A39147  32.293   5.069   8.553
 7972POPC   D2A39148  32.270   5.049   8.253
 7972POPC   C3A39149  32.227   5.134   7.953
 7972POPC   C4A39150  32.207   5.139   7.653
 7972POPC   C1B39151  32.445   5.174   8.553
 7972POPC   C2B39152  32.528   5.168   8.253
 7972POPC   C3B39153  32.486   5.152   7.953
 7972POPC   C4B39154  32.521   5.168   7.653
 7973POPC   NC339155  32.224  24.496   9.453
 7973POPC   PO439156  32.218  24.463   9.153
 7973POPC   GL139157  32.293  24.464   8.853
 7973POPC   GL239158  32.253  24.416   8.853
 7973POPC   C1A39159  32.278  24.500   8.553
 7973POPC   D2A39160  32.213  24.446   8.253
 7973POPC   C3A39161  32.256  24.442   7.953
 7973POPC   C4A39162  32.263  24.448   7.653
 7973POPC   C1B39163  32.259  24.198   8.553
 7973POPC   C2B39164  32.261  24.201   8.253
 7973POPC   C3B39165  32.259  24.205   7.953
 7973POPC   C4B39166  32.305  24.223   7.653
 7974POPC   NC339167  32.248   5.899   9.453
 7974POPC   PO439168  32.293   5.902   9.153
 7974POPC   GL139169  32.229   5.917   8.853
 7974POPC   GL239170  32.218   5.752   8.853
 7974POPC   C1A39171  32.264   5.899   8.553
 7974POPC   D2A39172  32.240   5.859   8.253
 7974POPC   C3A39173  32.225   5.864   7.953
 7974POPC   C4A39174  32.251   5.847   7.653
 7974POPC   C1B39175  32.153   5.678   8.553
 7974POPC   C2B39176  32.127   5.628   8.253
 7974POPC   C3B39177  32.153   5.681   7.953
 7974POPC   C4B39178  32.200   5.678   7.653
 7975POPC   NC339179   7.433   8.228   9.453
 7975POPC   PO439180   7.427   8.194   9.153
 7975POPC   GL139181   7.436   8.153   8.853
 7975POPC   GL239182   7.286   8.194   8.853
 7975POPC   C1A39183   7.373   8.178   8.553
 7975POPC   D2A39184   7.467   8.225   8.253
 7975POPC   C3A39185   7.441   8.221   7.953
 7975POPC   C4A39186   7.386   8.222   7.653
 7975POPC   C1B39187   7.208   8.281   8.553
 7975POPC   C2B39188   7.211   8.282   8.253
 7975POPC   C3B39189   7.157   8.301   7.953
 7975POPC   C4B39190   7.187   8.324   7.653
 7976POPC   NC339191  39.220  26.024   9.453
 7976POPC   PO439192  39.192  26.016   9.153
 7976POPC   GL139193  39.184  26.078   8.853
 7976POPC   GL239194  39.144  26.021   8.853
 7976POPC   C1A39195  39.251  26.052   8.553
 7976POPC   D2A39196  39.258  25.992   8.253
 7976POPC   C3A39197  39.224  26.018   7.953
 7976POPC   C4A39198  39.210  26.013   7.653
 7976POPC   C1B39199  39.050  25.892   8.553
 7976POPC   C2B39200  39.012  25.961   8.253
 7976POPC   C3B39201  38.986  25.872   7.953
 7976POPC   C4B39202  39.028  25.964   7.653
 7977POPC   NC339203  41.575   9.782   9.453
 7977POPC   PO439204  41.538   9.784   9.153
 7977POPC   GL139205  41.559   9.701   8.853
 7977POPC   GL239206  41.497   9.806   8.853
 7977POPC   C1A39207  41.563   9.733   8.553
 7977POPC   D2A39208  41.537   9.728   8.253
 7977POPC   C3A39209  41.530   9.787   7.953
 7977POPC   C4A39210  41.538   9.760   7.653
 7977POPC   C1B39211  41.372   9.845   8.553
 7977POPC   C2B39212  41.347   9.830   8.253
 7977POPC   C3B39213  41.371   9.890   7.953
 7977POPC   C4B39214  41.371   9.877   7.653
 7978POPC   NC339215  15.997  18.313   9.453
 7978POPC   PO439216  15.961  18.304   9.153
 7978POPC   GL139217  15.974  18.331   8.853
 7978POPC   GL239218  15.948  18.191   8.853
 7978POPC   C1A39219  15.999  18.289   8.553
 7978POPC   D2A39220  16.003  18.245   8.253
 7978POPC   C3A39221  15.992  18.234   7.953
 7978POPC   C4A39222  15.966  18.242   7.653
 7978POPC   C1B39223  15.894  18.038   8.553
 7978POPC   C2B39224  15.938  18.024   8.253
 7978POPC   C3B39225  15.955  18.067   7.953
 7978POPC   C4B39226  15.909  18.056   7.653
 7979POPC   NC339227  22.186  41.603   9.453
 7979POPC   PO439228  22.197  41.525   9.153
 7979POPC   GL139229  22.156  41.559   8.853
 7979POPC   GL239230  22.172  41.661   8.853
 7979POPC   C1A39231  22.141  41.570   8.553
 7979POPC   D2A39232  22.209  41.539   8.253
 7979POPC   C3A39233  22.115  41.580   7.953
 7979POPC   C4A39234  22.165  41.575   7.653
 7979POPC   C1B39235  22.278  41.821   8.553
 7979POPC   C2B39236  22.248  41.818   8.253
 7979POPC   C3B39237  22.258  41.832   7.953
 7979POPC   C4B39238  22.192  41.822   7.653
 7980POPC   NC339239   8.924  33.013   9.453
 7980POPC   PO439240   8.925  33.024   9.153
 7980POPC   GL139241   9.012  33.052   8.853
 7980POPC   GL239242   8.936  33.145   8.853
 7980POPC   C1A39243   8.994  32.998   8.553
 7980POPC   D2A39244   8.957  32.991   8.253
 7980POPC   C3A39245   9.014  33.041   7.953
 7980POPC   C4A39246   9.003  33.036   7.653
 7980POPC   C1B39247   8.916  33.294   8.553
 7980POPC   C2B39248   8.873  33.294   8.253
 7980POPC   C3B39249   8.869  33.217   7.953
 7980POPC   C4B39250   8.856  33.234   7.653
 7981POPC   NC339251  36.893   7.373   9.453
 7981POPC   PO439252  36.878   7.453   9.153
 7981POPC   GL139253  36.905   7.454   8.853
 7981POPC   GL239254  37.064   7.462   8.853
 7981POPC   C1A39255  36.915   7.437   8.553
 7981POPC   D2A39256  36.879   7.439   8.253
 7981POPC   C3A39257  36.879   7.437   7.953
 7981POPC   C4A39258  36.925   7.393   7.653
 7981POPC   C1B39259  37.126   7.495   8.553
 7981POPC   C2B39260  37.102   7.577   8.253
 7981POPC   C3B39261  37.147   7.483   7.953
 7981POPC   C4B39262  37.124   7.531   7.653
 7982POPC   NC339263  43.147  25.267   9.453
 7982POPC   PO439264  43.064  25.242   9.153
 7982POPC   GL139265  43.122  25.231   8.853
 7982POPC   GL239266  43.185  25.206   8.853
 7982POPC   C1A39267  43.101  25.304   8.553
 7982POPC   D2A39268  43.084  25.310   8.253
 7982POPC   C3A39269  43.124  25.292   7.953
 7982POPC   C4A39270  43.147  25.251   7.653
 7982POPC   C1B39271  43.303  25.179   8.553
 7982POPC   C2B39272  43.307  25.164   8.253
 7982POPC   C3B39273  43.358  25.149   7.953
 7982POPC   C4B39274  43.303  25.145   7.653
 7983POPC   NC339275  26.817  29.926   9.453
 7983POPC   PO439276  26.781  29.908   9.153
 7983POPC   GL139277  26.864  29.935   8.853
 7983POPC   GL239278  26.891  29.864   8.853
 7983POPC   C1A39279  26.778  29.873   8.553
 7983POPC   D2A39280  26.800  29.925   8.253
 7983POPC   C3A39281  26.776  29.962   7.953
 7983POPC   C4A39282  26.864  29.906   7.653
 7983POPC   C1B39283  27.018  29.811   8.553
 7983POPC   C2B39284  27.079  29.818   8.253
 7983POPC   C3B39285  27.062  29.834   7.953
 7983POPC   C4B39286  27.080  29.764   7.653
 7984POPC   NC339287   5.061   9.735   9.453
 7984POPC   PO439288   5.078   9.708   9.153
 7984POPC   GL139289   5.126   9.724   8.853
 7984POPC   GL239290   4.996   9.824   8.853
 7984POPC   C1A39291   5.080   9.736   8.553
 7984POPC   D2A39292   5.046   9.711   8.253
 7984POPC   C3A39293   5.078   9.780   7.953
 7984POPC   C4A39294   5.045   9.763   7.653
 7984POPC   C1B39295   4.911   9.851   8.553
 7984POPC   C2B39296   4.864   9.889   8.253
 7984POPC   C3B39297   4.843   9.820   7.953
 7984POPC   C4B39298   4.911   9.819   7.653
 7985POPC   NC339299  22.946  33.846   9.453
 7985POPC   PO439300  22.907  33.772   9.153
 7985POPC   GL139301  22.988  33.772   8.853
 7985POPC   GL239302  23.056  33.816   8.853
 7985POPC   C1A39303  22.923  33.825   8.553
 7985POPC   D2A39304  22.913  33.753   8.253
 7985POPC   C3A39305  22.943  33.775   7.953
 7985POPC   C4A39306  22.980  33.755   7.653
 7985POPC   C1B39307  23.165  33.836   8.553
 7985POPC   C2B39308  23.185  33.849   8.253
 7985POPC   C3B39309  23.222  33.849   7.953
 7985POPC   C4B39310  23.206  33.861   7.653
 7986POPC   NC339311  37.637  22.127   9.453
 7986POPC   PO439312  37.656  22.186   9.153
 7986POPC   GL139313  37.699  22.196   8.853
 7986POPC   GL239314  37.838  22.181   8.853
 7986POPC   C1A39315  37.696  22.206   8.553
 7986POPC   D2A39316  37.654  22.131   8.253
 7986POPC   C3A39317  37.726  22.129   7.953
 7986POPC   C4A39318  37.725  22.199   7.653
 7986POPC   C1B39319  37.926  22.135   8.553
 7986POPC   C2B39320  37.965  22.062   8.253
 7986POPC   C3B39321  37.901  22.082   7.953
 7986POPC   C4B39322  37.922  22.109   7.653
 7987POPC   NC339323  26.024  22.172   9.453
 7987POPC   PO439324  26.059  22.129   9.153
 7987POPC   GL139325  26.062  22.167   8.853
 7987POPC   GL239326  25.928  22.217   8.853
 7987POPC   C1A39327  26.051  22.173   8.553
 7987POPC   D2A39328  26.073  22.134   8.253
 7987POPC   C3A39329  25.994  22.176   7.953
 7987POPC   C4A39330  26.032  22.128   7.653
 7987POPC   C1B39331  25.879  22.290   8.553
 7987POPC   C2B39332  25.833  22.284   8.253
 7987POPC   C3B39333  25.849  22.269   7.953
 7987POPC   C4B39334  25.818  22.323   7.653
 7988POPC   NC339335  28.398  40.830   9.453
 7988POPC   PO439336  28.377  40.775   9.153
 7988POPC   GL139337  28.353  40.742   8.853
 7988POPC   GL239338  28.505  40.754   8.853
 7988POPC   C1A39339  28.401  40.805   8.553
 7988POPC   D2A39340  28.374  40.800   8.253
 7988POPC   C3A39341  28.352  40.818   7.953
 7988POPC   C4A39342  28.364  40.762   7.653
 7988POPC   C1B39343  28.596  40.699   8.553
 7988POPC   C2B39344  28.599  40.660   8.253
 7988POPC   C3B39345  28.608  40.628   7.953
 7988POPC   C4B39346  28.580  40.635   7.653
 7989POPC   NC339347  19.788  39.235   9.453
 7989POPC   PO439348  19.813  39.232   9.153
 7989POPC   GL139349  19.846  39.254   8.853
 7989POPC   GL239350  19.698  39.306   8.853
 7989POPC   C1A39351  19.858  39.257   8.553
 7989POPC   D2A39352  19.878  39.230   8.253
 7989POPC   C3A39353  19.825  39.251   7.953
 7989POPC   C4A39354  19.830  39.264   7.653
 7989POPC   C1B39355  19.647  39.413   8.553
 7989POPC   C2B39356  19.599  39.438   8.253
 7989POPC   C3B39357  19.675  39.430   7.953
 7989POPC   C4B39358  19.625  39.350   7.653
 7990POPC   NC339359   6.628  31.432   9.453
 7990POPC   PO439360   6.692  31.504   9.153
 7990POPC   GL139361   6.656  31.490   8.853
 7990POPC   GL239362   6.749  31.403   8.853
 7990POPC   C1A39363   6.620  31.485   8.553
 7990POPC   D2A39364   6.652  31.508   8.253
 7990POPC   C3A39365   6.642  31.503   7.953
 7990POPC   C4A39366   6.654  31.515   7.653
 7990POPC   C1B39367   6.845  31.379   8.553
 7990POPC   C2B39368   6.933  31.411   8.253
 7990POPC   C3B39369   6.881  31.367   7.953
 7990POPC   C4B39370   6.839  31.357   7.653
 7991POPC   NC339371  39.998  24.525   9.453
 7991POPC   PO439372  40.051  24.484   9.153
 7991POPC   GL139373  40.008  24.449   8.853
 7991POPC   GL239374  39.955  24.406   8.853
 7991POPC   C1A39375  40.034  24.506   8.553
 7991POPC   D2A39376  39.993  24.461   8.253
 7991POPC   C3A39377  40.027  24.440   7.953
 7991POPC   C4A39378  40.037  24.540   7.653
 7991POPC   C1B39379  39.949  24.289   8.553
 7991POPC   C2B39380  40.018  24.276   8.253
 7991POPC   C3B39381  40.029  24.285   7.953
 7991POPC   C4B39382  39.981  24.225   7.653
 7992POPC   NC339383  15.985   5.128   9.453
 7992POPC   PO439384  16.001   5.112   9.153
 7992POPC   GL139385  15.981   5.111   8.853
 7992POPC   GL239386  16.104   5.142   8.853
 7992POPC   C1A39387  15.962   5.089   8.553
 7992POPC   D2A39388  15.952   5.111   8.253
 7992POPC   C3A39389  15.926   5.106   7.953
 7992POPC   C4A39390  15.949   5.058   7.653
 7992POPC   C1B39391  16.179   5.276   8.553
 7992POPC   C2B39392  16.151   5.195   8.253
 7992POPC   C3B39393  16.123   5.262   7.953
 7992POPC   C4B39394  16.118   5.197   7.653
 7993POPC   NC339395  19.843   8.988   9.453
 7993POPC   PO439396  19.854   9.015   9.153
 7993POPC   GL139397  19.822   8.939   8.853
 7993POPC   GL239398  19.926   9.028   8.853
 7993POPC   C1A39399  19.869   8.923   8.553
 7993POPC   D2A39400  19.830   9.008   8.253
 7993POPC   C3A39401  19.834   8.945   7.953
 7993POPC   C4A39402  19.866   8.965   7.653
 7993POPC   C1B39403  20.032   9.138   8.553
 7993POPC   C2B39404  19.971   9.166   8.253
 7993POPC   C3B39405  19.981   9.200   7.953
 7993POPC   C4B39406  20.019   9.171   7.653
 7994POPC   NC339407  34.533  44.693   9.453
 7994POPC   PO439408  34.608  44.691   9.153
 7994POPC   GL139409  34.560  44.679   8.853
 7994POPC   GL239410  34.672  44.751   8.853
 7994POPC   C1A39411  34.598  44.694   8.553
 7994POPC   D2A39412  34.614  44.671   8.253
 7994POPC   C3A39413  34.581  44.676   7.953
 7994POPC   C4A39414  34.555  44.662   7.653
 7994POPC   C1B39415  34.749  44.862   8.553
 7994POPC   C2B39416  34.769  44.825   8.253
 7994POPC   C3B39417  34.737  44.826   7.953
 7994POPC   C4B39418  34.787  44.837   7.653
 7995POPC   NC339419   4.345  38.425   9.453
 7995POPC   PO439420   4.316  38.476   9.153
 7995POPC   GL139421   4.338  38.492   8.853
 7995POPC   GL239422   4.400  38.382   8.853
 7995POPC   C1A39423   4.294  38.443   8.553
 7995POPC   D2A39424   4.316  38.427   8.253
 7995POPC   C3A39425   4.288  38.447   7.953
 7995POPC   C4A39426   4.268  38.446   7.653
 7995POPC   C1B39427   4.536  38.386   8.553
 7995POPC   C2B39428   4.528  38.365   8.253
 7995POPC   C3B39429   4.565  38.367   7.953
 7995POPC   C4B39430   4.577  38.449   7.653
 7996POPC   NC339431   6.679   9.792   9.453
 7996POPC   PO439432   6.671   9.711   9.153
 7996POPC   GL139433   6.633   9.781   8.853
 7996POPC   GL239434   6.510   9.748   8.853
 7996POPC   C1A39435   6.686   9.785   8.553
 7996POPC   D2A39436   6.623   9.713   8.253
 7996POPC   C3A39437   6.604   9.712   7.953
 7996POPC   C4A39438   6.599   9.731   7.653
 7996POPC   C1B39439   6.377   9.729   8.553
 7996POPC   C2B39440   6.374   9.756   8.253
 7996POPC   C3B39441   6.364   9.758   7.953
 7996POPC   C4B39442   6.420   9.715   7.653
 7997POPC   NC339443  24.468  27.582   9.453
 7997POPC   PO439444  24.448  27.549   9.153
 7997POPC   GL139445  24.456  27.627   8.853
 7997POPC   GL239446  24.430  27.499   8.853
 7997POPC   C1A39447  24.497  27.568   8.553
 7997POPC   D2A39448  24.463  27.636   8.253
 7997POPC   C3A39449  24.514  27.593   7.953
 7997POPC   C4A39450  24.441  27.578   7.653
 7997POPC   C1B39451  24.425  27.329   8.553
 7997POPC   C2B39452  24.506  27.319   8.253
 7997POPC   C3B39453  24.415  27.364   7.953
 7997POPC   C4B39454  24.465  27.381   7.653
 7998POPC   NC339455  39.221  24.510   9.453
 7998POPC   PO439456  39.193  24.489   9.153
 7998POPC   GL139457  39.207  24.532   8.853
 7998POPC   GL239458  39.073  24.420   8.853
 7998POPC   C1A39459  39.229  24.465   8.553
 7998POPC   D2A39460  39.268  24.503   8.253
 7998POPC   C3A39461  39.251  24.473   7.953
 7998POPC   C4A39462  39.211  24.532   7.653
 7998POPC   C1B39463  39.040  24.431   8.553
 7998POPC   C2B39464  38.982  24.444   8.253
 7998POPC   C3B39465  38.980  24.440   7.953
 7998POPC   C4B39466  38.964  24.370   7.653
 7999POPC   NC339467  31.516  34.531   9.453
 7999POPC   PO439468  31.517  34.528   9.153
 7999POPC   GL139469  31.451  34.599   8.853
 7999POPC   GL239470  31.596  34.633   8.853
 7999POPC   C1A39471  31.467  34.581   8.553
 7999POPC   D2A39472  31.490  34.539   8.253
 7999POPC   C3A39473  31.519  34.573   7.953
 7999POPC   C4A39474  31.478  34.564   7.653
 7999POPC   C1B39475  31.746  34.650   8.553
 7999POPC   C2B39476  31.689  34.629   8.253
 7999POPC   C3B39477  31.753  34.588   7.953
 7999POPC   C4B39478  31.754  34.625   7.653
 8000POPC   NC339479  15.203  29.877   9.453
 8000POPC   PO439480  15.153  29.918   9.153
 8000POPC   GL139481  15.187  29.955   8.853
 8000POPC   GL239482  15.079  30.061   8.853
 8000POPC   C1A39483  15.164  29.962   8.553
 8000POPC   D2A39484  15.199  29.967   8.253
 8000POPC   C3A39485  15.133  29.963   7.953
 8000POPC   C4A39486  15.178  29.969   7.653
 8000POPC   C1B39487  15.021  30.094   8.553
 8000POPC   C2B39488  15.101  30.126   8.253
 8000POPC   C3B39489  15.053  30.111   7.953
 8000POPC   C4B39490  15.106  30.128   7.653
 8001POPC   NC339491  29.132  14.434   9.453
 8001POPC   PO439492  29.130  14.374   9.153
 8001POPC   GL139493  29.143  14.441   8.853
 8001POPC   GL239494  29.229  14.335   8.853
 8001POPC   C1A39495  29.182  14.394   8.553
 8001POPC   D2A39496  29.189  14.429   8.253
 8001POPC   C3A39497  29.167  14.435   7.953
 8001POPC   C4A39498  29.118  14.446   7.653
 8001POPC   C1B39499  29.356  14.302   8.553
 8001POPC   C2B39500  29.417  14.338   8.253
 8001POPC   C3B39501  29.409  14.385   7.953
 8001POPC   C4B39502  29.364  14.335   7.653
 8002POPC   NC339503  36.168  26.772   9.453
 8002POPC   PO439504  36.157  26.839   9.153
 8002POPC   GL139505  36.146  26.837   8.853
 8002POPC   GL239506  36.225  26.901   8.853
 8002POPC   C1A39507  36.102  26.787   8.553
 8002POPC   D2A39508  36.089  26.794   8.253
 8002POPC   C3A39509  36.172  26.857   7.953
 8002POPC   C4A39510  36.167  26.798   7.653
 8002POPC   C1B39511  36.251  27.014   8.553
 8002POPC   C2B39512  36.243  27.065   8.253
 8002POPC   C3B39513  36.213  27.085   7.953
 8002POPC   C4B39514  36.293  27.045   7.653
 8003POPC   NC339515  36.170  14.420   9.453
 8003POPC   PO439516  36.118  14.416   9.153
 8003POPC   GL139517  36.095  14.360   8.853
 8003POPC   GL239518  36.119  14.263   8.853
 8003POPC   C1A39519  36.168  14.368   8.553
 8003POPC   D2A39520  36.155  14.404   8.253
 8003POPC   C3A39521  36.134  14.356   7.953
 8003POPC   C4A39522  36.112  14.370   7.653
 8003POPC   C1B39523  36.108  14.180   8.553
 8003POPC   C2B39524  36.132  14.111   8.253
 8003POPC   C3B39525  36.088  14.195   7.953
 8003POPC   C4B39526  36.145  14.114   7.653
 8004POPC   NC339527  13.614   0.482   9.453
 8004POPC   PO439528  13.592   0.430   9.153
 8004POPC   GL139529  13.625   0.473   8.853
 8004POPC   GL239530  13.668   0.561   8.853
 8004POPC   C1A39531  13.643   0.396   8.553
 8004POPC   D2A39532  13.591   0.389   8.253
 8004POPC   C3A39533  13.605   0.446   7.953
 8004POPC   C4A39534  13.613   0.464   7.653
 8004POPC   C1B39535  13.613   0.639   8.553
 8004POPC   C2B39536  13.591   0.707   8.253
 8004POPC   C3B39537  13.613   0.638   7.953
 8004POPC   C4B39538  13.629   0.735   7.653
 8005POPC   NC339539  12.030  19.051   9.453
 8005POPC   PO439540  12.085  19.106   9.153
 8005POPC   GL139541  12.042  19.100   8.853
 8005POPC   GL239542  11.945  19.119   8.853
 8005POPC   C1A39543  12.101  19.037   8.553
 8005POPC   D2A39544  12.081  19.071   8.253
 8005POPC   C3A39545  12.087  19.100   7.953
 8005POPC   C4A39546  12.068  19.099   7.653
 8005POPC   C1B39547  11.801  19.143   8.553
 8005POPC   C2B39548  11.802  19.157   8.253
 8005POPC   C3B39549  11.858  19.106   7.953
 8005POPC   C4B39550  11.861  19.169   7.653
 8006POPC   NC339551  26.008   1.199   9.453
 8006POPC   PO439552  26.038   1.181   9.153
 8006POPC   GL139553  26.019   1.245   8.853
 8006POPC   GL239554  25.932   1.211   8.853
 8006POPC   C1A39555  26.067   1.235   8.553
 8006POPC   D2A39556  26.040   1.200   8.253
 8006POPC   C3A39557  26.086   1.241   7.953
 8006POPC   C4A39558  26.036   1.238   7.653
 8006POPC   C1B39559  25.832   1.206   8.553
 8006POPC   C2B39560  25.748   1.187   8.253
 8006POPC   C3B39561  25.766   1.161   7.953
 8006POPC   C4B39562  25.773   1.223   7.653
 8007POPC   NC339563  19.851  22.167   9.453
 8007POPC   PO439564  19.805  22.120   9.153
 8007POPC   GL139565  19.874  22.184   8.853
 8007POPC   GL239566  19.960  22.208   8.853
 8007POPC   C1A39567  19.881  22.171   8.553
 8007POPC   D2A39568  19.871  22.159   8.253
 8007POPC   C3A39569  19.877  22.207   7.953
 8007POPC   C4A39570  19.831  22.152   7.653
 8007POPC   C1B39571  20.098  22.241   8.553
 8007POPC   C2B39572  20.060  22.248   8.253
 8007POPC   C3B39573  20.020  22.258   7.953
 8007POPC   C4B39574  20.097  22.222   7.653
 8008POPC   NC339575  25.314  22.198   9.453
 8008POPC   PO439576  25.296  22.148   9.153
 8008POPC   GL139577  25.262  22.151   8.853
 8008POPC   GL239578  25.320  22.087   8.853
 8008POPC   C1A39579  25.305  22.164   8.553
 8008POPC   D2A39580  25.217  22.137   8.253
 8008POPC   C3A39581  25.243  22.128   7.953
 8008POPC   C4A39582  25.245  22.163   7.653
 8008POPC   C1B39583  25.358  21.891   8.553
 8008POPC   C2B39584  25.388  21.954   8.253
 8008POPC   C3B39585  25.334  21.951   7.953
 8008POPC   C4B39586  25.398  21.899   7.653
 8009POPC   NC339587  28.342  29.916   9.453
 8009POPC   PO439588  28.391  29.928   9.153
 8009POPC   GL139589  28.407  29.957   8.853
 8009POPC   GL239590  28.306  29.803   8.853
 8009POPC   C1A39591  28.369  29.933   8.553
 8009POPC   D2A39592  28.345  29.907   8.253
 8009POPC   C3A39593  28.365  29.952   7.953
 8009POPC   C4A39594  28.359  29.939   7.653
 8009POPC   C1B39595  28.182  29.726   8.553
 8009POPC   C2B39596  28.235  29.767   8.253
 8009POPC   C3B39597  28.240  29.696   7.953
 8009POPC   C4B39598  28.193  29.693   7.653
 8010POPC   NC339599  23.677  30.652   9.453
 8010POPC   PO439600  23.690  30.725   9.153
 8010POPC   GL139601  23.760  30.746   8.853
 8010POPC   GL239602  23.620  30.591   8.853
 8010POPC   C1A39603  23.667  30.672   8.553
 8010POPC   D2A39604  23.760  30.690   8.253
 8010POPC   C3A39605  23.670  30.710   7.953
 8010POPC   C4A39606  23.743  30.650   7.653
 8010POPC   C1B39607  23.569  30.498   8.553
 8010POPC   C2B39608  23.550  30.548   8.253
 8010POPC   C3B39609  23.543  30.569   7.953
 8010POPC   C4B39610  23.573  30.497   7.653
 8011POPC   NC339611  40.789  43.078   9.453
 8011POPC   PO439612  40.819  43.111   9.153
 8011POPC   GL139613  40.743  43.080   8.853
 8011POPC   GL239614  40.774  43.199   8.853
 8011POPC   C1A39615  40.808  43.065   8.553
 8011POPC   D2A39616  40.745  43.072   8.253
 8011POPC   C3A39617  40.744  43.081   7.953
 8011POPC   C4A39618  40.765  43.136   7.653
 8011POPC   C1B39619  40.808  43.347   8.553
 8011POPC   C2B39620  40.785  43.378   8.253
 8011POPC   C3B39621  40.827  43.373   7.953
 8011POPC   C4B39622  40.804  43.335   7.653
 8012POPC   NC339623  12.047  26.090   9.453
 8012POPC   PO439624  12.120  26.016   9.153
 8012POPC   GL139625  12.113  26.002   8.853
 8012POPC   GL239626  12.002  25.969   8.853
 8012POPC   C1A39627  12.052  26.063   8.553
 8012POPC   D2A39628  12.051  26.056   8.253
 8012POPC   C3A39629  12.056  26.037   7.953
 8012POPC   C4A39630  12.115  26.070   7.653
 8012POPC   C1B39631  11.852  25.890   8.553
 8012POPC   C2B39632  11.820  25.954   8.253
 8012POPC   C3B39633  11.809  25.965   7.953
 8012POPC   C4B39634  11.867  25.898   7.653
 8013POPC   NC339635   1.202   2.020   9.453
 8013POPC   PO439636   1.182   1.955   9.153
 8013POPC   GL139637   1.222   1.983   8.853
 8013POPC   GL239638   1.131   2.052   8.853
 8013POPC   C1A39639   1.215   1.999   8.553
 8013POPC   D2A39640   1.221   2.029   8.253
 8013POPC   C3A39641   1.182   1.958   7.953
 8013POPC   C4A39642   1.248   1.946   7.653
 8013POPC   C1B39643   1.071   2.187   8.553
 8013POPC   C2B39644   1.060   2.163   8.253
 8013POPC   C3B39645   1.029   2.210   7.953
 8013POPC   C4B39646   1.094   2.166   7.653
 8014POPC   NC339647   5.827  44.625   9.453
 8014POPC   PO439648   5.882  44.673   9.153
 8014POPC   GL139649   5.825  44.679   8.853
 8014POPC   GL239650   5.726  44.619   8.853
 8014POPC   C1A39651   5.903  44.615   8.553
 8014POPC   D2A39652   5.853  44.636   8.253
 8014POPC   C3A39653   5.894  44.668   7.953
 8014POPC   C4A39654   5.881  44.646   7.653
 8014POPC   C1B39655   5.590  44.673   8.553
 8014POPC   C2B39656   5.652  44.668   8.253
 8014POPC   C3B39657   5.604  44.591   7.953
 8014POPC   C4B39658   5.593  44.643   7.653
 8015POPC   NC339659  12.034   8.243   9.453
 8015POPC   PO439660  12.044   8.242   9.153
 8015POPC   GL139661  12.106   8.220   8.853
 8015POPC   GL239662  12.155   8.107   8.853
 8015POPC   C1A39663  12.048   8.197   8.553
 8015POPC   D2A39664  12.052   8.205   8.253
 8015POPC   C3A39665  12.059   8.192   7.953
 8015POPC   C4A39666  12.125   8.243   7.653
 8015POPC   C1B39667  12.238   8.047   8.553
 8015POPC   C2B39668  12.262   7.992   8.253
 8015POPC   C3B39669  12.254   7.989   7.953
 8015POPC   C4B39670  12.279   8.033   7.653
 8016POPC   NC339671  10.499  38.453   9.453
 8016POPC   PO439672  10.516  38.435   9.153
 8016POPC   GL139673  10.492  38.479   8.853
 8016POPC   GL239674  10.602  38.490   8.853
 8016POPC   C1A39675  10.568  38.448   8.553
 8016POPC   D2A39676  10.480  38.467   8.253
 8016POPC   C3A39677  10.552  38.436   7.953
 8016POPC   C4A39678  10.478  38.457   7.653
 8016POPC   C1B39679  10.731  38.560   8.553
 8016POPC   C2B39680  10.773  38.568   8.253
 8016POPC   C3B39681  10.802  38.521   7.953
 8016POPC   C4B39682  10.796  38.534   7.653
 8017POPC   NC339683  32.221  29.956   9.453
 8017POPC   PO439684  32.264  29.935   9.153
 8017POPC   GL139685  32.223  29.947   8.853
 8017POPC   GL239686  32.331  29.807   8.853
 8017POPC   C1A39687  32.210  29.900   8.553
 8017POPC   D2A39688  32.273  29.875   8.253
 8017POPC   C3A39689  32.274  29.917   7.953
 8017POPC   C4A39690  32.237  29.939   7.653
 8017POPC   C1B39691  32.403  29.756   8.553
 8017POPC   C2B39692  32.440  29.736   8.253
 8017POPC   C3B39693  32.396  29.733   7.953
 8017POPC   C4B39694  32.402  29.733   7.653
 8018POPC   NC339695  43.086  34.594   9.453
 8018POPC   PO439696  43.087  34.595   9.153
 8018POPC   GL139697  43.062  34.564   8.853
 8018POPC   GL239698  43.126  34.402   8.853
 8018POPC   C1A39699  43.112  34.583   8.553
 8018POPC   D2A39700  43.124  34.539   8.253
 8018POPC   C3A39701  43.158  34.526   7.953
 8018POPC   C4A39702  43.064  34.625   7.653
 8018POPC   C1B39703  43.131  34.298   8.553
 8018POPC   C2B39704  43.129  34.362   8.253
 8018POPC   C3B39705  43.130  34.331   7.953
 8018POPC   C4B39706  43.161  34.329   7.653
 8019POPC   NC339707   8.226  11.346   9.453
 8019POPC   PO439708   8.195  11.340   9.153
 8019POPC   GL139709   8.213  11.265   8.853
 8019POPC   GL239710   8.239  11.174   8.853
 8019POPC   C1A39711   8.214  11.253   8.553
 8019POPC   D2A39712   8.180  11.274   8.253
 8019POPC   C3A39713   8.245  11.344   7.953
 8019POPC   C4A39714   8.218  11.266   7.653
 8019POPC   C1B39715   8.369  11.108   8.553
 8019POPC   C2B39716   8.333  11.118   8.253
 8019POPC   C3B39717   8.333  11.117   7.953
 8019POPC   C4B39718   8.382  11.159   7.653
 8020POPC   NC339719  37.673  40.742   9.453
 8020POPC   PO439720  37.686  40.800   9.153
 8020POPC   GL139721  37.696  40.766   8.853
 8020POPC   GL239722  37.776  40.885   8.853
 8020POPC   C1A39723  37.713  40.801   8.553
 8020POPC   D2A39724  37.709  40.752   8.253
 8020POPC   C3A39725  37.647  40.760   7.953
 8020POPC   C4A39726  37.722  40.805   7.653
 8020POPC   C1B39727  37.923  40.920   8.553
 8020POPC   C2B39728  37.885  40.902   8.253
 8020POPC   C3B39729  37.848  40.969   7.953
 8020POPC   C4B39730  37.841  40.931   7.653
 8021POPC   NC339731  21.357  18.289   9.453
 8021POPC   PO439732  21.403  18.260   9.153
 8021POPC   GL139733  21.436  18.303   8.853
 8021POPC   GL239734  21.510  18.266   8.853
 8021POPC   C1A39735  21.359  18.249   8.553
 8021POPC   D2A39736  21.407  18.307   8.253
 8021POPC   C3A39737  21.372  18.248   7.953
 8021POPC   C4A39738  21.390  18.332   7.653
 8021POPC   C1B39739  21.641  18.315   8.553
 8021POPC   C2B39740  21.650  18.293   8.253
 8021POPC   C3B39741  21.660  18.329   7.953
 8021POPC   C4B39742  21.590  18.320   7.653
 8022POPC   NC339743   4.331  12.041   9.453
 8022POPC   PO439744   4.287  12.121   9.153
 8022POPC   GL139745   4.329  12.097   8.853
 8022POPC   GL239746   4.302  11.921   8.853
 8022POPC   C1A39747   4.335  12.046   8.553
 8022POPC   D2A39748   4.319  12.048   8.253
 8022POPC   C3A39749   4.287  12.111   7.953
 8022POPC   C4A39750   4.308  12.037   7.653
 8022POPC   C1B39751   4.376  11.864   8.553
 8022POPC   C2B39752   4.390  11.811   8.253
 8022POPC   C3B39753   4.325  11.871   7.953
 8022POPC   C4B39754   4.342  11.827   7.653
 8023POPC   NC339755  19.030  19.033   9.453
 8023POPC   PO439756  19.056  19.098   9.153
 8023POPC   GL139757  19.057  19.084   8.853
 8023POPC   GL239758  19.146  19.199   8.853
 8023POPC   C1A39759  19.101  19.094   8.553
 8023POPC   D2A39760  19.079  19.078   8.253
 8023POPC   C3A39761  19.075  19.084   7.953
 8023POPC   C4A39762  19.031  19.066   7.653
 8023POPC   C1B39763  19.231  19.278   8.553
 8023POPC   C2B39764  19.244  19.247   8.253
 8023POPC   C3B39765  19.185  19.233   7.953
 8023POPC   C4B39766  19.182  19.269   7.653
 8024POPC   NC339767  34.530  43.918   9.453
 8024POPC   PO439768  34.557  43.887   9.153
 8024POPC   GL139769  34.614  43.898   8.853
 8024POPC   GL239770  34.673  43.981   8.853
 8024POPC   C1A39771  34.566  43.884   8.553
 8024POPC   D2A39772  34.571  43.846   8.253
 8024POPC   C3A39773  34.597  43.887   7.953
 8024POPC   C4A39774  34.606  43.872   7.653
 8024POPC   C1B39775  34.655  44.074   8.553
 8024POPC   C2B39776  34.662  44.100   8.253
 8024POPC   C3B39777  34.728  44.128   7.953
 8024POPC   C4B39778  34.649  44.074   7.653
 8025POPC   NC339779   1.233  15.173   9.453
 8025POPC   PO439780   1.200  15.149   9.153
 8025POPC   GL139781   1.258  15.172   8.853
 8025POPC   GL239782   1.239  15.022   8.853
 8025POPC   C1A39783   1.239  15.195   8.553
 8025POPC   D2A39784   1.177  15.202   8.253
 8025POPC   C3A39785   1.199  15.169   7.953
 8025POPC   C4A39786   1.211  15.167   7.653
 8025POPC   C1B39787   1.209  14.892   8.553
 8025POPC   C2B39788   1.149  14.925   8.253
 8025POPC   C3B39789   1.169  14.909   7.953
 8025POPC   C4B39790   1.217  14.889   7.653
 8026POPC   NC339791   0.475  20.572   9.453
 8026POPC   PO439792   0.455  20.637   9.153
 8026POPC   GL139793   0.434  20.606   8.853
 8026POPC   GL239794   0.352  20.473   8.853
 8026POPC   C1A39795   0.399  20.623   8.553
 8026POPC   D2A39796   0.471  20.580   8.253
 8026POPC   C3A39797   0.427  20.618   7.953
 8026POPC   C4A39798   0.419  20.649   7.653
 8026POPC   C1B39799   0.336  20.358   8.553
 8026POPC   C2B39800   0.250  20.438   8.253
 8026POPC   C3B39801   0.335  20.429   7.953
 8026POPC   C4B39802   0.328  20.414   7.653
 8027POPC   NC339803   3.567  12.111   9.453
 8027POPC   PO439804   3.524  12.122   9.153
 8027POPC   GL139805   3.499  12.066   8.853
 8027POPC   GL239806   3.543  12.244   8.853
 8027POPC   C1A39807   3.575  12.110   8.553
 8027POPC   D2A39808   3.528  12.109   8.253
 8027POPC   C3A39809   3.503  12.035   7.953
 8027POPC   C4A39810   3.507  12.044   7.653
 8027POPC   C1B39811   3.601  12.360   8.553
 8027POPC   C2B39812   3.570  12.370   8.253
 8027POPC   C3B39813   3.566  12.315   7.953
 8027POPC   C4B39814   3.554  12.358   7.653
 8028POPC   NC339815  39.207  34.588   9.453
 8028POPC   PO439816  39.215  34.581   9.153
 8028POPC   GL139817  39.186  34.573   8.853
 8028POPC   GL239818  39.307  34.532   8.853
 8028POPC   C1A39819  39.228  34.570   8.553
 8028POPC   D2A39820  39.249  34.620   8.253
 8028POPC   C3A39821  39.206  34.609   7.953
 8028POPC   C4A39822  39.214  34.561   7.653
 8028POPC   C1B39823  39.458  34.399   8.553
 8028POPC   C2B39824  39.412  34.459   8.253
 8028POPC   C3B39825  39.483  34.441   7.953
 8028POPC   C4B39826  39.451  34.423   7.653
 8029POPC   NC339827  25.291   8.229   9.453
 8029POPC   PO439828  25.297   8.212   9.153
 8029POPC   GL139829  25.262   8.154   8.853
 8029POPC   GL239830  25.211   8.077   8.853
 8029POPC   C1A39831  25.238   8.220   8.553
 8029POPC   D2A39832  25.285   8.195   8.253
 8029POPC   C3A39833  25.263   8.206   7.953
 8029POPC   C4A39834  25.313   8.186   7.653
 8029POPC   C1B39835  25.187   7.946   8.553
 8029POPC   C2B39836  25.153   7.923   8.253
 8029POPC   C3B39837  25.199   7.966   7.953
 8029POPC   C4B39838  25.206   7.934   7.653
 8030POPC   NC339839  44.652  30.698   9.453
 8030POPC   PO439840  44.624  30.709   9.153
 8030POPC   GL139841  44.674  30.709   8.853
 8030POPC   GL239842  44.544  30.798   8.853
 8030POPC   C1A39843  44.642  30.675   8.553
 8030POPC   D2A39844  44.636  30.702   8.253
 8030POPC   C3A39845  44.651  30.743   7.953
 8030POPC   C4A39846  44.705  30.706   7.653
 8030POPC   C1B39847  44.456  30.804   8.553
 8030POPC   C2B39848  44.435  30.807   8.253
 8030POPC   C3B39849  44.432  30.801   7.953
 8030POPC   C4B39850  44.430  30.779   7.653
 8031POPC   NC339851  39.254  43.860   9.453
 8031POPC   PO439852  39.230  43.913   9.153
 8031POPC   GL139853  39.182  43.930   8.853
 8031POPC   GL239854  39.344  43.916   8.853
 8031POPC   C1A39855  39.193  43.854   8.553
 8031POPC   D2A39856  39.191  43.902   8.253
 8031POPC   C3A39857  39.263  43.923   7.953
 8031POPC   C4A39858  39.246  43.904   7.653
 8031POPC   C1B39859  39.435  44.073   8.553
 8031POPC   C2B39860  39.383  44.056   8.253
 8031POPC   C3B39861  39.403  43.994   7.953
 8031POPC   C4B39862  39.400  44.013   7.653
 8032POPC   NC339863   5.828  27.544   9.453
 8032POPC   PO439864   5.916  27.640   9.153
 8032POPC   GL139865   5.834  27.590   8.853
 8032POPC   GL239866   5.984  27.673   8.853
 8032POPC   C1A39867   5.852  27.561   8.553
 8032POPC   D2A39868   5.898  27.589   8.253
 8032POPC   C3A39869   5.869  27.549   7.953
 8032POPC   C4A39870   5.896  27.635   7.653
 8032POPC   C1B39871   6.030  27.802   8.553
 8032POPC   C2B39872   6.080  27.738   8.253
 8032POPC   C3B39873   6.032  27.708   7.953
 8032POPC   C4B39874   6.080  27.719   7.653
 8033POPC   NC339875  40.002   1.996   9.453
 8033POPC   PO439876  39.997   1.980   9.153
 8033POPC   GL139877  39.980   2.001   8.853
 8033POPC   GL239878  39.916   1.910   8.853
 8033POPC   C1A39879  40.003   1.956   8.553
 8033POPC   D2A39880  39.991   1.956   8.253
 8033POPC   C3A39881  39.971   1.948   7.953
 8033POPC   C4A39882  39.978   1.964   7.653
 8033POPC   C1B39883  39.820   1.781   8.553
 8033POPC   C2B39884  39.795   1.794   8.253
 8033POPC   C3B39885  39.836   1.796   7.953
 8033POPC   C4B39886  39.838   1.836   7.653
 8034POPC   NC339887  43.124  26.802   9.453
 8034POPC   PO439888  43.120  26.826   9.153
 8034POPC   GL139889  43.131  26.837   8.853
 8034POPC   GL239890  43.012  26.931   8.853
 8034POPC   C1A39891  43.138  26.773   8.553
 8034POPC   D2A39892  43.105  26.864   8.253
 8034POPC   C3A39893  43.102  26.832   7.953
 8034POPC   C4A39894  43.160  26.854   7.653
 8034POPC   C1B39895  43.015  27.035   8.553
 8034POPC   C2B39896  42.930  27.050   8.253
 8034POPC   C3B39897  42.951  27.022   7.953
 8034POPC   C4B39898  43.006  27.006   7.653
 8035POPC   NC339899   8.193   1.262   9.453
 8035POPC   PO439900   8.196   1.217   9.153
 8035POPC   GL139901   8.184   1.199   8.853
 8035POPC   GL239902   8.068   1.200   8.853
 8035POPC   C1A39903   8.167   1.209   8.553
 8035POPC   D2A39904   8.173   1.197   8.253
 8035POPC   C3A39905   8.231   1.171   7.953
 8035POPC   C4A39906   8.193   1.233   7.653
 8035POPC   C1B39907   7.944   1.116   8.553
 8035POPC   C2B39908   7.919   1.093   8.253
 8035POPC   C3B39909   7.937   1.146   7.953
 8035POPC   C4B39910   7.916   1.092   7.653
 8036POPC   NC339911   8.232  14.385   9.453
 8036POPC   PO439912   8.196  14.419   9.153
 8036POPC   GL139913   8.214  14.382   8.853
 8036POPC   GL239914   8.346  14.378   8.853
 8036POPC   C1A39915   8.185  14.447   8.553
 8036POPC   D2A39916   8.155  14.423   8.253
 8036POPC   C3A39917   8.229  14.376   7.953
 8036POPC   C4A39918   8.183  14.412   7.653
 8036POPC   C1B39919   8.488  14.404   8.553
 8036POPC   C2B39920   8.437  14.387   8.253
 8036POPC   C3B39921   8.454  14.357   7.953
 8036POPC   C4B39922   8.475  14.341   7.653
 8037POPC   NC339923  11.331  40.820   9.453
 8037POPC   PO439924  11.298  40.821   9.153
 8037POPC   GL139925  11.338  40.753   8.853
 8037POPC   GL239926  11.378  40.808   8.853
 8037POPC   C1A39927  11.289  40.780   8.553
 8037POPC   D2A39928  11.341  40.822   8.253
 8037POPC   C3A39929  11.334  40.813   7.953
 8037POPC   C4A39930  11.310  40.778   7.653
 8037POPC   C1B39931  11.505  40.808   8.553
 8037POPC   C2B39932  11.581  40.801   8.253
 8037POPC   C3B39933  11.596  40.785   7.953
 8037POPC   C4B39934  11.533  40.742   7.653
 8038POPC   NC339935  32.220   6.680   9.453
 8038POPC   PO439936  32.277   6.672   9.153
 8038POPC   GL139937  32.268   6.651   8.853
 8038POPC   GL239938  32.188   6.577   8.853
 8038POPC   C1A39939  32.259   6.669   8.553
 8038POPC   D2A39940  32.200   6.654   8.253
 8038POPC   C3A39941  32.252   6.663   7.953
 8038POPC   C4A39942  32.239   6.615   7.653
 8038POPC   C1B39943  32.067   6.421   8.553
 8038POPC   C2B39944  32.096   6.493   8.253
 8038POPC   C3B39945  32.078   6.511   7.953
 8038POPC   C4B39946  32.073   6.465   7.653
 8039POPC   NC339947  39.263  22.907   9.453
 8039POPC   PO439948  39.186  22.984   9.153
 8039POPC   GL139949  39.183  22.923   8.853
 8039POPC   GL239950  39.379  22.994   8.853
 8039POPC   C1A39951  39.212  22.952   8.553
 8039POPC   D2A39952  39.193  22.951   8.253
 8039POPC   C3A39953  39.197  22.925   7.953
 8039POPC   C4A39954  39.197  22.902   7.653
 8039POPC   C1B39955  39.452  23.043   8.553
 8039POPC   C2B39956  39.445  23.105   8.253
 8039POPC   C3B39957  39.476  23.119   7.953
 8039POPC   C4B39958  39.465  23.051   7.653
 8040POPC   NC339959   5.907  31.502   9.453
 8040POPC   PO439960   5.872  31.436   9.153
 8040POPC   GL139961   5.887  31.509   8.853
 8040POPC   GL239962   5.931  31.505   8.853
 8040POPC   C1A39963   5.872  31.438   8.553
 8040POPC   D2A39964   5.835  31.508   8.253
 8040POPC   C3A39965   5.828  31.478   7.953
 8040POPC   C4A39966   5.881  31.492   7.653
 8040POPC   C1B39967   6.135  31.597   8.553
 8040POPC   C2B39968   6.086  31.555   8.253
 8040POPC   C3B39969   6.052  31.615   7.953
 8040POPC   C4B39970   6.070  31.589   7.653
 8041POPC   NC339971  34.593   7.381   9.453
 8041POPC   PO439972  34.597   7.435   9.153
 8041POPC   GL139973  34.542   7.436   8.853
 8041POPC   GL239974  34.706   7.471   8.853
 8041POPC   C1A39975  34.610   7.408   8.553
 8041POPC   D2A39976  34.577   7.387   8.253
 8041POPC   C3A39977  34.568   7.387   7.953
 8041POPC   C4A39978  34.546   7.467   7.653
 8041POPC   C1B39979  34.864   7.504   8.553
 8041POPC   C2B39980  34.789   7.496   8.253
 8041POPC   C3B39981  34.820   7.488   7.953
 8041POPC   C4B39982  34.823   7.462   7.653
 8042POPC   NC339983  43.121  15.964   9.453
 8042POPC   PO439984  43.087  15.942   9.153
 8042POPC   GL139985  43.093  15.977   8.853
 8042POPC   GL239986  42.998  15.946   8.853
 8042POPC   C1A39987  43.130  15.910   8.553
 8042POPC   D2A39988  43.061  15.921   8.253
 8042POPC   C3A39989  43.070  16.002   7.953
 8042POPC   C4A39990  43.126  15.976   7.653
 8042POPC   C1B39991  42.882  15.933   8.553
 8042POPC   C2B39992  42.900  15.969   8.253
 8042POPC   C3B39993  42.826  15.964   7.953
 8042POPC   C4B39994  42.904  15.988   7.653
 8043POPC   NC339995  36.882  12.029   9.453
 8043POPC   PO439996  36.877  12.111   9.153
 8043POPC   GL139997  36.892  12.041   8.853
 8043POPC   GL239998  36.799  12.033   8.853
 8043POPC   C1A39999  36.919  12.033   8.553
 8043POPC   D2A40000  36.878  12.091   8.253
 8043POPC   C3A40001  36.909  12.085   7.953
 8043POPC   C4A40002  36.922  12.054   7.653
 8043POPC   C1B40003  36.699  11.951   8.553
 8043POPC   C2B40004  36.725  11.872   8.253
 8043POPC   C3B40005  36.750  11.893   7.953
 8043POPC   C4B40006  36.698  11.943   7.653
 8044POPC   NC340007   5.117  40.772   9.453
 8044POPC   PO440008   5.129  40.775   9.153
 8044POPC   GL140009   5.133  40.832   8.853
 8044POPC   GL240010   5.034  40.873   8.853
 8044POPC   C1A40011   5.074  40.796   8.553
 8044POPC   D2A40012   5.088  40.795   8.253
 8044POPC   C3A40013   5.099  40.753   7.953
 8044POPC   C4A40014   5.112  40.789   7.653
 8044POPC   C1B40015   4.870  40.958   8.553
 8044POPC   C2B40016   4.880  40.938   8.253
 8044POPC   C3B40017   4.874  40.876   7.953
 8044POPC   C4B40018   4.892  40.873   7.653
 8045POPC   NC340019  28.334   4.322   9.453
 8045POPC   PO440020  28.358   4.349   9.153
 8045POPC   GL140021  28.407   4.291   8.853
 8045POPC   GL240022  28.502   4.259   8.853
 8045POPC   C1A40023  28.377   4.300   8.553
 8045POPC   D2A40024  28.339   4.345   8.253
 8045POPC   C3A40025  28.346   4.298   7.953
 8045POPC   C4A40026  28.352   4.338   7.653
 8045POPC   C1B40027  28.535   4.215   8.553
 8045POPC   C2B40028  28.618   4.223   8.253
 8045POPC   C3B40029  28.597   4.143   7.953
 8045POPC   C4B40030  28.598   4.168   7.653
 8046POPC   NC340031  26.855  36.097   9.453
 8046POPC   PO440032  26.820  36.167   9.153
 8046POPC   GL140033  26.773  36.092   8.853
 8046POPC   GL240034  26.805  35.981   8.853
 8046POPC   C1A40035  26.815  36.172   8.553
 8046POPC   D2A40036  26.833  36.108   8.253
 8046POPC   C3A40037  26.798  36.086   7.953
 8046POPC   C4A40038  26.781  36.158   7.653
 8046POPC   C1B40039  26.800  35.864   8.553
 8046POPC   C2B40040  26.770  35.907   8.253
 8046POPC   C3B40041  26.733  35.924   7.953
 8046POPC   C4B40042  26.771  35.861   7.653
 8047POPC   NC340043  29.905   8.216   9.453
 8047POPC   PO440044  29.920   8.208   9.153
 8047POPC   GL140045  29.970   8.153   8.853
 8047POPC   GL240046  29.920   8.035   8.853
 8047POPC   C1A40047  29.893   8.153   8.553
 8047POPC   D2A40048  29.876   8.198   8.253
 8047POPC   C3A40049  29.874   8.207   7.953
 8047POPC   C4A40050  29.882   8.220   7.653
 8047POPC   C1B40051  30.022   7.964   8.553
 8047POPC   C2B40052  30.012   7.939   8.253
 8047POPC   C3B40053  29.999   7.983   7.953
 8047POPC   C4B40054  30.033   7.988   7.653
 8048POPC   NC340055  39.275  16.694   9.453
 8048POPC   PO440056  39.218  16.758   9.153
 8048POPC   GL140057  39.199  16.780   8.853
 8048POPC   GL240058  39.211  16.610   8.853
 8048POPC   C1A40059  39.192  16.766   8.553
 8048POPC   D2A40060  39.278  16.761   8.253
 8048POPC   C3A40061  39.259  16.772   7.953
 8048POPC   C4A40062  39.191  16.690   7.653
 8048POPC   C1B40063  39.187  16.508   8.553
 8048POPC   C2B40064  39.178  16.485   8.253
 8048POPC   C3B40065  39.159  16.538   7.953
 8048POPC   C4B40066  39.173  16.534   7.653
 8049POPC   NC340067   5.916   1.189   9.453
 8049POPC   PO440068   5.858   1.197   9.153
 8049POPC   GL140069   5.868   1.179   8.853
 8049POPC   GL240070   5.789   1.311   8.853
 8049POPC   C1A40071   5.836   1.165   8.553
 8049POPC   D2A40072   5.821   1.253   8.253
 8049POPC   C3A40073   5.861   1.238   7.953
 8049POPC   C4A40074   5.904   1.205   7.653
 8049POPC   C1B40075   5.735   1.416   8.553
 8049POPC   C2B40076   5.686   1.385   8.253
 8049POPC   C3B40077   5.749   1.365   7.953
 8049POPC   C4B40078   5.699   1.407   7.653
 8050POPC   NC340079   1.182  43.894   9.453
 8050POPC   PO440080   1.259  43.921   9.153
 8050POPC   GL140081   1.191  43.862   8.853
 8050POPC   GL240082   1.176  44.023   8.853
 8050POPC   C1A40083   1.233  43.883   8.553
 8050POPC   D2A40084   1.171  43.850   8.253
 8050POPC   C3A40085   1.264  43.926   7.953
 8050POPC   C4A40086   1.170  43.840   7.653
 8050POPC   C1B40087   1.031  44.055   8.553
 8050POPC   C2B40088   1.078  44.116   8.253
 8050POPC   C3B40089   1.091  44.109   7.953
 8050POPC   C4B40090   1.022  44.071   7.653
 8051POPC   NC340091  26.844  12.080   9.453
 8051POPC   PO440092  26.783  12.109   9.153
 8051POPC   GL140093  26.850  12.122   8.853
 8051POPC   GL240094  26.712  12.050   8.853
 8051POPC   C1A40095  26.833  12.103   8.553
 8051POPC   D2A40096  26.805  12.066   8.253
 8051POPC   C3A40097  26.811  12.084   7.953
 8051POPC   C4A40098  26.823  12.067   7.653
 8051POPC   C1B40099  26.613  11.914   8.553
 8051POPC   C2B40100  26.577  11.959   8.253
 8051POPC   C3B40101  26.559  11.976   7.953
 8051POPC   C4B40102  26.580  11.982   7.653
 8052POPC   NC340103  33.753  15.973   9.453
 8052POPC   PO440104  33.769  15.936   9.153
 8052POPC   GL140105  33.763  15.979   8.853
 8052POPC   GL240106  33.632  15.898   8.853
 8052POPC   C1A40107  33.799  15.931   8.553
 8052POPC   D2A40108  33.755  15.920   8.253
 8052POPC   C3A40109  33.788  15.963   7.953
 8052POPC   C4A40110  33.780  15.984   7.653
 8052POPC   C1B40111  33.587  15.936   8.553
 8052POPC   C2B40112  33.602  15.922   8.253
 8052POPC   C3B40113  33.587  15.904   7.953
 8052POPC   C4B40114  33.530  15.884   7.653
 8053POPC   NC340115   2.777   0.409   9.453
 8053POPC   PO440116   2.784   0.421   9.153
 8053POPC   GL140117   2.736   0.393   8.853
 8053POPC   GL240118   2.905   0.433   8.853
 8053POPC   C1A40119   2.718   0.467   8.553
 8053POPC   D2A40120   2.732   0.442   8.253
 8053POPC   C3A40121   2.731   0.488   7.953
 8053POPC   C4A40122   2.790   0.421   7.653
 8053POPC   C1B40123   3.040   0.492   8.553
 8053POPC   C2B40124   3.012   0.506   8.253
 8053POPC   C3B40125   3.043   0.474   7.953
 8053POPC   C4B40126   2.973   0.568   7.653
 8054POPC   NC340127   5.821   6.650   9.453
 8054POPC   PO440128   5.858   6.682   9.153
 8054POPC   GL140129   5.889   6.644   8.853
 8054POPC   GL240130   5.855   6.496   8.853
 8054POPC   C1A40131   5.857   6.687   8.553
 8054POPC   D2A40132   5.850   6.607   8.253
 8054POPC   C3A40133   5.863   6.624   7.953
 8054POPC   C4A40134   5.834   6.619   7.653
 8054POPC   C1B40135   5.800   6.396   8.553
 8054POPC   C2B40136   5.754   6.433   8.253
 8054POPC   C3B40137   5.799   6.431   7.953
 8054POPC   C4B40138   5.767   6.437   7.653
 8055POPC   NC340139  10.551   6.681   9.453
 8055POPC   PO440140  10.539   6.682   9.153
 8055POPC   GL140141  10.511   6.627   8.853
 8055POPC   GL240142  10.641   6.732   8.853
 8055POPC   C1A40143  10.526   6.603   8.553
 8055POPC   D2A40144  10.482   6.619   8.253
 8055POPC   C3A40145  10.503   6.610   7.953
 8055POPC   C4A40146  10.489   6.597   7.653
 8055POPC   C1B40147  10.647   6.791   8.553
 8055POPC   C2B40148  10.671   6.801   8.253
 8055POPC   C3B40149  10.648   6.863   7.953
 8055POPC   C4B40150  10.687   6.883   7.653
 8056POPC   NC340151  14.400   3.538   9.453
 8056POPC   PO440152  14.418   3.492   9.153
 8056POPC   GL140153  14.386   3.566   8.853
 8056POPC   GL240154  14.378   3.405   8.853
 8056POPC   C1A40155  14.363   3.577   8.553
 8056POPC   D2A40156  14.448   3.521   8.253
 8056POPC   C3A40157  14.387   3.494   7.953
 8056POPC   C4A40158  14.357   3.583   7.653
 8056POPC   C1B40159  14.436   3.337   8.553
 8056POPC   C2B40160  14.428   3.299   8.253
 8056POPC   C3B40161  14.435   3.307   7.953
 8056POPC   C4B40162  14.464   3.308   7.653
 8057POPC   NC340163  39.237  14.379   9.453
 8057POPC   PO440164  39.222  14.361   9.153
 8057POPC   GL140165  39.184  14.366   8.853
 8057POPC   GL240166  39.093  14.393   8.853
 8057POPC   C1A40167  39.231  14.429   8.553
 8057POPC   D2A40168  39.265  14.425   8.253
 8057POPC   C3A40169  39.193  14.424   7.953
 8057POPC   C4A40170  39.201  14.374   7.653
 8057POPC   C1B40171  39.029  14.471   8.553
 8057POPC   C2B40172  39.015  14.379   8.253
 8057POPC   C3B40173  39.019  14.381   7.953
 8057POPC   C4B40174  38.959  14.421   7.653
 8058POPC   NC340175   5.908  19.033   9.453
 8058POPC   PO440176   5.903  19.071   9.153
 8058POPC   GL140177   5.903  19.049   8.853
 8058POPC   GL240178   5.814  18.977   8.853
 8058POPC   C1A40179   5.867  19.052   8.553
 8058POPC   D2A40180   5.876  19.091   8.253
 8058POPC   C3A40181   5.907  19.012   7.953
 8058POPC   C4A40182   5.902  19.032   7.653
 8058POPC   C1B40183   5.883  18.779   8.553
 8058POPC   C2B40184   5.818  18.770   8.253
 8058POPC   C3B40185   5.838  18.815   7.953
 8058POPC   C4B40186   5.829  18.849   7.653
 8059POPC   NC340187  39.248  12.085   9.453
 8059POPC   PO440188  39.267  12.108   9.153
 8059POPC   GL140189  39.245  12.096   8.853
 8059POPC   GL240190  39.328  12.204   8.853
 8059POPC   C1A40191  39.261  12.097   8.553
 8059POPC   D2A40192  39.248  12.070   8.253
 8059POPC   C3A40193  39.240  12.069   7.953
 8059POPC   C4A40194  39.260  12.120   7.653
 8059POPC   C1B40195  39.409  12.207   8.553
 8059POPC   C2B40196  39.437  12.198   8.253
 8059POPC   C3B40197  39.400  12.201   7.953
 8059POPC   C4B40198  39.389  12.230   7.653
 8060POPC   NC340199  10.541  26.792   9.453
 8060POPC   PO440200  10.515  26.786   9.153
 8060POPC   GL140201  10.510  26.780   8.853
 8060POPC   GL240202  10.416  26.734   8.853
 8060POPC   C1A40203  10.493  26.830   8.553
 8060POPC   D2A40204  10.556  26.841   8.253
 8060POPC   C3A40205  10.563  26.799   7.953
 8060POPC   C4A40206  10.549  26.861   7.653
 8060POPC   C1B40207  10.296  26.720   8.553
 8060POPC   C2B40208  10.316  26.674   8.253
 8060POPC   C3B40209  10.311  26.690   7.953
 8060POPC   C4B40210  10.323  26.641   7.653
 8061POPC   NC340211  19.829  15.197   9.453
 8061POPC   PO440212  19.826  15.183   9.153
 8061POPC   GL140213  19.865  15.172   8.853
 8061POPC   GL240214  19.835  15.051   8.853
 8061POPC   C1A40215  19.818  15.195   8.553
 8061POPC   D2A40216  19.800  15.200   8.253
 8061POPC   C3A40217  19.881  15.203   7.953
 8061POPC   C4A40218  19.833  15.152   7.653
 8061POPC   C1B40219  19.904  14.937   8.553
 8061POPC   C2B40220  19.821  14.930   8.253
 8061POPC   C3B40221  19.832  14.915   7.953
 8061POPC   C4B40222  19.825  14.886   7.653
 8062POPC   NC340223  12.806  31.493   9.453
 8062POPC   PO440224  12.856  31.455   9.153
 8062POPC   GL140225  12.829  31.518   8.853
 8062POPC   GL240226  12.814  31.642   8.853
 8062POPC   C1A40227  12.856  31.500   8.553
 8062POPC   D2A40228  12.881  31.518   8.253
 8062POPC   C3A40229  12.802  31.435   7.953
 8062POPC   C4A40230  12.856  31.438   7.653
 8062POPC   C1B40231  12.904  31.733   8.553
 8062POPC   C2B40232  12.903  31.713   8.253
 8062POPC   C3B40233  12.858  31.744   7.953
 8062POPC   C4B40234  12.840  31.761   7.653
 8063POPC   NC340235  36.087   4.268   9.453
 8063POPC   PO440236  36.166   4.347   9.153
 8063POPC   GL140237  36.116   4.291   8.853
 8063POPC   GL240238  36.065   4.276   8.853
 8063POPC   C1A40239  36.139   4.367   8.553
 8063POPC   D2A40240  36.142   4.312   8.253
 8063POPC   C3A40241  36.121   4.303   7.953
 8063POPC   C4A40242  36.128   4.284   7.653
 8063POPC   C1B40243  35.924   4.174   8.553
 8063POPC   C2B40244  35.859   4.222   8.253
 8063POPC   C3B40245  35.856   4.232   7.953
 8063POPC   C4B40246  35.919   4.218   7.653
 8064POPC   NC340247  26.855  39.958   9.453
 8064POPC   PO440248  26.787  39.981   9.153
 8064POPC   GL140249  26.776  40.029   8.853
 8064POPC   GL240250  26.968  39.942   8.853
 8064POPC   C1A40251  26.834  40.020   8.553
 8064POPC   D2A40252  26.796  40.050   8.253
 8064POPC   C3A40253  26.822  40.016   7.953
 8064POPC   C4A40254  26.819  40.017   7.653
 8064POPC   C1B40255  27.035  39.896   8.553
 8064POPC   C2B40256  27.036  39.920   8.253
 8064POPC   C3B40257  27.001  39.949   7.953
 8064POPC   C4B40258  27.096  39.907   7.653
 8065POPC   NC340259  32.268  27.574   9.453
 8065POPC   PO440260  32.283  27.554   9.153
 8065POPC   GL140261  32.242  27.589   8.853
 8065POPC   GL240262  32.361  27.467   8.853
 8065POPC   C1A40263  32.200  27.627   8.553
 8065POPC   D2A40264  32.205  27.581   8.253
 8065POPC   C3A40265  32.204  27.586   7.953
 8065POPC   C4A40266  32.221  27.606   7.653
 8065POPC   C1B40267  32.440  27.349   8.553
 8065POPC   C2B40268  32.381  27.434   8.253
 8065POPC   C3B40269  32.376  27.354   7.953
 8065POPC   C4B40270  32.425  27.398   7.653
 8066POPC   NC340271  36.932  31.517   9.453
 8066POPC   PO440272  36.943  31.427   9.153
 8066POPC   GL140273  36.946  31.452   8.853
 8066POPC   GL240274  36.804  31.337   8.853
 8066POPC   C1A40275  36.937  31.516   8.553
 8066POPC   D2A40276  36.866  31.456   8.253
 8066POPC   C3A40277  36.906  31.504   7.953
 8066POPC   C4A40278  36.887  31.444   7.653
 8066POPC   C1B40279  36.802  31.293   8.553
 8066POPC   C2B40280  36.726  31.232   8.253
 8066POPC   C3B40281  36.808  31.253   7.953
 8066POPC   C4B40282  36.753  31.299   7.653
 8067POPC   NC340283  44.631  15.157   9.453
 8067POPC   PO440284  44.646  15.178   9.153
 8067POPC   GL140285  44.667  15.165   8.853
 8067POPC   GL240286  44.707  15.341   8.853
 8067POPC   C1A40287  44.638  15.182   8.553
 8067POPC   D2A40288  44.697  15.139   8.253
 8067POPC   C3A40289  44.681  15.176   7.953
 8067POPC   C4A40290  44.650  15.229   7.653
 8067POPC   C1B40291  44.799  15.451   8.553
 8067POPC   C2B40292  44.740  15.457   8.253
 8067POPC   C3B40293  44.709  15.462   7.953
 8067POPC   C4B40294  44.729  15.403   7.653
 8068POPC   NC340295  13.627  11.338   9.453
 8068POPC   PO440296  13.672  11.328   9.153
 8068POPC   GL140297  13.589  11.274   8.853
 8068POPC   GL240298  13.526  11.300   8.853
 8068POPC   C1A40299  13.581  11.325   8.553
 8068POPC   D2A40300  13.630  11.316   8.253
 8068POPC   C3A40301  13.583  11.326   7.953
 8068POPC   C4A40302  13.614  11.328   7.653
 8068POPC   C1B40303  13.389  11.333   8.553
 8068POPC   C2B40304  13.351  11.296   8.253
 8068POPC   C3B40305  13.384  11.277   7.953
 8068POPC   C4B40306  13.420  11.303   7.653
 8069POPC   NC340307  12.091  36.876   9.453
 8069POPC   PO440308  12.115  36.919   9.153
 8069POPC   GL140309  12.071  36.911   8.853
 8069POPC   GL240310  12.050  37.052   8.853
 8069POPC   C1A40311  12.119  36.895   8.553
 8069POPC   D2A40312  12.069  36.895   8.253
 8069POPC   C3A40313  12.077  36.930   7.953
 8069POPC   C4A40314  12.029  36.881   7.653
 8069POPC   C1B40315  12.123  37.132   8.553
 8069POPC   C2B40316  12.133  37.152   8.253
 8069POPC   C3B40317  12.093  37.143   7.953
 8069POPC   C4B40318  12.144  37.174   7.653
 8070POPC   NC340319  24.449  34.559   9.453
 8070POPC   PO440320  24.444  34.550   9.153
 8070POPC   GL140321  24.508  34.617   8.853
 8070POPC   GL240322  24.580  34.480   8.853
 8070POPC   C1A40323  24.476  34.558   8.553
 8070POPC   D2A40324  24.455  34.595   8.253
 8070POPC   C3A40325  24.482  34.552   7.953
 8070POPC   C4A40326  24.516  34.589   7.653
 8070POPC   C1B40327  24.600  34.380   8.553
 8070POPC   C2B40328  24.601  34.389   8.253
 8070POPC   C3B40329  24.622  34.335   7.953
 8070POPC   C4B40330  24.667  34.415   7.653
 8071POPC   NC340331  15.156   2.727   9.453
 8071POPC   PO440332  15.201   2.725   9.153
 8071POPC   GL140333  15.159   2.745   8.853
 8071POPC   GL240334  15.255   2.830   8.853
 8071POPC   C1A40335  15.228   2.725   8.553
 8071POPC   D2A40336  15.168   2.776   8.253
 8071POPC   C3A40337  15.150   2.758   7.953
 8071POPC   C4A40338  15.155   2.794   7.653
 8071POPC   C1B40339  15.370   2.933   8.553
 8071POPC   C2B40340  15.300   2.924   8.253
 8071POPC   C3B40341  15.293   2.967   7.953
 8071POPC   C4B40342  15.343   2.982   7.653
 8072POPC   NC340343  26.806  43.864   9.453
 8072POPC   PO440344  26.782  43.922   9.153
 8072POPC   GL140345  26.796  43.891   8.853
 8072POPC   GL240346  26.749  43.750   8.853
 8072POPC   C1A40347  26.832  43.866   8.553
 8072POPC   D2A40348  26.821  43.920   8.253
 8072POPC   C3A40349  26.776  43.896   7.953
 8072POPC   C4A40350  26.810  43.859   7.653
 8072POPC   C1B40351  26.709  43.625   8.553
 8072POPC   C2B40352  26.756  43.634   8.253
 8072POPC   C3B40353  26.772  43.623   7.953
 8072POPC   C4B40354  26.793  43.658   7.653
 8073POPC   NC340355   4.280   0.467   9.453
 8073POPC   PO440356   4.342   0.409   9.153
 8073POPC   GL140357   4.268   0.399   8.853
 8073POPC   GL240358   4.171   0.418   8.853
 8073POPC   C1A40359   4.298   0.390   8.553
 8073POPC   D2A40360   4.358   0.458   8.253
 8073POPC   C3A40361   4.361   0.477   7.953
 8073POPC   C4A40362   4.286   0.406   7.653
 8073POPC   C1B40363   4.076   0.425   8.553
 8073POPC   C2B40364   4.116   0.409   8.253
 8073POPC   C3B40365   4.021   0.452   7.953
 8073POPC   C4B40366   4.047   0.432   7.653
 8074POPC   NC340367  15.135   1.222   9.453
 8074POPC   PO440368  15.174   1.186   9.153
 8074POPC   GL140369  15.176   1.255   8.853
 8074POPC   GL240370  15.143   1.311   8.853
 8074POPC   C1A40371  15.224   1.240   8.553
 8074POPC   D2A40372  15.193   1.247   8.253
 8074POPC   C3A40373  15.188   1.198   7.953
 8074POPC   C4A40374  15.212   1.220   7.653
 8074POPC   C1B40375  15.108   1.495   8.553
 8074POPC   C2B40376  15.101   1.471   8.253
 8074POPC   C3B40377  15.138   1.490   7.953
 8074POPC   C4B40378  15.095   1.417   7.653
 8075POPC   NC340379  20.628  22.917   9.453
 8075POPC   PO440380  20.601  22.949   9.153
 8075POPC   GL140381  20.612  22.978   8.853
 8075POPC   GL240382  20.736  23.055   8.853
 8075POPC   C1A40383  20.587  22.892   8.553
 8075POPC   D2A40384  20.607  22.981   8.253
 8075POPC   C3A40385  20.613  22.963   7.953
 8075POPC   C4A40386  20.619  22.950   7.653
 8075POPC   C1B40387  20.737  23.126   8.553
 8075POPC   C2B40388  20.741  23.158   8.253
 8075POPC   C3B40389  20.802  23.092   7.953
 8075POPC   C4B40390  20.741  23.085   7.653
 8076POPC   NC340391  21.408  33.052   9.453
 8076POPC   PO440392  21.387  33.013   9.153
 8076POPC   GL140393  21.353  32.978   8.853
 8076POPC   GL240394  21.519  33.143   8.853
 8076POPC   C1A40395  21.367  33.049   8.553
 8076POPC   D2A40396  21.368  32.997   8.253
 8076POPC   C3A40397  21.377  33.005   7.953
 8076POPC   C4A40398  21.359  32.975   7.653
 8076POPC   C1B40399  21.598  33.259   8.553
 8076POPC   C2B40400  21.556  33.206   8.253
 8076POPC   C3B40401  21.600  33.233   7.953
 8076POPC   C4B40402  21.553  33.254   7.653
 8077POPC   NC340403  43.857  37.695   9.453
 8077POPC   PO440404  43.849  37.631   9.153
 8077POPC   GL140405  43.844  37.716   8.853
 8077POPC   GL240406  43.980  37.801   8.853
 8077POPC   C1A40407  43.926  37.702   8.553
 8077POPC   D2A40408  43.867  37.693   8.253
 8077POPC   C3A40409  43.855  37.691   7.953
 8077POPC   C4A40410  43.911  37.705   7.653
 8077POPC   C1B40411  43.940  37.863   8.553
 8077POPC   C2B40412  43.957  37.905   8.253
 8077POPC   C3B40413  44.015  37.952   7.953
 8077POPC   C4B40414  44.014  37.874   7.653
 8078POPC   NC340415  34.624  20.649   9.453
 8078POPC   PO440416  34.622  20.571   9.153
 8078POPC   GL140417  34.589  20.584   8.853
 8078POPC   GL240418  34.404  20.645   8.853
 8078POPC   C1A40419  34.618  20.641   8.553
 8078POPC   D2A40420  34.553  20.600   8.253
 8078POPC   C3A40421  34.545  20.573   7.953
 8078POPC   C4A40422  34.602  20.624   7.653
 8078POPC   C1B40423  34.286  20.648   8.553
 8078POPC   C2B40424  34.356  20.644   8.253
 8078POPC   C3B40425  34.318  20.586   7.953
 8078POPC   C4B40426  34.318  20.631   7.653
 8079POPC   NC340427   2.810   1.218   9.453
 8079POPC   PO440428   2.781   1.190   9.153
 8079POPC   GL140429   2.723   1.175   8.853
 8079POPC   GL240430   2.899   1.246   8.853
 8079POPC   C1A40431   2.767   1.243   8.553
 8079POPC   D2A40432   2.779   1.235   8.253
 8079POPC   C3A40433   2.773   1.232   7.953
 8079POPC   C4A40434   2.760   1.240   7.653
 8079POPC   C1B40435   3.031   1.270   8.553
 8079POPC   C2B40436   3.046   1.288   8.253
 8079POPC   C3B40437   3.026   1.275   7.953
 8079POPC   C4B40438   3.033   1.244   7.653
 8080POPC   NC340439  42.356  36.914   9.453
 8080POPC   PO440440  42.302  36.878   9.153
 8080POPC   GL140441  42.363  36.858   8.853
 8080POPC   GL240442  42.418  36.739   8.853
 8080POPC   C1A40443  42.287  36.863   8.553
 8080POPC   D2A40444  42.295  36.917   8.253
 8080POPC   C3A40445  42.360  36.953   7.953
 8080POPC   C4A40446  42.317  36.944   7.653
 8080POPC   C1B40447  42.446  36.681   8.553
 8080POPC   C2B40448  42.414  36.712   8.253
 8080POPC   C3B40449  42.363  36.698   7.953
 8080POPC   C4B40450  42.386  36.707   7.653
 8081POPC   NC340451  34.569   1.182   9.453
 8081POPC   PO440452  34.568   1.212   9.153
 8081POPC   GL140453  34.604   1.262   8.853
 8081POPC   GL240454  34.413   1.235   8.853
 8081POPC   C1A40455  34.528   1.164   8.553
 8081POPC   D2A40456  34.547   1.178   8.253
 8081POPC   C3A40457  34.581   1.173   7.953
 8081POPC   C4A40458  34.537   1.178   7.653
 8081POPC   C1B40459  34.286   1.275   8.553
 8081POPC   C2B40460  34.326   1.237   8.253
 8081POPC   C3B40461  34.371   1.250   7.953
 8081POPC   C4B40462  34.305   1.222   7.653
 8082POPC   NC340463  22.973  39.966   9.453
 8082POPC   PO440464  22.935  39.962   9.153
 8082POPC   GL140465  22.972  39.958   8.853
 8082POPC   GL240466  22.912  40.145   8.853
 8082POPC   C1A40467  22.929  40.001   8.553
 8082POPC   D2A40468  22.977  39.979   8.253
 8082POPC   C3A40469  22.965  40.002   7.953
 8082POPC   C4A40470  22.954  39.976   7.653
 8082POPC   C1B40471  22.831  40.246   8.553
 8082POPC   C2B40472  22.858  40.269   8.253
 8082POPC   C3B40473  22.808  40.231   7.953
 8082POPC   C4B40474  22.812  40.200   7.653
 8083POPC   NC340475  13.590  35.341   9.453
 8083POPC   PO440476  13.639  35.391   9.153
 8083POPC   GL140477  13.579  35.372   8.853
 8083POPC   GL240478  13.749  35.284   8.853
 8083POPC   C1A40479  13.619  35.396   8.553
 8083POPC   D2A40480  13.648  35.385   8.253
 8083POPC   C3A40481  13.641  35.348   7.953
 8083POPC   C4A40482  13.675  35.340   7.653
 8083POPC   C1B40483  13.812  35.192   8.553
 8083POPC   C2B40484  13.864  35.205   8.253
 8083POPC   C3B40485  13.875  35.210   7.953
 8083POPC   C4B40486  13.792  35.251   7.653
 8084POPC   NC340487  33.006   4.286   9.453
 8084POPC   PO440488  33.057   4.323   9.153
 8084POPC   GL140489  32.989   4.328   8.853
 8084POPC   GL240490  32.905   4.244   8.853
 8084POPC   C1A40491  33.006   4.298   8.553
 8084POPC   D2A40492  32.997   4.292   8.253
 8084POPC   C3A40493  33.034   4.303   7.953
 8084POPC   C4A40494  33.051   4.367   7.653
 8084POPC   C1B40495  32.855   4.124   8.553
 8084POPC   C2B40496  32.863   4.114   8.253
 8084POPC   C3B40497  32.895   4.173   7.953
 8084POPC   C4B40498  32.874   4.174   7.653
 8085POPC   NC340499  37.641   3.505   9.453
 8085POPC   PO440500  37.717   3.571   9.153
 8085POPC   GL140501  37.666   3.508   8.853
 8085POPC   GL240502  37.691   3.645   8.853
 8085POPC   C1A40503  37.668   3.561   8.553
 8085POPC   D2A40504  37.707   3.499   8.253
 8085POPC   C3A40505  37.659   3.555   7.953
 8085POPC   C4A40506  37.689   3.591   7.653
 8085POPC   C1B40507  37.660   3.824   8.553
 8085POPC   C2B40508  37.596   3.760   8.253
 8085POPC   C3B40509  37.589   3.821   7.953
 8085POPC   C4B40510  37.583   3.777   7.653
 8086POPC   NC340511  29.914  22.984   9.453
 8086POPC   PO440512  29.902  22.899   9.153
 8086POPC   GL140513  29.968  22.893   8.853
 8086POPC   GL240514  29.825  22.967   8.853
 8086POPC   C1A40515  29.918  22.984   8.553
 8086POPC   D2A40516  29.920  22.954   8.253
 8086POPC   C3A40517  29.933  22.932   7.953
 8086POPC   C4A40518  29.918  22.916   7.653
 8086POPC   C1B40519  29.711  23.006   8.553
 8086POPC   C2B40520  29.635  22.969   8.253
 8086POPC   C3B40521  29.666  23.026   7.953
 8086POPC   C4B40522  29.665  22.972   7.653
 8087POPC   NC340523  12.842  23.685   9.453
 8087POPC   PO440524  12.853  23.674   9.153
 8087POPC   GL140525  12.829  23.730   8.853
 8087POPC   GL240526  12.986  23.760   8.853
 8087POPC   C1A40527  12.852  23.727   8.553
 8087POPC   D2A40528  12.898  23.697   8.253
 8087POPC   C3A40529  12.846  23.706   7.953
 8087POPC   C4A40530  12.860  23.692   7.653
 8087POPC   C1B40531  13.130  23.679   8.553
 8087POPC   C2B40532  13.101  23.697   8.253
 8087POPC   C3B40533  13.076  23.683   7.953
 8087POPC   C4B40534  13.106  23.742   7.653
 8088POPC   NC340535  32.262  23.719   9.453
 8088POPC   PO440536  32.230  23.685   9.153
 8088POPC   GL140537  32.291  23.715   8.853
 8088POPC   GL240538  32.255  23.832   8.853
 8088POPC   C1A40539  32.207  23.752   8.553
 8088POPC   D2A40540  32.220  23.730   8.253
 8088POPC   C3A40541  32.256  23.674   7.953
 8088POPC   C4A40542  32.278  23.675   7.653
 8088POPC   C1B40543  32.183  23.938   8.553
 8088POPC   C2B40544  32.155  23.946   8.253
 8088POPC   C3B40545  32.199  23.955   7.953
 8088POPC   C4B40546  32.145  23.904   7.653
 8089POPC   NC340547   7.378  36.106   9.453
 8089POPC   PO440548   7.432  36.161   9.153
 8089POPC   GL140549   7.455  36.122   8.853
 8089POPC   GL240550   7.344  36.159   8.853
 8089POPC   C1A40551   7.455  36.139   8.553
 8089POPC   D2A40552   7.436  36.114   8.253
 8089POPC   C3A40553   7.437  36.105   7.953
 8089POPC   C4A40554   7.386  36.149   7.653
 8089POPC   C1B40555   7.172  36.298   8.553
 8089POPC   C2B40556   7.163  36.262   8.253
 8089POPC   C3B40557   7.220  36.294   7.953
 8089POPC   C4B40558   7.194  36.280   7.653
 8090POPC   NC340559  42.339   1.966   9.453
 8090POPC   PO440560  42.333   1.981   9.153
 8090POPC   GL140561  42.318   1.987   8.853
 8090POPC   GL240562  42.299   2.081   8.853
 8090POPC   C1A40563  42.332   1.964   8.553
 8090POPC   D2A40564  42.357   2.029   8.253
 8090POPC   C3A40565  42.308   1.945   7.953
 8090POPC   C4A40566  42.313   1.961   7.653
 8090POPC   C1B40567  42.254   2.249   8.553
 8090POPC   C2B40568  42.248   2.213   8.253
 8090POPC   C3B40569  42.300   2.214   7.953
 8090POPC   C4B40570  42.289   2.244   7.653
 8091POPC   NC340571  22.930  40.826   9.453
 8091POPC   PO440572  22.982  40.820   9.153
 8091POPC   GL140573  22.952  40.788   8.853
 8091POPC   GL240574  22.941  40.870   8.853
 8091POPC   C1A40575  22.985  40.766   8.553
 8091POPC   D2A40576  22.932  40.803   8.253
 8091POPC   C3A40577  22.899  40.738   7.953
 8091POPC   C4A40578  22.964  40.823   7.653
 8091POPC   C1B40579  22.828  41.022   8.553
 8091POPC   C2B40580  22.880  40.993   8.253
 8091POPC   C3B40581  22.915  41.012   7.953
 8091POPC   C4B40582  22.844  41.014   7.653
 8092POPC   NC340583  36.915  29.134   5.553
 8092POPC   PO440584  36.933  29.137   5.853
 8092POPC   GL140585  36.865  29.125   6.153
 8092POPC   GL240586  36.980  29.171   6.153
 8092POPC   C1A40587  36.872  29.128   6.453
 8092POPC   D2A40588  36.927  29.147   6.753
 8092POPC   C3A40589  36.926  29.112   7.053
 8092POPC   C4A40590  36.886  29.185   7.353
 8092POPC   C1B40591  37.194  29.116   6.453
 8092POPC   C2B40592  37.119  29.166   6.753
 8092POPC   C3B40593  37.192  29.171   7.053
 8092POPC   C4B40594  37.186  29.158   7.353
 8093POPC   NC340595   2.744  21.372   5.553
 8093POPC   PO440596   2.764  21.417   5.853
 8093POPC   GL140597   2.752  21.341   6.153
 8093POPC   GL240598   2.643  21.392   6.153
 8093POPC   C1A40599   2.772  21.433   6.453
 8093POPC   D2A40600   2.741  21.384   6.753
 8093POPC   C3A40601   2.797  21.430   7.053
 8093POPC   C4A40602   2.734  21.400   7.353
 8093POPC   C1B40603   2.513  21.392   6.453
 8093POPC   C2B40604   2.538  21.359   6.753
 8093POPC   C3B40605   2.514  21.391   7.053
 8093POPC   C4B40606   2.505  21.337   7.353
 8094POPC   NC340607   0.413   4.286   5.553
 8094POPC   PO440608   0.455   4.334   5.853
 8094POPC   GL140609   0.416   4.334   6.153
 8094POPC   GL240610   0.573   4.417   6.153
 8094POPC   C1A40611   0.472   4.303   6.453
 8094POPC   D2A40612   0.416   4.358   6.753
 8094POPC   C3A40613   0.446   4.361   7.053
 8094POPC   C4A40614   0.485   4.279   7.353
 8094POPC   C1B40615   0.563   4.469   6.453
 8094POPC   C2B40616   0.650   4.550   6.753
 8094POPC   C3B40617   0.654   4.506   7.053
 8094POPC   C4B40618   0.611   4.507   7.353
 8095POPC   NC340619  11.339   5.076   5.553
 8095POPC   PO440620  11.261   5.072   5.853
 8095POPC   GL140621  11.274   5.069   6.153
 8095POPC   GL240622  11.225   5.189   6.153
 8095POPC   C1A40623  11.313   5.053   6.453
 8095POPC   D2A40624  11.321   5.141   6.753
 8095POPC   C3A40625  11.306   5.115   7.053
 8095POPC   C4A40626  11.270   5.132   7.353
 8095POPC   C1B40627  11.077   5.253   6.453
 8095POPC   C2B40628  11.105   5.207   6.753
 8095POPC   C3B40629  11.077   5.268   7.053
 8095POPC   C4B40630  11.095   5.229   7.353
 8096POPC   NC340631  26.864  18.239   5.553
 8096POPC   PO440632  26.784  18.241   5.853
 8096POPC   GL140633  26.800  18.279   6.153
 8096POPC   GL240634  26.778  18.241   6.153
 8096POPC   C1A40635  26.775  18.245   6.453
 8096POPC   D2A40636  26.864  18.317   6.753
 8096POPC   C3A40637  26.862  18.281   7.053
 8096POPC   C4A40638  26.779  18.244   7.353
 8096POPC   C1B40639  26.676  18.081   6.453
 8096POPC   C2B40640  26.688  18.058   6.753
 8096POPC   C3B40641  26.634  18.054   7.053
 8096POPC   C4B40642  26.596  18.134   7.353
 8097POPC   NC340643   3.512  40.773   5.553
 8097POPC   PO440644   3.501  40.741   5.853
 8097POPC   GL140645   3.504  40.776   6.153
 8097POPC   GL240646   3.508  40.628   6.153
 8097POPC   C1A40647   3.498  40.771   6.453
 8097POPC   D2A40648   3.590  40.750   6.753
 8097POPC   C3A40649   3.517  40.764   7.053
 8097POPC   C4A40650   3.557  40.823   7.353
 8097POPC   C1B40651   3.602  40.544   6.453
 8097POPC   C2B40652   3.527  40.536   6.753
 8097POPC   C3B40653   3.578  40.494   7.053
 8097POPC   C4B40654   3.534  40.502   7.353
 8098POPC   NC340655  26.820  42.296   5.553
 8098POPC   PO440656  26.808  42.360   5.853
 8098POPC   GL140657  26.837  42.333   6.153
 8098POPC   GL240658  26.758  42.431   6.153
 8098POPC   C1A40659  26.776  42.309   6.453
 8098POPC   D2A40660  26.781  42.342   6.753
 8098POPC   C3A40661  26.835  42.348   7.053
 8098POPC   C4A40662  26.774  42.356   7.353
 8098POPC   C1B40663  26.776  42.583   6.453
 8098POPC   C2B40664  26.742  42.612   6.753
 8098POPC   C3B40665  26.740  42.599   7.053
 8098POPC   C4B40666  26.804  42.585   7.353
 8099POPC   NC340667  12.102  10.528   5.553
 8099POPC   PO440668  12.093  10.483   5.853
 8099POPC   GL140669  12.060  10.574   6.153
 8099POPC   GL240670  12.036  10.594   6.153
 8099POPC   C1A40671  12.107  10.476   6.453
 8099POPC   D2A40672  12.047  10.533   6.753
 8099POPC   C3A40673  12.045  10.512   7.053
 8099POPC   C4A40674  12.098  10.542   7.353
 8099POPC   C1B40675  11.879  10.724   6.453
 8099POPC   C2B40676  11.946  10.735   6.753
 8099POPC   C3B40677  11.887  10.732   7.053
 8099POPC   C4B40678  11.888  10.707   7.353
 8100POPC   NC340679  25.276  39.970   5.553
 8100POPC   PO440680  25.258  39.970   5.853
 8100POPC   GL140681  25.301  40.056   6.153
 8100POPC   GL240682  25.434  39.978   6.153
 8100POPC   C1A40683  25.287  40.044   6.453
 8100POPC   D2A40684  25.298  40.049   6.753
 8100POPC   C3A40685  25.218  39.963   7.053
 8100POPC   C4A40686  25.313  39.966   7.353
 8100POPC   C1B40687  25.556  40.047   6.453
 8100POPC   C2B40688  25.518  39.994   6.753
 8100POPC   C3B40689  25.543  39.968   7.053
 8100POPC   C4B40690  25.498  39.972   7.353
 8101POPC   NC340691   6.612  25.232   5.553
 8101POPC   PO440692   6.675  25.263   5.853
 8101POPC   GL140693   6.619  25.241   6.153
 8101POPC   GL240694   6.511  25.245   6.153
 8101POPC   C1A40695   6.597  25.266   6.453
 8101POPC   D2A40696   6.664  25.314   6.753
 8101POPC   C3A40697   6.677  25.223   7.053
 8101POPC   C4A40698   6.655  25.219   7.353
 8101POPC   C1B40699   6.392  25.313   6.453
 8101POPC   C2B40700   6.426  25.248   6.753
 8101POPC   C3B40701   6.351  25.290   7.053
 8101POPC   C4B40702   6.346  25.290   7.353
 8102POPC   NC340703  26.035  33.795   5.553
 8102POPC   PO440704  26.035  33.813   5.853
 8102POPC   GL140705  25.995  33.800   6.153
 8102POPC   GL240706  26.092  33.662   6.153
 8102POPC   C1A40707  26.084  33.806   6.453
 8102POPC   D2A40708  26.013  33.815   6.753
 8102POPC   C3A40709  26.033  33.813   7.053
 8102POPC   C4A40710  26.086  33.838   7.353
 8102POPC   C1B40711  26.222  33.630   6.453
 8102POPC   C2B40712  26.223  33.629   6.753
 8102POPC   C3B40713  26.234  33.615   7.053
 8102POPC   C4B40714  26.238  33.645   7.353
 8103POPC   NC340715  43.899  12.890   5.553
 8103POPC   PO440716  43.896  12.884   5.853
 8103POPC   GL140717  43.919  12.858   6.153
 8103POPC   GL240718  43.930  12.679   6.153
 8103POPC   C1A40719  43.868  12.841   6.453
 8103POPC   D2A40720  43.896  12.820   6.753
 8103POPC   C3A40721  43.881  12.901   7.053
 8103POPC   C4A40722  43.839  12.869   7.353
 8103POPC   C1B40723  43.866  12.564   6.453
 8103POPC   C2B40724  43.921  12.584   6.753
 8103POPC   C3B40725  43.878  12.622   7.053
 8103POPC   C4B40726  43.865  12.591   7.353
 8104POPC   NC340727  33.000  15.941   5.553
 8104POPC   PO440728  33.000  15.928   5.853
 8104POPC   GL140729  32.994  15.927   6.153
 8104POPC   GL240730  33.023  16.039   6.153
 8104POPC   C1A40731  32.981  15.966   6.453
 8104POPC   D2A40732  33.001  15.956   6.753
 8104POPC   C3A40733  33.059  15.996   7.053
 8104POPC   C4A40734  33.002  15.926   7.353
 8104POPC   C1B40735  32.971  16.217   6.453
 8104POPC   C2B40736  32.951  16.219   6.753
 8104POPC   C3B40737  32.943  16.175   7.053
 8104POPC   C4B40738  32.915  16.217   7.353
 8105POPC   NC340739  15.141  29.183   5.553
 8105POPC   PO440740  15.158  29.133   5.853
 8105POPC   GL140741  15.168  29.182   6.153
 8105POPC   GL240742  15.059  29.206   6.153
 8105POPC   C1A40743  15.196  29.099   6.453
 8105POPC   D2A40744  15.151  29.182   6.753
 8105POPC   C3A40745  15.214  29.186   7.053
 8105POPC   C4A40746  15.168  29.108   7.353
 8105POPC   C1B40747  15.030  29.284   6.453
 8105POPC   C2B40748  14.999  29.348   6.753
 8105POPC   C3B40749  14.998  29.275   7.053
 8105POPC   C4B40750  15.031  29.266   7.353
 8106POPC   NC340751   5.892  29.169   5.553
 8106POPC   PO440752   5.912  29.128   5.853
 8106POPC   GL140753   5.882  29.146   6.153
 8106POPC   GL240754   5.937  29.113   6.153
 8106POPC   C1A40755   5.895  29.171   6.453
 8106POPC   D2A40756   5.896  29.171   6.753
 8106POPC   C3A40757   5.829  29.155   7.053
 8106POPC   C4A40758   5.853  29.117   7.353
 8106POPC   C1B40759   6.082  28.943   6.453
 8106POPC   C2B40760   6.017  28.982   6.753
 8106POPC   C3B40761   6.109  28.979   7.053
 8106POPC   C4B40762   6.088  29.034   7.353
 8107POPC   NC340763  23.757  23.674   5.553
 8107POPC   PO440764  23.754  23.669   5.853
 8107POPC   GL140765  23.759  23.670   6.153
 8107POPC   GL240766  23.636  23.601   6.153
 8107POPC   C1A40767  23.717  23.739   6.453
 8107POPC   D2A40768  23.727  23.708   6.753
 8107POPC   C3A40769  23.737  23.676   7.053
 8107POPC   C4A40770  23.725  23.741   7.353
 8107POPC   C1B40771  23.629  23.461   6.453
 8107POPC   C2B40772  23.574  23.450   6.753
 8107POPC   C3B40773  23.563  23.461   7.053
 8107POPC   C4B40774  23.645  23.521   7.353
 8108POPC   NC340775   3.579   2.745   5.553
 8108POPC   PO440776   3.540   2.746   5.853
 8108POPC   GL140777   3.511   2.784   6.153
 8108POPC   GL240778   3.436   2.641   6.153
 8108POPC   C1A40779   3.510   2.769   6.453
 8108POPC   D2A40780   3.542   2.764   6.753
 8108POPC   C3A40781   3.579   2.767   7.053
 8108POPC   C4A40782   3.551   2.809   7.353
 8108POPC   C1B40783   3.359   2.553   6.453
 8108POPC   C2B40784   3.371   2.511   6.753
 8108POPC   C3B40785   3.366   2.603   7.053
 8108POPC   C4B40786   3.430   2.577   7.353
 8109POPC   NC340787   0.429  23.691   5.553
 8109POPC   PO440788   0.407  23.732   5.853
 8109POPC   GL140789   0.458  23.737   6.153
 8109POPC   GL240790   0.560  23.716   6.153
 8109POPC   C1A40791   0.417  23.721   6.453
 8109POPC   D2A40792   0.418  23.697   6.753
 8109POPC   C3A40793   0.460  23.744   7.053
 8109POPC   C4A40794   0.441  23.692   7.353
 8109POPC   C1B40795   0.694  23.710   6.453
 8109POPC   C2B40796   0.737  23.748   6.753
 8109POPC   C3B40797   0.698  23.765   7.053
 8109POPC   C4B40798   0.727  23.757   7.353
 8110POPC   NC340799  18.319  40.755   5.553
 8110POPC   PO440800  18.261  40.805   5.853
 8110POPC   GL140801  18.322  40.819   6.153
 8110POPC   GL240802  18.317  40.647   6.153
 8110POPC   C1A40803  18.252  40.738   6.453
 8110POPC   D2A40804  18.325  40.789   6.753
 8110POPC   C3A40805  18.307  40.744   7.053
 8110POPC   C4A40806  18.255  40.775   7.353
 8110POPC   C1B40807  18.316  40.483   6.453
 8110POPC   C2B40808  18.316  40.548   6.753
 8110POPC   C3B40809  18.283  40.516   7.053
 8110POPC   C4B40810  18.257  40.548   7.353
 8111POPC   NC340811  26.024  29.117   5.553
 8111POPC   PO440812  26.017  29.192   5.853
 8111POPC   GL140813  26.044  29.125   6.153
 8111POPC   GL240814  26.050  28.981   6.153
 8111POPC   C1A40815  26.015  29.122   6.453
 8111POPC   D2A40816  26.033  29.104   6.753
 8111POPC   C3A40817  26.057  29.183   7.053
 8111POPC   C4A40818  26.030  29.143   7.353
 8111POPC   C1B40819  26.022  28.882   6.453
 8111POPC   C2B40820  25.990  28.876   6.753
 8111POPC   C3B40821  26.012  28.860   7.053
 8111POPC   C4B40822  26.003  28.859   7.353
 8112POPC   NC340823  43.102  24.462   5.553
 8112POPC   PO440824  43.151  24.537   5.853
 8112POPC   GL140825  43.160  24.485   6.153
 8112POPC   GL240826  43.004  24.428   6.153
 8112POPC   C1A40827  43.071  24.492   6.453
 8112POPC   D2A40828  43.122  24.483   6.753
 8112POPC   C3A40829  43.099  24.478   7.053
 8112POPC   C4A40830  43.073  24.505   7.353
 8112POPC   C1B40831  42.891  24.284   6.453
 8112POPC   C2B40832  42.973  24.301   6.753
 8112POPC   C3B40833  42.905  24.271   7.053
 8112POPC   C4B40834  42.973  24.264   7.353
 8113POPC   NC340835  25.227  12.821   5.553
 8113POPC   PO440836  25.314  12.843   5.853
 8113POPC   GL140837  25.239  12.804   6.153
 8113POPC   GL240838  25.140  12.891   6.153
 8113POPC   C1A40839  25.260  12.899   6.453
 8113POPC   D2A40840  25.234  12.813   6.753
 8113POPC   C3A40841  25.301  12.828   7.053
 8113POPC   C4A40842  25.272  12.819   7.353
 8113POPC   C1B40843  25.058  12.931   6.453
 8113POPC   C2B40844  25.051  12.925   6.753
 8113POPC   C3B40845  24.994  12.905   7.053
 8113POPC   C4B40846  25.010  12.893   7.353
 8114POPC   NC340847  29.161   5.825   5.553
 8114POPC   PO440848  29.147   5.849   5.853
 8114POPC   GL140849  29.140   5.862   6.153
 8114POPC   GL240850  29.097   5.961   6.153
 8114POPC   C1A40851  29.100   5.850   6.453
 8114POPC   D2A40852  29.150   5.888   6.753
 8114POPC   C3A40853  29.125   5.869   7.053
 8114POPC   C4A40854  29.098   5.873   7.353
 8114POPC   C1B40855  29.122   6.159   6.453
 8114POPC   C2B40856  29.054   6.129   6.753
 8114POPC   C3B40857  29.047   6.067   7.053
 8114POPC   C4B40858  29.100   6.150   7.353
 8115POPC   NC340859   8.241  14.383   5.553
 8115POPC   PO440860   8.225  14.410   5.853
 8115POPC   GL140861   8.218  14.418   6.153
 8115POPC   GL240862   8.159  14.339   6.153
 8115POPC   C1A40863   8.182  14.364   6.453
 8115POPC   D2A40864   8.148  14.394   6.753
 8115POPC   C3A40865   8.201  14.431   7.053
 8115POPC   C4A40866   8.236  14.415   7.353
 8115POPC   C1B40867   8.074  14.150   6.453
 8115POPC   C2B40868   8.098  14.141   6.753
 8115POPC   C3B40869   8.118  14.207   7.053
 8115POPC   C4B40870   8.064  14.214   7.353
 8116POPC   NC340871  18.238   0.446   5.553
 8116POPC   PO440872  18.270   0.389   5.853
 8116POPC   GL140873  18.325   0.443   6.153
 8116POPC   GL240874  18.140   0.501   6.153
 8116POPC   C1A40875  18.259   0.465   6.453
 8116POPC   D2A40876  18.277   0.399   6.753
 8116POPC   C3A40877  18.268   0.457   7.053
 8116POPC   C4A40878  18.262   0.464   7.353
 8116POPC   C1B40879  18.105   0.573   6.453
 8116POPC   C2B40880  18.064   0.547   6.753
 8116POPC   C3B40881  18.126   0.628   7.053
 8116POPC   C4B40882  18.082   0.590   7.353
 8117POPC   NC340883   6.692   5.870   5.553
 8117POPC   PO440884   6.667   5.828   5.853
 8117POPC   GL140885   6.615   5.878   6.153
 8117POPC   GL240886   6.758   5.752   6.153
 8117POPC   C1A40887   6.688   5.898   6.453
 8117POPC   D2A40888   6.652   5.820   6.753
 8117POPC   C3A40889   6.655   5.879   7.053
 8117POPC   C4A40890   6.694   5.857   7.353
 8117POPC   C1B40891   6.871   5.732   6.453
 8117POPC   C2B40892   6.873   5.725   6.753
 8117POPC   C3B40893   6.827   5.704   7.053
 8117POPC   C4B40894   6.883   5.680   7.353
 8118POPC   NC340895  43.079  13.578   5.553
 8118POPC   PO440896  43.144  13.671   5.853
 8118POPC   GL140897  43.103  13.591   6.153
 8118POPC   GL240898  43.051  13.728   6.153
 8118POPC   C1A40899  43.071  13.599   6.453
 8118POPC   D2A40900  43.140  13.659   6.753
 8118POPC   C3A40901  43.149  13.610   7.053
 8118POPC   C4A40902  43.085  13.608   7.353
 8118POPC   C1B40903  43.013  13.838   6.453
 8118POPC   C2B40904  43.026  13.843   6.753
 8118POPC   C3B40905  43.065  13.849   7.053
 8118POPC   C4B40906  43.010  13.918   7.353
 8119POPC   NC340907  44.670  44.639   5.553
 8119POPC   PO440908  44.690  44.702   5.853
 8119POPC   GL140909  44.685  44.672   6.153
 8119POPC   GL240910  44.619  44.501   6.153
 8119POPC   C1A40911  44.632  44.622   6.453
 8119POPC   D2A40912  44.619  44.662   6.753
 8119POPC   C3A40913  44.653  44.639   7.053
 8119POPC   C4A40914  44.617  44.646   7.353
 8119POPC   C1B40915  44.593  44.409   6.453
 8119POPC   C2B40916  44.602  44.423   6.753
 8119POPC   C3B40917  44.578  44.460   7.053
 8119POPC   C4B40918  44.618  44.398   7.353
 8120POPC   NC340919  31.511  18.303   5.553
 8120POPC   PO440920  31.493  18.274   5.853
 8120POPC   GL140921  31.435  18.287   6.153
 8120POPC   GL240922  31.455  18.146   6.153
 8120POPC   C1A40923  31.519  18.310   6.453
 8120POPC   D2A40924  31.439  18.325   6.753
 8120POPC   C3A40925  31.448  18.256   7.053
 8120POPC   C4A40926  31.440  18.302   7.353
 8120POPC   C1B40927  31.479  18.043   6.453
 8120POPC   C2B40928  31.488  18.055   6.753
 8120POPC   C3B40929  31.490  18.067   7.053
 8120POPC   C4B40930  31.460  17.994   7.353
 8121POPC   NC340931  20.618  15.182   5.553
 8121POPC   PO440932  20.564  15.209   5.853
 8121POPC   GL140933  20.659  15.172   6.153
 8121POPC   GL240934  20.691  15.191   6.153
 8121POPC   C1A40935  20.625  15.198   6.453
 8121POPC   D2A40936  20.600  15.148   6.753
 8121POPC   C3A40937  20.643  15.193   7.053
 8121POPC   C4A40938  20.600  15.195   7.353
 8121POPC   C1B40939  20.801  15.308   6.453
 8121POPC   C2B40940  20.827  15.257   6.753
 8121POPC   C3B40941  20.862  15.303   7.053
 8121POPC   C4B40942  20.834  15.326   7.353
 8122POPC   NC340943   5.875   5.056   5.553
 8122POPC   PO440944   5.871   5.136   5.853
 8122POPC   GL140945   5.876   5.119   6.153
 8122POPC   GL240946   5.948   5.063   6.153
 8122POPC   C1A40947   5.854   5.131   6.453
 8122POPC   D2A40948   5.846   5.050   6.753
 8122POPC   C3A40949   5.862   5.115   7.053
 8122POPC   C4A40950   5.851   5.086   7.353
 8122POPC   C1B40951   6.076   5.061   6.453
 8122POPC   C2B40952   6.143   5.063   6.753
 8122POPC   C3B40953   6.080   5.051   7.053
 8122POPC   C4B40954   6.148   5.019   7.353
 8123POPC   NC340955   7.376  33.767   5.553
 8123POPC   PO440956   7.378  33.822   5.853
 8123POPC   GL140957   7.446  33.755   6.153
 8123POPC   GL240958   7.463  33.912   6.153
 8123POPC   C1A40959   7.467  33.794   6.453
 8123POPC   D2A40960   7.415  33.829   6.753
 8123POPC   C3A40961   7.390  33.850   7.053
 8123POPC   C4A40962   7.432  33.834   7.353
 8123POPC   C1B40963   7.641  33.997   6.453
 8123POPC   C2B40964   7.627  33.987   6.753
 8123POPC   C3B40965   7.582  34.002   7.053
 8123POPC   C4B40966   7.634  33.964   7.353
 8124POPC   NC340967  34.532   0.434   5.553
 8124POPC   PO440968  34.538   0.395   5.853
 8124POPC   GL140969  34.589   0.407   6.153
 8124POPC   GL240970  34.612   0.321   6.153
 8124POPC   C1A40971  34.552   0.394   6.453
 8124POPC   D2A40972  34.581   0.431   6.753
 8124POPC   C3A40973  34.601   0.431   7.053
 8124POPC   C4A40974  34.590   0.423   7.353
 8124POPC   C1B40975  34.662   0.245   6.453
 8124POPC   C2B40976  34.656   0.183   6.753
 8124POPC   C3B40977  34.693   0.174   7.053
 8124POPC   C4B40978  34.711   0.212   7.353
 8125POPC   NC340979  42.290  31.441   5.553
 8125POPC   PO440980  42.340  31.506   5.853
 8125POPC   GL140981  42.291  31.504   6.153
 8125POPC   GL240982  42.373  31.299   6.153
 8125POPC   C1A40983  42.353  31.433   6.453
 8125POPC   D2A40984  42.333  31.466   6.753
 8125POPC   C3A40985  42.332  31.501   7.053
 8125POPC   C4A40986  42.349  31.521   7.353
 8125POPC   C1B40987  42.394  31.216   6.453
 8125POPC   C2B40988  42.313  31.210   6.753
 8125POPC   C3B40989  42.395  31.265   7.053
 8125POPC   C4B40990  42.318  31.191   7.353
 8126POPC   NC340991   1.199   1.262   5.553
 8126POPC   PO440992   1.174   1.205   5.853
 8126POPC   GL140993   1.178   1.219   6.153
 8126POPC   GL240994   1.047   1.173   6.153
 8126POPC   C1A40995   1.204   1.188   6.453
 8126POPC   D2A40996   1.256   1.238   6.753
 8126POPC   C3A40997   1.263   1.164   7.053
 8126POPC   C4A40998   1.178   1.166   7.353
 8126POPC   C1B40999   0.951   1.205   6.453
 8126POPC   C2B41000   0.990   1.180   6.753
 8126POPC   C3B41001   1.014   1.176   7.053
 8126POPC   C4B41002   0.929   1.106   7.353
 8127POPC   NC341003  12.030  35.382   5.553
 8127POPC   PO441004  12.037  35.318   5.853
 8127POPC   GL141005  12.039  35.388   6.153
 8127POPC   GL241006  12.146  35.260   6.153
 8127POPC   C1A41007  12.028  35.381   6.453
 8127POPC   D2A41008  12.094  35.337   6.753
 8127POPC   C3A41009  12.092  35.329   7.053
 8127POPC   C4A41010  12.116  35.357   7.353
 8127POPC   C1B41011  12.149  35.153   6.453
 8127POPC   C2B41012  12.206  35.116   6.753
 8127POPC   C3B41013  12.198  35.175   7.053
 8127POPC   C4B41014  12.156  35.090   7.353
 8128POPC   NC341015  43.928  31.446   5.553
 8128POPC   PO441016  43.925  31.517   5.853
 8128POPC   GL141017  43.902  31.459   6.153
 8128POPC   GL241018  43.963  31.454   6.153
 8128POPC   C1A41019  43.934  31.519   6.453
 8128POPC   D2A41020  43.915  31.436   6.753
 8128POPC   C3A41021  43.842  31.456   7.053
 8128POPC   C4A41022  43.857  31.426   7.353
 8128POPC   C1B41023  44.099  31.453   6.453
 8128POPC   C2B41024  44.146  31.427   6.753
 8128POPC   C3B41025  44.097  31.379   7.053
 8128POPC   C4B41026  44.166  31.366   7.353
 8129POPC   NC341027  36.104  36.895   5.553
 8129POPC   PO441028  36.086  36.943   5.853
 8129POPC   GL141029  36.093  36.860   6.153
 8129POPC   GL241030  36.189  36.736   6.153
 8129POPC   C1A41031  36.113  36.910   6.453
 8129POPC   D2A41032  36.099  36.924   6.753
 8129POPC   C3A41033  36.161  36.910   7.053
 8129POPC   C4A41034  36.153  36.907   7.353
 8129POPC   C1B41035  36.181  36.626   6.453
 8129POPC   C2B41036  36.146  36.627   6.753
 8129POPC   C3B41037  36.150  36.642   7.053
 8129POPC   C4B41038  36.152  36.619   7.353
 8130POPC   NC341039  43.915  37.649   5.553
 8130POPC   PO441040  43.859  37.724   5.853
 8130POPC   GL141041  43.912  37.656   6.153
 8130POPC   GL241042  43.902  37.848   6.153
 8130POPC   C1A41043  43.923  37.662   6.453
 8130POPC   D2A41044  43.850  37.686   6.753
 8130POPC   C3A41045  43.858  37.687   7.053
 8130POPC   C4A41046  43.872  37.664   7.353
 8130POPC   C1B41047  43.935  37.963   6.453
 8130POPC   C2B41048  43.880  37.954   6.753
 8130POPC   C3B41049  43.952  37.885   7.053
 8130POPC   C4B41050  43.941  37.967   7.353
 8131POPC   NC341051  39.203   2.805   5.553
 8131POPC   PO441052  39.273   2.807   5.853
 8131POPC   GL141053  39.281   2.741   6.153
 8131POPC   GL241054  39.179   2.854   6.153
 8131POPC   C1A41055  39.241   2.803   6.453
 8131POPC   D2A41056  39.215   2.771   6.753
 8131POPC   C3A41057  39.248   2.750   7.053
 8131POPC   C4A41058  39.260   2.768   7.353
 8131POPC   C1B41059  39.226   3.012   6.453
 8131POPC   C2B41060  39.216   2.989   6.753
 8131POPC   C3B41061  39.201   3.024   7.053
 8131POPC   C4B41062  39.172   2.975   7.353
 8132POPC   NC341063  36.899  30.693   5.553
 8132POPC   PO441064  36.886  30.674   5.853
 8132POPC   GL141065  36.869  30.683   6.153
 8132POPC   GL241066  36.776  30.672   6.153
 8132POPC   C1A41067  36.937  30.699   6.453
 8132POPC   D2A41068  36.908  30.648   6.753
 8132POPC   C3A41069  36.867  30.719   7.053
 8132POPC   C4A41070  36.919  30.660   7.353
 8132POPC   C1B41071  36.657  30.617   6.453
 8132POPC   C2B41072  36.620  30.660   6.753
 8132POPC   C3B41073  36.637  30.624   7.053
 8132POPC   C4B41074  36.632  30.645   7.353
 8133POPC   NC341075  12.126  18.259   5.553
 8133POPC   PO441076  12.094  18.265   5.853
 8133POPC   GL141077  12.122  18.243   6.153
 8133POPC   GL241078  11.983  18.300   6.153
 8133POPC   C1A41079  12.031  18.330   6.453
 8133POPC   D2A41080  12.057  18.265   6.753
 8133POPC   C3A41081  12.124  18.263   7.053
 8133POPC   C4A41082  12.084  18.318   7.353
 8133POPC   C1B41083  11.786  18.317   6.453
 8133POPC   C2B41084  11.819  18.251   6.753
 8133POPC   C3B41085  11.779  18.261   7.053
 8133POPC   C4B41086  11.844  18.300   7.353
 8134POPC   NC341087  30.734  22.165   5.553
 8134POPC   PO441088  30.744  22.128   5.853
 8134POPC   GL141089  30.690  22.206   6.153
 8134POPC   GL241090  30.592  22.137   6.153
 8134POPC   C1A41091  30.670  22.165   6.453
 8134POPC   D2A41092  30.703  22.158   6.753
 8134POPC   C3A41093  30.654  22.179   7.053
 8134POPC   C4A41094  30.738  22.196   7.353
 8134POPC   C1B41095  30.417  22.119   6.453
 8134POPC   C2B41096  30.425  22.103   6.753
 8134POPC   C3B41097  30.455  22.095   7.053
 8134POPC   C4B41098  30.472  22.147   7.353
 8135POPC   NC341099  12.050   6.604   5.553
 8135POPC   PO441100  12.125   6.602   5.853
 8135POPC   GL141101  12.054   6.653   6.153
 8135POPC   GL241102  12.154   6.519   6.153
 8135POPC   C1A41103  12.085   6.600   6.453
 8135POPC   D2A41104  12.065   6.652   6.753
 8135POPC   C3A41105  12.073   6.681   7.053
 8135POPC   C4A41106  12.032   6.598   7.353
 8135POPC   C1B41107  12.167   6.445   6.453
 8135POPC   C2B41108  12.254   6.430   6.753
 8135POPC   C3B41109  12.163   6.462   7.053
 8135POPC   C4B41110  12.240   6.482   7.353
 8136POPC   NC341111  32.290  28.336   5.553
 8136POPC   PO441112  32.277  28.325   5.853
 8136POPC   GL141113  32.236  28.359   6.153
 8136POPC   GL241114  32.298  28.501   6.153
 8136POPC   C1A41115  32.293  28.364   6.453
 8136POPC   D2A41116  32.245  28.392   6.753
 8136POPC   C3A41117  32.287  28.335   7.053
 8136POPC   C4A41118  32.259  28.400   7.353
 8136POPC   C1B41119  32.219  28.595   6.453
 8136POPC   C2B41120  32.282  28.659   6.753
 8136POPC   C3B41121  32.261  28.635   7.053
 8136POPC   C4B41122  32.287  28.650   7.353
 8137POPC   NC341123   5.058  29.957   5.553
 8137POPC   PO441124   5.082  29.931   5.853
 8137POPC   GL141125   5.049  29.946   6.153
 8137POPC   GL241126   5.176  29.833   6.153
 8137POPC   C1A41127   5.100  29.909   6.453
 8137POPC   D2A41128   5.110  29.894   6.753
 8137POPC   C3A41129   5.061  29.895   7.053
 8137POPC   C4A41130   5.110  29.923   7.353
 8137POPC   C1B41131   5.302  29.743   6.453
 8137POPC   C2B41132   5.290  29.763   6.753
 8137POPC   C3B41133   5.339  29.781   7.053
 8137POPC   C4B41134   5.256  29.817   7.353
 8138POPC   NC341135  31.439  19.041   5.553
 8138POPC   PO441136  31.500  19.050   5.853
 8138POPC   GL141137  31.429  19.024   6.153
 8138POPC   GL241138  31.382  19.044   6.153
 8138POPC   C1A41139  31.491  19.038   6.453
 8138POPC   D2A41140  31.450  19.031   6.753
 8138POPC   C3A41141  31.522  19.017   7.053
 8138POPC   C4A41142  31.465  19.079   7.353
 8138POPC   C1B41143  31.200  19.002   6.453
 8138POPC   C2B41144  31.213  19.044   6.753
 8138POPC   C3B41145  31.271  19.005   7.053
 8138POPC   C4B41146  31.216  19.080   7.353
 8139POPC   NC341147  16.686  17.522   5.553
 8139POPC   PO441148  16.700  17.544   5.853
 8139POPC   GL141149  16.681  17.489   6.153
 8139POPC   GL241150  16.800  17.599   6.153
 8139POPC   C1A41151  16.696  17.501   6.453
 8139POPC   D2A41152  16.776  17.464   6.753
 8139POPC   C3A41153  16.703  17.516   7.053
 8139POPC   C4A41154  16.691  17.493   7.353
 8139POPC   C1B41155  16.922  17.716   6.453
 8139POPC   C2B41156  16.887  17.719   6.753
 8139POPC   C3B41157  16.857  17.748   7.053
 8139POPC   C4B41158  16.881  17.659   7.353
 8140POPC   NC341159  31.449  22.946   5.553
 8140POPC   PO441160  31.450  22.894   5.853
 8140POPC   GL141161  31.504  22.928   6.153
 8140POPC   GL241162  31.621  22.992   6.153
 8140POPC   C1A41163  31.429  22.966   6.453
 8140POPC   D2A41164  31.473  22.905   6.753
 8140POPC   C3A41165  31.494  22.981   7.053
 8140POPC   C4A41166  31.510  22.917   7.353
 8140POPC   C1B41167  31.699  22.975   6.453
 8140POPC   C2B41168  31.680  22.952   6.753
 8140POPC   C3B41169  31.685  23.033   7.053
 8140POPC   C4B41170  31.759  22.944   7.353
 8141POPC   NC341171  29.936  28.328   5.553
 8141POPC   PO441172  29.916  28.389   5.853
 8141POPC   GL141173  29.911  28.399   6.153
 8141POPC   GL241174  29.938  28.292   6.153
 8141POPC   C1A41175  29.948  28.406   6.453
 8141POPC   D2A41176  29.883  28.411   6.753
 8141POPC   C3A41177  29.953  28.375   7.053
 8141POPC   C4A41178  29.955  28.358   7.353
 8141POPC   C1B41179  30.004  28.188   6.453
 8141POPC   C2B41180  30.009  28.146   6.753
 8141POPC   C3B41181  30.022  28.141   7.053
 8141POPC   C4B41182  30.015  28.099   7.353
 8142POPC   NC341183  12.860  16.756   5.553
 8142POPC   PO441184  12.852  16.690   5.853
 8142POPC   GL141185  12.853  16.756   6.153
 8142POPC   GL241186  12.993  16.783   6.153
 8142POPC   C1A41187  12.866  16.714   6.453
 8142POPC   D2A41188  12.834  16.748   6.753
 8142POPC   C3A41189  12.867  16.747   7.053
 8142POPC   C4A41190  12.823  16.692   7.353
 8142POPC   C1B41191  13.066  16.904   6.453
 8142POPC   C2B41192  13.073  16.871   6.753
 8142POPC   C3B41193  13.088  16.826   7.053
 8142POPC   C4B41194  13.081  16.879   7.353
 8143POPC   NC341195  21.435  13.614   5.553
 8143POPC   PO441196  21.416  13.649   5.853
 8143POPC   GL141197  21.361  13.606   6.153
 8143POPC   GL241198  21.323  13.528   6.153
 8143POPC   C1A41199  21.381  13.652   6.453
 8143POPC   D2A41200  21.391  13.669   6.753
 8143POPC   C3A41201  21.342  13.630   7.053
 8143POPC   C4A41202  21.409  13.639   7.353
 8143POPC   C1B41203  21.350  13.384   6.453
 8143POPC   C2B41204  21.319  13.363   6.753
 8143POPC   C3B41205  21.328  13.347   7.053
 8143POPC   C4B41206  21.313  13.357   7.353
 8144POPC   NC341207   9.734  10.516   5.553
 8144POPC   PO441208   9.740  10.555   5.853
 8144POPC   GL141209   9.738  10.487   6.153
 8144POPC   GL241210   9.736  10.425   6.153
 8144POPC   C1A41211   9.710  10.525   6.453
 8144POPC   D2A41212   9.780  10.552   6.753
 8144POPC   C3A41213   9.741  10.553   7.053
 8144POPC   C4A41214   9.708  10.513   7.353
 8144POPC   C1B41215   9.695  10.258   6.453
 8144POPC   C2B41216   9.705  10.328   6.753
 8144POPC   C3B41217   9.665  10.234   7.053
 8144POPC   C4B41218   9.680  10.267   7.353
 8145POPC   NC341219   9.785  12.098   5.553
 8145POPC   PO441220   9.785  12.047   5.853
 8145POPC   GL141221   9.785  12.123   6.153
 8145POPC   GL241222   9.857  12.164   6.153
 8145POPC   C1A41223   9.756  12.125   6.453
 8145POPC   D2A41224   9.715  12.046   6.753
 8145POPC   C3A41225   9.756  12.112   7.053
 8145POPC   C4A41226   9.716  12.109   7.353
 8145POPC   C1B41227   9.939  12.263   6.453
 8145POPC   C2B41228   9.941  12.173   6.753
 8145POPC   C3B41229   9.995  12.260   7.053
 8145POPC   C4B41230   9.980  12.200   7.353
 8146POPC   NC341231  19.820  15.170   5.553
 8146POPC   PO441232  19.789  15.226   5.853
 8146POPC   GL141233  19.865  15.227   6.153
 8146POPC   GL241234  19.822  15.073   6.153
 8146POPC   C1A41235  19.876  15.213   6.453
 8146POPC   D2A41236  19.816  15.195   6.753
 8146POPC   C3A41237  19.859  15.186   7.053
 8146POPC   C4A41238  19.799  15.225   7.353
 8146POPC   C1B41239  19.754  14.930   6.453
 8146POPC   C2B41240  19.805  14.912   6.753
 8146POPC   C3B41241  19.788  14.980   7.053
 8146POPC   C4B41242  19.768  14.898   7.353
 8147POPC   NC341243  35.352  42.372   5.553
 8147POPC   PO441244  35.356  42.308   5.853
 8147POPC   GL141245  35.312  42.340   6.153
 8147POPC   GL241246  35.309  42.440   6.153
 8147POPC   C1A41247  35.398  42.291   6.453
 8147POPC   D2A41248  35.314  42.363   6.753
 8147POPC   C3A41249  35.311  42.331   7.053
 8147POPC   C4A41250  35.339  42.319   7.353
 8147POPC   C1B41251  35.238  42.520   6.453
 8147POPC   C2B41252  35.228  42.494   6.753
 8147POPC   C3B41253  35.216  42.538   7.053
 8147POPC   C4B41254  35.164  42.566   7.353
 8148POPC   NC341255  26.829  22.974   5.553
 8148POPC   PO441256  26.857  22.947   5.853
 8148POPC   GL141257  26.844  22.964   6.153
 8148POPC   GL241258  26.864  23.095   6.153
 8148POPC   C1A41259  26.786  22.930   6.453
 8148POPC   D2A41260  26.795  22.974   6.753
 8148POPC   C3A41261  26.853  22.949   7.053
 8148POPC   C4A41262  26.810  22.906   7.353
 8148POPC   C1B41263  26.992  23.114   6.453
 8148POPC   C2B41264  26.973  23.186   6.753
 8148POPC   C3B41265  26.956  23.106   7.053
 8148POPC   C4B41266  26.964  23.113   7.353
 8149POPC   NC341267  42.371  15.155   5.553
 8149POPC   PO441268  42.377  15.173   5.853
 8149POPC   GL141269  42.292  15.185   6.153
 8149POPC   GL241270  42.401  15.109   6.153
 8149POPC   C1A41271  42.296  15.208   6.453
 8149POPC   D2A41272  42.351  15.196   6.753
 8149POPC   C3A41273  42.371  15.174   7.053
 8149POPC   C4A41274  42.320  15.172   7.353
 8149POPC   C1B41275  42.540  14.982   6.453
 8149POPC   C2B41276  42.469  14.984   6.753
 8149POPC   C3B41277  42.518  15.013   7.053
 8149POPC   C4B41278  42.488  15.015   7.353
 8150POPC   NC341279   8.964  22.173   5.553
 8150POPC   PO441280   8.977  22.201   5.853
 8150POPC   GL141281   9.013  22.168   6.153
 8150POPC   GL241282   9.055  22.153   6.153
 8150POPC   C1A41283   8.995  22.207   6.453
 8150POPC   D2A41284   8.990  22.113   6.753
 8150POPC   C3A41285   8.980  22.164   7.053
 8150POPC   C4A41286   8.951  22.126   7.353
 8150POPC   C1B41287   9.219  22.080   6.453
 8150POPC   C2B41288   9.185  22.083   6.753
 8150POPC   C3B41289   9.247  22.029   7.053
 8150POPC   C4B41290   9.159  22.020   7.353
 8151POPC   NC341291  17.474  22.131   5.553
 8151POPC   PO441292  17.521  22.163   5.853
 8151POPC   GL141293  17.468  22.204   6.153
 8151POPC   GL241294  17.583  22.262   6.153
 8151POPC   C1A41295  17.505  22.139   6.453
 8151POPC   D2A41296  17.532  22.182   6.753
 8151POPC   C3A41297  17.518  22.116   7.053
 8151POPC   C4A41298  17.530  22.165   7.353
 8151POPC   C1B41299  17.627  22.444   6.453
 8151POPC   C2B41300  17.581  22.375   6.753
 8151POPC   C3B41301  17.585  22.442   7.053
 8151POPC   C4B41302  17.584  22.382   7.353
 8152POPC   NC341303   4.319  16.732   5.553
 8152POPC   PO441304   4.311  16.702   5.853
 8152POPC   GL141305   4.349  16.777   6.153
 8152POPC   GL241306   4.301  16.670   6.153
 8152POPC   C1A41307   4.358  16.725   6.453
 8152POPC   D2A41308   4.277  16.744   6.753
 8152POPC   C3A41309   4.292  16.747   7.053
 8152POPC   C4A41310   4.347  16.770   7.353
 8152POPC   C1B41311   4.189  16.528   6.453
 8152POPC   C2B41312   4.191  16.495   6.753
 8152POPC   C3B41313   4.167  16.555   7.053
 8152POPC   C4B41314   4.146  16.484   7.353
 8153POPC   NC341315  17.522  43.116   5.553
 8153POPC   PO441316  17.530  43.120   5.853
 8153POPC   GL141317  17.506  43.067   6.153
 8153POPC   GL241318  17.437  43.047   6.153
 8153POPC   C1A41319  17.517  43.090   6.453
 8153POPC   D2A41320  17.539  43.097   6.753
 8153POPC   C3A41321  17.520  43.063   7.053
 8153POPC   C4A41322  17.458  43.121   7.353
 8153POPC   C1B41323  17.325  42.862   6.453
 8153POPC   C2B41324  17.369  42.857   6.753
 8153POPC   C3B41325  17.337  42.907   7.053
 8153POPC   C4B41326  17.373  42.859   7.353
 8154POPC   NC341327  22.972  16.001   5.553
 8154POPC   PO441328  22.940  15.952   5.853
 8154POPC   GL141329  22.927  15.917   6.153
 8154POPC   GL241330  23.015  15.941   6.153
 8154POPC   C1A41331  22.974  15.971   6.453
 8154POPC   D2A41332  22.903  15.941   6.753
 8154POPC   C3A41333  22.982  15.982   7.053
 8154POPC   C4A41334  22.918  15.919   7.353
 8154POPC   C1B41335  23.133  15.903   6.453
 8154POPC   C2B41336  23.134  15.907   6.753
 8154POPC   C3B41337  23.225  15.908   7.053
 8154POPC   C4B41338  23.231  15.870   7.353
 8155POPC   NC341339   4.322  38.409   5.553
 8155POPC   PO441340   4.307  38.462   5.853
 8155POPC   GL141341   4.292  38.417   6.153
 8155POPC   GL241342   4.258  38.605   6.153
 8155POPC   C1A41343   4.324  38.421   6.453
 8155POPC   D2A41344   4.297  38.423   6.753
 8155POPC   C3A41345   4.349  38.418   7.053
 8155POPC   C4A41346   4.274  38.443   7.353
 8155POPC   C1B41347   4.241  38.670   6.453
 8155POPC   C2B41348   4.163  38.724   6.753
 8155POPC   C3B41349   4.242  38.628   7.053
 8155POPC   C4B41350   4.170  38.663   7.353
 8156POPC   NC341351  12.835  34.617   5.553
 8156POPC   PO441352  12.862  34.532   5.853
 8156POPC   GL141353  12.842  34.599   6.153
 8156POPC   GL241354  12.881  34.723   6.153
 8156POPC   C1A41355  12.813  34.529   6.453
 8156POPC   D2A41356  12.869  34.574   6.753
 8156POPC   C3A41357  12.814  34.530   7.053
 8156POPC   C4A41358  12.858  34.618   7.353
 8156POPC   C1B41359  12.887  34.869   6.453
 8156POPC   C2B41360  12.851  34.835   6.753
 8156POPC   C3B41361  12.814  34.850   7.053
 8156POPC   C4B41362  12.826  34.786   7.353
 8157POPC   NC341363   6.642  36.151   5.553
 8157POPC   PO441364   6.677  36.082   5.853
 8157POPC   GL141365   6.611  36.135   6.153
 8157POPC   GL241366   6.534  36.129   6.153
 8157POPC   C1A41367   6.667  36.098   6.453
 8157POPC   D2A41368   6.657  36.097   6.753
 8157POPC   C3A41369   6.685  36.126   7.053
 8157POPC   C4A41370   6.684  36.095   7.353
 8157POPC   C1B41371   6.372  36.042   6.453
 8157POPC   C2B41372   6.427  36.085   6.753
 8157POPC   C3B41373   6.398  36.087   7.053
 8157POPC   C4B41374   6.370  36.043   7.353
 8158POPC   NC341375  41.551  25.294   5.553
 8158POPC   PO441376  41.569  25.235   5.853
 8158POPC   GL141377  41.590  25.285   6.153
 8158POPC   GL241378  41.511  25.159   6.153
 8158POPC   C1A41379  41.565  25.272   6.453
 8158POPC   D2A41380  41.523  25.235   6.753
 8158POPC   C3A41381  41.531  25.248   7.053
 8158POPC   C4A41382  41.527  25.251   7.353
 8158POPC   C1B41383  41.410  25.034   6.453
 8158POPC   C2B41384  41.409  25.070   6.753
 8158POPC   C3B41385  41.403  25.013   7.053
 8158POPC   C4B41386  41.434  25.054   7.353
 8159POPC   NC341387   4.307  15.216   5.553
 8159POPC   PO441388   4.345  15.181   5.853
 8159POPC   GL141389   4.358  15.142   6.153
 8159POPC   GL241390   4.228  15.109   6.153
 8159POPC   C1A41391   4.348  15.132   6.453
 8159POPC   D2A41392   4.360  15.151   6.753
 8159POPC   C3A41393   4.354  15.148   7.053
 8159POPC   C4A41394   4.354  15.172   7.353
 8159POPC   C1B41395   4.052  15.078   6.453
 8159POPC   C2B41396   4.130  15.040   6.753
 8159POPC   C3B41397   4.107  15.060   7.053
 8159POPC   C4B41398   4.123  15.006   7.353
 8160POPC   NC341399  43.068  14.449   5.553
 8160POPC   PO441400  43.070  14.434   5.853
 8160POPC   GL141401  43.150  14.361   6.153
 8160POPC   GL241402  43.182  14.507   6.153
 8160POPC   C1A41403  43.135  14.420   6.453
 8160POPC   D2A41404  43.109  14.355   6.753
 8160POPC   C3A41405  43.150  14.421   7.053
 8160POPC   C4A41406  43.130  14.358   7.353
 8160POPC   C1B41407  43.286  14.549   6.453
 8160POPC   C2B41408  43.317  14.600   6.753
 8160POPC   C3B41409  43.317  14.546   7.053
 8160POPC   C4B41410  43.260  14.560   7.353
 8161POPC   NC341411  33.019  36.128   5.553
 8161POPC   PO441412  33.019  36.094   5.853
 8161POPC   GL141413  33.030  36.138   6.153
 8161POPC   GL241414  32.918  36.119   6.153
 8161POPC   C1A41415  33.049  36.162   6.453
 8161POPC   D2A41416  33.017  36.151   6.753
 8161POPC   C3A41417  32.997  36.159   7.053
 8161POPC   C4A41418  33.032  36.173   7.353
 8161POPC   C1B41419  32.746  36.004   6.453
 8161POPC   C2B41420  32.756  36.060   6.753
 8161POPC   C3B41421  32.750  36.021   7.053
 8161POPC   C4B41422  32.787  36.073   7.353
 8162POPC   NC341423  33.054  25.999   5.553
 8162POPC   PO441424  33.068  26.033   5.853
 8162POPC   GL141425  33.067  26.089   6.153
 8162POPC   GL241426  32.910  26.028   6.153
 8162POPC   C1A41427  33.069  26.089   6.453
 8162POPC   D2A41428  33.034  25.994   6.753
 8162POPC   C3A41429  33.045  26.037   7.053
 8162POPC   C4A41430  33.028  26.020   7.353
 8162POPC   C1B41431  32.762  26.075   6.453
 8162POPC   C2B41432  32.816  26.083   6.753
 8162POPC   C3B41433  32.776  26.141   7.053
 8162POPC   C4B41434  32.746  26.074   7.353
 8163POPC   NC341435  20.614  19.810   5.553
 8163POPC   PO441436  20.605  19.816   5.853
 8163POPC   GL141437  20.582  19.832   6.153
 8163POPC   GL241438  20.702  19.904   6.153
 8163POPC   C1A41439  20.646  19.807   6.453
 8163POPC   D2A41440  20.591  19.860   6.753
 8163POPC   C3A41441  20.609  19.824   7.053
 8163POPC   C4A41442  20.620  19.811   7.353
 8163POPC   C1B41443  20.820  19.965   6.453
 8163POPC   C2B41444  20.841  19.972   6.753
 8163POPC   C3B41445  20.870  19.928   7.053
 8163POPC   C4B41446  20.861  19.952   7.353
 8164POPC   NC341447   4.314  29.945   5.553
 8164POPC   PO441448   4.292  29.894   5.853
 8164POPC   GL141449   4.337  29.935   6.153
 8164POPC   GL241450   4.259  29.840   6.153
 8164POPC   C1A41451   4.320  29.875   6.453
 8164POPC   D2A41452   4.352  29.876   6.753
 8164POPC   C3A41453   4.279  29.933   7.053
 8164POPC   C4A41454   4.349  29.932   7.353
 8164POPC   C1B41455   4.141  29.705   6.453
 8164POPC   C2B41456   4.198  29.664   6.753
 8164POPC   C3B41457   4.166  29.683   7.053
 8164POPC   C4B41458   4.173  29.708   7.353
 8165POPC   NC341459  19.102  17.485   5.553
 8165POPC   PO441460  19.035  17.480   5.853
 8165POPC   GL141461  19.048  17.515   6.153
 8165POPC   GL241462  19.027  17.411   6.153
 8165POPC   C1A41463  19.039  17.554   6.453
 8165POPC   D2A41464  19.013  17.458   6.753
 8165POPC   C3A41465  19.056  17.519   7.053
 8165POPC   C4A41466  19.042  17.512   7.353
 8165POPC   C1B41467  19.108  17.223   6.453
 8165POPC   C2B41468  19.046  17.294   6.753
 8165POPC   C3B41469  19.092  17.246   7.053
 8165POPC   C4B41470  19.060  17.235   7.353
 8166POPC   NC341471  36.147   1.235   5.553
 8166POPC   PO441472  36.132   1.260   5.853
 8166POPC   GL141473  36.142   1.235   6.153
 8166POPC   GL241474  36.074   1.132   6.153
 8166POPC   C1A41475  36.174   1.222   6.453
 8166POPC   D2A41476  36.153   1.237   6.753
 8166POPC   C3A41477  36.155   1.193   7.053
 8166POPC   C4A41478  36.089   1.230   7.353
 8166POPC   C1B41479  36.033   0.943   6.453
 8166POPC   C2B41480  36.091   0.979   6.753
 8166POPC   C3B41481  36.091   0.990   7.053
 8166POPC   C4B41482  36.023   1.001   7.353
 8167POPC   NC341483  12.893   8.227   5.553
 8167POPC   PO441484  12.890   8.235   5.853
 8167POPC   GL141485  12.817   8.215   6.153
 8167POPC   GL241486  12.913   8.208   6.153
 8167POPC   C1A41487  12.846   8.174   6.453
 8167POPC   D2A41488  12.831   8.233   6.753
 8167POPC   C3A41489  12.839   8.241   7.053
 8167POPC   C4A41490  12.866   8.153   7.353
 8167POPC   C1B41491  13.096   8.304   6.453
 8167POPC   C2B41492  13.026   8.327   6.753
 8167POPC   C3B41493  13.111   8.349   7.053
 8167POPC   C4B41494  13.109   8.365   7.353
 8168POPC   NC341495  19.069   5.065   5.553
 8168POPC   PO441496  19.098   5.135   5.853
 8168POPC   GL141497  19.102   5.078   6.153
 8168POPC   GL241498  19.106   5.170   6.153
 8168POPC   C1A41499  19.059   5.103   6.453
 8168POPC   D2A41500  19.024   5.120   6.753
 8168POPC   C3A41501  19.011   5.131   7.053
 8168POPC   C4A41502  19.085   5.044   7.353
 8168POPC   C1B41503  19.039   5.326   6.453
 8168POPC   C2B41504  19.070   5.324   6.753
 8168POPC   C3B41505  19.081   5.345   7.053
 8168POPC   C4B41506  19.042   5.379   7.353
 8169POPC   NC341507  23.740  10.517   5.553
 8169POPC   PO441508  23.729  10.500   5.853
 8169POPC   GL141509  23.681  10.502   6.153
 8169POPC   GL241510  23.737  10.395   6.153
 8169POPC   C1A41511  23.727  10.489   6.453
 8169POPC   D2A41512  23.673  10.530   6.753
 8169POPC   C3A41513  23.730  10.572   7.053
 8169POPC   C4A41514  23.708  10.553   7.353
 8169POPC   C1B41515  23.772  10.227   6.453
 8169POPC   C2B41516  23.739  10.260   6.753
 8169POPC   C3B41517  23.717  10.281   7.053
 8169POPC   C4B41518  23.779  10.323   7.353
 8170POPC   NC341519   5.108  30.696   5.553
 8170POPC   PO441520   5.087  30.662   5.853
 8170POPC   GL141521   5.069  30.687   6.153
 8170POPC   GL241522   5.220  30.760   6.153
 8170POPC   C1A41523   5.088  30.669   6.453
 8170POPC   D2A41524   5.106  30.735   6.753
 8170POPC   C3A41525   5.049  30.725   7.053
 8170POPC   C4A41526   5.048  30.739   7.353
 8170POPC   C1B41527   5.325  30.869   6.453
 8170POPC   C2B41528   5.286  30.849   6.753
 8170POPC   C3B41529   5.322  30.898   7.053
 8170POPC   C4B41530   5.239  30.860   7.353
 8171POPC   NC341531  25.242  29.103   5.553
 8171POPC   PO441532  25.309  29.163   5.853
 8171POPC   GL141533  25.304  29.107   6.153
 8171POPC   GL241534  25.240  29.058   6.153
 8171POPC   C1A41535  25.235  29.105   6.453
 8171POPC   D2A41536  25.228  29.104   6.753
 8171POPC   C3A41537  25.238  29.124   7.053
 8171POPC   C4A41538  25.255  29.157   7.353
 8171POPC   C1B41539  25.201  28.935   6.453
 8171POPC   C2B41540  25.222  28.911   6.753
 8171POPC   C3B41541  25.207  28.917   7.053
 8171POPC   C4B41542  25.228  28.913   7.353
 8172POPC   NC341543  10.493   2.730   5.553
 8172POPC   PO441544  10.493   2.736   5.853
 8172POPC   GL141545  10.558   2.775   6.153
 8172POPC   GL241546  10.543   2.610   6.153
 8172POPC   C1A41547  10.537   2.768   6.453
 8172POPC   D2A41548  10.496   2.814   6.753
 8172POPC   C3A41549  10.502   2.745   7.053
 8172POPC   C4A41550  10.565   2.791   7.353
 8172POPC   C1B41551  10.493   2.509   6.453
 8172POPC   C2B41552  10.469   2.519   6.753
 8172POPC   C3B41553  10.473   2.566   7.053
 8172POPC   C4B41554  10.460   2.492   7.353
 8173POPC   NC341555   4.342  42.356   5.553
 8173POPC   PO441556   4.342  42.364   5.853
 8173POPC   GL141557   4.313  42.299   6.153
 8173POPC   GL241558   4.244  42.184   6.153
 8173POPC   C1A41559   4.268  42.331   6.453
 8173POPC   D2A41560   4.363  42.327   6.753
 8173POPC   C3A41561   4.296  42.371   7.053
 8173POPC   C4A41562   4.315  42.363   7.353
 8173POPC   C1B41563   4.172  42.066   6.453
 8173POPC   C2B41564   4.218  42.163   6.753
 8173POPC   C3B41565   4.165  42.087   7.053
 8173POPC   C4B41566   4.160  42.139   7.353
 8174POPC   NC341567   6.645   2.726   5.553
 8174POPC   PO441568   6.662   2.780   5.853
 8174POPC   GL141569   6.645   2.734   6.153
 8174POPC   GL241570   6.515   2.709   6.153
 8174POPC   C1A41571   6.618   2.799   6.453
 8174POPC   D2A41572   6.632   2.731   6.753
 8174POPC   C3A41573   6.646   2.776   7.053
 8174POPC   C4A41574   6.676   2.769   7.353
 8174POPC   C1B41575   6.379   2.731   6.453
 8174POPC   C2B41576   6.418   2.707   6.753
 8174POPC   C3B41577   6.365   2.780   7.053
 8174POPC   C4B41578   6.423   2.745   7.353
 8175POPC   NC341579   2.007  24.522   5.553
 8175POPC   PO441580   1.972  24.494   5.853
 8175POPC   GL141581   1.987  24.517   6.153
 8175POPC   GL241582   1.899  24.523   6.153
 8175POPC   C1A41583   1.960  24.444   6.453
 8175POPC   D2A41584   2.004  24.473   6.753
 8175POPC   C3A41585   2.031  24.528   7.053
 8175POPC   C4A41586   1.947  24.513   7.353
 8175POPC   C1B41587   1.751  24.556   6.453
 8175POPC   C2B41588   1.757  24.534   6.753
 8175POPC   C3B41589   1.772  24.558   7.053
 8175POPC   C4B41590   1.718  24.583   7.353
 8176POPC   NC341591   8.232  43.873   5.553
 8176POPC   PO441592   8.220  43.926   5.853
 8176POPC   GL141593   8.216  43.842   6.153
 8176POPC   GL241594   8.047  43.822   6.153
 8176POPC   C1A41595   8.162  43.863   6.453
 8176POPC   D2A41596   8.217  43.875   6.753
 8176POPC   C3A41597   8.242  43.855   7.053
 8176POPC   C4A41598   8.246  43.887   7.353
 8176POPC   C1B41599   7.973  43.797   6.453
 8176POPC   C2B41600   7.983  43.805   6.753
 8176POPC   C3B41601   7.945  43.839   7.053
 8176POPC   C4B41602   7.936  43.875   7.353
 8177POPC   NC341603  24.510  19.863   5.553
 8177POPC   PO441604  24.510  19.801   5.853
 8177POPC   GL141605  24.494  19.813   6.153
 8177POPC   GL241606  24.436  19.912   6.153
 8177POPC   C1A41607  24.515  19.792   6.453
 8177POPC   D2A41608  24.523  19.837   6.753
 8177POPC   C3A41609  24.536  19.872   7.053
 8177POPC   C4A41610  24.495  19.806   7.353
 8177POPC   C1B41611  24.431  20.090   6.453
 8177POPC   C2B41612  24.370  20.087   6.753
 8177POPC   C3B41613  24.421  20.081   7.053
 8177POPC   C4B41614  24.394  20.091   7.353
 8178POPC   NC341615  32.210  43.063   5.553
 8178POPC   PO441616  32.258  43.068   5.853
 8178POPC   GL141617  32.218  43.130   6.153
 8178POPC   GL241618  32.144  43.121   6.153
 8178POPC   C1A41619  32.239  43.106   6.453
 8178POPC   D2A41620  32.240  43.093   6.753
 8178POPC   C3A41621  32.264  43.137   7.053
 8178POPC   C4A41622  32.246  43.150   7.353
 8178POPC   C1B41623  31.964  43.160   6.453
 8178POPC   C2B41624  32.001  43.158   6.753
 8178POPC   C3B41625  32.022  43.135   7.053
 8178POPC   C4B41626  32.008  43.148   7.353
 8179POPC   NC341627  27.618  14.383   5.553
 8179POPC   PO441628  27.557  14.426   5.853
 8179POPC   GL141629  27.598  14.369   6.153
 8179POPC   GL241630  27.620  14.310   6.153
 8179POPC   C1A41631  27.606  14.405   6.453
 8179POPC   D2A41632  27.640  14.450   6.753
 8179POPC   C3A41633  27.620  14.366   7.053
 8179POPC   C4A41634  27.545  14.404   7.353
 8179POPC   C1B41635  27.677  14.177   6.453
 8179POPC   C2B41636  27.651  14.122   6.753
 8179POPC   C3B41637  27.668  14.184   7.053
 8179POPC   C4B41638  27.701  14.149   7.353
 8180POPC   NC341639  40.030  38.503   5.553
 8180POPC   PO441640  40.037  38.491   5.853
 8180POPC   GL141641  40.002  38.437   6.153
 8180POPC   GL241642  40.019  38.603   6.153
 8180POPC   C1A41643  40.051  38.407   6.453
 8180POPC   D2A41644  39.998  38.406   6.753
 8180POPC   C3A41645  40.042  38.453   7.053
 8180POPC   C4A41646  40.032  38.493   7.353
 8180POPC   C1B41647  40.089  38.639   6.453
 8180POPC   C2B41648  40.118  38.689   6.753
 8180POPC   C3B41649  40.146  38.662   7.053
 8180POPC   C4B41650  40.093  38.700   7.353
 8181POPC   NC341651  39.220  40.019   5.553
 8181POPC   PO441652  39.189  39.958   5.853
 8181POPC   GL141653  39.192  40.030   6.153
 8181POPC   GL241654  39.187  40.152   6.153
 8181POPC   C1A41655  39.248  39.999   6.453
 8181POPC   D2A41656  39.224  40.050   6.753
 8181POPC   C3A41657  39.256  39.987   7.053
 8181POPC   C4A41658  39.271  40.044   7.353
 8181POPC   C1B41659  39.164  40.278   6.453
 8181POPC   C2B41660  39.167  40.273   6.753
 8181POPC   C3B41661  39.156  40.214   7.053
 8181POPC   C4B41662  39.245  40.298   7.353
 8182POPC   NC341663   7.457  29.175   5.553
 8182POPC   PO441664   7.389  29.104   5.853
 8182POPC   GL141665   7.402  29.108   6.153
 8182POPC   GL241666   7.533  29.055   6.153
 8182POPC   C1A41667   7.393  29.191   6.453
 8182POPC   D2A41668   7.414  29.099   6.753
 8182POPC   C3A41669   7.425  29.135   7.053
 8182POPC   C4A41670   7.462  29.118   7.353
 8182POPC   C1B41671   7.539  28.990   6.453
 8182POPC   C2B41672   7.558  28.970   6.753
 8182POPC   C3B41673   7.621  28.964   7.053
 8182POPC   C4B41674   7.602  28.920   7.353
 8183POPC   NC341675  33.810   0.436   5.553
 8183POPC   PO441676  33.811   0.453   5.853
 8183POPC   GL141677  33.831   0.390   6.153
 8183POPC   GL241678  33.918   0.570   6.153
 8183POPC   C1A41679  33.808   0.484   6.453
 8183POPC   D2A41680  33.789   0.471   6.753
 8183POPC   C3A41681  33.800   0.395   7.053
 8183POPC   C4A41682  33.815   0.444   7.353
 8183POPC   C1B41683  33.970   0.602   6.453
 8183POPC   C2B41684  34.013   0.631   6.753
 8183POPC   C3B41685  33.969   0.651   7.053
 8183POPC   C4B41686  33.938   0.559   7.353
 8184POPC   NC341687  20.645  23.689   5.553
 8184POPC   PO441688  20.653  23.757   5.853
 8184POPC   GL141689  20.582  23.737   6.153
 8184POPC   GL241690  20.465  23.688   6.153
 8184POPC   C1A41691  20.610  23.718   6.453
 8184POPC   D2A41692  20.583  23.702   6.753
 8184POPC   C3A41693  20.638  23.710   7.053
 8184POPC   C4A41694  20.589  23.721   7.353
 8184POPC   C1B41695  20.403  23.653   6.453
 8184POPC   C2B41696  20.328  23.687   6.753
 8184POPC   C3B41697  20.327  23.608   7.053
 8184POPC   C4B41698  20.360  23.677   7.353
 8185POPC   NC341699  19.812  36.912   5.553
 8185POPC   PO441700  19.872  36.905   5.853
 8185POPC   GL141701  19.862  36.856   6.153
 8185POPC   GL241702  19.856  37.025   6.153
 8185POPC   C1A41703  19.881  36.913   6.453
 8185POPC   D2A41704  19.788  36.928   6.753
 8185POPC   C3A41705  19.841  36.948   7.053
 8185POPC   C4A41706  19.858  36.885   7.353
 8185POPC   C1B41707  19.878  37.203   6.453
 8185POPC   C2B41708  19.825  37.131   6.753
 8185POPC   C3B41709  19.843  37.120   7.053
 8185POPC   C4B41710  19.879  37.164   7.353
 8186POPC   NC341711  34.529  28.384   5.553
 8186POPC   PO441712  34.528  28.397   5.853
 8186POPC   GL141713  34.590  28.326   6.153
 8186POPC   GL241714  34.727  28.314   6.153
 8186POPC   C1A41715  34.620  28.407   6.453
 8186POPC   D2A41716  34.526  28.410   6.753
 8186POPC   C3A41717  34.623  28.327   7.053
 8186POPC   C4A41718  34.581  28.337   7.353
 8186POPC   C1B41719  34.874  28.329   6.453
 8186POPC   C2B41720  34.816  28.304   6.753
 8186POPC   C3B41721  34.791  28.379   7.053
 8186POPC   C4B41722  34.808  28.339   7.353
 8187POPC   NC341723   1.243   7.454   5.553
 8187POPC   PO441724   1.248   7.394   5.853
 8187POPC   GL141725   1.168   7.373   6.153
 8187POPC   GL241726   1.180   7.572   6.153
 8187POPC   C1A41727   1.179   7.396   6.453
 8187POPC   D2A41728   1.193   7.389   6.753
 8187POPC   C3A41729   1.209   7.446   7.053
 8187POPC   C4A41730   1.175   7.380   7.353
 8187POPC   C1B41731   1.112   7.687   6.453
 8187POPC   C2B41732   1.175   7.683   6.753
 8187POPC   C3B41733   1.126   7.677   7.053
 8187POPC   C4B41734   1.176   7.684   7.353
 8188POPC   NC341735   4.306   5.092   5.553
 8188POPC   PO441736   4.340   5.050   5.853
 8188POPC   GL141737   4.335   5.058   6.153
 8188POPC   GL241738   4.287   4.988   6.153
 8188POPC   C1A41739   4.332   5.093   6.453
 8188POPC   D2A41740   4.326   5.086   6.753
 8188POPC   C3A41741   4.290   5.056   7.053
 8188POPC   C4A41742   4.355   5.053   7.353
 8188POPC   C1B41743   4.255   4.902   6.453
 8188POPC   C2B41744   4.271   4.869   6.753
 8188POPC   C3B41745   4.276   4.835   7.053
 8188POPC   C4B41746   4.193   4.826   7.353
 8189POPC   NC341747  26.004   9.009   5.553
 8189POPC   PO441748  26.040   9.022   5.853
 8189POPC   GL141749  26.008   8.938   6.153
 8189POPC   GL241750  26.060   8.826   6.153
 8189POPC   C1A41751  26.035   9.013   6.453
 8189POPC   D2A41752  26.000   8.952   6.753
 8189POPC   C3A41753  26.015   8.934   7.053
 8189POPC   C4A41754  26.005   8.963   7.353
 8189POPC   C1B41755  26.157   8.782   6.453
 8189POPC   C2B41756  26.123   8.728   6.753
 8189POPC   C3B41757  26.189   8.731   7.053
 8189POPC   C4B41758  26.168   8.731   7.353
 8190POPC   NC341759  16.692  22.930   5.553
 8190POPC   PO441760  16.707  22.966   5.853
 8190POPC   GL141761  16.693  22.916   6.153
 8190POPC   GL241762  16.743  23.016   6.153
 8190POPC   C1A41763  16.752  22.931   6.453
 8190POPC   D2A41764  16.746  22.931   6.753
 8190POPC   C3A41765  16.761  22.931   7.053
 8190POPC   C4A41766  16.695  22.909   7.353
 8190POPC   C1B41767  16.826  23.187   6.453
 8190POPC   C2B41768  16.807  23.154   6.753
 8190POPC   C3B41769  16.855  23.165   7.053
 8190POPC   C4B41770  16.838  23.124   7.353
 8191POPC   NC341771  10.509  23.695   5.553
 8191POPC   PO441772  10.510  23.758   5.853
 8191POPC   GL141773  10.532  23.706   6.153
 8191POPC   GL241774  10.418  23.644   6.153
 8191POPC   C1A41775  10.517  23.760   6.453
 8191POPC   D2A41776  10.497  23.718   6.753
 8191POPC   C3A41777  10.530  23.740   7.053
 8191POPC   C4A41778  10.569  23.716   7.353
 8191POPC   C1B41779  10.368  23.549   6.453
 8191POPC   C2B41780  10.317  23.510   6.753
 8191POPC   C3B41781  10.320  23.565   7.053
 8191POPC   C4B41782  10.341  23.550   7.353
 8192POPC   NC341783  40.782  22.933   5.553
 8192POPC   PO441784  40.769  22.965   5.853
 8192POPC   GL141785  40.805  22.931   6.153
 8192POPC   GL241786  40.730  22.821   6.153
 8192POPC   C1A41787  40.804  22.951   6.453
 8192POPC   D2A41788  40.771  22.920   6.753
 8192POPC   C3A41789  40.766  22.971   7.053
 8192POPC   C4A41790  40.735  22.898   7.353
 8192POPC   C1B41791  40.649  22.788   6.453
 8192POPC   C2B41792  40.647  22.755   6.753
 8192POPC   C3B41793  40.644  22.704   7.053
 8192POPC   C4B41794  40.650  22.698   7.353
 8193POPC   NC341795   8.950  26.835   5.553
 8193POPC   PO441796   8.986  26.774   5.853
 8193POPC   GL141797   8.929  26.770   6.153
 8193POPC   GL241798   9.142  26.806   6.153
 8193POPC   C1A41799   8.981  26.812   6.453
 8193POPC   D2A41800   8.935  26.863   6.753
 8193POPC   C3A41801   8.952  26.849   7.053
 8193POPC   C4A41802   8.981  26.831   7.353
 8193POPC   C1B41803   9.230  26.915   6.453
 8193POPC   C2B41804   9.201  26.915   6.753
 8193POPC   C3B41805   9.218  26.899   7.053
 8193POPC   C4B41806   9.197  26.930   7.353
 8194POPC   NC341807  26.012  26.845   5.553
 8194POPC   PO441808  26.043  26.790   5.853
 8194POPC   GL141809  26.079  26.768   6.153
 8194POPC   GL241810  26.163  26.744   6.153
 8194POPC   C1A41811  26.024  26.829   6.453
 8194POPC   D2A41812  25.998  26.772   6.753
 8194POPC   C3A41813  26.052  26.858   7.053
 8194POPC   C4A41814  26.028  26.837   7.353
 8194POPC   C1B41815  26.172  26.659   6.453
 8194POPC   C2B41816  26.251  26.670   6.753
 8194POPC   C3B41817  26.217  26.677   7.053
 8194POPC   C4B41818  26.239  26.605   7.353
 8195POPC   NC341819  32.979  12.121   5.553
 8195POPC   PO441820  33.043  12.084   5.853
 8195POPC   GL141821  33.059  12.123   6.153
 8195POPC   GL241822  32.903  12.088   6.153
 8195POPC   C1A41823  32.998  12.050   6.453
 8195POPC   D2A41824  32.978  12.112   6.753
 8195POPC   C3A41825  33.003  12.064   7.053
 8195POPC   C4A41826  33.070  12.079   7.353
 8195POPC   C1B41827  32.833  11.986   6.453
 8195POPC   C2B41828  32.795  12.000   6.753
 8195POPC   C3B41829  32.773  12.017   7.053
 8195POPC   C4B41830  32.765  12.015   7.353
 8196POPC   NC341831  41.593  38.445   5.553
 8196POPC   PO441832  41.545  38.415   5.853
 8196POPC   GL141833  41.540  38.505   6.153
 8196POPC   GL241834  41.650  38.579   6.153
 8196POPC   C1A41835  41.511  38.415   6.453
 8196POPC   D2A41836  41.562  38.427   6.753
 8196POPC   C3A41837  41.561  38.444   7.053
 8196POPC   C4A41838  41.528  38.446   7.353
 8196POPC   C1B41839  41.697  38.669   6.453
 8196POPC   C2B41840  41.689  38.644   6.753
 8196POPC   C3B41841  41.669  38.692   7.053
 8196POPC   C4B41842  41.680  38.683   7.353
 8197POPC   NC341843  34.535   5.859   5.553
 8197POPC   PO441844  34.616   5.826   5.853
 8197POPC   GL141845  34.595   5.888   6.153
 8197POPC   GL241846  34.601   5.963   6.153
 8197POPC   C1A41847  34.619   5.823   6.453
 8197POPC   D2A41848  34.565   5.846   6.753
 8197POPC   C3A41849  34.600   5.874   7.053
 8197POPC   C4A41850  34.598   5.874   7.353
 8197POPC   C1B41851  34.666   6.048   6.453
 8197POPC   C2B41852  34.694   6.057   6.753
 8197POPC   C3B41853  34.667   6.086   7.053
 8197POPC   C4B41854  34.659   6.057   7.353
 8198POPC   NC341855  21.432  24.519   5.553
 8198POPC   PO441856  21.411  24.517   5.853
 8198POPC   GL141857  21.340  24.501   6.153
 8198POPC   GL241858  21.309  24.553   6.153
 8198POPC   C1A41859  21.390  24.500   6.453
 8198POPC   D2A41860  21.383  24.492   6.753
 8198POPC   C3A41861  21.380  24.500   7.053
 8198POPC   C4A41862  21.419  24.532   7.353
 8198POPC   C1B41863  21.235  24.676   6.453
 8198POPC   C2B41864  21.211  24.659   6.753
 8198POPC   C3B41865  21.231  24.652   7.053
 8198POPC   C4B41866  21.175  24.690   7.353
 8199POPC   NC341867  17.477  43.877   5.553
 8199POPC   PO441868  17.471  43.845   5.853
 8199POPC   GL141869  17.547  43.928   6.153
 8199POPC   GL241870  17.581  43.825   6.153
 8199POPC   C1A41871  17.531  43.850   6.453
 8199POPC   D2A41872  17.546  43.869   6.753
 8199POPC   C3A41873  17.504  43.914   7.053
 8199POPC   C4A41874  17.540  43.918   7.353
 8199POPC   C1B41875  17.787  43.829   6.453
 8199POPC   C2B41876  17.747  43.822   6.753
 8199POPC   C3B41877  17.767  43.804   7.053
 8199POPC   C4B41878  17.749  43.852   7.353
 8200POPC   NC341879  35.306  15.984   5.553
 8200POPC   PO441880  35.336  15.972   5.853
 8200POPC   GL141881  35.365  15.942   6.153
 8200POPC   GL241882  35.415  15.871   6.153
 8200POPC   C1A41883  35.319  15.907   6.453
 8200POPC   D2A41884  35.315  15.988   6.753
 8200POPC   C3A41885  35.336  15.924   7.053
 8200POPC   C4A41886  35.324  15.952   7.353
 8200POPC   C1B41887  35.501  15.751   6.453
 8200POPC   C2B41888  35.492  15.796   6.753
 8200POPC   C3B41889  35.568  15.823   7.053
 8200POPC   C4B41890  35.537  15.822   7.353
 8201POPC   NC341891  30.697   9.730   5.553
 8201POPC   PO441892  30.650   9.774   5.853
 8201POPC   GL141893  30.697   9.719   6.153
 8201POPC   GL241894  30.775   9.777   6.153
 8201POPC   C1A41895  30.732   9.755   6.453
 8201POPC   D2A41896  30.648   9.774   6.753
 8201POPC   C3A41897  30.738   9.709   7.053
 8201POPC   C4A41898  30.647   9.718   7.353
 8201POPC   C1B41899  30.938   9.772   6.453
 8201POPC   C2B41900  30.966   9.791   6.753
 8201POPC   C3B41901  30.975   9.795   7.053
 8201POPC   C4B41902  30.926   9.743   7.353
 8202POPC   NC341903  26.035  43.884   5.553
 8202POPC   PO441904  26.055  43.910   5.853
 8202POPC   GL141905  26.048  43.934   6.153
 8202POPC   GL241906  26.100  43.782   6.153
 8202POPC   C1A41907  25.992  43.841   6.453
 8202POPC   D2A41908  26.048  43.885   6.753
 8202POPC   C3A41909  25.998  43.928   7.053
 8202POPC   C4A41910  26.013  43.932   7.353
 8202POPC   C1B41911  26.164  43.683   6.453
 8202POPC   C2B41912  26.181  43.698   6.753
 8202POPC   C3B41913  26.139  43.658   7.053
 8202POPC   C4B41914  26.135  43.680   7.353
 8203POPC   NC341915  33.845  21.377   5.553
 8203POPC   PO441916  33.786  21.387   5.853
 8203POPC   GL141917  33.786  21.377   6.153
 8203POPC   GL241918  33.644  21.389   6.153
 8203POPC   C1A41919  33.756  21.349   6.453
 8203POPC   D2A41920  33.779  21.415   6.753
 8203POPC   C3A41921  33.812  21.360   7.053
 8203POPC   C4A41922  33.755  21.352   7.353
 8203POPC   C1B41923  33.594  21.395   6.453
 8203POPC   C2B41924  33.547  21.401   6.753
 8203POPC   C3B41925  33.540  21.424   7.053
 8203POPC   C4B41926  33.559  21.325   7.353
 8204POPC   NC341927  36.149  18.304   5.553
 8204POPC   PO441928  36.137  18.315   5.853
 8204POPC   GL141929  36.120  18.312   6.153
 8204POPC   GL241930  36.204  18.301   6.153
 8204POPC   C1A41931  36.103  18.299   6.453
 8204POPC   D2A41932  36.092  18.289   6.753
 8204POPC   C3A41933  36.080  18.248   7.053
 8204POPC   C4A41934  36.160  18.326   7.353
 8204POPC   C1B41935  36.399  18.424   6.453
 8204POPC   C2B41936  36.309  18.401   6.753
 8204POPC   C3B41937  36.372  18.434   7.053
 8204POPC   C4B41938  36.399  18.410   7.353
 8205POPC   NC341939  12.075  27.628   5.553
 8205POPC   PO441940  12.058  27.587   5.853
 8205POPC   GL141941  12.032  27.632   6.153
 8205POPC   GL241942  11.973  27.610   6.153
 8205POPC   C1A41943  12.085  27.576   6.453
 8205POPC   D2A41944  12.118  27.616   6.753
 8205POPC   C3A41945  12.078  27.553   7.053
 8205POPC   C4A41946  12.112  27.584   7.353
 8205POPC   C1B41947  11.815  27.732   6.453
 8205POPC   C2B41948  11.899  27.700   6.753
 8205POPC   C3B41949  11.812  27.707   7.053
 8205POPC   C4B41950  11.849  27.718   7.353
 8206POPC   NC341951  39.201   1.993   5.553
 8206POPC   PO441952  39.206   1.973   5.853
 8206POPC   GL141953  39.231   1.965   6.153
 8206POPC   GL241954  39.095   1.916   6.153
 8206POPC   C1A41955  39.273   1.986   6.453
 8206POPC   D2A41956  39.199   1.956   6.753
 8206POPC   C3A41957  39.279   2.024   7.053
 8206POPC   C4A41958  39.268   2.030   7.353
 8206POPC   C1B41959  39.053   1.854   6.453
 8206POPC   C2B41960  39.034   1.807   6.753
 8206POPC   C3B41961  39.070   1.813   7.053
 8206POPC   C4B41962  39.007   1.863   7.353
 8207POPC   NC341963  10.511  44.711   5.553
 8207POPC   PO441964  10.514  44.678   5.853
 8207POPC   GL141965  10.530  44.629   6.153
 8207POPC   GL241966  10.405  44.597   6.153
 8207POPC   C1A41967  10.547  44.684   6.453
 8207POPC   D2A41968  10.571  44.616   6.753
 8207POPC   C3A41969  10.481  44.630   7.053
 8207POPC   C4A41970  10.485  44.632   7.353
 8207POPC   C1B41971  10.360  44.529   6.453
 8207POPC   C2B41972  10.277  44.523   6.753
 8207POPC   C3B41973  10.368  44.516   7.053
 8207POPC   C4B41974  10.365  44.560   7.353
 8208POPC   NC341975  29.887  32.277   5.553
 8208POPC   PO441976  29.945  32.209   5.853
 8208POPC   GL141977  29.946  32.230   6.153
 8208POPC   GL241978  29.953  32.143   6.153
 8208POPC   C1A41979  29.887  32.245   6.453
 8208POPC   D2A41980  29.901  32.215   6.753
 8208POPC   C3A41981  29.949  32.219   7.053
 8208POPC   C4A41982  29.935  32.216   7.353
 8208POPC   C1B41983  29.947  31.960   6.453
 8208POPC   C2B41984  29.962  31.966   6.753
 8208POPC   C3B41985  29.968  32.038   7.053
 8208POPC   C4B41986  29.902  32.043   7.353
 8209POPC   NC341987  27.620   6.625   5.553
 8209POPC   PO441988  27.637   6.649   5.853
 8209POPC   GL141989  27.630   6.667   6.153
 8209POPC   GL241990  27.469   6.601   6.153
 8209POPC   C1A41991  27.554   6.632   6.453
 8209POPC   D2A41992  27.595   6.618   6.753
 8209POPC   C3A41993  27.622   6.665   7.053
 8209POPC   C4A41994  27.630   6.638   7.353
 8209POPC   C1B41995  27.362   6.451   6.453
 8209POPC   C2B41996  27.434   6.461   6.753
 8209POPC   C3B41997  27.440   6.446   7.053
 8209POPC   C4B41998  27.445   6.455   7.353
 8210POPC   NC341999  40.004   9.780   5.553
 8210POPC   PO442000  40.031   9.713   5.853
 8210POPC   GL142001  39.985   9.738   6.153
 8210POPC   GL242002  39.859   9.736   6.153
 8210POPC   C1A42003  40.044   9.749   6.453
 8210POPC   D2A42004  40.033   9.758   6.753
 8210POPC   C3A42005  39.963   9.732   7.053
 8210POPC   C4A42006  39.977   9.723   7.353
 8210POPC   C1B42007  39.773   9.668   6.453
 8210POPC   C2B42008  39.795   9.657   6.753
 8210POPC   C3B42009  39.783   9.651   7.053
 8210POPC   C4B42010  39.760   9.636   7.353
 8211POPC   NC342011  12.091   3.556   5.553
 8211POPC   PO442012  12.073   3.554   5.853
 8211POPC   GL142013  12.026   3.581   6.153
 8211POPC   GL242014  12.190   3.405   6.153
 8211POPC   C1A42015  12.075   3.549   6.453
 8211POPC   D2A42016  12.030   3.498   6.753
 8211POPC   C3A42017  12.086   3.577   7.053
 8211POPC   C4A42018  12.120   3.586   7.353
 8211POPC   C1B42019  12.176   3.374   6.453
 8211POPC   C2B42020  12.254   3.371   6.753
 8211POPC   C3B42021  12.242   3.324   7.053
 8211POPC   C4B42022  12.191   3.306   7.353
 8212POPC   NC342023  38.406  34.623   5.553
 8212POPC   PO442024  38.485  34.527   5.853
 8212POPC   GL142025  38.495  34.617   6.153
 8212POPC   GL242026  38.421  34.412   6.153
 8212POPC   C1A42027  38.487  34.576   6.453
 8212POPC   D2A42028  38.433  34.571   6.753
 8212POPC   C3A42029  38.424  34.591   7.053
 8212POPC   C4A42030  38.481  34.604   7.353
 8212POPC   C1B42031  38.479  34.311   6.453
 8212POPC   C2B42032  38.475  34.317   6.753
 8212POPC   C3B42033  38.485  34.291   7.053
 8212POPC   C4B42034  38.497  34.328   7.353
 8213POPC   NC342035  22.921  15.228   5.553
 8213POPC   PO442036  22.980  15.206   5.853
 8213POPC   GL142037  22.954  15.190   6.153
 8213POPC   GL242038  22.848  15.157   6.153
 8213POPC   C1A42039  22.988  15.210   6.453
 8213POPC   D2A42040  22.912  15.180   6.753
 8213POPC   C3A42041  22.956  15.198   7.053
 8213POPC   C4A42042  22.893  15.192   7.353
 8213POPC   C1B42043  22.682  15.108   6.453
 8213POPC   C2B42044  22.723  15.143   6.753
 8213POPC   C3B42045  22.661  15.126   7.053
 8213POPC   C4B42046  22.652  15.156   7.353
 8214POPC   NC342047   2.761   9.738   5.553
 8214POPC   PO442048   2.764   9.725   5.853
 8214POPC   GL142049   2.802   9.700   6.153
 8214POPC   GL242050   2.853   9.787   6.153
 8214POPC   C1A42051   2.774   9.765   6.453
 8214POPC   D2A42052   2.802   9.775   6.753
 8214POPC   C3A42053   2.766   9.773   7.053
 8214POPC   C4A42054   2.760   9.764   7.353
 8214POPC   C1B42055   2.994   9.804   6.453
 8214POPC   C2B42056   2.979   9.791   6.753
 8214POPC   C3B42057   3.018   9.820   7.053
 8214POPC   C4B42058   2.986   9.750   7.353
 8215POPC   NC342059   0.392  37.719   5.553
 8215POPC   PO442060   0.464  37.672   5.853
 8215POPC   GL142061   0.438  37.631   6.153
 8215POPC   GL242062   0.573  37.627   6.153
 8215POPC   C1A42063   0.453  37.659   6.453
 8215POPC   D2A42064   0.442  37.722   6.753
 8215POPC   C3A42065   0.408  37.656   7.053
 8215POPC   C4A42066   0.470  37.710   7.353
 8215POPC   C1B42067   0.661  37.622   6.453
 8215POPC   C2B42068   0.636  37.649   6.753
 8215POPC   C3B42069   0.636  37.608   7.053
 8215POPC   C4B42070   0.684  37.625   7.353
 8216POPC   NC342071   7.393  31.500   5.553
 8216POPC   PO442072   7.435  31.518   5.853
 8216POPC   GL142073   7.425  31.449   6.153
 8216POPC   GL242074   7.331  31.411   6.153
 8216POPC   C1A42075   7.450  31.455   6.453
 8216POPC   D2A42076   7.383  31.522   6.753
 8216POPC   C3A42077   7.465  31.447   7.053
 8216POPC   C4A42078   7.454  31.479   7.353
 8216POPC   C1B42079   7.253  31.331   6.453
 8216POPC   C2B42080   7.246  31.344   6.753
 8216POPC   C3B42081   7.198  31.296   7.053
 8216POPC   C4B42082   7.207  31.351   7.353
 8217POPC   NC342083  42.370  40.012   5.553
 8217POPC   PO442084  42.349  40.010   5.853
 8217POPC   GL142085  42.371  39.960   6.153
 8217POPC   GL242086  42.476  40.002   6.153
 8217POPC   C1A42087  42.310  39.972   6.453
 8217POPC   D2A42088  42.363  39.976   6.753
 8217POPC   C3A42089  42.346  40.029   7.053
 8217POPC   C4A42090  42.348  40.052   7.353
 8217POPC   C1B42091  42.536  40.085   6.453
 8217POPC   C2B42092  42.575  40.018   6.753
 8217POPC   C3B42093  42.567  40.040   7.053
 8217POPC   C4B42094  42.583  40.083   7.353
 8218POPC   NC342095  15.982  22.156   5.553
 8218POPC   PO442096  15.999  22.170   5.853
 8218POPC   GL142097  15.947  22.203   6.153
 8218POPC   GL242098  15.819  22.212   6.153
 8218POPC   C1A42099  15.962  22.145   6.453
 8218POPC   D2A42100  15.957  22.123   6.753
 8218POPC   C3A42101  15.957  22.198   7.053
 8218POPC   C4A42102  16.001  22.146   7.353
 8218POPC   C1B42103  15.681  22.188   6.453
 8218POPC   C2B42104  15.728  22.151   6.753
 8218POPC   C3B42105  15.684  22.198   7.053
 8218POPC   C4B42106  15.688  22.181   7.353
 8219POPC   NC342107  37.631  39.208   5.553
 8219POPC   PO442108  37.641  39.212   5.853
 8219POPC   GL142109  37.666  39.277   6.153
 8219POPC   GL242110  37.727  39.386   6.153
 8219POPC   C1A42111  37.710  39.269   6.453
 8219POPC   D2A42112  37.639  39.211   6.753
 8219POPC   C3A42113  37.637  39.270   7.053
 8219POPC   C4A42114  37.657  39.191   7.353
 8219POPC   C1B42115  37.767  39.424   6.453
 8219POPC   C2B42116  37.802  39.406   6.753
 8219POPC   C3B42117  37.825  39.415   7.053
 8219POPC   C4B42118  37.790  39.482   7.353
 8220POPC   NC342119  25.254  40.760   5.553
 8220POPC   PO442120  25.278  40.784   5.853
 8220POPC   GL142121  25.252  40.754   6.153
 8220POPC   GL242122  25.170  40.805   6.153
 8220POPC   C1A42123  25.240  40.778   6.453
 8220POPC   D2A42124  25.249  40.806   6.753
 8220POPC   C3A42125  25.300  40.812   7.053
 8220POPC   C4A42126  25.234  40.778   7.353
 8220POPC   C1B42127  25.031  40.842   6.453
 8220POPC   C2B42128  25.058  40.867   6.753
 8220POPC   C3B42129  25.062  40.873   7.053
 8220POPC   C4B42130  24.992  40.855   7.353
 8221POPC   NC342131   6.674  20.638   5.553
 8221POPC   PO442132   6.679  20.597   5.853
 8221POPC   GL142133   6.602  20.653   6.153
 8221POPC   GL242134   6.522  20.551   6.153
 8221POPC   C1A42135   6.669  20.620   6.453
 8221POPC   D2A42136   6.675  20.598   6.753
 8221POPC   C3A42137   6.657  20.609   7.053
 8221POPC   C4A42138   6.650  20.601   7.353
 8221POPC   C1B42139   6.462  20.457   6.453
 8221POPC   C2B42140   6.475  20.441   6.753
 8221POPC   C3B42141   6.523  20.468   7.053
 8221POPC   C4B42142   6.500  20.402   7.353
 8222POPC   NC342143  24.457  15.191   5.553
 8222POPC   PO442144  24.532  15.159   5.853
 8222POPC   GL142145  24.485  15.141   6.153
 8222POPC   GL242146  24.371  15.246   6.153
 8222POPC   C1A42147  24.519  15.195   6.453
 8222POPC   D2A42148  24.463  15.145   6.753
 8222POPC   C3A42149  24.519  15.148   7.053
 8222POPC   C4A42150  24.481  15.209   7.353
 8222POPC   C1B42151  24.262  15.237   6.453
 8222POPC   C2B42152  24.215  15.285   6.753
 8222POPC   C3B42153  24.230  15.293   7.053
 8222POPC   C4B42154  24.289  15.309   7.353
 8223POPC   NC342155  25.236  19.846   5.553
 8223POPC   PO442156  25.278  19.792   5.853
 8223POPC   GL142157  25.223  19.833   6.153
 8223POPC   GL242158  25.246  19.666   6.153
 8223POPC   C1A42159  25.231  19.854   6.453
 8223POPC   D2A42160  25.268  19.801   6.753
 8223POPC   C3A42161  25.309  19.870   7.053
 8223POPC   C4A42162  25.283  19.805   7.353
 8223POPC   C1B42163  25.303  19.624   6.453
 8223POPC   C2B42164  25.355  19.582   6.753
 8223POPC   C3B42165  25.281  19.599   7.053
 8223POPC   C4B42166  25.355  19.632   7.353
 8224POPC   NC342167  39.258  32.286   5.553
 8224POPC   PO442168  39.200  32.263   5.853
 8224POPC   GL142169  39.274  32.268   6.153
 8224POPC   GL242170  39.155  32.171   6.153
 8224POPC   C1A42171  39.218  32.232   6.453
 8224POPC   D2A42172  39.272  32.258   6.753
 8224POPC   C3A42173  39.219  32.205   7.053
 8224POPC   C4A42174  39.252  32.236   7.353
 8224POPC   C1B42175  39.185  31.999   6.453
 8224POPC   C2B42176  39.155  32.009   6.753
 8224POPC   C3B42177  39.133  31.992   7.053
 8224POPC   C4B42178  39.107  32.025   7.353
 8225POPC   NC342179  27.577  12.852   5.553
 8225POPC   PO442180  27.611  12.888   5.853
 8225POPC   GL142181  27.617  12.893   6.153
 8225POPC   GL242182  27.531  12.710   6.153
 8225POPC   C1A42183  27.571  12.811   6.453
 8225POPC   D2A42184  27.629  12.864   6.753
 8225POPC   C3A42185  27.573  12.899   7.053
 8225POPC   C4A42186  27.578  12.860   7.353
 8225POPC   C1B42187  27.561  12.595   6.453
 8225POPC   C2B42188  27.503  12.598   6.753
 8225POPC   C3B42189  27.506  12.563   7.053
 8225POPC   C4B42190  27.558  12.583   7.353
 8226POPC   NC342191  12.069  17.507   5.553
 8226POPC   PO442192  12.090  17.514   5.853
 8226POPC   GL142193  12.041  17.463   6.153
 8226POPC   GL242194  12.170  17.620   6.153
 8226POPC   C1A42195  12.096  17.544   6.453
 8226POPC   D2A42196  12.081  17.481   6.753
 8226POPC   C3A42197  12.099  17.490   7.053
 8226POPC   C4A42198  12.074  17.498   7.353
 8226POPC   C1B42199  12.214  17.684   6.453
 8226POPC   C2B42200  12.259  17.747   6.753
 8226POPC   C3B42201  12.246  17.736   7.053
 8226POPC   C4B42202  12.210  17.730   7.353
 8227POPC   NC342203  29.116  26.841   5.553
 8227POPC   PO442204  29.169  26.855   5.853
 8227POPC   GL142205  29.160  26.785   6.153
 8227POPC   GL242206  29.128  26.720   6.153
 8227POPC   C1A42207  29.096  26.860   6.453
 8227POPC   D2A42208  29.134  26.855   6.753
 8227POPC   C3A42209  29.153  26.835   7.053
 8227POPC   C4A42210  29.103  26.821   7.353
 8227POPC   C1B42211  29.173  26.586   6.453
 8227POPC   C2B42212  29.138  26.573   6.753
 8227POPC   C3B42213  29.135  26.545   7.053
 8227POPC   C4B42214  29.121  26.531   7.353
 8228POPC   NC342215  31.499  12.094   5.553
 8228POPC   PO442216  31.442  12.099   5.853
 8228POPC   GL142217  31.479  12.065   6.153
 8228POPC   GL242218  31.542  11.965   6.153
 8228POPC   C1A42219  31.464  12.086   6.453
 8228POPC   D2A42220  31.482  12.089   6.753
 8228POPC   C3A42221  31.458  12.085   7.053
 8228POPC   C4A42222  31.471  12.063   7.353
 8228POPC   C1B42223  31.646  11.905   6.453
 8228POPC   C2B42224  31.640  11.902   6.753
 8228POPC   C3B42225  31.654  11.905   7.053
 8228POPC   C4B42226  31.715  11.935   7.353
 8229POPC   NC342227  39.971  42.354   5.553
 8229POPC   PO442228  39.972  42.287   5.853
 8229POPC   GL142229  40.029  42.309   6.153
 8229POPC   GL242230  39.898  42.360   6.153
 8229POPC   C1A42231  39.966  42.379   6.453
 8229POPC   D2A42232  39.990  42.377   6.753
 8229POPC   C3A42233  39.961  42.345   7.053
 8229POPC   C4A42234  39.981  42.335   7.353
 8229POPC   C1B42235  39.796  42.457   6.453
 8229POPC   C2B42236  39.783  42.516   6.753
 8229POPC   C3B42237  39.767  42.489   7.053
 8229POPC   C4B42238  39.748  42.473   7.353
 8230POPC   NC342239  36.868   5.112   5.553
 8230POPC   PO442240  36.945   5.137   5.853
 8230POPC   GL142241  36.925   5.108   6.153
 8230POPC   GL242242  36.873   5.189   6.153
 8230POPC   C1A42243  36.897   5.112   6.453
 8230POPC   D2A42244  36.950   5.134   6.753
 8230POPC   C3A42245  36.913   5.059   7.053
 8230POPC   C4A42246  36.885   5.071   7.353
 8230POPC   C1B42247  36.736   5.281   6.453
 8230POPC   C2B42248  36.785   5.339   6.753
 8230POPC   C3B42249  36.817   5.352   7.053
 8230POPC   C4B42250  36.750   5.354   7.353
 8231POPC   NC342251  25.293  28.321   5.553
 8231POPC   PO442252  25.288  28.403   5.853
 8231POPC   GL142253  25.218  28.331   6.153
 8231POPC   GL242254  25.193  28.446   6.153
 8231POPC   C1A42255  25.220  28.395   6.453
 8231POPC   D2A42256  25.285  28.390   6.753
 8231POPC   C3A42257  25.262  28.322   7.053
 8231POPC   C4A42258  25.228  28.355   7.353
 8231POPC   C1B42259  25.057  28.490   6.453
 8231POPC   C2B42260  25.078  28.495   6.753
 8231POPC   C3B42261  25.064  28.537   7.053
 8231POPC   C4B42262  25.016  28.489   7.353
 8232POPC   NC342263  40.768  12.120   5.553
 8232POPC   PO442264  40.823  12.089   5.853
 8232POPC   GL142265  40.754  12.074   6.153
 8232POPC   GL242266  40.846  11.926   6.153
 8232POPC   C1A42267  40.764  12.110   6.453
 8232POPC   D2A42268  40.784  12.112   6.753
 8232POPC   C3A42269  40.737  12.121   7.053
 8232POPC   C4A42270  40.749  12.052   7.353
 8232POPC   C1B42271  40.852  11.842   6.453
 8232POPC   C2B42272  40.782  11.875   6.753
 8232POPC   C3B42273  40.851  11.784   7.053
 8232POPC   C4B42274  40.824  11.804   7.353
 8233POPC   NC342275  10.500  19.802   5.553
 8233POPC   PO442276  10.508  19.821   5.853
 8233POPC   GL142277  10.493  19.791   6.153
 8233POPC   GL242278  10.580  19.878   6.153
 8233POPC   C1A42279  10.496  19.801   6.453
 8233POPC   D2A42280  10.554  19.815   6.753
 8233POPC   C3A42281  10.518  19.791   7.053
 8233POPC   C4A42282  10.523  19.827   7.353
 8233POPC   C1B42283  10.734  20.001   6.453
 8233POPC   C2B42284  10.707  19.960   6.753
 8233POPC   C3B42285  10.739  20.011   7.053
 8233POPC   C4B42286  10.711  19.959   7.353
 8234POPC   NC342287  17.490   5.877   5.553
 8234POPC   PO442288  17.502   5.912   5.853
 8234POPC   GL142289  17.514   5.855   6.153
 8234POPC   GL242290  17.569   5.965   6.153
 8234POPC   C1A42291  17.517   5.834   6.453
 8234POPC   D2A42292  17.527   5.875   6.753
 8234POPC   C3A42293  17.482   5.830   7.053
 8234POPC   C4A42294  17.476   5.853   7.353
 8234POPC   C1B42295  17.688   6.038   6.453
 8234POPC   C2B42296  17.640   6.038   6.753
 8234POPC   C3B42297  17.697   6.044   7.053
 8234POPC   C4B42298  17.658   6.059   7.353
 8235POPC   NC342299  39.278  34.533   5.553
 8235POPC   PO442300  39.219  34.604   5.853
 8235POPC   GL142301  39.197  34.604   6.153
 8235POPC   GL242302  39.143  34.507   6.153
 8235POPC   C1A42303  39.205  34.600   6.453
 8235POPC   D2A42304  39.254  34.566   6.753
 8235POPC   C3A42305  39.268  34.585   7.053
 8235POPC   C4A42306  39.184  34.591   7.353
 8235POPC   C1B42307  38.967  34.576   6.453
 8235POPC   C2B42308  38.994  34.584   6.753
 8235POPC   C3B42309  38.952  34.520   7.053
 8235POPC   C4B42310  38.987  34.558   7.353
 8236POPC   NC342311   2.782  17.524   5.553
 8236POPC   PO442312   2.730  17.524   5.853
 8236POPC   GL142313   2.721  17.460   6.153
 8236POPC   GL242314   2.770  17.678   6.153
 8236POPC   C1A42315   2.748  17.478   6.453
 8236POPC   D2A42316   2.743  17.498   6.753
 8236POPC   C3A42317   2.776  17.464   7.053
 8236POPC   C4A42318   2.815  17.459   7.353
 8236POPC   C1B42319   2.790  17.758   6.453
 8236POPC   C2B42320   2.862  17.745   6.753
 8236POPC   C3B42321   2.826  17.721   7.053
 8236POPC   C4B42322   2.772  17.743   7.353
 8237POPC   NC342323  19.832  16.712   5.553
 8237POPC   PO442324  19.831  16.755   5.853
 8237POPC   GL142325  19.876  16.683   6.153
 8237POPC   GL242326  19.896  16.623   6.153
 8237POPC   C1A42327  19.863  16.700   6.453
 8237POPC   D2A42328  19.788  16.776   6.753
 8237POPC   C3A42329  19.844  16.696   7.053
 8237POPC   C4A42330  19.807  16.760   7.353
 8237POPC   C1B42331  19.893  16.527   6.453
 8237POPC   C2B42332  19.918  16.491   6.753
 8237POPC   C3B42333  19.975  16.524   7.053
 8237POPC   C4B42334  19.962  16.452   7.353
 8238POPC   NC342335  35.380  23.675   5.553
 8238POPC   PO442336  35.381  23.749   5.853
 8238POPC   GL142337  35.363  23.740   6.153
 8238POPC   GL242338  35.524  23.739   6.153
 8238POPC   C1A42339  35.359  23.745   6.453
 8238POPC   D2A42340  35.345  23.722   6.753
 8238POPC   C3A42341  35.317  23.706   7.053
 8238POPC   C4A42342  35.337  23.679   7.353
 8238POPC   C1B42343  35.593  23.737   6.453
 8238POPC   C2B42344  35.621  23.764   6.753
 8238POPC   C3B42345  35.574  23.752   7.053
 8238POPC   C4B42346  35.629  23.759   7.353
 8239POPC   NC342347  40.000   8.977   5.553
 8239POPC   PO442348  40.012   8.944   5.853
 8239POPC   GL142349  39.991   8.989   6.153
 8239POPC   GL242350  39.900   9.028   6.153
 8239POPC   C1A42351  40.056   8.999   6.453
 8239POPC   D2A42352  40.040   8.969   6.753
 8239POPC   C3A42353  39.960   8.937   7.053
 8239POPC   C4A42354  40.046   8.957   7.353
 8239POPC   C1B42355  39.778   8.987   6.453
 8239POPC   C2B42356  39.797   8.998   6.753
 8239POPC   C3B42357  39.714   8.979   7.053
 8239POPC   C4B42358  39.801   9.034   7.353
 8240POPC   NC342359  29.154  25.270   5.553
 8240POPC   PO442360  29.103  25.250   5.853
 8240POPC   GL142361  29.140  25.297   6.153
 8240POPC   GL242362  29.029  25.201   6.153
 8240POPC   C1A42363  29.192  25.249   6.453
 8240POPC   D2A42364  29.138  25.254   6.753
 8240POPC   C3A42365  29.187  25.216   7.053
 8240POPC   C4A42366  29.102  25.276   7.353
 8240POPC   C1B42367  28.997  25.099   6.453
 8240POPC   C2B42368  28.999  25.061   6.753
 8240POPC   C3B42369  28.976  25.089   7.053
 8240POPC   C4B42370  28.939  25.114   7.353
 8241POPC   NC342371  12.870   5.911   5.553
 8241POPC   PO442372  12.898   5.868   5.853
 8241POPC   GL142373  12.858   5.903   6.153
 8241POPC   GL242374  12.883   5.952   6.153
 8241POPC   C1A42375  12.890   5.899   6.453
 8241POPC   D2A42376  12.860   5.859   6.753
 8241POPC   C3A42377  12.897   5.885   7.053
 8241POPC   C4A42378  12.852   5.892   7.353
 8241POPC   C1B42379  12.856   6.099   6.453
 8241POPC   C2B42380  12.863   6.083   6.753
 8241POPC   C3B42381  12.797   6.074   7.053
 8241POPC   C4B42382  12.839   6.077   7.353
 8242POPC   NC342383  10.522  43.078   5.553
 8242POPC   PO442384  10.477  43.104   5.853
 8242POPC   GL142385  10.524  43.061   6.153
 8242POPC   GL242386  10.546  42.954   6.153
 8242POPC   C1A42387  10.568  43.130   6.453
 8242POPC   D2A42388  10.494  43.117   6.753
 8242POPC   C3A42389  10.543  43.116   7.053
 8242POPC   C4A42390  10.543  43.079   7.353
 8242POPC   C1B42391  10.537  42.908   6.453
 8242POPC   C2B42392  10.529  42.831   6.753
 8242POPC   C3B42393  10.545  42.876   7.053
 8242POPC   C4B42394  10.522  42.900   7.353
 8243POPC   NC342395  27.638   5.845   5.553
 8243POPC   PO442396  27.635   5.901   5.853
 8243POPC   GL142397  27.563   5.916   6.153
 8243POPC   GL242398  27.618   6.009   6.153
 8243POPC   C1A42399  27.614   5.833   6.453
 8243POPC   D2A42400  27.574   5.840   6.753
 8243POPC   C3A42401  27.607   5.897   7.053
 8243POPC   C4A42402  27.585   5.832   7.353
 8243POPC   C1B42403  27.574   6.128   6.453
 8243POPC   C2B42404  27.515   6.121   6.753
 8243POPC   C3B42405  27.542   6.139   7.053
 8243POPC   C4B42406  27.540   6.071   7.353
 8244POPC   NC342407  36.869  14.391   5.553
 8244POPC   PO442408  36.864  14.413   5.853
 8244POPC   GL142409  36.917  14.366   6.153
 8244POPC   GL242410  36.984  14.442   6.153
 8244POPC   C1A42411  36.940  14.359   6.453
 8244POPC   D2A42412  36.925  14.446   6.753
 8244POPC   C3A42413  36.891  14.438   7.053
 8244POPC   C4A42414  36.895  14.388   7.353
 8244POPC   C1B42415  37.156  14.421   6.453
 8244POPC   C2B42416  37.143  14.495   6.753
 8244POPC   C3B42417  37.168  14.480   7.053
 8244POPC   C4B42418  37.159  14.450   7.353
 8245POPC   NC342419   5.841  12.825   5.553
 8245POPC   PO442420   5.855  12.852   5.853
 8245POPC   GL142421   5.820  12.826   6.153
 8245POPC   GL242422   5.797  12.895   6.153
 8245POPC   C1A42423   5.885  12.816   6.453
 8245POPC   D2A42424   5.873  12.805   6.753
 8245POPC   C3A42425   5.858  12.815   7.053
 8245POPC   C4A42426   5.876  12.814   7.353
 8245POPC   C1B42427   5.620  12.872   6.453
 8245POPC   C2B42428   5.593  12.966   6.753
 8245POPC   C3B42429   5.587  12.948   7.053
 8245POPC   C4B42430   5.649  12.871   7.353
 8246POPC   NC342431  10.572   5.852   5.553
 8246POPC   PO442432  10.560   5.885   5.853
 8246POPC   GL142433  10.556   5.823   6.153
 8246POPC   GL242434  10.438   5.822   6.153
 8246POPC   C1A42435  10.561   5.898   6.453
 8246POPC   D2A42436  10.543   5.863   6.753
 8246POPC   C3A42437  10.553   5.866   7.053
 8246POPC   C4A42438  10.535   5.866   7.353
 8246POPC   C1B42439  10.261   5.706   6.453
 8246POPC   C2B42440  10.279   5.707   6.753
 8246POPC   C3B42441  10.344   5.695   7.053
 8246POPC   C4B42442  10.347   5.737   7.353
 8247POPC   NC342443  12.046  36.860   5.553
 8247POPC   PO442444  12.061  36.889   5.853
 8247POPC   GL142445  12.042  36.874   6.153
 8247POPC   GL242446  12.206  36.984   6.153
 8247POPC   C1A42447  12.073  36.870   6.453
 8247POPC   D2A42448  12.042  36.927   6.753
 8247POPC   C3A42449  12.081  36.878   7.053
 8247POPC   C4A42450  12.056  36.882   7.353
 8247POPC   C1B42451  12.272  37.078   6.453
 8247POPC   C2B42452  12.232  37.041   6.753
 8247POPC   C3B42453  12.247  37.075   7.053
 8247POPC   C4B42454  12.306  37.029   7.353
 8248POPC   NC342455   7.408  36.079   5.553
 8248POPC   PO442456   7.455  36.175   5.853
 8248POPC   GL142457   7.430  36.133   6.153
 8248POPC   GL242458   7.363  36.233   6.153
 8248POPC   C1A42459   7.447  36.168   6.453
 8248POPC   D2A42460   7.470  36.085   6.753
 8248POPC   C3A42461   7.465  36.175   7.053
 8248POPC   C4A42462   7.392  36.176   7.353
 8248POPC   C1B42463   7.250  36.305   6.453
 8248POPC   C2B42464   7.237  36.317   6.753
 8248POPC   C3B42465   7.244  36.319   7.053
 8248POPC   C4B42466   7.254  36.354   7.353
 8249POPC   NC342467  26.823   8.941   5.553
 8249POPC   PO442468  26.794   9.010   5.853
 8249POPC   GL142469  26.808   9.016   6.153
 8249POPC   GL242470  26.687   8.873   6.153
 8249POPC   C1A42471  26.853   9.006   6.453
 8249POPC   D2A42472  26.834   8.962   6.753
 8249POPC   C3A42473  26.809   8.945   7.053
 8249POPC   C4A42474  26.802   9.007   7.353
 8249POPC   C1B42475  26.676   8.810   6.453
 8249POPC   C2B42476  26.667   8.777   6.753
 8249POPC   C3B42477  26.659   8.847   7.053
 8249POPC   C4B42478  26.618   8.805   7.353
 8250POPC   NC342479  17.537   6.625   5.553
 8250POPC   PO442480  17.520   6.621   5.853
 8250POPC   GL142481  17.477   6.678   6.153
 8250POPC   GL242482  17.594   6.699   6.153
 8250POPC   C1A42483  17.461   6.662   6.453
 8250POPC   D2A42484  17.541   6.597   6.753
 8250POPC   C3A42485  17.468   6.609   7.053
 8250POPC   C4A42486  17.530   6.664   7.353
 8250POPC   C1B42487  17.801   6.662   6.453
 8250POPC   C2B42488  17.743   6.681   6.753
 8250POPC   C3B42489  17.754   6.712   7.053
 8250POPC   C4B42490  17.796   6.695   7.353
 8251POPC   NC342491  23.673   3.495   5.553
 8251POPC   PO442492  23.688   3.501   5.853
 8251POPC   GL142493  23.739   3.516   6.153
 8251POPC   GL242494  23.656   3.666   6.153
 8251POPC   C1A42495  23.754   3.504   6.453
 8251POPC   D2A42496  23.705   3.551   6.753
 8251POPC   C3A42497  23.675   3.560   7.053
 8251POPC   C4A42498  23.707   3.580   7.353
 8251POPC   C1B42499  23.656   3.734   6.453
 8251POPC   C2B42500  23.632   3.808   6.753
 8251POPC   C3B42501  23.648   3.795   7.053
 8251POPC   C4B42502  23.559   3.789   7.353
 8252POPC   NC342503  14.366  17.519   5.553
 8252POPC   PO442504  14.391  17.523   5.853
 8252POPC   GL142505  14.450  17.504   6.153
 8252POPC   GL242506  14.317  17.639   6.153
 8252POPC   C1A42507  14.431  17.511   6.453
 8252POPC   D2A42508  14.417  17.464   6.753
 8252POPC   C3A42509  14.434  17.480   7.053
 8252POPC   C4A42510  14.412  17.513   7.353
 8252POPC   C1B42511  14.300  17.770   6.453
 8252POPC   C2B42512  14.285  17.782   6.753
 8252POPC   C3B42513  14.276  17.749   7.053
 8252POPC   C4B42514  14.335  17.717   7.353
 8253POPC   NC342515  12.057   5.116   5.553
 8253POPC   PO442516  12.084   5.088   5.853
 8253POPC   GL142517  12.092   5.067   6.153
 8253POPC   GL242518  12.091   4.988   6.153
 8253POPC   C1A42519  12.125   5.112   6.453
 8253POPC   D2A42520  12.104   5.110   6.753
 8253POPC   C3A42521  12.102   5.103   7.053
 8253POPC   C4A42522  12.042   5.135   7.353
 8253POPC   C1B42523  12.142   4.853   6.453
 8253POPC   C2B42524  12.090   4.812   6.753
 8253POPC   C3B42525  12.116   4.869   7.053
 8253POPC   C4B42526  12.148   4.862   7.353
 8254POPC   NC342527  16.005  25.280   5.553
 8254POPC   PO442528  15.919  25.245   5.853
 8254POPC   GL142529  15.958  25.223   6.153
 8254POPC   GL242530  15.907  25.379   6.153
 8254POPC   C1A42531  15.969  25.288   6.453
 8254POPC   D2A42532  15.940  25.267   6.753
 8254POPC   C3A42533  15.910  25.310   7.053
 8254POPC   C4A42534  15.975  25.241   7.353
 8254POPC   C1B42535  15.847  25.514   6.453
 8254POPC   C2B42536  15.897  25.536   6.753
 8254POPC   C3B42537  15.905  25.516   7.053
 8254POPC   C4B42538  15.877  25.538   7.353
 8255POPC   NC342539  34.550   3.587   5.553
 8255POPC   PO442540  34.578   3.525   5.853
 8255POPC   GL142541  34.578   3.562   6.153
 8255POPC   GL242542  34.708   3.477   6.153
 8255POPC   C1A42543  34.616   3.565   6.453
 8255POPC   D2A42544  34.609   3.540   6.753
 8255POPC   C3A42545  34.579   3.574   7.053
 8255POPC   C4A42546  34.572   3.578   7.353
 8255POPC   C1B42547  34.785   3.508   6.453
 8255POPC   C2B42548  34.782   3.531   6.753
 8255POPC   C3B42549  34.821   3.466   7.053
 8255POPC   C4B42550  34.820   3.487   7.353
 8256POPC   NC342551  26.828   1.179   5.553
 8256POPC   PO442552  26.847   1.205   5.853
 8256POPC   GL142553  26.820   1.263   6.153
 8256POPC   GL242554  26.714   1.287   6.153
 8256POPC   C1A42555  26.797   1.182   6.453
 8256POPC   D2A42556  26.801   1.219   6.753
 8256POPC   C3A42557  26.853   1.225   7.053
 8256POPC   C4A42558  26.859   1.167   7.353
 8256POPC   C1B42559  26.644   1.412   6.453
 8256POPC   C2B42560  26.697   1.446   6.753
 8256POPC   C3B42561  26.681   1.430   7.053
 8256POPC   C4B42562  26.692   1.427   7.353
 8257POPC   NC342563  27.551   7.432   5.553
 8257POPC   PO442564  27.615   7.399   5.853
 8257POPC   GL142565  27.630   7.465   6.153
 8257POPC   GL242566  27.699   7.523   6.153
 8257POPC   C1A42567  27.577   7.402   6.453
 8257POPC   D2A42568  27.609   7.380   6.753
 8257POPC   C3A42569  27.641   7.421   7.053
 8257POPC   C4A42570  27.584   7.429   7.353
 8257POPC   C1B42571  27.746   7.528   6.453
 8257POPC   C2B42572  27.814   7.576   6.753
 8257POPC   C3B42573  27.780   7.559   7.053
 8257POPC   C4B42574  27.785   7.593   7.353
 8258POPC   NC342575   5.909  40.778   5.553
 8258POPC   PO442576   5.900  40.776   5.853
 8258POPC   GL142577   5.822  40.735   6.153
 8258POPC   GL242578   5.807  40.874   6.153
 8258POPC   C1A42579   5.886  40.733   6.453
 8258POPC   D2A42580   5.906  40.739   6.753
 8258POPC   C3A42581   5.888  40.792   7.053
 8258POPC   C4A42582   5.850  40.777   7.353
 8258POPC   C1B42583   5.728  41.028   6.453
 8258POPC   C2B42584   5.704  40.993   6.753
 8258POPC   C3B42585   5.738  40.976   7.053
 8258POPC   C4B42586   5.732  41.019   7.353
 8259POPC   NC342587  40.015  10.564   5.553
 8259POPC   PO442588  40.006  10.530   5.853
 8259POPC   GL142589  40.041  10.488   6.153
 8259POPC   GL242590  40.121  10.586   6.153
 8259POPC   C1A42591  40.035  10.486   6.453
 8259POPC   D2A42592  39.975  10.546   6.753
 8259POPC   C3A42593  40.033  10.542   7.053
 8259POPC   C4A42594  39.985  10.552   7.353
 8259POPC   C1B42595  40.252  10.603   6.453
 8259POPC   C2B42596  40.300  10.576   6.753
 8259POPC   C3B42597  40.301  10.555   7.053
 8259POPC   C4B42598  40.207  10.587   7.353
 8260POPC   NC342599  26.011  22.170   5.553
 8260POPC   PO442600  25.998  22.174   5.853
 8260POPC   GL142601  26.017  22.191   6.153
 8260POPC   GL242602  26.106  22.061   6.153
 8260POPC   C1A42603  26.033  22.206   6.453
 8260POPC   D2A42604  26.027  22.147   6.753
 8260POPC   C3A42605  26.049  22.182   7.053
 8260POPC   C4A42606  26.008  22.146   7.353
 8260POPC   C1B42607  26.162  21.906   6.453
 8260POPC   C2B42608  26.146  21.908   6.753
 8260POPC   C3B42609  26.193  21.896   7.053
 8260POPC   C4B42610  26.128  21.909   7.353
 8261POPC   NC342611  26.860   7.464   5.553
 8261POPC   PO442612  26.778   7.414   5.853
 8261POPC   GL142613  26.827   7.407   6.153
 8261POPC   GL242614  26.731   7.378   6.153
 8261POPC   C1A42615  26.835   7.453   6.453
 8261POPC   D2A42616  26.866   7.427   6.753
 8261POPC   C3A42617  26.777   7.435   7.053
 8261POPC   C4A42618  26.855   7.434   7.353
 8261POPC   C1B42619  26.604   7.373   6.453
 8261POPC   C2B42620  26.585   7.411   6.753
 8261POPC   C3B42621  26.533   7.369   7.053
 8261POPC   C4B42622  26.588   7.389   7.353
 8262POPC   NC342623  44.677   0.447   5.553
 8262POPC   PO442624  44.658   0.408   5.853
 8262POPC   GL142625  44.633   0.472   6.153
 8262POPC   GL242626  44.571   0.491   6.153
 8262POPC   C1A42627  44.712   0.455   6.453
 8262POPC   D2A42628  44.655   0.389   6.753
 8262POPC   C3A42629  44.668   0.461   7.053
 8262POPC   C4A42630  44.649   0.483   7.353
 8262POPC   C1B42631  44.363   0.482   6.453
 8262POPC   C2B42632  44.411   0.483   6.753
 8262POPC   C3B42633  44.366   0.408   7.053
 8262POPC   C4B42634  44.443   0.442   7.353
 8263POPC   NC342635  37.722  37.675   5.553
 8263POPC   PO442636  37.638  37.699   5.853
 8263POPC   GL142637  37.703  37.685   6.153
 8263POPC   GL242638  37.596  37.798   6.153
 8263POPC   C1A42639  37.667  37.715   6.453
 8263POPC   D2A42640  37.675  37.658   6.753
 8263POPC   C3A42641  37.671  37.652   7.053
 8263POPC   C4A42642  37.694  37.633   7.353
 8263POPC   C1B42643  37.537  37.848   6.453
 8263POPC   C2B42644  37.458  37.905   6.753
 8263POPC   C3B42645  37.460  37.810   7.053
 8263POPC   C4B42646  37.496  37.824   7.353
 8264POPC   NC342647   7.396   9.773   5.553
 8264POPC   PO442648   7.447   9.722   5.853
 8264POPC   GL142649   7.451   9.706   6.153
 8264POPC   GL242650   7.303   9.605   6.153
 8264POPC   C1A42651   7.392   9.775   6.453
 8264POPC   D2A42652   7.412   9.718   6.753
 8264POPC   C3A42653   7.386   9.744   7.053
 8264POPC   C4A42654   7.432   9.795   7.353
 8264POPC   C1B42655   7.242   9.546   6.453
 8264POPC   C2B42656   7.308   9.531   6.753
 8264POPC   C3B42657   7.260   9.594   7.053
 8264POPC   C4B42658   7.225   9.547   7.353
 8265POPC   NC342659  42.351  27.579   5.553
 8265POPC   PO442660  42.334  27.597   5.853
 8265POPC   GL142661  42.330  27.642   6.153
 8265POPC   GL242662  42.411  27.615   6.153
 8265POPC   C1A42663  42.381  27.572   6.453
 8265POPC   D2A42664  42.316  27.584   6.753
 8265POPC   C3A42665  42.379  27.601   7.053
 8265POPC   C4A42666  42.346  27.571   7.353
 8265POPC   C1B42667  42.566  27.534   6.453
 8265POPC   C2B42668  42.624  27.556   6.753
 8265POPC   C3B42669  42.577  27.546   7.053
 8265POPC   C4B42670  42.617  27.590   7.353
 8266POPC   NC342671  20.616  13.662   5.553
 8266POPC   PO442672  20.584  13.662   5.853
 8266POPC   GL142673  20.587  13.592   6.153
 8266POPC   GL242674  20.554  13.536   6.153
 8266POPC   C1A42675  20.569  13.598   6.453
 8266POPC   D2A42676  20.637  13.589   6.753
 8266POPC   C3A42677  20.620  13.622   7.053
 8266POPC   C4A42678  20.649  13.599   7.353
 8266POPC   C1B42679  20.478  13.428   6.453
 8266POPC   C2B42680  20.409  13.414   6.753
 8266POPC   C3B42681  20.445  13.439   7.053
 8266POPC   C4B42682  20.431  13.412   7.353
 8267POPC   NC342683  31.425   5.889   5.553
 8267POPC   PO442684  31.440   5.845   5.853
 8267POPC   GL142685  31.472   5.912   6.153
 8267POPC   GL242686  31.416   6.015   6.153
 8267POPC   C1A42687  31.436   5.828   6.453
 8267POPC   D2A42688  31.490   5.845   6.753
 8267POPC   C3A42689  31.513   5.884   7.053
 8267POPC   C4A42690  31.443   5.899   7.353
 8267POPC   C1B42691  31.302   6.088   6.453
 8267POPC   C2B42692  31.352   6.061   6.753
 8267POPC   C3B42693  31.377   6.052   7.053
 8267POPC   C4B42694  31.325   6.038   7.353
 8268POPC   NC342695  37.631  43.089   5.553
 8268POPC   PO442696  37.693  43.082   5.853
 8268POPC   GL142697  37.675  43.147   6.153
 8268POPC   GL242698  37.723  42.962   6.153
 8268POPC   C1A42699  37.724  43.091   6.453
 8268POPC   D2A42700  37.650  43.154   6.753
 8268POPC   C3A42701  37.693  43.152   7.053
 8268POPC   C4A42702  37.664  43.087   7.353
 8268POPC   C1B42703  37.785  42.870   6.453
 8268POPC   C2B42704  37.756  42.896   6.753
 8268POPC   C3B42705  37.810  42.935   7.053
 8268POPC   C4B42706  37.804  42.878   7.353
 8269POPC   NC342707  22.128  22.167   5.553
 8269POPC   PO442708  22.136  22.164   5.853
 8269POPC   GL142709  22.198  22.190   6.153
 8269POPC   GL242710  22.170  22.309   6.153
 8269POPC   C1A42711  22.146  22.118   6.453
 8269POPC   D2A42712  22.154  22.195   6.753
 8269POPC   C3A42713  22.154  22.168   7.053
 8269POPC   C4A42714  22.115  22.127   7.353
 8269POPC   C1B42715  22.152  22.408   6.453
 8269POPC   C2B42716  22.243  22.419   6.753
 8269POPC   C3B42717  22.165  22.457   7.053
 8269POPC   C4B42718  22.165  22.450   7.353
 8270POPC   NC342719  26.853  26.045   5.553
 8270POPC   PO442720  26.844  26.080   5.853
 8270POPC   GL142721  26.859  26.039   6.153
 8270POPC   GL242722  26.686  26.136   6.153
 8270POPC   C1A42723  26.864  25.992   6.453
 8270POPC   D2A42724  26.853  26.074   6.753
 8270POPC   C3A42725  26.800  26.075   7.053
 8270POPC   C4A42726  26.865  26.022   7.353
 8270POPC   C1B42727  26.574  26.163   6.453
 8270POPC   C2B42728  26.583  26.123   6.753
 8270POPC   C3B42729  26.631  26.187   7.053
 8270POPC   C4B42730  26.630  26.135   7.353
 8271POPC   NC342731  10.557  40.785   5.553
 8271POPC   PO442732  10.535  40.823   5.853
 8271POPC   GL142733  10.558  40.734   6.153
 8271POPC   GL242734  10.665  40.702   6.153
 8271POPC   C1A42735  10.571  40.806   6.453
 8271POPC   D2A42736  10.540  40.790   6.753
 8271POPC   C3A42737  10.512  40.765   7.053
 8271POPC   C4A42738  10.494  40.817   7.353
 8271POPC   C1B42739  10.723  40.693   6.453
 8271POPC   C2B42740  10.758  40.722   6.753
 8271POPC   C3B42741  10.764  40.662   7.053
 8271POPC   C4B42742  10.719  40.700   7.353
 8272POPC   NC342743  38.482  16.734   5.553
 8272POPC   PO442744  38.447  16.778   5.853
 8272POPC   GL142745  38.412  16.712   6.153
 8272POPC   GL242746  38.563  16.760   6.153
 8272POPC   C1A42747  38.465  16.730   6.453
 8272POPC   D2A42748  38.488  16.727   6.753
 8272POPC   C3A42749  38.496  16.688   7.053
 8272POPC   C4A42750  38.463  16.749   7.353
 8272POPC   C1B42751  38.740  16.787   6.453
 8272POPC   C2B42752  38.663  16.709   6.753
 8272POPC   C3B42753  38.687  16.781   7.053
 8272POPC   C4B42754  38.740  16.720   7.353
 8273POPC   NC342755   2.796  28.384   5.553
 8273POPC   PO442756   2.783  28.382   5.853
 8273POPC   GL142757   2.741  28.340   6.153
 8273POPC   GL242758   2.681  28.368   6.153
 8273POPC   C1A42759   2.805  28.369   6.453
 8273POPC   D2A42760   2.807  28.359   6.753
 8273POPC   C3A42761   2.742  28.350   7.053
 8273POPC   C4A42762   2.811  28.407   7.353
 8273POPC   C1B42763   2.523  28.369   6.453
 8273POPC   C2B42764   2.534  28.391   6.753
 8273POPC   C3B42765   2.550  28.398   7.053
 8273POPC   C4B42766   2.558  28.330   7.353
 8274POPC   NC342767  29.152  30.704   5.553
 8274POPC   PO442768  29.102  30.709   5.853
 8274POPC   GL142769  29.193  30.721   6.153
 8274POPC   GL242770  29.192  30.779   6.153
 8274POPC   C1A42771  29.103  30.661   6.453
 8274POPC   D2A42772  29.135  30.740   6.753
 8274POPC   C3A42773  29.166  30.674   7.053
 8274POPC   C4A42774  29.190  30.668   7.353
 8274POPC   C1B42775  29.281  30.901   6.453
 8274POPC   C2B42776  29.347  30.891   6.753
 8274POPC   C3B42777  29.260  30.935   7.053
 8274POPC   C4B42778  29.258  30.851   7.353
 8275POPC   NC342779  34.607  41.588   5.553
 8275POPC   PO442780  34.601  41.565   5.853
 8275POPC   GL142781  34.604  41.528   6.153
 8275POPC   GL242782  34.573  41.427   6.153
 8275POPC   C1A42783  34.530  41.525   6.453
 8275POPC   D2A42784  34.529  41.571   6.753
 8275POPC   C3A42785  34.571  41.514   7.053
 8275POPC   C4A42786  34.601  41.566   7.353
 8275POPC   C1B42787  34.558  41.274   6.453
 8275POPC   C2B42788  34.634  41.348   6.753
 8275POPC   C3B42789  34.616  41.272   7.053
 8275POPC   C4B42790  34.588  41.272   7.353
 8276POPC   NC342791  43.928  38.419   5.553
 8276POPC   PO442792  43.856  38.473   5.853
 8276POPC   GL142793  43.844  38.445   6.153
 8276POPC   GL242794  43.806  38.324   6.153
 8276POPC   C1A42795  43.865  38.450   6.453
 8276POPC   D2A42796  43.863  38.475   6.753
 8276POPC   C3A42797  43.920  38.471   7.053
 8276POPC   C4A42798  43.871  38.433   7.353
 8276POPC   C1B42799  43.808  38.262   6.453
 8276POPC   C2B42800  43.822  38.242   6.753
 8276POPC   C3B42801  43.790  38.212   7.053
 8276POPC   C4B42802  43.808  38.258   7.353
 8277POPC   NC342803  44.707  16.685   5.553
 8277POPC   PO442804  44.700  16.742   5.853
 8277POPC   GL142805  44.681  16.735   6.153
 8277POPC   GL242806  44.632  16.653   6.153
 8277POPC   C1A42807  44.613  16.736   6.453
 8277POPC   D2A42808  44.613  16.741   6.753
 8277POPC   C3A42809  44.663  16.735   7.053
 8277POPC   C4A42810  44.663  16.720   7.353
 8277POPC   C1B42811  44.494  16.546   6.453
 8277POPC   C2B42812  44.540  16.487   6.753
 8277POPC   C3B42813  44.514  16.499   7.053
 8277POPC   C4B42814  44.534  16.542   7.353
 8278POPC   NC342815  10.496   2.015   5.553
 8278POPC   PO442816  10.553   1.985   5.853
 8278POPC   GL142817  10.539   1.959   6.153
 8278POPC   GL242818  10.597   2.067   6.153
 8278POPC   C1A42819  10.542   1.946   6.453
 8278POPC   D2A42820  10.548   1.941   6.753
 8278POPC   C3A42821  10.572   2.039   7.053
 8278POPC   C4A42822  10.525   1.960   7.353
 8278POPC   C1B42823  10.673   2.207   6.453
 8278POPC   C2B42824  10.697   2.225   6.753
 8278POPC   C3B42825  10.667   2.184   7.053
 8278POPC   C4B42826  10.657   2.185   7.353
 8279POPC   NC342827  14.437  36.868   5.553
 8279POPC   PO442828  14.394  36.913   5.853
 8279POPC   GL142829  14.446  36.910   6.153
 8279POPC   GL242830  14.367  36.781   6.153
 8279POPC   C1A42831  14.376  36.865   6.453
 8279POPC   D2A42832  14.433  36.892   6.753
 8279POPC   C3A42833  14.405  36.889   7.053
 8279POPC   C4A42834  14.408  36.917   7.353
 8279POPC   C1B42835  14.444  36.629   6.453
 8279POPC   C2B42836  14.381  36.677   6.753
 8279POPC   C3B42837  14.375  36.626   7.053
 8279POPC   C4B42838  14.365  36.694   7.353
 8280POPC   NC342839  21.342  31.494   5.553
 8280POPC   PO442840  21.343  31.473   5.853
 8280POPC   GL142841  21.420  31.455   6.153
 8280POPC   GL242842  21.336  31.568   6.153
 8280POPC   C1A42843  21.399  31.463   6.453
 8280POPC   D2A42844  21.407  31.482   6.753
 8280POPC   C3A42845  21.343  31.479   7.053
 8280POPC   C4A42846  21.341  31.463   7.353
 8280POPC   C1B42847  21.182  31.595   6.453
 8280POPC   C2B42848  21.184  31.645   6.753
 8280POPC   C3B42849  21.159  31.613   7.053
 8280POPC   C4B42850  21.231  31.584   7.353
 8281POPC   NC342851  17.515  19.083   5.553
 8281POPC   PO442852  17.466  19.091   5.853
 8281POPC   GL142853  17.466  19.075   6.153
 8281POPC   GL242854  17.646  19.083   6.153
 8281POPC   C1A42855  17.464  19.087   6.453
 8281POPC   D2A42856  17.463  19.033   6.753
 8281POPC   C3A42857  17.484  19.052   7.053
 8281POPC   C4A42858  17.508  19.059   7.353
 8281POPC   C1B42859  17.763  19.081   6.453
 8281POPC   C2B42860  17.793  19.102   6.753
 8281POPC   C3B42861  17.715  19.090   7.053
 8281POPC   C4B42862  17.781  19.048   7.353
 8282POPC   NC342863  43.934   1.252   5.553
 8282POPC   PO442864  43.857   1.213   5.853
 8282POPC   GL142865  43.920   1.247   6.153
 8282POPC   GL242866  43.721   1.231   6.153
 8282POPC   C1A42867  43.878   1.171   6.453
 8282POPC   D2A42868  43.841   1.212   6.753
 8282POPC   C3A42869  43.865   1.259   7.053
 8282POPC   C4A42870  43.870   1.212   7.353
 8282POPC   C1B42871  43.664   1.151   6.453
 8282POPC   C2B42872  43.682   1.165   6.753
 8282POPC   C3B42873  43.682   1.208   7.053
 8282POPC   C4B42874  43.649   1.196   7.353
 8283POPC   NC342875  35.377  30.653   5.553
 8283POPC   PO442876  35.363  30.735   5.853
 8283POPC   GL142877  35.309  30.689   6.153
 8283POPC   GL242878  35.403  30.596   6.153
 8283POPC   C1A42879  35.380  30.673   6.453
 8283POPC   D2A42880  35.330  30.669   6.753
 8283POPC   C3A42881  35.324  30.685   7.053
 8283POPC   C4A42882  35.355  30.738   7.353
 8283POPC   C1B42883  35.500  30.546   6.453
 8283POPC   C2B42884  35.494  30.508   6.753
 8283POPC   C3B42885  35.554  30.512   7.053
 8283POPC   C4B42886  35.493  30.532   7.353
 8284POPC   NC342887  21.433  27.634   5.553
 8284POPC   PO442888  21.399  27.600   5.853
 8284POPC   GL142889  21.420  27.623   6.153
 8284POPC   GL242890  21.293  27.497   6.153
 8284POPC   C1A42891  21.340  27.583   6.453
 8284POPC   D2A42892  21.350  27.635   6.753
 8284POPC   C3A42893  21.362  27.621   7.053
 8284POPC   C4A42894  21.350  27.619   7.353
 8284POPC   C1B42895  21.262  27.334   6.453
 8284POPC   C2B42896  21.272  27.336   6.753
 8284POPC   C3B42897  21.247  27.388   7.053
 8284POPC   C4B42898  21.291  27.406   7.353
 8285POPC   NC342899  23.689  19.793   5.553
 8285POPC   PO442900  23.735  19.845   5.853
 8285POPC   GL142901  23.695  19.829   6.153
 8285POPC   GL242902  23.814  19.875   6.153
 8285POPC   C1A42903  23.665  19.867   6.453
 8285POPC   D2A42904  23.761  19.809   6.753
 8285POPC   C3A42905  23.697  19.822   7.053
 8285POPC   C4A42906  23.698  19.787   7.353
 8285POPC   C1B42907  23.919  19.898   6.453
 8285POPC   C2B42908  23.946  19.885   6.753
 8285POPC   C3B42909  23.920  19.908   7.053
 8285POPC   C4B42910  23.949  19.867   7.353
 8286POPC   NC342911   5.132   8.985   5.553
 8286POPC   PO442912   5.114   8.971   5.853
 8286POPC   GL142913   5.134   8.994   6.153
 8286POPC   GL242914   4.997   8.948   6.153
 8286POPC   C1A42915   5.130   9.014   6.453
 8286POPC   D2A42916   5.127   8.986   6.753
 8286POPC   C3A42917   5.046   8.993   7.053
 8286POPC   C4A42918   5.078   9.007   7.353
 8286POPC   C1B42919   4.837   8.931   6.453
 8286POPC   C2B42920   4.875   8.857   6.753
 8286POPC   C3B42921   4.872   8.912   7.053
 8286POPC   C4B42922   4.843   8.890   7.353
 8287POPC   NC342923  36.930  12.817   5.553
 8287POPC   PO442924  36.944  12.860   5.853
 8287POPC   GL142925  36.895  12.822   6.153
 8287POPC   GL242926  36.912  13.007   6.153
 8287POPC   C1A42927  36.907  12.869   6.453
 8287POPC   D2A42928  36.859  12.814   6.753
 8287POPC   C3A42929  36.873  12.814   7.053
 8287POPC   C4A42930  36.908  12.822   7.353
 8287POPC   C1B42931  36.867  13.126   6.453
 8287POPC   C2B42932  36.857  13.116   6.753
 8287POPC   C3B42933  36.779  13.049   7.053
 8287POPC   C4B42934  36.827  13.049   7.353
 8288POPC   NC342935  25.239  30.731   5.553
 8288POPC   PO442936  25.310  30.685   5.853
 8288POPC   GL142937  25.254  30.671   6.153
 8288POPC   GL242938  25.203  30.610   6.153
 8288POPC   C1A42939  25.302  30.696   6.453
 8288POPC   D2A42940  25.276  30.695   6.753
 8288POPC   C3A42941  25.281  30.731   7.053
 8288POPC   C4A42942  25.236  30.660   7.353
 8288POPC   C1B42943  25.145  30.474   6.453
 8288POPC   C2B42944  25.178  30.487   6.753
 8288POPC   C3B42945  25.149  30.452   7.053
 8288POPC   C4B42946  25.136  30.427   7.353
 8289POPC   NC342947  15.200  28.344   5.553
 8289POPC   PO442948  15.185  28.337   5.853
 8289POPC   GL142949  15.183  28.349   6.153
 8289POPC   GL242950  15.155  28.527   6.153
 8289POPC   C1A42951  15.191  28.408   6.453
 8289POPC   D2A42952  15.166  28.410   6.753
 8289POPC   C3A42953  15.188  28.347   7.053
 8289POPC   C4A42954  15.195  28.412   7.353
 8289POPC   C1B42955  15.081  28.615   6.453
 8289POPC   C2B42956  15.093  28.589   6.753
 8289POPC   C3B42957  15.129  28.641   7.053
 8289POPC   C4B42958  15.098  28.605   7.353
 8290POPC   NC342959  31.510  24.502   5.553
 8290POPC   PO442960  31.439  24.517   5.853
 8290POPC   GL142961  31.430  24.473   6.153
 8290POPC   GL242962  31.344  24.432   6.153
 8290POPC   C1A42963  31.522  24.491   6.453
 8290POPC   D2A42964  31.455  24.506   6.753
 8290POPC   C3A42965  31.476  24.441   7.053
 8290POPC   C4A42966  31.465  24.524   7.353
 8290POPC   C1B42967  31.315  24.332   6.453
 8290POPC   C2B42968  31.289  24.311   6.753
 8290POPC   C3B42969  31.299  24.336   7.053
 8290POPC   C4B42970  31.286  24.335   7.353
 8291POPC   NC342971  28.320   6.676   5.553
 8291POPC   PO442972  28.370   6.612   5.853
 8291POPC   GL142973  28.320   6.663   6.153
 8291POPC   GL242974  28.478   6.743   6.153
 8291POPC   C1A42975  28.336   6.656   6.453
 8291POPC   D2A42976  28.412   6.639   6.753
 8291POPC   C3A42977  28.328   6.640   7.053
 8291POPC   C4A42978  28.401   6.614   7.353
 8291POPC   C1B42979  28.539   6.873   6.453
 8291POPC   C2B42980  28.529   6.810   6.753
 8291POPC   C3B42981  28.513   6.864   7.053
 8291POPC   C4B42982  28.565   6.842   7.353
 8292POPC   NC342983  25.280  26.074   5.553
 8292POPC   PO442984  25.300  26.014   5.853
 8292POPC   GL142985  25.259  26.035   6.153
 8292POPC   GL242986  25.386  25.958   6.153
 8292POPC   C1A42987  25.257  26.034   6.453
 8292POPC   D2A42988  25.269  26.029   6.753
 8292POPC   C3A42989  25.217  26.003   7.053
 8292POPC   C4A42990  25.274  26.013   7.353
 8292POPC   C1B42991  25.465  25.939   6.453
 8292POPC   C2B42992  25.545  25.974   6.753
 8292POPC   C3B42993  25.517  25.933   7.053
 8292POPC   C4B42994  25.514  25.943   7.353
 8293POPC   NC342995  39.280  20.592   5.553
 8293POPC   PO442996  39.186  20.560   5.853
 8293POPC   GL142997  39.216  20.627   6.153
 8293POPC   GL242998  39.245  20.471   6.153
 8293POPC   C1A42999  39.192  20.624   6.453
 8293POPC   D2A43000  39.263  20.631   6.753
 8293POPC   C3A43001  39.190  20.641   7.053
 8293POPC   C4A43002  39.206  20.595   7.353
 8293POPC   C1B43003  39.158  20.337   6.453
 8293POPC   C2B43004  39.172  20.371   6.753
 8293POPC   C3B43005  39.178  20.325   7.053
 8293POPC   C4B43006  39.196  20.386   7.353
 8294POPC   NC343007  20.583  15.907   5.553
 8294POPC   PO443008  20.566  15.962   5.853
 8294POPC   GL143009  20.637  15.946   6.153
 8294POPC   GL243010  20.655  16.000   6.153
 8294POPC   C1A43011  20.643  15.996   6.453
 8294POPC   D2A43012  20.649  15.966   6.753
 8294POPC   C3A43013  20.589  15.954   7.053
 8294POPC   C4A43014  20.619  15.909   7.353
 8294POPC   C1B43015  20.730  16.114   6.453
 8294POPC   C2B43016  20.823  16.111   6.753
 8294POPC   C3B43017  20.776  16.098   7.053
 8294POPC   C4B43018  20.783  16.150   7.353
 8295POPC   NC343019  36.087   7.387   5.553
 8295POPC   PO443020  36.154   7.427   5.853
 8295POPC   GL143021  36.117   7.379   6.153
 8295POPC   GL243022  36.040   7.512   6.153
 8295POPC   C1A43023  36.108   7.392   6.453
 8295POPC   D2A43024  36.145   7.395   6.753
 8295POPC   C3A43025  36.081   7.458   7.053
 8295POPC   C4A43026  36.107   7.416   7.353
 8295POPC   C1B43027  36.010   7.679   6.453
 8295POPC   C2B43028  35.991   7.694   6.753
 8295POPC   C3B43029  35.987   7.644   7.053
 8295POPC   C4B43030  36.019   7.690   7.353
 8296POPC   NC343031  43.065  39.985   5.553
 8296POPC   PO443032  43.147  40.045   5.853
 8296POPC   GL143033  43.154  40.033   6.153
 8296POPC   GL243034  43.181  40.091   6.153
 8296POPC   C1A43035  43.096  39.989   6.453
 8296POPC   D2A43036  43.132  40.017   6.753
 8296POPC   C3A43037  43.159  39.958   7.053
 8296POPC   C4A43038  43.078  39.994   7.353
 8296POPC   C1B43039  43.160  40.222   6.453
 8296POPC   C2B43040  43.170  40.286   6.753
 8296POPC   C3B43041  43.154  40.253   7.053
 8296POPC   C4B43042  43.198  40.265   7.353
 8297POPC   NC343043   2.020  40.010   5.553
 8297POPC   PO443044   1.962  40.041   5.853
 8297POPC   GL143045   2.005  40.018   6.153
 8297POPC   GL243046   1.928  39.925   6.153
 8297POPC   C1A43047   2.031  40.053   6.453
 8297POPC   D2A43048   2.027  39.978   6.753
 8297POPC   C3A43049   2.026  40.024   7.053
 8297POPC   C4A43050   1.944  39.981   7.353
 8297POPC   C1B43051   1.866  39.819   6.453
 8297POPC   C2B43052   1.941  39.735   6.753
 8297POPC   C3B43053   1.862  39.805   7.053
 8297POPC   C4B43054   1.859  39.783   7.353
 8298POPC   NC343055  42.286  32.247   5.553
 8298POPC   PO443056  42.316  32.289   5.853
 8298POPC   GL143057  42.347  32.201   6.153
 8298POPC   GL243058  42.474  32.278   6.153
 8298POPC   C1A43059  42.334  32.249   6.453
 8298POPC   D2A43060  42.338  32.246   6.753
 8298POPC   C3A43061  42.308  32.296   7.053
 8298POPC   C4A43062  42.372  32.220   7.353
 8298POPC   C1B43063  42.578  32.252   6.453
 8298POPC   C2B43064  42.588  32.298   6.753
 8298POPC   C3B43065  42.617  32.263   7.053
 8298POPC   C4B43066  42.583  32.215   7.353
 8299POPC   NC343067   9.780   8.946   5.553
 8299POPC   PO443068   9.760   8.930   5.853
 8299POPC   GL143069   9.742   9.021   6.153
 8299POPC   GL243070   9.620   8.900   6.153
 8299POPC   C1A43071   9.760   8.925   6.453
 8299POPC   D2A43072   9.762   8.974   6.753
 8299POPC   C3A43073   9.721   9.002   7.053
 8299POPC   C4A43074   9.710   8.968   7.353
 8299POPC   C1B43075   9.476   8.879   6.453
 8299POPC   C2B43076   9.522   8.831   6.753
 8299POPC   C3B43077   9.562   8.836   7.053
 8299POPC   C4B43078   9.467   8.900   7.353
 8300POPC   NC343079  12.804  22.193   5.553
 8300POPC   PO443080  12.869  22.118   5.853
 8300POPC   GL143081  12.817  22.115   6.153
 8300POPC   GL243082  12.741  22.089   6.153
 8300POPC   C1A43083  12.833  22.206   6.453
 8300POPC   D2A43084  12.888  22.174   6.753
 8300POPC   C3A43085  12.857  22.171   7.053
 8300POPC   C4A43086  12.887  22.119   7.353
 8300POPC   C1B43087  12.696  22.019   6.453
 8300POPC   C2B43088  12.680  21.950   6.753
 8300POPC   C3B43089  12.724  21.981   7.053
 8300POPC   C4B43090  12.684  22.009   7.353
 8301POPC   NC343091  15.949   8.927   5.553
 8301POPC   PO443092  15.957   9.014   5.853
 8301POPC   GL143093  15.999   8.943   6.153
 8301POPC   GL243094  15.856   8.902   6.153
 8301POPC   C1A43095  15.990   8.953   6.453
 8301POPC   D2A43096  15.955   8.992   6.753
 8301POPC   C3A43097  15.932   8.939   7.053
 8301POPC   C4A43098  16.001   8.989   7.353
 8301POPC   C1B43099  15.699   8.820   6.453
 8301POPC   C2B43100  15.783   8.825   6.753
 8301POPC   C3B43101  15.712   8.840   7.053
 8301POPC   C4B43102  15.760   8.830   7.353
 8302POPC   NC343103  33.824  22.200   5.553
 8302POPC   PO443104  33.833  22.163   5.853
 8302POPC   GL143105  33.836  22.146   6.153
 8302POPC   GL243106  33.692  22.071   6.153
 8302POPC   C1A43107  33.849  22.160   6.453
 8302POPC   D2A43108  33.765  22.179   6.753
 8302POPC   C3A43109  33.844  22.153   7.053
 8302POPC   C4A43110  33.837  22.155   7.353
 8302POPC   C1B43111  33.654  21.922   6.453
 8302POPC   C2B43112  33.700  21.938   6.753
 8302POPC   C3B43113  33.632  21.955   7.053
 8302POPC   C4B43114  33.653  21.918   7.353
 8303POPC   NC343115  29.890  19.050   5.553
 8303POPC   PO443116  29.929  19.046   5.853
 8303POPC   GL143117  29.951  19.018   6.153
 8303POPC   GL243118  29.931  18.986   6.153
 8303POPC   C1A43119  29.944  19.087   6.453
 8303POPC   D2A43120  29.883  19.057   6.753
 8303POPC   C3A43121  29.916  19.043   7.053
 8303POPC   C4A43122  29.882  19.049   7.353
 8303POPC   C1B43123  29.866  18.821   6.453
 8303POPC   C2B43124  29.811  18.771   6.753
 8303POPC   C3B43125  29.873  18.834   7.053
 8303POPC   C4B43126  29.855  18.855   7.353
 8304POPC   NC343127  17.467  36.953   5.553
 8304POPC   PO443128  17.488  36.887   5.853
 8304POPC   GL143129  17.556  36.897   6.153
 8304POPC   GL243130  17.570  36.791   6.153
 8304POPC   C1A43131  17.496  36.939   6.453
 8304POPC   D2A43132  17.547  36.898   6.753
 8304POPC   C3A43133  17.485  36.888   7.053
 8304POPC   C4A43134  17.515  36.890   7.353
 8304POPC   C1B43135  17.571  36.623   6.453
 8304POPC   C2B43136  17.598  36.626   6.753
 8304POPC   C3B43137  17.603  36.685   7.053
 8304POPC   C4B43138  17.556  36.623   7.353
 8305POPC   NC343139  22.201  36.085   5.553
 8305POPC   PO443140  22.115  36.141   5.853
 8305POPC   GL143141  22.125  36.127   6.153
 8305POPC   GL243142  22.124  36.246   6.153
 8305POPC   C1A43143  22.206  36.090   6.453
 8305POPC   D2A43144  22.206  36.136   6.753
 8305POPC   C3A43145  22.114  36.098   7.053
 8305POPC   C4A43146  22.186  36.096   7.353
 8305POPC   C1B43147  22.145  36.356   6.453
 8305POPC   C2B43148  22.142  36.379   6.753
 8305POPC   C3B43149  22.140  36.338   7.053
 8305POPC   C4B43150  22.061  36.368   7.353
 8306POPC   NC343151   6.660   8.955   5.553
 8306POPC   PO443152   6.655   8.946   5.853
 8306POPC   GL143153   6.672   9.003   6.153
 8306POPC   GL243154   6.717   8.900   6.153
 8306POPC   C1A43155   6.667   8.923   6.453
 8306POPC   D2A43156   6.659   9.018   6.753
 8306POPC   C3A43157   6.661   9.008   7.053
 8306POPC   C4A43158   6.657   8.946   7.353
 8306POPC   C1B43159   6.771   8.755   6.453
 8306POPC   C2B43160   6.688   8.780   6.753
 8306POPC   C3B43161   6.734   8.741   7.053
 8306POPC   C4B43162   6.751   8.730   7.353
 8307POPC   NC343163   1.251   5.050   5.553
 8307POPC   PO443164   1.167   5.077   5.853
 8307POPC   GL143165   1.258   5.116   6.153
 8307POPC   GL243166   1.159   5.165   6.153
 8307POPC   C1A43167   1.225   5.136   6.453
 8307POPC   D2A43168   1.233   5.127   6.753
 8307POPC   C3A43169   1.216   5.093   7.053
 8307POPC   C4A43170   1.215   5.125   7.353
 8307POPC   C1B43171   1.096   5.292   6.453
 8307POPC   C2B43172   1.090   5.281   6.753
 8307POPC   C3B43173   1.082   5.283   7.053
 8307POPC   C4B43174   1.054   5.324   7.353
 8308POPC   NC343175  15.199  39.247   5.553
 8308POPC   PO443176  15.203  39.281   5.853
 8308POPC   GL143177  15.184  39.225   6.153
 8308POPC   GL243178  15.247  39.181   6.153
 8308POPC   C1A43179  15.135  39.246   6.453
 8308POPC   D2A43180  15.191  39.228   6.753
 8308POPC   C3A43181  15.171  39.196   7.053
 8308POPC   C4A43182  15.191  39.181   7.353
 8308POPC   C1B43183  15.386  39.130   6.453
 8308POPC   C2B43184  15.399  39.045   6.753
 8308POPC   C3B43185  15.384  39.046   7.053
 8308POPC   C4B43186  15.391  39.098   7.353
 8309POPC   NC343187  15.924   6.603   5.553
 8309POPC   PO443188  15.948   6.601   5.853
 8309POPC   GL143189  15.996   6.631   6.153
 8309POPC   GL243190  15.848   6.488   6.153
 8309POPC   C1A43191  15.953   6.648   6.453
 8309POPC   D2A43192  15.942   6.631   6.753
 8309POPC   C3A43193  15.930   6.614   7.053
 8309POPC   C4A43194  15.972   6.626   7.353
 8309POPC   C1B43195  15.792   6.392   6.453
 8309POPC   C2B43196  15.826   6.474   6.753
 8309POPC   C3B43197  15.789   6.447   7.053
 8309POPC   C4B43198  15.868   6.402   7.353
 8310POPC   NC343199  32.290  31.490   5.553
 8310POPC   PO443200  32.280  31.518   5.853
 8310POPC   GL143201  32.205  31.432   6.153
 8310POPC   GL243202  32.152  31.617   6.153
 8310POPC   C1A43203  32.206  31.466   6.453
 8310POPC   D2A43204  32.291  31.500   6.753
 8310POPC   C3A43205  32.290  31.476   7.053
 8310POPC   C4A43206  32.225  31.451   7.353
 8310POPC   C1B43207  32.081  31.709   6.453
 8310POPC   C2B43208  32.065  31.709   6.753
 8310POPC   C3B43209  32.099  31.681   7.053
 8310POPC   C4B43210  32.056  31.668   7.353
 8311POPC   NC343211   6.640  32.294   5.553
 8311POPC   PO443212   6.631  32.254   5.853
 8311POPC   GL143213   6.629  32.207   6.153
 8311POPC   GL243214   6.689  32.176   6.153
 8311POPC   C1A43215   6.606  32.265   6.453
 8311POPC   D2A43216   6.658  32.224   6.753
 8311POPC   C3A43217   6.651  32.202   7.053
 8311POPC   C4A43218   6.683  32.261   7.353
 8311POPC   C1B43219   6.695  32.007   6.453
 8311POPC   C2B43220   6.679  31.956   6.753
 8311POPC   C3B43221   6.700  32.020   7.053
 8311POPC   C4B43222   6.668  31.974   7.353
 8312POPC   NC343223  44.646  42.305   5.553
 8312POPC   PO443224  44.658  42.369   5.853
 8312POPC   GL143225  44.664  42.294   6.153
 8312POPC   GL243226  44.611  42.430   6.153
 8312POPC   C1A43227  44.679  42.377   6.453
 8312POPC   D2A43228  44.632  42.368   6.753
 8312POPC   C3A43229  44.652  42.361   7.053
 8312POPC   C4A43230  44.678  42.358   7.353
 8312POPC   C1B43231  44.579  42.511   6.453
 8312POPC   C2B43232  44.592  42.542   6.753
 8312POPC   C3B43233  44.596  42.544   7.053
 8312POPC   C4B43234  44.516  42.549   7.353
 8313POPC   NC343235  27.590  43.142   5.553
 8313POPC   PO443236  27.631  43.122   5.853
 8313POPC   GL143237  27.640  43.142   6.153
 8313POPC   GL243238  27.499  43.171   6.153
 8313POPC   C1A43239  27.553  43.078   6.453
 8313POPC   D2A43240  27.634  43.110   6.753
 8313POPC   C3A43241  27.637  43.081   7.053
 8313POPC   C4A43242  27.585  43.140   7.353
 8313POPC   C1B43243  27.377  43.245   6.453
 8313POPC   C2B43244  27.379  43.337   6.753
 8313POPC   C3B43245  27.463  43.241   7.053
 8313POPC   C4B43246  27.379  43.301   7.353
 8314POPC   NC343247  34.611  12.862   5.553
 8314POPC   PO443248  34.528  12.896   5.853
 8314POPC   GL143249  34.562  12.869   6.153
 8314POPC   GL243250  34.666  12.978   6.153
 8314POPC   C1A43251  34.538  12.869   6.453
 8314POPC   D2A43252  34.567  12.821   6.753
 8314POPC   C3A43253  34.557  12.882   7.053
 8314POPC   C4A43254  34.619  12.816   7.353
 8314POPC   C1B43255  34.788  13.003   6.453
 8314POPC   C2B43256  34.752  12.999   6.753
 8314POPC   C3B43257  34.792  13.037   7.053
 8314POPC   C4B43258  34.757  13.008   7.353
 8315POPC   NC343259  16.689  20.603   5.553
 8315POPC   PO443260  16.697  20.635   5.853
 8315POPC   GL143261  16.761  20.642   6.153
 8315POPC   GL243262  16.744  20.514   6.153
 8315POPC   C1A43263  16.713  20.582   6.453
 8315POPC   D2A43264  16.691  20.658   6.753
 8315POPC   C3A43265  16.771  20.644   7.053
 8315POPC   C4A43266  16.702  20.562   7.353
 8315POPC   C1B43267  16.673  20.327   6.453
 8315POPC   C2B43268  16.673  20.370   6.753
 8315POPC   C3B43269  16.691  20.388   7.053
 8315POPC   C4B43270  16.743  20.398   7.353
 8316POPC   NC343271  31.518  30.698   5.553
 8316POPC   PO443272  31.451  30.710   5.853
 8316POPC   GL143273  31.513  30.671   6.153
 8316POPC   GL243274  31.510  30.813   6.153
 8316POPC   C1A43275  31.423  30.746   6.453
 8316POPC   D2A43276  31.458  30.738   6.753
 8316POPC   C3A43277  31.504  30.682   7.053
 8316POPC   C4A43278  31.515  30.746   7.353
 8316POPC   C1B43279  31.468  30.948   6.453
 8316POPC   C2B43280  31.426  30.985   6.753
 8316POPC   C3B43281  31.408  30.992   7.053
 8316POPC   C4B43282  31.413  30.905   7.353
 8317POPC   NC343283  31.435  13.627   5.553
 8317POPC   PO443284  31.474  13.597   5.853
 8317POPC   GL143285  31.520  13.600   6.153
 8317POPC   GL243286  31.541  13.589   6.153
 8317POPC   C1A43287  31.443  13.667   6.453
 8317POPC   D2A43288  31.494  13.643   6.753
 8317POPC   C3A43289  31.449  13.599   7.053
 8317POPC   C4A43290  31.519  13.667   7.353
 8317POPC   C1B43291  31.667  13.489   6.453
 8317POPC   C2B43292  31.669  13.461   6.753
 8317POPC   C3B43293  31.723  13.481   7.053
 8317POPC   C4B43294  31.700  13.448   7.353
 8318POPC   NC343295  37.675  33.783   5.553
 8318POPC   PO443296  37.712  33.832   5.853
 8318POPC   GL143297  37.637  33.780   6.153
 8318POPC   GL243298  37.691  33.636   6.153
 8318POPC   C1A43299  37.713  33.768   6.453
 8318POPC   D2A43300  37.691  33.767   6.753
 8318POPC   C3A43301  37.690  33.761   7.053
 8318POPC   C4A43302  37.697  33.769   7.353
 8318POPC   C1B43303  37.780  33.585   6.453
 8318POPC   C2B43304  37.800  33.612   6.753
 8318POPC   C3B43305  37.726  33.532   7.053
 8318POPC   C4B43306  37.806  33.544   7.353
 8319POPC   NC343307  17.471   1.258   5.553
 8319POPC   PO443308  17.551   1.201   5.853
 8319POPC   GL143309  17.510   1.215   6.153
 8319POPC   GL243310  17.668   1.195   6.153
 8319POPC   C1A43311  17.521   1.200   6.453
 8319POPC   D2A43312  17.524   1.220   6.753
 8319POPC   C3A43313  17.488   1.263   7.053
 8319POPC   C4A43314  17.518   1.234   7.353
 8319POPC   C1B43315  17.729   1.121   6.453
 8319POPC   C2B43316  17.768   1.101   6.753
 8319POPC   C3B43317  17.747   1.102   7.053
 8319POPC   C4B43318  17.770   1.177   7.353
 8320POPC   NC343319  22.145   3.529   5.553
 8320POPC   PO443320  22.171   3.526   5.853
 8320POPC   GL143321  22.141   3.528   6.153
 8320POPC   GL243322  22.152   3.653   6.153
 8320POPC   C1A43323  22.208   3.554   6.453
 8320POPC   D2A43324  22.209   3.581   6.753
 8320POPC   C3A43325  22.176   3.581   7.053
 8320POPC   C4A43326  22.153   3.535   7.353
 8320POPC   C1B43327  22.153   3.748   6.453
 8320POPC   C2B43328  22.188   3.776   6.753
 8320POPC   C3B43329  22.186   3.824   7.053
 8320POPC   C4B43330  22.142   3.797   7.353
 8321POPC   NC343331  41.559  33.831   5.553
 8321POPC   PO443332  41.532  33.780   5.853
 8321POPC   GL143333  41.590  33.830   6.153
 8321POPC   GL243334  41.598  33.702   6.153
 8321POPC   C1A43335  41.523  33.758   6.453
 8321POPC   D2A43336  41.591  33.824   6.753
 8321POPC   C3A43337  41.540  33.802   7.053
 8321POPC   C4A43338  41.601  33.821   7.353
 8321POPC   C1B43339  41.581  33.506   6.453
 8321POPC   C2B43340  41.584  33.548   6.753
 8321POPC   C3B43341  41.593  33.533   7.053
 8321POPC   C4B43342  41.586  33.566   7.353
 8322POPC   NC343343  25.292  43.107   5.553
 8322POPC   PO443344  25.280  43.089   5.853
 8322POPC   GL143345  25.272  43.121   6.153
 8322POPC   GL243346  25.112  43.116   6.153
 8322POPC   C1A43347  25.265  43.151   6.453
 8322POPC   D2A43348  25.291  43.078   6.753
 8322POPC   C3A43349  25.275  43.084   7.053
 8322POPC   C4A43350  25.273  43.073   7.353
 8322POPC   C1B43351  25.034  43.174   6.453
 8322POPC   C2B43352  25.068  43.236   6.753
 8322POPC   C3B43353  25.005  43.186   7.053
 8322POPC   C4B43354  25.056  43.184   7.353
 8323POPC   NC343355   5.132  29.151   5.553
 8323POPC   PO443356   5.116  29.182   5.853
 8323POPC   GL143357   5.052  29.179   6.153
 8323POPC   GL243358   5.116  29.266   6.153
 8323POPC   C1A43359   5.099  29.144   6.453
 8323POPC   D2A43360   5.069  29.132   6.753
 8323POPC   C3A43361   5.093  29.119   7.053
 8323POPC   C4A43362   5.132  29.172   7.353
 8323POPC   C1B43363   5.123  29.346   6.453
 8323POPC   C2B43364   5.110  29.352   6.753
 8323POPC   C3B43365   5.124  29.358   7.053
 8323POPC   C4B43366   5.141  29.343   7.353
 8324POPC   NC343367  36.858  39.969   5.553
 8324POPC   PO443368  36.898  39.970   5.853
 8324POPC   GL143369  36.924  39.978   6.153
 8324POPC   GL243370  36.879  40.106   6.153
 8324POPC   C1A43371  36.900  40.055   6.453
 8324POPC   D2A43372  36.898  40.044   6.753
 8324POPC   C3A43373  36.953  40.028   7.053
 8324POPC   C4A43374  36.907  39.963   7.353
 8324POPC   C1B43375  36.969  40.230   6.453
 8324POPC   C2B43376  36.919  40.238   6.753
 8324POPC   C3B43377  36.961  40.264   7.053
 8324POPC   C4B43378  36.937  40.260   7.353
 8325POPC   NC343379   5.109  13.659   5.553
 8325POPC   PO443380   5.123  13.657   5.853
 8325POPC   GL143381   5.076  13.652   6.153
 8325POPC   GL243382   5.184  13.681   6.153
 8325POPC   C1A43383   5.078  13.631   6.453
 8325POPC   D2A43384   5.110  13.611   6.753
 8325POPC   C3A43385   5.063  13.646   7.053
 8325POPC   C4A43386   5.052  13.642   7.353
 8325POPC   C1B43387   5.374  13.722   6.453
 8325POPC   C2B43388   5.308  13.742   6.753
 8325POPC   C3B43389   5.343  13.655   7.053
 8325POPC   C4B43390   5.363  13.708   7.353
 8326POPC   NC343391   9.699  18.280   5.553
 8326POPC   PO443392   9.726  18.325   5.853
 8326POPC   GL143393   9.752  18.239   6.153
 8326POPC   GL243394   9.625  18.210   6.153
 8326POPC   C1A43395   9.759  18.275   6.453
 8326POPC   D2A43396   9.756  18.326   6.753
 8326POPC   C3A43397   9.756  18.265   7.053
 8326POPC   C4A43398   9.768  18.332   7.353
 8326POPC   C1B43399   9.599  18.068   6.453
 8326POPC   C2B43400   9.520  18.117   6.753
 8326POPC   C3B43401   9.592  18.121   7.053
 8326POPC   C4B43402   9.566  18.098   7.353
 8327POPC   NC343403  29.141  11.265   5.553
 8327POPC   PO443404  29.163  11.291   5.853
 8327POPC   GL143405  29.159  11.270   6.153
 8327POPC   GL243406  29.069  11.253   6.153
 8327POPC   C1A43407  29.179  11.322   6.453
 8327POPC   D2A43408  29.127  11.298   6.753
 8327POPC   C3A43409  29.158  11.264   7.053
 8327POPC   C4A43410  29.145  11.303   7.353
 8327POPC   C1B43411  28.983  11.142   6.453
 8327POPC   C2B43412  28.964  11.121   6.753
 8327POPC   C3B43413  28.908  11.132   7.053
 8327POPC   C4B43414  28.928  11.131   7.353
 8328POPC   NC343415   6.600  30.689   5.553
 8328POPC   PO443416   6.651  30.696   5.853
 8328POPC   GL143417   6.662  30.660   6.153
 8328POPC   GL243418   6.596  30.764   6.153
 8328POPC   C1A43419   6.629  30.670   6.453
 8328POPC   D2A43420   6.676  30.719   6.753
 8328POPC   C3A43421   6.684  30.647   7.053
 8328POPC   C4A43422   6.640  30.690   7.353
 8328POPC   C1B43423   6.499  30.823   6.453
 8328POPC   C2B43424   6.483  30.836   6.753
 8328POPC   C3B43425   6.454  30.894   7.053
 8328POPC   C4B43426   6.493  30.826   7.353
 8329POPC   NC343427  33.815  36.950   5.553
 8329POPC   PO443428  33.806  36.855   5.853
 8329POPC   GL143429  33.836  36.884   6.153
 8329POPC   GL243430  33.824  37.022   6.153
 8329POPC   C1A43431  33.792  36.865   6.453
 8329POPC   D2A43432  33.754  36.906   6.753
 8329POPC   C3A43433  33.824  36.854   7.053
 8329POPC   C4A43434  33.837  36.940   7.353
 8329POPC   C1B43435  33.915  37.097   6.453
 8329POPC   C2B43436  33.904  37.114   6.753
 8329POPC   C3B43437  33.852  37.119   7.053
 8329POPC   C4B43438  33.927  37.144   7.353
 8330POPC   NC343439   9.014  22.893   5.553
 8330POPC   PO443440   8.988  22.946   5.853
 8330POPC   GL143441   8.966  22.894   6.153
 8330POPC   GL243442   8.964  23.092   6.153
 8330POPC   C1A43443   8.945  22.960   6.453
 8330POPC   D2A43444   8.959  22.937   6.753
 8330POPC   C3A43445   9.019  22.959   7.053
 8330POPC   C4A43446   8.958  22.952   7.353
 8330POPC   C1B43447   8.867  23.147   6.453
 8330POPC   C2B43448   8.847  23.211   6.753
 8330POPC   C3B43449   8.887  23.173   7.053
 8330POPC   C4B43450   8.888  23.211   7.353
 8331POPC   NC343451  26.788  40.793   5.553
 8331POPC   PO443452  26.860  40.757   5.853
 8331POPC   GL143453  26.777  40.795   6.153
 8331POPC   GL243454  26.863  40.909   6.153
 8331POPC   C1A43455  26.777  40.799   6.453
 8331POPC   D2A43456  26.768  40.742   6.753
 8331POPC   C3A43457  26.809  40.760   7.053
 8331POPC   C4A43458  26.798  40.816   7.353
 8331POPC   C1B43459  26.861  41.065   6.453
 8331POPC   C2B43460  26.883  41.069   6.753
 8331POPC   C3B43461  26.867  40.989   7.053
 8331POPC   C4B43462  26.861  41.063   7.353
 8332POPC   NC343463  12.880  22.925   5.553
 8332POPC   PO443464  12.842  22.973   5.853
 8332POPC   GL143465  12.845  22.903   6.153
 8332POPC   GL243466  12.952  22.924   6.153
 8332POPC   C1A43467  12.849  22.983   6.453
 8332POPC   D2A43468  12.880  22.897   6.753
 8332POPC   C3A43469  12.853  22.924   7.053
 8332POPC   C4A43470  12.812  22.941   7.353
 8332POPC   C1B43471  13.041  22.863   6.453
 8332POPC   C2B43472  13.098  22.905   6.753
 8332POPC   C3B43473  13.101  22.902   7.053
 8332POPC   C4B43474  13.135  22.868   7.353
 8333POPC   NC343475  13.619  17.473   5.553
 8333POPC   PO443476  13.593  17.549   5.853
 8333POPC   GL143477  13.637  17.524   6.153
 8333POPC   GL243478  13.566  17.590   6.153
 8333POPC   C1A43479  13.656  17.465   6.453
 8333POPC   D2A43480  13.590  17.487   6.753
 8333POPC   C3A43481  13.675  17.553   7.053
 8333POPC   C4A43482  13.670  17.476   7.353
 8333POPC   C1B43483  13.465  17.678   6.453
 8333POPC   C2B43484  13.394  17.656   6.753
 8333POPC   C3B43485  13.468  17.640   7.053
 8333POPC   C4B43486  13.483  17.645   7.353
 8334POPC   NC343487  43.884  14.442   5.553
 8334POPC   PO443488  43.930  14.415   5.853
 8334POPC   GL143489  43.886  14.426   6.153
 8334POPC   GL243490  43.938  14.497   6.153
 8334POPC   C1A43491  43.929  14.386   6.453
 8334POPC   D2A43492  43.848  14.433   6.753
 8334POPC   C3A43493  43.936  14.391   7.053
 8334POPC   C4A43494  43.886  14.413   7.353
 8334POPC   C1B43495  43.847  14.651   6.453
 8334POPC   C2B43496  43.847  14.614   6.753
 8334POPC   C3B43497  43.930  14.651   7.053
 8334POPC   C4B43498  43.927  14.658   7.353
 8335POPC   NC343499  30.664  16.723   5.553
 8335POPC   PO443500  30.745  16.729   5.853
 8335POPC   GL143501  30.666  16.698   6.153
 8335POPC   GL243502  30.865  16.719   6.153
 8335POPC   C1A43503  30.692  16.739   6.453
 8335POPC   D2A43504  30.744  16.704   6.753
 8335POPC   C3A43505  30.710  16.687   7.053
 8335POPC   C4A43506  30.657  16.703   7.353
 8335POPC   C1B43507  30.992  16.661   6.453
 8335POPC   C2B43508  30.926  16.672   6.753
 8335POPC   C3B43509  30.979  16.675   7.053
 8335POPC   C4B43510  30.913  16.666   7.353
 8336POPC   NC343511  22.161  28.336   5.553
 8336POPC   PO443512  22.185  28.321   5.853
 8336POPC   GL143513  22.128  28.389   6.153
 8336POPC   GL243514  22.229  28.312   6.153
 8336POPC   C1A43515  22.116  28.336   6.453
 8336POPC   D2A43516  22.182  28.330   6.753
 8336POPC   C3A43517  22.152  28.386   7.053
 8336POPC   C4A43518  22.152  28.380   7.353
 8336POPC   C1B43519  22.378  28.199   6.453
 8336POPC   C2B43520  22.395  28.232   6.753
 8336POPC   C3B43521  22.371  28.224   7.053
 8336POPC   C4B43522  22.330  28.161   7.353
 8337POPC   NC343523  23.749  41.550   5.553
 8337POPC   PO443524  23.752  41.563   5.853
 8337POPC   GL143525  23.728  41.570   6.153
 8337POPC   GL243526  23.602  41.676   6.153
 8337POPC   C1A43527  23.741  41.525   6.453
 8337POPC   D2A43528  23.742  41.521   6.753
 8337POPC   C3A43529  23.668  41.592   7.053
 8337POPC   C4A43530  23.720  41.595   7.353
 8337POPC   C1B43531  23.475  41.690   6.453
 8337POPC   C2B43532  23.535  41.672   6.753
 8337POPC   C3B43533  23.501  41.663   7.053
 8337POPC   C4B43534  23.486  41.690   7.353
 8338POPC   NC343535  33.062  23.746   5.553
 8338POPC   PO443536  33.037  23.711   5.853
 8338POPC   GL143537  33.008  23.726   6.153
 8338POPC   GL243538  32.965  23.617   6.153
 8338POPC   C1A43539  33.054  23.757   6.453
 8338POPC   D2A43540  33.038  23.708   6.753
 8338POPC   C3A43541  33.006  23.740   7.053
 8338POPC   C4A43542  33.038  23.686   7.353
 8338POPC   C1B43543  32.988  23.434   6.453
 8338POPC   C2B43544  32.920  23.491   6.753
 8338POPC   C3B43545  32.986  23.467   7.053
 8338POPC   C4B43546  32.931  23.499   7.353
 8339POPC   NC343547  14.451   6.689   5.553
 8339POPC   PO443548  14.373   6.684   5.853
 8339POPC   GL143549  14.354   6.605   6.153
 8339POPC   GL243550  14.314   6.671   6.153
 8339POPC   C1A43551  14.404   6.596   6.453
 8339POPC   D2A43552  14.354   6.622   6.753
 8339POPC   C3A43553  14.390   6.687   7.053
 8339POPC   C4A43554  14.393   6.677   7.353
 8339POPC   C1B43555  14.133   6.710   6.453
 8339POPC   C2B43556  14.203   6.687   6.753
 8339POPC   C3B43557  14.117   6.721   7.053
 8339POPC   C4B43558  14.196   6.721   7.353
 8340POPC   NC343559  12.040   9.702   5.553
 8340POPC   PO443560  12.047   9.789   5.853
 8340POPC   GL143561  12.069   9.731   6.153
 8340POPC   GL243562  12.096   9.598   6.153
 8340POPC   C1A43563  12.074   9.750   6.453
 8340POPC   D2A43564  12.076   9.718   6.753
 8340POPC   C3A43565  12.107   9.700   7.053
 8340POPC   C4A43566  12.039   9.758   7.353
 8340POPC   C1B43567  12.087   9.484   6.453
 8340POPC   C2B43568  12.088   9.517   6.753
 8340POPC   C3B43569  12.088   9.502   7.053
 8340POPC   C4B43570  12.106   9.463   7.353
 8341POPC   NC343571   9.711  30.657   5.553
 8341POPC   PO443572   9.783  30.719   5.853
 8341POPC   GL143573   9.791  30.719   6.153
 8341POPC   GL243574   9.743  30.532   6.153
 8341POPC   C1A43575   9.797  30.647   6.453
 8341POPC   D2A43576   9.737  30.698   6.753
 8341POPC   C3A43577   9.704  30.692   7.053
 8341POPC   C4A43578   9.744  30.734   7.353
 8341POPC   C1B43579   9.643  30.436   6.453
 8341POPC   C2B43580   9.645  30.473   6.753
 8341POPC   C3B43581   9.643  30.424   7.053
 8341POPC   C4B43582   9.693  30.477   7.353
 8342POPC   NC343583   2.761  41.588   5.553
 8342POPC   PO443584   2.813  41.513   5.853
 8342POPC   GL143585   2.814  41.593   6.153
 8342POPC   GL243586   2.891  41.515   6.153
 8342POPC   C1A43587   2.730  41.541   6.453
 8342POPC   D2A43588   2.746  41.549   6.753
 8342POPC   C3A43589   2.808  41.607   7.053
 8342POPC   C4A43590   2.805  41.551   7.353
 8342POPC   C1B43591   2.933  41.366   6.453
 8342POPC   C2B43592   2.984  41.416   6.753
 8342POPC   C3B43593   3.010  41.446   7.053
 8342POPC   C4B43594   2.954  41.413   7.353
 8343POPC   NC343595  40.779  33.009   5.553
 8343POPC   PO443596  40.737  33.059   5.853
 8343POPC   GL143597  40.819  32.984   6.153
 8343POPC   GL243598  40.843  32.908   6.153
 8343POPC   C1A43599  40.821  33.063   6.453
 8343POPC   D2A43600  40.819  33.037   6.753
 8343POPC   C3A43601  40.784  33.001   7.053
 8343POPC   C4A43602  40.751  33.019   7.353
 8343POPC   C1B43603  40.951  32.853   6.453
 8343POPC   C2B43604  40.921  32.900   6.753
 8343POPC   C3B43605  41.006  32.904   7.053
 8343POPC   C4B43606  40.997  32.839   7.353
 8344POPC   NC343607  39.979  23.702   5.553
 8344POPC   PO443608  39.978  23.727   5.853
 8344POPC   GL143609  40.035  23.756   6.153
 8344POPC   GL243610  39.838  23.739   6.153
 8344POPC   C1A43611  39.958  23.743   6.453
 8344POPC   D2A43612  40.049  23.669   6.753
 8344POPC   C3A43613  39.974  23.704   7.053
 8344POPC   C4A43614  40.033  23.737   7.353
 8344POPC   C1B43615  39.800  23.815   6.453
 8344POPC   C2B43616  39.723  23.785   6.753
 8344POPC   C3B43617  39.769  23.825   7.053
 8344POPC   C4B43618  39.817  23.800   7.353
 8345POPC   NC343619   3.497  20.581   5.553
 8345POPC   PO443620   3.553  20.627   5.853
 8345POPC   GL143621   3.562  20.578   6.153
 8345POPC   GL243622   3.592  20.726   6.153
 8345POPC   C1A43623   3.537  20.603   6.453
 8345POPC   D2A43624   3.525  20.623   6.753
 8345POPC   C3A43625   3.559  20.580   7.053
 8345POPC   C4A43626   3.572  20.569   7.353
 8345POPC   C1B43627   3.741  20.848   6.453
 8345POPC   C2B43628   3.683  20.772   6.753
 8345POPC   C3B43629   3.739  20.833   7.053
 8345POPC   C4B43630   3.753  20.833   7.353
 8346POPC   NC343631  17.494  19.869   5.553
 8346POPC   PO443632  17.530  19.862   5.853
 8346POPC   GL143633  17.554  19.844   6.153
 8346POPC   GL243634  17.351  19.926   6.153
 8346POPC   C1A43635  17.499  19.876   6.453
 8346POPC   D2A43636  17.480  19.810   6.753
 8346POPC   C3A43637  17.514  19.843   7.053
 8346POPC   C4A43638  17.533  19.788   7.353
 8346POPC   C1B43639  17.259  19.879   6.453
 8346POPC   C2B43640  17.248  19.956   6.753
 8346POPC   C3B43641  17.322  19.891   7.053
 8346POPC   C4B43642  17.276  19.950   7.353
 8347POPC   NC343643  26.016  22.979   5.553
 8347POPC   PO443644  26.035  22.897   5.853
 8347POPC   GL143645  26.066  22.888   6.153
 8347POPC   GL243646  25.918  22.813   6.153
 8347POPC   C1A43647  26.068  22.917   6.453
 8347POPC   D2A43648  26.057  22.942   6.753
 8347POPC   C3A43649  26.069  22.891   7.053
 8347POPC   C4A43650  26.081  22.933   7.353
 8347POPC   C1B43651  25.845  22.774   6.453
 8347POPC   C2B43652  25.931  22.692   6.753
 8347POPC   C3B43653  25.887  22.725   7.053
 8347POPC   C4B43654  25.936  22.770   7.353
 8348POPC   NC343655  40.788  28.383   5.553
 8348POPC   PO443656  40.772  28.374   5.853
 8348POPC   GL143657  40.762  28.326   6.153
 8348POPC   GL243658  40.712  28.272   6.153
 8348POPC   C1A43659  40.773  28.395   6.453
 8348POPC   D2A43660  40.794  28.344   6.753
 8348POPC   C3A43661  40.800  28.410   7.053
 8348POPC   C4A43662  40.787  28.402   7.353
 8348POPC   C1B43663  40.631  28.102   6.453
 8348POPC   C2B43664  40.623  28.100   6.753
 8348POPC   C3B43665  40.655  28.134   7.053
 8348POPC   C4B43666  40.679  28.130   7.353
 8349POPC   NC343667  38.492  12.042   5.553
 8349POPC   PO443668  38.418  12.065   5.853
 8349POPC   GL143669  38.493  12.111   6.153
 8349POPC   GL243670  38.453  11.947   6.153
 8349POPC   C1A43671  38.484  12.090   6.453
 8349POPC   D2A43672  38.490  12.090   6.753
 8349POPC   C3A43673  38.406  12.121   7.053
 8349POPC   C4A43674  38.456  12.120   7.353
 8349POPC   C1B43675  38.390  11.821   6.453
 8349POPC   C2B43676  38.358  11.875   6.753
 8349POPC   C3B43677  38.330  11.810   7.053
 8349POPC   C4B43678  38.390  11.859   7.353
 8350POPC   NC343679  31.433   7.423   5.553
 8350POPC   PO443680  31.470   7.422   5.853
 8350POPC   GL143681  31.439   7.436   6.153
 8350POPC   GL243682  31.395   7.570   6.153
 8350POPC   C1A43683  31.428   7.406   6.453
 8350POPC   D2A43684  31.449   7.470   6.753
 8350POPC   C3A43685  31.496   7.469   7.053
 8350POPC   C4A43686  31.513   7.405   7.353
 8350POPC   C1B43687  31.406   7.651   6.453
 8350POPC   C2B43688  31.369   7.693   6.753
 8350POPC   C3B43689  31.336   7.617   7.053
 8350POPC   C4B43690  31.319   7.657   7.353
 8351POPC   NC343691   5.877   1.968   5.553
 8351POPC   PO443692   5.896   1.951   5.853
 8351POPC   GL143693   5.838   1.996   6.153
 8351POPC   GL243694   6.003   1.926   6.153
 8351POPC   C1A43695   5.821   2.017   6.453
 8351POPC   D2A43696   5.821   2.019   6.753
 8351POPC   C3A43697   5.876   1.980   7.053
 8351POPC   C4A43698   5.916   1.990   7.353
 8351POPC   C1B43699   6.030   1.812   6.453
 8351POPC   C2B43700   6.115   1.796   6.753
 8351POPC   C3B43701   6.041   1.866   7.053
 8351POPC   C4B43702   6.101   1.854   7.353
 8352POPC   NC343703  29.967  10.476   5.553
 8352POPC   PO443704  29.924  10.538   5.853
 8352POPC   GL143705  29.899  10.545   6.153
 8352POPC   GL243706  29.994  10.384   6.153
 8352POPC   C1A43707  29.891  10.511   6.453
 8352POPC   D2A43708  29.877  10.524   6.753
 8352POPC   C3A43709  29.900  10.506   7.053
 8352POPC   C4A43710  29.877  10.487   7.353
 8352POPC   C1B43711  29.996  10.286   6.453
 8352POPC   C2B43712  29.986  10.332   6.753
 8352POPC   C3B43713  30.029  10.286   7.053
 8352POPC   C4B43714  29.973  10.321   7.353
 8353POPC   NC343715   2.037  12.887   5.553
 8353POPC   PO443716   1.962  12.862   5.853
 8353POPC   GL143717   1.977  12.866   6.153
 8353POPC   GL243718   2.110  12.742   6.153
 8353POPC   C1A43719   1.985  12.846   6.453
 8353POPC   D2A43720   2.030  12.861   6.753
 8353POPC   C3A43721   1.972  12.851   7.053
 8353POPC   C4A43722   2.003  12.817   7.353
 8353POPC   C1B43723   2.143  12.708   6.453
 8353POPC   C2B43724   2.138  12.616   6.753
 8353POPC   C3B43725   2.147  12.662   7.053
 8353POPC   C4B43726   2.154  12.709   7.353
 8354POPC   NC343727   4.276  22.899   5.553
 8354POPC   PO443728   4.305  22.980   5.853
 8354POPC   GL143729   4.342  22.943   6.153
 8354POPC   GL243730   4.364  23.084   6.153
 8354POPC   C1A43731   4.276  22.919   6.453
 8354POPC   D2A43732   4.292  22.908   6.753
 8354POPC   C3A43733   4.315  22.925   7.053
 8354POPC   C4A43734   4.313  22.976   7.353
 8354POPC   C1B43735   4.453  23.178   6.453
 8354POPC   C2B43736   4.375  23.209   6.753
 8354POPC   C3B43737   4.448  23.187   7.053
 8354POPC   C4B43738   4.427  23.135   7.353
 8355POPC   NC343739  44.669  38.437   5.553
 8355POPC   PO443740  44.658  38.454   5.853
 8355POPC   GL143741  44.684  38.406   6.153
 8355POPC   GL243742  44.771  38.508   6.153
 8355POPC   C1A43743  44.636  38.427   6.453
 8355POPC   D2A43744  44.659  38.455   6.753
 8355POPC   C3A43745  44.693  38.418   7.053
 8355POPC   C4A43746  44.712  38.429   7.353
 8355POPC   C1B43747  44.864  38.586   6.453
 8355POPC   C2B43748  44.916  38.574   6.753
 8355POPC   C3B43749  44.862  38.574   7.053
 8355POPC   C4B43750  44.904  38.568   7.353
 8356POPC   NC343751  22.962  18.312   5.553
 8356POPC   PO443752  22.956  18.326   5.853
 8356POPC   GL143753  22.951  18.292   6.153
 8356POPC   GL243754  22.882  18.209   6.153
 8356POPC   C1A43755  22.916  18.300   6.453
 8356POPC   D2A43756  22.966  18.283   6.753
 8356POPC   C3A43757  22.960  18.272   7.053
 8356POPC   C4A43758  22.947  18.314   7.353
 8356POPC   C1B43759  22.844  18.087   6.453
 8356POPC   C2B43760  22.882  18.003   6.753
 8356POPC   C3B43761  22.844  18.052   7.053
 8356POPC   C4B43762  22.860  18.024   7.353
 8357POPC   NC343763   1.201  30.722   5.553
 8357POPC   PO443764   1.172  30.713   5.853
 8357POPC   GL143765   1.209  30.704   6.153
 8357POPC   GL243766   1.147  30.551   6.153
 8357POPC   C1A43767   1.185  30.702   6.453
 8357POPC   D2A43768   1.235  30.679   6.753
 8357POPC   C3A43769   1.235  30.669   7.053
 8357POPC   C4A43770   1.168  30.706   7.353
 8357POPC   C1B43771   1.145  30.451   6.453
 8357POPC   C2B43772   1.127  30.499   6.753
 8357POPC   C3B43773   1.194  30.486   7.053
 8357POPC   C4B43774   1.167  30.465   7.353
 8358POPC   NC343775   9.722  16.765   5.553
 8358POPC   PO443776   9.793  16.697   5.853
 8358POPC   GL143777   9.758  16.761   6.153
 8358POPC   GL243778   9.780  16.882   6.153
 8358POPC   C1A43779   9.700  16.742   6.453
 8358POPC   D2A43780   9.703  16.776   6.753
 8358POPC   C3A43781   9.710  16.733   7.053
 8358POPC   C4A43782   9.738  16.691   7.353
 8358POPC   C1B43783   9.755  16.949   6.453
 8358POPC   C2B43784   9.747  16.945   6.753
 8358POPC   C3B43785   9.745  16.937   7.053
 8358POPC   C4B43786   9.708  16.985   7.353
 8359POPC   NC343787   5.082  27.574   5.553
 8359POPC   PO443788   5.087  27.563   5.853
 8359POPC   GL143789   5.065  27.559   6.153
 8359POPC   GL243790   5.194  27.720   6.153
 8359POPC   C1A43791   5.043  27.592   6.453
 8359POPC   D2A43792   5.105  27.576   6.753
 8359POPC   C3A43793   5.074  27.594   7.053
 8359POPC   C4A43794   5.125  27.626   7.353
 8359POPC   C1B43795   5.261  27.799   6.453
 8359POPC   C2B43796   5.239  27.772   6.753
 8359POPC   C3B43797   5.294  27.804   7.053
 8359POPC   C4B43798   5.282  27.722   7.353
 8360POPC   NC343799  29.161  16.681   5.553
 8360POPC   PO443800  29.191  16.741   5.853
 8360POPC   GL143801  29.113  16.716   6.153
 8360POPC   GL243802  29.157  16.583   6.153
 8360POPC   C1A43803  29.163  16.764   6.453
 8360POPC   D2A43804  29.136  16.750   6.753
 8360POPC   C3A43805  29.130  16.747   7.053
 8360POPC   C4A43806  29.158  16.695   7.353
 8360POPC   C1B43807  29.114  16.448   6.453
 8360POPC   C2B43808  29.129  16.461   6.753
 8360POPC   C3B43809  29.165  16.458   7.053
 8360POPC   C4B43810  29.116  16.512   7.353
 8361POPC   NC343811   8.232   9.020   5.553
 8361POPC   PO443812   8.179   8.968   5.853
 8361POPC   GL143813   8.147   8.937   6.153
 8361POPC   GL243814   8.297   9.056   6.153
 8361POPC   C1A43815   8.151   8.999   6.453
 8361POPC   D2A43816   8.151   8.929   6.753
 8361POPC   C3A43817   8.149   9.006   7.053
 8361POPC   C4A43818   8.197   8.939   7.353
 8361POPC   C1B43819   8.484   8.998   6.453
 8361POPC   C2B43820   8.403   9.005   6.753
 8361POPC   C3B43821   8.458   9.001   7.053
 8361POPC   C4B43822   8.400   9.016   7.353
 8362POPC   NC343823  11.341  12.086   5.553
 8362POPC   PO443824  11.297  12.075   5.853
 8362POPC   GL143825  11.333  12.117   6.153
 8362POPC   GL243826  11.188  11.958   6.153
 8362POPC   C1A43827  11.260  12.068   6.453
 8362POPC   D2A43828  11.258  12.058   6.753
 8362POPC   C3A43829  11.342  12.040   7.053
 8362POPC   C4A43830  11.264  12.055   7.353
 8362POPC   C1B43831  11.145  11.949   6.453
 8362POPC   C2B43832  11.143  11.874   6.753
 8362POPC   C3B43833  11.124  11.929   7.053
 8362POPC   C4B43834  11.125  11.867   7.353
 8363POPC   NC343835   8.204  12.855   5.553
 8363POPC   PO443836   8.165  12.853   5.853
 8363POPC   GL143837   8.215  12.831   6.153
 8363POPC   GL243838   8.302  12.767   6.153
 8363POPC   C1A43839   8.230  12.807   6.453
 8363POPC   D2A43840   8.153  12.854   6.753
 8363POPC   C3A43841   8.240  12.860   7.053
 8363POPC   C4A43842   8.241  12.875   7.353
 8363POPC   C1B43843   8.390  12.627   6.453
 8363POPC   C2B43844   8.350  12.694   6.753
 8363POPC   C3B43845   8.371  12.616   7.053
 8363POPC   C4B43846   8.332  12.661   7.353
 8364POPC   NC343847   5.871  19.062   5.553
 8364POPC   PO443848   5.913  19.067   5.853
 8364POPC   GL143849   5.870  19.030   6.153
 8364POPC   GL243850   5.899  19.171   6.153
 8364POPC   C1A43851   5.901  19.047   6.453
 8364POPC   D2A43852   5.885  19.077   6.753
 8364POPC   C3A43853   5.869  19.031   7.053
 8364POPC   C4A43854   5.877  19.025   7.353
 8364POPC   C1B43855   5.799  19.270   6.453
 8364POPC   C2B43856   5.865  19.291   6.753
 8364POPC   C3B43857   5.805  19.304   7.053
 8364POPC   C4B43858   5.859  19.307   7.353
 8365POPC   NC343859  40.809  40.019   5.553
 8365POPC   PO443860  40.769  39.994   5.853
 8365POPC   GL143861  40.793  40.035   6.153
 8365POPC   GL243862  40.897  39.959   6.153
 8365POPC   C1A43863  40.743  40.053   6.453
 8365POPC   D2A43864  40.742  40.027   6.753
 8365POPC   C3A43865  40.740  40.003   7.053
 8365POPC   C4A43866  40.736  40.036   7.353
 8365POPC   C1B43867  41.056  39.994   6.453
 8365POPC   C2B43868  41.041  39.951   6.753
 8365POPC   C3B43869  41.049  39.968   7.053
 8365POPC   C4B43870  40.984  39.965   7.353
 8366POPC   NC343871  23.668   4.319   5.553
 8366POPC   PO443872  23.674   4.271   5.853
 8366POPC   GL143873  23.763   4.325   6.153
 8366POPC   GL243874  23.615   4.293   6.153
 8366POPC   C1A43875  23.693   4.310   6.453
 8366POPC   D2A43876  23.686   4.316   6.753
 8366POPC   C3A43877  23.734   4.300   7.053
 8366POPC   C4A43878  23.729   4.352   7.353
 8366POPC   C1B43879  23.447   4.349   6.453
 8366POPC   C2B43880  23.511   4.311   6.753
 8366POPC   C3B43881  23.492   4.258   7.053
 8366POPC   C4B43882  23.460   4.265   7.353
 8367POPC   NC343883  26.852  12.868   5.553
 8367POPC   PO443884  26.802  12.841   5.853
 8367POPC   GL143885  26.825  12.809   6.153
 8367POPC   GL243886  26.909  12.870   6.153
 8367POPC   C1A43887  26.785  12.827   6.453
 8367POPC   D2A43888  26.776  12.802   6.753
 8367POPC   C3A43889  26.839  12.841   7.053
 8367POPC   C4A43890  26.800  12.897   7.353
 8367POPC   C1B43891  26.993  12.948   6.453
 8367POPC   C2B43892  26.994  12.980   6.753
 8367POPC   C3B43893  27.023  13.016   7.053
 8367POPC   C4B43894  27.068  12.986   7.353
 8368POPC   NC343895  32.992  30.665   5.553
 8368POPC   PO443896  33.068  30.661   5.853
 8368POPC   GL143897  33.005  30.696   6.153
 8368POPC   GL243898  33.021  30.585   6.153
 8368POPC   C1A43899  33.074  30.712   6.453
 8368POPC   D2A43900  32.981  30.664   6.753
 8368POPC   C3A43901  33.046  30.734   7.053
 8368POPC   C4A43902  32.998  30.691   7.353
 8368POPC   C1B43903  32.984  30.489   6.453
 8368POPC   C2B43904  32.983  30.492   6.753
 8368POPC   C3B43905  33.072  30.484   7.053
 8368POPC   C4B43906  33.036  30.427   7.353
 8369POPC   NC343907  26.017  26.050   5.553
 8369POPC   PO443908  26.070  26.023   5.853
 8369POPC   GL143909  26.010  26.029   6.153
 8369POPC   GL243910  26.039  25.902   6.153
 8369POPC   C1A43911  26.066  26.019   6.453
 8369POPC   D2A43912  26.071  25.997   6.753
 8369POPC   C3A43913  26.025  26.044   7.053
 8369POPC   C4A43914  26.010  26.081   7.353
 8369POPC   C1B43915  25.943  25.788   6.453
 8369POPC   C2B43916  25.965  25.772   6.753
 8369POPC   C3B43917  25.948  25.801   7.053
 8369POPC   C4B43918  25.943  25.814   7.353
 8370POPC   NC343919  13.585  18.311   5.553
 8370POPC   PO443920  13.631  18.325   5.853
 8370POPC   GL143921  13.597  18.295   6.153
 8370POPC   GL243922  13.652  18.415   6.153
 8370POPC   C1A43923  13.632  18.263   6.453
 8370POPC   D2A43924  13.622  18.294   6.753
 8370POPC   C3A43925  13.598  18.274   7.053
 8370POPC   C4A43926  13.647  18.329   7.353
 8370POPC   C1B43927  13.612  18.523   6.453
 8370POPC   C2B43928  13.699  18.539   6.753
 8370POPC   C3B43929  13.691  18.482   7.053
 8370POPC   C4B43930  13.644  18.531   7.353
 8371POPC   NC343931  35.383  29.188   5.553
 8371POPC   PO443932  35.355  29.137   5.853
 8371POPC   GL143933  35.337  29.189   6.153
 8371POPC   GL243934  35.470  29.199   6.153
 8371POPC   C1A43935  35.351  29.104   6.453
 8371POPC   D2A43936  35.365  29.103   6.753
 8371POPC   C3A43937  35.313  29.099   7.053
 8371POPC   C4A43938  35.323  29.128   7.353
 8371POPC   C1B43939  35.510  29.290   6.453
 8371POPC   C2B43940  35.517  29.328   6.753
 8371POPC   C3B43941  35.569  29.298   7.053
 8371POPC   C4B43942  35.595  29.251   7.353
 8372POPC   NC343943   5.829  41.572   5.553
 8372POPC   PO443944   5.890  41.591   5.853
 8372POPC   GL143945   5.880  41.590   6.153
 8372POPC   GL243946   6.015  41.573   6.153
 8372POPC   C1A43947   5.841  41.604   6.453
 8372POPC   D2A43948   5.901  41.513   6.753
 8372POPC   C3A43949   5.871  41.556   7.053
 8372POPC   C4A43950   5.828  41.591   7.353
 8372POPC   C1B43951   6.108  41.542   6.453
 8372POPC   C2B43952   6.099  41.548   6.753
 8372POPC   C3B43953   6.149  41.587   7.053
 8372POPC   C4B43954   6.111  41.568   7.353
 8373POPC   NC343955   9.704  28.330   5.553
 8373POPC   PO443956   9.717  28.369   5.853
 8373POPC   GL143957   9.744  28.354   6.153
 8373POPC   GL243958   9.838  28.265   6.153
 8373POPC   C1A43959   9.760  28.364   6.453
 8373POPC   D2A43960   9.790  28.357   6.753
 8373POPC   C3A43961   9.764  28.397   7.053
 8373POPC   C4A43962   9.746  28.411   7.353
 8373POPC   C1B43963   9.958  28.141   6.453
 8373POPC   C2B43964   9.915  28.166   6.753
 8373POPC   C3B43965   9.917  28.197   7.053
 8373POPC   C4B43966   9.867  28.225   7.353
 8374POPC   NC343967   7.420  39.980   5.553
 8374POPC   PO443968   7.414  40.027   5.853
 8374POPC   GL143969   7.398  40.033   6.153
 8374POPC   GL243970   7.462  40.111   6.153
 8374POPC   C1A43971   7.430  39.989   6.453
 8374POPC   D2A43972   7.396  40.044   6.753
 8374POPC   C3A43973   7.454  40.001   7.053
 8374POPC   C4A43974   7.412  39.993   7.353
 8374POPC   C1B43975   7.455  40.214   6.453
 8374POPC   C2B43976   7.520  40.259   6.753
 8374POPC   C3B43977   7.465  40.228   7.053
 8374POPC   C4B43978   7.471  40.199   7.353
 8375POPC   NC343979  23.733  19.094   5.553
 8375POPC   PO443980  23.708  19.030   5.853
 8375POPC   GL143981  23.736  19.028   6.153
 8375POPC   GL243982  23.818  19.108   6.153
 8375POPC   C1A43983  23.750  19.052   6.453
 8375POPC   D2A43984  23.701  19.035   6.753
 8375POPC   C3A43985  23.705  19.104   7.053
 8375POPC   C4A43986  23.681  19.042   7.353
 8375POPC   C1B43987  23.912  19.172   6.453
 8375POPC   C2B43988  23.956  19.229   6.753
 8375POPC   C3B43989  23.939  19.202   7.053
 8375POPC   C4B43990  23.910  19.165   7.353
 8376POPC   NC343991  21.424  28.323   5.553
 8376POPC   PO443992  21.406  28.415   5.853
 8376POPC   GL143993  21.369  28.389   6.153
 8376POPC   GL243994  21.367  28.474   6.153
 8376POPC   C1A43995  21.339  28.398   6.453
 8376POPC   D2A43996  21.434  28.333   6.753
 8376POPC   C3A43997  21.341  28.413   7.053
 8376POPC   C4A43998  21.349  28.355   7.353
 8376POPC   C1B43999  21.332  28.639   6.453
 8376POPC   C2B44000  21.326  28.620   6.753
 8376POPC   C3B44001  21.369  28.582   7.053
 8376POPC   C4B44002  21.298  28.598   7.353
 8377POPC   NC344003  26.040   4.353   5.553
 8377POPC   PO444004  26.048   4.286   5.853
 8377POPC   GL144005  26.017   4.352   6.153
 8377POPC   GL244006  26.086   4.197   6.153
 8377POPC   C1A44007  26.003   4.293   6.453
 8377POPC   D2A44008  26.051   4.349   6.753
 8377POPC   C3A44009  26.022   4.316   7.053
 8377POPC   C4A44010  26.025   4.363   7.353
 8377POPC   C1B44011  26.242   4.092   6.453
 8377POPC   C2B44012  26.222   4.168   6.753
 8377POPC   C3B44013  26.198   4.103   7.053
 8377POPC   C4B44014  26.160   4.100   7.353
 8378POPC   NC344015  25.293  16.739   5.553
 8378POPC   PO444016  25.217  16.779   5.853
 8378POPC   GL144017  25.296  16.775   6.153
 8378POPC   GL244018  25.315  16.831   6.153
 8378POPC   C1A44019  25.254  16.705   6.453
 8378POPC   D2A44020  25.233  16.740   6.753
 8378POPC   C3A44021  25.255  16.742   7.053
 8378POPC   C4A44022  25.276  16.694   7.353
 8378POPC   C1B44023  25.406  16.926   6.453
 8378POPC   C2B44024  25.387  16.977   6.753
 8378POPC   C3B44025  25.361  16.967   7.053
 8378POPC   C4B44026  25.386  16.961   7.353
 8379POPC   NC344027  27.604   4.342   5.553
 8379POPC   PO444028  27.582   4.351   5.853
 8379POPC   GL144029  27.554   4.359   6.153
 8379POPC   GL244030  27.524   4.411   6.153
 8379POPC   C1A44031  27.605   4.272   6.453
 8379POPC   D2A44032  27.625   4.314   6.753
 8379POPC   C3A44033  27.640   4.367   7.053
 8379POPC   C4A44034  27.608   4.296   7.353
 8379POPC   C1B44035  27.475   4.498   6.453
 8379POPC   C2B44036  27.480   4.543   6.753
 8379POPC   C3B44037  27.494   4.580   7.053
 8379POPC   C4B44038  27.419   4.499   7.353
 8380POPC   NC344039  10.478  15.154   5.553
 8380POPC   PO444040  10.521  15.196   5.853
 8380POPC   GL144041  10.559  15.134   6.153
 8380POPC   GL244042  10.607  15.235   6.153
 8380POPC   C1A44043  10.544  15.132   6.453
 8380POPC   D2A44044  10.540  15.189   6.753
 8380POPC   C3A44045  10.491  15.221   7.053
 8380POPC   C4A44046  10.558  15.227   7.353
 8380POPC   C1B44047  10.783  15.193   6.453
 8380POPC   C2B44048  10.820  15.146   6.753
 8380POPC   C3B44049  10.746  15.163   7.053
 8380POPC   C4B44050  10.747  15.198   7.353
 8381POPC   NC344051  30.685  11.289   5.553
 8381POPC   PO444052  30.648  11.268   5.853
 8381POPC   GL144053  30.723  11.282   6.153
 8381POPC   GL244054  30.660  11.216   6.153
 8381POPC   C1A44055  30.666  11.273   6.453
 8381POPC   D2A44056  30.673  11.293   6.753
 8381POPC   C3A44057  30.705  11.318   7.053
 8381POPC   C4A44058  30.686  11.311   7.353
 8381POPC   C1B44059  30.580  11.096   6.453
 8381POPC   C2B44060  30.583  11.137   6.753
 8381POPC   C3B44061  30.572  11.088   7.053
 8381POPC   C4B44062  30.594  11.113   7.353
 8382POPC   NC344063  43.063   9.771   5.553
 8382POPC   PO444064  43.134   9.776   5.853
 8382POPC   GL144065  43.134   9.735   6.153
 8382POPC   GL244066  42.957   9.662   6.153
 8382POPC   C1A44067  43.121   9.764   6.453
 8382POPC   D2A44068  43.132   9.781   6.753
 8382POPC   C3A44069  43.097   9.761   7.053
 8382POPC   C4A44070  43.137   9.719   7.353
 8382POPC   C1B44071  42.839   9.670   6.453
 8382POPC   C2B44072  42.836   9.707   6.753
 8382POPC   C3B44073  42.913   9.711   7.053
 8382POPC   C4B44074  42.879   9.614   7.353
 8383POPC   NC344075   4.330   9.785   5.553
 8383POPC   PO444076   4.308   9.739   5.853
 8383POPC   GL144077   4.310   9.710   6.153
 8383POPC   GL244078   4.389   9.802   6.153
 8383POPC   C1A44079   4.319   9.702   6.453
 8383POPC   D2A44080   4.307   9.746   6.753
 8383POPC   C3A44081   4.352   9.716   7.053
 8383POPC   C4A44082   4.313   9.720   7.353
 8383POPC   C1B44083   4.552   9.899   6.453
 8383POPC   C2B44084   4.476   9.860   6.753
 8383POPC   C3B44085   4.500   9.853   7.053
 8383POPC   C4B44086   4.474   9.936   7.353
 8384POPC   NC344087  26.830  44.653   5.553
 8384POPC   PO444088  26.788  44.643   5.853
 8384POPC   GL144089  26.825  44.664   6.153
 8384POPC   GL244090  26.679  44.614   6.153
 8384POPC   C1A44091  26.779  44.641   6.453
 8384POPC   D2A44092  26.820  44.641   6.753
 8384POPC   C3A44093  26.778  44.650   7.053
 8384POPC   C4A44094  26.816  44.630   7.353
 8384POPC   C1B44095  26.652  44.510   6.453
 8384POPC   C2B44096  26.595  44.508   6.753
 8384POPC   C3B44097  26.601  44.529   7.053
 8384POPC   C4B44098  26.599  44.511   7.353
 8385POPC   NC344099  26.011  16.771   5.553
 8385POPC   PO444100  26.012  16.728   5.853
 8385POPC   GL144101  26.036  16.768   6.153
 8385POPC   GL244102  25.961  16.805   6.153
 8385POPC   C1A44103  26.049  16.772   6.453
 8385POPC   D2A44104  26.003  16.757   6.753
 8385POPC   C3A44105  26.082  16.707   7.053
 8385POPC   C4A44106  25.992  16.722   7.353
 8385POPC   C1B44107  25.813  16.808   6.453
 8385POPC   C2B44108  25.766  16.777   6.753
 8385POPC   C3B44109  25.755  16.805   7.053
 8385POPC   C4B44110  25.761  16.777   7.353
 8386POPC   NC344111  36.907  26.856   5.553
 8386POPC   PO444112  36.858  26.817   5.853
 8386POPC   GL144113  36.880  26.853   6.153
 8386POPC   GL244114  36.733  26.818   6.153
 8386POPC   C1A44115  36.896  26.855   6.453
 8386POPC   D2A44116  36.951  26.846   6.753
 8386POPC   C3A44117  36.925  26.821   7.053
 8386POPC   C4A44118  36.932  26.780   7.353
 8386POPC   C1B44119  36.663  26.713   6.453
 8386POPC   C2B44120  36.618  26.718   6.753
 8386POPC   C3B44121  36.699  26.738   7.053
 8386POPC   C4B44122  36.685  26.776   7.353
 8387POPC   NC344123   5.835  44.666   5.553
 8387POPC   PO444124   5.908  44.631   5.853
 8387POPC   GL144125   5.912  44.637   6.153
 8387POPC   GL244126   5.776  44.668   6.153
 8387POPC   C1A44127   5.892  44.619   6.453
 8387POPC   D2A44128   5.905  44.617   6.753
 8387POPC   C3A44129   5.872  44.680   7.053
 8387POPC   C4A44130   5.820  44.637   7.353
 8387POPC   C1B44131   5.688  44.720   6.453
 8387POPC   C2B44132   5.642  44.800   6.753
 8387POPC   C3B44133   5.635  44.730   7.053
 8387POPC   C4B44134   5.607  44.811   7.353
 8388POPC   NC344135  41.512  11.262   5.553
 8388POPC   PO444136  41.577  11.260   5.853
 8388POPC   GL144137  41.594  11.319   6.153
 8388POPC   GL244138  41.488  11.430   6.153
 8388POPC   C1A44139  41.514  11.338   6.453
 8388POPC   D2A44140  41.557  11.285   6.753
 8388POPC   C3A44141  41.596  11.299   7.053
 8388POPC   C4A44142  41.605  11.338   7.353
 8388POPC   C1B44143  41.514  11.573   6.453
 8388POPC   C2B44144  41.512  11.521   6.753
 8388POPC   C3B44145  41.477  11.522   7.053
 8388POPC   C4B44146  41.489  11.564   7.353
 8389POPC   NC344147  43.139   5.117   5.553
 8389POPC   PO444148  43.160   5.114   5.853
 8389POPC   GL144149  43.121   5.113   6.153
 8389POPC   GL244150  43.204   5.110   6.153
 8389POPC   C1A44151  43.090   5.097   6.453
 8389POPC   D2A44152  43.114   5.058   6.753
 8389POPC   C3A44153  43.106   5.118   7.053
 8389POPC   C4A44154  43.070   5.055   7.353
 8389POPC   C1B44155  43.353   5.249   6.453
 8389POPC   C2B44156  43.320   5.222   6.753
 8389POPC   C3B44157  43.321   5.239   7.053
 8389POPC   C4B44158  43.280   5.260   7.353
 8390POPC   NC344159   5.829  36.165   5.553
 8390POPC   PO444160   5.849  36.150   5.853
 8390POPC   GL144161   5.836  36.079   6.153
 8390POPC   GL244162   5.989  36.086   6.153
 8390POPC   C1A44163   5.838  36.156   6.453
 8390POPC   D2A44164   5.884  36.118   6.753
 8390POPC   C3A44165   5.890  36.105   7.053
 8390POPC   C4A44166   5.904  36.099   7.353
 8390POPC   C1B44167   6.076  36.020   6.453
 8390POPC   C2B44168   6.065  36.034   6.753
 8390POPC   C3B44169   6.047  35.985   7.053
 8390POPC   C4B44170   6.115  35.991   7.353
 8391POPC   NC344171   3.583  13.583   5.553
 8391POPC   PO444172   3.587  13.582   5.853
 8391POPC   GL144173   3.507  13.602   6.153
 8391POPC   GL244174   3.553  13.504   6.153
 8391POPC   C1A44175   3.538  13.661   6.453
 8391POPC   D2A44176   3.582  13.635   6.753
 8391POPC   C3A44177   3.527  13.644   7.053
 8391POPC   C4A44178   3.553  13.606   7.353
 8391POPC   C1B44179   3.477  13.400   6.453
 8391POPC   C2B44180   3.475  13.380   6.753
 8391POPC   C3B44181   3.545  13.390   7.053
 8391POPC   C4B44182   3.559  13.333   7.353
 8392POPC   NC344183   9.786  22.136   5.553
 8392POPC   PO444184   9.758  22.191   5.853
 8392POPC   GL144185   9.705  22.187   6.153
 8392POPC   GL244186   9.866  22.124   6.153
 8392POPC   C1A44187   9.768  22.196   6.453
 8392POPC   D2A44188   9.795  22.153   6.753
 8392POPC   C3A44189   9.754  22.147   7.053
 8392POPC   C4A44190   9.789  22.177   7.353
 8392POPC   C1B44191  10.047  22.097   6.453
 8392POPC   C2B44192  10.038  22.097   6.753
 8392POPC   C3B44193  10.005  22.098   7.053
 8392POPC   C4B44194   9.957  22.129   7.353
 8393POPC   NC344195  13.601  36.891   5.553
 8393POPC   PO444196  13.612  36.878   5.853
 8393POPC   GL144197  13.670  36.899   6.153
 8393POPC   GL244198  13.776  36.981   6.153
 8393POPC   C1A44199  13.641  36.940   6.453
 8393POPC   D2A44200  13.596  36.921   6.753
 8393POPC   C3A44201  13.584  36.923   7.053
 8393POPC   C4A44202  13.622  36.898   7.353
 8393POPC   C1B44203  13.880  37.009   6.453
 8393POPC   C2B44204  13.847  37.044   6.753
 8393POPC   C3B44205  13.815  37.081   7.053
 8393POPC   C4B44206  13.824  37.000   7.353
 8394POPC   NC344207   5.850  35.303   5.553
 8394POPC   PO444208   5.893  35.358   5.853
 8394POPC   GL144209   5.895  35.390   6.153
 8394POPC   GL244210   5.803  35.455   6.153
 8394POPC   C1A44211   5.858  35.397   6.453
 8394POPC   D2A44212   5.866  35.385   6.753
 8394POPC   C3A44213   5.844  35.304   7.053
 8394POPC   C4A44214   5.874  35.335   7.353
 8394POPC   C1B44215   5.776  35.616   6.453
 8394POPC   C2B44216   5.753  35.553   6.753
 8394POPC   C3B44217   5.781  35.560   7.053
 8394POPC   C4B44218   5.839  35.553   7.353
 8395POPC   NC344219   2.773  39.974   5.553
 8395POPC   PO444220   2.755  40.032   5.853
 8395POPC   GL144221   2.777  40.015   6.153
 8395POPC   GL244222   2.743  40.071   6.153
 8395POPC   C1A44223   2.812  40.047   6.453
 8395POPC   D2A44224   2.809  40.048   6.753
 8395POPC   C3A44225   2.745  40.050   7.053
 8395POPC   C4A44226   2.815  40.005   7.353
 8395POPC   C1B44227   2.671  40.251   6.453
 8395POPC   C2B44228   2.675  40.204   6.753
 8395POPC   C3B44229   2.601  40.222   7.053
 8395POPC   C4B44230   2.626  40.269   7.353
 8396POPC   NC344231  40.776  27.555   5.553
 8396POPC   PO444232  40.755  27.617   5.853
 8396POPC   GL144233  40.736  27.633   6.153
 8396POPC   GL244234  40.803  27.446   6.153
 8396POPC   C1A44235  40.760  27.619   6.453
 8396POPC   D2A44236  40.817  27.627   6.753
 8396POPC   C3A44237  40.812  27.576   7.053
 8396POPC   C4A44238  40.792  27.553   7.353
 8396POPC   C1B44239  40.855  27.309   6.453
 8396POPC   C2B44240  40.843  27.345   6.753
 8396POPC   C3B44241  40.816  27.396   7.053
 8396POPC   C4B44242  40.827  27.307   7.353
 8397POPC   NC344243   5.074  42.334   5.553
 8397POPC   PO444244   5.100  42.319   5.853
 8397POPC   GL144245   5.073  42.294   6.153
 8397POPC   GL244246   5.210  42.308   6.153
 8397POPC   C1A44247   5.051  42.357   6.453
 8397POPC   D2A44248   5.077  42.317   6.753
 8397POPC   C3A44249   5.117  42.346   7.053
 8397POPC   C4A44250   5.122  42.372   7.353
 8397POPC   C1B44251   5.387  42.320   6.453
 8397POPC   C2B44252   5.354  42.399   6.753
 8397POPC   C3B44253   5.386  42.359   7.053
 8397POPC   C4B44254   5.364  42.353   7.353
 8398POPC   NC344255  16.720   5.837   5.553
 8398POPC   PO444256  16.742   5.887   5.853
 8398POPC   GL144257  16.728   5.877   6.153
 8398POPC   GL244258  16.569   5.931   6.153
 8398POPC   C1A44259  16.773   5.898   6.453
 8398POPC   D2A44260  16.685   5.880   6.753
 8398POPC   C3A44261  16.761   5.868   7.053
 8398POPC   C4A44262  16.760   5.823   7.353
 8398POPC   C1B44263  16.536   5.964   6.453
 8398POPC   C2B44264  16.496   5.979   6.753
 8398POPC   C3B44265  16.484   6.000   7.053
 8398POPC   C4B44266  16.475   5.934   7.353
 8399POPC   NC344267  23.728  36.906   5.553
 8399POPC   PO444268  23.718  36.862   5.853
 8399POPC   GL144269  23.700  36.874   6.153
 8399POPC   GL244270  23.666  36.750   6.153
 8399POPC   C1A44271  23.708  36.925   6.453
 8399POPC   D2A44272  23.744  36.926   6.753
 8399POPC   C3A44273  23.763  36.865   7.053
 8399POPC   C4A44274  23.671  36.868   7.353
 8399POPC   C1B44275  23.629  36.639   6.453
 8399POPC   C2B44276  23.599  36.638   6.753
 8399POPC   C3B44277  23.650  36.686   7.053
 8399POPC   C4B44278  23.617  36.643   7.353
 8400POPC   NC344279  36.161  15.166   5.553
 8400POPC   PO444280  36.090  15.140   5.853
 8400POPC   GL144281  36.164  15.198   6.153
 8400POPC   GL244282  36.260  15.161   6.153
 8400POPC   C1A44283  36.154  15.208   6.453
 8400POPC   D2A44284  36.093  15.211   6.753
 8400POPC   C3A44285  36.091  15.217   7.053
 8400POPC   C4A44286  36.115  15.161   7.353
 8400POPC   C1B44287  36.379  15.117   6.453
 8400POPC   C2B44288  36.361  15.046   6.753
 8400POPC   C3B44289  36.396  15.126   7.053
 8400POPC   C4B44290  36.315  15.038   7.353
 8401POPC   NC344291  30.675  23.725   5.553
 8401POPC   PO444292  30.683  23.708   5.853
 8401POPC   GL144293  30.727  23.697   6.153
 8401POPC   GL244294  30.782  23.777   6.153
 8401POPC   C1A44295  30.672  23.727   6.453
 8401POPC   D2A44296  30.724  23.680   6.753
 8401POPC   C3A44297  30.731  23.706   7.053
 8401POPC   C4A44298  30.673  23.716   7.353
 8401POPC   C1B44299  30.977  23.819   6.453
 8401POPC   C2B44300  30.983  23.784   6.753
 8401POPC   C3B44301  30.901  23.740   7.053
 8401POPC   C4B44302  30.937  23.758   7.353
 8402POPC   NC344303  14.418  29.153   5.553
 8402POPC   PO444304  14.423  29.191   5.853
 8402POPC   GL144305  14.453  29.126   6.153
 8402POPC   GL244306  14.364  29.197   6.153
 8402POPC   C1A44307  14.372  29.153   6.453
 8402POPC   D2A44308  14.445  29.189   6.753
 8402POPC   C3A44309  14.366  29.173   7.053
 8402POPC   C4A44310  14.411  29.139   7.353
 8402POPC   C1B44311  14.235  29.366   6.453
 8402POPC   C2B44312  14.227  29.310   6.753
 8402POPC   C3B44313  14.253  29.343   7.053
 8402POPC   C4B44314  14.290  29.361   7.353
 8403POPC   NC344315   2.007  12.090   5.553
 8403POPC   PO444316   1.985  12.083   5.853
 8403POPC   GL144317   2.004  12.075   6.153
 8403POPC   GL244318   1.848  12.106   6.153
 8403POPC   C1A44319   1.970  12.074   6.453
 8403POPC   D2A44320   2.022  12.059   6.753
 8403POPC   C3A44321   2.038  12.046   7.053
 8403POPC   C4A44322   1.974  12.042   7.353
 8403POPC   C1B44323   1.770  12.089   6.453
 8403POPC   C2B44324   1.780  12.038   6.753
 8403POPC   C3B44325   1.698  12.075   7.053
 8403POPC   C4B44326   1.751  12.046   7.353
 8404POPC   NC344327  40.793  44.631   5.553
 8404POPC   PO444328  40.817  44.628   5.853
 8404POPC   GL144329  40.800  44.688   6.153
 8404POPC   GL244330  40.705  44.611   6.153
 8404POPC   C1A44331  40.822  44.666   6.453
 8404POPC   D2A44332  40.753  44.660   6.753
 8404POPC   C3A44333  40.752  44.657   7.053
 8404POPC   C4A44334  40.816  44.647   7.353
 8404POPC   C1B44335  40.546  44.667   6.453
 8404POPC   C2B44336  40.564  44.597   6.753
 8404POPC   C3B44337  40.552  44.583   7.053
 8404POPC   C4B44338  40.495  44.631   7.353
 8405POPC   NC344339  43.132  19.805   5.553
 8405POPC   PO444340  43.150  19.836   5.853
 8405POPC   GL144341  43.149  19.841   6.153
 8405POPC   GL244342  43.035  19.726   6.153
 8405POPC   C1A44343  43.069  19.856   6.453
 8405POPC   D2A44344  43.094  19.879   6.753
 8405POPC   C3A44345  43.090  19.812   7.053
 8405POPC   C4A44346  43.141  19.876   7.353
 8405POPC   C1B44347  42.889  19.705   6.453
 8405POPC   C2B44348  42.968  19.648   6.753
 8405POPC   C3B44349  42.895  19.686   7.053
 8405POPC   C4B44350  42.964  19.697   7.353
 8406POPC   NC344351  19.788  31.424   5.553
 8406POPC   PO444352  19.796  31.443   5.853
 8406POPC   GL144353  19.883  31.503   6.153
 8406POPC   GL244354  19.876  31.357   6.153
 8406POPC   C1A44355  19.799  31.463   6.453
 8406POPC   D2A44356  19.809  31.490   6.753
 8406POPC   C3A44357  19.810  31.520   7.053
 8406POPC   C4A44358  19.842  31.455   7.353
 8406POPC   C1B44359  19.986  31.243   6.453
 8406POPC   C2B44360  20.013  31.246   6.753
 8406POPC   C3B44361  19.947  31.290   7.053
 8406POPC   C4B44362  20.004  31.274   7.353
 8407POPC   NC344363   5.067  21.400   5.553
 8407POPC   PO444364   5.130  21.409   5.853
 8407POPC   GL144365   5.055  21.402   6.153
 8407POPC   GL244366   5.167  21.397   6.153
 8407POPC   C1A44367   5.114  21.429   6.453
 8407POPC   D2A44368   5.076  21.434   6.753
 8407POPC   C3A44369   5.072  21.398   7.053
 8407POPC   C4A44370   5.120  21.387   7.353
 8407POPC   C1B44371   5.289  21.439   6.453
 8407POPC   C2B44372   5.314  21.459   6.753
 8407POPC   C3B44373   5.369  21.428   7.053
 8407POPC   C4B44374   5.295  21.450   7.353
 8408POPC   NC344375   8.175  27.549   5.553
 8408POPC   PO444376   8.188  27.599   5.853
 8408POPC   GL144377   8.156  27.620   6.153
 8408POPC   GL244378   8.278  27.456   6.153
 8408POPC   C1A44379   8.239  27.559   6.453
 8408POPC   D2A44380   8.208  27.630   6.753
 8408POPC   C3A44381   8.223  27.571   7.053
 8408POPC   C4A44382   8.218  27.579   7.353
 8408POPC   C1B44383   8.359  27.368   6.453
 8408POPC   C2B44384   8.401  27.456   6.753
 8408POPC   C3B44385   8.371  27.378   7.053
 8408POPC   C4B44386   8.357  27.361   7.353
 8409POPC   NC344387  36.081  41.554   5.553
 8409POPC   PO444388  36.111  41.534   5.853
 8409POPC   GL144389  36.155  41.588   6.153
 8409POPC   GL244390  36.258  41.451   6.153
 8409POPC   C1A44391  36.165  41.523   6.453
 8409POPC   D2A44392  36.175  41.512   6.753
 8409POPC   C3A44393  36.126  41.556   7.053
 8409POPC   C4A44394  36.116  41.555   7.353
 8409POPC   C1B44395  36.364  41.407   6.453
 8409POPC   C2B44396  36.315  41.385   6.753
 8409POPC   C3B44397  36.315  41.437   7.053
 8409POPC   C4B44398  36.346  41.391   7.353
 8410POPC   NC344399  37.696   5.851   5.553
 8410POPC   PO444400  37.723   5.826   5.853
 8410POPC   GL144401  37.668   5.881   6.153
 8410POPC   GL244402  37.550   5.838   6.153
 8410POPC   C1A44403  37.719   5.866   6.453
 8410POPC   D2A44404  37.674   5.846   6.753
 8410POPC   C3A44405  37.639   5.904   7.053
 8410POPC   C4A44406  37.653   5.866   7.353
 8410POPC   C1B44407  37.472   5.767   6.453
 8410POPC   C2B44408  37.471   5.812   6.753
 8410POPC   C3B44409  37.456   5.839   7.053
 8410POPC   C4B44410  37.433   5.758   7.353
 8411POPC   NC344411  34.553   1.196   5.553
 8411POPC   PO444412  34.599   1.164   5.853
 8411POPC   GL144413  34.623   1.166   6.153
 8411POPC   GL244414  34.490   1.141   6.153
 8411POPC   C1A44415  34.556   1.234   6.453
 8411POPC   D2A44416  34.562   1.238   6.753
 8411POPC   C3A44417  34.544   1.179   7.053
 8411POPC   C4A44418  34.556   1.176   7.353
 8411POPC   C1B44419  34.447   0.954   6.453
 8411POPC   C2B44420  34.433   0.964   6.753
 8411POPC   C3B44421  34.487   0.950   7.053
 8411POPC   C4B44422  34.449   1.024   7.353
 8412POPC   NC344423  40.738  11.254   5.553
 8412POPC   PO444424  40.793  11.344   5.853
 8412POPC   GL144425  40.762  11.287   6.153
 8412POPC   GL244426  40.659  11.347   6.153
 8412POPC   C1A44427  40.734  11.258   6.453
 8412POPC   D2A44428  40.815  11.328   6.753
 8412POPC   C3A44429  40.756  11.313   7.053
 8412POPC   C4A44430  40.735  11.321   7.353
 8412POPC   C1B44431  40.547  11.299   6.453
 8412POPC   C2B44432  40.520  11.270   6.753
 8412POPC   C3B44433  40.548  11.313   7.053
 8412POPC   C4B44434  40.574  11.315   7.353
 8413POPC   NC344435  19.814  32.243   5.553
 8413POPC   PO444436  19.864  32.237   5.853
 8413POPC   GL144437  19.785  32.233   6.153
 8413POPC   GL244438  19.856  32.114   6.153
 8413POPC   C1A44439  19.858  32.209   6.453
 8413POPC   D2A44440  19.865  32.267   6.753
 8413POPC   C3A44441  19.851  32.241   7.053
 8413POPC   C4A44442  19.842  32.253   7.353
 8413POPC   C1B44443  19.928  31.993   6.453
 8413POPC   C2B44444  19.886  32.035   6.753
 8413POPC   C3B44445  19.904  32.012   7.053
 8413POPC   C4B44446  19.833  31.993   7.353
 8414POPC   NC344447   1.959   6.661   5.553
 8414POPC   PO444448   1.948   6.602   5.853
 8414POPC   GL144449   1.942   6.606   6.153
 8414POPC   GL244450   2.124   6.646   6.153
 8414POPC   C1A44451   1.989   6.607   6.453
 8414POPC   D2A44452   1.968   6.687   6.753
 8414POPC   C3A44453   1.983   6.610   7.053
 8414POPC   C4A44454   1.969   6.628   7.353
 8414POPC   C1B44455   2.268   6.771   6.453
 8414POPC   C2B44456   2.256   6.761   6.753
 8414POPC   C3B44457   2.178   6.694   7.053
 8414POPC   C4B44458   2.245   6.682   7.353
 8415POPC   NC344459  15.911   3.549   5.553
 8415POPC   PO444460  16.003   3.562   5.853
 8415POPC   GL144461  15.951   3.534   6.153
 8415POPC   GL244462  15.976   3.697   6.153
 8415POPC   C1A44463  15.931   3.529   6.453
 8415POPC   D2A44464  15.932   3.547   6.753
 8415POPC   C3A44465  15.983   3.580   7.053
 8415POPC   C4A44466  15.948   3.542   7.353
 8415POPC   C1B44467  15.937   3.797   6.453
 8415POPC   C2B44468  15.915   3.804   6.753
 8415POPC   C3B44469  15.939   3.789   7.053
 8415POPC   C4B44470  15.930   3.815   7.353
 8416POPC   NC344471   5.918   3.518   5.553
 8416POPC   PO444472   5.896   3.568   5.853
 8416POPC   GL144473   5.864   3.558   6.153
 8416POPC   GL244474   5.911   3.616   6.153
 8416POPC   C1A44475   5.883   3.512   6.453
 8416POPC   D2A44476   5.851   3.526   6.753
 8416POPC   C3A44477   5.822   3.514   7.053
 8416POPC   C4A44478   5.876   3.548   7.353
 8416POPC   C1B44479   5.911   3.805   6.453
 8416POPC   C2B44480   5.882   3.769   6.753
 8416POPC   C3B44481   5.878   3.743   7.053
 8416POPC   C4B44482   5.871   3.764   7.353
 8417POPC   NC344483  34.610  33.828   5.553
 8417POPC   PO444484  34.620  33.792   5.853
 8417POPC   GL144485  34.618  33.844   6.153
 8417POPC   GL244486  34.448  33.753   6.153
 8417POPC   C1A44487  34.565  33.823   6.453
 8417POPC   D2A44488  34.560  33.820   6.753
 8417POPC   C3A44489  34.616  33.831   7.053
 8417POPC   C4A44490  34.585  33.833   7.353
 8417POPC   C1B44491  34.317  33.734   6.453
 8417POPC   C2B44492  34.359  33.785   6.753
 8417POPC   C3B44493  34.317  33.742   7.053
 8417POPC   C4B44494  34.363  33.783   7.353
 8418POPC   NC344495  36.126  32.221   5.553
 8418POPC   PO444496  36.151  32.221   5.853
 8418POPC   GL144497  36.134  32.220   6.153
 8418POPC   GL244498  36.012  32.309   6.153
 8418POPC   C1A44499  36.151  32.222   6.453
 8418POPC   D2A44500  36.163  32.241   6.753
 8418POPC   C3A44501  36.098  32.236   7.053
 8418POPC   C4A44502  36.157  32.260   7.353
 8418POPC   C1B44503  35.902  32.240   6.453
 8418POPC   C2B44504  35.880  32.261   6.753
 8418POPC   C3B44505  35.835  32.253   7.053
 8418POPC   C4B44506  35.922  32.273   7.353
 8419POPC   NC344507  21.421  33.761   5.553
 8419POPC   PO444508  21.361  33.766   5.853
 8419POPC   GL144509  21.378  33.788   6.153
 8419POPC   GL244510  21.473  33.675   6.153
 8419POPC   C1A44511  21.399  33.781   6.453
 8419POPC   D2A44512  21.406  33.788   6.753
 8419POPC   C3A44513  21.339  33.785   7.053
 8419POPC   C4A44514  21.349  33.779   7.353
 8419POPC   C1B44515  21.556  33.553   6.453
 8419POPC   C2B44516  21.567  33.542   6.753
 8419POPC   C3B44517  21.523  33.551   7.053
 8419POPC   C4B44518  21.522  33.565   7.353
 8420POPC   NC344519  11.308  27.556   5.553
 8420POPC   PO444520  11.330  27.559   5.853
 8420POPC   GL144521  11.312  27.594   6.153
 8420POPC   GL244522  11.235  27.677   6.153
 8420POPC   C1A44523  11.315  27.554   6.453
 8420POPC   D2A44524  11.316  27.576   6.753
 8420POPC   C3A44525  11.337  27.625   7.053
 8420POPC   C4A44526  11.278  27.617   7.353
 8420POPC   C1B44527  11.142  27.809   6.453
 8420POPC   C2B44528  11.170  27.811   6.753
 8420POPC   C3B44529  11.131  27.799   7.053
 8420POPC   C4B44530  11.161  27.784   7.353
 8421POPC   NC344531   9.734  14.441   5.553
 8421POPC   PO444532   9.704  14.364   5.853
 8421POPC   GL144533   9.725  14.431   6.153
 8421POPC   GL244534   9.920  14.369   6.153
 8421POPC   C1A44535   9.711  14.377   6.453
 8421POPC   D2A44536   9.702  14.366   6.753
 8421POPC   C3A44537   9.726  14.388   7.053
 8421POPC   C4A44538   9.746  14.431   7.353
 8421POPC   C1B44539  10.041  14.404   6.453
 8421POPC   C2B44540   9.966  14.375   6.753
 8421POPC   C3B44541   9.983  14.355   7.053
 8421POPC   C4B44542  10.034  14.408   7.353
 8422POPC   NC344543   6.676  43.079   5.553
 8422POPC   PO444544   6.636  43.088   5.853
 8422POPC   GL144545   6.654  43.134   6.153
 8422POPC   GL244546   6.793  43.161   6.153
 8422POPC   C1A44547   6.671  43.088   6.453
 8422POPC   D2A44548   6.611  43.141   6.753
 8422POPC   C3A44549   6.661  43.100   7.053
 8422POPC   C4A44550   6.644  43.104   7.353
 8422POPC   C1B44551   6.853  43.263   6.453
 8422POPC   C2B44552   6.887  43.235   6.753
 8422POPC   C3B44553   6.822  43.223   7.053
 8422POPC   C4B44554   6.826  43.259   7.353
 8423POPC   NC344555  18.242  33.810   5.553
 8423POPC   PO444556  18.294  33.795   5.853
 8423POPC   GL144557  18.250  33.818   6.153
 8423POPC   GL244558  18.380  33.809   6.153
 8423POPC   C1A44559  18.273  33.826   6.453
 8423POPC   D2A44560  18.279  33.811   6.753
 8423POPC   C3A44561  18.283  33.836   7.053
 8423POPC   C4A44562  18.266  33.790   7.353
 8423POPC   C1B44563  18.517  33.825   6.453
 8423POPC   C2B44564  18.524  33.786   6.753
 8423POPC   C3B44565  18.489  33.804   7.053
 8423POPC   C4B44566  18.555  33.794   7.353
 8424POPC   NC344567  39.251  11.292   5.553
 8424POPC   PO444568  39.260  11.305   5.853
 8424POPC   GL144569  39.184  11.302   6.153
 8424POPC   GL244570  39.094  11.280   6.153
 8424POPC   C1A44571  39.235  11.268   6.453
 8424POPC   D2A44572  39.190  11.310   6.753
 8424POPC   C3A44573  39.260  11.300   7.053
 8424POPC   C4A44574  39.235  11.284   7.353
 8424POPC   C1B44575  39.031  11.282   6.453
 8424POPC   C2B44576  38.999  11.241   6.753
 8424POPC   C3B44577  38.999  11.267   7.053
 8424POPC   C4B44578  39.017  11.215   7.353
 8425POPC   NC344579  27.617   9.725   5.553
 8425POPC   PO444580  27.546   9.701   5.853
 8425POPC   GL144581  27.595   9.732   6.153
 8425POPC   GL244582  27.682   9.615   6.153
 8425POPC   C1A44583  27.643   9.702   6.453
 8425POPC   D2A44584  27.591   9.776   6.753
 8425POPC   C3A44585  27.623   9.791   7.053
 8425POPC   C4A44586  27.547   9.704   7.353
 8425POPC   C1B44587  27.628   9.486   6.453
 8425POPC   C2B44588  27.675   9.463   6.753
 8425POPC   C3B44589  27.684   9.524   7.053
 8425POPC   C4B44590  27.682   9.513   7.353
 8426POPC   NC344591  21.348   4.268   5.553
 8426POPC   PO444592  21.398   4.271   5.853
 8426POPC   GL144593  21.434   4.358   6.153
 8426POPC   GL244594  21.398   4.213   6.153
 8426POPC   C1A44595  21.434   4.273   6.453
 8426POPC   D2A44596  21.415   4.366   6.753
 8426POPC   C3A44597  21.355   4.340   7.053
 8426POPC   C4A44598  21.348   4.334   7.353
 8426POPC   C1B44599  21.416   4.087   6.453
 8426POPC   C2B44600  21.445   4.038   6.753
 8426POPC   C3B44601  21.420   4.040   7.053
 8426POPC   C4B44602  21.359   4.036   7.353
 8427POPC   NC344603  14.361   3.588   5.553
 8427POPC   PO444604  14.396   3.564   5.853
 8427POPC   GL144605  14.382   3.562   6.153
 8427POPC   GL244606  14.295   3.448   6.153
 8427POPC   C1A44607  14.390   3.536   6.453
 8427POPC   D2A44608  14.387   3.555   6.753
 8427POPC   C3A44609  14.376   3.554   7.053
 8427POPC   C4A44610  14.386   3.500   7.353
 8427POPC   C1B44611  14.218   3.364   6.453
 8427POPC   C2B44612  14.220   3.315   6.753
 8427POPC   C3B44613  14.257   3.326   7.053
 8427POPC   C4B44614  14.298   3.306   7.353
 8428POPC   NC344615  31.440  36.897   5.553
 8428POPC   PO444616  31.466  36.907   5.853
 8428POPC   GL144617  31.503  36.878   6.153
 8428POPC   GL244618  31.589  36.985   6.153
 8428POPC   C1A44619  31.499  36.899   6.453
 8428POPC   D2A44620  31.479  36.888   6.753
 8428POPC   C3A44621  31.427  36.927   7.053
 8428POPC   C4A44622  31.483  36.910   7.353
 8428POPC   C1B44623  31.657  37.044   6.453
 8428POPC   C2B44624  31.649  37.026   6.753
 8428POPC   C3B44625  31.632  37.065   7.053
 8428POPC   C4B44626  31.670  37.087   7.353
 8429POPC   NC344627  36.897  32.222   5.553
 8429POPC   PO444628  36.893  32.241   5.853
 8429POPC   GL144629  36.916  32.261   6.153
 8429POPC   GL244630  36.795  32.286   6.153
 8429POPC   C1A44631  36.888  32.268   6.453
 8429POPC   D2A44632  36.893  32.243   6.753
 8429POPC   C3A44633  36.882  32.280   7.053
 8429POPC   C4A44634  36.861  32.237   7.353
 8429POPC   C1B44635  36.724  32.337   6.453
 8429POPC   C2B44636  36.723  32.391   6.753
 8429POPC   C3B44637  36.713  32.410   7.053
 8429POPC   C4B44638  36.672  32.381   7.353
 8430POPC   NC344639  24.504  38.459   5.553
 8430POPC   PO444640  24.445  38.438   5.853
 8430POPC   GL144641  24.473  38.447   6.153
 8430POPC   GL244642  24.574  38.368   6.153
 8430POPC   C1A44643  24.448  38.439   6.453
 8430POPC   D2A44644  24.452  38.452   6.753
 8430POPC   C3A44645  24.446  38.459   7.053
 8430POPC   C4A44646  24.478  38.476   7.353
 8430POPC   C1B44647  24.730  38.325   6.453
 8430POPC   C2B44648  24.725  38.287   6.753
 8430POPC   C3B44649  24.755  38.346   7.053
 8430POPC   C4B44650  24.725  38.300   7.353
 8431POPC   NC344651   4.335  40.832   5.553
 8431POPC   PO444652   4.282  40.823   5.853
 8431POPC   GL144653   4.343  40.738   6.153
 8431POPC   GL244654   4.371  40.924   6.153
 8431POPC   C1A44655   4.307  40.770   6.453
 8431POPC   D2A44656   4.343  40.809   6.753
 8431POPC   C3A44657   4.286  40.775   7.053
 8431POPC   C4A44658   4.272  40.742   7.353
 8431POPC   C1B44659   4.321  41.069   6.453
 8431POPC   C2B44660   4.344  40.999   6.753
 8431POPC   C3B44661   4.362  41.078   7.053
 8431POPC   C4B44662   4.384  41.033   7.353
 8432POPC   NC344663  12.080  31.436   5.553
 8432POPC   PO444664  12.125  31.451   5.853
 8432POPC   GL144665  12.075  31.479   6.153
 8432POPC   GL244666  12.157  31.372   6.153
 8432POPC   C1A44667  12.070  31.491   6.453
 8432POPC   D2A44668  12.078  31.476   6.753
 8432POPC   C3A44669  12.051  31.522   7.053
 8432POPC   C4A44670  12.107  31.438   7.353
 8432POPC   C1B44671  12.137  31.204   6.453
 8432POPC   C2B44672  12.196  31.208   6.753
 8432POPC   C3B44673  12.184  31.285   7.053
 8432POPC   C4B44674  12.179  31.227   7.353
 8433POPC   NC344675  35.355  44.699   5.553
 8433POPC   PO444676  35.304  44.686   5.853
 8433POPC   GL144677  35.350  44.677   6.153
 8433POPC   GL244678  35.451  44.785   6.153
 8433POPC   C1A44679  35.358  44.706   6.453
 8433POPC   D2A44680  35.325  44.629   6.753
 8433POPC   C3A44681  35.398  44.695   7.053
 8433POPC   C4A44682  35.311  44.663   7.353
 8433POPC   C1B44683  35.558  44.837   6.453
 8433POPC   C2B44684  35.583  44.814   6.753
 8433POPC   C3B44685  35.546  44.873   7.053
 8433POPC   C4B44686  35.511  44.779   7.353
 8434POPC   NC344687  27.554  20.581   5.553
 8434POPC   PO444688  27.635  20.659   5.853
 8434POPC   GL144689  27.550  20.646   6.153
 8434POPC   GL244690  27.589  20.769   6.153
 8434POPC   C1A44691  27.554  20.598   6.453
 8434POPC   D2A44692  27.563  20.631   6.753
 8434POPC   C3A44693  27.563  20.632   7.053
 8434POPC   C4A44694  27.566  20.629   7.353
 8434POPC   C1B44695  27.459  20.854   6.453
 8434POPC   C2B44696  27.471  20.794   6.753
 8434POPC   C3B44697  27.439  20.851   7.053
 8434POPC   C4B44698  27.484  20.851   7.353
 8435POPC   NC344699  30.686  19.828   5.553
 8435POPC   PO444700  30.650  19.825   5.853
 8435POPC   GL144701  30.687  19.857   6.153
 8435POPC   GL244702  30.721  19.707   6.153
 8435POPC   C1A44703  30.690  19.790   6.453
 8435POPC   D2A44704  30.705  19.805   6.753
 8435POPC   C3A44705  30.683  19.834   7.053
 8435POPC   C4A44706  30.694  19.795   7.353
 8435POPC   C1B44707  30.704  19.611   6.453
 8435POPC   C2B44708  30.774  19.571   6.753
 8435POPC   C3B44709  30.754  19.600   7.053
 8435POPC   C4B44710  30.750  19.623   7.353
 8436POPC   NC344711  12.892  26.033   5.553
 8436POPC   PO444712  12.852  26.015   5.853
 8436POPC   GL144713  12.805  26.059   6.153
 8436POPC   GL244714  12.798  25.934   6.153
 8436POPC   C1A44715  12.861  26.067   6.453
 8436POPC   D2A44716  12.901  26.050   6.753
 8436POPC   C3A44717  12.851  26.009   7.053
 8436POPC   C4A44718  12.858  25.998   7.353
 8436POPC   C1B44719  12.634  25.932   6.453
 8436POPC   C2B44720  12.624  25.918   6.753
 8436POPC   C3B44721  12.663  25.886   7.053
 8436POPC   C4B44722  12.637  25.865   7.353
 8437POPC   NC344723  10.479  25.289   5.553
 8437POPC   PO444724  10.511  25.270   5.853
 8437POPC   GL144725  10.508  25.298   6.153
 8437POPC   GL244726  10.456  25.135   6.153
 8437POPC   C1A44727  10.513  25.274   6.453
 8437POPC   D2A44728  10.570  25.265   6.753
 8437POPC   C3A44729  10.558  25.239   7.053
 8437POPC   C4A44730  10.487  25.260   7.353
 8437POPC   C1B44731  10.479  25.059   6.453
 8437POPC   C2B44732  10.460  24.998   6.753
 8437POPC   C3B44733  10.510  25.043   7.053
 8437POPC   C4B44734  10.452  25.057   7.353
 8438POPC   NC344735  15.973  12.027   5.553
 8438POPC   PO444736  15.915  12.057   5.853
 8438POPC   GL144737  15.938  12.062   6.153
 8438POPC   GL244738  16.078  12.092   6.153
 8438POPC   C1A44739  15.913  12.123   6.453
 8438POPC   D2A44740  15.999  12.104   6.753
 8438POPC   C3A44741  15.973  12.088   7.053
 8438POPC   C4A44742  16.003  12.086   7.353
 8438POPC   C1B44743  16.157  12.237   6.453
 8438POPC   C2B44744  16.167  12.219   6.753
 8438POPC   C3B44745  16.216  12.152   7.053
 8438POPC   C4B44746  16.173  12.183   7.353
 8439POPC   NC344747   3.550  10.540   5.553
 8439POPC   PO444748   3.584  10.529   5.853
 8439POPC   GL144749   3.534  10.475   6.153
 8439POPC   GL244750   3.555  10.409   6.153
 8439POPC   C1A44751   3.542  10.497   6.453
 8439POPC   D2A44752   3.500  10.482   6.753
 8439POPC   C3A44753   3.584  10.517   7.053
 8439POPC   C4A44754   3.575  10.563   7.353
 8439POPC   C1B44755   3.566  10.322   6.453
 8439POPC   C2B44756   3.537  10.265   6.753
 8439POPC   C3B44757   3.518  10.322   7.053
 8439POPC   C4B44758   3.545  10.315   7.353
 8440POPC   NC344759  27.594  10.560   5.553
 8440POPC   PO444760  27.634  10.475   5.853
 8440POPC   GL144761  27.638  10.507   6.153
 8440POPC   GL244762  27.440  10.504   6.153
 8440POPC   C1A44763  27.602  10.526   6.453
 8440POPC   D2A44764  27.614  10.545   6.753
 8440POPC   C3A44765  27.621  10.510   7.053
 8440POPC   C4A44766  27.561  10.550   7.353
 8440POPC   C1B44767  27.377  10.559   6.453
 8440POPC   C2B44768  27.396  10.604   6.753
 8440POPC   C3B44769  27.366  10.624   7.053
 8440POPC   C4B44770  27.396  10.541   7.353
 8441POPC   NC344771  43.847   7.456   5.553
 8441POPC   PO444772  43.839   7.415   5.853
 8441POPC   GL144773  43.934   7.462   6.153
 8441POPC   GL244774  43.917   7.281   6.153
 8441POPC   C1A44775  43.933   7.420   6.453
 8441POPC   D2A44776  43.851   7.415   6.753
 8441POPC   C3A44777  43.881   7.411   7.053
 8441POPC   C4A44778  43.885   7.428   7.353
 8441POPC   C1B44779  43.968   7.177   6.453
 8441POPC   C2B44780  44.002   7.178   6.753
 8441POPC   C3B44781  44.018   7.208   7.053
 8441POPC   C4B44782  43.974   7.211   7.353
 8442POPC   NC344783  25.243  32.286   5.553
 8442POPC   PO444784  25.265  32.273   5.853
 8442POPC   GL144785  25.218  32.217   6.153
 8442POPC   GL244786  25.243  32.338   6.153
 8442POPC   C1A44787  25.220  32.286   6.453
 8442POPC   D2A44788  25.237  32.266   6.753
 8442POPC   C3A44789  25.269  32.202   7.053
 8442POPC   C4A44790  25.273  32.257   7.353
 8442POPC   C1B44791  25.279  32.533   6.453
 8442POPC   C2B44792  25.295  32.453   6.753
 8442POPC   C3B44793  25.341  32.537   7.053
 8442POPC   C4B44794  25.308  32.527   7.353
 8443POPC   NC344795   5.822  20.566   5.553
 8443POPC   PO444796   5.917  20.605   5.853
 8443POPC   GL144797   5.849  20.617   6.153
 8443POPC   GL244798   5.968  20.678   6.153
 8443POPC   C1A44799   5.898  20.642   6.453
 8443POPC   D2A44800   5.886  20.577   6.753
 8443POPC   C3A44801   5.832  20.634   7.053
 8443POPC   C4A44802   5.871  20.602   7.353
 8443POPC   C1B44803   6.036  20.794   6.453
 8443POPC   C2B44804   6.064  20.771   6.753
 8443POPC   C3B44805   6.015  20.743   7.053
 8443POPC   C4B44806   6.073  20.735   7.353
 8444POPC   NC344807  33.752  28.405   5.553
 8444POPC   PO444808  33.751  28.339   5.853
 8444POPC   GL144809  33.755  28.362   6.153
 8444POPC   GL244810  33.906  28.293   6.153
 8444POPC   C1A44811  33.787  28.335   6.453
 8444POPC   D2A44812  33.823  28.348   6.753
 8444POPC   C3A44813  33.751  28.335   7.053
 8444POPC   C4A44814  33.751  28.351   7.353
 8444POPC   C1B44815  33.979  28.196   6.453
 8444POPC   C2B44816  34.044  28.201   6.753
 8444POPC   C3B44817  34.032  28.242   7.053
 8444POPC   C4B44818  33.955  28.209   7.353
 8445POPC   NC344819   8.998  12.861   5.553
 8445POPC   PO444820   8.945  12.823   5.853
 8445POPC   GL144821   8.938  12.844   6.153
 8445POPC   GL244822   8.992  12.945   6.153
 8445POPC   C1A44823   9.005  12.805   6.453
 8445POPC   D2A44824   9.013  12.875   6.753
 8445POPC   C3A44825   8.945  12.890   7.053
 8445POPC   C4A44826   9.011  12.863   7.353
 8445POPC   C1B44827   9.104  13.126   6.453
 8445POPC   C2B44828   9.042  13.054   6.753
 8445POPC   C3B44829   9.057  13.089   7.053
 8445POPC   C4B44830   9.098  13.096   7.353
 8446POPC   NC344831  31.499  15.180   5.553
 8446POPC   PO444832  31.426  15.226   5.853
 8446POPC   GL144833  31.489  15.138   6.153
 8446POPC   GL244834  31.576  15.126   6.153
 8446POPC   C1A44835  31.499  15.214   6.453
 8446POPC   D2A44836  31.470  15.145   6.753
 8446POPC   C3A44837  31.509  15.147   7.053
 8446POPC   C4A44838  31.491  15.175   7.353
 8446POPC   C1B44839  31.728  15.123   6.453
 8446POPC   C2B44840  31.732  15.152   6.753
 8446POPC   C3B44841  31.743  15.156   7.053
 8446POPC   C4B44842  31.752  15.067   7.353
 8447POPC   NC344843  44.660  39.998   5.553
 8447POPC   PO444844  44.691  39.959   5.853
 8447POPC   GL144845  44.695  39.984   6.153
 8447POPC   GL244846  44.596  40.094   6.153
 8447POPC   C1A44847  44.708  40.016   6.453
 8447POPC   D2A44848  44.669  40.034   6.753
 8447POPC   C3A44849  44.641  40.016   7.053
 8447POPC   C4A44850  44.677  39.975   7.353
 8447POPC   C1B44851  44.471  40.159   6.453
 8447POPC   C2B44852  44.529  40.243   6.753
 8447POPC   C3B44853  44.526  40.208   7.053
 8447POPC   C4B44854  44.515  40.207   7.353
 8448POPC   NC344855   6.678   3.520   5.553
 8448POPC   PO444856   6.678   3.509   5.853
 8448POPC   GL144857   6.626   3.507   6.153
 8448POPC   GL244858   6.775   3.540   6.153
 8448POPC   C1A44859   6.672   3.544   6.453
 8448POPC   D2A44860   6.649   3.566   6.753
 8448POPC   C3A44861   6.596   3.514   7.053
 8448POPC   C4A44862   6.643   3.591   7.353
 8448POPC   C1B44863   6.890   3.550   6.453
 8448POPC   C2B44864   6.918   3.503   6.753
 8448POPC   C3B44865   6.933   3.555   7.053
 8448POPC   C4B44866   6.879   3.471   7.353
 8449POPC   NC344867  28.328   8.943   5.553
 8449POPC   PO444868  28.390   8.930   5.853
 8449POPC   GL144869  28.356   8.997   6.153
 8449POPC   GL244870  28.519   8.961   6.153
 8449POPC   C1A44871  28.386   9.013   6.453
 8449POPC   D2A44872  28.405   8.930   6.753
 8449POPC   C3A44873  28.336   8.950   7.053
 8449POPC   C4A44874  28.381   9.018   7.353
 8449POPC   C1B44875  28.645   9.037   6.453
 8449POPC   C2B44876  28.630   9.065   6.753
 8449POPC   C3B44877  28.651   9.004   7.053
 8449POPC   C4B44878  28.627   9.064   7.353
 8450POPC   NC344879  11.297   8.985   5.553
 8450POPC   PO444880  11.291   8.971   5.853
 8450POPC   GL144881  11.306   8.988   6.153
 8450POPC   GL244882  11.367   8.910   6.153
 8450POPC   C1A44883  11.302   8.950   6.453
 8450POPC   D2A44884  11.273   9.017   6.753
 8450POPC   C3A44885  11.252   9.001   7.053
 8450POPC   C4A44886  11.259   8.962   7.353
 8450POPC   C1B44887  11.477   8.780   6.453
 8450POPC   C2B44888  11.457   8.796   6.753
 8450POPC   C3B44889  11.479   8.752   7.053
 8450POPC   C4B44890  11.408   8.726   7.353
 8451POPC   NC344891  15.211   1.184   5.553
 8451POPC   PO444892  15.154   1.197   5.853
 8451POPC   GL144893  15.221   1.248   6.153
 8451POPC   GL244894  15.110   1.293   6.153
 8451POPC   C1A44895  15.167   1.179   6.453
 8451POPC   D2A44896  15.211   1.184   6.753
 8451POPC   C3A44897  15.143   1.233   7.053
 8451POPC   C4A44898  15.228   1.241   7.353
 8451POPC   C1B44899  15.060   1.437   6.453
 8451POPC   C2B44900  15.031   1.436   6.753
 8451POPC   C3B44901  15.049   1.423   7.053
 8451POPC   C4B44902  15.068   1.461   7.353
 8452POPC   NC344903  10.562   9.741   5.553
 8452POPC   PO444904  10.564   9.714   5.853
 8452POPC   GL144905  10.512   9.755   6.153
 8452POPC   GL244906  10.527   9.828   6.153
 8452POPC   C1A44907  10.571   9.795   6.453
 8452POPC   D2A44908  10.570   9.726   6.753
 8452POPC   C3A44909  10.517   9.796   7.053
 8452POPC   C4A44910  10.497   9.768   7.353
 8452POPC   C1B44911  10.418   9.971   6.453
 8452POPC   C2B44912  10.413   9.966   6.753
 8452POPC   C3B44913  10.405  10.011   7.053
 8452POPC   C4B44914  10.395  10.013   7.353
 8453POPC   NC344915  43.852  29.159   5.553
 8453POPC   PO444916  43.862  29.119   5.853
 8453POPC   GL144917  43.911  29.121   6.153
 8453POPC   GL244918  43.845  29.062   6.153
 8453POPC   C1A44919  43.838  29.186   6.453
 8453POPC   D2A44920  43.856  29.136   6.753
 8453POPC   C3A44921  43.886  29.155   7.053
 8453POPC   C4A44922  43.871  29.189   7.353
 8453POPC   C1B44923  43.750  28.926   6.453
 8453POPC   C2B44924  43.834  28.919   6.753
 8453POPC   C3B44925  43.789  28.878   7.053
 8453POPC   C4B44926  43.805  28.889   7.353
 8454POPC   NC344927  31.481  43.861   5.553
 8454POPC   PO444928  31.429  43.860   5.853
 8454POPC   GL144929  31.487  43.899   6.153
 8454POPC   GL244930  31.394  43.791   6.153
 8454POPC   C1A44931  31.443  43.929   6.453
 8454POPC   D2A44932  31.496  43.881   6.753
 8454POPC   C3A44933  31.456  43.914   7.053
 8454POPC   C4A44934  31.465  43.905   7.353
 8454POPC   C1B44935  31.275  43.703   6.453
 8454POPC   C2B44936  31.306  43.732   6.753
 8454POPC   C3B44937  31.331  43.729   7.053
 8454POPC   C4B44938  31.333  43.675   7.353
 8455POPC   NC344939  26.782  25.222   5.553
 8455POPC   PO444940  26.807  25.312   5.853
 8455POPC   GL144941  26.834  25.261   6.153
 8455POPC   GL244942  26.683  25.239   6.153
 8455POPC   C1A44943  26.794  25.222   6.453
 8455POPC   D2A44944  26.815  25.227   6.753
 8455POPC   C3A44945  26.829  25.227   7.053
 8455POPC   C4A44946  26.799  25.278   7.353
 8455POPC   C1B44947  26.590  25.150   6.453
 8455POPC   C2B44948  26.534  25.202   6.753
 8455POPC   C3B44949  26.580  25.162   7.053
 8455POPC   C4B44950  26.564  25.212   7.353
 8456POPC   NC344951  39.241  42.331   5.553
 8456POPC   PO444952  39.242  42.290   5.853
 8456POPC   GL144953  39.232  42.294   6.153
 8456POPC   GL244954  39.261  42.430   6.153
 8456POPC   C1A44955  39.206  42.325   6.453
 8456POPC   D2A44956  39.268  42.373   6.753
 8456POPC   C3A44957  39.232  42.343   7.053
 8456POPC   C4A44958  39.201  42.325   7.353
 8456POPC   C1B44959  39.292  42.608   6.453
 8456POPC   C2B44960  39.331  42.587   6.753
 8456POPC   C3B44961  39.291  42.573   7.053
 8456POPC   C4B44962  39.257  42.530   7.353
 8457POPC   NC344963  15.156   2.767   5.553
 8457POPC   PO444964  15.131   2.770   5.853
 8457POPC   GL144965  15.196   2.783   6.153
 8457POPC   GL244966  15.180   2.634   6.153
 8457POPC   C1A44967  15.158   2.743   6.453
 8457POPC   D2A44968  15.195   2.764   6.753
 8457POPC   C3A44969  15.194   2.738   7.053
 8457POPC   C4A44970  15.225   2.793   7.353
 8457POPC   C1B44971  15.150   2.545   6.453
 8457POPC   C2B44972  15.078   2.563   6.753
 8457POPC   C3B44973  15.073   2.489   7.053
 8457POPC   C4B44974  15.143   2.530   7.353
 8458POPC   NC344975  11.292  25.247   5.553
 8458POPC   PO444976  11.331  25.271   5.853
 8458POPC   GL144977  11.304  25.314   6.153
 8458POPC   GL244978  11.200  25.233   6.153
 8458POPC   C1A44979  11.268  25.228   6.453
 8458POPC   D2A44980  11.332  25.287   6.753
 8458POPC   C3A44981  11.325  25.287   7.053
 8458POPC   C4A44982  11.250  25.305   7.353
 8458POPC   C1B44983  11.023  25.247   6.453
 8458POPC   C2B44984  11.086  25.206   6.753
 8458POPC   C3B44985  11.048  25.261   7.053
 8458POPC   C4B44986  11.092  25.209   7.353
 8459POPC   NC344987  44.702  23.695   5.553
 8459POPC   PO444988  44.654  23.746   5.853
 8459POPC   GL144989  44.652  23.710   6.153
 8459POPC   GL244990  44.535  23.759   6.153
 8459POPC   C1A44991  44.696  23.748   6.453
 8459POPC   D2A44992  44.661  23.681   6.753
 8459POPC   C3A44993  44.634  23.749   7.053
 8459POPC   C4A44994  44.683  23.752   7.353
 8459POPC   C1B44995  44.444  23.868   6.453
 8459POPC   C2B44996  44.438  23.885   6.753
 8459POPC   C3B44997  44.424  23.905   7.053
 8459POPC   C4B44998  44.448  23.851   7.353
 8460POPC   NC344999   2.740  12.032   5.553
 8460POPC   PO445000   2.722  12.035   5.853
 8460POPC   GL145001   2.780  12.079   6.153
 8460POPC   GL245002   2.805  11.982   6.153
 8460POPC   C1A45003   2.802  12.099   6.453
 8460POPC   D2A45004   2.716  12.029   6.753
 8460POPC   C3A45005   2.730  12.122   7.053
 8460POPC   C4A45006   2.764  12.067   7.353
 8460POPC   C1B45007   2.831  11.833   6.453
 8460POPC   C2B45008   2.874  11.821   6.753
 8460POPC   C3B45009   2.926  11.849   7.053
 8460POPC   C4B45010   2.898  11.853   7.353
 8461POPC   NC345011  18.330  42.381   5.553
 8461POPC   PO445012  18.257  42.312   5.853
 8461POPC   GL145013  18.290  42.362   6.153
 8461POPC   GL245014  18.424  42.324   6.153
 8461POPC   C1A45015  18.280  42.339   6.453
 8461POPC   D2A45016  18.273  42.341   6.753
 8461POPC   C3A45017  18.321  42.297   7.053
 8461POPC   C4A45018  18.247  42.367   7.353
 8461POPC   C1B45019  18.551  42.359   6.453
 8461POPC   C2B45020  18.545  42.374   6.753
 8461POPC   C3B45021  18.574  42.411   7.053
 8461POPC   C4B45022  18.500  42.391   7.353
 8462POPC   NC345023  44.621   5.047   5.553
 8462POPC   PO445024  44.624   5.090   5.853
 8462POPC   GL145025  44.615   5.079   6.153
 8462POPC   GL245026  44.819   5.127   6.153
 8462POPC   C1A45027  44.685   5.066   6.453
 8462POPC   D2A45028  44.693   5.139   6.753
 8462POPC   C3A45029  44.683   5.101   7.053
 8462POPC   C4A45030  44.673   5.124   7.353
 8462POPC   C1B45031  44.907   5.174   6.453
 8462POPC   C2B45032  44.925   5.113   6.753
 8462POPC   C3B45033  44.923   5.179   7.053
 8462POPC   C4B45034  44.940   5.137   7.353
 8463POPC   NC345035  26.009  12.843   5.553
 8463POPC   PO445036  25.994  12.818   5.853
 8463POPC   GL145037  26.071  12.860   6.153
 8463POPC   GL245038  25.877  12.818   6.153
 8463POPC   C1A45039  26.053  12.845   6.453
 8463POPC   D2A45040  26.064  12.877   6.753
 8463POPC   C3A45041  26.021  12.813   7.053
 8463POPC   C4A45042  26.006  12.850   7.353
 8463POPC   C1B45043  25.760  12.840   6.453
 8463POPC   C2B45044  25.811  12.863   6.753
 8463POPC   C3B45045  25.811  12.848   7.053
 8463POPC   C4B45046  25.766  12.848   7.353
 8464POPC   NC345047  36.081  12.062   5.553
 8464POPC   PO445048  36.085  12.075   5.853
 8464POPC   GL145049  36.114  12.076   6.153
 8464POPC   GL245050  36.015  11.955   6.153
 8464POPC   C1A45051  36.088  12.117   6.453
 8464POPC   D2A45052  36.100  12.095   6.753
 8464POPC   C3A45053  36.154  12.029   7.053
 8464POPC   C4A45054  36.083  12.121   7.353
 8464POPC   C1B45055  35.994  11.838   6.453
 8464POPC   C2B45056  36.008  11.863   6.753
 8464POPC   C3B45057  35.938  11.896   7.053
 8464POPC   C4B45058  35.980  11.917   7.353
 8465POPC   NC345059  21.402  26.025   5.553
 8465POPC   PO445060  21.362  25.997   5.853
 8465POPC   GL145061  21.389  26.086   6.153
 8465POPC   GL245062  21.276  25.973   6.153
 8465POPC   C1A45063  21.424  26.043   6.453
 8465POPC   D2A45064  21.434  26.071   6.753
 8465POPC   C3A45065  21.343  26.017   7.053
 8465POPC   C4A45066  21.435  26.001   7.353
 8465POPC   C1B45067  21.248  25.877   6.453
 8465POPC   C2B45068  21.219  25.828   6.753
 8465POPC   C3B45069  21.271  25.813   7.053
 8465POPC   C4B45070  21.229  25.806   7.353
 8466POPC   NC345071  29.913  15.167   5.553
 8466POPC   PO445072  29.969  15.181   5.853
 8466POPC   GL145073  29.924  15.168   6.153
 8466POPC   GL245074  29.869  15.026   6.153
 8466POPC   C1A45075  29.936  15.207   6.453
 8466POPC   D2A45076  29.949  15.173   6.753
 8466POPC   C3A45077  29.930  15.158   7.053
 8466POPC   C4A45078  29.875  15.131   7.353
 8466POPC   C1B45079  29.798  14.924   6.453
 8466POPC   C2B45080  29.857  14.978   6.753
 8466POPC   C3B45081  29.841  14.954   7.053
 8466POPC   C4B45082  29.830  14.907   7.353
 8467POPC   NC345083  40.050  25.235   5.553
 8467POPC   PO445084  39.959  25.291   5.853
 8467POPC   GL145085  40.031  25.269   6.153
 8467POPC   GL245086  39.855  25.212   6.153
 8467POPC   C1A45087  40.032  25.285   6.453
 8467POPC   D2A45088  39.966  25.279   6.753
 8467POPC   C3A45089  40.051  25.272   7.053
 8467POPC   C4A45090  40.035  25.300   7.353
 8467POPC   C1B45091  39.780  25.151   6.453
 8467POPC   C2B45092  39.842  25.127   6.753
 8467POPC   C3B45093  39.797  25.130   7.053
 8467POPC   C4B45094  39.759  25.140   7.353
 8468POPC   NC345095  29.959   2.738   5.553
 8468POPC   PO445096  29.913   2.750   5.853
 8468POPC   GL145097  29.949   2.804   6.153
 8468POPC   GL245098  29.815   2.663   6.153
 8468POPC   C1A45099  29.925   2.732   6.453
 8468POPC   D2A45100  29.955   2.797   6.753
 8468POPC   C3A45101  29.945   2.794   7.053
 8468POPC   C4A45102  29.911   2.728   7.353
 8468POPC   C1B45103  29.816   2.548   6.453
 8468POPC   C2B45104  29.739   2.506   6.753
 8468POPC   C3B45105  29.825   2.563   7.053
 8468POPC   C4B45106  29.738   2.565   7.353
 8469POPC   NC345107  12.066  36.167   5.553
 8469POPC   PO445108  12.104  36.096   5.853
 8469POPC   GL145109  12.095  36.139   6.153
 8469POPC   GL245110  11.946  36.185   6.153
 8469POPC   C1A45111  12.093  36.117   6.453
 8469POPC   D2A45112  12.042  36.081   6.753
 8469POPC   C3A45113  12.066  36.103   7.053
 8469POPC   C4A45114  12.061  36.142   7.353
 8469POPC   C1B45115  11.859  36.294   6.453
 8469POPC   C2B45116  11.883  36.257   6.753
 8469POPC   C3B45117  11.925  36.295   7.053
 8469POPC   C4B45118  11.870  36.244   7.353
 8470POPC   NC345119   1.971  43.068   5.553
 8470POPC   PO445120   2.001  43.131   5.853
 8470POPC   GL145121   1.998  43.129   6.153
 8470POPC   GL245122   2.085  43.054   6.153
 8470POPC   C1A45123   1.989  43.082   6.453
 8470POPC   D2A45124   1.966  43.092   6.753
 8470POPC   C3A45125   1.985  43.101   7.053
 8470POPC   C4A45126   2.008  43.150   7.353
 8470POPC   C1B45127   2.085  42.919   6.453
 8470POPC   C2B45128   2.093  42.893   6.753
 8470POPC   C3B45129   2.147  42.850   7.053
 8470POPC   C4B45130   2.099  42.882   7.353
 8471POPC   NC345131  17.540  44.633   5.553
 8471POPC   PO445132  17.513  44.687   5.853
 8471POPC   GL145133  17.545  44.655   6.153
 8471POPC   GL245134  17.621  44.593   6.153
 8471POPC   C1A45135  17.482  44.642   6.453
 8471POPC   D2A45136  17.520  44.642   6.753
 8471POPC   C3A45137  17.480  44.638   7.053
 8471POPC   C4A45138  17.498  44.667   7.353
 8471POPC   C1B45139  17.753  44.576   6.453
 8471POPC   C2B45140  17.761  44.646   6.753
 8471POPC   C3B45141  17.714  44.560   7.053
 8471POPC   C4B45142  17.789  44.620   7.353
 8472POPC   NC345143  18.270  16.001   5.553
 8472POPC   PO445144  18.319  15.996   5.853
 8472POPC   GL145145  18.282  15.998   6.153
 8472POPC   GL245146  18.339  16.109   6.153
 8472POPC   C1A45147  18.265  15.990   6.453
 8472POPC   D2A45148  18.286  15.928   6.753
 8472POPC   C3A45149  18.268  15.945   7.053
 8472POPC   C4A45150  18.309  15.955   7.353
 8472POPC   C1B45151  18.404  16.143   6.453
 8472POPC   C2B45152  18.400  16.197   6.753
 8472POPC   C3B45153  18.355  16.137   7.053
 8472POPC   C4B45154  18.442  16.200   7.353
 8473POPC   NC345155   1.943  25.277   5.553
 8473POPC   PO445156   2.001  25.283   5.853
 8473POPC   GL145157   1.942  25.220   6.153
 8473POPC   GL245158   1.910  25.250   6.153
 8473POPC   C1A45159   2.001  25.292   6.453
 8473POPC   D2A45160   1.960  25.313   6.753
 8473POPC   C3A45161   1.993  25.278   7.053
 8473POPC   C4A45162   2.004  25.269   7.353
 8473POPC   C1B45163   1.782  25.236   6.453
 8473POPC   C2B45164   1.744  25.284   6.753
 8473POPC   C3B45165   1.708  25.317   7.053
 8473POPC   C4B45166   1.753  25.234   7.353
 8474POPC   NC345167  15.980   4.276   5.553
 8474POPC   PO445168  15.916   4.323   5.853
 8474POPC   GL145169  15.910   4.281   6.153
 8474POPC   GL245170  15.924   4.216   6.153
 8474POPC   C1A45171  15.972   4.322   6.453
 8474POPC   D2A45172  15.989   4.273   6.753
 8474POPC   C3A45173  15.957   4.332   7.053
 8474POPC   C4A45174  15.914   4.269   7.353
 8474POPC   C1B45175  15.942   4.021   6.453
 8474POPC   C2B45176  15.904   4.104   6.753
 8474POPC   C3B45177  15.922   4.072   7.053
 8474POPC   C4B45178  15.914   4.025   7.353
 8475POPC   NC345179  12.856  29.964   5.553
 8475POPC   PO445180  12.899  29.893   5.853
 8475POPC   GL145181  12.883  29.884   6.153
 8475POPC   GL245182  12.912  29.816   6.153
 8475POPC   C1A45183  12.870  29.913   6.453
 8475POPC   D2A45184  12.884  29.931   6.753
 8475POPC   C3A45185  12.855  29.940   7.053
 8475POPC   C4A45186  12.817  29.916   7.353
 8475POPC   C1B45187  12.993  29.740   6.453
 8475POPC   C2B45188  13.011  29.668   6.753
 8475POPC   C3B45189  13.004  29.667   7.053
 8475POPC   C4B45190  12.950  29.674   7.353
 8476POPC   NC345191  12.124  12.854   5.553
 8476POPC   PO445192  12.095  12.824   5.853
 8476POPC   GL145193  12.105  12.828   6.153
 8476POPC   GL245194  12.163  12.931   6.153
 8476POPC   C1A45195  12.028  12.831   6.453
 8476POPC   D2A45196  12.039  12.877   6.753
 8476POPC   C3A45197  12.032  12.895   7.053
 8476POPC   C4A45198  12.059  12.829   7.353
 8476POPC   C1B45199  12.319  12.984   6.453
 8476POPC   C2B45200  12.276  12.977   6.753
 8476POPC   C3B45201  12.278  12.946   7.053
 8476POPC   C4B45202  12.291  12.914   7.353
 8477POPC   NC345203   1.993  15.969   5.553
 8477POPC   PO445204   1.974  15.928   5.853
 8477POPC   GL145205   1.960  16.002   6.153
 8477POPC   GL245206   2.059  15.890   6.153
 8477POPC   C1A45207   2.024  15.937   6.453
 8477POPC   D2A45208   2.039  15.942   6.753
 8477POPC   C3A45209   1.967  15.966   7.053
 8477POPC   C4A45210   2.014  15.990   7.353
 8477POPC   C1B45211   2.098  15.713   6.453
 8477POPC   C2B45212   2.093  15.712   6.753
 8477POPC   C3B45213   2.088  15.723   7.053
 8477POPC   C4B45214   2.108  15.751   7.353
 8478POPC   NC345215  19.043   3.535   5.553
 8478POPC   PO445216  19.044   3.532   5.853
 8478POPC   GL145217  19.097   3.560   6.153
 8478POPC   GL245218  18.962   3.511   6.153
 8478POPC   C1A45219  19.050   3.570   6.453
 8478POPC   D2A45220  19.022   3.502   6.753
 8478POPC   C3A45221  19.027   3.562   7.053
 8478POPC   C4A45222  19.104   3.564   7.353
 8478POPC   C1B45223  18.798   3.473   6.453
 8478POPC   C2B45224  18.849   3.495   6.753
 8478POPC   C3B45225  18.795   3.445   7.053
 8478POPC   C4B45226  18.810   3.429   7.353
 8479POPC   NC345227  26.846  16.776   5.553
 8479POPC   PO445228  26.843  16.688   5.853
 8479POPC   GL145229  26.774  16.681   6.153
 8479POPC   GL245230  26.672  16.717   6.153
 8479POPC   C1A45231  26.794  16.719   6.453
 8479POPC   D2A45232  26.794  16.757   6.753
 8479POPC   C3A45233  26.789  16.690   7.053
 8479POPC   C4A45234  26.771  16.748   7.353
 8479POPC   C1B45235  26.545  16.802   6.453
 8479POPC   C2B45236  26.611  16.821   6.753
 8479POPC   C3B45237  26.554  16.791   7.053
 8479POPC   C4B45238  26.602  16.732   7.353
 8480POPC   NC345239  36.171  35.392   5.553
 8480POPC   PO445240  36.145  35.326   5.853
 8480POPC   GL145241  36.134  35.305   6.153
 8480POPC   GL245242  36.187  35.477   6.153
 8480POPC   C1A45243  36.114  35.367   6.453
 8480POPC   D2A45244  36.137  35.308   6.753
 8480POPC   C3A45245  36.147  35.322   7.053
 8480POPC   C4A45246  36.135  35.345   7.353
 8480POPC   C1B45247  36.163  35.556   6.453
 8480POPC   C2B45248  36.177  35.616   6.753
 8480POPC   C3B45249  36.148  35.587   7.053
 8480POPC   C4B45250  36.215  35.623   7.353
 8481POPC   NC345251  43.904  15.919   5.553
 8481POPC   PO445252  43.887  15.934   5.853
 8481POPC   GL145253  43.910  15.949   6.153
 8481POPC   GL245254  43.836  16.075   6.153
 8481POPC   C1A45255  43.845  15.977   6.453
 8481POPC   D2A45256  43.856  15.950   6.753
 8481POPC   C3A45257  43.845  15.929   7.053
 8481POPC   C4A45258  43.870  15.969   7.353
 8481POPC   C1B45259  43.773  16.180   6.453
 8481POPC   C2B45260  43.770  16.149   6.753
 8481POPC   C3B45261  43.716  16.181   7.053
 8481POPC   C4B45262  43.789  16.206   7.353
 8482POPC   NC345263  17.529  41.542   5.553
 8482POPC   PO445264  17.529  41.543   5.853
 8482POPC   GL145265  17.526  41.520   6.153
 8482POPC   GL245266  17.385  41.543   6.153
 8482POPC   C1A45267  17.470  41.585   6.453
 8482POPC   D2A45268  17.485  41.523   6.753
 8482POPC   C3A45269  17.496  41.561   7.053
 8482POPC   C4A45270  17.467  41.524   7.353
 8482POPC   C1B45271  17.289  41.444   6.453
 8482POPC   C2B45272  17.247  41.469   6.753
 8482POPC   C3B45273  17.281  41.531   7.053
 8482POPC   C4B45274  17.261  41.526   7.353
 8483POPC   NC345275  29.127   8.195   5.553
 8483POPC   PO445276  29.193   8.213   5.853
 8483POPC   GL145277  29.151   8.175   6.153
 8483POPC   GL245278  29.291   8.283   6.153
 8483POPC   C1A45279  29.192   8.166   6.453
 8483POPC   D2A45280  29.118   8.228   6.753
 8483POPC   C3A45281  29.105   8.183   7.053
 8483POPC   C4A45282  29.192   8.216   7.353
 8483POPC   C1B45283  29.308   8.324   6.453
 8483POPC   C2B45284  29.346   8.362   6.753
 8483POPC   C3B45285  29.383   8.333   7.053
 8483POPC   C4B45286  29.342   8.337   7.353
 8484POPC   NC345287   1.213  36.913   5.553
 8484POPC   PO445288   1.235  36.855   5.853
 8484POPC   GL145289   1.231  36.883   6.153
 8484POPC   GL245290   1.314  36.831   6.153
 8484POPC   C1A45291   1.263  36.856   6.453
 8484POPC   D2A45292   1.236  36.936   6.753
 8484POPC   C3A45293   1.229  36.896   7.053
 8484POPC   C4A45294   1.179  36.867   7.353
 8484POPC   C1B45295   1.442  36.810   6.453
 8484POPC   C2B45296   1.427  36.825   6.753
 8484POPC   C3B45297   1.489  36.772   7.053
 8484POPC   C4B45298   1.484  36.776   7.353
 8485POPC   NC345299  19.883  33.835   5.553
 8485POPC   PO445300  19.814  33.815   5.853
 8485POPC   GL145301  19.821  33.774   6.153
 8485POPC   GL245302  19.879  33.695   6.153
 8485POPC   C1A45303  19.786  33.789   6.453
 8485POPC   D2A45304  19.810  33.781   6.753
 8485POPC   C3A45305  19.788  33.826   7.053
 8485POPC   C4A45306  19.795  33.849   7.353
 8485POPC   C1B45307  19.908  33.581   6.453
 8485POPC   C2B45308  19.974  33.525   6.753
 8485POPC   C3B45309  19.980  33.550   7.053
 8485POPC   C4B45310  19.951  33.528   7.353
 8486POPC   NC345311  15.986  39.275   5.553
 8486POPC   PO445312  15.938  39.185   5.853
 8486POPC   GL145313  15.985  39.250   6.153
 8486POPC   GL245314  15.815  39.233   6.153
 8486POPC   C1A45315  15.978  39.269   6.453
 8486POPC   D2A45316  16.003  39.236   6.753
 8486POPC   C3A45317  15.971  39.218   7.053
 8486POPC   C4A45318  15.993  39.243   7.353
 8486POPC   C1B45319  15.695  39.173   6.453
 8486POPC   C2B45320  15.737  39.156   6.753
 8486POPC   C3B45321  15.686  39.150   7.053
 8486POPC   C4B45322  15.680  39.154   7.353
 8487POPC   NC345323  40.031   2.764   5.553
 8487POPC   PO445324  39.997   2.798   5.853
 8487POPC   GL145325  39.972   2.747   6.153
 8487POPC   GL245326  39.937   2.653   6.153
 8487POPC   C1A45327  40.015   2.731   6.453
 8487POPC   D2A45328  39.999   2.740   6.753
 8487POPC   C3A45329  40.022   2.775   7.053
 8487POPC   C4A45330  40.014   2.767   7.353
 8487POPC   C1B45331  39.924   2.547   6.453
 8487POPC   C2B45332  39.911   2.540   6.753
 8487POPC   C3B45333  39.883   2.521   7.053
 8487POPC   C4B45334  39.921   2.591   7.353
 8488POPC   NC345335  29.137   4.326   5.553
 8488POPC   PO445336  29.119   4.314   5.853
 8488POPC   GL145337  29.184   4.294   6.153
 8488POPC   GL245338  29.211   4.215   6.153
 8488POPC   C1A45339  29.168   4.308   6.453
 8488POPC   D2A45340  29.176   4.351   6.753
 8488POPC   C3A45341  29.110   4.292   7.053
 8488POPC   C4A45342  29.129   4.269   7.353
 8488POPC   C1B45343  29.305   4.113   6.453
 8488POPC   C2B45344  29.272   4.135   6.753
 8488POPC   C3B45345  29.272   4.062   7.053
 8488POPC   C4B45346  29.303   4.066   7.353
 8489POPC   NC345347  40.038  15.203   5.553
 8489POPC   PO445348  39.976  15.224   5.853
 8489POPC   GL145349  39.978  15.205   6.153
 8489POPC   GL245350  40.104  15.085   6.153
 8489POPC   C1A45351  39.995  15.145   6.453
 8489POPC   D2A45352  39.998  15.166   6.753
 8489POPC   C3A45353  40.020  15.143   7.053
 8489POPC   C4A45354  39.999  15.132   7.353
 8489POPC   C1B45355  40.143  14.941   6.453
 8489POPC   C2B45356  40.181  14.999   6.753
 8489POPC   C3B45357  40.159  14.930   7.053
 8489POPC   C4B45358  40.179  15.018   7.353
 8490POPC   NC345359  24.460  36.127   5.553
 8490POPC   PO445360  24.521  36.091   5.853
 8490POPC   GL145361  24.486  36.150   6.153
 8490POPC   GL245362  24.367  36.201   6.153
 8490POPC   C1A45363  24.455  36.115   6.453
 8490POPC   D2A45364  24.488  36.134   6.753
 8490POPC   C3A45365  24.474  36.098   7.053
 8490POPC   C4A45366  24.481  36.141   7.353
 8490POPC   C1B45367  24.268  36.350   6.453
 8490POPC   C2B45368  24.334  36.279   6.753
 8490POPC   C3B45369  24.352  36.316   7.053
 8490POPC   C4B45370  24.320  36.353   7.353
 8491POPC   NC345371  35.305  29.880   5.553
 8491POPC   PO445372  35.370  29.965   5.853
 8491POPC   GL145373  35.324  29.935   6.153
 8491POPC   GL245374  35.239  29.844   6.153
 8491POPC   C1A45375  35.331  29.904   6.453
 8491POPC   D2A45376  35.365  29.900   6.753
 8491POPC   C3A45377  35.378  29.949   7.053
 8491POPC   C4A45378  35.369  29.883   7.353
 8491POPC   C1B45379  35.147  29.792   6.453
 8491POPC   C2B45380  35.088  29.845   6.753
 8491POPC   C3B45381  35.104  29.795   7.053
 8491POPC   C4B45382  35.145  29.771   7.353
 8492POPC   NC345383  36.142  21.422   5.553
 8492POPC   PO445384  36.103  21.367   5.853
 8492POPC   GL145385  36.163  21.392   6.153
 8492POPC   GL245386  36.002  21.346   6.153
 8492POPC   C1A45387  36.161  21.378   6.453
 8492POPC   D2A45388  36.101  21.379   6.753
 8492POPC   C3A45389  36.163  21.418   7.053
 8492POPC   C4A45390  36.153  21.423   7.353
 8492POPC   C1B45391  35.934  21.319   6.453
 8492POPC   C2B45392  35.912  21.241   6.753
 8492POPC   C3B45393  35.894  21.268   7.053
 8492POPC   C4B45394  35.941  21.265   7.353
 8493POPC   NC345395   7.433   5.854   5.553
 8493POPC   PO445396   7.426   5.849   5.853
 8493POPC   GL145397   7.375   5.858   6.153
 8493POPC   GL245398   7.259   5.863   6.153
 8493POPC   C1A45399   7.380   5.861   6.453
 8493POPC   D2A45400   7.442   5.829   6.753
 8493POPC   C3A45401   7.399   5.866   7.053
 8493POPC   C4A45402   7.430   5.897   7.353
 8493POPC   C1B45403   7.128   5.861   6.453
 8493POPC   C2B45404   7.204   5.852   6.753
 8493POPC   C3B45405   7.185   5.853   7.053
 8493POPC   C4B45406   7.217   5.823   7.353
 8494POPC   NC345407  20.602  38.479   5.553
 8494POPC   PO445408  20.628  38.478   5.853
 8494POPC   GL145409  20.594  38.437   6.153
 8494POPC   GL245410  20.688  38.533   6.153
 8494POPC   C1A45411  20.656  38.465   6.453
 8494POPC   D2A45412  20.599  38.421   6.753
 8494POPC   C3A45413  20.624  38.453   7.053
 8494POPC   C4A45414  20.564  38.446   7.353
 8494POPC   C1B45415  20.621  38.655   6.453
 8494POPC   C2B45416  20.663  38.741   6.753
 8494POPC   C3B45417  20.687  38.727   7.053
 8494POPC   C4B45418  20.668  38.673   7.353
 8495POPC   NC345419  43.105  27.596   5.553
 8495POPC   PO445420  43.118  27.643   5.853
 8495POPC   GL145421  43.111  27.605   6.153
 8495POPC   GL245422  43.256  27.543   6.153
 8495POPC   C1A45423  43.158  27.597   6.453
 8495POPC   D2A45424  43.136  27.619   6.753
 8495POPC   C3A45425  43.116  27.614   7.053
 8495POPC   C4A45426  43.137  27.602   7.353
 8495POPC   C1B45427  43.294  27.398   6.453
 8495POPC   C2B45428  43.274  27.478   6.753
 8495POPC   C3B45429  43.310  27.469   7.053
 8495POPC   C4B45430  43.354  27.418   7.353
 8496POPC   NC345431  23.737  26.846   5.553
 8496POPC   PO445432  23.682  26.800   5.853
 8496POPC   GL145433  23.748  26.767   6.153
 8496POPC   GL245434  23.813  26.918   6.153
 8496POPC   C1A45435  23.742  26.817   6.453
 8496POPC   D2A45436  23.754  26.848   6.753
 8496POPC   C3A45437  23.726  26.802   7.053
 8496POPC   C4A45438  23.733  26.813   7.353
 8496POPC   C1B45439  23.856  27.072   6.453
 8496POPC   C2B45440  23.874  27.053   6.753
 8496POPC   C3B45441  23.880  26.997   7.053
 8496POPC   C4B45442  23.870  26.989   7.353
 8497POPC   NC345443  34.579  38.492   5.553
 8497POPC   PO445444  34.604  38.486   5.853
 8497POPC   GL145445  34.573  38.468   6.153
 8497POPC   GL245446  34.652  38.432   6.153
 8497POPC   C1A45447  34.556  38.435   6.453
 8497POPC   D2A45448  34.564  38.405   6.753
 8497POPC   C3A45449  34.572  38.471   7.053
 8497POPC   C4A45450  34.561  38.473   7.353
 8497POPC   C1B45451  34.841  38.425   6.453
 8497POPC   C2B45452  34.815  38.421   6.753
 8497POPC   C3B45453  34.803  38.435   7.053
 8497POPC   C4B45454  34.775  38.402   7.353
 8498POPC   NC345455  32.282  29.182   5.553
 8498POPC   PO445456  32.292  29.131   5.853
 8498POPC   GL145457  32.198  29.180   6.153
 8498POPC   GL245458  32.132  29.074   6.153
 8498POPC   C1A45459  32.262  29.165   6.453
 8498POPC   D2A45460  32.285  29.154   6.753
 8498POPC   C3A45461  32.241  29.135   7.053
 8498POPC   C4A45462  32.211  29.175   7.353
 8498POPC   C1B45463  32.003  29.028   6.453
 8498POPC   C2B45464  31.984  29.011   6.753
 8498POPC   C3B45465  32.053  29.026   7.053
 8498POPC   C4B45466  32.059  29.066   7.353
 8499POPC   NC345467  30.731  27.567   5.553
 8499POPC   PO445468  30.661  27.616   5.853
 8499POPC   GL145469  30.745  27.585   6.153
 8499POPC   GL245470  30.609  27.464   6.153
 8499POPC   C1A45471  30.700  27.606   6.453
 8499POPC   D2A45472  30.746  27.604   6.753
 8499POPC   C3A45473  30.723  27.603   7.053
 8499POPC   C4A45474  30.718  27.605   7.353
 8499POPC   C1B45475  30.546  27.461   6.453
 8499POPC   C2B45476  30.490  27.398   6.753
 8499POPC   C3B45477  30.467  27.416   7.053
 8499POPC   C4B45478  30.495  27.397   7.353
 8500POPC   NC345479  15.992  17.478   5.553
 8500POPC   PO445480  15.977  17.498   5.853
 8500POPC   GL145481  15.985  17.472   6.153
 8500POPC   GL245482  16.036  17.415   6.153
 8500POPC   C1A45483  15.921  17.537   6.453
 8500POPC   D2A45484  15.978  17.487   6.753
 8500POPC   C3A45485  15.936  17.472   7.053
 8500POPC   C4A45486  15.963  17.469   7.353
 8500POPC   C1B45487  16.051  17.294   6.453
 8500POPC   C2B45488  16.043  17.245   6.753
 8500POPC   C3B45489  16.070  17.263   7.053
 8500POPC   C4B45490  16.056  17.228   7.353
 8501POPC   NC345491  25.281  18.276   5.553
 8501POPC   PO445492  25.223  18.263   5.853
 8501POPC   GL145493  25.253  18.322   6.153
 8501POPC   GL245494  25.414  18.296   6.153
 8501POPC   C1A45495  25.295  18.235   6.453
 8501POPC   D2A45496  25.303  18.288   6.753
 8501POPC   C3A45497  25.220  18.326   7.053
 8501POPC   C4A45498  25.261  18.250   7.353
 8501POPC   C1B45499  25.547  18.230   6.453
 8501POPC   C2B45500  25.549  18.258   6.753
 8501POPC   C3B45501  25.475  18.211   7.053
 8501POPC   C4B45502  25.499  18.284   7.353
 8502POPC   NC345503  42.297  23.690   5.553
 8502POPC   PO445504  42.348  23.734   5.853
 8502POPC   GL145505  42.374  23.756   6.153
 8502POPC   GL245506  42.276  23.812   6.153
 8502POPC   C1A45507  42.323  23.727   6.453
 8502POPC   D2A45508  42.308  23.688   6.753
 8502POPC   C3A45509  42.346  23.682   7.053
 8502POPC   C4A45510  42.309  23.701   7.353
 8502POPC   C1B45511  42.198  23.938   6.453
 8502POPC   C2B45512  42.139  23.962   6.753
 8502POPC   C3B45513  42.237  23.935   7.053
 8502POPC   C4B45514  42.217  23.882   7.353
 8503POPC   NC345515  40.025  26.052   5.553
 8503POPC   PO445516  40.047  26.008   5.853
 8503POPC   GL145517  40.011  26.010   6.153
 8503POPC   GL245518  39.917  26.186   6.153
 8503POPC   C1A45519  39.972  26.010   6.453
 8503POPC   D2A45520  40.050  25.995   6.753
 8503POPC   C3A45521  39.992  26.015   7.053
 8503POPC   C4A45522  40.023  26.079   7.353
 8503POPC   C1B45523  39.847  26.248   6.453
 8503POPC   C2B45524  39.895  26.290   6.753
 8503POPC   C3B45525  39.874  26.314   7.053
 8503POPC   C4B45526  39.898  26.220   7.353
 8504POPC   NC345527  21.389  17.488   5.553
 8504POPC   PO445528  21.357  17.479   5.853
 8504POPC   GL145529  21.363  17.550   6.153
 8504POPC   GL245530  21.488  17.429   6.153
 8504POPC   C1A45531  21.410  17.556   6.453
 8504POPC   D2A45532  21.433  17.550   6.753
 8504POPC   C3A45533  21.379  17.473   7.053
 8504POPC   C4A45534  21.344  17.473   7.353
 8504POPC   C1B45535  21.487  17.284   6.453
 8504POPC   C2B45536  21.533  17.261   6.753
 8504POPC   C3B45537  21.563  17.317   7.053
 8504POPC   C4B45538  21.566  17.307   7.353
 8505POPC   NC345539  35.382   9.787   5.553
 8505POPC   PO445540  35.323   9.721   5.853
 8505POPC   GL145541  35.393   9.712   6.153
 8505POPC   GL245542  35.243   9.728   6.153
 8505POPC   C1A45543  35.302   9.742   6.453
 8505POPC   D2A45544  35.372   9.704   6.753
 8505POPC   C3A45545  35.322   9.763   7.053
 8505POPC   C4A45546  35.319   9.729   7.353
 8505POPC   C1B45547  35.098   9.731   6.453
 8505POPC   C2B45548  35.097   9.751   6.753
 8505POPC   C3B45549  35.125   9.696   7.053
 8505POPC   C4B45550  35.100   9.683   7.353
 8506POPC   NC345551   4.337  25.280   5.553
 8506POPC   PO445552   4.294  25.235   5.853
 8506POPC   GL145553   4.363  25.260   6.153
 8506POPC   GL245554   4.385  25.212   6.153
 8506POPC   C1A45555   4.358  25.271   6.453
 8506POPC   D2A45556   4.272  25.307   6.753
 8506POPC   C3A45557   4.298  25.218   7.053
 8506POPC   C4A45558   4.324  25.311   7.353
 8506POPC   C1B45559   4.519  25.117   6.453
 8506POPC   C2B45560   4.490  25.132   6.753
 8506POPC   C3B45561   4.481  25.056   7.053
 8506POPC   C4B45562   4.446  25.111   7.353
 8507POPC   NC345563  29.916   6.624   5.553
 8507POPC   PO445564  29.871   6.667   5.853
 8507POPC   GL145565  29.934   6.615   6.153
 8507POPC   GL245566  29.790   6.670   6.153
 8507POPC   C1A45567  29.909   6.646   6.453
 8507POPC   D2A45568  29.903   6.618   6.753
 8507POPC   C3A45569  29.887   6.677   7.053
 8507POPC   C4A45570  29.930   6.604   7.353
 8507POPC   C1B45571  29.732   6.699   6.453
 8507POPC   C2B45572  29.732   6.717   6.753
 8507POPC   C3B45573  29.672   6.674   7.053
 8507POPC   C4B45574  29.654   6.697   7.353
 8508POPC   NC345575  38.418  15.174   5.553
 8508POPC   PO445576  38.441  15.148   5.853
 8508POPC   GL145577  38.478  15.152   6.153
 8508POPC   GL245578  38.449  15.303   6.153
 8508POPC   C1A45579  38.489  15.132   6.453
 8508POPC   D2A45580  38.473  15.217   6.753
 8508POPC   C3A45581  38.496  15.147   7.053
 8508POPC   C4A45582  38.499  15.168   7.353
 8508POPC   C1B45583  38.340  15.367   6.453
 8508POPC   C2B45584  38.402  15.420   6.753
 8508POPC   C3B45585  38.385  15.363   7.053
 8508POPC   C4B45586  38.368  15.435   7.353
 8509POPC   NC345587  39.219  15.173   5.553
 8509POPC   PO445588  39.248  15.145   5.853
 8509POPC   GL145589  39.235  15.174   6.153
 8509POPC   GL245590  39.176  15.266   6.153
 8509POPC   C1A45591  39.202  15.157   6.453
 8509POPC   D2A45592  39.195  15.222   6.753
 8509POPC   C3A45593  39.216  15.191   7.053
 8509POPC   C4A45594  39.220  15.158   7.353
 8509POPC   C1B45595  39.121  15.456   6.453
 8509POPC   C2B45596  39.168  15.451   6.753
 8509POPC   C3B45597  39.146  15.432   7.053
 8509POPC   C4B45598  39.186  15.468   7.353
 8510POPC   NC345599  30.731  18.295   5.553
 8510POPC   PO445600  30.727  18.294   5.853
 8510POPC   GL145601  30.665  18.248   6.153
 8510POPC   GL245602  30.788  18.414   6.153
 8510POPC   C1A45603  30.666  18.332   6.453
 8510POPC   D2A45604  30.652  18.248   6.753
 8510POPC   C3A45605  30.669  18.275   7.053
 8510POPC   C4A45606  30.725  18.286   7.353
 8510POPC   C1B45607  30.862  18.501   6.453
 8510POPC   C2B45608  30.843  18.464   6.753
 8510POPC   C3B45609  30.843  18.480   7.053
 8510POPC   C4B45610  30.868  18.525   7.353
 8511POPC   NC345611   5.078  39.230   5.553
 8511POPC   PO445612   5.137  39.276   5.853
 8511POPC   GL145613   5.128  39.228   6.153
 8511POPC   GL245614   5.108  39.094   6.153
 8511POPC   C1A45615   5.046  39.231   6.453
 8511POPC   D2A45616   5.057  39.279   6.753
 8511POPC   C3A45617   5.133  39.193   7.053
 8511POPC   C4A45618   5.059  39.192   7.353
 8511POPC   C1B45619   5.234  38.978   6.453
 8511POPC   C2B45620   5.191  39.022   6.753
 8511POPC   C3B45621   5.219  38.988   7.053
 8511POPC   C4B45622   5.161  39.031   7.353
 8512POPC   NC345623  19.807  19.072   5.553
 8512POPC   PO445624  19.847  19.089   5.853
 8512POPC   GL145625  19.834  19.079   6.153
 8512POPC   GL245626  19.906  18.988   6.153
 8512POPC   C1A45627  19.853  19.064   6.453
 8512POPC   D2A45628  19.838  19.064   6.753
 8512POPC   C3A45629  19.882  19.100   7.053
 8512POPC   C4A45630  19.884  19.035   7.353
 8512POPC   C1B45631  19.930  18.801   6.453
 8512POPC   C2B45632  19.955  18.854   6.753
 8512POPC   C3B45633  19.901  18.811   7.053
 8512POPC   C4B45634  19.917  18.790   7.353
 8513POPC   NC345635   1.998   5.829   5.553
 8513POPC   PO445636   2.009   5.911   5.853
 8513POPC   GL145637   1.950   5.891   6.153
 8513POPC   GL245638   2.000   5.804   6.153
 8513POPC   C1A45639   2.014   5.882   6.453
 8513POPC   D2A45640   1.966   5.916   6.753
 8513POPC   C3A45641   2.019   5.820   7.053
 8513POPC   C4A45642   1.981   5.863   7.353
 8513POPC   C1B45643   2.060   5.663   6.453
 8513POPC   C2B45644   2.104   5.687   6.753
 8513POPC   C3B45645   2.138   5.648   7.053
 8513POPC   C4B45646   2.091   5.623   7.353
 8514POPC   NC345647   8.977  30.653   5.553
 8514POPC   PO445648   8.939  30.730   5.853
 8514POPC   GL145649   9.018  30.698   6.153
 8514POPC   GL245650   8.889  30.801   6.153
 8514POPC   C1A45651   8.937  30.660   6.453
 8514POPC   D2A45652   8.991  30.653   6.753
 8514POPC   C3A45653   9.011  30.725   7.053
 8514POPC   C4A45654   8.982  30.661   7.353
 8514POPC   C1B45655   8.867  30.929   6.453
 8514POPC   C2B45656   8.853  30.866   6.753
 8514POPC   C3B45657   8.876  30.885   7.053
 8514POPC   C4B45658   8.809  30.941   7.353
 8515POPC   NC345659  29.931  19.861   5.553
 8515POPC   PO445660  29.910  19.879   5.853
 8515POPC   GL145661  29.910  19.836   6.153
 8515POPC   GL245662  30.038  19.866   6.153
 8515POPC   C1A45663  29.883  19.794   6.453
 8515POPC   D2A45664  29.929  19.806   6.753
 8515POPC   C3A45665  29.952  19.837   7.053
 8515POPC   C4A45666  29.932  19.830   7.353
 8515POPC   C1B45667  30.194  19.922   6.453
 8515POPC   C2B45668  30.162  19.879   6.753
 8515POPC   C3B45669  30.165  19.971   7.053
 8515POPC   C4B45670  30.117  19.881   7.353
 8516POPC   NC345671  15.908   1.222   5.553
 8516POPC   PO445672  15.990   1.259   5.853
 8516POPC   GL145673  15.966   1.186   6.153
 8516POPC   GL245674  15.886   1.360   6.153
 8516POPC   C1A45675  15.985   1.167   6.453
 8516POPC   D2A45676  15.952   1.264   6.753
 8516POPC   C3A45677  15.915   1.246   7.053
 8516POPC   C4A45678  15.935   1.242   7.353
 8516POPC   C1B45679  15.955   1.485   6.453
 8516POPC   C2B45680  15.870   1.412   6.753
 8516POPC   C3B45681  15.922   1.444   7.053
 8516POPC   C4B45682  15.878   1.453   7.353
 8517POPC   NC345683  30.667  32.253   5.553
 8517POPC   PO445684  30.743  32.230   5.853
 8517POPC   GL145685  30.693  32.201   6.153
 8517POPC   GL245686  30.752  32.111   6.153
 8517POPC   C1A45687  30.737  32.224   6.453
 8517POPC   D2A45688  30.685  32.283   6.753
 8517POPC   C3A45689  30.729  32.267   7.053
 8517POPC   C4A45690  30.648  32.251   7.353
 8517POPC   C1B45691  30.746  31.964   6.453
 8517POPC   C2B45692  30.741  32.028   6.753
 8517POPC   C3B45693  30.774  32.020   7.053
 8517POPC   C4B45694  30.786  31.986   7.353
 8518POPC   NC345695  34.612   5.063   5.553
 8518POPC   PO445696  34.561   5.081   5.853
 8518POPC   GL145697  34.568   5.045   6.153
 8518POPC   GL245698  34.502   5.147   6.153
 8518POPC   C1A45699  34.572   5.111   6.453
 8518POPC   D2A45700  34.574   5.112   6.753
 8518POPC   C3A45701  34.590   5.090   7.053
 8518POPC   C4A45702  34.621   5.114   7.353
 8518POPC   C1B45703  34.327   5.122   6.453
 8518POPC   C2B45704  34.296   5.097   6.753
 8518POPC   C3B45705  34.371   5.130   7.053
 8518POPC   C4B45706  34.284   5.163   7.353
 8519POPC   NC345707  42.333  15.968   5.553
 8519POPC   PO445708  42.361  15.980   5.853
 8519POPC   GL145709  42.304  15.949   6.153
 8519POPC   GL245710  42.196  16.002   6.153
 8519POPC   C1A45711  42.373  15.935   6.453
 8519POPC   D2A45712  42.307  15.958   6.753
 8519POPC   C3A45713  42.373  15.913   7.053
 8519POPC   C4A45714  42.290  15.932   7.353
 8519POPC   C1B45715  42.173  16.175   6.453
 8519POPC   C2B45716  42.143  16.082   6.753
 8519POPC   C3B45717  42.109  16.124   7.053
 8519POPC   C4B45718  42.129  16.124   7.353
 8520POPC   NC345719   7.410  19.028   5.553
 8520POPC   PO445720   7.456  19.046   5.853
 8520POPC   GL145721   7.388  19.020   6.153
 8520POPC   GL245722   7.405  18.975   6.153
 8520POPC   C1A45723   7.380  19.029   6.453
 8520POPC   D2A45724   7.453  19.094   6.753
 8520POPC   C3A45725   7.433  19.096   7.053
 8520POPC   C4A45726   7.423  19.072   7.353
 8520POPC   C1B45727   7.433  18.837   6.453
 8520POPC   C2B45728   7.386  18.764   6.753
 8520POPC   C3B45729   7.428  18.800   7.053
 8520POPC   C4B45730   7.423  18.857   7.353
 8521POPC   NC345731   5.863  30.691   5.553
 8521POPC   PO445732   5.864  30.717   5.853
 8521POPC   GL145733   5.875  30.701   6.153
 8521POPC   GL245734   5.949  30.751   6.153
 8521POPC   C1A45735   5.888  30.671   6.453
 8521POPC   D2A45736   5.865  30.693   6.753
 8521POPC   C3A45737   5.908  30.687   7.053
 8521POPC   C4A45738   5.823  30.664   7.353
 8521POPC   C1B45739   6.125  30.816   6.453
 8521POPC   C2B45740   6.118  30.825   6.753
 8521POPC   C3B45741   6.046  30.803   7.053
 8521POPC   C4B45742   6.062  30.835   7.353
 8522POPC   NC345743   7.391  35.398   5.553
 8522POPC   PO445744   7.409  35.363   5.853
 8522POPC   GL145745   7.399  35.371   6.153
 8522POPC   GL245746   7.563  35.410   6.153
 8522POPC   C1A45747   7.378  35.389   6.453
 8522POPC   D2A45748   7.461  35.339   6.753
 8522POPC   C3A45749   7.396  35.319   7.053
 8522POPC   C4A45750   7.374  35.309   7.353
 8522POPC   C1B45751   7.693  35.388   6.453
 8522POPC   C2B45752   7.654  35.403   6.753
 8522POPC   C3B45753   7.677  35.395   7.053
 8522POPC   C4B45754   7.654  35.435   7.353
 8523POPC   NC345755  33.828  16.765   5.553
 8523POPC   PO445756  33.844  16.689   5.853
 8523POPC   GL145757  33.850  16.760   6.153
 8523POPC   GL245758  33.675  16.775   6.153
 8523POPC   C1A45759  33.848  16.698   6.453
 8523POPC   D2A45760  33.835  16.765   6.753
 8523POPC   C3A45761  33.797  16.741   7.053
 8523POPC   C4A45762  33.784  16.766   7.353
 8523POPC   C1B45763  33.565  16.810   6.453
 8523POPC   C2B45764  33.603  16.849   6.753
 8523POPC   C3B45765  33.521  16.798   7.053
 8523POPC   C4B45766  33.582  16.851   7.353
 8524POPC   NC345767  12.093  37.680   5.553
 8524POPC   PO445768  12.091  37.700   5.853
 8524POPC   GL145769  12.067  37.713   6.153
 8524POPC   GL245770  12.121  37.546   6.153
 8524POPC   C1A45771  12.060  37.729   6.453
 8524POPC   D2A45772  12.085  37.720   6.753
 8524POPC   C3A45773  12.060  37.708   7.053
 8524POPC   C4A45774  12.057  37.722   7.353
 8524POPC   C1B45775  12.178  37.427   6.453
 8524POPC   C2B45776  12.264  37.435   6.753
 8524POPC   C3B45777  12.270  37.426   7.053
 8524POPC   C4B45778  12.221  37.495   7.353
 8525POPC   NC345779  31.470  17.539   5.553
 8525POPC   PO445780  31.464  17.540   5.853
 8525POPC   GL145781  31.439  17.523   6.153
 8525POPC   GL245782  31.594  17.571   6.153
 8525POPC   C1A45783  31.424  17.515   6.453
 8525POPC   D2A45784  31.431  17.473   6.753
 8525POPC   C3A45785  31.508  17.555   7.053
 8525POPC   C4A45786  31.452  17.460   7.353
 8525POPC   C1B45787  31.633  17.651   6.453
 8525POPC   C2B45788  31.687  17.696   6.753
 8525POPC   C3B45789  31.706  17.653   7.053
 8525POPC   C4B45790  31.691  17.614   7.353
 8526POPC   NC345791  18.275  22.933   5.553
 8526POPC   PO445792  18.239  22.979   5.853
 8526POPC   GL145793  18.314  22.974   6.153
 8526POPC   GL245794  18.244  23.047   6.153
 8526POPC   C1A45795  18.316  22.926   6.453
 8526POPC   D2A45796  18.297  22.936   6.753
 8526POPC   C3A45797  18.240  22.987   7.053
 8526POPC   C4A45798  18.329  22.898   7.353
 8526POPC   C1B45799  18.193  23.175   6.453
 8526POPC   C2B45800  18.123  23.178   6.753
 8526POPC   C3B45801  18.126  23.144   7.053
 8526POPC   C4B45802  18.151  23.154   7.353
 8527POPC   NC345803   0.463   9.715   5.553
 8527POPC   PO445804   0.392   9.701   5.853
 8527POPC   GL145805   0.464   9.760   6.153
 8527POPC   GL245806   0.497   9.704   6.153
 8527POPC   C1A45807   0.461   9.770   6.453
 8527POPC   D2A45808   0.445   9.726   6.753
 8527POPC   C3A45809   0.432   9.705   7.053
 8527POPC   C4A45810   0.469   9.782   7.353
 8527POPC   C1B45811   0.674   9.637   6.453
 8527POPC   C2B45812   0.657   9.673   6.753
 8527POPC   C3B45813   0.671   9.618   7.053
 8527POPC   C4B45814   0.689   9.590   7.353
 8528POPC   NC345815   2.797   4.339   5.553
 8528POPC   PO445816   2.751   4.333   5.853
 8528POPC   GL145817   2.753   4.296   6.153
 8528POPC   GL245818   2.679   4.358   6.153
 8528POPC   C1A45819   2.732   4.272   6.453
 8528POPC   D2A45820   2.782   4.303   6.753
 8528POPC   C3A45821   2.784   4.273   7.053
 8528POPC   C4A45822   2.723   4.359   7.353
 8528POPC   C1B45823   2.524   4.395   6.453
 8528POPC   C2B45824   2.572   4.427   6.753
 8528POPC   C3B45825   2.573   4.415   7.053
 8528POPC   C4B45826   2.564   4.449   7.353
 8529POPC   NC345827   5.118  41.559   5.553
 8529POPC   PO445828   5.113  41.541   5.853
 8529POPC   GL145829   5.065  41.570   6.153
 8529POPC   GL245830   4.946  41.544   6.153
 8529POPC   C1A45831   5.115  41.579   6.453
 8529POPC   D2A45832   5.084  41.585   6.753
 8529POPC   C3A45833   5.067  41.511   7.053
 8529POPC   C4A45834   5.066  41.572   7.353
 8529POPC   C1B45835   4.808  41.639   6.453
 8529POPC   C2B45836   4.799  41.577   6.753
 8529POPC   C3B45837   4.825  41.567   7.053
 8529POPC   C4B45838   4.857  41.630   7.353
 8530POPC   NC345839  39.236  12.038   5.553
 8530POPC   PO445840  39.199  12.110   5.853
 8530POPC   GL145841  39.265  12.035   6.153
 8530POPC   GL245842  39.177  12.224   6.153
 8530POPC   C1A45843  39.233  12.026   6.453
 8530POPC   D2A45844  39.183  12.105   6.753
 8530POPC   C3A45845  39.279  12.030   7.053
 8530POPC   C4A45846  39.222  12.071   7.353
 8530POPC   C1B45847  39.121  12.307   6.453
 8530POPC   C2B45848  39.164  12.255   6.753
 8530POPC   C3B45849  39.121  12.284   7.053
 8530POPC   C4B45850  39.154  12.270   7.353
 8531POPC   NC345851  43.117  21.359   5.553
 8531POPC   PO445852  43.154  21.370   5.853
 8531POPC   GL145853  43.129  21.393   6.153
 8531POPC   GL245854  43.069  21.545   6.153
 8531POPC   C1A45855  43.139  21.346   6.453
 8531POPC   D2A45856  43.099  21.392   6.753
 8531POPC   C3A45857  43.133  21.378   7.053
 8531POPC   C4A45858  43.151  21.378   7.353
 8531POPC   C1B45859  43.111  21.676   6.453
 8531POPC   C2B45860  43.123  21.673   6.753
 8531POPC   C3B45861  43.142  21.586   7.053
 8531POPC   C4B45862  43.124  21.686   7.353
 8532POPC   NC345863  35.350  11.273   5.553
 8532POPC   PO445864  35.378  11.259   5.853
 8532POPC   GL145865  35.352  11.307   6.153
 8532POPC   GL245866  35.295  11.413   6.153
 8532POPC   C1A45867  35.352  11.280   6.453
 8532POPC   D2A45868  35.392  11.322   6.753
 8532POPC   C3A45869  35.351  11.314   7.053
 8532POPC   C4A45870  35.333  11.330   7.353
 8532POPC   C1B45871  35.191  11.544   6.453
 8532POPC   C2B45872  35.212  11.527   6.753
 8532POPC   C3B45873  35.225  11.541   7.053
 8532POPC   C4B45874  35.196  11.508   7.353
 8533POPC   NC345875   1.211  43.140   5.553
 8533POPC   PO445876   1.251  43.088   5.853
 8533POPC   GL145877   1.241  43.096   6.153
 8533POPC   GL245878   1.251  43.247   6.153
 8533POPC   C1A45879   1.164  43.126   6.453
 8533POPC   D2A45880   1.168  43.119   6.753
 8533POPC   C3A45881   1.234  43.153   7.053
 8533POPC   C4A45882   1.196  43.127   7.353
 8533POPC   C1B45883   1.300  43.335   6.453
 8533POPC   C2B45884   1.310  43.316   6.753
 8533POPC   C3B45885   1.329  43.380   7.053
 8533POPC   C4B45886   1.285  43.308   7.353
 8534POPC   NC345887  26.046  12.093   5.553
 8534POPC   PO445888  26.039  12.107   5.853
 8534POPC   GL145889  26.058  12.116   6.153
 8534POPC   GL245890  26.152  12.120   6.153
 8534POPC   C1A45891  26.049  12.071   6.453
 8534POPC   D2A45892  26.058  12.124   6.753
 8534POPC   C3A45893  26.077  12.062   7.053
 8534POPC   C4A45894  26.054  12.074   7.353
 8534POPC   C1B45895  26.294  12.121   6.453
 8534POPC   C2B45896  26.320  12.119   6.753
 8534POPC   C3B45897  26.286  12.111   7.053
 8534POPC   C4B45898  26.283  12.048   7.353
 8535POPC   NC345899   3.516  11.265   5.553
 8535POPC   PO445900   3.564  11.273   5.853
 8535POPC   GL145901   3.528  11.334   6.153
 8535POPC   GL245902   3.463  11.258   6.153
 8535POPC   C1A45903   3.553  11.301   6.453
 8535POPC   D2A45904   3.554  11.269   6.753
 8535POPC   C3A45905   3.563  11.328   7.053
 8535POPC   C4A45906   3.525  11.253   7.353
 8535POPC   C1B45907   3.318  11.181   6.453
 8535POPC   C2B45908   3.347  11.210   6.753
 8535POPC   C3B45909   3.351  11.145   7.053
 8535POPC   C4B45910   3.283  11.170   7.353
 8536POPC   NC345911  40.811  14.427   5.553
 8536POPC   PO445912  40.764  14.384   5.853
 8536POPC   GL145913  40.801  14.372   6.153
 8536POPC   GL245914  40.932  14.317   6.153
 8536POPC   C1A45915  40.781  14.355   6.453
 8536POPC   D2A45916  40.814  14.431   6.753
 8536POPC   C3A45917  40.758  14.453   7.053
 8536POPC   C4A45918  40.815  14.444   7.353
 8536POPC   C1B45919  40.973  14.293   6.453
 8536POPC   C2B45920  41.051  14.267   6.753
 8536POPC   C3B45921  41.029  14.260   7.053
 8536POPC   C4B45922  40.978  14.277   7.353
 8537POPC   NC345923  43.063   0.446   5.553
 8537POPC   PO445924  43.133   0.486   5.853
 8537POPC   GL145925  43.120   0.465   6.153
 8537POPC   GL245926  43.226   0.459   6.153
 8537POPC   C1A45927  43.074   0.405   6.453
 8537POPC   D2A45928  43.137   0.472   6.753
 8537POPC   C3A45929  43.103   0.483   7.053
 8537POPC   C4A45930  43.135   0.412   7.353
 8537POPC   C1B45931  43.328   0.470   6.453
 8537POPC   C2B45932  43.381   0.492   6.753
 8537POPC   C3B45933  43.311   0.529   7.053
 8537POPC   C4B45934  43.376   0.507   7.353
 8538POPC   NC345935   7.432  43.884   5.553
 8538POPC   PO445936   7.438  43.867   5.853
 8538POPC   GL145937   7.448  43.904   6.153
 8538POPC   GL245938   7.344  43.777   6.153
 8538POPC   C1A45939   7.444  43.896   6.453
 8538POPC   D2A45940   7.384  43.877   6.753
 8538POPC   C3A45941   7.417  43.919   7.053
 8538POPC   C4A45942   7.440  43.900   7.353
 8538POPC   C1B45943   7.262  43.671   6.453
 8538POPC   C2B45944   7.288  43.685   6.753
 8538POPC   C3B45945   7.299  43.683   7.053
 8538POPC   C4B45946   7.251  43.725   7.353
 8539POPC   NC345947  21.389  16.773   5.553
 8539POPC   PO445948  21.429  16.684   5.853
 8539POPC   GL145949  21.379  16.685   6.153
 8539POPC   GL245950  21.307  16.832   6.153
 8539POPC   C1A45951  21.347  16.692   6.453
 8539POPC   D2A45952  21.366  16.693   6.753
 8539POPC   C3A45953  21.429  16.716   7.053
 8539POPC   C4A45954  21.423  16.717   7.353
 8539POPC   C1B45955  21.135  16.874   6.453
 8539POPC   C2B45956  21.207  16.919   6.753
 8539POPC   C3B45957  21.175  16.835   7.053
 8539POPC   C4B45958  21.170  16.869   7.353
 8540POPC   NC345959  29.101  14.377   5.553
 8540POPC   PO445960  29.181  14.447   5.853
 8540POPC   GL145961  29.153  14.410   6.153
 8540POPC   GL245962  29.208  14.321   6.153
 8540POPC   C1A45963  29.107  14.377   6.453
 8540POPC   D2A45964  29.174  14.361   6.753
 8540POPC   C3A45965  29.149  14.372   7.053
 8540POPC   C4A45966  29.179  14.394   7.353
 8540POPC   C1B45967  29.203  14.179   6.453
 8540POPC   C2B45968  29.235  14.165   6.753
 8540POPC   C3B45969  29.266  14.183   7.053
 8540POPC   C4B45970  29.196  14.158   7.353
 8541POPC   NC345971  43.876  32.989   5.553
 8541POPC   PO445972  43.919  33.039   5.853
 8541POPC   GL145973  43.932  32.989   6.153
 8541POPC   GL245974  43.830  32.941   6.153
 8541POPC   C1A45975  43.932  33.046   6.453
 8541POPC   D2A45976  43.843  33.039   6.753
 8541POPC   C3A45977  43.848  32.999   7.053
 8541POPC   C4A45978  43.891  33.029   7.353
 8541POPC   C1B45979  43.733  32.829   6.453
 8541POPC   C2B45980  43.694  32.863   6.753
 8541POPC   C3B45981  43.683  32.893   7.053
 8541POPC   C4B45982  43.713  32.903   7.353
 8542POPC   NC345983  14.416  27.562   5.553
 8542POPC   PO445984  14.394  27.630   5.853
 8542POPC   GL145985  14.394  27.564   6.153
 8542POPC   GL245986  14.405  27.735   6.153
 8542POPC   C1A45987  14.372  27.629   6.453
 8542POPC   D2A45988  14.377  27.638   6.753
 8542POPC   C3A45989  14.446  27.590   7.053
 8542POPC   C4A45990  14.361  27.618   7.353
 8542POPC   C1B45991  14.476  27.837   6.453
 8542POPC   C2B45992  14.521  27.803   6.753
 8542POPC   C3B45993  14.533  27.845   7.053
 8542POPC   C4B45994  14.542  27.808   7.353
 8543POPC   NC345995  25.264  29.888   5.553
 8543POPC   PO445996  25.271  29.928   5.853
 8543POPC   GL145997  25.242  29.930   6.153
 8543POPC   GL245998  25.163  29.950   6.153
 8543POPC   C1A45999  25.289  29.950   6.453
 8543POPC   D2A46000  25.299  29.934   6.753
 8543POPC   C3A46001  25.251  29.886   7.053
 8543POPC   C4A46002  25.264  29.943   7.353
 8543POPC   C1B46003  24.986  29.985   6.453
 8543POPC   C2B46004  25.023  29.996   6.753
 8543POPC   C3B46005  25.016  30.026   7.053
 8543POPC   C4B46006  25.059  30.040   7.353
 8544POPC   NC346007  33.836  17.556   5.553
 8544POPC   PO446008  33.823  17.458   5.853
 8544POPC   GL146009  33.822  17.524   6.153
 8544POPC   GL246010  33.906  17.572   6.153
 8544POPC   C1A46011  33.775  17.533   6.453
 8544POPC   D2A46012  33.821  17.489   6.753
 8544POPC   C3A46013  33.784  17.467   7.053
 8544POPC   C4A46014  33.765  17.492   7.353
 8544POPC   C1B46015  34.026  17.646   6.453
 8544POPC   C2B46016  34.012  17.620   6.753
 8544POPC   C3B46017  34.055  17.615   7.053
 8544POPC   C4B46018  34.044  17.647   7.353
 8545POPC   NC346019  39.279  26.783   5.553
 8545POPC   PO446020  39.252  26.861   5.853
 8545POPC   GL146021  39.203  26.862   6.153
 8545POPC   GL246022  39.174  26.904   6.153
 8545POPC   C1A46023  39.209  26.853   6.453
 8545POPC   D2A46024  39.183  26.808   6.753
 8545POPC   C3A46025  39.278  26.807   7.053
 8545POPC   C4A46026  39.188  26.770   7.353
 8545POPC   C1B46027  39.047  27.033   6.453
 8545POPC   C2B46028  39.123  27.009   6.753
 8545POPC   C3B46029  39.129  27.001   7.053
 8545POPC   C4B46030  39.090  27.019   7.353
 8546POPC   NC346031   2.772  10.542   5.553
 8546POPC   PO446032   2.757  10.555   5.853
 8546POPC   GL146033   2.740  10.492   6.153
 8546POPC   GL246034   2.798  10.422   6.153
 8546POPC   C1A46035   2.810  10.562   6.453
 8546POPC   D2A46036   2.734  10.563   6.753
 8546POPC   C3A46037   2.724  10.515   7.053
 8546POPC   C4A46038   2.780  10.509   7.353
 8546POPC   C1B46039   2.733  10.259   6.453
 8546POPC   C2B46040   2.828  10.314   6.753
 8546POPC   C3B46041   2.742  10.294   7.053
 8546POPC   C4B46042   2.769  10.296   7.353
 8547POPC   NC346043   7.415  39.277   5.553
 8547POPC   PO446044   7.469  39.241   5.853
 8547POPC   GL146045   7.373  39.201   6.153
 8547POPC   GL246046   7.425  39.337   6.153
 8547POPC   C1A46047   7.443  39.244   6.453
 8547POPC   D2A46048   7.441  39.214   6.753
 8547POPC   C3A46049   7.464  39.280   7.053
 8547POPC   C4A46050   7.423  39.233   7.353
 8547POPC   C1B46051   7.494  39.492   6.453
 8547POPC   C2B46052   7.512  39.501   6.753
 8547POPC   C3B46053   7.550  39.456   7.053
 8547POPC   C4B46054   7.476  39.505   7.353
 8548POPC   NC346055  40.003  43.106   5.553
 8548POPC   PO446056  39.959  43.080   5.853
 8548POPC   GL146057  40.019  43.160   6.153
 8548POPC   GL246058  40.015  43.235   6.153
 8548POPC   C1A46059  39.997  43.070   6.453
 8548POPC   D2A46060  39.981  43.134   6.753
 8548POPC   C3A46061  39.967  43.147   7.053
 8548POPC   C4A46062  40.055  43.144   7.353
 8548POPC   C1B46063  40.041  43.392   6.453
 8548POPC   C2B46064  40.002  43.324   6.753
 8548POPC   C3B46065  40.088  43.350   7.053
 8548POPC   C4B46066  40.001  43.345   7.353
 8549POPC   NC346067  29.182  13.646   5.553
 8549POPC   PO446068  29.182  13.638   5.853
 8549POPC   GL146069  29.129  13.667   6.153
 8549POPC   GL246070  29.046  13.637   6.153
 8549POPC   C1A46071  29.156  13.598   6.453
 8549POPC   D2A46072  29.116  13.587   6.753
 8549POPC   C3A46073  29.143  13.664   7.053
 8549POPC   C4A46074  29.177  13.611   7.353
 8549POPC   C1B46075  28.873  13.584   6.453
 8549POPC   C2B46076  28.917  13.633   6.753
 8549POPC   C3B46077  28.899  13.641   7.053
 8549POPC   C4B46078  28.849  13.598   7.353
 8550POPC   NC346079  17.525  13.671   5.553
 8550POPC   PO446080  17.523  13.589   5.853
 8550POPC   GL146081  17.509  13.668   6.153
 8550POPC   GL246082  17.608  13.597   6.153
 8550POPC   C1A46083  17.474  13.663   6.453
 8550POPC   D2A46084  17.549  13.595   6.753
 8550POPC   C3A46085  17.514  13.616   7.053
 8550POPC   C4A46086  17.485  13.663   7.353
 8550POPC   C1B46087  17.731  13.681   6.453
 8550POPC   C2B46088  17.788  13.649   6.753
 8550POPC   C3B46089  17.766  13.627   7.053
 8550POPC   C4B46090  17.785  13.613   7.353
 8551POPC   NC346091  24.514  37.650   5.553
 8551POPC   PO446092  24.467  37.631   5.853
 8551POPC   GL146093  24.517  37.710   6.153
 8551POPC   GL246094  24.379  37.744   6.153
 8551POPC   C1A46095  24.442  37.676   6.453
 8551POPC   D2A46096  24.448  37.702   6.753
 8551POPC   C3A46097  24.513  37.640   7.053
 8551POPC   C4A46098  24.488  37.658   7.353
 8551POPC   C1B46099  24.361  37.862   6.453
 8551POPC   C2B46100  24.377  37.838   6.753
 8551POPC   C3B46101  24.319  37.886   7.053
 8551POPC   C4B46102  24.318  37.898   7.353
 8552POPC   NC346103  36.174  23.698   5.553
 8552POPC   PO446104  36.118  23.742   5.853
 8552POPC   GL146105  36.146  23.751   6.153
 8552POPC   GL246106  36.065  23.613   6.153
 8552POPC   C1A46107  36.139  23.741   6.453
 8552POPC   D2A46108  36.127  23.680   6.753
 8552POPC   C3A46109  36.091  23.731   7.053
 8552POPC   C4A46110  36.123  23.693   7.353
 8552POPC   C1B46111  36.049  23.469   6.453
 8552POPC   C2B46112  36.088  23.500   6.753
 8552POPC   C3B46113  36.048  23.508   7.053
 8552POPC   C4B46114  36.020  23.518   7.353
 8553POPC   NC346115  26.865  32.287   5.553
 8553POPC   PO446116  26.804  32.204   5.853
 8553POPC   GL146117  26.791  32.253   6.153
 8553POPC   GL246118  26.698  32.276   6.153
 8553POPC   C1A46119  26.793  32.287   6.453
 8553POPC   D2A46120  26.797  32.231   6.753
 8553POPC   C3A46121  26.863  32.234   7.053
 8553POPC   C4A46122  26.835  32.291   7.353
 8553POPC   C1B46123  26.556  32.333   6.453
 8553POPC   C2B46124  26.624  32.310   6.753
 8553POPC   C3B46125  26.571  32.368   7.053
 8553POPC   C4B46126  26.547  32.317   7.353
 8554POPC   NC346127  22.114  14.404   5.553
 8554POPC   PO446128  22.151  14.397   5.853
 8554POPC   GL146129  22.180  14.383   6.153
 8554POPC   GL246130  22.298  14.497   6.153
 8554POPC   C1A46131  22.116  14.450   6.453
 8554POPC   D2A46132  22.175  14.367   6.753
 8554POPC   C3A46133  22.132  14.418   7.053
 8554POPC   C4A46134  22.131  14.433   7.353
 8554POPC   C1B46135  22.366  14.511   6.453
 8554POPC   C2B46136  22.415  14.592   6.753
 8554POPC   C3B46137  22.360  14.568   7.053
 8554POPC   C4B46138  22.327  14.527   7.353
 8555POPC   NC346139  16.776   0.475   5.553
 8555POPC   PO446140  16.719   0.400   5.853
 8555POPC   GL146141  16.714   0.421   6.153
 8555POPC   GL246142  16.779   0.535   6.153
 8555POPC   C1A46143  16.779   0.462   6.453
 8555POPC   D2A46144  16.743   0.388   6.753
 8555POPC   C3A46145  16.742   0.437   7.053
 8555POPC   C4A46146  16.757   0.480   7.353
 8555POPC   C1B46147  16.830   0.688   6.453
 8555POPC   C2B46148  16.832   0.670   6.753
 8555POPC   C3B46149  16.741   0.719   7.053
 8555POPC   C4B46150  16.747   0.725   7.353
 8556POPC   NC346151  43.858  44.709   5.553
 8556POPC   PO446152  43.856  44.684   5.853
 8556POPC   GL146153  43.917  44.677   6.153
 8556POPC   GL246154  43.738  44.691   6.153
 8556POPC   C1A46155  43.919  44.614   6.453
 8556POPC   D2A46156  43.912  44.641   6.753
 8556POPC   C3A46157  43.935  44.639   7.053
 8556POPC   C4A46158  43.920  44.653   7.353
 8556POPC   C1B46159  43.676  44.819   6.453
 8556POPC   C2B46160  43.665  44.796   6.753
 8556POPC   C3B46161  43.720  44.795   7.053
 8556POPC   C4B46162  43.657  44.800   7.353
 8557POPC   NC346163  43.095  22.139   5.553
 8557POPC   PO446164  43.159  22.202   5.853
 8557POPC   GL146165  43.151  22.136   6.153
 8557POPC   GL246166  42.993  22.155   6.153
 8557POPC   C1A46167  43.103  22.204   6.453
 8557POPC   D2A46168  43.133  22.175   6.753
 8557POPC   C3A46169  43.104  22.147   7.053
 8557POPC   C4A46170  43.082  22.181   7.353
 8557POPC   C1B46171  42.878  22.151   6.453
 8557POPC   C2B46172  42.821  22.189   6.753
 8557POPC   C3B46173  42.835  22.186   7.053
 8557POPC   C4B46174  42.862  22.213   7.353
 8558POPC   NC346175  31.463  35.332   5.553
 8558POPC   PO446176  31.510  35.338   5.853
 8558POPC   GL146177  31.427  35.312   6.153
 8558POPC   GL246178  31.387  35.426   6.153
 8558POPC   C1A46179  31.437  35.329   6.453
 8558POPC   D2A46180  31.520  35.362   6.753
 8558POPC   C3A46181  31.470  35.374   7.053
 8558POPC   C4A46182  31.443  35.397   7.353
 8558POPC   C1B46183  31.214  35.501   6.453
 8558POPC   C2B46184  31.252  35.517   6.753
 8558POPC   C3B46185  31.285  35.515   7.053
 8558POPC   C4B46186  31.254  35.504   7.353
 8559POPC   NC346187  26.808   5.067   5.553
 8559POPC   PO446188  26.797   5.051   5.853
 8559POPC   GL146189  26.804   5.085   6.153
 8559POPC   GL246190  26.877   5.243   6.153
 8559POPC   C1A46191  26.842   5.111   6.453
 8559POPC   D2A46192  26.821   5.095   6.753
 8559POPC   C3A46193  26.840   5.130   7.053
 8559POPC   C4A46194  26.822   5.056   7.353
 8559POPC   C1B46195  26.983   5.286   6.453
 8559POPC   C2B46196  26.949   5.346   6.753
 8559POPC   C3B46197  26.945   5.316   7.053
 8559POPC   C4B46198  26.991   5.285   7.353
 8560POPC   NC346199  37.727  43.922   5.553
 8560POPC   PO446200  37.685  43.841   5.853
 8560POPC   GL146201  37.719  43.837   6.153
 8560POPC   GL246202  37.789  43.758   6.153
 8560POPC   C1A46203  37.655  43.873   6.453
 8560POPC   D2A46204  37.668  43.856   6.753
 8560POPC   C3A46205  37.635  43.933   7.053
 8560POPC   C4A46206  37.642  43.884   7.353
 8560POPC   C1B46207  37.869  43.721   6.453
 8560POPC   C2B46208  37.834  43.714   6.753
 8560POPC   C3B46209  37.885  43.714   7.053
 8560POPC   C4B46210  37.816  43.663   7.353
 8561POPC   NC346211  15.938   5.885   5.553
 8561POPC   PO446212  16.001   5.831   5.853
 8561POPC   GL146213  15.991   5.851   6.153
 8561POPC   GL246214  16.113   5.867   6.153
 8561POPC   C1A46215  16.005   5.854   6.453
 8561POPC   D2A46216  15.939   5.898   6.753
 8561POPC   C3A46217  15.993   5.900   7.053
 8561POPC   C4A46218  16.000   5.865   7.353
 8561POPC   C1B46219  16.197   5.803   6.453
 8561POPC   C2B46220  16.198   5.737   6.753
 8561POPC   C3B46221  16.171   5.724   7.053
 8561POPC   C4B46222  16.156   5.733   7.353
 8562POPC   NC346223  24.450  17.505   5.553
 8562POPC   PO446224  24.467  17.502   5.853
 8562POPC   GL146225  24.512  17.468   6.153
 8562POPC   GL246226  24.551  17.590   6.153
 8562POPC   C1A46227  24.538  17.545   6.453
 8562POPC   D2A46228  24.520  17.491   6.753
 8562POPC   C3A46229  24.455  17.504   7.053
 8562POPC   C4A46230  24.467  17.474   7.353
 8562POPC   C1B46231  24.653  17.668   6.453
 8562POPC   C2B46232  24.679  17.708   6.753
 8562POPC   C3B46233  24.658  17.680   7.053
 8562POPC   C4B46234  24.674  17.696   7.353
 8563POPC   NC346235  33.772   6.633   5.553
 8563POPC   PO446236  33.753   6.638   5.853
 8563POPC   GL146237  33.837   6.640   6.153
 8563POPC   GL246238  33.953   6.658   6.153
 8563POPC   C1A46239  33.758   6.601   6.453
 8563POPC   D2A46240  33.794   6.669   6.753
 8563POPC   C3A46241  33.759   6.688   7.053
 8563POPC   C4A46242  33.847   6.668   7.353
 8563POPC   C1B46243  34.013   6.606   6.453
 8563POPC   C2B46244  34.061   6.573   6.753
 8563POPC   C3B46245  34.042   6.548   7.053
 8563POPC   C4B46246  34.015   6.590   7.353
 8564POPC   NC346247  37.632  12.821   5.553
 8564POPC   PO446248  37.727  12.870   5.853
 8564POPC   GL146249  37.726  12.889   6.153
 8564POPC   GL246250  37.809  12.790   6.153
 8564POPC   C1A46251  37.649  12.890   6.453
 8564POPC   D2A46252  37.717  12.878   6.753
 8564POPC   C3A46253  37.710  12.900   7.053
 8564POPC   C4A46254  37.715  12.865   7.353
 8564POPC   C1B46255  37.941  12.820   6.453
 8564POPC   C2B46256  37.893  12.830   6.753
 8564POPC   C3B46257  37.887  12.781   7.053
 8564POPC   C4B46258  37.894  12.832   7.353
 8565POPC   NC346259  27.599  21.364   5.553
 8565POPC   PO446260  27.629  21.405   5.853
 8565POPC   GL146261  27.621  21.376   6.153
 8565POPC   GL246262  27.562  21.306   6.153
 8565POPC   C1A46263  27.626  21.346   6.453
 8565POPC   D2A46264  27.596  21.409   6.753
 8565POPC   C3A46265  27.598  21.387   7.053
 8565POPC   C4A46266  27.568  21.387   7.353
 8565POPC   C1B46267  27.484  21.162   6.453
 8565POPC   C2B46268  27.521  21.193   6.753
 8565POPC   C3B46269  27.490  21.196   7.053
 8565POPC   C4B46270  27.430  21.190   7.353
 8566POPC   NC346271   6.619  29.123   5.553
 8566POPC   PO446272   6.677  29.189   5.853
 8566POPC   GL146273   6.615  29.131   6.153
 8566POPC   GL246274   6.680  28.983   6.153
 8566POPC   C1A46275   6.658  29.193   6.453
 8566POPC   D2A46276   6.658  29.123   6.753
 8566POPC   C3A46277   6.630  29.131   7.053
 8566POPC   C4A46278   6.661  29.109   7.353
 8566POPC   C1B46279   6.587  28.894   6.453
 8566POPC   C2B46280   6.639  28.867   6.753
 8566POPC   C3B46281   6.632  28.926   7.053
 8566POPC   C4B46282   6.669  28.931   7.353
 8567POPC   NC346283   9.710  17.485   5.553
 8567POPC   PO446284   9.716  17.464   5.853
 8567POPC   GL146285   9.776  17.523   6.153
 8567POPC   GL246286   9.759  17.664   6.153
 8567POPC   C1A46287   9.792  17.462   6.453
 8567POPC   D2A46288   9.723  17.478   6.753
 8567POPC   C3A46289   9.726  17.534   7.053
 8567POPC   C4A46290   9.787  17.529   7.353
 8567POPC   C1B46291   9.720  17.713   6.453
 8567POPC   C2B46292   9.708  17.711   6.753
 8567POPC   C3B46293   9.700  17.709   7.053
 8567POPC   C4B46294   9.678  17.749   7.353
 8568POPC   NC346295  30.664  12.105   5.553
 8568POPC   PO446296  30.672  12.094   5.853
 8568POPC   GL146297  30.689  12.118   6.153
 8568POPC   GL246298  30.538  12.056   6.153
 8568POPC   C1A46299  30.724  12.114   6.453
 8568POPC   D2A46300  30.734  12.060   6.753
 8568POPC   C3A46301  30.718  12.117   7.053
 8568POPC   C4A46302  30.684  12.126   7.353
 8568POPC   C1B46303  30.488  12.086   6.453
 8568POPC   C2B46304  30.466  12.107   6.753
 8568POPC   C3B46305  30.434  12.072   7.053
 8568POPC   C4B46306  30.444  12.045   7.353
 8569POPC   NC346307  28.363  12.035   5.553
 8569POPC   PO446308  28.413  12.098   5.853
 8569POPC   GL146309  28.366  12.117   6.153
 8569POPC   GL246310  28.307  12.229   6.153
 8569POPC   C1A46311  28.368  12.065   6.453
 8569POPC   D2A46312  28.404  12.098   6.753
 8569POPC   C3A46313  28.330  12.066   7.053
 8569POPC   C4A46314  28.419  12.086   7.353
 8569POPC   C1B46315  28.288  12.320   6.453
 8569POPC   C2B46316  28.193  12.312   6.753
 8569POPC   C3B46317  28.205  12.286   7.053
 8569POPC   C4B46318  28.193  12.254   7.353
 8570POPC   NC346319   0.411  13.643   5.553
 8570POPC   PO446320   0.455  13.618   5.853
 8570POPC   GL146321   0.451  13.661   6.153
 8570POPC   GL246322   0.403  13.749   6.153
 8570POPC   C1A46323   0.480  13.603   6.453
 8570POPC   D2A46324   0.434  13.612   6.753
 8570POPC   C3A46325   0.443  13.675   7.053
 8570POPC   C4A46326   0.425  13.651   7.353
 8570POPC   C1B46327   0.346  13.851   6.453
 8570POPC   C2B46328   0.329  13.821   6.753
 8570POPC   C3B46329   0.327  13.815   7.053
 8570POPC   C4B46330   0.283  13.823   7.353
 8571POPC   NC346331  34.554   1.972   5.553
 8571POPC   PO446332  34.562   1.969   5.853
 8571POPC   GL146333  34.569   2.036   6.153
 8571POPC   GL246334  34.573   1.834   6.153
 8571POPC   C1A46335  34.609   1.993   6.453
 8571POPC   D2A46336  34.552   2.020   6.753
 8571POPC   C3A46337  34.547   2.033   7.053
 8571POPC   C4A46338  34.552   2.016   7.353
 8571POPC   C1B46339  34.678   1.702   6.453
 8571POPC   C2B46340  34.633   1.752   6.753
 8571POPC   C3B46341  34.641   1.737   7.053
 8571POPC   C4B46342  34.635   1.738   7.353
 8572POPC   NC346343  13.580   1.987   5.553
 8572POPC   PO446344  13.656   1.947   5.853
 8572POPC   GL146345  13.647   1.985   6.153
 8572POPC   GL246346  13.501   1.900   6.153
 8572POPC   C1A46347  13.582   1.950   6.453
 8572POPC   D2A46348  13.650   2.037   6.753
 8572POPC   C3A46349  13.674   2.008   7.053
 8572POPC   C4A46350  13.595   1.961   7.353
 8572POPC   C1B46351  13.442   1.831   6.453
 8572POPC   C2B46352  13.413   1.831   6.753
 8572POPC   C3B46353  13.387   1.842   7.053
 8572POPC   C4B46354  13.402   1.802   7.353
 8573POPC   NC346355   5.832  37.664   5.553
 8573POPC   PO446356   5.888  37.657   5.853
 8573POPC   GL146357   5.837  37.699   6.153
 8573POPC   GL246358   5.918  37.788   6.153
 8573POPC   C1A46359   5.821  37.684   6.453
 8573POPC   D2A46360   5.919  37.676   6.753
 8573POPC   C3A46361   5.821  37.706   7.053
 8573POPC   C4A46362   5.856  37.711   7.353
 8573POPC   C1B46363   5.886  37.912   6.453
 8573POPC   C2B46364   5.875  37.923   6.753
 8573POPC   C3B46365   5.917  37.925   7.053
 8573POPC   C4B46366   5.863  37.970   7.353
 8574POPC   NC346367  43.896  16.758   5.553
 8574POPC   PO446368  43.866  16.682   5.853
 8574POPC   GL146369  43.838  16.704   6.153
 8574POPC   GL246370  43.827  16.611   6.153
 8574POPC   C1A46371  43.838  16.709   6.453
 8574POPC   D2A46372  43.853  16.722   6.753
 8574POPC   C3A46373  43.844  16.689   7.053
 8574POPC   C4A46374  43.837  16.702   7.353
 8574POPC   C1B46375  43.817  16.536   6.453
 8574POPC   C2B46376  43.811  16.457   6.753
 8574POPC   C3B46377  43.841  16.538   7.053
 8574POPC   C4B46378  43.816  16.513   7.353
 8575POPC   NC346379   8.206  24.531   5.553
 8575POPC   PO446380   8.151  24.516   5.853
 8575POPC   GL146381   8.239  24.442   6.153
 8575POPC   GL246382   8.048  24.438   6.153
 8575POPC   C1A46383   8.204  24.486   6.453
 8575POPC   D2A46384   8.162  24.532   6.753
 8575POPC   C3A46385   8.152  24.521   7.053
 8575POPC   C4A46386   8.221  24.497   7.353
 8575POPC   C1B46387   7.960  24.311   6.453
 8575POPC   C2B46388   7.994  24.305   6.753
 8575POPC   C3B46389   7.943  24.336   7.053
 8575POPC   C4B46390   7.966  24.309   7.353
 8576POPC   NC346391  12.052  24.487   5.553
 8576POPC   PO446392  12.049  24.539   5.853
 8576POPC   GL146393  12.040  24.471   6.153
 8576POPC   GL246394  12.127  24.618   6.153
 8576POPC   C1A46395  12.071  24.495   6.453
 8576POPC   D2A46396  12.106  24.492   6.753
 8576POPC   C3A46397  12.027  24.480   7.053
 8576POPC   C4A46398  12.064  24.459   7.353
 8576POPC   C1B46399  12.073  24.758   6.453
 8576POPC   C2B46400  12.161  24.732   6.753
 8576POPC   C3B46401  12.111  24.740   7.053
 8576POPC   C4B46402  12.067  24.702   7.353
 8577POPC   NC346403  20.643  22.976   5.553
 8577POPC   PO446404  20.595  22.889   5.853
 8577POPC   GL146405  20.575  22.945   6.153
 8577POPC   GL246406  20.753  22.895   6.153
 8577POPC   C1A46407  20.600  22.967   6.453
 8577POPC   D2A46408  20.606  22.923   6.753
 8577POPC   C3A46409  20.587  22.943   7.053
 8577POPC   C4A46410  20.571  22.916   7.353
 8577POPC   C1B46411  20.805  22.859   6.453
 8577POPC   C2B46412  20.829  22.886   6.753
 8577POPC   C3B46413  20.904  22.905   7.053
 8577POPC   C4B46414  20.842  22.876   7.353
 8578POPC   NC346415  34.555  17.469   5.553
 8578POPC   PO446416  34.606  17.522   5.853
 8578POPC   GL146417  34.534  17.553   6.153
 8578POPC   GL246418  34.535  17.387   6.153
 8578POPC   C1A46419  34.592  17.522   6.453
 8578POPC   D2A46420  34.607  17.548   6.753
 8578POPC   C3A46421  34.601  17.477   7.053
 8578POPC   C4A46422  34.602  17.504   7.353
 8578POPC   C1B46423  34.446  17.250   6.453
 8578POPC   C2B46424  34.492  17.277   6.753
 8578POPC   C3B46425  34.480  17.308   7.053
 8578POPC   C4B46426  34.491  17.255   7.353
 8579POPC   NC346427  22.209  12.085   5.553
 8579POPC   PO446428  22.163  12.065   5.853
 8579POPC   GL146429  22.198  12.080   6.153
 8579POPC   GL246430  22.260  12.094   6.153
 8579POPC   C1A46431  22.117  12.098   6.453
 8579POPC   D2A46432  22.173  12.110   6.753
 8579POPC   C3A46433  22.129  12.126   7.053
 8579POPC   C4A46434  22.120  12.120   7.353
 8579POPC   C1B46435  22.439  12.015   6.453
 8579POPC   C2B46436  22.412  12.040   6.753
 8579POPC   C3B46437  22.422  12.083   7.053
 8579POPC   C4B46438  22.374  12.009   7.353
 8580POPC   NC346439  12.850   7.448   5.553
 8580POPC   PO446440  12.830   7.451   5.853
 8580POPC   GL146441  12.847   7.382   6.153
 8580POPC   GL246442  12.857   7.259   6.153
 8580POPC   C1A46443  12.827   7.399   6.453
 8580POPC   D2A46444  12.833   7.413   6.753
 8580POPC   C3A46445  12.835   7.460   7.053
 8580POPC   C4A46446  12.875   7.396   7.353
 8580POPC   C1B46447  12.874   7.211   6.453
 8580POPC   C2B46448  12.843   7.178   6.753
 8580POPC   C3B46449  12.922   7.160   7.053
 8580POPC   C4B46450  12.923   7.131   7.353
 8581POPC   NC346451  28.411  19.864   5.553
 8581POPC   PO446452  28.412  19.851   5.853
 8581POPC   GL146453  28.372  19.801   6.153
 8581POPC   GL246454  28.281  19.726   6.153
 8581POPC   C1A46455  28.396  19.806   6.453
 8581POPC   D2A46456  28.399  19.798   6.753
 8581POPC   C3A46457  28.346  19.812   7.053
 8581POPC   C4A46458  28.337  19.814   7.353
 8581POPC   C1B46459  28.247  19.562   6.453
 8581POPC   C2B46460  28.300  19.564   6.753
 8581POPC   C3B46461  28.281  19.573   7.053
 8581POPC   C4B46462  28.239  19.613   7.353
 8582POPC   NC346463  21.393  33.033   5.553
 8582POPC   PO446464  21.354  33.008   5.853
 8582POPC   GL146465  21.401  33.008   6.153
 8582POPC   GL246466  21.425  33.138   6.153
 8582POPC   C1A46467  21.379  33.072   6.453
 8582POPC   D2A46468  21.359  33.052   6.753
 8582POPC   C3A46469  21.426  32.983   7.053
 8582POPC   C4A46470  21.343  33.065   7.353
 8582POPC   C1B46471  21.422  33.270   6.453
 8582POPC   C2B46472  21.397  33.313   6.753
 8582POPC   C3B46473  21.376  33.230   7.053
 8582POPC   C4B46474  21.340  33.231   7.353
 8583POPC   NC346475  39.204  29.135   5.553
 8583POPC   PO446476  39.241  29.192   5.853
 8583POPC   GL146477  39.239  29.129   6.153
 8583POPC   GL246478  39.153  29.062   6.153
 8583POPC   C1A46479  39.226  29.110   6.453
 8583POPC   D2A46480  39.183  29.114   6.753
 8583POPC   C3A46481  39.244  29.183   7.053
 8583POPC   C4A46482  39.261  29.138   7.353
 8583POPC   C1B46483  38.994  28.985   6.453
 8583POPC   C2B46484  39.003  29.018   6.753
 8583POPC   C3B46485  38.983  29.080   7.053
 8583POPC   C4B46486  38.997  29.076   7.353
 8584POPC   NC346487   1.962  14.386   5.553
 8584POPC   PO446488   1.944  14.430   5.853
 8584POPC   GL146489   2.003  14.361   6.153
 8584POPC   GL246490   2.066  14.501   6.153
 8584POPC   C1A46491   2.029  14.412   6.453
 8584POPC   D2A46492   2.032  14.426   6.753
 8584POPC   C3A46493   2.023  14.359   7.053
 8584POPC   C4A46494   1.986  14.381   7.353
 8584POPC   C1B46495   2.223  14.608   6.453
 8584POPC   C2B46496   2.201  14.555   6.753
 8584POPC   C3B46497   2.134  14.527   7.053
 8584POPC   C4B46498   2.161  14.528   7.353
 8585POPC   NC346499  44.651   5.865   5.553
 8585POPC   PO446500  44.637   5.900   5.853
 8585POPC   GL146501  44.623   5.901   6.153
 8585POPC   GL246502  44.581   5.808   6.153
 8585POPC   C1A46503  44.649   5.844   6.453
 8585POPC   D2A46504  44.648   5.893   6.753
 8585POPC   C3A46505  44.686   5.905   7.053
 8585POPC   C4A46506  44.651   5.848   7.353
 8585POPC   C1B46507  44.407   5.798   6.453
 8585POPC   C2B46508  44.376   5.869   6.753
 8585POPC   C3B46509  44.397   5.865   7.053
 8585POPC   C4B46510  44.442   5.879   7.353
 8586POPC   NC346511  36.922  15.910   5.553
 8586POPC   PO446512  36.908  16.004   5.853
 8586POPC   GL146513  36.886  15.943   6.153
 8586POPC   GL246514  36.848  15.846   6.153
 8586POPC   C1A46515  36.880  15.941   6.453
 8586POPC   D2A46516  36.920  15.939   6.753
 8586POPC   C3A46517  36.951  15.975   7.053
 8586POPC   C4A46518  36.907  15.908   7.353
 8586POPC   C1B46519  36.732  15.828   6.453
 8586POPC   C2B46520  36.677  15.783   6.753
 8586POPC   C3B46521  36.743  15.846   7.053
 8586POPC   C4B46522  36.674  15.770   7.353
 8587POPC   NC346523  23.752  16.726   5.553
 8587POPC   PO446524  23.721  16.754   5.853
 8587POPC   GL146525  23.669  16.730   6.153
 8587POPC   GL246526  23.640  16.881   6.153
 8587POPC   C1A46527  23.692  16.687   6.453
 8587POPC   D2A46528  23.749  16.712   6.753
 8587POPC   C3A46529  23.756  16.756   7.053
 8587POPC   C4A46530  23.717  16.757   7.353
 8587POPC   C1B46531  23.668  17.018   6.453
 8587POPC   C2B46532  23.662  16.995   6.753
 8587POPC   C3B46533  23.656  17.011   7.053
 8587POPC   C4B46534  23.692  16.947   7.353
 8588POPC   NC346535  29.155  34.622   5.553
 8588POPC   PO446536  29.096  34.584   5.853
 8588POPC   GL146537  29.173  34.598   6.153
 8588POPC   GL246538  29.221  34.684   6.153
 8588POPC   C1A46539  29.181  34.605   6.453
 8588POPC   D2A46540  29.180  34.557   6.753
 8588POPC   C3A46541  29.177  34.621   7.053
 8588POPC   C4A46542  29.136  34.615   7.353
 8588POPC   C1B46543  29.220  34.789   6.453
 8588POPC   C2B46544  29.298  34.791   6.753
 8588POPC   C3B46545  29.239  34.806   7.053
 8588POPC   C4B46546  29.250  34.753   7.353
 8589POPC   NC346547  27.580  15.159   5.553
 8589POPC   PO446548  27.587  15.178   5.853
 8589POPC   GL146549  27.571  15.152   6.153
 8589POPC   GL246550  27.677  15.253   6.153
 8589POPC   C1A46551  27.589  15.136   6.453
 8589POPC   D2A46552  27.555  15.160   6.753
 8589POPC   C3A46553  27.590  15.178   7.053
 8589POPC   C4A46554  27.640  15.139   7.353
 8589POPC   C1B46555  27.651  15.391   6.453
 8589POPC   C2B46556  27.660  15.406   6.753
 8589POPC   C3B46557  27.653  15.421   7.053
 8589POPC   C4B46558  27.739  15.447   7.353
 8590POPC   NC346559  36.886  10.531   5.553
 8590POPC   PO446560  36.882  10.483   5.853
 8590POPC   GL146561  36.891  10.520   6.153
 8590POPC   GL246562  36.913  10.663   6.153
 8590POPC   C1A46563  36.895  10.497   6.453
 8590POPC   D2A46564  36.866  10.538   6.753
 8590POPC   C3A46565  36.946  10.487   7.053
 8590POPC   C4A46566  36.889  10.540   7.353
 8590POPC   C1B46567  36.967  10.739   6.453
 8590POPC   C2B46568  36.936  10.795   6.753
 8590POPC   C3B46569  36.976  10.749   7.053
 8590POPC   C4B46570  36.986  10.748   7.353
 8591POPC   NC346571  43.890  43.898   5.553
 8591POPC   PO446572  43.902  43.934   5.853
 8591POPC   GL146573  43.931  43.903   6.153
 8591POPC   GL246574  44.046  43.907   6.153
 8591POPC   C1A46575  43.916  43.892   6.453
 8591POPC   D2A46576  43.837  43.909   6.753
 8591POPC   C3A46577  43.863  43.922   7.053
 8591POPC   C4A46578  43.891  43.883   7.353
 8591POPC   C1B46579  44.154  43.854   6.453
 8591POPC   C2B46580  44.177  43.800   6.753
 8591POPC   C3B46581  44.142  43.872   7.053
 8591POPC   C4B46582  44.087  43.831   7.353
 8592POPC   NC346583   3.535  42.352   5.553
 8592POPC   PO446584   3.577  42.341   5.853
 8592POPC   GL146585   3.537  42.338   6.153
 8592POPC   GL246586   3.605  42.230   6.153
 8592POPC   C1A46587   3.568  42.351   6.453
 8592POPC   D2A46588   3.504  42.382   6.753
 8592POPC   C3A46589   3.516  42.383   7.053
 8592POPC   C4A46590   3.574  42.350   7.353
 8592POPC   C1B46591   3.610  42.096   6.453
 8592POPC   C2B46592   3.679  42.075   6.753
 8592POPC   C3B46593   3.694  42.101   7.053
 8592POPC   C4B46594   3.656  42.097   7.353
 8593POPC   NC346595   1.174  15.148   5.553
 8593POPC   PO446596   1.192  15.172   5.853
 8593POPC   GL146597   1.233  15.183   6.153
 8593POPC   GL246598   1.182  15.016   6.153
 8593POPC   C1A46599   1.201  15.218   6.453
 8593POPC   D2A46600   1.233  15.150   6.753
 8593POPC   C3A46601   1.168  15.133   7.053
 8593POPC   C4A46602   1.177  15.201   7.353
 8593POPC   C1B46603   1.199  14.972   6.453
 8593POPC   C2B46604   1.254  14.972   6.753
 8593POPC   C3B46605   1.219  14.930   7.053
 8593POPC   C4B46606   1.246  14.891   7.353
 8594POPC   NC346607  44.613  36.168   5.553
 8594POPC   PO446608  44.621  36.120   5.853
 8594POPC   GL146609  44.671  36.159   6.153
 8594POPC   GL246610  44.607  36.054   6.153
 8594POPC   C1A46611  44.617  36.158   6.453
 8594POPC   D2A46612  44.623  36.112   6.753
 8594POPC   C3A46613  44.704  36.124   7.053
 8594POPC   C4A46614  44.650  36.116   7.353
 8594POPC   C1B46615  44.476  35.947   6.453
 8594POPC   C2B46616  44.519  35.903   6.753
 8594POPC   C3B46617  44.518  35.995   7.053
 8594POPC   C4B46618  44.485  35.992   7.353
 8595POPC   NC346619   4.333   3.494   5.553
 8595POPC   PO446620   4.331   3.530   5.853
 8595POPC   GL146621   4.363   3.560   6.153
 8595POPC   GL246622   4.394   3.484   6.153
 8595POPC   C1A46623   4.348   3.525   6.453
 8595POPC   D2A46624   4.334   3.540   6.753
 8595POPC   C3A46625   4.303   3.503   7.053
 8595POPC   C4A46626   4.324   3.510   7.353
 8595POPC   C1B46627   4.490   3.350   6.453
 8595POPC   C2B46628   4.462   3.308   6.753
 8595POPC   C3B46629   4.457   3.326   7.053
 8595POPC   C4B46630   4.518   3.341   7.353
 8596POPC   NC346631  28.382  24.486   5.553
 8596POPC   PO446632  28.419  24.449   5.853
 8596POPC   GL146633  28.419  24.471   6.153
 8596POPC   GL246634  28.211  24.411   6.153
 8596POPC   C1A46635  28.411  24.489   6.453
 8596POPC   D2A46636  28.395  24.513   6.753
 8596POPC   C3A46637  28.398  24.487   7.053
 8596POPC   C4A46638  28.339  24.506   7.353
 8596POPC   C1B46639  28.173  24.336   6.453
 8596POPC   C2B46640  28.168  24.349   6.753
 8596POPC   C3B46641  28.201  24.353   7.053
 8596POPC   C4B46642  28.116  24.389   7.353
 8597POPC   NC346643   1.992  22.896   5.553
 8597POPC   PO446644   1.981  22.922   5.853
 8597POPC   GL146645   1.950  22.984   6.153
 8597POPC   GL246646   1.910  22.774   6.153
 8597POPC   C1A46647   1.993  22.916   6.453
 8597POPC   D2A46648   1.992  22.976   6.753
 8597POPC   C3A46649   1.976  22.951   7.053
 8597POPC   C4A46650   2.015  22.941   7.353
 8597POPC   C1B46651   1.880  22.689   6.453
 8597POPC   C2B46652   1.926  22.741   6.753
 8597POPC   C3B46653   1.893  22.663   7.053
 8597POPC   C4B46654   1.931  22.716   7.353
 8598POPC   NC346655  22.942  39.190   5.553
 8598POPC   PO446656  22.935  39.263   5.853
 8598POPC   GL146657  22.939  39.238   6.153
 8598POPC   GL246658  23.010  39.337   6.153
 8598POPC   C1A46659  22.889  39.268   6.453
 8598POPC   D2A46660  22.933  39.277   6.753
 8598POPC   C3A46661  22.948  39.194   7.053
 8598POPC   C4A46662  22.986  39.273   7.353
 8598POPC   C1B46663  23.092  39.447   6.453
 8598POPC   C2B46664  23.088  39.456   6.753
 8598POPC   C3B46665  23.042  39.472   7.053
 8598POPC   C4B46666  23.052  39.464   7.353
 8599POPC   NC346667  27.580  22.907   5.553
 8599POPC   PO446668  27.633  22.988   5.853
 8599POPC   GL146669  27.564  22.982   6.153
 8599POPC   GL246670  27.667  23.029   6.153
 8599POPC   C1A46671  27.639  22.914   6.453
 8599POPC   D2A46672  27.625  22.902   6.753
 8599POPC   C3A46673  27.562  22.955   7.053
 8599POPC   C4A46674  27.581  22.965   7.353
 8599POPC   C1B46675  27.735  23.144   6.453
 8599POPC   C2B46676  27.668  23.178   6.753
 8599POPC   C3B46677  27.723  23.156   7.053
 8599POPC   C4B46678  27.658  23.169   7.353
 8600POPC   NC346679  24.490  12.856   5.553
 8600POPC   PO446680  24.469  12.810   5.853
 8600POPC   GL146681  24.467  12.901   6.153
 8600POPC   GL246682  24.654  12.853   6.153
 8600POPC   C1A46683  24.532  12.834   6.453
 8600POPC   D2A46684  24.516  12.839   6.753
 8600POPC   C3A46685  24.497  12.851   7.053
 8600POPC   C4A46686  24.489  12.814   7.353
 8600POPC   C1B46687  24.732  12.814   6.453
 8600POPC   C2B46688  24.702  12.732   6.753
 8600POPC   C3B46689  24.712  12.794   7.053
 8600POPC   C4B46690  24.765  12.790   7.353
 8601POPC   NC346691  24.532  29.893   5.553
 8601POPC   PO446692  24.512  29.969   5.853
 8601POPC   GL146693  24.470  29.891   6.153
 8601POPC   GL246694  24.328  29.836   6.153
 8601POPC   C1A46695  24.486  29.906   6.453
 8601POPC   D2A46696  24.513  29.938   6.753
 8601POPC   C3A46697  24.510  29.916   7.053
 8601POPC   C4A46698  24.516  29.913   7.353
 8601POPC   C1B46699  24.261  29.847   6.453
 8601POPC   C2B46700  24.231  29.814   6.753
 8601POPC   C3B46701  24.262  29.808   7.053
 8601POPC   C4B46702  24.285  29.840   7.353
 8602POPC   NC346703  36.898  13.578   5.553
 8602POPC   PO446704  36.951  13.645   5.853
 8602POPC   GL146705  36.942  13.648   6.153
 8602POPC   GL246706  37.039  13.684   6.153
 8602POPC   C1A46707  36.859  13.673   6.453
 8602POPC   D2A46708  36.953  13.582   6.753
 8602POPC   C3A46709  36.877  13.647   7.053
 8602POPC   C4A46710  36.886  13.671   7.353
 8602POPC   C1B46711  37.089  13.739   6.453
 8602POPC   C2B46712  37.176  13.744   6.753
 8602POPC   C3B46713  37.175  13.757   7.053
 8602POPC   C4B46714  37.086  13.772   7.353
 8603POPC   NC346715  26.011  25.265   5.553
 8603POPC   PO446716  26.063  25.218   5.853
 8603POPC   GL146717  26.085  25.225   6.153
 8603POPC   GL246718  26.012  25.399   6.153
 8603POPC   C1A46719  26.055  25.268   6.453
 8603POPC   D2A46720  26.030  25.241   6.753
 8603POPC   C3A46721  25.997  25.269   7.053
 8603POPC   C4A46722  26.007  25.308   7.353
 8603POPC   C1B46723  25.954  25.545   6.453
 8603POPC   C2B46724  25.958  25.536   6.753
 8603POPC   C3B46725  25.988  25.469   7.053
 8603POPC   C4B46726  25.911  25.545   7.353
 8604POPC   NC346727  44.638  26.858   5.553
 8604POPC   PO446728  44.668  26.831   5.853
 8604POPC   GL146729  44.663  26.801   6.153
 8604POPC   GL246730  44.739  26.822   6.153
 8604POPC   C1A46731  44.624  26.770   6.453
 8604POPC   D2A46732  44.614  26.780   6.753
 8604POPC   C3A46733  44.689  26.845   7.053
 8604POPC   C4A46734  44.680  26.822   7.353
 8604POPC   C1B46735  44.886  26.938   6.453
 8604POPC   C2B46736  44.858  26.879   6.753
 8604POPC   C3B46737  44.932  26.926   7.053
 8604POPC   C4B46738  44.848  26.936   7.353
 8605POPC   NC346739  35.392   2.753   5.553
 8605POPC   PO446740  35.400   2.815   5.853
 8605POPC   GL146741  35.319   2.805   6.153
 8605POPC   GL246742  35.251   2.783   6.153
 8605POPC   C1A46743  35.397   2.772   6.453
 8605POPC   D2A46744  35.329   2.778   6.753
 8605POPC   C3A46745  35.328   2.796   7.053
 8605POPC   C4A46746  35.332   2.789   7.353
 8605POPC   C1B46747  35.123   2.936   6.453
 8605POPC   C2B46748  35.156   2.945   6.753
 8605POPC   C3B46749  35.119   2.931   7.053
 8605POPC   C4B46750  35.091   2.865   7.353
 8606POPC   NC346751  13.674   5.866   5.553
 8606POPC   PO446752  13.589   5.833   5.853
 8606POPC   GL146753  13.592   5.857   6.153
 8606POPC   GL246754  13.519   5.832   6.153
 8606POPC   C1A46755  13.652   5.898   6.453
 8606POPC   D2A46756  13.647   5.911   6.753
 8606POPC   C3A46757  13.635   5.885   7.053
 8606POPC   C4A46758  13.636   5.844   7.353
 8606POPC   C1B46759  13.354   5.788   6.453
 8606POPC   C2B46760  13.403   5.814   6.753
 8606POPC   C3B46761  13.430   5.850   7.053
 8606POPC   C4B46762  13.399   5.829   7.353
 8607POPC   NC346763  24.460   4.306   5.553
 8607POPC   PO446764  24.447   4.300   5.853
 8607POPC   GL146765  24.492   4.274   6.153
 8607POPC   GL246766  24.373   4.358   6.153
 8607POPC   C1A46767  24.465   4.319   6.453
 8607POPC   D2A46768  24.473   4.344   6.753
 8607POPC   C3A46769  24.479   4.354   7.053
 8607POPC   C4A46770  24.529   4.301   7.353
 8607POPC   C1B46771  24.282   4.484   6.453
 8607POPC   C2B46772  24.292   4.498   6.753
 8607POPC   C3B46773  24.311   4.513   7.053
 8607POPC   C4B46774  24.320   4.510   7.353
 8608POPC   NC346775   2.745  24.459   5.553
 8608POPC   PO446776   2.731  24.453   5.853
 8608POPC   GL146777   2.806  24.498   6.153
 8608POPC   GL246778   2.699  24.596   6.153
 8608POPC   C1A46779   2.746  24.538   6.453
 8608POPC   D2A46780   2.761  24.513   6.753
 8608POPC   C3A46781   2.809  24.493   7.053
 8608POPC   C4A46782   2.814  24.539   7.353
 8608POPC   C1B46783   2.579  24.607   6.453
 8608POPC   C2B46784   2.584  24.624   6.753
 8608POPC   C3B46785   2.532  24.633   7.053
 8608POPC   C4B46786   2.588  24.613   7.353
 8609POPC   NC346787  44.695  12.810   5.553
 8609POPC   PO446788  44.709  12.888   5.853
 8609POPC   GL146789  44.644  12.867   6.153
 8609POPC   GL246790  44.729  12.726   6.153
 8609POPC   C1A46791  44.677  12.852   6.453
 8609POPC   D2A46792  44.639  12.847   6.753
 8609POPC   C3A46793  44.647  12.826   7.053
 8609POPC   C4A46794  44.612  12.829   7.353
 8609POPC   C1B46795  44.771  12.610   6.453
 8609POPC   C2B46796  44.731  12.593   6.753
 8609POPC   C3B46797  44.758  12.676   7.053
 8609POPC   C4B46798  44.801  12.591   7.353
 8610POPC   NC346799  33.769  14.442   5.553
 8610POPC   PO446800  33.774  14.366   5.853
 8610POPC   GL146801  33.763  14.445   6.153
 8610POPC   GL246802  33.939  14.440   6.153
 8610POPC   C1A46803  33.821  14.431   6.453
 8610POPC   D2A46804  33.782  14.415   6.753
 8610POPC   C3A46805  33.832  14.372   7.053
 8610POPC   C4A46806  33.795  14.452   7.353
 8610POPC   C1B46807  34.060  14.433   6.453
 8610POPC   C2B46808  34.023  14.444   6.753
 8610POPC   C3B46809  34.028  14.435   7.053
 8610POPC   C4B46810  34.001  14.398   7.353
 8611POPC   NC346811  42.352   9.778   5.553
 8611POPC   PO446812  42.293   9.704   5.853
 8611POPC   GL146813  42.308   9.788   6.153
 8611POPC   GL246814  42.404   9.814   6.153
 8611POPC   C1A46815  42.285   9.797   6.453
 8611POPC   D2A46816  42.371   9.748   6.753
 8611POPC   C3A46817  42.313   9.741   7.053
 8611POPC   C4A46818  42.329   9.791   7.353
 8611POPC   C1B46819  42.519   9.943   6.453
 8611POPC   C2B46820  42.488   9.944   6.753
 8611POPC   C3B46821  42.468   9.903   7.053
 8611POPC   C4B46822  42.504   9.936   7.353
 8612POPC   NC346823  38.482  38.407   5.553
 8612POPC   PO446824  38.455  38.455   5.853
 8612POPC   GL146825  38.493  38.464   6.153
 8612POPC   GL246826  38.397  38.295   6.153
 8612POPC   C1A46827  38.457  38.446   6.453
 8612POPC   D2A46828  38.467  38.454   6.753
 8612POPC   C3A46829  38.474  38.467   7.053
 8612POPC   C4A46830  38.470  38.405   7.353
 8612POPC   C1B46831  38.382  38.177   6.453
 8612POPC   C2B46832  38.394  38.213   6.753
 8612POPC   C3B46833  38.373  38.253   7.053
 8612POPC   C4B46834  38.391  38.177   7.353
 8613POPC   NC346835  12.027  40.006   5.553
 8613POPC   PO446836  12.040  40.038   5.853
 8613POPC   GL146837  12.031  40.034   6.153
 8613POPC   GL246838  12.047  40.169   6.153
 8613POPC   C1A46839  12.114  40.044   6.453
 8613POPC   D2A46840  12.114  39.973   6.753
 8613POPC   C3A46841  12.125  39.997   7.053
 8613POPC   C4A46842  12.055  39.983   7.353
 8613POPC   C1B46843  11.961  40.272   6.453
 8613POPC   C2B46844  12.033  40.239   6.753
 8613POPC   C3B46845  12.041  40.279   7.053
 8613POPC   C4B46846  12.038  40.296   7.353
 8614POPC   NC346847  42.291  11.329   5.553
 8614POPC   PO446848  42.295  11.334   5.853
 8614POPC   GL146849  42.349  11.281   6.153
 8614POPC   GL246850  42.302  11.176   6.153
 8614POPC   C1A46851  42.338  11.294   6.453
 8614POPC   D2A46852  42.287  11.334   6.753
 8614POPC   C3A46853  42.317  11.322   7.053
 8614POPC   C4A46854  42.296  11.255   7.353
 8614POPC   C1B46855  42.247  11.055   6.453
 8614POPC   C2B46856  42.239  11.041   6.753
 8614POPC   C3B46857  42.242  11.097   7.053
 8614POPC   C4B46858  42.299  11.041   7.353
 8615POPC   NC346859  33.836  25.243   5.553
 8615POPC   PO446860  33.767  25.229   5.853
 8615POPC   GL146861  33.797  25.299   6.153
 8615POPC   GL246862  33.887  25.323   6.153
 8615POPC   C1A46863  33.764  25.250   6.453
 8615POPC   D2A46864  33.830  25.289   6.753
 8615POPC   C3A46865  33.772  25.290   7.053
 8615POPC   C4A46866  33.767  25.236   7.353
 8615POPC   C1B46867  34.039  25.337   6.453
 8615POPC   C2B46868  34.048  25.370   6.753
 8615POPC   C3B46869  34.047  25.344   7.053
 8615POPC   C4B46870  34.054  25.328   7.353
 8616POPC   NC346871  25.315   6.640   5.553
 8616POPC   PO446872  25.246   6.694   5.853
 8616POPC   GL146873  25.306   6.661   6.153
 8616POPC   GL246874  25.329   6.792   6.153
 8616POPC   C1A46875  25.245   6.676   6.453
 8616POPC   D2A46876  25.258   6.678   6.753
 8616POPC   C3A46877  25.312   6.625   7.053
 8616POPC   C4A46878  25.226   6.652   7.353
 8616POPC   C1B46879  25.337   6.921   6.453
 8616POPC   C2B46880  25.285   6.856   6.753
 8616POPC   C3B46881  25.317   6.928   7.053
 8616POPC   C4B46882  25.338   6.918   7.353
 8617POPC   NC346883  36.938  36.129   5.553
 8617POPC   PO446884  36.876  36.119   5.853
 8617POPC   GL146885  36.926  36.112   6.153
 8617POPC   GL246886  37.070  36.164   6.153
 8617POPC   C1A46887  36.858  36.134   6.453
 8617POPC   D2A46888  36.872  36.153   6.753
 8617POPC   C3A46889  36.885  36.088   7.053
 8617POPC   C4A46890  36.890  36.099   7.353
 8617POPC   C1B46891  37.107  36.177   6.453
 8617POPC   C2B46892  37.143  36.209   6.753
 8617POPC   C3B46893  37.156  36.181   7.053
 8617POPC   C4B46894  37.186  36.226   7.353
 8618POPC   NC346895  43.866  28.415   5.553
 8618POPC   PO446896  43.925  28.351   5.853
 8618POPC   GL146897  43.924  28.367   6.153
 8618POPC   GL246898  43.793  28.502   6.153
 8618POPC   C1A46899  43.907  28.326   6.453
 8618POPC   D2A46900  43.848  28.372   6.753
 8618POPC   C3A46901  43.923  28.405   7.053
 8618POPC   C4A46902  43.846  28.383   7.353
 8618POPC   C1B46903  43.821  28.648   6.453
 8618POPC   C2B46904  43.782  28.625   6.753
 8618POPC   C3B46905  43.788  28.557   7.053
 8618POPC   C4B46906  43.750  28.585   7.353
 8619POPC   NC346907   8.167  39.234   5.553
 8619POPC   PO446908   8.201  39.257   5.853
 8619POPC   GL146909   8.187  39.228   6.153
 8619POPC   GL246910   8.081  39.344   6.153
 8619POPC   C1A46911   8.152  39.229   6.453
 8619POPC   D2A46912   8.244  39.227   6.753
 8619POPC   C3A46913   8.164  39.281   7.053
 8619POPC   C4A46914   8.195  39.183   7.353
 8619POPC   C1B46915   8.059  39.419   6.453
 8619POPC   C2B46916   8.002  39.391   6.753
 8619POPC   C3B46917   8.012  39.473   7.053
 8619POPC   C4B46918   8.079  39.408   7.353
 8620POPC   NC346919  36.117  17.489   5.553
 8620POPC   PO446920  36.148  17.513   5.853
 8620POPC   GL146921  36.087  17.532   6.153
 8620POPC   GL246922  36.057  17.435   6.153
 8620POPC   C1A46923  36.094  17.510   6.453
 8620POPC   D2A46924  36.093  17.551   6.753
 8620POPC   C3A46925  36.082  17.537   7.053
 8620POPC   C4A46926  36.105  17.465   7.353
 8620POPC   C1B46927  35.994  17.278   6.453
 8620POPC   C2B46928  36.044  17.269   6.753
 8620POPC   C3B46929  36.028  17.259   7.053
 8620POPC   C4B46930  36.060  17.236   7.353
 8621POPC   NC346931  10.568  17.495   5.553
 8621POPC   PO446932  10.527  17.473   5.853
 8621POPC   GL146933  10.482  17.512   6.153
 8621POPC   GL246934  10.592  17.396   6.153
 8621POPC   C1A46935  10.534  17.509   6.453
 8621POPC   D2A46936  10.510  17.503   6.753
 8621POPC   C3A46937  10.559  17.555   7.053
 8621POPC   C4A46938  10.560  17.525   7.353
 8621POPC   C1B46939  10.658  17.329   6.453
 8621POPC   C2B46940  10.640  17.323   6.753
 8621POPC   C3B46941  10.611  17.316   7.053
 8621POPC   C4B46942  10.618  17.333   7.353
 8622POPC   NC346943  26.814  29.873   5.553
 8622POPC   PO446944  26.848  29.914   5.853
 8622POPC   GL146945  26.811  29.944   6.153
 8622POPC   GL246946  26.897  29.783   6.153
 8622POPC   C1A46947  26.843  29.931   6.453
 8622POPC   D2A46948  26.782  29.942   6.753
 8622POPC   C3A46949  26.863  29.956   7.053
 8622POPC   C4A46950  26.854  29.905   7.353
 8622POPC   C1B46951  26.913  29.698   6.453
 8622POPC   C2B46952  26.859  29.688   6.753
 8622POPC   C3B46953  26.895  29.686   7.053
 8622POPC   C4B46954  26.881  29.700   7.353
 8623POPC   NC346955   8.207  34.552   5.553
 8623POPC   PO446956   8.175  34.626   5.853
 8623POPC   GL146957   8.148  34.548   6.153
 8623POPC   GL246958   8.038  34.556   6.153
 8623POPC   C1A46959   8.176  34.533   6.453
 8623POPC   D2A46960   8.168  34.548   6.753
 8623POPC   C3A46961   8.196  34.534   7.053
 8623POPC   C4A46962   8.159  34.538   7.353
 8623POPC   C1B46963   7.923  34.526   6.453
 8623POPC   C2B46964   7.919  34.582   6.753
 8623POPC   C3B46965   7.925  34.587   7.053
 8623POPC   C4B46966   7.988  34.601   7.353
 8624POPC   NC346967  26.858  36.871   5.553
 8624POPC   PO446968  26.822  36.912   5.853
 8624POPC   GL146969  26.827  36.916   6.153
 8624POPC   GL246970  26.890  36.927   6.153
 8624POPC   C1A46971  26.827  36.889   6.453
 8624POPC   D2A46972  26.794  36.928   6.753
 8624POPC   C3A46973  26.837  36.906   7.053
 8624POPC   C4A46974  26.775  36.887   7.353
 8624POPC   C1B46975  27.082  37.037   6.453
 8624POPC   C2B46976  27.047  37.026   6.753
 8624POPC   C3B46977  27.043  37.023   7.053
 8624POPC   C4B46978  27.045  36.959   7.353
 8625POPC   NC346979  12.803  19.824   5.553
 8625POPC   PO446980  12.880  19.829   5.853
 8625POPC   GL146981  12.823  19.856   6.153
 8625POPC   GL246982  12.778  19.767   6.153
 8625POPC   C1A46983  12.838  19.817   6.453
 8625POPC   D2A46984  12.862  19.884   6.753
 8625POPC   C3A46985  12.803  19.858   7.053
 8625POPC   C4A46986  12.854  19.790   7.353
 8625POPC   C1B46987  12.659  19.620   6.453
 8625POPC   C2B46988  12.694  19.664   6.753
 8625POPC   C3B46989  12.687  19.622   7.053
 8625POPC   C4B46990  12.726  19.637   7.353
 8626POPC   NC346991  27.642   0.400   5.553
 8626POPC   PO446992  27.612   0.439   5.853
 8626POPC   GL146993  27.566   0.388   6.153
 8626POPC   GL246994  27.617   0.290   6.153
 8626POPC   C1A46995  27.642   0.440   6.453
 8626POPC   D2A46996  27.563   0.466   6.753
 8626POPC   C3A46997  27.642   0.463   7.053
 8626POPC   C4A46998  27.620   0.435   7.353
 8626POPC   C1B46999  27.626   0.183   6.453
 8626POPC   C2B47000  27.621   0.198   6.753
 8626POPC   C3B47001  27.708   0.204   7.053
 8626POPC   C4B47002  27.682   0.226   7.353
 8627POPC   NC347003  21.382  26.815   5.553
 8627POPC   PO447004  21.392  26.777   5.853
 8627POPC   GL147005  21.365  26.822   6.153
 8627POPC   GL247006  21.380  26.979   6.153
 8627POPC   C1A47007  21.421  26.776   6.453
 8627POPC   D2A47008  21.374  26.825   6.753
 8627POPC   C3A47009  21.376  26.814   7.053
 8627POPC   C4A47010  21.388  26.858   7.353
 8627POPC   C1B47011  21.270  27.016   6.453
 8627POPC   C2B47012  21.301  27.068   6.753
 8627POPC   C3B47013  21.282  27.036   7.053
 8627POPC   C4B47014  21.295  27.044   7.353
 8628POPC   NC347015  15.918  20.616   5.553
 8628POPC   PO447016  15.965  20.591   5.853
 8628POPC   GL147017  15.936  20.649   6.153
 8628POPC   GL247018  15.879  20.534   6.153
 8628POPC   C1A47019  15.933  20.632   6.453
 8628POPC   D2A47020  15.949  20.567   6.753
 8628POPC   C3A47021  15.953  20.632   7.053
 8628POPC   C4A47022  15.928  20.631   7.353
 8628POPC   C1B47023  15.752  20.482   6.453
 8628POPC   C2B47024  15.754  20.456   6.753
 8628POPC   C3B47025  15.784  20.444   7.053
 8628POPC   C4B47026  15.716  20.493   7.353
 8629POPC   NC347027  37.689   7.465   5.553
 8629POPC   PO447028  37.672   7.387   5.853
 8629POPC   GL147029  37.640   7.430   6.153
 8629POPC   GL247030  37.514   7.414   6.153
 8629POPC   C1A47031  37.637   7.371   6.453
 8629POPC   D2A47032  37.707   7.463   6.753
 8629POPC   C3A47033  37.643   7.426   7.053
 8629POPC   C4A47034  37.632   7.464   7.353
 8629POPC   C1B47035  37.490   7.369   6.453
 8629POPC   C2B47036  37.417   7.354   6.753
 8629POPC   C3B47037  37.420   7.362   7.053
 8629POPC   C4B47038  37.405   7.318   7.353
 8630POPC   NC347039  33.801  12.893   5.553
 8630POPC   PO447040  33.772  12.886   5.853
 8630POPC   GL147041  33.765  12.883   6.153
 8630POPC   GL247042  33.932  12.920   6.153
 8630POPC   C1A47043  33.842  12.845   6.453
 8630POPC   D2A47044  33.758  12.878   6.753
 8630POPC   C3A47045  33.781  12.838   7.053
 8630POPC   C4A47046  33.781  12.876   7.353
 8630POPC   C1B47047  34.069  12.865   6.453
 8630POPC   C2B47048  34.053  12.886   6.753
 8630POPC   C3B47049  34.067  12.885   7.053
 8630POPC   C4B47050  34.020  12.928   7.353
 8631POPC   NC347051  25.279  43.869   5.553
 8631POPC   PO447052  25.255  43.848   5.853
 8631POPC   GL147053  25.307  43.916   6.153
 8631POPC   GL247054  25.185  43.943   6.153
 8631POPC   C1A47055  25.237  43.921   6.453
 8631POPC   D2A47056  25.295  43.920   6.753
 8631POPC   C3A47057  25.229  43.905   7.053
 8631POPC   C4A47058  25.246  43.903   7.353
 8631POPC   C1B47059  25.096  44.066   6.453
 8631POPC   C2B47060  25.144  44.102   6.753
 8631POPC   C3B47061  25.061  44.111   7.053
 8631POPC   C4B47062  25.146  44.069   7.353
 8632POPC   NC347063  22.189  37.667   5.553
 8632POPC   PO447064  22.164  37.638   5.853
 8632POPC   GL147065  22.197  37.702   6.153
 8632POPC   GL247066  22.021  37.664   6.153
 8632POPC   C1A47067  22.124  37.723   6.453
 8632POPC   D2A47068  22.203  37.708   6.753
 8632POPC   C3A47069  22.199  37.645   7.053
 8632POPC   C4A47070  22.131  37.689   7.353
 8632POPC   C1B47071  21.942  37.667   6.453
 8632POPC   C2B47072  21.887  37.740   6.753
 8632POPC   C3B47073  21.863  37.656   7.053
 8632POPC   C4B47074  21.881  37.655   7.353
 8633POPC   NC347075   1.250  23.747   5.553
 8633POPC   PO447076   1.210  23.745   5.853
 8633POPC   GL147077   1.194  23.760   6.153
 8633POPC   GL247078   1.151  23.670   6.153
 8633POPC   C1A47079   1.169  23.715   6.453
 8633POPC   D2A47080   1.215  23.752   6.753
 8633POPC   C3A47081   1.234  23.674   7.053
 8633POPC   C4A47082   1.203  23.686   7.353
 8633POPC   C1B47083   0.980  23.544   6.453
 8633POPC   C2B47084   1.057  23.499   6.753
 8633POPC   C3B47085   1.032  23.577   7.053
 8633POPC   C4B47086   1.016  23.582   7.353
 8634POPC   NC347087  39.273  22.158   5.553
 8634POPC   PO447088  39.277  22.212   5.853
 8634POPC   GL147089  39.225  22.157   6.153
 8634POPC   GL247090  39.070  22.125   6.153
 8634POPC   C1A47091  39.230  22.174   6.453
 8634POPC   D2A47092  39.271  22.152   6.753
 8634POPC   C3A47093  39.261  22.174   7.053
 8634POPC   C4A47094  39.257  22.189   7.353
 8634POPC   C1B47095  38.940  22.084   6.453
 8634POPC   C2B47096  39.006  22.105   6.753
 8634POPC   C3B47097  38.953  22.143   7.053
 8634POPC   C4B47098  39.007  22.161   7.353
 8635POPC   NC347099  43.070  33.041   5.553
 8635POPC   PO447100  43.132  33.012   5.853
 8635POPC   GL147101  43.122  33.059   6.153
 8635POPC   GL247102  42.990  33.000   6.153
 8635POPC   C1A47103  43.077  33.033   6.453
 8635POPC   D2A47104  43.156  32.980   6.753
 8635POPC   C3A47105  43.090  33.051   7.053
 8635POPC   C4A47106  43.148  33.029   7.353
 8635POPC   C1B47107  42.853  33.071   6.453
 8635POPC   C2B47108  42.876  33.053   6.753
 8635POPC   C3B47109  42.817  33.011   7.053
 8635POPC   C4B47110  42.847  33.097   7.353
 8636POPC   NC347111   7.469  30.661   5.553
 8636POPC   PO447112   7.471  30.652   5.853
 8636POPC   GL147113   7.393  30.715   6.153
 8636POPC   GL247114   7.302  30.620   6.153
 8636POPC   C1A47115   7.381  30.655   6.453
 8636POPC   D2A47116   7.401  30.716   6.753
 8636POPC   C3A47117   7.434  30.688   7.053
 8636POPC   C4A47118   7.385  30.695   7.353
 8636POPC   C1B47119   7.280  30.507   6.453
 8636POPC   C2B47120   7.292  30.499   6.753
 8636POPC   C3B47121   7.269  30.490   7.053
 8636POPC   C4B47122   7.305  30.503   7.353
 8637POPC   NC347123  32.234  16.702   5.553
 8637POPC   PO447124  32.284  16.696   5.853
 8637POPC   GL147125  32.246  16.763   6.153
 8637POPC   GL247126  32.138  16.599   6.153
 8637POPC   C1A47127  32.298  16.683   6.453
 8637POPC   D2A47128  32.270  16.689   6.753
 8637POPC   C3A47129  32.206  16.723   7.053
 8637POPC   C4A47130  32.207  16.685   7.353
 8637POPC   C1B47131  32.072  16.540   6.453
 8637POPC   C2B47132  32.139  16.567   6.753
 8637POPC   C3B47133  32.143  16.475   7.053
 8637POPC   C4B47134  32.121  16.492   7.353
 8638POPC   NC347135   1.254  21.342   5.553
 8638POPC   PO447136   1.260  21.341   5.853
 8638POPC   GL147137   1.180  21.397   6.153
 8638POPC   GL247138   1.178  21.469   6.153
 8638POPC   C1A47139   1.242  21.417   6.453
 8638POPC   D2A47140   1.197  21.425   6.753
 8638POPC   C3A47141   1.181  21.343   7.053
 8638POPC   C4A47142   1.208  21.418   7.353
 8638POPC   C1B47143   1.174  21.654   6.453
 8638POPC   C2B47144   1.199  21.607   6.753
 8638POPC   C3B47145   1.137  21.672   7.053
 8638POPC   C4B47146   1.193  21.660   7.353
 8639POPC   NC347147   4.282  27.586   5.553
 8639POPC   PO447148   4.343  27.565   5.853
 8639POPC   GL147149   4.327  27.618   6.153
 8639POPC   GL247150   4.221  27.653   6.153
 8639POPC   C1A47151   4.365  27.634   6.453
 8639POPC   D2A47152   4.332  27.544   6.753
 8639POPC   C3A47153   4.298  27.547   7.053
 8639POPC   C4A47154   4.315  27.625   7.353
 8639POPC   C1B47155   4.178  27.826   6.453
 8639POPC   C2B47156   4.229  27.825   6.753
 8639POPC   C3B47157   4.149  27.773   7.053
 8639POPC   C4B47158   4.191  27.798   7.353
 8640POPC   NC347159  29.135  28.383   5.553
 8640POPC   PO447160  29.117  28.410   5.853
 8640POPC   GL147161  29.176  28.349   6.153
 8640POPC   GL247162  29.260  28.437   6.153
 8640POPC   C1A47163  29.147  28.388   6.453
 8640POPC   D2A47164  29.128  28.359   6.753
 8640POPC   C3A47165  29.179  28.381   7.053
 8640POPC   C4A47166  29.184  28.354   7.353
 8640POPC   C1B47167  29.328  28.540   6.453
 8640POPC   C2B47168  29.267  28.562   6.753
 8640POPC   C3B47169  29.279  28.596   7.053
 8640POPC   C4B47170  29.275  28.586   7.353
 8641POPC   NC347171  44.709  14.396   5.553
 8641POPC   PO447172  44.655  14.370   5.853
 8641POPC   GL147173  44.636  14.443   6.153
 8641POPC   GL247174  44.687  14.237   6.153
 8641POPC   C1A47175  44.711  14.445   6.453
 8641POPC   D2A47176  44.662  14.425   6.753
 8641POPC   C3A47177  44.671  14.437   7.053
 8641POPC   C4A47178  44.628  14.402   7.353
 8641POPC   C1B47179  44.729  14.123   6.453
 8641POPC   C2B47180  44.758  14.157   6.753
 8641POPC   C3B47181  44.715  14.179   7.053
 8641POPC   C4B47182  44.753  14.167   7.353
 8642POPC   NC347183   2.802   6.625   5.553
 8642POPC   PO447184   2.788   6.654   5.853
 8642POPC   GL147185   2.718   6.600   6.153
 8642POPC   GL247186   2.914   6.597   6.153
 8642POPC   C1A47187   2.771   6.644   6.453
 8642POPC   D2A47188   2.774   6.646   6.753
 8642POPC   C3A47189   2.753   6.694   7.053
 8642POPC   C4A47190   2.752   6.684   7.353
 8642POPC   C1B47191   2.958   6.509   6.453
 8642POPC   C2B47192   3.003   6.557   6.753
 8642POPC   C3B47193   2.968   6.501   7.053
 8642POPC   C4B47194   3.035   6.530   7.353
 8643POPC   NC347195  22.203  21.388   5.553
 8643POPC   PO447196  22.186  21.407   5.853
 8643POPC   GL147197  22.149  21.391   6.153
 8643POPC   GL247198  22.039  21.405   6.153
 8643POPC   C1A47199  22.121  21.381   6.453
 8643POPC   D2A47200  22.181  21.409   6.753
 8643POPC   C3A47201  22.173  21.353   7.053
 8643POPC   C4A47202  22.168  21.389   7.353
 8643POPC   C1B47203  21.883  21.358   6.453
 8643POPC   C2B47204  21.937  21.415   6.753
 8643POPC   C3B47205  21.961  21.351   7.053
 8643POPC   C4B47206  21.912  21.358   7.353
 8644POPC   NC347207  28.406  44.644   5.553
 8644POPC   PO447208  28.336  44.711   5.853
 8644POPC   GL147209  28.354  44.624   6.153
 8644POPC   GL247210  28.484  44.679   6.153
 8644POPC   C1A47211  28.334  44.666   6.453
 8644POPC   D2A47212  28.364  44.640   6.753
 8644POPC   C3A47213  28.344  44.670   7.053
 8644POPC   C4A47214  28.338  44.691   7.353
 8644POPC   C1B47215  28.652  44.669   6.453
 8644POPC   C2B47216  28.577  44.662   6.753
 8644POPC   C3B47217  28.619  44.652   7.053
 8644POPC   C4B47218  28.625  44.621   7.353
 8645POPC   NC347219  12.095  22.204   5.553
 8645POPC   PO447220  12.095  22.175   5.853
 8645POPC   GL147221  12.061  22.206   6.153
 8645POPC   GL247222  11.955  22.161   6.153
 8645POPC   C1A47223  12.072  22.145   6.453
 8645POPC   D2A47224  12.048  22.205   6.753
 8645POPC   C3A47225  12.079  22.127   7.053
 8645POPC   C4A47226  12.080  22.125   7.353
 8645POPC   C1B47227  11.867  22.241   6.453
 8645POPC   C2B47228  11.833  22.220   6.753
 8645POPC   C3B47229  11.845  22.211   7.053
 8645POPC   C4B47230  11.797  22.234   7.353
 8646POPC   NC347231  26.856  43.149   5.553
 8646POPC   PO447232  26.822  43.092   5.853
 8646POPC   GL147233  26.842  43.142   6.153
 8646POPC   GL247234  26.658  43.175   6.153
 8646POPC   C1A47235  26.855  43.117   6.453
 8646POPC   D2A47236  26.851  43.100   6.753
 8646POPC   C3A47237  26.803  43.099   7.053
 8646POPC   C4A47238  26.794  43.092   7.353
 8646POPC   C1B47239  26.592  43.208   6.453
 8646POPC   C2B47240  26.577  43.205   6.753
 8646POPC   C3B47241  26.549  43.221   7.053
 8646POPC   C4B47242  26.608  43.203   7.353
 8647POPC   NC347243  28.341  20.618   5.553
 8647POPC   PO447244  28.352  20.577   5.853
 8647POPC   GL147245  28.402  20.627   6.153
 8647POPC   GL247246  28.297  20.533   6.153
 8647POPC   C1A47247  28.363  20.612   6.453
 8647POPC   D2A47248  28.374  20.583   6.753
 8647POPC   C3A47249  28.344  20.630   7.053
 8647POPC   C4A47250  28.330  20.634   7.353
 8647POPC   C1B47251  28.283  20.341   6.453
 8647POPC   C2B47252  28.339  20.339   6.753
 8647POPC   C3B47253  28.285  20.357   7.053
 8647POPC   C4B47254  28.338  20.350   7.353
 8648POPC   NC347255  36.090  38.433   5.553
 8648POPC   PO447256  36.139  38.494   5.853
 8648POPC   GL147257  36.174  38.476   6.153
 8648POPC   GL247258  36.135  38.577   6.153
 8648POPC   C1A47259  36.105  38.424   6.453
 8648POPC   D2A47260  36.099  38.428   6.753
 8648POPC   C3A47261  36.141  38.472   7.053
 8648POPC   C4A47262  36.149  38.439   7.353
 8648POPC   C1B47263  36.193  38.705   6.453
 8648POPC   C2B47264  36.175  38.694   6.753
 8648POPC   C3B47265  36.213  38.646   7.053
 8648POPC   C4B47266  36.259  38.643   7.353
 8649POPC   NC347267  23.743  12.086   5.553
 8649POPC   PO447268  23.742  12.077   5.853
 8649POPC   GL147269  23.746  12.095   6.153
 8649POPC   GL247270  23.701  12.177   6.153
 8649POPC   C1A47271  23.678  12.095   6.453
 8649POPC   D2A47272  23.668  12.089   6.753
 8649POPC   C3A47273  23.748  12.088   7.053
 8649POPC   C4A47274  23.762  12.055   7.353
 8649POPC   C1B47275  23.757  12.288   6.453
 8649POPC   C2B47276  23.700  12.360   6.753
 8649POPC   C3B47277  23.707  12.316   7.053
 8649POPC   C4B47278  23.708  12.356   7.353
 8650POPC   NC347279   9.777  11.300   5.553
 8650POPC   PO447280   9.762  11.316   5.853
 8650POPC   GL147281   9.752  11.268   6.153
 8650POPC   GL247282   9.868  11.245   6.153
 8650POPC   C1A47283   9.753  11.344   6.453
 8650POPC   D2A47284   9.724  11.336   6.753
 8650POPC   C3A47285   9.720  11.279   7.053
 8650POPC   C4A47286   9.777  11.256   7.353
 8650POPC   C1B47287   9.994  11.261   6.453
 8650POPC   C2B47288  10.021  11.210   6.753
 8650POPC   C3B47289   9.941  11.221   7.053
 8650POPC   C4B47290  10.018  11.241   7.353
 8651POPC   NC347291   7.399  25.250   5.553
 8651POPC   PO447292   7.372  25.294   5.853
 8651POPC   GL147293   7.434  25.284   6.153
 8651POPC   GL247294   7.304  25.162   6.153
 8651POPC   C1A47295   7.410  25.253   6.453
 8651POPC   D2A47296   7.465  25.275   6.753
 8651POPC   C3A47297   7.415  25.278   7.053
 8651POPC   C4A47298   7.468  25.293   7.353
 8651POPC   C1B47299   7.250  25.071   6.453
 8651POPC   C2B47300   7.247  25.133   6.753
 8651POPC   C3B47301   7.241  25.109   7.053
 8651POPC   C4B47302   7.292  25.097   7.353
 8652POPC   NC347303  30.680  31.424   5.553
 8652POPC   PO447304  30.732  31.468   5.853
 8652POPC   GL147305  30.693  31.442   6.153
 8652POPC   GL247306  30.824  31.364   6.153
 8652POPC   C1A47307  30.745  31.491   6.453
 8652POPC   D2A47308  30.744  31.461   6.753
 8652POPC   C3A47309  30.649  31.484   7.053
 8652POPC   C4A47310  30.677  31.445   7.353
 8652POPC   C1B47311  30.922  31.351   6.453
 8652POPC   C2B47312  30.952  31.291   6.753
 8652POPC   C3B47313  30.943  31.323   7.053
 8652POPC   C4B47314  30.921  31.347   7.353
 8653POPC   NC347315   6.627  17.499   5.553
 8653POPC   PO447316   6.685  17.487   5.853
 8653POPC   GL147317   6.658  17.542   6.153
 8653POPC   GL247318   6.792  17.458   6.153
 8653POPC   C1A47319   6.641  17.538   6.453
 8653POPC   D2A47320   6.609  17.541   6.753
 8653POPC   C3A47321   6.682  17.547   7.053
 8653POPC   C4A47322   6.659  17.481   7.353
 8653POPC   C1B47323   6.859  17.336   6.453
 8653POPC   C2B47324   6.884  17.382   6.753
 8653POPC   C3B47325   6.833  17.338   7.053
 8653POPC   C4B47326   6.880  17.390   7.353
 8654POPC   NC347327  44.631  29.915   5.553
 8654POPC   PO447328  44.648  29.950   5.853
 8654POPC   GL147329  44.684  29.950   6.153
 8654POPC   GL247330  44.618  30.020   6.153
 8654POPC   C1A47331  44.687  29.945   6.453
 8654POPC   D2A47332  44.711  29.923   6.753
 8654POPC   C3A47333  44.643  29.911   7.053
 8654POPC   C4A47334  44.711  29.895   7.353
 8654POPC   C1B47335  44.658  30.128   6.453
 8654POPC   C2B47336  44.635  30.141   6.753
 8654POPC   C3B47337  44.624  30.124   7.053
 8654POPC   C4B47338  44.577  30.141   7.353
 8655POPC   NC347339  44.687   4.280   5.553
 8655POPC   PO447340  44.685   4.356   5.853
 8655POPC   GL147341  44.670   4.290   6.153
 8655POPC   GL247342  44.758   4.285   6.153
 8655POPC   C1A47343  44.681   4.298   6.453
 8655POPC   D2A47344  44.668   4.325   6.753
 8655POPC   C3A47345  44.614   4.360   7.053
 8655POPC   C4A47346  44.689   4.287   7.353
 8655POPC   C1B47347  44.933   4.273   6.453
 8655POPC   C2B47348  44.943   4.330   6.753
 8655POPC   C3B47349  44.915   4.262   7.053
 8655POPC   C4B47350  44.926   4.241   7.353
 8656POPC   NC347351   4.281  12.883   5.553
 8656POPC   PO447352   4.293  12.885   5.853
 8656POPC   GL147353   4.343  12.854   6.153
 8656POPC   GL247354   4.444  12.852   6.153
 8656POPC   C1A47355   4.290  12.859   6.453
 8656POPC   D2A47356   4.324  12.806   6.753
 8656POPC   C3A47357   4.326  12.883   7.053
 8656POPC   C4A47358   4.341  12.885   7.353
 8656POPC   C1B47359   4.574  12.903   6.453
 8656POPC   C2B47360   4.556  12.822   6.753
 8656POPC   C3B47361   4.566  12.837   7.053
 8656POPC   C4B47362   4.576  12.894   7.353
 8657POPC   NC347363  35.355  37.705   5.553
 8657POPC   PO447364  35.392  37.717   5.853
 8657POPC   GL147365  35.344  37.722   6.153
 8657POPC   GL247366  35.344  37.774   6.153
 8657POPC   C1A47367  35.328  37.658   6.453
 8657POPC   D2A47368  35.355  37.673   6.753
 8657POPC   C3A47369  35.389  37.713   7.053
 8657POPC   C4A47370  35.380  37.721   7.353
 8657POPC   C1B47371  35.318  37.944   6.453
 8657POPC   C2B47372  35.335  37.888   6.753
 8657POPC   C3B47373  35.275  37.937   7.053
 8657POPC   C4B47374  35.321  37.871   7.353
 8658POPC   NC347375  20.578  43.150   5.553
 8658POPC   PO447376  20.588  43.109   5.853
 8658POPC   GL147377  20.601  43.104   6.153
 8658POPC   GL247378  20.630  43.245   6.153
 8658POPC   C1A47379  20.573  43.110   6.453
 8658POPC   D2A47380  20.562  43.112   6.753
 8658POPC   C3A47381  20.597  43.073   7.053
 8658POPC   C4A47382  20.629  43.070   7.353
 8658POPC   C1B47383  20.752  43.298   6.453
 8658POPC   C2B47384  20.684  43.309   6.753
 8658POPC   C3B47385  20.668  43.369   7.053
 8658POPC   C4B47386  20.687  43.311   7.353
 8659POPC   NC347387  44.709   3.536   5.553
 8659POPC   PO447388  44.656   3.572   5.853
 8659POPC   GL147389  44.625   3.520   6.153
 8659POPC   GL247390  44.656   3.381   6.153
 8659POPC   C1A47391  44.649   3.539   6.453
 8659POPC   D2A47392  44.639   3.538   6.753
 8659POPC   C3A47393  44.637   3.532   7.053
 8659POPC   C4A47394  44.636   3.571   7.353
 8659POPC   C1B47395  44.605   3.285   6.453
 8659POPC   C2B47396  44.525   3.295   6.753
 8659POPC   C3B47397  44.615   3.274   7.053
 8659POPC   C4B47398  44.586   3.334   7.353
 8660POPC   NC347399  19.858  20.626   5.553
 8660POPC   PO447400  19.803  20.576   5.853
 8660POPC   GL147401  19.867  20.655   6.153
 8660POPC   GL247402  19.843  20.452   6.153
 8660POPC   C1A47403  19.792  20.658   6.453
 8660POPC   D2A47404  19.866  20.610   6.753
 8660POPC   C3A47405  19.867  20.630   7.053
 8660POPC   C4A47406  19.790  20.633   7.353
 8660POPC   C1B47407  19.907  20.403   6.453
 8660POPC   C2B47408  19.830  20.382   6.753
 8660POPC   C3B47409  19.845  20.382   7.053
 8660POPC   C4B47410  19.847  20.402   7.353
 8661POPC   NC347411   1.186  29.169   5.553
 8661POPC   PO447412   1.243  29.181   5.853
 8661POPC   GL147413   1.214  29.120   6.153
 8661POPC   GL247414   1.305  29.256   6.153
 8661POPC   C1A47415   1.166  29.104   6.453
 8661POPC   D2A47416   1.204  29.127   6.753
 8661POPC   C3A47417   1.240  29.170   7.053
 8661POPC   C4A47418   1.215  29.134   7.353
 8661POPC   C1B47419   1.342  29.294   6.453
 8661POPC   C2B47420   1.390  29.388   6.753
 8661POPC   C3B47421   1.362  29.360   7.053
 8661POPC   C4B47422   1.407  29.327   7.353
 8662POPC   NC347423  24.521  19.048   5.553
 8662POPC   PO447424  24.487  19.055   5.853
 8662POPC   GL147425  24.530  19.085   6.153
 8662POPC   GL247426  24.478  18.884   6.153
 8662POPC   C1A47427  24.522  19.056   6.453
 8662POPC   D2A47428  24.472  19.088   6.753
 8662POPC   C3A47429  24.510  19.083   7.053
 8662POPC   C4A47430  24.447  19.035   7.353
 8662POPC   C1B47431  24.475  18.776   6.453
 8662POPC   C2B47432  24.439  18.794   6.753
 8662POPC   C3B47433  24.486  18.807   7.053
 8662POPC   C4B47434  24.515  18.765   7.353
 8663POPC   NC347435   0.428   3.540   5.553
 8663POPC   PO447436   0.458   3.496   5.853
 8663POPC   GL147437   0.418   3.545   6.153
 8663POPC   GL247438   0.604   3.565   6.153
 8663POPC   C1A47439   0.438   3.499   6.453
 8663POPC   D2A47440   0.443   3.562   6.753
 8663POPC   C3A47441   0.443   3.525   7.053
 8663POPC   C4A47442   0.400   3.557   7.353
 8663POPC   C1B47443   0.718   3.595   6.453
 8663POPC   C2B47444   0.671   3.593   6.753
 8663POPC   C3B47445   0.637   3.619   7.053
 8663POPC   C4B47446   0.636   3.556   7.353
 8664POPC   NC347447  23.677  28.319   5.553
 8664POPC   PO447448  23.748  28.379   5.853
 8664POPC   GL147449  23.746  28.337   6.153
 8664POPC   GL247450  23.691  28.519   6.153
 8664POPC   C1A47451  23.668  28.418   6.453
 8664POPC   D2A47452  23.722  28.381   6.753
 8664POPC   C3A47453  23.684  28.386   7.053
 8664POPC   C4A47454  23.707  28.327   7.353
 8664POPC   C1B47455  23.631  28.618   6.453
 8664POPC   C2B47456  23.676  28.662   6.753
 8664POPC   C3B47457  23.625  28.647   7.053
 8664POPC   C4B47458  23.643  28.603   7.353
 8665POPC   NC347459  19.064  43.144   5.553
 8665POPC   PO447460  19.061  43.078   5.853
 8665POPC   GL147461  19.040  43.126   6.153
 8665POPC   GL247462  18.942  43.148   6.153
 8665POPC   C1A47463  19.055  43.081   6.453
 8665POPC   D2A47464  19.070  43.154   6.753
 8665POPC   C3A47465  19.046  43.131   7.053
 8665POPC   C4A47466  19.012  43.110   7.353
 8665POPC   C1B47467  18.817  43.170   6.453
 8665POPC   C2B47468  18.804  43.180   6.753
 8665POPC   C3B47469  18.773  43.181   7.053
 8665POPC   C4B47470  18.773  43.187   7.353
 8666POPC   NC347471  15.163  24.515   5.553
 8666POPC   PO447472  15.201  24.440   5.853
 8666POPC   GL147473  15.167  24.458   6.153
 8666POPC   GL247474  15.250  24.386   6.153
 8666POPC   C1A47475  15.166  24.505   6.453
 8666POPC   D2A47476  15.141  24.525   6.753
 8666POPC   C3A47477  15.130  24.453   7.053
 8666POPC   C4A47478  15.140  24.458   7.353
 8666POPC   C1B47479  15.349  24.360   6.453
 8666POPC   C2B47480  15.354  24.340   6.753
 8666POPC   C3B47481  15.400  24.307   7.053
 8666POPC   C4B47482  15.423  24.359   7.353
 8667POPC   NC347483  15.973  10.514   5.553
 8667POPC   PO447484  15.970  10.499   5.853
 8667POPC   GL147485  15.934  10.546   6.153
 8667POPC   GL247486  15.954  10.432   6.153
 8667POPC   C1A47487  15.998  10.520   6.453
 8667POPC   D2A47488  15.958  10.487   6.753
 8667POPC   C3A47489  15.960  10.485   7.053
 8667POPC   C4A47490  15.989  10.536   7.353
 8667POPC   C1B47491  15.993  10.313   6.453
 8667POPC   C2B47492  15.966  10.324   6.753
 8667POPC   C3B47493  16.025  10.273   7.053
 8667POPC   C4B47494  15.997  10.256   7.353
 8668POPC   NC347495  19.839   4.336   5.553
 8668POPC   PO447496  19.789   4.316   5.853
 8668POPC   GL147497  19.792   4.283   6.153
 8668POPC   GL247498  19.697   4.320   6.153
 8668POPC   C1A47499  19.872   4.337   6.453
 8668POPC   D2A47500  19.880   4.302   6.753
 8668POPC   C3A47501  19.821   4.346   7.053
 8668POPC   C4A47502  19.830   4.277   7.353
 8668POPC   C1B47503  19.586   4.408   6.453
 8668POPC   C2B47504  19.613   4.422   6.753
 8668POPC   C3B47505  19.616   4.374   7.053
 8668POPC   C4B47506  19.593   4.378   7.353
 8669POPC   NC347507   5.089   1.190   5.553
 8669POPC   PO447508   5.078   1.257   5.853
 8669POPC   GL147509   5.073   1.243   6.153
 8669POPC   GL247510   4.988   1.178   6.153
 8669POPC   C1A47511   5.119   1.243   6.453
 8669POPC   D2A47512   5.103   1.252   6.753
 8669POPC   C3A47513   5.049   1.210   7.053
 8669POPC   C4A47514   5.046   1.169   7.353
 8669POPC   C1B47515   4.799   1.190   6.453
 8669POPC   C2B47516   4.849   1.236   6.753
 8669POPC   C3B47517   4.862   1.196   7.053
 8669POPC   C4B47518   4.856   1.228   7.353
 8670POPC   NC347519   0.427   7.429   5.553
 8670POPC   PO447520   0.442   7.433   5.853
 8670POPC   GL147521   0.409   7.439   6.153
 8670POPC   GL247522   0.401   7.297   6.153
 8670POPC   C1A47523   0.457   7.390   6.453
 8670POPC   D2A47524   0.399   7.469   6.753
 8670POPC   C3A47525   0.403   7.389   7.053
 8670POPC   C4A47526   0.444   7.426   7.353
 8670POPC   C1B47527   0.440   7.216   6.453
 8670POPC   C2B47528   0.396   7.172   6.753
 8670POPC   C3B47529   0.403   7.143   7.053
 8670POPC   C4B47530   0.400   7.185   7.353
 8671POPC   NC347531  43.094  39.196   5.553
 8671POPC   PO447532  43.123  39.208   5.853
 8671POPC   GL147533  43.152  39.209   6.153
 8671POPC   GL247534  42.954  39.321   6.153
 8671POPC   C1A47535  43.137  39.244   6.453
 8671POPC   D2A47536  43.104  39.195   6.753
 8671POPC   C3A47537  43.113  39.265   7.053
 8671POPC   C4A47538  43.121  39.226   7.353
 8671POPC   C1B47539  42.838  39.366   6.453
 8671POPC   C2B47540  42.883  39.351   6.753
 8671POPC   C3B47541  42.914  39.372   7.053
 8671POPC   C4B47542  42.895  39.355   7.353
 8672POPC   NC347543  43.888   3.581   5.553
 8672POPC   PO447544  43.935   3.505   5.853
 8672POPC   GL147545  43.840   3.525   6.153
 8672POPC   GL247546  43.809   3.500   6.153
 8672POPC   C1A47547  43.892   3.530   6.453
 8672POPC   D2A47548  43.867   3.545   6.753
 8672POPC   C3A47549  43.916   3.501   7.053
 8672POPC   C4A47550  43.899   3.557   7.353
 8672POPC   C1B47551  43.691   3.491   6.453
 8672POPC   C2B47552  43.678   3.449   6.753
 8672POPC   C3B47553  43.685   3.440   7.053
 8672POPC   C4B47554  43.658   3.446   7.353
 8673POPC   NC347555   2.744   7.458   5.553
 8673POPC   PO447556   2.785   7.404   5.853
 8673POPC   GL147557   2.733   7.403   6.153
 8673POPC   GL247558   2.627   7.427   6.153
 8673POPC   C1A47559   2.737   7.436   6.453
 8673POPC   D2A47560   2.771   7.393   6.753
 8673POPC   C3A47561   2.797   7.377   7.053
 8673POPC   C4A47562   2.770   7.413   7.353
 8673POPC   C1B47563   2.470   7.371   6.453
 8673POPC   C2B47564   2.531   7.427   6.753
 8673POPC   C3B47565   2.486   7.428   7.053
 8673POPC   C4B47566   2.469   7.398   7.353
 8674POPC   NC347567  30.661  30.686   5.553
 8674POPC   PO447568  30.674  30.653   5.853
 8674POPC   GL147569  30.740  30.735   6.153
 8674POPC   GL247570  30.842  30.809   6.153
 8674POPC   C1A47571  30.656  30.721   6.453
 8674POPC   D2A47572  30.720  30.706   6.753
 8674POPC   C3A47573  30.659  30.700   7.053
 8674POPC   C4A47574  30.700  30.729   7.353
 8674POPC   C1B47575  30.954  30.872   6.453
 8674POPC   C2B47576  30.935  30.787   6.753
 8674POPC   C3B47577  30.936  30.855   7.053
 8674POPC   C4B47578  30.928  30.789   7.353
 8675POPC   NC347579   0.466  34.572   5.553
 8675POPC   PO447580   0.420  34.561   5.853
 8675POPC   GL147581   0.469  34.549   6.153
 8675POPC   GL247582   0.331  34.630   6.153
 8675POPC   C1A47583   0.430  34.617   6.453
 8675POPC   D2A47584   0.485  34.539   6.753
 8675POPC   C3A47585   0.453  34.535   7.053
 8675POPC   C4A47586   0.449  34.605   7.353
 8675POPC   C1B47587   0.150  34.629   6.453
 8675POPC   C2B47588   0.155  34.603   6.753
 8675POPC   C3B47589   0.154  34.625   7.053
 8675POPC   C4B47590   0.234  34.607   7.353
 8676POPC   NC347591  37.644  21.339   5.553
 8676POPC   PO447592  37.647  21.435   5.853
 8676POPC   GL147593  37.650  21.423   6.153
 8676POPC   GL247594  37.739  21.485   6.153
 8676POPC   C1A47595  37.638  21.371   6.453
 8676POPC   D2A47596  37.677  21.381   6.753
 8676POPC   C3A47597  37.650  21.387   7.053
 8676POPC   C4A47598  37.707  21.421   7.353
 8676POPC   C1B47599  37.847  21.601   6.453
 8676POPC   C2B47600  37.802  21.633   6.753
 8676POPC   C3B47601  37.784  21.613   7.053
 8676POPC   C4B47602  37.842  21.621   7.353
 8677POPC   NC347603   7.449  19.809   5.553
 8677POPC   PO447604   7.428  19.827   5.853
 8677POPC   GL147605   7.469  19.802   6.153
 8677POPC   GL247606   7.569  19.831   6.153
 8677POPC   C1A47607   7.400  19.790   6.453
 8677POPC   D2A47608   7.426  19.824   6.753
 8677POPC   C3A47609   7.431  19.813   7.053
 8677POPC   C4A47610   7.458  19.840   7.353
 8677POPC   C1B47611   7.637  19.883   6.453
 8677POPC   C2B47612   7.674  19.933   6.753
 8677POPC   C3B47613   7.694  19.907   7.053
 8677POPC   C4B47614   7.701  19.859   7.353
 8678POPC   NC347615  33.809  36.138   5.553
 8678POPC   PO447616  33.844  36.114   5.853
 8678POPC   GL147617  33.775  36.175   6.153
 8678POPC   GL247618  33.777  36.026   6.153
 8678POPC   C1A47619  33.769  36.159   6.453
 8678POPC   D2A47620  33.850  36.114   6.753
 8678POPC   C3A47621  33.825  36.093   7.053
 8678POPC   C4A47622  33.816  36.136   7.353
 8678POPC   C1B47623  33.824  35.873   6.453
 8678POPC   C2B47624  33.734  35.874   6.753
 8678POPC   C3B47625  33.764  35.868   7.053
 8678POPC   C4B47626  33.794  35.897   7.353
 8679POPC   NC347627   8.936  44.627   5.553
 8679POPC   PO447628   8.940  44.673   5.853
 8679POPC   GL147629   8.943  44.691   6.153
 8679POPC   GL247630   9.125  44.701   6.153
 8679POPC   C1A47631   9.019  44.617   6.453
 8679POPC   D2A47632   8.975  44.701   6.753
 8679POPC   C3A47633   9.018  44.698   7.053
 8679POPC   C4A47634   8.939  44.701   7.353
 8679POPC   C1B47635   9.237  44.640   6.453
 8679POPC   C2B47636   9.250  44.662   6.753
 8679POPC   C3B47637   9.225  44.642   7.053
 8679POPC   C4B47638   9.257  44.623   7.353
 8680POPC   NC347639  35.306  35.314   5.553
 8680POPC   PO447640  35.390  35.395   5.853
 8680POPC   GL147641  35.352  35.347   6.153
 8680POPC   GL247642  35.378  35.257   6.153
 8680POPC   C1A47643  35.392  35.396   6.453
 8680POPC   D2A47644  35.393  35.394   6.753
 8680POPC   C3A47645  35.346  35.308   7.053
 8680POPC   C4A47646  35.331  35.354   7.353
 8680POPC   C1B47647  35.358  35.109   6.453
 8680POPC   C2B47648  35.335  35.115   6.753
 8680POPC   C3B47649  35.302  35.105   7.053
 8680POPC   C4B47650  35.323  35.106   7.353
 8681POPC   NC347651  24.497  39.255   5.553
 8681POPC   PO447652  24.465  39.208   5.853
 8681POPC   GL147653  24.501  39.230   6.153
 8681POPC   GL247654  24.379  39.166   6.153
 8681POPC   C1A47655  24.453  39.252   6.453
 8681POPC   D2A47656  24.497  39.262   6.753
 8681POPC   C3A47657  24.533  39.210   7.053
 8681POPC   C4A47658  24.444  39.192   7.353
 8681POPC   C1B47659  24.290  39.223   6.453
 8681POPC   C2B47660  24.203  39.142   6.753
 8681POPC   C3B47661  24.234  39.228   7.053
 8681POPC   C4B47662  24.282  39.157   7.353
 8682POPC   NC347663  33.805  41.569   5.553
 8682POPC   PO447664  33.751  41.599   5.853
 8682POPC   GL147665  33.771  41.522   6.153
 8682POPC   GL247666  33.809  41.469   6.153
 8682POPC   C1A47667  33.807  41.548   6.453
 8682POPC   D2A47668  33.788  41.522   6.753
 8682POPC   C3A47669  33.811  41.556   7.053
 8682POPC   C4A47670  33.792  41.574   7.353
 8682POPC   C1B47671  33.814  41.273   6.453
 8682POPC   C2B47672  33.849  41.309   6.753
 8682POPC   C3B47673  33.892  41.295   7.053
 8682POPC   C4B47674  33.890  41.333   7.353
 8683POPC   NC347675  11.278  18.330   5.553
 8683POPC   PO447676  11.329  18.315   5.853
 8683POPC   GL147677  11.292  18.246   6.153
 8683POPC   GL247678  11.216  18.150   6.153
 8683POPC   C1A47679  11.334  18.258   6.453
 8683POPC   D2A47680  11.312  18.242   6.753
 8683POPC   C3A47681  11.304  18.301   7.053
 8683POPC   C4A47682  11.308  18.274   7.353
 8683POPC   C1B47683  11.175  18.096   6.453
 8683POPC   C2B47684  11.222  18.091   6.753
 8683POPC   C3B47685  11.174  18.079   7.053
 8683POPC   C4B47686  11.139  18.097   7.353
 8684POPC   NC347687  30.698  35.390   5.553
 8684POPC   PO447688  30.735  35.356   5.853
 8684POPC   GL147689  30.656  35.333   6.153
 8684POPC   GL247690  30.553  35.375   6.153
 8684POPC   C1A47691  30.719  35.364   6.453
 8684POPC   D2A47692  30.689  35.345   6.753
 8684POPC   C3A47693  30.732  35.316   7.053
 8684POPC   C4A47694  30.670  35.387   7.353
 8684POPC   C1B47695  30.479  35.469   6.453
 8684POPC   C2B47696  30.440  35.438   6.753
 8684POPC   C3B47697  30.510  35.462   7.053
 8684POPC   C4B47698  30.448  35.429   7.353
 8685POPC   NC347699  33.046  35.329   5.553
 8685POPC   PO447700  33.029  35.353   5.853
 8685POPC   GL147701  33.018  35.318   6.153
 8685POPC   GL247702  33.164  35.332   6.153
 8685POPC   C1A47703  33.009  35.306   6.453
 8685POPC   D2A47704  33.003  35.330   6.753
 8685POPC   C3A47705  33.035  35.326   7.053
 8685POPC   C4A47706  33.058  35.321   7.353
 8685POPC   C1B47707  33.241  35.246   6.453
 8685POPC   C2B47708  33.205  35.222   6.753
 8685POPC   C3B47709  33.267  35.204   7.053
 8685POPC   C4B47710  33.285  35.206   7.353
 8686POPC   NC347711  37.723   9.759   5.553
 8686POPC   PO447712  37.706   9.711   5.853
 8686POPC   GL147713  37.650   9.776   6.153
 8686POPC   GL247714  37.769   9.845   6.153
 8686POPC   C1A47715  37.674   9.735   6.453
 8686POPC   D2A47716  37.722   9.711   6.753
 8686POPC   C3A47717  37.685   9.790   7.053
 8686POPC   C4A47718  37.649   9.707   7.353
 8686POPC   C1B47719  37.770  10.010   6.453
 8686POPC   C2B47720  37.748  10.017   6.753
 8686POPC   C3B47721  37.762  10.010   7.053
 8686POPC   C4B47722  37.791   9.982   7.353
 8687POPC   NC347723   3.532  21.386   5.553
 8687POPC   PO447724   3.579  21.344   5.853
 8687POPC   GL147725   3.534  21.401   6.153
 8687POPC   GL247726   3.547  21.259   6.153
 8687POPC   C1A47727   3.533  21.421   6.453
 8687POPC   D2A47728   3.584  21.402   6.753
 8687POPC   C3A47729   3.563  21.423   7.053
 8687POPC   C4A47730   3.559  21.428   7.353
 8687POPC   C1B47731   3.451  21.129   6.453
 8687POPC   C2B47732   3.432  21.195   6.753
 8687POPC   C3B47733   3.420  21.123   7.053
 8687POPC   C4B47734   3.437  21.185   7.353
 8688POPC   NC347735  15.188  44.615   5.553
 8688POPC   PO447736  15.153  44.616   5.853
 8688POPC   GL147737  15.221  44.616   6.153
 8688POPC   GL247738  15.240  44.740   6.153
 8688POPC   C1A47739  15.170  44.684   6.453
 8688POPC   D2A47740  15.188  44.686   6.753
 8688POPC   C3A47741  15.186  44.626   7.053
 8688POPC   C4A47742  15.229  44.617   7.353
 8688POPC   C1B47743  15.382  44.843   6.453
 8688POPC   C2B47744  15.361  44.813   6.753
 8688POPC   C3B47745  15.405  44.793   7.053
 8688POPC   C4B47746  15.349  44.858   7.353
 8689POPC   NC347747  41.529  42.305   5.553
 8689POPC   PO447748  41.584  42.297   5.853
 8689POPC   GL147749  41.592  42.340   6.153
 8689POPC   GL247750  41.728  42.386   6.153
 8689POPC   C1A47751  41.551  42.373   6.453
 8689POPC   D2A47752  41.601  42.298   6.753
 8689POPC   C3A47753  41.599  42.318   7.053
 8689POPC   C4A47754  41.533  42.314   7.353
 8689POPC   C1B47755  41.798  42.367   6.453
 8689POPC   C2B47756  41.820  42.354   6.753
 8689POPC   C3B47757  41.828  42.309   7.053
 8689POPC   C4B47758  41.823  42.318   7.353
 8690POPC   NC347759   8.152   3.556   5.553
 8690POPC   PO447760   8.227   3.535   5.853
 8690POPC   GL147761   8.236   3.561   6.153
 8690POPC   GL247762   8.140   3.375   6.153
 8690POPC   C1A47763   8.207   3.499   6.453
 8690POPC   D2A47764   8.186   3.515   6.753
 8690POPC   C3A47765   8.212   3.494   7.053
 8690POPC   C4A47766   8.195   3.560   7.353
 8690POPC   C1B47767   8.102   3.345   6.453
 8690POPC   C2B47768   8.125   3.279   6.753
 8690POPC   C3B47769   8.137   3.254   7.053
 8690POPC   C4B47770   8.152   3.322   7.353
 8691POPC   NC347771   9.774  29.138   5.553
 8691POPC   PO447772   9.782  29.159   5.853
 8691POPC   GL147773   9.725  29.151   6.153
 8691POPC   GL247774   9.619  29.201   6.153
 8691POPC   C1A47775   9.775  29.181   6.453
 8691POPC   D2A47776   9.768  29.177   6.753
 8691POPC   C3A47777   9.745  29.115   7.053
 8691POPC   C4A47778   9.707  29.161   7.353
 8691POPC   C1B47779   9.585  29.347   6.453
 8691POPC   C2B47780   9.505  29.331   6.753
 8691POPC   C3B47781   9.587  29.300   7.053
 8691POPC   C4B47782   9.530  29.333   7.353
 8692POPC   NC347783   0.466  31.502   5.553
 8692POPC   PO447784   0.397  31.447   5.853
 8692POPC   GL147785   0.468  31.469   6.153
 8692POPC   GL247786   0.450  31.556   6.153
 8692POPC   C1A47787   0.434  31.493   6.453
 8692POPC   D2A47788   0.484  31.494   6.753
 8692POPC   C3A47789   0.433  31.433   7.053
 8692POPC   C4A47790   0.444  31.490   7.353
 8692POPC   C1B47791   0.534  31.663   6.453
 8692POPC   C2B47792   0.525  31.656   6.753
 8692POPC   C3B47793   0.543  31.672   7.053
 8692POPC   C4B47794   0.551  31.687   7.353
 8693POPC   NC347795  33.847  35.366   5.553
 8693POPC   PO447796  33.812  35.385   5.853
 8693POPC   GL147797  33.823  35.316   6.153
 8693POPC   GL247798  33.631  35.361   6.153
 8693POPC   C1A47799  33.815  35.350   6.453
 8693POPC   D2A47800  33.847  35.400   6.753
 8693POPC   C3A47801  33.819  35.397   7.053
 8693POPC   C4A47802  33.829  35.349   7.353
 8693POPC   C1B47803  33.580  35.348   6.453
 8693POPC   C2B47804  33.592  35.341   6.753
 8693POPC   C3B47805  33.509  35.329   7.053
 8693POPC   C4B47806  33.502  35.312   7.353
 8694POPC   NC347807  40.039  32.202   5.553
 8694POPC   PO447808  40.022  32.267   5.853
 8694POPC   GL147809  40.032  32.284   6.153
 8694POPC   GL247810  40.080  32.186   6.153
 8694POPC   C1A47811  40.007  32.260   6.453
 8694POPC   D2A47812  39.971  32.222   6.753
 8694POPC   C3A47813  39.959  32.200   7.053
 8694POPC   C4A47814  39.982  32.221   7.353
 8694POPC   C1B47815  40.205  32.124   6.453
 8694POPC   C2B47816  40.222  32.118   6.753
 8694POPC   C3B47817  40.264  32.184   7.053
 8694POPC   C4B47818  40.273  32.156   7.353
 8695POPC   NC347819  20.641  12.816   5.553
 8695POPC   PO447820  20.606  12.869   5.853
 8695POPC   GL147821  20.615  12.893   6.153
 8695POPC   GL247822  20.752  12.899   6.153
 8695POPC   C1A47823  20.648  12.893   6.453
 8695POPC   D2A47824  20.648  12.898   6.753
 8695POPC   C3A47825  20.575  12.818   7.053
 8695POPC   C4A47826  20.645  12.854   7.353
 8695POPC   C1B47827  20.849  12.972   6.453
 8695POPC   C2B47828  20.822  13.034   6.753
 8695POPC   C3B47829  20.807  12.996   7.053
 8695POPC   C4B47830  20.845  13.021   7.353
 8696POPC   NC347831   9.748  40.003   5.553
 8696POPC   PO447832   9.778  40.040   5.853
 8696POPC   GL147833   9.795  40.021   6.153
 8696POPC   GL247834   9.895  40.025   6.153
 8696POPC   C1A47835   9.784  39.976   6.453
 8696POPC   D2A47836   9.714  40.020   6.753
 8696POPC   C3A47837   9.783  39.969   7.053
 8696POPC   C4A47838   9.760  39.981   7.353
 8696POPC   C1B47839   9.982  40.070   6.453
 8696POPC   C2B47840  10.000  40.077   6.753
 8696POPC   C3B47841   9.988  40.070   7.053
 8696POPC   C4B47842   9.943  40.132   7.353
 8697POPC   NC347843  27.605  37.719   5.553
 8697POPC   PO447844  27.550  37.706   5.853
 8697POPC   GL147845  27.555  37.717   6.153
 8697POPC   GL247846  27.762  37.641   6.153
 8697POPC   C1A47847  27.617  37.646   6.453
 8697POPC   D2A47848  27.641  37.650   6.753
 8697POPC   C3A47849  27.597  37.703   7.053
 8697POPC   C4A47850  27.552  37.709   7.353
 8697POPC   C1B47851  27.834  37.678   6.453
 8697POPC   C2B47852  27.854  37.664   6.753
 8697POPC   C3B47853  27.834  37.652   7.053
 8697POPC   C4B47854  27.855  37.693   7.353
 8698POPC   NC347855   5.850  33.039   5.553
 8698POPC   PO447856   5.903  32.979   5.853
 8698POPC   GL147857   5.864  32.978   6.153
 8698POPC   GL247858   5.796  32.968   6.153
 8698POPC   C1A47859   5.871  33.034   6.453
 8698POPC   D2A47860   5.863  32.987   6.753
 8698POPC   C3A47861   5.834  33.061   7.053
 8698POPC   C4A47862   5.830  33.069   7.353
 8698POPC   C1B47863   5.677  32.945   6.453
 8698POPC   C2B47864   5.587  32.917   6.753
 8698POPC   C3B47865   5.651  32.958   7.053
 8698POPC   C4B47866   5.649  32.913   7.353
 8699POPC   NC347867  27.547   1.992   5.553
 8699POPC   PO447868  27.564   2.023   5.853
 8699POPC   GL147869  27.600   1.944   6.153
 8699POPC   GL247870  27.667   1.912   6.153
 8699POPC   C1A47871  27.555   2.011   6.453
 8699POPC   D2A47872  27.609   2.017   6.753
 8699POPC   C3A47873  27.565   1.977   7.053
 8699POPC   C4A47874  27.564   1.980   7.353
 8699POPC   C1B47875  27.779   1.829   6.453
 8699POPC   C2B47876  27.819   1.866   6.753
 8699POPC   C3B47877  27.855   1.860   7.053
 8699POPC   C4B47878  27.833   1.912   7.353
 8700POPC   NC347879   8.239  30.686   5.553
 8700POPC   PO447880   8.156  30.681   5.853
 8700POPC   GL147881   8.181  30.660   6.153
 8700POPC   GL247882   8.275  30.576   6.153
 8700POPC   C1A47883   8.217  30.671   6.453
 8700POPC   D2A47884   8.173  30.684   6.753
 8700POPC   C3A47885   8.157  30.680   7.053
 8700POPC   C4A47886   8.233  30.675   7.353
 8700POPC   C1B47887   8.354  30.571   6.453
 8700POPC   C2B47888   8.396  30.523   6.753
 8700POPC   C3B47889   8.347  30.534   7.053
 8700POPC   C4B47890   8.406  30.500   7.353
 8701POPC   NC347891   4.353  18.326   5.553
 8701POPC   PO447892   4.267  18.305   5.853
 8701POPC   GL147893   4.276  18.264   6.153
 8701POPC   GL247894   4.343  18.431   6.153
 8701POPC   C1A47895   4.319  18.266   6.453
 8701POPC   D2A47896   4.345  18.331   6.753
 8701POPC   C3A47897   4.316  18.287   7.053
 8701POPC   C4A47898   4.304  18.300   7.353
 8701POPC   C1B47899   4.422  18.532   6.453
 8701POPC   C2B47900   4.494  18.546   6.753
 8701POPC   C3B47901   4.487  18.463   7.053
 8701POPC   C4B47902   4.415  18.510   7.353
 8702POPC   NC347903  18.238  41.535   5.553
 8702POPC   PO447904  18.254  41.547   5.853
 8702POPC   GL147905  18.274  41.564   6.153
 8702POPC   GL247906  18.295  41.723   6.153
 8702POPC   C1A47907  18.299  41.585   6.453
 8702POPC   D2A47908  18.282  41.529   6.753
 8702POPC   C3A47909  18.329  41.548   7.053
 8702POPC   C4A47910  18.291  41.559   7.353
 8702POPC   C1B47911  18.187  41.824   6.453
 8702POPC   C2B47912  18.246  41.816   6.753
 8702POPC   C3B47913  18.258  41.778   7.053
 8702POPC   C4B47914  18.186  41.819   7.353
 8703POPC   NC347915  31.505   8.183   5.553
 8703POPC   PO447916  31.464   8.151   5.853
 8703POPC   GL147917  31.486   8.189   6.153
 8703POPC   GL247918  31.420   8.084   6.153
 8703POPC   C1A47919  31.459   8.202   6.453
 8703POPC   D2A47920  31.440   8.223   6.753
 8703POPC   C3A47921  31.485   8.196   7.053
 8703POPC   C4A47922  31.449   8.183   7.353
 8703POPC   C1B47923  31.334   7.991   6.453
 8703POPC   C2B47924  31.307   8.053   6.753
 8703POPC   C3B47925  31.330   7.970   7.053
 8703POPC   C4B47926  31.323   7.993   7.353
 8704POPC   NC347927  24.532  26.070   5.553
 8704POPC   PO447928  24.468  25.999   5.853
 8704POPC   GL147929  24.510  26.075   6.153
 8704POPC   GL247930  24.339  25.959   6.153
 8704POPC   C1A47931  24.463  26.050   6.453
 8704POPC   D2A47932  24.479  26.004   6.753
 8704POPC   C3A47933  24.490  26.042   7.053
 8704POPC   C4A47934  24.502  26.011   7.353
 8704POPC   C1B47935  24.232  25.935   6.453
 8704POPC   C2B47936  24.212  25.986   6.753
 8704POPC   C3B47937  24.296  25.992   7.053
 8704POPC   C4B47938  24.289  25.923   7.353
 8705POPC   NC347939  15.913  11.338   5.553
 8705POPC   PO447940  15.929  11.334   5.853
 8705POPC   GL147941  15.938  11.323   6.153
 8705POPC   GL247942  15.891  11.382   6.153
 8705POPC   C1A47943  15.968  11.313   6.453
 8705POPC   D2A47944  15.917  11.326   6.753
 8705POPC   C3A47945  15.919  11.322   7.053
 8705POPC   C4A47946  15.946  11.349   7.353
 8705POPC   C1B47947  15.793  11.500   6.453
 8705POPC   C2B47948  15.746  11.525   6.753
 8705POPC   C3B47949  15.817  11.496   7.053
 8705POPC   C4B47950  15.837  11.495   7.353
 8706POPC   NC347951  11.266   0.424   5.553
 8706POPC   PO447952  11.260   0.392   5.853
 8706POPC   GL147953  11.259   0.468   6.153
 8706POPC   GL247954  11.403   0.362   6.153
 8706POPC   C1A47955  11.267   0.477   6.453
 8706POPC   D2A47956  11.342   0.448   6.753
 8706POPC   C3A47957  11.257   0.449   7.053
 8706POPC   C4A47958  11.344   0.460   7.353
 8706POPC   C1B47959  11.411   0.285   6.453
 8706POPC   C2B47960  11.494   0.251   6.753
 8706POPC   C3B47961  11.456   0.236   7.053
 8706POPC   C4B47962  11.455   0.287   7.353
 8707POPC   NC347963  27.593   8.947   5.553
 8707POPC   PO447964  27.593   8.991   5.853
 8707POPC   GL147965  27.567   8.927   6.153
 8707POPC   GL247966  27.630   9.079   6.153
 8707POPC   C1A47967  27.593   8.927   6.453
 8707POPC   D2A47968  27.563   8.932   6.753
 8707POPC   C3A47969  27.573   8.941   7.053
 8707POPC   C4A47970  27.623   8.980   7.353
 8707POPC   C1B47971  27.690   9.249   6.453
 8707POPC   C2B47972  27.647   9.163   6.753
 8707POPC   C3B47973  27.632   9.249   7.053
 8707POPC   C4B47974  27.646   9.217   7.353
 8708POPC   NC347975  40.820  32.267   5.553
 8708POPC   PO447976  40.809  32.202   5.853
 8708POPC   GL147977  40.743  32.238   6.153
 8708POPC   GL247978  40.949  32.209   6.153
 8708POPC   C1A47979  40.809  32.298   6.453
 8708POPC   D2A47980  40.785  32.287   6.753
 8708POPC   C3A47981  40.808  32.247   7.053
 8708POPC   C4A47982  40.813  32.292   7.353
 8708POPC   C1B47983  40.987  32.215   6.453
 8708POPC   C2B47984  40.990  32.185   6.753
 8708POPC   C3B47985  41.075  32.180   7.053
 8708POPC   C4B47986  41.046  32.211   7.353
 8709POPC   NC347987  10.543  12.849   5.553
 8709POPC   PO447988  10.498  12.841   5.853
 8709POPC   GL147989  10.544  12.849   6.153
 8709POPC   GL247990  10.565  12.973   6.153
 8709POPC   C1A47991  10.535  12.846   6.453
 8709POPC   D2A47992  10.563  12.892   6.753
 8709POPC   C3A47993  10.565  12.822   7.053
 8709POPC   C4A47994  10.564  12.894   7.353
 8709POPC   C1B47995  10.668  13.038   6.453
 8709POPC   C2B47996  10.689  13.038   6.753
 8709POPC   C3B47997  10.746  13.083   7.053
 8709POPC   C4B47998  10.699  12.991   7.353
 8710POPC   NC347999  42.333  29.896   5.553
 8710POPC   PO448000  42.370  29.955   5.853
 8710POPC   GL148001  42.334  29.926   6.153
 8710POPC   GL248002  42.273  30.070   6.153
 8710POPC   C1A48003  42.298  29.902   6.453
 8710POPC   D2A48004  42.340  29.885   6.753
 8710POPC   C3A48005  42.329  29.959   7.053
 8710POPC   C4A48006  42.381  29.919   7.353
 8710POPC   C1B48007  42.254  30.162   6.453
 8710POPC   C2B48008  42.206  30.156   6.753
 8710POPC   C3B48009  42.249  30.120   7.053
 8710POPC   C4B48010  42.236  30.107   7.353
 8711POPC   NC348011  12.065  43.084   5.553
 8711POPC   PO448012  12.026  43.133   5.853
 8711POPC   GL148013  12.064  43.097   6.153
 8711POPC   GL248014  11.984  43.180   6.153
 8711POPC   C1A48015  12.040  43.142   6.453
 8711POPC   D2A48016  12.035  43.121   6.753
 8711POPC   C3A48017  12.104  43.142   7.053
 8711POPC   C4A48018  12.096  43.133   7.353
 8711POPC   C1B48019  12.008  43.365   6.453
 8711POPC   C2B48020  11.975  43.363   6.753
 8711POPC   C3B48021  11.985  43.384   7.053
 8711POPC   C4B48022  11.935  43.386   7.353
 8712POPC   NC348023  13.610  33.837   5.553
 8712POPC   PO448024  13.594  33.778   5.853
 8712POPC   GL148025  13.615  33.833   6.153
 8712POPC   GL248026  13.508  33.865   6.153
 8712POPC   C1A48027  13.621  33.842   6.453
 8712POPC   D2A48028  13.641  33.846   6.753
 8712POPC   C3A48029  13.582  33.762   7.053
 8712POPC   C4A48030  13.664  33.838   7.353
 8712POPC   C1B48031  13.412  33.876   6.453
 8712POPC   C2B48032  13.409  33.838   6.753
 8712POPC   C3B48033  13.378  33.901   7.053
 8712POPC   C4B48034  13.434  33.840   7.353
 8713POPC   NC348035   5.868   4.300   5.553
 8713POPC   PO448036   5.907   4.365   5.853
 8713POPC   GL148037   5.872   4.352   6.153
 8713POPC   GL248038   5.895   4.414   6.153
 8713POPC   C1A48039   5.832   4.291   6.453
 8713POPC   D2A48040   5.902   4.363   6.753
 8713POPC   C3A48041   5.912   4.345   7.053
 8713POPC   C4A48042   5.840   4.303   7.353
 8713POPC   C1B48043   5.874   4.606   6.453
 8713POPC   C2B48044   5.858   4.541   6.753
 8713POPC   C3B48045   5.929   4.572   7.053
 8713POPC   C4B48046   5.842   4.524   7.353
 8714POPC   NC348047   0.399  26.793   5.553
 8714POPC   PO448048   0.443  26.786   5.853
 8714POPC   GL148049   0.440  26.855   6.153
 8714POPC   GL248050   0.322  26.689   6.153
 8714POPC   C1A48051   0.408  26.783   6.453
 8714POPC   D2A48052   0.432  26.850   6.753
 8714POPC   C3A48053   0.478  26.822   7.053
 8714POPC   C4A48054   0.399  26.857   7.353
 8714POPC   C1B48055   0.210  26.621   6.453
 8714POPC   C2B48056   0.222  26.689   6.753
 8714POPC   C3B48057   0.288  26.659   7.053
 8714POPC   C4B48058   0.297  26.672   7.353
 8715POPC   NC348059  24.487   5.903   5.553
 8715POPC   PO448060  24.482   5.853   5.853
 8715POPC   GL148061  24.511   5.881   6.153
 8715POPC   GL248062  24.479   5.967   6.153
 8715POPC   C1A48063  24.448   5.840   6.453
 8715POPC   D2A48064  24.503   5.866   6.753
 8715POPC   C3A48065  24.535   5.870   7.053
 8715POPC   C4A48066  24.516   5.882   7.353
 8715POPC   C1B48067  24.500   6.136   6.453
 8715POPC   C2B48068  24.483   6.133   6.753
 8715POPC   C3B48069  24.557   6.161   7.053
 8715POPC   C4B48070  24.574   6.103   7.353
 8716POPC   NC348071  32.255  26.770   5.553
 8716POPC   PO448072  32.288  26.848   5.853
 8716POPC   GL148073  32.274  26.861   6.153
 8716POPC   GL248074  32.350  26.805   6.153
 8716POPC   C1A48075  32.283  26.800   6.453
 8716POPC   D2A48076  32.278  26.866   6.753
 8716POPC   C3A48077  32.205  26.825   7.053
 8716POPC   C4A48078  32.256  26.843   7.353
 8716POPC   C1B48079  32.486  26.763   6.453
 8716POPC   C2B48080  32.512  26.769   6.753
 8716POPC   C3B48081  32.469  26.794   7.053
 8716POPC   C4B48082  32.470  26.734   7.353
 8717POPC   NC348083  43.906  18.283   5.553
 8717POPC   PO448084  43.889  18.294   5.853
 8717POPC   GL148085  43.929  18.329   6.153
 8717POPC   GL248086  43.769  18.274   6.153
 8717POPC   C1A48087  43.877  18.255   6.453
 8717POPC   D2A48088  43.849  18.300   6.753
 8717POPC   C3A48089  43.883  18.308   7.053
 8717POPC   C4A48090  43.872  18.309   7.353
 8717POPC   C1B48091  43.645  18.381   6.453
 8717POPC   C2B48092  43.604  18.372   6.753
 8717POPC   C3B48093  43.603  18.352   7.053
 8717POPC   C4B48094  43.632  18.352   7.353
 8718POPC   NC348095  22.132   5.117   5.553
 8718POPC   PO448096  22.175   5.051   5.853
 8718POPC   GL148097  22.152   5.131   6.153
 8718POPC   GL248098  22.072   5.005   6.153
 8718POPC   C1A48099  22.211   5.114   6.453
 8718POPC   D2A48100  22.136   5.077   6.753
 8718POPC   C3A48101  22.178   5.087   7.053
 8718POPC   C4A48102  22.197   5.044   7.353
 8718POPC   C1B48103  22.048   4.915   6.453
 8718POPC   C2B48104  22.052   4.883   6.753
 8718POPC   C3B48105  22.012   4.918   7.053
 8718POPC   C4B48106  22.051   4.871   7.353
 8719POPC   NC348107  33.843  43.907   5.553
 8719POPC   PO448108  33.837  43.935   5.853
 8719POPC   GL148109  33.750  43.912   6.153
 8719POPC   GL248110  33.886  44.013   6.153
 8719POPC   C1A48111  33.785  43.871   6.453
 8719POPC   D2A48112  33.842  43.869   6.753
 8719POPC   C3A48113  33.841  43.924   7.053
 8719POPC   C4A48114  33.838  43.936   7.353
 8719POPC   C1B48115  33.978  44.128   6.453
 8719POPC   C2B48116  33.934  44.143   6.753
 8719POPC   C3B48117  33.883  44.064   7.053
 8719POPC   C4B48118  33.924  44.110   7.353
 8720POPC   NC348119  28.383  33.019   5.553
 8720POPC   PO448120  28.378  33.011   5.853
 8720POPC   GL148121  28.387  33.042   6.153
 8720POPC   GL248122  28.395  33.134   6.153
 8720POPC   C1A48123  28.385  33.037   6.453
 8720POPC   D2A48124  28.326  33.073   6.753
 8720POPC   C3A48125  28.344  32.995   7.053
 8720POPC   C4A48126  28.338  32.988   7.353
 8720POPC   C1B48127  28.440  33.244   6.453
 8720POPC   C2B48128  28.491  33.250   6.753
 8720POPC   C3B48129  28.439  33.280   7.053
 8720POPC   C4B48130  28.463  33.213   7.353
 8721POPC   NC348131  28.382  10.563   5.553
 8721POPC   PO448132  28.335  10.523   5.853
 8721POPC   GL148133  28.370  10.494   6.153
 8721POPC   GL248134  28.396  10.398   6.153
 8721POPC   C1A48135  28.406  10.564   6.453
 8721POPC   D2A48136  28.390  10.548   6.753
 8721POPC   C3A48137  28.369  10.511   7.053
 8721POPC   C4A48138  28.363  10.500   7.353
 8721POPC   C1B48139  28.413  10.265   6.453
 8721POPC   C2B48140  28.455  10.324   6.753
 8721POPC   C3B48141  28.460  10.310   7.053
 8721POPC   C4B48142  28.449  10.316   7.353
 8722POPC   NC348143  41.542  37.687   5.553
 8722POPC   PO448144  41.579  37.714   5.853
 8722POPC   GL148145  41.585  37.676   6.153
 8722POPC   GL248146  41.524  37.545   6.153
 8722POPC   C1A48147  41.561  37.643   6.453
 8722POPC   D2A48148  41.606  37.680   6.753
 8722POPC   C3A48149  41.570  37.707   7.053
 8722POPC   C4A48150  41.564  37.720   7.353
 8722POPC   C1B48151  41.515  37.453   6.453
 8722POPC   C2B48152  41.521  37.458   6.753
 8722POPC   C3B48153  41.430  37.426   7.053
 8722POPC   C4B48154  41.453  37.488   7.353
 8723POPC   NC348155  37.693  40.734   5.553
 8723POPC   PO448156  37.659  40.808   5.853
 8723POPC   GL148157  37.711  40.805   6.153
 8723POPC   GL248158  37.704  40.884   6.153
 8723POPC   C1A48159  37.657  40.765   6.453
 8723POPC   D2A48160  37.719  40.748   6.753
 8723POPC   C3A48161  37.653  40.762   7.053
 8723POPC   C4A48162  37.722  40.785   7.353
 8723POPC   C1B48163  37.760  40.974   6.453
 8723POPC   C2B48164  37.812  41.019   6.753
 8723POPC   C3B48165  37.817  40.997   7.053
 8723POPC   C4B48166  37.766  40.963   7.353
 8724POPC   NC348167  18.258  23.714   5.553
 8724POPC   PO448168  18.240  23.682   5.853
 8724POPC   GL148169  18.325  23.685   6.153
 8724POPC   GL248170  18.356  23.667   6.153
 8724POPC   C1A48171  18.281  23.733   6.453
 8724POPC   D2A48172  18.285  23.764   6.753
 8724POPC   C3A48173  18.311  23.698   7.053
 8724POPC   C4A48174  18.233  23.733   7.353
 8724POPC   C1B48175  18.554  23.639   6.453
 8724POPC   C2B48176  18.523  23.622   6.753
 8724POPC   C3B48177  18.495  23.582   7.053
 8724POPC   C4B48178  18.499  23.587   7.353
 8725POPC   NC348179  26.011  29.878   5.553
 8725POPC   PO448180  26.089  29.969   5.853
 8725POPC   GL148181  25.992  29.911   6.153
 8725POPC   GL248182  26.015  29.851   6.153
 8725POPC   C1A48183  26.003  29.877   6.453
 8725POPC   D2A48184  26.050  29.935   6.753
 8725POPC   C3A48185  26.063  29.873   7.053
 8725POPC   C4A48186  26.091  29.900   7.353
 8725POPC   C1B48187  25.984  29.659   6.453
 8725POPC   C2B48188  25.907  29.640   6.753
 8725POPC   C3B48189  25.976  29.718   7.053
 8725POPC   C4B48190  25.937  29.716   7.353
 8726POPC   NC348191  43.081  22.964   5.553
 8726POPC   PO448192  43.126  22.889   5.853
 8726POPC   GL148193  43.130  22.961   6.153
 8726POPC   GL248194  43.112  22.864   6.153
 8726POPC   C1A48195  43.078  22.944   6.453
 8726POPC   D2A48196  43.096  22.930   6.753
 8726POPC   C3A48197  43.069  22.944   7.053
 8726POPC   C4A48198  43.126  22.898   7.353
 8726POPC   C1B48199  43.220  22.672   6.453
 8726POPC   C2B48200  43.209  22.655   6.753
 8726POPC   C3B48201  43.170  22.677   7.053
 8726POPC   C4B48202  43.162  22.711   7.353
 8727POPC   NC348203  18.294  22.161   5.553
 8727POPC   PO448204  18.318  22.134   5.853
 8727POPC   GL148205  18.317  22.164   6.153
 8727POPC   GL248206  18.292  22.242   6.153
 8727POPC   C1A48207  18.277  22.146   6.453
 8727POPC   D2A48208  18.272  22.205   6.753
 8727POPC   C3A48209  18.298  22.171   7.053
 8727POPC   C4A48210  18.235  22.121   7.353
 8727POPC   C1B48211  18.263  22.453   6.453
 8727POPC   C2B48212  18.263  22.410   6.753
 8727POPC   C3B48213  18.318  22.415   7.053
 8727POPC   C4B48214  18.254  22.371   7.353
 8728POPC   NC348215  27.625  28.337   5.553
 8728POPC   PO448216  27.546  28.416   5.853
 8728POPC   GL148217  27.595  28.357   6.153
 8728POPC   GL248218  27.502  28.263   6.153
 8728POPC   C1A48219  27.596  28.414   6.453
 8728POPC   D2A48220  27.554  28.401   6.753
 8728POPC   C3A48221  27.582  28.352   7.053
 8728POPC   C4A48222  27.548  28.408   7.353
 8728POPC   C1B48223  27.377  28.276   6.453
 8728POPC   C2B48224  27.353  28.290   6.753
 8728POPC   C3B48225  27.342  28.280   7.053
 8728POPC   C4B48226  27.387  28.281   7.353
 8729POPC   NC348227  30.711  12.820   5.553
 8729POPC   PO448228  30.696  12.884   5.853
 8729POPC   GL148229  30.737  12.861   6.153
 8729POPC   GL248230  30.600  12.810   6.153
 8729POPC   C1A48231  30.694  12.856   6.453
 8729POPC   D2A48232  30.724  12.839   6.753
 8729POPC   C3A48233  30.712  12.851   7.053
 8729POPC   C4A48234  30.701  12.887   7.353
 8729POPC   C1B48235  30.491  12.704   6.453
 8729POPC   C2B48236  30.509  12.686   6.753
 8729POPC   C3B48237  30.465  12.738   7.053
 8729POPC   C4B48238  30.545  12.734   7.353
 8730POPC   NC348239  32.242  37.632   5.553
 8730POPC   PO448240  32.251  37.712   5.853
 8730POPC   GL148241  32.258  37.664   6.153
 8730POPC   GL248242  32.211  37.757   6.153
 8730POPC   C1A48243  32.249  37.674   6.453
 8730POPC   D2A48244  32.281  37.697   6.753
 8730POPC   C3A48245  32.276  37.698   7.053
 8730POPC   C4A48246  32.280  37.677   7.353
 8730POPC   C1B48247  32.142  37.945   6.453
 8730POPC   C2B48248  32.185  37.911   6.753
 8730POPC   C3B48249  32.148  37.924   7.053
 8730POPC   C4B48250  32.205  37.930   7.353
 8731POPC   NC348251  29.193  21.361   5.553
 8731POPC   PO448252  29.152  21.392   5.853
 8731POPC   GL148253  29.158  21.409   6.153
 8731POPC   GL248254  29.007  21.395   6.153
 8731POPC   C1A48255  29.107  21.367   6.453
 8731POPC   D2A48256  29.120  21.388   6.753
 8731POPC   C3A48257  29.146  21.398   7.053
 8731POPC   C4A48258  29.124  21.421   7.353
 8731POPC   C1B48259  28.932  21.438   6.453
 8731POPC   C2B48260  28.944  21.398   6.753
 8731POPC   C3B48261  28.941  21.412   7.053
 8731POPC   C4B48262  28.890  21.463   7.353
 8732POPC   NC348263  26.033   1.247   5.553
 8732POPC   PO448264  26.004   1.190   5.853
 8732POPC   GL148265  26.022   1.219   6.153
 8732POPC   GL248266  25.952   1.218   6.153
 8732POPC   C1A48267  26.010   1.213   6.453
 8732POPC   D2A48268  26.015   1.226   6.753
 8732POPC   C3A48269  26.069   1.215   7.053
 8732POPC   C4A48270  26.084   1.190   7.353
 8732POPC   C1B48271  25.808   1.281   6.453
 8732POPC   C2B48272  25.840   1.236   6.753
 8732POPC   C3B48273  25.793   1.272   7.053
 8732POPC   C4B48274  25.796   1.275   7.353
 8733POPC   NC348275  43.101  23.685   5.553
 8733POPC   PO448276  43.149  23.679   5.853
 8733POPC   GL148277  43.150  23.702   6.153
 8733POPC   GL248278  43.130  23.819   6.153
 8733POPC   C1A48279  43.091  23.717   6.453
 8733POPC   D2A48280  43.083  23.736   6.753
 8733POPC   C3A48281  43.135  23.714   7.053
 8733POPC   C4A48282  43.067  23.712   7.353
 8733POPC   C1B48283  43.151  23.913   6.453
 8733POPC   C2B48284  43.161  23.948   6.753
 8733POPC   C3B48285  43.143  23.911   7.053
 8733POPC   C4B48286  43.181  23.956   7.353
 8734POPC   NC348287   1.190  12.822   5.553
 8734POPC   PO448288   1.227  12.822   5.853
 8734POPC   GL148289   1.227  12.835   6.153
 8734POPC   GL248290   1.139  12.867   6.153
 8734POPC   C1A48291   1.246  12.829   6.453
 8734POPC   D2A48292   1.177  12.822   6.753
 8734POPC   C3A48293   1.183  12.888   7.053
 8734POPC   C4A48294   1.262  12.886   7.353
 8734POPC   C1B48295   1.028  12.943   6.453
 8734POPC   C2B48296   0.970  12.951   6.753
 8734POPC   C3B48297   0.990  13.019   7.053
 8734POPC   C4B48298   0.958  12.954   7.353
 8735POPC   NC348299  10.478   3.575   5.553
 8735POPC   PO448300  10.570   3.529   5.853
 8735POPC   GL148301  10.497   3.493   6.153
 8735POPC   GL248302  10.647   3.661   6.153
 8735POPC   C1A48303  10.503   3.584   6.453
 8735POPC   D2A48304  10.549   3.545   6.753
 8735POPC   C3A48305  10.526   3.518   7.053
 8735POPC   C4A48306  10.489   3.548   7.353
 8735POPC   C1B48307  10.690   3.746   6.453
 8735POPC   C2B48308  10.668   3.736   6.753
 8735POPC   C3B48309  10.724   3.722   7.053
 8735POPC   C4B48310  10.714   3.696   7.353
 8736POPC   NC348311   6.676  21.375   5.553
 8736POPC   PO448312   6.670  21.357   5.853
 8736POPC   GL148313   6.655  21.370   6.153
 8736POPC   GL248314   6.616  21.491   6.153
 8736POPC   C1A48315   6.608  21.428   6.453
 8736POPC   D2A48316   6.634  21.409   6.753
 8736POPC   C3A48317   6.619  21.355   7.053
 8736POPC   C4A48318   6.617  21.402   7.353
 8736POPC   C1B48319   6.567  21.612   6.453
 8736POPC   C2B48320   6.660  21.622   6.753
 8736POPC   C3B48321   6.632  21.662   7.053
 8736POPC   C4B48322   6.642  21.611   7.353
 8737POPC   NC348323  32.256  10.518   5.553
 8737POPC   PO448324  32.235  10.525   5.853
 8737POPC   GL148325  32.274  10.510   6.153
 8737POPC   GL248326  32.239  10.454   6.153
 8737POPC   C1A48327  32.248  10.483   6.453
 8737POPC   D2A48328  32.199  10.526   6.753
 8737POPC   C3A48329  32.214  10.570   7.053
 8737POPC   C4A48330  32.205  10.552   7.353
 8737POPC   C1B48331  32.203  10.310   6.453
 8737POPC   C2B48332  32.202  10.313   6.753
 8737POPC   C3B48333  32.154  10.307   7.053
 8737POPC   C4B48334  32.193  10.328   7.353
 8738POPC   NC348335   5.883  14.404   5.553
 8738POPC   PO448336   5.858  14.420   5.853
 8738POPC   GL148337   5.839  14.380   6.153
 8738POPC   GL248338   5.797  14.357   6.153
 8738POPC   C1A48339   5.844  14.404   6.453
 8738POPC   D2A48340   5.871  14.417   6.753
 8738POPC   C3A48341   5.830  14.438   7.053
 8738POPC   C4A48342   5.900  14.408   7.353
 8738POPC   C1B48343   5.669  14.350   6.453
 8738POPC   C2B48344   5.675  14.303   6.753
 8738POPC   C3B48345   5.644  14.297   7.053
 8738POPC   C4B48346   5.623  14.360   7.353
 8739POPC   NC348347  27.563  17.530   5.553
 8739POPC   PO448348  27.556  17.463   5.853
 8739POPC   GL148349  27.612  17.470   6.153
 8739POPC   GL248350  27.660  17.415   6.153
 8739POPC   C1A48351  27.642  17.459   6.453
 8739POPC   D2A48352  27.600  17.536   6.753
 8739POPC   C3A48353  27.584  17.497   7.053
 8739POPC   C4A48354  27.557  17.509   7.353
 8739POPC   C1B48355  27.839  17.406   6.453
 8739POPC   C2B48356  27.843  17.384   6.753
 8739POPC   C3B48357  27.858  17.447   7.053
 8739POPC   C4B48358  27.849  17.377   7.353
 8740POPC   NC348359  43.936  33.817   5.553
 8740POPC   PO448360  43.838  33.779   5.853
 8740POPC   GL148361  43.851  33.816   6.153
 8740POPC   GL248362  43.780  33.724   6.153
 8740POPC   C1A48363  43.907  33.776   6.453
 8740POPC   D2A48364  43.864  33.805   6.753
 8740POPC   C3A48365  43.852  33.766   7.053
 8740POPC   C4A48366  43.871  33.792   7.353
 8740POPC   C1B48367  43.653  33.700   6.453
 8740POPC   C2B48368  43.657  33.653   6.753
 8740POPC   C3B48369  43.631  33.714   7.053
 8740POPC   C4B48370  43.687  33.682   7.353
 8741POPC   NC348371  14.424  18.247   5.553
 8741POPC   PO448372  14.381  18.249   5.853
 8741POPC   GL148373  14.356  18.279   6.153
 8741POPC   GL248374  14.524  18.246   6.153
 8741POPC   C1A48375  14.379  18.279   6.453
 8741POPC   D2A48376  14.356  18.258   6.753
 8741POPC   C3A48377  14.418  18.294   7.053
 8741POPC   C4A48378  14.355  18.252   7.353
 8741POPC   C1B48379  14.613  18.249   6.453
 8741POPC   C2B48380  14.682  18.255   6.753
 8741POPC   C3B48381  14.647  18.253   7.053
 8741POPC   C4B48382  14.605  18.200   7.353
 8742POPC   NC348383  40.773  24.462   5.553
 8742POPC   PO448384  40.790  24.491   5.853
 8742POPC   GL148385  40.752  24.525   6.153
 8742POPC   GL248386  40.876  24.409   6.153
 8742POPC   C1A48387  40.808  24.516   6.453
 8742POPC   D2A48388  40.752  24.472   6.753
 8742POPC   C3A48389  40.809  24.465   7.053
 8742POPC   C4A48390  40.773  24.523   7.353
 8742POPC   C1B48391  40.967  24.242   6.453
 8742POPC   C2B48392  40.927  24.272   6.753
 8742POPC   C3B48393  40.964  24.242   7.053
 8742POPC   C4B48394  40.925  24.242   7.353
 8743POPC   NC348395   0.471  10.561   5.553
 8743POPC   PO448396   0.436  10.524   5.853
 8743POPC   GL148397   0.411  10.553   6.153
 8743POPC   GL248398   0.441  10.631   6.153
 8743POPC   C1A48399   0.418  10.481   6.453
 8743POPC   D2A48400   0.473  10.496   6.753
 8743POPC   C3A48401   0.442  10.522   7.053
 8743POPC   C4A48402   0.442  10.480   7.353
 8743POPC   C1B48403   0.390  10.777   6.453
 8743POPC   C2B48404   0.448  10.806   6.753
 8743POPC   C3B48405   0.394  10.821   7.053
 8743POPC   C4B48406   0.417  10.761   7.353
 8744POPC   NC348407  10.540  22.931   5.553
 8744POPC   PO448408  10.500  22.958   5.853
 8744POPC   GL148409  10.477  22.976   6.153
 8744POPC   GL248410  10.417  23.053   6.153
 8744POPC   C1A48411  10.504  22.955   6.453
 8744POPC   D2A48412  10.505  22.905   6.753
 8744POPC   C3A48413  10.566  22.954   7.053
 8744POPC   C4A48414  10.517  22.966   7.353
 8744POPC   C1B48415  10.401  23.135   6.453
 8744POPC   C2B48416  10.408  23.173   6.753
 8744POPC   C3B48417  10.402  23.131   7.053
 8744POPC   C4B48418  10.371  23.092   7.353
 8745POPC   NC348419  43.912  10.500   5.553
 8745POPC   PO448420  43.919  10.481   5.853
 8745POPC   GL148421  43.872  10.489   6.153
 8745POPC   GL248422  44.030  10.500   6.153
 8745POPC   C1A48423  43.933  10.550   6.453
 8745POPC   D2A48424  43.886  10.479   6.753
 8745POPC   C3A48425  43.860  10.507   7.053
 8745POPC   C4A48426  43.923  10.536   7.353
 8745POPC   C1B48427  44.165  10.537   6.453
 8745POPC   C2B48428  44.126  10.459   6.753
 8745POPC   C3B48429  44.106  10.454   7.053
 8745POPC   C4B48430  44.119  10.468   7.353
 8746POPC   NC348431  35.380  39.204   5.553
 8746POPC   PO448432  35.396  39.213   5.853
 8746POPC   GL148433  35.303  39.244   6.153
 8746POPC   GL248434  35.255  39.249   6.153
 8746POPC   C1A48435  35.380  39.240   6.453
 8746POPC   D2A48436  35.341  39.201   6.753
 8746POPC   C3A48437  35.307  39.239   7.053
 8746POPC   C4A48438  35.366  39.200   7.353
 8746POPC   C1B48439  35.108  39.218   6.453
 8746POPC   C2B48440  35.139  39.259   6.753
 8746POPC   C3B48441  35.074  39.179   7.053
 8746POPC   C4B48442  35.066  39.256   7.353
 8747POPC   NC348443  28.417  26.850   5.553
 8747POPC   PO448444  28.358  26.783   5.853
 8747POPC   GL148445  28.355  26.853   6.153
 8747POPC   GL248446  28.485  26.771   6.153
 8747POPC   C1A48447  28.356  26.839   6.453
 8747POPC   D2A48448  28.338  26.796   6.753
 8747POPC   C3A48449  28.400  26.862   7.053
 8747POPC   C4A48450  28.367  26.853   7.353
 8747POPC   C1B48451  28.591  26.640   6.453
 8747POPC   C2B48452  28.542  26.702   6.753
 8747POPC   C3B48453  28.604  26.669   7.053
 8747POPC   C4B48454  28.574  26.682   7.353
 8748POPC   NC348455  40.821  29.927   5.553
 8748POPC   PO448456  40.820  29.885   5.853
 8748POPC   GL148457  40.790  29.911   6.153
 8748POPC   GL248458  40.708  29.894   6.153
 8748POPC   C1A48459  40.760  29.939   6.453
 8748POPC   D2A48460  40.816  29.935   6.753
 8748POPC   C3A48461  40.756  29.964   7.053
 8748POPC   C4A48462  40.776  29.964   7.353
 8748POPC   C1B48463  40.530  29.914   6.453
 8748POPC   C2B48464  40.500  29.875   6.753
 8748POPC   C3B48465  40.550  29.891   7.053
 8748POPC   C4B48466  40.491  29.951   7.353
 8749POPC   NC348467   5.851  43.108   5.553
 8749POPC   PO448468   5.853  43.113   5.853
 8749POPC   GL148469   5.858  43.113   6.153
 8749POPC   GL248470   5.983  43.236   6.153
 8749POPC   C1A48471   5.887  43.106   6.453
 8749POPC   D2A48472   5.875  43.140   6.753
 8749POPC   C3A48473   5.820  43.109   7.053
 8749POPC   C4A48474   5.822  43.118   7.353
 8749POPC   C1B48475   6.006  43.311   6.453
 8749POPC   C2B48476   6.035  43.318   6.753
 8749POPC   C3B48477   6.012  43.263   7.053
 8749POPC   C4B48478   5.983  43.319   7.353
 8750POPC   NC348479  26.841  24.449   5.553
 8750POPC   PO448480  26.778  24.453   5.853
 8750POPC   GL148481  26.780  24.500   6.153
 8750POPC   GL248482  26.857  24.639   6.153
 8750POPC   C1A48483  26.793  24.476   6.453
 8750POPC   D2A48484  26.836  24.534   6.753
 8750POPC   C3A48485  26.844  24.490   7.053
 8750POPC   C4A48486  26.829  24.479   7.353
 8750POPC   C1B48487  26.867  24.705   6.453
 8750POPC   C2B48488  26.897  24.782   6.753
 8750POPC   C3B48489  26.905  24.693   7.053
 8750POPC   C4B48490  26.819  24.753   7.353
 8751POPC   NC348491  41.603   9.778   5.553
 8751POPC   PO448492  41.567   9.753   5.853
 8751POPC   GL148493  41.565   9.724   6.153
 8751POPC   GL248494  41.562   9.830   6.153
 8751POPC   C1A48495  41.568   9.787   6.453
 8751POPC   D2A48496  41.594   9.739   6.753
 8751POPC   C3A48497  41.570   9.747   7.053
 8751POPC   C4A48498  41.514   9.731   7.353
 8751POPC   C1B48499  41.641  10.009   6.453
 8751POPC   C2B48500  41.584   9.978   6.753
 8751POPC   C3B48501  41.623   9.985   7.053
 8751POPC   C4B48502  41.640   9.965   7.353
 8752POPC   NC348503  42.310  26.769   5.553
 8752POPC   PO448504  42.311  26.817   5.853
 8752POPC   GL148505  42.300  26.804   6.153
 8752POPC   GL248506  42.317  26.730   6.153
 8752POPC   C1A48507  42.286  26.774   6.453
 8752POPC   D2A48508  42.357  26.843   6.753
 8752POPC   C3A48509  42.317  26.814   7.053
 8752POPC   C4A48510  42.341  26.839   7.353
 8752POPC   C1B48511  42.318  26.528   6.453
 8752POPC   C2B48512  42.333  26.579   6.753
 8752POPC   C3B48513  42.316  26.573   7.053
 8752POPC   C4B48514  42.319  26.576   7.353
 8753POPC   NC348515  26.062  23.670   5.553
 8753POPC   PO448516  26.047  23.711   5.853
 8753POPC   GL148517  26.016  23.709   6.153
 8753POPC   GL248518  25.907  23.768   6.153
 8753POPC   C1A48519  26.041  23.680   6.453
 8753POPC   D2A48520  26.057  23.750   6.753
 8753POPC   C3A48521  26.000  23.735   7.053
 8753POPC   C4A48522  26.090  23.727   7.353
 8753POPC   C1B48523  25.812  23.760   6.453
 8753POPC   C2B48524  25.780  23.772   6.753
 8753POPC   C3B48525  25.857  23.786   7.053
 8753POPC   C4B48526  25.807  23.760   7.353
 8754POPC   NC348527  43.134  38.475   5.553
 8754POPC   PO448528  43.088  38.465   5.853
 8754POPC   GL148529  43.066  38.493   6.153
 8754POPC   GL248530  43.060  38.403   6.153
 8754POPC   C1A48531  43.067  38.446   6.453
 8754POPC   D2A48532  43.118  38.407   6.753
 8754POPC   C3A48533  43.134  38.412   7.053
 8754POPC   C4A48534  43.128  38.435   7.353
 8754POPC   C1B48535  42.984  38.299   6.453
 8754POPC   C2B48536  42.973  38.225   6.753
 8754POPC   C3B48537  42.980  38.277   7.053
 8754POPC   C4B48538  42.944  38.294   7.353
 8755POPC   NC348539  31.476  26.000   5.553
 8755POPC   PO448540  31.514  25.992   5.853
 8755POPC   GL148541  31.505  26.054   6.153
 8755POPC   GL248542  31.381  25.961   6.153
 8755POPC   C1A48543  31.460  26.058   6.453
 8755POPC   D2A48544  31.492  26.055   6.753
 8755POPC   C3A48545  31.441  26.012   7.053
 8755POPC   C4A48546  31.477  25.993   7.353
 8755POPC   C1B48547  31.347  25.839   6.453
 8755POPC   C2B48548  31.316  25.840   6.753
 8755POPC   C3B48549  31.370  25.878   7.053
 8755POPC   C4B48550  31.289  25.796   7.353
 8756POPC   NC348551   8.183  37.664   5.553
 8756POPC   PO448552   8.166  37.634   5.853
 8756POPC   GL148553   8.211  37.708   6.153
 8756POPC   GL248554   8.238  37.741   6.153
 8756POPC   C1A48555   8.178  37.648   6.453
 8756POPC   D2A48556   8.156  37.702   6.753
 8756POPC   C3A48557   8.217  37.638   7.053
 8756POPC   C4A48558   8.150  37.718   7.353
 8756POPC   C1B48559   8.345  37.867   6.453
 8756POPC   C2B48560   8.378  37.825   6.753
 8756POPC   C3B48561   8.332  37.849   7.053
 8756POPC   C4B48562   8.334  37.858   7.353
 8757POPC   NC348563   8.923  16.732   5.553
 8757POPC   PO448564   8.955  16.768   5.853
 8757POPC   GL148565   8.982  16.771   6.153
 8757POPC   GL248566   9.013  16.893   6.153
 8757POPC   C1A48567   8.939  16.724   6.453
 8757POPC   D2A48568   8.994  16.722   6.753
 8757POPC   C3A48569   8.999  16.753   7.053
 8757POPC   C4A48570   8.998  16.756   7.353
 8757POPC   C1B48571   9.005  16.979   6.453
 8757POPC   C2B48572   8.990  16.996   6.753
 8757POPC   C3B48573   8.933  16.998   7.053
 8757POPC   C4B48574   8.943  16.961   7.353
 8758POPC   NC348575  37.637  32.206   5.553
 8758POPC   PO448576  37.636  32.275   5.853
 8758POPC   GL148577  37.654  32.235   6.153
 8758POPC   GL248578  37.644  32.124   6.153
 8758POPC   C1A48579  37.722  32.254   6.453
 8758POPC   D2A48580  37.691  32.271   6.753
 8758POPC   C3A48581  37.684  32.263   7.053
 8758POPC   C4A48582  37.694  32.231   7.353
 8758POPC   C1B48583  37.616  32.025   6.453
 8758POPC   C2B48584  37.624  32.040   6.753
 8758POPC   C3B48585  37.643  32.039   7.053
 8758POPC   C4B48586  37.627  32.000   7.353
 8759POPC   NC348587  14.445   8.228   5.553
 8759POPC   PO448588  14.372   8.178   5.853
 8759POPC   GL148589  14.358   8.231   6.153
 8759POPC   GL248590  14.366   8.328   6.153
 8759POPC   C1A48591  14.450   8.199   6.453
 8759POPC   D2A48592  14.440   8.205   6.753
 8759POPC   C3A48593  14.439   8.165   7.053
 8759POPC   C4A48594  14.389   8.171   7.353
 8759POPC   C1B48595  14.243   8.453   6.453
 8759POPC   C2B48596  14.259   8.378   6.753
 8759POPC   C3B48597  14.322   8.422   7.053
 8759POPC   C4B48598  14.255   8.467   7.353
 8760POPC   NC348599  43.069   1.181   5.553
 8760POPC   PO448600  43.090   1.230   5.853
 8760POPC   GL148601  43.127   1.252   6.153
 8760POPC   GL248602  43.065   1.121   6.153
 8760POPC   C1A48603  43.089   1.258   6.453
 8760POPC   D2A48604  43.113   1.233   6.753
 8760POPC   C3A48605  43.084   1.204   7.053
 8760POPC   C4A48606  43.105   1.230   7.353
 8760POPC   C1B48607  43.070   0.963   6.453
 8760POPC   C2B48608  43.041   0.965   6.753
 8760POPC   C3B48609  43.126   0.966   7.053
 8760POPC   C4B48610  43.049   0.966   7.353
 8761POPC   NC348611  34.528  35.349   5.553
 8761POPC   PO448612  34.584  35.309   5.853
 8761POPC   GL148613  34.570  35.375   6.153
 8761POPC   GL248614  34.500  35.232   6.153
 8761POPC   C1A48615  34.585  35.338   6.453
 8761POPC   D2A48616  34.538  35.313   6.753
 8761POPC   C3A48617  34.551  35.376   7.053
 8761POPC   C4A48618  34.602  35.342   7.353
 8761POPC   C1B48619  34.463  35.142   6.453
 8761POPC   C2B48620  34.471  35.147   6.753
 8761POPC   C3B48621  34.507  35.088   7.053
 8761POPC   C4B48622  34.537  35.061   7.353
 8762POPC   NC348623  13.666  29.160   5.553
 8762POPC   PO448624  13.596  29.146   5.853
 8762POPC   GL148625  13.664  29.187   6.153
 8762POPC   GL248626  13.579  29.284   6.153
 8762POPC   C1A48627  13.639  29.192   6.453
 8762POPC   D2A48628  13.647  29.141   6.753
 8762POPC   C3A48629  13.627  29.112   7.053
 8762POPC   C4A48630  13.616  29.117   7.353
 8762POPC   C1B48631  13.544  29.331   6.453
 8762POPC   C2B48632  13.479  29.374   6.753
 8762POPC   C3B48633  13.483  29.372   7.053
 8762POPC   C4B48634  13.493  29.320   7.353
 8763POPC   NC348635  33.029  19.847   5.553
 8763POPC   PO448636  33.020  19.866   5.853
 8763POPC   GL148637  33.051  19.849   6.153
 8763POPC   GL248638  32.936  19.840   6.153
 8763POPC   C1A48639  33.058  19.862   6.453
 8763POPC   D2A48640  33.045  19.826   6.753
 8763POPC   C3A48641  33.023  19.868   7.053
 8763POPC   C4A48642  32.990  19.832   7.353
 8763POPC   C1B48643  32.758  19.911   6.453
 8763POPC   C2B48644  32.737  19.877   6.753
 8763POPC   C3B48645  32.819  19.861   7.053
 8763POPC   C4B48646  32.726  19.813   7.353
 8764POPC   NC348647  35.346   4.356   5.553
 8764POPC   PO448648  35.357   4.359   5.853
 8764POPC   GL148649  35.336   4.321   6.153
 8764POPC   GL248650  35.474   4.352   6.153
 8764POPC   C1A48651  35.349   4.349   6.453
 8764POPC   D2A48652  35.321   4.348   6.753
 8764POPC   C3A48653  35.374   4.359   7.053
 8764POPC   C4A48654  35.372   4.298   7.353
 8764POPC   C1B48655  35.602   4.444   6.453
 8764POPC   C2B48656  35.593   4.461   6.753
 8764POPC   C3B48657  35.603   4.450   7.053
 8764POPC   C4B48658  35.527   4.455   7.353
 8765POPC   NC348659   9.005  40.016   5.553
 8765POPC   PO448660   8.954  40.012   5.853
 8765POPC   GL148661   8.943  39.972   6.153
 8765POPC   GL248662   8.913  39.912   6.153
 8765POPC   C1A48663   8.971  39.990   6.453
 8765POPC   D2A48664   8.972  40.013   6.753
 8765POPC   C3A48665   9.007  40.041   7.053
 8765POPC   C4A48666   8.964  39.978   7.353
 8765POPC   C1B48667   8.792  39.787   6.453
 8765POPC   C2B48668   8.766  39.786   6.753
 8765POPC   C3B48669   8.769  39.806   7.053
 8765POPC   C4B48670   8.793  39.817   7.353
 8766POPC   NC348671  34.578  10.479   5.553
 8766POPC   PO448672  34.619  10.527   5.853
 8766POPC   GL148673  34.566  10.563   6.153
 8766POPC   GL248674  34.531  10.454   6.153
 8766POPC   C1A48675  34.609  10.481   6.453
 8766POPC   D2A48676  34.542  10.482   6.753
 8766POPC   C3A48677  34.537  10.565   7.053
 8766POPC   C4A48678  34.532  10.572   7.353
 8766POPC   C1B48679  34.403  10.299   6.453
 8766POPC   C2B48680  34.418  10.364   6.753
 8766POPC   C3B48681  34.431  10.351   7.053
 8766POPC   C4B48682  34.420  10.287   7.353
 8767POPC   NC348683  44.710  19.083   5.553
 8767POPC   PO448684  44.615  19.106   5.853
 8767POPC   GL148685  44.646  19.030   6.153
 8767POPC   GL248686  44.765  19.021   6.153
 8767POPC   C1A48687  44.689  19.056   6.453
 8767POPC   D2A48688  44.631  19.017   6.753
 8767POPC   C3A48689  44.645  19.019   7.053
 8767POPC   C4A48690  44.677  19.029   7.353
 8767POPC   C1B48691  44.923  18.927   6.453
 8767POPC   C2B48692  44.904  18.938   6.753
 8767POPC   C3B48693  44.867  18.945   7.053
 8767POPC   C4B48694  44.927  18.963   7.353
 8768POPC   NC348695   3.500  25.993   5.553
 8768POPC   PO448696   3.554  26.082   5.853
 8768POPC   GL148697   3.553  26.017   6.153
 8768POPC   GL248698   3.588  25.895   6.153
 8768POPC   C1A48699   3.570  26.063   6.453
 8768POPC   D2A48700   3.529  26.026   6.753
 8768POPC   C3A48701   3.511  26.071   7.053
 8768POPC   C4A48702   3.508  26.077   7.353
 8768POPC   C1B48703   3.521  25.790   6.453
 8768POPC   C2B48704   3.514  25.812   6.753
 8768POPC   C3B48705   3.553  25.806   7.053
 8768POPC   C4B48706   3.518  25.749   7.353
 8769POPC   NC348707  10.568  11.331   5.553
 8769POPC   PO448708  10.506  11.305   5.853
 8769POPC   GL148709  10.534  11.318   6.153
 8769POPC   GL248710  10.581  11.250   6.153
 8769POPC   C1A48711  10.540  11.250   6.453
 8769POPC   D2A48712  10.483  11.330   6.753
 8769POPC   C3A48713  10.538  11.309   7.053
 8769POPC   C4A48714  10.497  11.280   7.353
 8769POPC   C1B48715  10.682  11.180   6.453
 8769POPC   C2B48716  10.681  11.100   6.753
 8769POPC   C3B48717  10.751  11.134   7.053
 8769POPC   C4B48718  10.712  11.195   7.353
 8770POPC   NC348719  19.048  31.481   5.553
 8770POPC   PO448720  19.013  31.445   5.853
 8770POPC   GL148721  19.082  31.486   6.153
 8770POPC   GL248722  19.120  31.563   6.153
 8770POPC   C1A48723  19.053  31.505   6.453
 8770POPC   D2A48724  19.010  31.497   6.753
 8770POPC   C3A48725  19.071  31.498   7.053
 8770POPC   C4A48726  19.107  31.447   7.353
 8770POPC   C1B48727  19.160  31.741   6.453
 8770POPC   C2B48728  19.121  31.702   6.753
 8770POPC   C3B48729  19.191  31.673   7.053
 8770POPC   C4B48730  19.169  31.709   7.353
 8771POPC   NC348731  15.218   8.232   5.553
 8771POPC   PO448732  15.191   8.147   5.853
 8771POPC   GL148733  15.202   8.214   6.153
 8771POPC   GL248734  15.141   8.070   6.153
 8771POPC   C1A48735  15.187   8.203   6.453
 8771POPC   D2A48736  15.217   8.176   6.753
 8771POPC   C3A48737  15.199   8.161   7.053
 8771POPC   C4A48738  15.177   8.162   7.353
 8771POPC   C1B48739  15.096   8.006   6.453
 8771POPC   C2B48740  15.097   7.991   6.753
 8771POPC   C3B48741  15.089   7.990   7.053
 8771POPC   C4B48742  15.047   7.951   7.353
 8772POPC   NC348743  27.587  29.130   5.553
 8772POPC   PO448744  27.594  29.137   5.853
 8772POPC   GL148745  27.627  29.121   6.153
 8772POPC   GL248746  27.570  29.039   6.153
 8772POPC   C1A48747  27.633  29.151   6.453
 8772POPC   D2A48748  27.627  29.171   6.753
 8772POPC   C3A48749  27.629  29.189   7.053
 8772POPC   C4A48750  27.640  29.178   7.353
 8772POPC   C1B48751  27.548  28.940   6.453
 8772POPC   C2B48752  27.573  28.916   6.753
 8772POPC   C3B48753  27.552  28.887   7.053
 8772POPC   C4B48754  27.554  28.883   7.353
 8773POPC   NC348755  36.155  25.225   5.553
 8773POPC   PO448756  36.086  25.261   5.853
 8773POPC   GL148757  36.139  25.291   6.153
 8773POPC   GL248758  36.292  25.211   6.153
 8773POPC   C1A48759  36.140  25.218   6.453
 8773POPC   D2A48760  36.166  25.223   6.753
 8773POPC   C3A48761  36.099  25.251   7.053
 8773POPC   C4A48762  36.105  25.258   7.353
 8773POPC   C1B48763  36.401  25.199   6.453
 8773POPC   C2B48764  36.368  25.193   6.753
 8773POPC   C3B48765  36.398  25.238   7.053
 8773POPC   C4B48766  36.366  25.174   7.353
 8774POPC   NC348767  33.846  18.249   5.553
 8774POPC   PO448768  33.823  18.266   5.853
 8774POPC   GL148769  33.785  18.241   6.153
 8774POPC   GL248770  33.883  18.137   6.153
 8774POPC   C1A48771  33.782  18.241   6.453
 8774POPC   D2A48772  33.783  18.329   6.753
 8774POPC   C3A48773  33.772  18.266   7.053
 8774POPC   C4A48774  33.836  18.277   7.353
 8774POPC   C1B48775  33.946  18.041   6.453
 8774POPC   C2B48776  33.882  18.024   6.753
 8774POPC   C3B48777  33.938  18.037   7.053
 8774POPC   C4B48778  33.889  18.031   7.353
 8775POPC   NC348779  44.629  33.761   5.553
 8775POPC   PO448780  44.691  33.785   5.853
 8775POPC   GL148781  44.652  33.789   6.153
 8775POPC   GL248782  44.504  33.766   6.153
 8775POPC   C1A48783  44.661  33.821   6.453
 8775POPC   D2A48784  44.629  33.847   6.753
 8775POPC   C3A48785  44.705  33.787   7.053
 8775POPC   C4A48786  44.665  33.839   7.353
 8775POPC   C1B48787  44.444  33.774   6.453
 8775POPC   C2B48788  44.421  33.788   6.753
 8775POPC   C3B48789  44.372  33.815   7.053
 8775POPC   C4B48790  44.453  33.824   7.353
 8776POPC   NC348791  12.097  11.336   5.553
 8776POPC   PO448792  12.122  11.339   5.853
 8776POPC   GL148793  12.079  11.340   6.153
 8776POPC   GL248794  12.180  11.318   6.153
 8776POPC   C1A48795  12.108  11.330   6.453
 8776POPC   D2A48796  12.126  11.332   6.753
 8776POPC   C3A48797  12.118  11.336   7.053
 8776POPC   C4A48798  12.082  11.318   7.353
 8776POPC   C1B48799  12.320  11.443   6.453
 8776POPC   C2B48800  12.286  11.394   6.753
 8776POPC   C3B48801  12.265  11.444   7.053
 8776POPC   C4B48802  12.272  11.370   7.353
 8777POPC   NC348803   9.760  21.392   5.553
 8777POPC   PO448804   9.795  21.366   5.853
 8777POPC   GL148805   9.743  21.388   6.153
 8777POPC   GL248806   9.670  21.400   6.153
 8777POPC   C1A48807   9.792  21.375   6.453
 8777POPC   D2A48808   9.755  21.433   6.753
 8777POPC   C3A48809   9.703  21.429   7.053
 8777POPC   C4A48810   9.742  21.392   7.353
 8777POPC   C1B48811   9.543  21.483   6.453
 8777POPC   C2B48812   9.483  21.458   6.753
 8777POPC   C3B48813   9.561  21.481   7.053
 8777POPC   C4B48814   9.501  21.473   7.353
 8778POPC   NC348815  23.744  13.617   5.553
 8778POPC   PO448816  23.664  13.641   5.853
 8778POPC   GL148817  23.696  13.586   6.153
 8778POPC   GL248818  23.673  13.782   6.153
 8778POPC   C1A48819  23.722  13.596   6.453
 8778POPC   D2A48820  23.737  13.586   6.753
 8778POPC   C3A48821  23.713  13.620   7.053
 8778POPC   C4A48822  23.703  13.588   7.353
 8778POPC   C1B48823  23.592  13.853   6.453
 8778POPC   C2B48824  23.576  13.834   6.753
 8778POPC   C3B48825  23.562  13.867   7.053
 8778POPC   C4B48826  23.623  13.856   7.353
 8779POPC   NC348827  36.145  10.480   5.553
 8779POPC   PO448828  36.113  10.565   5.853
 8779POPC   GL148829  36.090  10.536   6.153
 8779POPC   GL248830  35.999  10.601   6.153
 8779POPC   C1A48831  36.116  10.507   6.453
 8779POPC   D2A48832  36.104  10.567   6.753
 8779POPC   C3A48833  36.133  10.547   7.053
 8779POPC   C4A48834  36.083  10.478   7.353
 8779POPC   C1B48835  35.910  10.715   6.453
 8779POPC   C2B48836  35.960  10.694   6.753
 8779POPC   C3B48837  35.953  10.652   7.053
 8779POPC   C4B48838  35.878  10.627   7.353
 8780POPC   NC348839   6.603  26.027   5.553
 8780POPC   PO448840   6.622  26.057   5.853
 8780POPC   GL148841   6.669  26.074   6.153
 8780POPC   GL248842   6.753  25.889   6.153
 8780POPC   C1A48843   6.689  26.075   6.453
 8780POPC   D2A48844   6.621  26.063   6.753
 8780POPC   C3A48845   6.655  26.061   7.053
 8780POPC   C4A48846   6.624  26.049   7.353
 8780POPC   C1B48847   6.835  25.877   6.453
 8780POPC   C2B48848   6.762  25.834   6.753
 8780POPC   C3B48849   6.793  25.843   7.053
 8780POPC   C4B48850   6.749  25.807   7.353
 8781POPC   NC348851  19.875   5.117   5.553
 8781POPC   PO448852  19.798   5.096   5.853
 8781POPC   GL148853  19.838   5.061   6.153
 8781POPC   GL248854  19.859   4.973   6.153
 8781POPC   C1A48855  19.791   5.086   6.453
 8781POPC   D2A48856  19.870   5.073   6.753
 8781POPC   C3A48857  19.836   5.074   7.053
 8781POPC   C4A48858  19.791   5.131   7.353
 8781POPC   C1B48859  19.893   4.871   6.453
 8781POPC   C2B48860  19.874   4.847   6.753
 8781POPC   C3B48861  19.858   4.890   7.053
 8781POPC   C4B48862  19.835   4.878   7.353
 8782POPC   NC348863   2.801  36.128   5.553
 8782POPC   PO448864   2.800  36.110   5.853
 8782POPC   GL148865   2.764  36.169   6.153
 8782POPC   GL248866   2.817  36.198   6.153
 8782POPC   C1A48867   2.758  36.162   6.453
 8782POPC   D2A48868   2.745  36.113   6.753
 8782POPC   C3A48869   2.793  36.118   7.053
 8782POPC   C4A48870   2.805  36.161   7.353
 8782POPC   C1B48871   2.891  36.390   6.453
 8782POPC   C2B48872   2.861  36.314   6.753
 8782POPC   C3B48873   2.834  36.345   7.053
 8782POPC   C4B48874   2.881  36.362   7.353
 8783POPC   NC348875  22.963  36.088   5.553
 8783POPC   PO448876  22.893  36.104   5.853
 8783POPC   GL148877  22.945  36.147   6.153
 8783POPC   GL248878  22.986  36.194   6.153
 8783POPC   C1A48879  22.932  36.160   6.453
 8783POPC   D2A48880  22.955  36.126   6.753
 8783POPC   C3A48881  22.982  36.092   7.053
 8783POPC   C4A48882  22.936  36.118   7.353
 8783POPC   C1B48883  23.104  36.273   6.453
 8783POPC   C2B48884  23.145  36.317   6.753
 8783POPC   C3B48885  23.116  36.266   7.053
 8783POPC   C4B48886  23.148  36.271   7.353
 8784POPC   NC348887  14.389   1.974   5.553
 8784POPC   PO448888  14.437   2.007   5.853
 8784POPC   GL148889  14.380   1.995   6.153
 8784POPC   GL248890  14.411   2.146   6.153
 8784POPC   C1A48891  14.359   1.982   6.453
 8784POPC   D2A48892  14.363   2.020   6.753
 8784POPC   C3A48893  14.368   2.021   7.053
 8784POPC   C4A48894  14.382   2.030   7.353
 8784POPC   C1B48895  14.344   2.189   6.453
 8784POPC   C2B48896  14.319   2.212   6.753
 8784POPC   C3B48897  14.371   2.276   7.053
 8784POPC   C4B48898  14.302   2.182   7.353
 8785POPC   NC348899  43.137  31.515   5.553
 8785POPC   PO448900  43.109  31.519   5.853
 8785POPC   GL148901  43.115  31.451   6.153
 8785POPC   GL248902  43.246  31.596   6.153
 8785POPC   C1A48903  43.157  31.434   6.453
 8785POPC   D2A48904  43.098  31.423   6.753
 8785POPC   C3A48905  43.159  31.481   7.053
 8785POPC   C4A48906  43.136  31.463   7.353
 8785POPC   C1B48907  43.275  31.693   6.453
 8785POPC   C2B48908  43.330  31.606   6.753
 8785POPC   C3B48909  43.332  31.610   7.053
 8785POPC   C4B48910  43.245  31.621   7.353
 8786POPC   NC348911  24.485  14.355   5.553
 8786POPC   PO448912  24.523  14.392   5.853
 8786POPC   GL148913  24.507  14.430   6.153
 8786POPC   GL248914  24.625  14.471   6.153
 8786POPC   C1A48915  24.468  14.451   6.453
 8786POPC   D2A48916  24.539  14.409   6.753
 8786POPC   C3A48917  24.494  14.360   7.053
 8786POPC   C4A48918  24.502  14.364   7.353
 8786POPC   C1B48919  24.706  14.561   6.453
 8786POPC   C2B48920  24.714  14.540   6.753
 8786POPC   C3B48921  24.729  14.555   7.053
 8786POPC   C4B48922  24.658  14.487   7.353
 8787POPC   NC348923   0.430  21.389   5.553
 8787POPC   PO448924   0.470  21.432   5.853
 8787POPC   GL148925   0.483  21.389   6.153
 8787POPC   GL248926   0.366  21.271   6.153
 8787POPC   C1A48927   0.391  21.403   6.453
 8787POPC   D2A48928   0.472  21.391   6.753
 8787POPC   C3A48929   0.463  21.348   7.053
 8787POPC   C4A48930   0.450  21.370   7.353
 8787POPC   C1B48931   0.388  21.121   6.453
 8787POPC   C2B48932   0.368  21.145   6.753
 8787POPC   C3B48933   0.422  21.132   7.053
 8787POPC   C4B48934   0.393  21.181   7.353
 8788POPC   NC348935  42.344  10.544   5.553
 8788POPC   PO448936  42.377  10.518   5.853
 8788POPC   GL148937  42.335  10.520   6.153
 8788POPC   GL248938  42.335  10.656   6.153
 8788POPC   C1A48939  42.329  10.540   6.453
 8788POPC   D2A48940  42.338  10.517   6.753
 8788POPC   C3A48941  42.371  10.557   7.053
 8788POPC   C4A48942  42.379  10.567   7.353
 8788POPC   C1B48943  42.327  10.755   6.453
 8788POPC   C2B48944  42.300  10.822   6.753
 8788POPC   C3B48945  42.362  10.817   7.053
 8788POPC   C4B48946  42.308  10.808   7.353
 8789POPC   NC348947  44.637  18.271   5.553
 8789POPC   PO448948  44.698  18.233   5.853
 8789POPC   GL148949  44.669  18.325   6.153
 8789POPC   GL248950  44.736  18.391   6.153
 8789POPC   C1A48951  44.685  18.305   6.453
 8789POPC   D2A48952  44.701  18.273   6.753
 8789POPC   C3A48953  44.697  18.248   7.053
 8789POPC   C4A48954  44.661  18.236   7.353
 8789POPC   C1B48955  44.677  18.492   6.453
 8789POPC   C2B48956  44.716  18.561   6.753
 8789POPC   C3B48957  44.733  18.552   7.053
 8789POPC   C4B48958  44.763  18.480   7.353
 8790POPC   NC348959   8.923   9.794   5.553
 8790POPC   PO448960   8.982   9.789   5.853
 8790POPC   GL148961   8.989   9.766   6.153
 8790POPC   GL248962   8.828   9.754   6.153
 8790POPC   C1A48963   8.923   9.752   6.453
 8790POPC   D2A48964   9.015   9.744   6.753
 8790POPC   C3A48965   9.008   9.715   7.053
 8790POPC   C4A48966   8.931   9.728   7.353
 8790POPC   C1B48967   8.706   9.696   6.453
 8790POPC   C2B48968   8.747   9.650   6.753
 8790POPC   C3B48969   8.750   9.647   7.053
 8790POPC   C4B48970   8.765   9.666   7.353
 8791POPC   NC348971   0.432  43.858   5.553
 8791POPC   PO448972   0.452  43.850   5.853
 8791POPC   GL148973   0.466  43.857   6.153
 8791POPC   GL248974   0.522  43.962   6.153
 8791POPC   C1A48975   0.389  43.867   6.453
 8791POPC   D2A48976   0.461  43.914   6.753
 8791POPC   C3A48977   0.476  43.885   7.053
 8791POPC   C4A48978   0.428  43.865   7.353
 8791POPC   C1B48979   0.621  43.957   6.453
 8791POPC   C2B48980   0.664  44.016   6.753
 8791POPC   C3B48981   0.705  44.001   7.053
 8791POPC   C4B48982   0.687  43.969   7.353
 8792POPC   NC348983  25.237  15.952   5.553
 8792POPC   PO448984  25.291  15.994   5.853
 8792POPC   GL148985  25.256  15.967   6.153
 8792POPC   GL248986  25.168  15.924   6.153
 8792POPC   C1A48987  25.306  15.918   6.453
 8792POPC   D2A48988  25.221  15.916   6.753
 8792POPC   C3A48989  25.273  15.933   7.053
 8792POPC   C4A48990  25.241  15.937   7.353
 8792POPC   C1B48991  24.971  16.024   6.453
 8792POPC   C2B48992  24.998  15.953   6.753
 8792POPC   C3B48993  25.003  15.953   7.053
 8792POPC   C4B48994  24.973  15.968   7.353
 8793POPC   NC348995  18.323  39.278   5.553
 8793POPC   PO448996  18.266  39.231   5.853
 8793POPC   GL148997  18.307  39.195   6.153
 8793POPC   GL248998  18.169  39.180   6.153
 8793POPC   C1A48999  18.259  39.211   6.453
 8793POPC   D2A49000  18.313  39.239   6.753
 8793POPC   C3A49001  18.248  39.241   7.053
 8793POPC   C4A49002  18.312  39.227   7.353
 8793POPC   C1B49003  18.066  39.175   6.453
 8793POPC   C2B49004  18.040  39.166   6.753
 8793POPC   C3B49005  18.021  39.158   7.053
 8793POPC   C4B49006  18.071  39.174   7.353
 8794POPC   NC349007  35.387  19.812   5.553
 8794POPC   PO449008  35.400  19.864   5.853
 8794POPC   GL149009  35.386  19.833   6.153
 8794POPC   GL249010  35.295  19.701   6.153
 8794POPC   C1A49011  35.345  19.846   6.453
 8794POPC   D2A49012  35.391  19.850   6.753
 8794POPC   C3A49013  35.305  19.794   7.053
 8794POPC   C4A49014  35.374  19.870   7.353
 8794POPC   C1B49015  35.303  19.590   6.453
 8794POPC   C2B49016  35.339  19.542   6.753
 8794POPC   C3B49017  35.323  19.606   7.053
 8794POPC   C4B49018  35.319  19.547   7.353
 8795POPC   NC349019  29.143  22.983   5.553
 8795POPC   PO449020  29.158  22.976   5.853
 8795POPC   GL149021  29.158  22.928   6.153
 8795POPC   GL249022  29.060  22.985   6.153
 8795POPC   C1A49023  29.167  22.904   6.453
 8795POPC   D2A49024  29.170  22.923   6.753
 8795POPC   C3A49025  29.172  22.950   7.053
 8795POPC   C4A49026  29.104  22.895   7.353
 8795POPC   C1B49027  28.870  23.020   6.453
 8795POPC   C2B49028  28.903  23.008   6.753
 8795POPC   C3B49029  28.942  23.028   7.053
 8795POPC   C4B49030  28.905  22.987   7.353
 8796POPC   NC349031   7.371   3.507   5.553
 8796POPC   PO449032   7.395   3.539   5.853
 8796POPC   GL149033   7.460   3.508   6.153
 8796POPC   GL249034   7.294   3.632   6.153
 8796POPC   C1A49035   7.387   3.591   6.453
 8796POPC   D2A49036   7.462   3.567   6.753
 8796POPC   C3A49037   7.417   3.541   7.053
 8796POPC   C4A49038   7.387   3.521   7.353
 8796POPC   C1B49039   7.289   3.708   6.453
 8796POPC   C2B49040   7.268   3.691   6.753
 8796POPC   C3B49041   7.281   3.697   7.053
 8796POPC   C4B49042   7.288   3.780   7.353
 8797POPC   NC349043   1.172  41.605   5.553
 8797POPC   PO449044   1.192  41.585   5.853
 8797POPC   GL149045   1.257  41.515   6.153
 8797POPC   GL249046   1.259  41.616   6.153
 8797POPC   C1A49047   1.200  41.538   6.453
 8797POPC   D2A49048   1.260  41.608   6.753
 8797POPC   C3A49049   1.178  41.581   7.053
 8797POPC   C4A49050   1.258  41.554   7.353
 8797POPC   C1B49051   1.383  41.735   6.453
 8797POPC   C2B49052   1.400  41.703   6.753
 8797POPC   C3B49053   1.403  41.777   7.053
 8797POPC   C4B49054   1.384  41.769   7.353
 8798POPC   NC349055  26.012  40.024   5.553
 8798POPC   PO449056  26.046  39.969   5.853
 8798POPC   GL149057  26.033  40.002   6.153
 8798POPC   GL249058  25.917  40.011   6.153
 8798POPC   C1A49059  26.064  40.031   6.453
 8798POPC   D2A49060  25.998  40.032   6.753
 8798POPC   C3A49061  26.060  39.968   7.053
 8798POPC   C4A49062  26.035  39.965   7.353
 8798POPC   C1B49063  25.775  40.024   6.453
 8798POPC   C2B49064  25.754  40.059   6.753
 8798POPC   C3B49065  25.759  40.050   7.053
 8798POPC   C4B49066  25.842  40.020   7.353
 8799POPC   NC349067  22.960  27.615   5.553
 8799POPC   PO449068  22.936  27.559   5.853
 8799POPC   GL149069  22.943  27.602   6.153
 8799POPC   GL249070  22.898  27.723   6.153
 8799POPC   C1A49071  22.907  27.638   6.453
 8799POPC   D2A49072  22.931  27.613   6.753
 8799POPC   C3A49073  22.914  27.608   7.053
 8799POPC   C4A49074  22.965  27.590   7.353
 8799POPC   C1B49075  22.773  27.768   6.453
 8799POPC   C2B49076  22.747  27.802   6.753
 8799POPC   C3B49077  22.771  27.784   7.053
 8799POPC   C4B49078  22.819  27.788   7.353
 8800POPC   NC349079  33.055   4.276   5.553
 8800POPC   PO449080  33.035   4.319   5.853
 8800POPC   GL149081  33.051   4.275   6.153
 8800POPC   GL249082  32.944   4.243   6.153
 8800POPC   C1A49083  32.984   4.339   6.453
 8800POPC   D2A49084  32.974   4.287   6.753
 8800POPC   C3A49085  33.019   4.319   7.053
 8800POPC   C4A49086  32.995   4.324   7.353
 8800POPC   C1B49087  32.806   4.154   6.453
 8800POPC   C2B49088  32.820   4.115   6.753
 8800POPC   C3B49089  32.841   4.161   7.053
 8800POPC   C4B49090  32.859   4.142   7.353
 8801POPC   NC349091  27.589  36.927   5.553
 8801POPC   PO449092  27.618  36.893   5.853
 8801POPC   GL149093  27.623  36.937   6.153
 8801POPC   GL249094  27.694  36.812   6.153
 8801POPC   C1A49095  27.575  36.908   6.453
 8801POPC   D2A49096  27.547  36.878   6.753
 8801POPC   C3A49097  27.615  36.856   7.053
 8801POPC   C4A49098  27.606  36.880   7.353
 8801POPC   C1B49099  27.806  36.681   6.453
 8801POPC   C2B49100  27.738  36.730   6.753
 8801POPC   C3B49101  27.740  36.752   7.053
 8801POPC   C4B49102  27.721  36.685   7.353
 8802POPC   NC349103  10.499  29.952   5.553
 8802POPC   PO449104  10.545  29.884   5.853
 8802POPC   GL149105  10.544  29.963   6.153
 8802POPC   GL249106  10.612  30.038   6.153
 8802POPC   C1A49107  10.557  29.917   6.453
 8802POPC   D2A49108  10.503  29.901   6.753
 8802POPC   C3A49109  10.539  29.878   7.053
 8802POPC   C4A49110  10.571  29.907   7.353
 8802POPC   C1B49111  10.687  30.088   6.453
 8802POPC   C2B49112  10.763  30.056   6.753
 8802POPC   C3B49113  10.686  30.063   7.053
 8802POPC   C4B49114  10.767  30.104   7.353
 8803POPC   NC349115   5.832  38.460   5.553
 8803POPC   PO449116   5.826  38.461   5.853
 8803POPC   GL149117   5.835  38.427   6.153
 8803POPC   GL249118   5.792  38.590   6.153
 8803POPC   C1A49119   5.908  38.499   6.453
 8803POPC   D2A49120   5.833  38.427   6.753
 8803POPC   C3A49121   5.824  38.492   7.053
 8803POPC   C4A49122   5.868  38.440   7.353
 8803POPC   C1B49123   5.731  38.689   6.453
 8803POPC   C2B49124   5.736  38.719   6.753
 8803POPC   C3B49125   5.806  38.714   7.053
 8803POPC   C4B49126   5.786  38.724   7.353
 8804POPC   NC349127  39.196  14.416   5.553
 8804POPC   PO449128  39.225  14.357   5.853
 8804POPC   GL149129  39.218  14.429   6.153
 8804POPC   GL249130  39.388  14.472   6.153
 8804POPC   C1A49131  39.224  14.414   6.453
 8804POPC   D2A49132  39.257  14.383   6.753
 8804POPC   C3A49133  39.182  14.412   7.053
 8804POPC   C4A49134  39.214  14.437   7.353
 8804POPC   C1B49135  39.419  14.454   6.453
 8804POPC   C2B49136  39.473  14.534   6.753
 8804POPC   C3B49137  39.474  14.477   7.053
 8804POPC   C4B49138  39.489  14.513   7.353
 8805POPC   NC349139  28.404  36.897   5.553
 8805POPC   PO449140  28.365  36.881   5.853
 8805POPC   GL149141  28.363  36.858   6.153
 8805POPC   GL249142  28.245  36.820   6.153
 8805POPC   C1A49143  28.333  36.880   6.453
 8805POPC   D2A49144  28.386  36.944   6.753
 8805POPC   C3A49145  28.351  36.917   7.053
 8805POPC   C4A49146  28.358  36.877   7.353
 8805POPC   C1B49147  28.142  36.767   6.453
 8805POPC   C2B49148  28.137  36.727   6.753
 8805POPC   C3B49149  28.154  36.774   7.053
 8805POPC   C4B49150  28.182  36.705   7.353
 8806POPC   NC349151  29.920  29.150   5.553
 8806POPC   PO449152  29.966  29.126   5.853
 8806POPC   GL149153  29.871  29.101   6.153
 8806POPC   GL249154  30.007  29.255   6.153
 8806POPC   C1A49155  29.916  29.142   6.453
 8806POPC   D2A49156  29.964  29.132   6.753
 8806POPC   C3A49157  29.952  29.192   7.053
 8806POPC   C4A49158  29.897  29.186   7.353
 8806POPC   C1B49159  30.095  29.287   6.453
 8806POPC   C2B49160  30.116  29.295   6.753
 8806POPC   C3B49161  30.092  29.336   7.053
 8806POPC   C4B49162  30.147  29.319   7.353
 8807POPC   NC349163  35.319   5.105   5.553
 8807POPC   PO449164  35.392   5.062   5.853
 8807POPC   GL149165  35.349   5.089   6.153
 8807POPC   GL249166  35.233   4.990   6.153
 8807POPC   C1A49167  35.332   5.123   6.453
 8807POPC   D2A49168  35.378   5.128   6.753
 8807POPC   C3A49169  35.341   5.138   7.053
 8807POPC   C4A49170  35.319   5.062   7.353
 8807POPC   C1B49171  35.203   4.899   6.453
 8807POPC   C2B49172  35.146   4.931   6.753
 8807POPC   C3B49173  35.211   4.913   7.053
 8807POPC   C4B49174  35.216   4.953   7.353
 8808POPC   NC349175  25.288  41.563   5.553
 8808POPC   PO449176  25.273  41.584   5.853
 8808POPC   GL149177  25.270  41.523   6.153
 8808POPC   GL249178  25.164  41.574   6.153
 8808POPC   C1A49179  25.230  41.575   6.453
 8808POPC   D2A49180  25.231  41.567   6.753
 8808POPC   C3A49181  25.250  41.581   7.053
 8808POPC   C4A49182  25.308  41.557   7.353
 8808POPC   C1B49183  24.987  41.536   6.453
 8808POPC   C2B49184  24.991  41.618   6.753
 8808POPC   C3B49185  25.046  41.602   7.053
 8808POPC   C4B49186  25.060  41.630   7.353
 8809POPC   NC349187  12.035  32.222   5.553
 8809POPC   PO449188  12.099  32.223   5.853
 8809POPC   GL149189  12.039  32.282   6.153
 8809POPC   GL249190  12.034  32.132   6.153
 8809POPC   C1A49191  12.090  32.210   6.453
 8809POPC   D2A49192  12.095  32.238   6.753
 8809POPC   C3A49193  12.114  32.272   7.053
 8809POPC   C4A49194  12.066  32.255   7.353
 8809POPC   C1B49195  11.948  32.015   6.453
 8809POPC   C2B49196  12.008  32.006   6.753
 8809POPC   C3B49197  12.013  32.059   7.053
 8809POPC   C4B49198  11.936  32.064   7.353
 8810POPC   NC349199   1.976   7.375   5.553
 8810POPC   PO449200   1.978   7.412   5.853
 8810POPC   GL149201   2.019   7.465   6.153
 8810POPC   GL249202   1.998   7.569   6.153
 8810POPC   C1A49203   1.973   7.443   6.453
 8810POPC   D2A49204   1.956   7.372   6.753
 8810POPC   C3A49205   2.009   7.372   7.053
 8810POPC   C4A49206   1.949   7.449   7.353
 8810POPC   C1B49207   2.029   7.635   6.453
 8810POPC   C2B49208   2.067   7.620   6.753
 8810POPC   C3B49209   2.003   7.702   7.053
 8810POPC   C4B49210   2.011   7.632   7.353
 8811POPC   NC349211  39.224  43.837   5.553
 8811POPC   PO449212  39.221  43.860   5.853
 8811POPC   GL149213  39.243  43.928   6.153
 8811POPC   GL249214  39.212  43.816   6.153
 8811POPC   C1A49215  39.243  43.927   6.453
 8811POPC   D2A49216  39.214  43.934   6.753
 8811POPC   C3A49217  39.187  43.846   7.053
 8811POPC   C4A49218  39.280  43.908   7.353
 8811POPC   C1B49219  39.102  43.694   6.453
 8811POPC   C2B49220  39.141  43.677   6.753
 8811POPC   C3B49221  39.098  43.640   7.053
 8811POPC   C4B49222  39.162  43.615   7.353
 8812POPC   NC349223  13.634   3.515   5.553
 8812POPC   PO449224  13.609   3.586   5.853
 8812POPC   GL149225  13.592   3.533   6.153
 8812POPC   GL249226  13.593   3.623   6.153
 8812POPC   C1A49227  13.620   3.583   6.453
 8812POPC   D2A49228  13.604   3.540   6.753
 8812POPC   C3A49229  13.588   3.584   7.053
 8812POPC   C4A49230  13.670   3.537   7.353
 8812POPC   C1B49231  13.520   3.790   6.453
 8812POPC   C2B49232  13.443   3.733   6.753
 8812POPC   C3B49233  13.501   3.751   7.053
 8812POPC   C4B49234  13.469   3.752   7.353
 8813POPC   NC349235  39.983  22.118   5.553
 8813POPC   PO449236  40.049  22.164   5.853
 8813POPC   GL149237  39.962  22.201   6.153
 8813POPC   GL249238  39.878  22.106   6.153
 8813POPC   C1A49239  40.027  22.183   6.453
 8813POPC   D2A49240  40.041  22.161   6.753
 8813POPC   C3A49241  40.015  22.169   7.053
 8813POPC   C4A49242  39.961  22.160   7.353
 8813POPC   C1B49243  39.783  21.985   6.453
 8813POPC   C2B49244  39.825  22.005   6.753
 8813POPC   C3B49245  39.824  22.000   7.053
 8813POPC   C4B49246  39.836  21.988   7.353
 8814POPC   NC349247   9.731   2.005   5.553
 8814POPC   PO449248   9.742   2.038   5.853
 8814POPC   GL149249   9.721   2.038   6.153
 8814POPC   GL249250   9.862   1.954   6.153
 8814POPC   C1A49251   9.740   2.031   6.453
 8814POPC   D2A49252   9.769   1.996   6.753
 8814POPC   C3A49253   9.756   2.016   7.053
 8814POPC   C4A49254   9.773   1.943   7.353
 8814POPC   C1B49255  10.040   1.999   6.453
 8814POPC   C2B49256   9.969   1.926   6.753
 8814POPC   C3B49257   9.995   1.979   7.053
 8814POPC   C4B49258  10.027   1.997   7.353
 8815POPC   NC349259   6.645  42.348   5.553
 8815POPC   PO449260   6.649  42.299   5.853
 8815POPC   GL149261   6.634  42.290   6.153
 8815POPC   GL249262   6.598  42.250   6.153
 8815POPC   C1A49263   6.687  42.294   6.453
 8815POPC   D2A49264   6.648  42.311   6.753
 8815POPC   C3A49265   6.639  42.286   7.053
 8815POPC   C4A49266   6.617  42.314   7.353
 8815POPC   C1B49267   6.481  42.090   6.453
 8815POPC   C2B49268   6.539  42.086   6.753
 8815POPC   C3B49269   6.446  42.129   7.053
 8815POPC   C4B49270   6.456  42.127   7.353
 8816POPC   NC349271  11.340  20.602   5.553
 8816POPC   PO449272  11.292  20.639   5.853
 8816POPC   GL149273  11.266  20.630   6.153
 8816POPC   GL249274  11.235  20.666   6.153
 8816POPC   C1A49275  11.347  20.630   6.453
 8816POPC   D2A49276  11.310  20.615   6.753
 8816POPC   C3A49277  11.305  20.643   7.053
 8816POPC   C4A49278  11.320  20.619   7.353
 8816POPC   C1B49279  11.140  20.819   6.453
 8816POPC   C2B49280  11.146  20.842   6.753
 8816POPC   C3B49281  11.128  20.757   7.053
 8816POPC   C4B49282  11.131  20.839   7.353
 8817POPC   NC349283   1.168  12.040   5.553
 8817POPC   PO449284   1.255  12.117   5.853
 8817POPC   GL149285   1.238  12.041   6.153
 8817POPC   GL249286   1.325  12.086   6.153
 8817POPC   C1A49287   1.223  12.077   6.453
 8817POPC   D2A49288   1.214  12.031   6.753
 8817POPC   C3A49289   1.217  12.100   7.053
 8817POPC   C4A49290   1.244  12.101   7.353
 8817POPC   C1B49291   1.398  12.203   6.453
 8817POPC   C2B49292   1.464  12.184   6.753
 8817POPC   C3B49293   1.393  12.181   7.053
 8817POPC   C4B49294   1.453  12.187   7.353
 8818POPC   NC349295  43.074   8.192   5.553
 8818POPC   PO449296  43.091   8.171   5.853
 8818POPC   GL149297  43.152   8.182   6.153
 8818POPC   GL249298  43.014   8.074   6.153
 8818POPC   C1A49299  43.133   8.200   6.453
 8818POPC   D2A49300  43.111   8.162   6.753
 8818POPC   C3A49301  43.064   8.210   7.053
 8818POPC   C4A49302  43.088   8.211   7.353
 8818POPC   C1B49303  42.924   8.006   6.453
 8818POPC   C2B49304  42.886   8.038   6.753
 8818POPC   C3B49305  42.939   8.031   7.053
 8818POPC   C4B49306  42.929   8.002   7.353
 8819POPC   NC349307  35.334  31.503   5.553
 8819POPC   PO449308  35.390  31.457   5.853
 8819POPC   GL149309  35.382  31.453   6.153
 8819POPC   GL249310  35.239  31.542   6.153
 8819POPC   C1A49311  35.386  31.505   6.453
 8819POPC   D2A49312  35.358  31.451   6.753
 8819POPC   C3A49313  35.368  31.459   7.053
 8819POPC   C4A49314  35.391  31.470   7.353
 8819POPC   C1B49315  35.137  31.590   6.453
 8819POPC   C2B49316  35.116  31.624   6.753
 8819POPC   C3B49317  35.189  31.618   7.053
 8819POPC   C4B49318  35.195  31.657   7.353
 8820POPC   NC349319  14.448  21.370   5.553
 8820POPC   PO449320  14.359  21.357   5.853
 8820POPC   GL149321  14.393  21.428   6.153
 8820POPC   GL249322  14.491  21.436   6.153
 8820POPC   C1A49323  14.358  21.365   6.453
 8820POPC   D2A49324  14.371  21.398   6.753
 8820POPC   C3A49325  14.443  21.424   7.053
 8820POPC   C4A49326  14.410  21.415   7.353
 8820POPC   C1B49327  14.575  21.524   6.453
 8820POPC   C2B49328  14.573  21.556   6.753
 8820POPC   C3B49329  14.537  21.609   7.053
 8820POPC   C4B49330  14.551  21.602   7.353
 8821POPC   NC349331  34.593  40.776   5.553
 8821POPC   PO449332  34.551  40.771   5.853
 8821POPC   GL149333  34.534  40.822   6.153
 8821POPC   GL249334  34.484  40.674   6.153
 8821POPC   C1A49335  34.534  40.747   6.453
 8821POPC   D2A49336  34.588  40.795   6.753
 8821POPC   C3A49337  34.540  40.750   7.053
 8821POPC   C4A49338  34.592  40.813   7.353
 8821POPC   C1B49339  34.434  40.604   6.453
 8821POPC   C2B49340  34.489  40.606   6.753
 8821POPC   C3B49341  34.434  40.523   7.053
 8821POPC   C4B49342  34.444  40.585   7.353
 8822POPC   NC349343   2.807  18.315   5.553
 8822POPC   PO449344   2.795  18.269   5.853
 8822POPC   GL149345   2.785  18.286   6.153
 8822POPC   GL249346   2.714  18.216   6.153
 8822POPC   C1A49347   2.778  18.266   6.453
 8822POPC   D2A49348   2.765  18.280   6.753
 8822POPC   C3A49349   2.783  18.314   7.053
 8822POPC   C4A49350   2.803  18.275   7.353
 8822POPC   C1B49351   2.636  18.054   6.453
 8822POPC   C2B49352   2.634  18.073   6.753
 8822POPC   C3B49353   2.570  18.113   7.053
 8822POPC   C4B49354   2.560  18.103   7.353
 8823POPC   NC349355  22.898  19.792   5.553
 8823POPC   PO449356  22.896  19.806   5.853
 8823POPC   GL149357  22.890  19.843   6.153
 8823POPC   GL249358  22.874  19.946   6.153
 8823POPC   C1A49359  22.888  19.830   6.453
 8823POPC   D2A49360  22.970  19.859   6.753
 8823POPC   C3A49361  22.943  19.826   7.053
 8823POPC   C4A49362  22.908  19.790   7.353
 8823POPC   C1B49363  22.847  20.010   6.453
 8823POPC   C2B49364  22.834  20.077   6.753
 8823POPC   C3B49365  22.798  20.021   7.053
 8823POPC   C4B49366  22.805  20.030   7.353
 8824POPC   NC349367  26.077  17.525   5.553
 8824POPC   PO449368  26.075  17.552   5.853
 8824POPC   GL149369  25.995  17.530   6.153
 8824POPC   GL249370  26.028  17.349   6.153
 8824POPC   C1A49371  26.032  17.498   6.453
 8824POPC   D2A49372  26.080  17.538   6.753
 8824POPC   C3A49373  26.074  17.467   7.053
 8824POPC   C4A49374  26.047  17.551   7.353
 8824POPC   C1B49375  26.061  17.303   6.453
 8824POPC   C2B49376  26.074  17.241   6.753
 8824POPC   C3B49377  26.027  17.293   7.053
 8824POPC   C4B49378  26.022  17.306   7.353
 8825POPC   NC349379   6.676   1.964   5.553
 8825POPC   PO449380   6.628   2.009   5.853
 8825POPC   GL149381   6.639   1.950   6.153
 8825POPC   GL249382   6.731   2.034   6.153
 8825POPC   C1A49383   6.627   1.969   6.453
 8825POPC   D2A49384   6.691   1.994   6.753
 8825POPC   C3A49385   6.688   1.942   7.053
 8825POPC   C4A49386   6.629   1.981   7.353
 8825POPC   C1B49387   6.880   2.161   6.453
 8825POPC   C2B49388   6.889   2.118   6.753
 8825POPC   C3B49389   6.828   2.082   7.053
 8825POPC   C4B49390   6.844   2.130   7.353
 8826POPC   NC349391  32.232   4.329   5.553
 8826POPC   PO449392  32.293   4.283   5.853
 8826POPC   GL149393  32.258   4.330   6.153
 8826POPC   GL249394  32.370   4.332   6.153
 8826POPC   C1A49395  32.210   4.277   6.453
 8826POPC   D2A49396  32.269   4.320   6.753
 8826POPC   C3A49397  32.202   4.274   7.053
 8826POPC   C4A49398  32.210   4.348   7.353
 8826POPC   C1B49399  32.469   4.350   6.453
 8826POPC   C2B49400  32.526   4.389   6.753
 8826POPC   C3B49401  32.515   4.338   7.053
 8826POPC   C4B49402  32.470   4.367   7.353
 8827POPC   NC349403  19.812   2.807   5.553
 8827POPC   PO449404  19.801   2.718   5.853
 8827POPC   GL149405  19.831   2.772   6.153
 8827POPC   GL249406  19.945   2.887   6.153
 8827POPC   C1A49407  19.835   2.745   6.453
 8827POPC   D2A49408  19.826   2.812   6.753
 8827POPC   C3A49409  19.788   2.795   7.053
 8827POPC   C4A49410  19.803   2.748   7.353
 8827POPC   C1B49411  20.024   2.931   6.453
 8827POPC   C2B49412  20.009   2.968   6.753
 8827POPC   C3B49413  20.029   2.972   7.053
 8827POPC   C4B49414  19.984   2.980   7.353
 8828POPC   NC349415  33.047   3.524   5.553
 8828POPC   PO449416  33.009   3.584   5.853
 8828POPC   GL149417  33.057   3.505   6.153
 8828POPC   GL249418  33.001   3.479   6.153
 8828POPC   C1A49419  33.062   3.509   6.453
 8828POPC   D2A49420  33.019   3.512   6.753
 8828POPC   C3A49421  33.035   3.591   7.053
 8828POPC   C4A49422  33.010   3.533   7.353
 8828POPC   C1B49423  32.877   3.353   6.453
 8828POPC   C2B49424  32.883   3.327   6.753
 8828POPC   C3B49425  32.895   3.351   7.053
 8828POPC   C4B49426  32.868   3.365   7.353
 8829POPC   NC349427  39.974  43.890   5.553
 8829POPC   PO449428  39.993  43.841   5.853
 8829POPC   GL149429  40.008  43.891   6.153
 8829POPC   GL249430  39.892  43.890   6.153
 8829POPC   C1A49431  40.026  43.836   6.453
 8829POPC   D2A49432  40.028  43.858   6.753
 8829POPC   C3A49433  39.959  43.840   7.053
 8829POPC   C4A49434  39.974  43.931   7.353
 8829POPC   C1B49435  39.784  43.917   6.453
 8829POPC   C2B49436  39.747  43.942   6.753
 8829POPC   C3B49437  39.726  43.892   7.053
 8829POPC   C4B49438  39.797  43.920   7.353
 8830POPC   NC349439  22.955  33.806   5.553
 8830POPC   PO449440  22.956  33.817   5.853
 8830POPC   GL149441  22.919  33.840   6.153
 8830POPC   GL249442  22.923  33.910   6.153
 8830POPC   C1A49443  22.946  33.835   6.453
 8830POPC   D2A49444  22.946  33.831   6.753
 8830POPC   C3A49445  22.936  33.815   7.053
 8830POPC   C4A49446  22.972  33.849   7.353
 8830POPC   C1B49447  22.958  34.095   6.453
 8830POPC   C2B49448  22.909  34.045   6.753
 8830POPC   C3B49449  22.949  34.045   7.053
 8830POPC   C4B49450  22.941  34.004   7.353
 8831POPC   NC349451   1.993  13.641   5.553
 8831POPC   PO449452   2.021  13.663   5.853
 8831POPC   GL149453   2.025  13.590   6.153
 8831POPC   GL249454   2.134  13.564   6.153
 8831POPC   C1A49455   1.983  13.639   6.453
 8831POPC   D2A49456   1.993  13.665   6.753
 8831POPC   C3A49457   1.955  13.623   7.053
 8831POPC   C4A49458   1.976  13.631   7.353
 8831POPC   C1B49459   2.223  13.472   6.453
 8831POPC   C2B49460   2.212  13.462   6.753
 8831POPC   C3B49461   2.160  13.479   7.053
 8831POPC   C4B49462   2.187  13.489   7.353
 8832POPC   NC349463  33.008  44.620   5.553
 8832POPC   PO449464  33.017  44.683   5.853
 8832POPC   GL149465  33.006  44.624   6.153
 8832POPC   GL249466  33.176  44.591   6.153
 8832POPC   C1A49467  33.004  44.617   6.453
 8832POPC   D2A49468  32.980  44.681   6.753
 8832POPC   C3A49469  32.982  44.645   7.053
 8832POPC   C4A49470  33.001  44.703   7.353
 8832POPC   C1B49471  33.203  44.593   6.453
 8832POPC   C2B49472  33.280  44.556   6.753
 8832POPC   C3B49473  33.236  44.557   7.053
 8832POPC   C4B49474  33.256  44.566   7.353
 8833POPC   NC349475   5.122  10.510   5.553
 8833POPC   PO449476   5.047  10.519   5.853
 8833POPC   GL149477   5.044  10.478   6.153
 8833POPC   GL249478   5.037  10.423   6.153
 8833POPC   C1A49479   5.078  10.498   6.453
 8833POPC   D2A49480   5.117  10.554   6.753
 8833POPC   C3A49481   5.124  10.562   7.053
 8833POPC   C4A49482   5.067  10.555   7.353
 8833POPC   C1B49483   4.870  10.378   6.453
 8833POPC   C2B49484   4.896  10.371   6.753
 8833POPC   C3B49485   4.900  10.394   7.053
 8833POPC   C4B49486   4.884  10.370   7.353
 8834POPC   NC349487   9.699  23.717   5.553
 8834POPC   PO449488   9.757  23.688   5.853
 8834POPC   GL149489   9.709  23.759   6.153
 8834POPC   GL249490   9.733  23.797   6.153
 8834POPC   C1A49491   9.744  23.699   6.453
 8834POPC   D2A49492   9.751  23.716   6.753
 8834POPC   C3A49493   9.769  23.756   7.053
 8834POPC   C4A49494   9.702  23.744   7.353
 8834POPC   C1B49495   9.655  23.932   6.453
 8834POPC   C2B49496   9.663  23.977   6.753
 8834POPC   C3B49497   9.684  23.977   7.053
 8834POPC   C4B49498   9.714  23.946   7.353
 8835POPC   NC349499  44.638  15.197   5.553
 8835POPC   PO449500  44.652  15.226   5.853
 8835POPC   GL149501  44.661  15.192   6.153
 8835POPC   GL249502  44.587  15.271   6.153
 8835POPC   C1A49503  44.637  15.166   6.453
 8835POPC   D2A49504  44.683  15.141   6.753
 8835POPC   C3A49505  44.689  15.193   7.053
 8835POPC   C4A49506  44.629  15.178   7.353
 8835POPC   C1B49507  44.544  15.371   6.453
 8835POPC   C2B49508  44.572  15.342   6.753
 8835POPC   C3B49509  44.510  15.342   7.053
 8835POPC   C4B49510  44.486  15.379   7.353
 8836POPC   NC349511  29.876  31.436   5.553
 8836POPC   PO449512  29.935  31.439   5.853
 8836POPC   GL149513  29.942  31.517   6.153
 8836POPC   GL249514  29.981  31.360   6.153
 8836POPC   C1A49515  29.941  31.458   6.453
 8836POPC   D2A49516  29.907  31.440   6.753
 8836POPC   C3A49517  29.932  31.501   7.053
 8836POPC   C4A49518  29.912  31.498   7.353
 8836POPC   C1B49519  30.069  31.344   6.453
 8836POPC   C2B49520  30.127  31.272   6.753
 8836POPC   C3B49521  30.146  31.304   7.053
 8836POPC   C4B49522  30.076  31.267   7.353
 8837POPC   NC349523  22.129  23.737   5.553
 8837POPC   PO449524  22.189  23.670   5.853
 8837POPC   GL149525  22.134  23.734   6.153
 8837POPC   GL249526  22.052  23.779   6.153
 8837POPC   C1A49527  22.133  23.716   6.453
 8837POPC   D2A49528  22.179  23.740   6.753
 8837POPC   C3A49529  22.184  23.716   7.053
 8837POPC   C4A49530  22.209  23.747   7.353
 8837POPC   C1B49531  21.965  23.875   6.453
 8837POPC   C2B49532  21.919  23.805   6.753
 8837POPC   C3B49533  21.896  23.853   7.053
 8837POPC   C4B49534  21.962  23.853   7.353
 8838POPC   NC349535  23.739  27.604   5.553
 8838POPC   PO449536  23.742  27.583   5.853
 8838POPC   GL149537  23.670  27.577   6.153
 8838POPC   GL249538  23.603  27.628   6.153
 8838POPC   C1A49539  23.750  27.620   6.453
 8838POPC   D2A49540  23.720  27.642   6.753
 8838POPC   C3A49541  23.690  27.622   7.053
 8838POPC   C4A49542  23.669  27.627   7.353
 8838POPC   C1B49543  23.500  27.712   6.453
 8838POPC   C2B49544  23.460  27.657   6.753
 8838POPC   C3B49545  23.481  27.725   7.053
 8838POPC   C4B49546  23.509  27.722   7.353
 8839POPC   NC349547  43.849  41.579   5.553
 8839POPC   PO449548  43.924  41.590   5.853
 8839POPC   GL149549  43.898  41.589   6.153
 8839POPC   GL249550  43.950  41.685   6.153
 8839POPC   C1A49551  43.921  41.519   6.453
 8839POPC   D2A49552  43.933  41.589   6.753
 8839POPC   C3A49553  43.909  41.556   7.053
 8839POPC   C4A49554  43.884  41.536   7.353
 8839POPC   C1B49555  43.887  41.828   6.453
 8839POPC   C2B49556  43.942  41.835   6.753
 8839POPC   C3B49557  43.898  41.842   7.053
 8839POPC   C4B49558  43.965  41.802   7.353
 8840POPC   NC349559  28.378   9.735   5.553
 8840POPC   PO449560  28.408   9.712   5.853
 8840POPC   GL149561  28.326   9.702   6.153
 8840POPC   GL249562  28.495   9.824   6.153
 8840POPC   C1A49563  28.415   9.700   6.453
 8840POPC   D2A49564  28.366   9.711   6.753
 8840POPC   C3A49565  28.357   9.721   7.053
 8840POPC   C4A49566  28.367   9.707   7.353
 8840POPC   C1B49567  28.487   9.981   6.453
 8840POPC   C2B49568  28.536   9.949   6.753
 8840POPC   C3B49569  28.490   9.972   7.053
 8840POPC   C4B49570  28.562   9.916   7.353
 8841POPC   NC349571  38.466   5.896   5.553
 8841POPC   PO449572  38.422   5.884   5.853
 8841POPC   GL149573  38.425   5.851   6.153
 8841POPC   GL249574  38.578   5.977   6.153
 8841POPC   C1A49575  38.430   5.899   6.453
 8841POPC   D2A49576  38.439   5.824   6.753
 8841POPC   C3A49577  38.406   5.908   7.053
 8841POPC   C4A49578  38.468   5.844   7.353
 8841POPC   C1B49579  38.720   5.955   6.453
 8841POPC   C2B49580  38.672   5.975   6.753
 8841POPC   C3B49581  38.644   5.953   7.053
 8841POPC   C4B49582  38.640   5.949   7.353
 8842POPC   NC349583   8.937  19.090   5.553
 8842POPC   PO449584   8.956  19.025   5.853
 8842POPC   GL149585   9.016  19.101   6.153
 8842POPC   GL249586   8.987  19.164   6.153
 8842POPC   C1A49587   9.019  19.073   6.453
 8842POPC   D2A49588   8.963  19.083   6.753
 8842POPC   C3A49589   8.960  19.045   7.053
 8842POPC   C4A49590   8.958  19.035   7.353
 8842POPC   C1B49591   9.096  19.273   6.453
 8842POPC   C2B49592   9.097  19.292   6.753
 8842POPC   C3B49593   9.005  19.295   7.053
 8842POPC   C4B49594   9.047  19.317   7.353
 8843POPC   NC349595  37.674   8.948   5.553
 8843POPC   PO449596  37.662   9.019   5.853
 8843POPC   GL149597  37.684   9.016   6.153
 8843POPC   GL249598  37.742   9.087   6.153
 8843POPC   C1A49599  37.680   8.950   6.453
 8843POPC   D2A49600  37.703   8.953   6.753
 8843POPC   C3A49601  37.645   8.986   7.053
 8843POPC   C4A49602  37.668   8.926   7.353
 8843POPC   C1B49603  37.839   9.208   6.453
 8843POPC   C2B49604  37.842   9.235   6.753
 8843POPC   C3B49605  37.799   9.172   7.053
 8843POPC   C4B49606  37.767   9.214   7.353
 8844POPC   NC349607   8.185   4.366   5.553
 8844POPC   PO449608   8.228   4.354   5.853
 8844POPC   GL149609   8.151   4.282   6.153
 8844POPC   GL249610   8.096   4.171   6.153
 8844POPC   C1A49611   8.227   4.270   6.453
 8844POPC   D2A49612   8.200   4.320   6.753
 8844POPC   C3A49613   8.180   4.309   7.053
 8844POPC   C4A49614   8.191   4.279   7.353
 8844POPC   C1B49615   8.100   4.104   6.453
 8844POPC   C2B49616   8.060   4.086   6.753
 8844POPC   C3B49617   8.068   4.054   7.053
 8844POPC   C4B49618   8.120   4.092   7.353
 8845POPC   NC349619   4.311  24.441   5.553
 8845POPC   PO449620   4.364  24.539   5.853
 8845POPC   GL149621   4.296  24.447   6.153
 8845POPC   GL249622   4.159  24.551   6.153
 8845POPC   C1A49623   4.309  24.519   6.453
 8845POPC   D2A49624   4.317  24.483   6.753
 8845POPC   C3A49625   4.278  24.532   7.053
 8845POPC   C4A49626   4.278  24.455   7.353
 8845POPC   C1B49627   4.108  24.579   6.453
 8845POPC   C2B49628   4.051  24.595   6.753
 8845POPC   C3B49629   4.106  24.542   7.053
 8845POPC   C4B49630   4.041  24.591   7.353
 8846POPC   NC349631  19.858   1.193   5.553
 8846POPC   PO449632  19.798   1.258   5.853
 8846POPC   GL149633  19.790   1.207   6.153
 8846POPC   GL249634  19.747   1.247   6.153
 8846POPC   C1A49635  19.833   1.205   6.453
 8846POPC   D2A49636  19.809   1.250   6.753
 8846POPC   C3A49637  19.811   1.169   7.053
 8846POPC   C4A49638  19.786   1.226   7.353
 8846POPC   C1B49639  19.607   1.264   6.453
 8846POPC   C2B49640  19.564   1.302   6.753
 8846POPC   C3B49641  19.631   1.316   7.053
 8846POPC   C4B49642  19.647   1.270   7.353
 8847POPC   NC349643  40.782  10.481   5.553
 8847POPC   PO449644  40.795  10.476   5.853
 8847POPC   GL149645  40.797  10.573   6.153
 8847POPC   GL249646  40.696  10.403   6.153
 8847POPC   C1A49647  40.741  10.514   6.453
 8847POPC   D2A49648  40.810  10.497   6.753
 8847POPC   C3A49649  40.817  10.500   7.053
 8847POPC   C4A49650  40.797  10.508   7.353
 8847POPC   C1B49651  40.645  10.361   6.453
 8847POPC   C2B49652  40.601  10.294   6.753
 8847POPC   C3B49653  40.608  10.275   7.053
 8847POPC   C4B49654  40.663  10.314   7.353
 8848POPC   NC349655  25.299   8.228   5.553
 8848POPC   PO449656  25.262   8.168   5.853
 8848POPC   GL149657  25.217   8.152   6.153
 8848POPC   GL249658  25.364   8.259   6.153
 8848POPC   C1A49659  25.291   8.183   6.453
 8848POPC   D2A49660  25.246   8.246   6.753
 8848POPC   C3A49661  25.258   8.227   7.053
 8848POPC   C4A49662  25.279   8.201   7.353
 8848POPC   C1B49663  25.522   8.306   6.453
 8848POPC   C2B49664  25.531   8.237   6.753
 8848POPC   C3B49665  25.452   8.327   7.053
 8848POPC   C4B49666  25.508   8.289   7.353
 8849POPC   NC349667  17.548   9.781   5.553
 8849POPC   PO449668  17.534   9.710   5.853
 8849POPC   GL149669  17.465   9.749   6.153
 8849POPC   GL249670  17.463   9.633   6.153
 8849POPC   C1A49671  17.548   9.784   6.453
 8849POPC   D2A49672  17.553   9.767   6.753
 8849POPC   C3A49673  17.547   9.774   7.053
 8849POPC   C4A49674  17.551   9.712   7.353
 8849POPC   C1B49675  17.500   9.537   6.453
 8849POPC   C2B49676  17.496   9.521   6.753
 8849POPC   C3B49677  17.480   9.465   7.053
 8849POPC   C4B49678  17.538   9.483   7.353
 8850POPC   NC349679  26.791  31.502   5.553
 8850POPC   PO449680  26.832  31.456   5.853
 8850POPC   GL149681  26.816  31.423   6.153
 8850POPC   GL249682  26.672  31.448   6.153
 8850POPC   C1A49683  26.770  31.475   6.453
 8850POPC   D2A49684  26.861  31.512   6.753
 8850POPC   C3A49685  26.806  31.453   7.053
 8850POPC   C4A49686  26.769  31.495   7.353
 8850POPC   C1B49687  26.608  31.391   6.453
 8850POPC   C2B49688  26.551  31.317   6.753
 8850POPC   C3B49689  26.621  31.374   7.053
 8850POPC   C4B49690  26.604  31.331   7.353
 8851POPC   NC349691  36.084  33.848   5.553
 8851POPC   PO449692  36.097  33.783   5.853
 8851POPC   GL149693  36.157  33.836   6.153
 8851POPC   GL249694  36.125  33.701   6.153
 8851POPC   C1A49695  36.138  33.847   6.453
 8851POPC   D2A49696  36.082  33.837   6.753
 8851POPC   C3A49697  36.143  33.786   7.053
 8851POPC   C4A49698  36.171  33.847   7.353
 8851POPC   C1B49699  36.056  33.505   6.453
 8851POPC   C2B49700  36.121  33.578   6.753
 8851POPC   C3B49701  36.134  33.527   7.053
 8851POPC   C4B49702  36.087  33.547   7.353
 8852POPC   NC349703   2.745   2.024   5.553
 8852POPC   PO449704   2.805   2.025   5.853
 8852POPC   GL149705   2.773   1.946   6.153
 8852POPC   GL249706   2.813   1.896   6.153
 8852POPC   C1A49707   2.783   2.029   6.453
 8852POPC   D2A49708   2.784   1.995   6.753
 8852POPC   C3A49709   2.808   2.018   7.053
 8852POPC   C4A49710   2.720   1.942   7.353
 8852POPC   C1B49711   2.727   1.696   6.453
 8852POPC   C2B49712   2.744   1.788   6.753
 8852POPC   C3B49713   2.722   1.694   7.053
 8852POPC   C4B49714   2.797   1.755   7.353
 8853POPC   NC349715  28.419  25.254   5.553
 8853POPC   PO449716  28.384  25.229   5.853
 8853POPC   GL149717  28.376  25.257   6.153
 8853POPC   GL249718  28.384  25.358   6.153
 8853POPC   C1A49719  28.404  25.219   6.453
 8853POPC   D2A49720  28.410  25.236   6.753
 8853POPC   C3A49721  28.349  25.272   7.053
 8853POPC   C4A49722  28.408  25.231   7.353
 8853POPC   C1B49723  28.504  25.484   6.453
 8853POPC   C2B49724  28.479  25.453   6.753
 8853POPC   C3B49725  28.469  25.544   7.053
 8853POPC   C4B49726  28.433  25.482   7.353
 8854POPC   NC349727  44.666  43.885   5.553
 8854POPC   PO449728  44.707  43.858   5.853
 8854POPC   GL149729  44.686  43.930   6.153
 8854POPC   GL249730  44.807  43.825   6.153
 8854POPC   C1A49731  44.693  43.928   6.453
 8854POPC   D2A49732  44.689  43.895   6.753
 8854POPC   C3A49733  44.612  43.857   7.053
 8854POPC   C4A49734  44.701  43.852   7.353
 8854POPC   C1B49735  44.894  43.821   6.453
 8854POPC   C2B49736  44.951  43.862   6.753
 8854POPC   C3B49737  44.937  43.805   7.053
 8854POPC   C4B49738  44.902  43.861   7.353
 8855POPC   NC349739  17.553  42.340   5.553
 8855POPC   PO449740  17.506  42.333   5.853
 8855POPC   GL149741  17.498  42.346   6.153
 8855POPC   GL249742  17.670  42.289   6.153
 8855POPC   C1A49743  17.474  42.364   6.453
 8855POPC   D2A49744  17.503  42.310   6.753
 8855POPC   C3A49745  17.551  42.369   7.053
 8855POPC   C4A49746  17.487  42.315   7.353
 8855POPC   C1B49747  17.769  42.318   6.453
 8855POPC   C2B49748  17.720  42.293   6.753
 8855POPC   C3B49749  17.763  42.323   7.053
 8855POPC   C4B49750  17.769  42.307   7.353
 8856POPC   NC349751   9.797  33.012   5.553
 8856POPC   PO449752   9.732  33.070   5.853
 8856POPC   GL149753   9.774  33.071   6.153
 8856POPC   GL249754   9.775  33.105   6.153
 8856POPC   C1A49755   9.765  33.019   6.453
 8856POPC   D2A49756   9.723  33.063   6.753
 8856POPC   C3A49757   9.758  33.019   7.053
 8856POPC   C4A49758   9.793  33.037   7.353
 8856POPC   C1B49759   9.713  33.241   6.453
 8856POPC   C2B49760   9.754  33.261   6.753
 8856POPC   C3B49761   9.721  33.282   7.053
 8856POPC   C4B49762   9.717  33.307   7.353
 8857POPC   NC349763   8.959  11.294   5.553
 8857POPC   PO449764   9.021  11.319   5.853
 8857POPC   GL149765   9.006  11.344   6.153
 8857POPC   GL249766   8.860  11.243   6.153
 8857POPC   C1A49767   8.926  11.256   6.453
 8857POPC   D2A49768   8.953  11.305   6.753
 8857POPC   C3A49769   8.976  11.336   7.053
 8857POPC   C4A49770   9.007  11.259   7.353
 8857POPC   C1B49771   8.778  11.197   6.453
 8857POPC   C2B49772   8.724  11.200   6.753
 8857POPC   C3B49773   8.807  11.165   7.053
 8857POPC   C4B49774   8.786  11.201   7.353
 8858POPC   NC349775  15.164  30.680   5.553
 8858POPC   PO449776  15.180  30.688   5.853
 8858POPC   GL149777  15.228  30.659   6.153
 8858POPC   GL249778  15.090  30.781   6.153
 8858POPC   C1A49779  15.171  30.746   6.453
 8858POPC   D2A49780  15.196  30.651   6.753
 8858POPC   C3A49781  15.205  30.658   7.053
 8858POPC   C4A49782  15.143  30.725   7.353
 8858POPC   C1B49783  15.008  30.767   6.453
 8858POPC   C2B49784  14.995  30.790   6.753
 8858POPC   C3B49785  14.925  30.800   7.053
 8858POPC   C4B49786  14.985  30.809   7.353
 8859POPC   NC349787  24.522  24.528   5.553
 8859POPC   PO449788  24.453  24.476   5.853
 8859POPC   GL149789  24.491  24.523   6.153
 8859POPC   GL249790  24.591  24.441   6.153
 8859POPC   C1A49791  24.518  24.529   6.453
 8859POPC   D2A49792  24.441  24.456   6.753
 8859POPC   C3A49793  24.525  24.469   7.053
 8859POPC   C4A49794  24.499  24.492   7.353
 8859POPC   C1B49795  24.762  24.426   6.453
 8859POPC   C2B49796  24.695  24.410   6.753
 8859POPC   C3B49797  24.724  24.394   7.053
 8859POPC   C4B49798  24.761  24.354   7.353
 8860POPC   NC349799  23.730  15.954   5.553
 8860POPC   PO449800  23.721  15.939   5.853
 8860POPC   GL149801  23.666  15.908   6.153
 8860POPC   GL249802  23.715  15.801   6.153
 8860POPC   C1A49803  23.712  15.992   6.453
 8860POPC   D2A49804  23.727  16.000   6.753
 8860POPC   C3A49805  23.664  15.979   7.053
 8860POPC   C4A49806  23.726  15.947   7.353
 8860POPC   C1B49807  23.605  15.746   6.453
 8860POPC   C2B49808  23.577  15.731   6.753
 8860POPC   C3B49809  23.629  15.680   7.053
 8860POPC   C4B49810  23.596  15.752   7.353
 8861POPC   NC349811   9.710  20.602   5.553
 8861POPC   PO449812   9.732  20.634   5.853
 8861POPC   GL149813   9.792  20.615   6.153
 8861POPC   GL249814   9.680  20.738   6.153
 8861POPC   C1A49815   9.770  20.600   6.453
 8861POPC   D2A49816   9.781  20.571   6.753
 8861POPC   C3A49817   9.778  20.656   7.053
 8861POPC   C4A49818   9.742  20.645   7.353
 8861POPC   C1B49819   9.641  20.768   6.453
 8861POPC   C2B49820   9.592  20.779   6.753
 8861POPC   C3B49821   9.636  20.780   7.053
 8861POPC   C4B49822   9.623  20.803   7.353
 8862POPC   NC349823  34.594  43.150   5.553
 8862POPC   PO449824  34.547  43.079   5.853
 8862POPC   GL149825  34.548  43.156   6.153
 8862POPC   GL249826  34.468  42.995   6.153
 8862POPC   C1A49827  34.606  43.143   6.453
 8862POPC   D2A49828  34.566  43.104   6.753
 8862POPC   C3A49829  34.528  43.084   7.053
 8862POPC   C4A49830  34.604  43.089   7.353
 8862POPC   C1B49831  34.366  42.948   6.453
 8862POPC   C2B49832  34.382  42.954   6.753
 8862POPC   C3B49833  34.412  42.920   7.053
 8862POPC   C4B49834  34.409  42.924   7.353
 8863POPC   NC349835  39.976  39.980   5.553
 8863POPC   PO449836  39.990  40.020   5.853
 8863POPC   GL149837  39.984  40.022   6.153
 8863POPC   GL249838  39.929  39.971   6.153
 8863POPC   C1A49839  40.038  39.958   6.453
 8863POPC   D2A49840  39.961  39.973   6.753
 8863POPC   C3A49841  39.981  40.028   7.053
 8863POPC   C4A49842  40.040  40.030   7.353
 8863POPC   C1B49843  39.851  39.907   6.453
 8863POPC   C2B49844  39.769  39.875   6.753
 8863POPC   C3B49845  39.756  39.880   7.053
 8863POPC   C4B49846  39.821  39.870   7.353
 8864POPC   NC349847  24.501  28.382   5.553
 8864POPC   PO449848  24.465  28.403   5.853
 8864POPC   GL149849  24.473  28.332   6.153
 8864POPC   GL249850  24.391  28.436   6.153
 8864POPC   C1A49851  24.452  28.326   6.453
 8864POPC   D2A49852  24.525  28.387   6.753
 8864POPC   C3A49853  24.458  28.412   7.053
 8864POPC   C4A49854  24.451  28.327   7.353
 8864POPC   C1B49855  24.304  28.575   6.453
 8864POPC   C2B49856  24.323  28.543   6.753
 8864POPC   C3B49857  24.356  28.586   7.053
 8864POPC   C4B49858  24.345  28.591   7.353
 8865POPC   NC349859  43.841  21.347   5.553
 8865POPC   PO449860  43.876  21.380   5.853
 8865POPC   GL149861  43.854  21.391   6.153
 8865POPC   GL249862  44.004  21.334   6.153
 8865POPC   C1A49863  43.931  21.341   6.453
 8865POPC   D2A49864  43.881  21.402   6.753
 8865POPC   C3A49865  43.895  21.395   7.053
 8865POPC   C4A49866  43.925  21.343   7.353
 8865POPC   C1B49867  44.155  21.340   6.453
 8865POPC   C2B49868  44.118  21.350   6.753
 8865POPC   C3B49869  44.093  21.385   7.053
 8865POPC   C4B49870  44.143  21.321   7.353
 8866POPC   NC349871  22.132  31.460   5.553
 8866POPC   PO449872  22.177  31.522   5.853
 8866POPC   GL149873  22.166  31.450   6.153
 8866POPC   GL249874  22.283  31.424   6.153
 8866POPC   C1A49875  22.133  31.455   6.453
 8866POPC   D2A49876  22.191  31.427   6.753
 8866POPC   C3A49877  22.190  31.486   7.053
 8866POPC   C4A49878  22.139  31.425   7.353
 8866POPC   C1B49879  22.413  31.454   6.453
 8866POPC   C2B49880  22.420  31.466   6.753
 8866POPC   C3B49881  22.403  31.386   7.053
 8866POPC   C4B49882  22.424  31.406   7.353
 8867POPC   NC349883  34.625  36.097   5.553
 8867POPC   PO449884  34.613  36.174   5.853
 8867POPC   GL149885  34.621  36.092   6.153
 8867POPC   GL249886  34.677  36.063   6.153
 8867POPC   C1A49887  34.551  36.142   6.453
 8867POPC   D2A49888  34.558  36.086   6.753
 8867POPC   C3A49889  34.550  36.089   7.053
 8867POPC   C4A49890  34.538  36.083   7.353
 8867POPC   C1B49891  34.726  35.902   6.453
 8867POPC   C2B49892  34.725  35.929   6.753
 8867POPC   C3B49893  34.736  35.859   7.053
 8867POPC   C4B49894  34.658  35.942   7.353
 8868POPC   NC349895  40.007  11.327   5.553
 8868POPC   PO449896  40.018  11.286   5.853
 8868POPC   GL149897  39.968  11.269   6.153
 8868POPC   GL249898  39.977  11.228   6.153
 8868POPC   C1A49899  40.004  11.314   6.453
 8868POPC   D2A49900  40.019  11.301   6.753
 8868POPC   C3A49901  40.043  11.331   7.053
 8868POPC   C4A49902  39.992  11.331   7.353
 8868POPC   C1B49903  39.855  11.070   6.453
 8868POPC   C2B49904  39.847  11.077   6.753
 8868POPC   C3B49905  39.820  11.147   7.053
 8868POPC   C4B49906  39.875  11.073   7.353
 8869POPC   NC349907   8.986  39.267   5.553
 8869POPC   PO449908   8.961  39.205   5.853
 8869POPC   GL149909   8.994  39.234   6.153
 8869POPC   GL249910   9.022  39.403   6.153
 8869POPC   C1A49911   8.986  39.199   6.453
 8869POPC   D2A49912   8.938  39.239   6.753
 8869POPC   C3A49913   8.980  39.183   7.053
 8869POPC   C4A49914   8.956  39.200   7.353
 8869POPC   C1B49915   8.978  39.438   6.453
 8869POPC   C2B49916   9.007  39.428   6.753
 8869POPC   C3B49917   8.989  39.481   7.053
 8869POPC   C4B49918   9.006  39.464   7.353
 8870POPC   NC349919  19.830  15.977   5.553
 8870POPC   PO449920  19.872  15.983   5.853
 8870POPC   GL149921  19.881  15.980   6.153
 8870POPC   GL249922  19.772  16.077   6.153
 8870POPC   C1A49923  19.788  15.997   6.453
 8870POPC   D2A49924  19.829  15.989   6.753
 8870POPC   C3A49925  19.865  15.939   7.053
 8870POPC   C4A49926  19.786  15.921   7.353
 8870POPC   C1B49927  19.747  16.152   6.453
 8870POPC   C2B49928  19.763  16.207   6.753
 8870POPC   C3B49929  19.729  16.221   7.053
 8870POPC   C4B49930  19.762  16.170   7.353
 8871POPC   NC349931  11.348  30.730   5.553
 8871POPC   PO449932  11.291  30.656   5.853
 8871POPC   GL149933  11.300  30.704   6.153
 8871POPC   GL249934  11.373  30.659   6.153
 8871POPC   C1A49935  11.290  30.668   6.453
 8871POPC   D2A49936  11.265  30.680   6.753
 8871POPC   C3A49937  11.333  30.687   7.053
 8871POPC   C4A49938  11.340  30.696   7.353
 8871POPC   C1B49939  11.488  30.564   6.453
 8871POPC   C2B49940  11.486  30.614   6.753
 8871POPC   C3B49941  11.561  30.570   7.053
 8871POPC   C4B49942  11.510  30.640   7.353
 8872POPC   NC349943  19.840  21.372   5.553
 8872POPC   PO449944  19.813  21.414   5.853
 8872POPC   GL149945  19.786  21.377   6.153
 8872POPC   GL249946  19.834  21.485   6.153
 8872POPC   C1A49947  19.859  21.426   6.453
 8872POPC   D2A49948  19.853  21.337   6.753
 8872POPC   C3A49949  19.801  21.356   7.053
 8872POPC   C4A49950  19.818  21.404   7.353
 8872POPC   C1B49951  19.806  21.640   6.453
 8872POPC   C2B49952  19.744  21.655   6.753
 8872POPC   C3B49953  19.761  21.582   7.053
 8872POPC   C4B49954  19.776  21.614   7.353
 8873POPC   NC349955  42.304  12.831   5.553
 8873POPC   PO449956  42.294  12.870   5.853
 8873POPC   GL149957  42.356  12.884   6.153
 8873POPC   GL249958  42.265  12.979   6.153
 8873POPC   C1A49959  42.353  12.819   6.453
 8873POPC   D2A49960  42.327  12.872   6.753
 8873POPC   C3A49961  42.314  12.860   7.053
 8873POPC   C4A49962  42.368  12.898   7.353
 8873POPC   C1B49963  42.177  13.030   6.453
 8873POPC   C2B49964  42.172  13.036   6.753
 8873POPC   C3B49965  42.234  13.046   7.053
 8873POPC   C4B49966  42.165  13.046   7.353
 8874POPC   NC349967  39.246  27.577   5.553
 8874POPC   PO449968  39.225  27.547   5.853
 8874POPC   GL149969  39.204  27.573   6.153
 8874POPC   GL249970  39.340  27.534   6.153
 8874POPC   C1A49971  39.239  27.551   6.453
 8874POPC   D2A49972  39.251  27.595   6.753
 8874POPC   C3A49973  39.213  27.572   7.053
 8874POPC   C4A49974  39.226  27.633   7.353
 8874POPC   C1B49975  39.418  27.460   6.453
 8874POPC   C2B49976  39.421  27.442   6.753
 8874POPC   C3B49977  39.448  27.384   7.053
 8874POPC   C4B49978  39.453  27.425   7.353
 8875POPC   NC349979  14.363  26.792   5.553
 8875POPC   PO449980  14.411  26.862   5.853
 8875POPC   GL149981  14.411  26.824   6.153
 8875POPC   GL249982  14.459  26.742   6.153
 8875POPC   C1A49983  14.362  26.810   6.453
 8875POPC   D2A49984  14.424  26.811   6.753
 8875POPC   C3A49985  14.431  26.782   7.053
 8875POPC   C4A49986  14.363  26.821   7.353
 8875POPC   C1B49987  14.658  26.648   6.453
 8875POPC   C2B49988  14.613  26.635   6.753
 8875POPC   C3B49989  14.644  26.630   7.053
 8875POPC   C4B49990  14.617  26.712   7.353
 8876POPC   NC349991  43.851  26.011   5.553
 8876POPC   PO449992  43.875  25.993   5.853
 8876POPC   GL149993  43.874  26.085   6.153
 8876POPC   GL249994  43.825  25.927   6.153
 8876POPC   C1A49995  43.906  26.007   6.453
 8876POPC   D2A49996  43.884  26.045   6.753
 8876POPC   C3A49997  43.863  26.007   7.053
 8876POPC   C4A49998  43.894  26.060   7.353
 8876POPC   C1B49999  43.670  25.929   6.453
 8876POPC   C2B50000  43.666  25.914   6.753
 8876POPC   C3B50001  43.717  25.919   7.053
 8876POPC   C4B50002  43.668  25.918   7.353
 8877POPC   NC350003   8.948  15.228   5.553
 8877POPC   PO450004   9.018  15.205   5.853
 8877POPC   GL150005   8.939  15.130   6.153
 8877POPC   GL250006   8.870  15.283   6.153
 8877POPC   C1A50007   8.994  15.190   6.453
 8877POPC   D2A50008   8.978  15.200   6.753
 8877POPC   C3A50009   8.970  15.169   7.053
 8877POPC   C4A50010   8.992  15.226   7.353
 8877POPC   C1B50011   8.833  15.382   6.453
 8877POPC   C2B50012   8.827  15.374   6.753
 8877POPC   C3B50013   8.803  15.353   7.053
 8877POPC   C4B50014   8.787  15.360   7.353
 8878POPC   NC350015   4.352  36.154   5.553
 8878POPC   PO450016   4.354  36.099   5.853
 8878POPC   GL150017   4.318  36.141   6.153
 8878POPC   GL250018   4.382  36.196   6.153
 8878POPC   C1A50019   4.300  36.162   6.453
 8878POPC   D2A50020   4.357  36.131   6.753
 8878POPC   C3A50021   4.274  36.156   7.053
 8878POPC   C4A50022   4.309  36.130   7.353
 8878POPC   C1B50023   4.507  36.321   6.453
 8878POPC   C2B50024   4.547  36.306   6.753
 8878POPC   C3B50025   4.549  36.285   7.053
 8878POPC   C4B50026   4.544  36.320   7.353
 8879POPC   NC350027  26.078   3.573   5.553
 8879POPC   PO450028  26.055   3.509   5.853
 8879POPC   GL150029  26.005   3.511   6.153
 8879POPC   GL250030  26.134   3.565   6.153
 8879POPC   C1A50031  26.022   3.571   6.453
 8879POPC   D2A50032  26.042   3.556   6.753
 8879POPC   C3A50033  26.007   3.520   7.053
 8879POPC   C4A50034  26.086   3.565   7.353
 8879POPC   C1B50035  26.263   3.642   6.453
 8879POPC   C2B50036  26.254   3.717   6.753
 8879POPC   C3B50037  26.249   3.703   7.053
 8879POPC   C4B50038  26.229   3.722   7.353
 8880POPC   NC350039   5.077  33.769   5.553
 8880POPC   PO450040   5.099  33.804   5.853
 8880POPC   GL150041   5.127  33.847   6.153
 8880POPC   GL250042   4.947  33.776   6.153
 8880POPC   C1A50043   5.113  33.782   6.453
 8880POPC   D2A50044   5.049  33.782   6.753
 8880POPC   C3A50045   5.045  33.759   7.053
 8880POPC   C4A50046   5.071  33.830   7.353
 8880POPC   C1B50047   4.840  33.626   6.453
 8880POPC   C2B50048   4.893  33.664   6.753
 8880POPC   C3B50049   4.925  33.633   7.053
 8880POPC   C4B50050   4.848  33.705   7.353
 8881POPC   NC350051  19.815  32.979   5.553
 8881POPC   PO450052  19.876  33.047   5.853
 8881POPC   GL150053  19.853  32.988   6.153
 8881POPC   GL250054  19.756  33.008   6.153
 8881POPC   C1A50055  19.793  33.049   6.453
 8881POPC   D2A50056  19.794  33.065   6.753
 8881POPC   C3A50057  19.801  32.977   7.053
 8881POPC   C4A50058  19.796  33.015   7.353
 8881POPC   C1B50059  19.573  32.889   6.453
 8881POPC   C2B50060  19.586  32.866   6.753
 8881POPC   C3B50061  19.578  32.859   7.053
 8881POPC   C4B50062  19.586  32.922   7.353
 8882POPC   NC350063  43.897   6.692   5.553
 8882POPC   PO450064  43.894   6.612   5.853
 8882POPC   GL150065  43.907   6.672   6.153
 8882POPC   GL250066  43.962   6.529   6.153
 8882POPC   C1A50067  43.858   6.642   6.453
 8882POPC   D2A50068  43.927   6.683   6.753
 8882POPC   C3A50069  43.842   6.612   7.053
 8882POPC   C4A50070  43.929   6.690   7.353
 8882POPC   C1B50071  44.007   6.482   6.453
 8882POPC   C2B50072  44.081   6.412   6.753
 8882POPC   C3B50073  44.039   6.402   7.053
 8882POPC   C4B50074  44.079   6.489   7.353
 8883POPC   NC350075   2.038  43.887   5.553
 8883POPC   PO450076   1.943  43.912   5.853
 8883POPC   GL150077   1.957  43.921   6.153
 8883POPC   GL250078   2.071  43.777   6.153
 8883POPC   C1A50079   1.956  43.848   6.453
 8883POPC   D2A50080   1.978  43.901   6.753
 8883POPC   C3A50081   2.027  43.857   7.053
 8883POPC   C4A50082   1.989  43.850   7.353
 8883POPC   C1B50083   2.209  43.761   6.453
 8883POPC   C2B50084   2.237  43.758   6.753
 8883POPC   C3B50085   2.229  43.790   7.053
 8883POPC   C4B50086   2.198  43.760   7.353
 8884POPC   NC350087  17.518  39.184   5.553
 8884POPC   PO450088  17.551  39.225   5.853
 8884POPC   GL150089  17.547  39.212   6.153
 8884POPC   GL250090  17.586  39.230   6.153
 8884POPC   C1A50091  17.538  39.196   6.453
 8884POPC   D2A50092  17.498  39.219   6.753
 8884POPC   C3A50093  17.534  39.197   7.053
 8884POPC   C4A50094  17.531  39.181   7.353
 8884POPC   C1B50095  17.754  39.248   6.453
 8884POPC   C2B50096  17.748  39.207   6.753
 8884POPC   C3B50097  17.758  39.203   7.053
 8884POPC   C4B50098  17.758  39.261   7.353
 8885POPC   NC350099  40.741   1.261   5.553
 8885POPC   PO450100  40.797   1.192   5.853
 8885POPC   GL150101  40.750   1.231   6.153
 8885POPC   GL250102  40.887   1.187   6.153
 8885POPC   C1A50103  40.786   1.171   6.453
 8885POPC   D2A50104  40.737   1.172   6.753
 8885POPC   C3A50105  40.781   1.216   7.053
 8885POPC   C4A50106  40.748   1.205   7.353
 8885POPC   C1B50107  41.031   1.204   6.453
 8885POPC   C2B50108  41.068   1.178   6.753
 8885POPC   C3B50109  41.043   1.242   7.053
 8885POPC   C4B50110  40.989   1.199   7.353
 8886POPC   NC350111  22.180   4.361   5.553
 8886POPC   PO450112  22.125   4.316   5.853
 8886POPC   GL150113  22.183   4.293   6.153
 8886POPC   GL250114  22.243   4.390   6.153
 8886POPC   C1A50115  22.174   4.313   6.453
 8886POPC   D2A50116  22.176   4.314   6.753
 8886POPC   C3A50117  22.194   4.298   7.053
 8886POPC   C4A50118  22.194   4.364   7.353
 8886POPC   C1B50119  22.416   4.349   6.453
 8886POPC   C2B50120  22.384   4.414   6.753
 8886POPC   C3B50121  22.432   4.377   7.053
 8886POPC   C4B50122  22.361   4.411   7.353
 8887POPC   NC350123   7.455  26.779   5.553
 8887POPC   PO450124   7.423  26.837   5.853
 8887POPC   GL150125   7.462  26.854   6.153
 8887POPC   GL250126   7.318  26.960   6.153
 8887POPC   C1A50127   7.391  26.797   6.453
 8887POPC   D2A50128   7.447  26.849   6.753
 8887POPC   C3A50129   7.399  26.843   7.053
 8887POPC   C4A50130   7.458  26.807   7.353
 8887POPC   C1B50131   7.265  27.046   6.453
 8887POPC   C2B50132   7.256  27.027   6.753
 8887POPC   C3B50133   7.212  27.033   7.053
 8887POPC   C4B50134   7.278  26.963   7.353
 8888POPC   NC350135  40.791  13.610   5.553
 8888POPC   PO450136  40.744  13.677   5.853
 8888POPC   GL150137  40.826  13.612   6.153
 8888POPC   GL250138  40.863  13.544   6.153
 8888POPC   C1A50139  40.818  13.627   6.453
 8888POPC   D2A50140  40.755  13.637   6.753
 8888POPC   C3A50141  40.762  13.598   7.053
 8888POPC   C4A50142  40.789  13.635   7.353
 8888POPC   C1B50143  40.900  13.378   6.453
 8888POPC   C2B50144  40.960  13.373   6.753
 8888POPC   C3B50145  40.892  13.439   7.053
 8888POPC   C4B50146  40.871  13.378   7.353
 8889POPC   NC350147  22.135  40.016   5.553
 8889POPC   PO450148  22.167  40.026   5.853
 8889POPC   GL150149  22.201  39.997   6.153
 8889POPC   GL250150  22.309  39.979   6.153
 8889POPC   C1A50151  22.118  39.976   6.453
 8889POPC   D2A50152  22.147  40.031   6.753
 8889POPC   C3A50153  22.208  39.957   7.053
 8889POPC   C4A50154  22.136  39.961   7.353
 8889POPC   C1B50155  22.367  39.941   6.453
 8889POPC   C2B50156  22.349  39.930   6.753
 8889POPC   C3B50157  22.397  39.924   7.053
 8889POPC   C4B50158  22.347  39.857   7.353
 8890POPC   NC350159   8.148  11.288   5.553
 8890POPC   PO450160   8.170  11.319   5.853
 8890POPC   GL150161   8.153  11.296   6.153
 8890POPC   GL250162   8.282  11.230   6.153
 8890POPC   C1A50163   8.167  11.322   6.453
 8890POPC   D2A50164   8.177  11.343   6.753
 8890POPC   C3A50165   8.239  11.256   7.053
 8890POPC   C4A50166   8.187  11.343   7.353
 8890POPC   C1B50167   8.459  11.268   6.453
 8890POPC   C2B50168   8.427  11.188   6.753
 8890POPC   C3B50169   8.406  11.234   7.053
 8890POPC   C4B50170   8.418  11.193   7.353
 8891POPC   NC350171   6.615  34.610   5.553
 8891POPC   PO450172   6.624  34.581   5.853
 8891POPC   GL150173   6.659  34.616   6.153
 8891POPC   GL250174   6.662  34.482   6.153
 8891POPC   C1A50175   6.681  34.541   6.453
 8891POPC   D2A50176   6.686  34.540   6.753
 8891POPC   C3A50177   6.654  34.599   7.053
 8891POPC   C4A50178   6.686  34.623   7.353
 8891POPC   C1B50179   6.560  34.300   6.453
 8891POPC   C2B50180   6.625  34.378   6.753
 8891POPC   C3B50181   6.586  34.305   7.053
 8891POPC   C4B50182   6.622  34.340   7.353
 8892POPC   NC350183  43.895  30.707   5.553
 8892POPC   PO450184  43.859  30.648   5.853
 8892POPC   GL150185  43.836  30.731   6.153
 8892POPC   GL250186  43.726  30.744   6.153
 8892POPC   C1A50187  43.868  30.739   6.453
 8892POPC   D2A50188  43.890  30.704   6.753
 8892POPC   C3A50189  43.903  30.688   7.053
 8892POPC   C4A50190  43.887  30.681   7.353
 8892POPC   C1B50191  43.587  30.759   6.453
 8892POPC   C2B50192  43.654  30.745   6.753
 8892POPC   C3B50193  43.642  30.677   7.053
 8892POPC   C4B50194  43.610  30.714   7.353
 8893POPC   NC350195   3.512   8.972   5.553
 8893POPC   PO450196   3.526   8.964   5.853
 8893POPC   GL150197   3.494   8.941   6.153
 8893POPC   GL250198   3.582   8.890   6.153
 8893POPC   C1A50199   3.513   9.011   6.453
 8893POPC   D2A50200   3.552   8.969   6.753
 8893POPC   C3A50201   3.539   8.974   7.053
 8893POPC   C4A50202   3.522   8.982   7.353
 8893POPC   C1B50203   3.640   8.704   6.453
 8893POPC   C2B50204   3.597   8.733   6.753
 8893POPC   C3B50205   3.580   8.728   7.053
 8893POPC   C4B50206   3.621   8.738   7.353
 8894POPC   NC350207  23.677  18.275   5.553
 8894POPC   PO450208  23.699  18.244   5.853
 8894POPC   GL150209  23.761  18.266   6.153
 8894POPC   GL250210  23.727  18.405   6.153
 8894POPC   C1A50211  23.754  18.243   6.453
 8894POPC   D2A50212  23.726  18.242   6.753
 8894POPC   C3A50213  23.704  18.283   7.053
 8894POPC   C4A50214  23.753  18.238   7.353
 8894POPC   C1B50215  23.760  18.566   6.453
 8894POPC   C2B50216  23.765  18.542   6.753
 8894POPC   C3B50217  23.812  18.575   7.053
 8894POPC   C4B50218  23.755  18.492   7.353
 8895POPC   NC350219  26.030  27.593   5.553
 8895POPC   PO450220  26.049  27.557   5.853
 8895POPC   GL150221  26.084  27.585   6.153
 8895POPC   GL250222  26.049  27.764   6.153
 8895POPC   C1A50223  26.016  27.600   6.453
 8895POPC   D2A50224  26.000  27.609   6.753
 8895POPC   C3A50225  26.076  27.545   7.053
 8895POPC   C4A50226  26.087  27.578   7.353
 8895POPC   C1B50227  26.068  27.835   6.453
 8895POPC   C2B50228  25.996  27.801   6.753
 8895POPC   C3B50229  26.058  27.796   7.053
 8895POPC   C4B50230  26.023  27.816   7.353
 8896POPC   NC350231  24.481  39.976   5.553
 8896POPC   PO450232  24.520  40.051   5.853
 8896POPC   GL150233  24.489  39.975   6.153
 8896POPC   GL250234  24.426  40.118   6.153
 8896POPC   C1A50235  24.491  40.007   6.453
 8896POPC   D2A50236  24.480  40.043   6.753
 8896POPC   C3A50237  24.456  39.966   7.053
 8896POPC   C4A50238  24.475  39.983   7.353
 8896POPC   C1B50239  24.437  40.250   6.453
 8896POPC   C2B50240  24.375  40.224   6.753
 8896POPC   C3B50241  24.406  40.296   7.053
 8896POPC   C4B50242  24.463  40.246   7.353
 8897POPC   NC350243   2.029  44.668   5.553
 8897POPC   PO450244   2.035  44.625   5.853
 8897POPC   GL150245   1.998  44.703   6.153
 8897POPC   GL250246   2.073  44.595   6.153
 8897POPC   C1A50247   2.022  44.615   6.453
 8897POPC   D2A50248   2.038  44.681   6.753
 8897POPC   C3A50249   1.955  44.692   7.053
 8897POPC   C4A50250   2.020  44.614   7.353
 8897POPC   C1B50251   2.184  44.538   6.453
 8897POPC   C2B50252   2.216  44.570   6.753
 8897POPC   C3B50253   2.237  44.501   7.053
 8897POPC   C4B50254   2.237  44.557   7.353
 8898POPC   NC350255  42.320  35.369   5.553
 8898POPC   PO450256  42.371  35.361   5.853
 8898POPC   GL150257  42.379  35.340   6.153
 8898POPC   GL250258  42.402  35.253   6.153
 8898POPC   C1A50259  42.311  35.384   6.453
 8898POPC   D2A50260  42.361  35.332   6.753
 8898POPC   C3A50261  42.369  35.387   7.053
 8898POPC   C4A50262  42.365  35.388   7.353
 8898POPC   C1B50263  42.382  35.134   6.453
 8898POPC   C2B50264  42.412  35.068   6.753
 8898POPC   C3B50265  42.394  35.090   7.053
 8898POPC   C4B50266  42.332  35.074   7.353
 8899POPC   NC350267  15.202  26.008   5.553
 8899POPC   PO450268  15.190  26.021   5.853
 8899POPC   GL150269  15.206  26.073   6.153
 8899POPC   GL250270  15.075  26.108   6.153
 8899POPC   C1A50271  15.160  26.044   6.453
 8899POPC   D2A50272  15.159  25.997   6.753
 8899POPC   C3A50273  15.131  26.049   7.053
 8899POPC   C4A50274  15.159  26.064   7.353
 8899POPC   C1B50275  14.974  26.126   6.453
 8899POPC   C2B50276  14.959  26.151   6.753
 8899POPC   C3B50277  14.996  26.165   7.053
 8899POPC   C4B50278  14.937  26.145   7.353
 8900POPC   NC350279  30.702  19.076   5.553
 8900POPC   PO450280  30.652  19.009   5.853
 8900POPC   GL150281  30.674  19.025   6.153
 8900POPC   GL250282  30.761  18.898   6.153
 8900POPC   C1A50283  30.736  19.069   6.453
 8900POPC   D2A50284  30.696  19.105   6.753
 8900POPC   C3A50285  30.691  19.026   7.053
 8900POPC   C4A50286  30.721  19.081   7.353
 8900POPC   C1B50287  30.828  18.842   6.453
 8900POPC   C2B50288  30.761  18.878   6.753
 8900POPC   C3B50289  30.761  18.828   7.053
 8900POPC   C4B50290  30.842  18.813   7.353
 8901POPC   NC350291  15.994  31.473   5.553
 8901POPC   PO450292  15.990  31.479   5.853
 8901POPC   GL150293  15.929  31.432   6.153
 8901POPC   GL250294  15.845  31.374   6.153
 8901POPC   C1A50295  15.920  31.494   6.453
 8901POPC   D2A50296  15.997  31.519   6.753
 8901POPC   C3A50297  15.988  31.441   7.053
 8901POPC   C4A50298  15.932  31.470   7.353
 8901POPC   C1B50299  15.796  31.262   6.453
 8901POPC   C2B50300  15.793  31.337   6.753
 8901POPC   C3B50301  15.759  31.318   7.053
 8901POPC   C4B50302  15.771  31.329   7.353
 8902POPC   NC350303  27.546  33.009   5.553
 8902POPC   PO450304  27.572  33.060   5.853
 8902POPC   GL150305  27.608  33.074   6.153
 8902POPC   GL250306  27.439  33.030   6.153
 8902POPC   C1A50307  27.628  33.038   6.453
 8902POPC   D2A50308  27.635  32.998   6.753
 8902POPC   C3A50309  27.637  33.014   7.053
 8902POPC   C4A50310  27.593  33.021   7.353
 8902POPC   C1B50311  27.382  33.066   6.453
 8902POPC   C2B50312  27.322  33.003   6.753
 8902POPC   C3B50313  27.317  33.030   7.053
 8902POPC   C4B50314  27.389  33.055   7.353
 8903POPC   NC350315  33.768  27.553   5.553
 8903POPC   PO450316  33.771  27.564   5.853
 8903POPC   GL150317  33.818  27.627   6.153
 8903POPC   GL250318  33.952  27.655   6.153
 8903POPC   C1A50319  33.758  27.602   6.453
 8903POPC   D2A50320  33.845  27.610   6.753
 8903POPC   C3A50321  33.825  27.571   7.053
 8903POPC   C4A50322  33.771  27.611   7.353
 8903POPC   C1B50323  34.028  27.755   6.453
 8903POPC   C2B50324  33.992  27.687   6.753
 8903POPC   C3B50325  34.031  27.694   7.053
 8903POPC   C4B50326  34.051  27.765   7.353
 8904POPC   NC350327   3.555  15.200   5.553
 8904POPC   PO450328   3.538  15.206   5.853
 8904POPC   GL150329   3.540  15.186   6.153
 8904POPC   GL250330   3.542  15.052   6.153
 8904POPC   C1A50331   3.536  15.131   6.453
 8904POPC   D2A50332   3.576  15.185   6.753
 8904POPC   C3A50333   3.567  15.220   7.053
 8904POPC   C4A50334   3.531  15.165   7.353
 8904POPC   C1B50335   3.542  14.910   6.453
 8904POPC   C2B50336   3.548  14.927   6.753
 8904POPC   C3B50337   3.587  14.886   7.053
 8904POPC   C4B50338   3.559  14.955   7.353
 8905POPC   NC350339  33.069   8.951   5.553
 8905POPC   PO450340  33.056   8.970   5.853
 8905POPC   GL150341  33.044   8.989   6.153
 8905POPC   GL250342  33.069   8.841   6.153
 8905POPC   C1A50343  32.981   8.935   6.453
 8905POPC   D2A50344  33.055   8.954   6.753
 8905POPC   C3A50345  33.003   8.951   7.053
 8905POPC   C4A50346  33.055   8.924   7.353
 8905POPC   C1B50347  33.164   8.775   6.453
 8905POPC   C2B50348  33.120   8.757   6.753
 8905POPC   C3B50349  33.175   8.714   7.053
 8905POPC   C4B50350  33.163   8.802   7.353
 8906POPC   NC350351  24.455  36.884   5.553
 8906POPC   PO450352  24.488  36.937   5.853
 8906POPC   GL150353  24.540  36.935   6.153
 8906POPC   GL250354  24.360  36.842   6.153
 8906POPC   C1A50355  24.505  36.910   6.453
 8906POPC   D2A50356  24.536  36.880   6.753
 8906POPC   C3A50357  24.489  36.864   7.053
 8906POPC   C4A50358  24.477  36.855   7.353
 8906POPC   C1B50359  24.252  36.790   6.453
 8906POPC   C2B50360  24.219  36.779   6.753
 8906POPC   C3B50361  24.226  36.838   7.053
 8906POPC   C4B50362  24.258  36.775   7.353
 8907POPC   NC350363  39.242   4.293   5.553
 8907POPC   PO450364  39.223   4.364   5.853
 8907POPC   GL150365  39.213   4.290   6.153
 8907POPC   GL250366  39.360   4.346   6.153
 8907POPC   C1A50367  39.254   4.323   6.453
 8907POPC   D2A50368  39.245   4.367   6.753
 8907POPC   C3A50369  39.244   4.317   7.053
 8907POPC   C4A50370  39.246   4.291   7.353
 8907POPC   C1B50371  39.403   4.447   6.453
 8907POPC   C2B50372  39.476   4.466   6.753
 8907POPC   C3B50373  39.410   4.461   7.053
 8907POPC   C4B50374  39.454   4.451   7.353
 8908POPC   NC350375  22.963  24.478   5.553
 8908POPC   PO450376  22.968  24.530   5.853
 8908POPC   GL150377  22.903  24.498   6.153
 8908POPC   GL250378  23.006  24.579   6.153
 8908POPC   C1A50379  22.965  24.478   6.453
 8908POPC   D2A50380  22.959  24.487   6.753
 8908POPC   C3A50381  22.925  24.511   7.053
 8908POPC   C4A50382  22.945  24.493   7.353
 8908POPC   C1B50383  23.178  24.578   6.453
 8908POPC   C2B50384  23.124  24.550   6.753
 8908POPC   C3B50385  23.176  24.555   7.053
 8908POPC   C4B50386  23.204  24.553   7.353
 8909POPC   NC350387   3.535   1.226   5.553
 8909POPC   PO450388   3.542   1.262   5.853
 8909POPC   GL150389   3.576   1.176   6.153
 8909POPC   GL250390   3.464   1.266   6.153
 8909POPC   C1A50391   3.544   1.221   6.453
 8909POPC   D2A50392   3.572   1.263   6.753
 8909POPC   C3A50393   3.504   1.218   7.053
 8909POPC   C4A50394   3.580   1.177   7.353
 8909POPC   C1B50395   3.364   1.331   6.453
 8909POPC   C2B50396   3.316   1.290   6.753
 8909POPC   C3B50397   3.364   1.310   7.053
 8909POPC   C4B50398   3.277   1.322   7.353
 8910POPC   NC350399  13.676   7.425   5.553
 8910POPC   PO450400  13.620   7.457   5.853
 8910POPC   GL150401  13.615   7.396   6.153
 8910POPC   GL250402  13.539   7.457   6.153
 8910POPC   C1A50403  13.614   7.420   6.453
 8910POPC   D2A50404  13.578   7.424   6.753
 8910POPC   C3A50405  13.593   7.448   7.053
 8910POPC   C4A50406  13.665   7.416   7.353
 8910POPC   C1B50407  13.378   7.469   6.453
 8910POPC   C2B50408  13.340   7.421   6.753
 8910POPC   C3B50409  13.431   7.496   7.053
 8910POPC   C4B50410  13.407   7.454   7.353
 8911POPC   NC350411  22.919  12.809   5.553
 8911POPC   PO450412  22.954  12.811   5.853
 8911POPC   GL150413  22.909  12.879   6.153
 8911POPC   GL250414  22.950  13.002   6.153
 8911POPC   C1A50415  22.910  12.824   6.453
 8911POPC   D2A50416  22.969  12.849   6.753
 8911POPC   C3A50417  22.906  12.819   7.053
 8911POPC   C4A50418  22.962  12.821   7.353
 8911POPC   C1B50419  22.896  13.143   6.453
 8911POPC   C2B50420  22.897  13.071   6.753
 8911POPC   C3B50421  22.963  13.140   7.053
 8911POPC   C4B50422  22.880  13.090   7.353
 8912POPC   NC350423  36.126  19.884   5.553
 8912POPC   PO450424  36.087  19.841   5.853
 8912POPC   GL150425  36.082  19.852   6.153
 8912POPC   GL250426  35.979  19.811   6.153
 8912POPC   C1A50427  36.145  19.825   6.453
 8912POPC   D2A50428  36.085  19.850   6.753
 8912POPC   C3A50429  36.143  19.854   7.053
 8912POPC   C4A50430  36.123  19.811   7.353
 8912POPC   C1B50431  35.860  19.790   6.453
 8912POPC   C2B50432  35.884  19.807   6.753
 8912POPC   C3B50433  35.856  19.803   7.053
 8912POPC   C4B50434  35.880  19.831   7.353
 8913POPC   NC350435   9.699  37.643   5.553
 8913POPC   PO450436   9.745  37.683   5.853
 8913POPC   GL150437   9.700  37.660   6.153
 8913POPC   GL250438   9.666  37.789   6.153
 8913POPC   C1A50439   9.714  37.729   6.453
 8913POPC   D2A50440   9.736  37.722   6.753
 8913POPC   C3A50441   9.790  37.700   7.053
 8913POPC   C4A50442   9.749  37.657   7.353
 8913POPC   C1B50443   9.730  37.927   6.453
 8913POPC   C2B50444   9.708  37.894   6.753
 8913POPC   C3B50445   9.708  37.872   7.053
 8913POPC   C4B50446   9.669  37.945   7.353
 8914POPC   NC350447   5.053  15.939   5.553
 8914POPC   PO450448   5.140  15.962   5.853
 8914POPC   GL150449   5.111  15.994   6.153
 8914POPC   GL250450   4.994  15.979   6.153
 8914POPC   C1A50451   5.060  15.981   6.453
 8914POPC   D2A50452   5.135  15.981   6.753
 8914POPC   C3A50453   5.058  15.918   7.053
 8914POPC   C4A50454   5.128  15.918   7.353
 8914POPC   C1B50455   4.876  16.109   6.453
 8914POPC   C2B50456   4.888  16.071   6.753
 8914POPC   C3B50457   4.887  16.079   7.053
 8914POPC   C4B50458   4.882  16.064   7.353
 8915POPC   NC350459  36.915  34.593   5.553
 8915POPC   PO450460  36.928  34.560   5.853
 8915POPC   GL150461  36.895  34.545   6.153
 8915POPC   GL250462  36.781  34.581   6.153
 8915POPC   C1A50463  36.900  34.538   6.453
 8915POPC   D2A50464  36.907  34.582   6.753
 8915POPC   C3A50465  36.882  34.572   7.053
 8915POPC   C4A50466  36.864  34.528   7.353
 8915POPC   C1B50467  36.652  34.680   6.453
 8915POPC   C2B50468  36.709  34.654   6.753
 8915POPC   C3B50469  36.696  34.666   7.053
 8915POPC   C4B50470  36.681  34.678   7.353
 8916POPC   NC350471  10.562  30.656   5.553
 8916POPC   PO450472  10.565  30.682   5.853
 8916POPC   GL150473  10.496  30.659   6.153
 8916POPC   GL250474  10.484  30.570   6.153
 8916POPC   C1A50475  10.516  30.651   6.453
 8916POPC   D2A50476  10.571  30.661   6.753
 8916POPC   C3A50477  10.526  30.714   7.053
 8916POPC   C4A50478  10.553  30.675   7.353
 8916POPC   C1B50479  10.397  30.464   6.453
 8916POPC   C2B50480  10.344  30.473   6.753
 8916POPC   C3B50481  10.406  30.476   7.053
 8916POPC   C4B50482  10.327  30.546   7.353
 8917POPC   NC350483  41.558  20.604   5.553
 8917POPC   PO450484  41.579  20.654   5.853
 8917POPC   GL150485  41.593  20.596   6.153
 8917POPC   GL250486  41.637  20.615   6.153
 8917POPC   C1A50487  41.547  20.586   6.453
 8917POPC   D2A50488  41.525  20.609   6.753
 8917POPC   C3A50489  41.591  20.659   7.053
 8917POPC   C4A50490  41.518  20.604   7.353
 8917POPC   C1B50491  41.815  20.755   6.453
 8917POPC   C2B50492  41.826  20.680   6.753
 8917POPC   C3B50493  41.769  20.666   7.053
 8917POPC   C4B50494  41.741  20.666   7.353
 8918POPC   NC350495  37.662  24.486   5.553
 8918POPC   PO450496  37.634  24.479   5.853
 8918POPC   GL150497  37.684  24.521   6.153
 8918POPC   GL250498  37.686  24.594   6.153
 8918POPC   C1A50499  37.662  24.448   6.453
 8918POPC   D2A50500  37.658  24.508   6.753
 8918POPC   C3A50501  37.687  24.531   7.053
 8918POPC   C4A50502  37.710  24.525   7.353
 8918POPC   C1B50503  37.636  24.745   6.453
 8918POPC   C2B50504  37.654  24.697   6.753
 8918POPC   C3B50505  37.582  24.703   7.053
 8918POPC   C4B50506  37.648  24.688   7.353
 8919POPC   NC350507  26.070  15.919   5.553
 8919POPC   PO450508  26.082  15.944   5.853
 8919POPC   GL150509  26.040  15.911   6.153
 8919POPC   GL250510  26.076  15.861   6.153
 8919POPC   C1A50511  26.044  15.953   6.453
 8919POPC   D2A50512  26.059  15.931   6.753
 8919POPC   C3A50513  25.998  16.000   7.053
 8919POPC   C4A50514  26.081  15.950   7.353
 8919POPC   C1B50515  26.233  15.730   6.453
 8919POPC   C2B50516  26.178  15.731   6.753
 8919POPC   C3B50517  26.213  15.805   7.053
 8919POPC   C4B50518  26.194  15.720   7.353
 8920POPC   NC350519  43.148  17.554   5.553
 8920POPC   PO450520  43.104  17.477   5.853
 8920POPC   GL150521  43.093  17.475   6.153
 8920POPC   GL250522  43.050  17.564   6.153
 8920POPC   C1A50523  43.109  17.532   6.453
 8920POPC   D2A50524  43.125  17.535   6.753
 8920POPC   C3A50525  43.081  17.519   7.053
 8920POPC   C4A50526  43.127  17.549   7.353
 8920POPC   C1B50527  42.892  17.646   6.453
 8920POPC   C2B50528  42.927  17.646   6.753
 8920POPC   C3B50529  42.856  17.628   7.053
 8920POPC   C4B50530  42.856  17.669   7.353
 8921POPC   NC350531   1.960  17.544   5.553
 8921POPC   PO450532   1.975  17.472   5.853
 8921POPC   GL150533   1.944  17.544   6.153
 8921POPC   GL250534   1.910  17.603   6.153
 8921POPC   C1A50535   1.971  17.524   6.453
 8921POPC   D2A50536   1.991  17.460   6.753
 8921POPC   C3A50537   2.001  17.473   7.053
 8921POPC   C4A50538   2.001  17.467   7.353
 8921POPC   C1B50539   1.940  17.720   6.453
 8921POPC   C2B50540   1.934  17.777   6.753
 8921POPC   C3B50541   1.882  17.708   7.053
 8921POPC   C4B50542   1.896  17.782   7.353
 8922POPC   NC350543   8.234  42.318   5.553
 8922POPC   PO450544   8.220  42.292   5.853
 8922POPC   GL150545   8.168  42.374   6.153
 8922POPC   GL250546   8.114  42.262   6.153
 8922POPC   C1A50547   8.205  42.331   6.453
 8922POPC   D2A50548   8.218  42.364   6.753
 8922POPC   C3A50549   8.209  42.293   7.053
 8922POPC   C4A50550   8.203  42.373   7.353
 8922POPC   C1B50551   8.111  42.134   6.453
 8922POPC   C2B50552   8.070  42.068   6.753
 8922POPC   C3B50553   8.157  42.066   7.053
 8922POPC   C4B50554   8.145  42.104   7.353
 8923POPC   NC350555  11.273   1.200   5.553
 8923POPC   PO450556  11.256   1.260   5.853
 8923POPC   GL150557  11.287   1.183   6.153
 8923POPC   GL250558  11.389   1.231   6.153
 8923POPC   C1A50559  11.273   1.241   6.453
 8923POPC   D2A50560  11.296   1.168   6.753
 8923POPC   C3A50561  11.307   1.185   7.053
 8923POPC   C4A50562  11.338   1.219   7.353
 8923POPC   C1B50563  11.506   1.210   6.453
 8923POPC   C2B50564  11.532   1.225   6.753
 8923POPC   C3B50565  11.514   1.173   7.053
 8923POPC   C4B50566  11.596   1.159   7.353
 8924POPC   NC350567  14.452   2.732   5.553
 8924POPC   PO450568  14.356   2.731   5.853
 8924POPC   GL150569  14.394   2.761   6.153
 8924POPC   GL250570  14.247   2.702   6.153
 8924POPC   C1A50571  14.451   2.758   6.453
 8924POPC   D2A50572  14.436   2.781   6.753
 8924POPC   C3A50573  14.354   2.742   7.053
 8924POPC   C4A50574  14.390   2.757   7.353
 8924POPC   C1B50575  14.226   2.623   6.453
 8924POPC   C2B50576  14.211   2.669   6.753
 8924POPC   C3B50577  14.155   2.626   7.053
 8924POPC   C4B50578  14.223   2.679   7.353
 8925POPC   NC350579  37.670  30.727   5.553
 8925POPC   PO450580  37.710  30.747   5.853
 8925POPC   GL150581  37.684  30.673   6.153
 8925POPC   GL250582  37.774  30.698   6.153
 8925POPC   C1A50583  37.706  30.745   6.453
 8925POPC   D2A50584  37.667  30.649   6.753
 8925POPC   C3A50585  37.688  30.727   7.053
 8925POPC   C4A50586  37.728  30.673   7.353
 8925POPC   C1B50587  37.890  30.725   6.453
 8925POPC   C2B50588  37.873  30.808   6.753
 8925POPC   C3B50589  37.905  30.750   7.053
 8925POPC   C4B50590  37.885  30.713   7.353
 8926POPC   NC350591  35.400   1.242   5.553
 8926POPC   PO450592  35.349   1.189   5.853
 8926POPC   GL150593  35.351   1.250   6.153
 8926POPC   GL250594  35.408   1.293   6.153
 8926POPC   C1A50595  35.330   1.197   6.453
 8926POPC   D2A50596  35.319   1.180   6.753
 8926POPC   C3A50597  35.398   1.220   7.053
 8926POPC   C4A50598  35.373   1.196   7.353
 8926POPC   C1B50599  35.451   1.466   6.453
 8926POPC   C2B50600  35.437   1.456   6.753
 8926POPC   C3B50601  35.411   1.437   7.053
 8926POPC   C4B50602  35.494   1.447   7.353
 8927POPC   NC350603  37.633  39.971   5.553
 8927POPC   PO450604  37.658  40.015   5.853
 8927POPC   GL150605  37.678  40.026   6.153
 8927POPC   GL250606  37.653  40.088   6.153
 8927POPC   C1A50607  37.640  40.031   6.453
 8927POPC   D2A50608  37.676  39.989   6.753
 8927POPC   C3A50609  37.688  40.022   7.053
 8927POPC   C4A50610  37.635  39.976   7.353
 8927POPC   C1B50611  37.548  40.282   6.453
 8927POPC   C2B50612  37.543  40.241   6.753
 8927POPC   C3B50613  37.579  40.204   7.053
 8927POPC   C4B50614  37.627  40.210   7.353
 8928POPC   NC350615  18.287   2.000   5.553
 8928POPC   PO450616  18.293   2.014   5.853
 8928POPC   GL150617  18.253   1.972   6.153
 8928POPC   GL250618  18.323   2.137   6.153
 8928POPC   C1A50619  18.261   2.025   6.453
 8928POPC   D2A50620  18.277   2.026   6.753
 8928POPC   C3A50621  18.278   1.992   7.053
 8928POPC   C4A50622  18.300   2.001   7.353
 8928POPC   C1B50623  18.387   2.263   6.453
 8928POPC   C2B50624  18.336   2.178   6.753
 8928POPC   C3B50625  18.327   2.176   7.053
 8928POPC   C4B50626  18.381   2.256   7.353
 8929POPC   NC350627  16.765  40.002   5.553
 8929POPC   PO450628  16.705  39.995   5.853
 8929POPC   GL150629  16.736  40.029   6.153
 8929POPC   GL250630  16.817  39.879   6.153
 8929POPC   C1A50631  16.709  39.994   6.453
 8929POPC   D2A50632  16.746  39.979   6.753
 8929POPC   C3A50633  16.706  40.027   7.053
 8929POPC   C4A50634  16.736  39.986   7.353
 8929POPC   C1B50635  16.885  39.874   6.453
 8929POPC   C2B50636  16.912  39.842   6.753
 8929POPC   C3B50637  16.882  39.875   7.053
 8929POPC   C4B50638  16.953  39.839   7.353
 8930POPC   NC350639  28.385  43.908   5.553
 8930POPC   PO450640  28.389  43.871   5.853
 8930POPC   GL150641  28.410  43.888   6.153
 8930POPC   GL250642  28.507  43.805   6.153
 8930POPC   C1A50643  28.331  43.861   6.453
 8930POPC   D2A50644  28.341  43.916   6.753
 8930POPC   C3A50645  28.348  43.867   7.053
 8930POPC   C4A50646  28.407  43.857   7.353
 8930POPC   C1B50647  28.648  43.770   6.453
 8930POPC   C2B50648  28.598  43.838   6.753
 8930POPC   C3B50649  28.640  43.861   7.053
 8930POPC   C4B50650  28.562  43.822   7.353
 8931POPC   NC350651  21.338  32.242   5.553
 8931POPC   PO450652  21.436  32.292   5.853
 8931POPC   GL150653  21.412  32.261   6.153
 8931POPC   GL250654  21.478  32.388   6.153
 8931POPC   C1A50655  21.360  32.267   6.453
 8931POPC   D2A50656  21.361  32.284   6.753
 8931POPC   C3A50657  21.387  32.227   7.053
 8931POPC   C4A50658  21.421  32.223   7.353
 8931POPC   C1B50659  21.455  32.499   6.453
 8931POPC   C2B50660  21.435  32.479   6.753
 8931POPC   C3B50661  21.478  32.443   7.053
 8931POPC   C4B50662  21.466  32.444   7.353
 8932POPC   NC350663  10.527  36.168   5.553
 8932POPC   PO450664  10.561  36.112   5.853
 8932POPC   GL150665  10.486  36.096   6.153
 8932POPC   GL250666  10.579  36.055   6.153
 8932POPC   C1A50667  10.474  36.085   6.453
 8932POPC   D2A50668  10.552  36.095   6.753
 8932POPC   C3A50669  10.561  36.084   7.053
 8932POPC   C4A50670  10.491  36.147   7.353
 8932POPC   C1B50671  10.645  35.896   6.453
 8932POPC   C2B50672  10.685  35.909   6.753
 8932POPC   C3B50673  10.662  35.918   7.053
 8932POPC   C4B50674  10.638  35.875   7.353
 8933POPC   NC350675  34.545  30.655   5.553
 8933POPC   PO450676  34.559  30.722   5.853
 8933POPC   GL150677  34.534  30.700   6.153
 8933POPC   GL250678  34.481  30.747   6.153
 8933POPC   C1A50679  34.529  30.711   6.453
 8933POPC   D2A50680  34.623  30.675   6.753
 8933POPC   C3A50681  34.576  30.700   7.053
 8933POPC   C4A50682  34.547  30.675   7.353
 8933POPC   C1B50683  34.302  30.799   6.453
 8933POPC   C2B50684  34.350  30.782   6.753
 8933POPC   C3B50685  34.380  30.761   7.053
 8933POPC   C4B50686  34.381  30.793   7.353
 8934POPC   NC350687  43.904   8.158   5.553
 8934POPC   PO450688  43.888   8.172   5.853
 8934POPC   GL150689  43.897   8.244   6.153
 8934POPC   GL250690  44.053   8.252   6.153
 8934POPC   C1A50691  43.844   8.170   6.453
 8934POPC   D2A50692  43.861   8.174   6.753
 8934POPC   C3A50693  43.913   8.184   7.053
 8934POPC   C4A50694  43.913   8.190   7.353
 8934POPC   C1B50695  44.085   8.226   6.453
 8934POPC   C2B50696  44.118   8.265   6.753
 8934POPC   C3B50697  44.140   8.184   7.053
 8934POPC   C4B50698  44.154   8.270   7.353
 8935POPC   NC350699   3.570  28.392   5.553
 8935POPC   PO450700   3.587  28.415   5.853
 8935POPC   GL150701   3.517  28.354   6.153
 8935POPC   GL250702   3.497  28.486   6.153
 8935POPC   C1A50703   3.509  28.349   6.453
 8935POPC   D2A50704   3.582  28.383   6.753
 8935POPC   C3A50705   3.547  28.396   7.053
 8935POPC   C4A50706   3.497  28.367   7.353
 8935POPC   C1B50707   3.352  28.564   6.453
 8935POPC   C2B50708   3.384  28.585   6.753
 8935POPC   C3B50709   3.392  28.592   7.053
 8935POPC   C4B50710   3.353  28.550   7.353
 8936POPC   NC350711   7.426  36.931   5.553
 8936POPC   PO450712   7.414  36.909   5.853
 8936POPC   GL150713   7.404  36.873   6.153
 8936POPC   GL250714   7.275  36.879   6.153
 8936POPC   C1A50715   7.465  36.876   6.453
 8936POPC   D2A50716   7.380  36.917   6.753
 8936POPC   C3A50717   7.447  36.919   7.053
 8936POPC   C4A50718   7.374  36.916   7.353
 8936POPC   C1B50719   7.153  36.852   6.453
 8936POPC   C2B50720   7.122  36.876   6.753
 8936POPC   C3B50721   7.139  36.944   7.053
 8936POPC   C4B50722   7.219  36.908   7.353
 8937POPC   NC350723  39.251  13.612   5.553
 8937POPC   PO450724  39.251  13.587   5.853
 8937POPC   GL150725  39.204  13.597   6.153
 8937POPC   GL250726  39.289  13.716   6.153
 8937POPC   C1A50727  39.202  13.643   6.453
 8937POPC   D2A50728  39.201  13.607   6.753
 8937POPC   C3A50729  39.205  13.612   7.053
 8937POPC   C4A50730  39.197  13.607   7.353
 8937POPC   C1B50731  39.286  13.917   6.453
 8937POPC   C2B50732  39.301  13.842   6.753
 8937POPC   C3B50733  39.281  13.910   7.053
 8937POPC   C4B50734  39.229  13.879   7.353
 8938POPC   NC350735  41.590  12.811   5.553
 8938POPC   PO450736  41.590  12.899   5.853
 8938POPC   GL150737  41.567  12.871   6.153
 8938POPC   GL250738  41.670  12.758   6.153
 8938POPC   C1A50739  41.546  12.840   6.453
 8938POPC   D2A50740  41.586  12.849   6.753
 8938POPC   C3A50741  41.530  12.802   7.053
 8938POPC   C4A50742  41.581  12.896   7.353
 8938POPC   C1B50743  41.717  12.632   6.453
 8938POPC   C2B50744  41.764  12.697   6.753
 8938POPC   C3B50745  41.760  12.715   7.053
 8938POPC   C4B50746  41.706  12.715   7.353
 8939POPC   NC350747  27.634  13.589   5.553
 8939POPC   PO450748  27.642  13.596   5.853
 8939POPC   GL150749  27.603  13.675   6.153
 8939POPC   GL250750  27.463  13.662   6.153
 8939POPC   C1A50751  27.573  13.638   6.453
 8939POPC   D2A50752  27.642  13.672   6.753
 8939POPC   C3A50753  27.633  13.655   7.053
 8939POPC   C4A50754  27.607  13.660   7.353
 8939POPC   C1B50755  27.362  13.733   6.453
 8939POPC   C2B50756  27.390  13.714   6.753
 8939POPC   C3B50757  27.334  13.706   7.053
 8939POPC   C4B50758  27.378  13.774   7.353
 8940POPC   NC350759  25.224  37.698   5.553
 8940POPC   PO450760  25.306  37.693   5.853
 8940POPC   GL150761  25.241  37.703   6.153
 8940POPC   GL250762  25.184  37.587   6.153
 8940POPC   C1A50763  25.296  37.695   6.453
 8940POPC   D2A50764  25.222  37.726   6.753
 8940POPC   C3A50765  25.297  37.648   7.053
 8940POPC   C4A50766  25.227  37.652   7.353
 8940POPC   C1B50767  25.084  37.561   6.453
 8940POPC   C2B50768  25.078  37.518   6.753
 8940POPC   C3B50769  25.078  37.600   7.053
 8940POPC   C4B50770  25.001  37.592   7.353
 8941POPC   NC350771  29.944  36.159   5.553
 8941POPC   PO450772  29.881  36.144   5.853
 8941POPC   GL150773  29.882  36.154   6.153
 8941POPC   GL250774  29.941  36.190   6.153
 8941POPC   C1A50775  29.896  36.122   6.453
 8941POPC   D2A50776  29.949  36.085   6.753
 8941POPC   C3A50777  29.880  36.154   7.053
 8941POPC   C4A50778  29.950  36.159   7.353
 8941POPC   C1B50779  30.047  36.329   6.453
 8941POPC   C2B50780  30.037  36.307   6.753
 8941POPC   C3B50781  30.026  36.315   7.053
 8941POPC   C4B50782  30.032  36.352   7.353
 8942POPC   NC350783   3.517  19.055   5.553
 8942POPC   PO450784   3.588  19.016   5.853
 8942POPC   GL150785   3.570  19.108   6.153
 8942POPC   GL250786   3.608  18.936   6.153
 8942POPC   C1A50787   3.568  19.092   6.453
 8942POPC   D2A50788   3.519  19.075   6.753
 8942POPC   C3A50789   3.496  19.025   7.053
 8942POPC   C4A50790   3.551  19.036   7.353
 8942POPC   C1B50791   3.712  18.861   6.453
 8942POPC   C2B50792   3.743  18.871   6.753
 8942POPC   C3B50793   3.737  18.840   7.053
 8942POPC   C4B50794   3.685  18.891   7.353
 8943POPC   NC350795  33.847  29.133   5.553
 8943POPC   PO450796  33.754  29.113   5.853
 8943POPC   GL150797  33.787  29.165   6.153
 8943POPC   GL250798  33.730  29.007   6.153
 8943POPC   C1A50799  33.811  29.096   6.453
 8943POPC   D2A50800  33.816  29.112   6.753
 8943POPC   C3A50801  33.848  29.097   7.053
 8943POPC   C4A50802  33.820  29.185   7.353
 8943POPC   C1B50803  33.620  28.963   6.453
 8943POPC   C2B50804  33.642  28.946   6.753
 8943POPC   C3B50805  33.661  28.958   7.053
 8943POPC   C4B50806  33.649  28.956   7.353
 8944POPC   NC350807  25.262  25.257   5.553
 8944POPC   PO450808  25.278  25.235   5.853
 8944POPC   GL150809  25.227  25.249   6.153
 8944POPC   GL250810  25.117  25.284   6.153
 8944POPC   C1A50811  25.221  25.221   6.453
 8944POPC   D2A50812  25.295  25.225   6.753
 8944POPC   C3A50813  25.294  25.313   7.053
 8944POPC   C4A50814  25.275  25.288   7.353
 8944POPC   C1B50815  24.982  25.158   6.453
 8944POPC   C2B50816  25.014  25.219   6.753
 8944POPC   C3B50817  25.060  25.159   7.053
 8944POPC   C4B50818  25.030  25.185   7.353
 8945POPC   NC350819  37.696  27.562   5.553
 8945POPC   PO450820  37.683  27.588   5.853
 8945POPC   GL150821  37.671  27.613   6.153
 8945POPC   GL250822  37.518  27.577   6.153
 8945POPC   C1A50823  37.711  27.640   6.453
 8945POPC   D2A50824  37.706  27.619   6.753
 8945POPC   C3A50825  37.654  27.600   7.053
 8945POPC   C4A50826  37.699  27.550   7.353
 8945POPC   C1B50827  37.409  27.590   6.453
 8945POPC   C2B50828  37.393  27.544   6.753
 8945POPC   C3B50829  37.477  27.534   7.053
 8945POPC   C4B50830  37.472  27.587   7.353
 8946POPC   NC350831   6.595  19.879   5.553
 8946POPC   PO450832   6.659  19.828   5.853
 8946POPC   GL150833   6.603  19.850   6.153
 8946POPC   GL250834   6.516  19.794   6.153
 8946POPC   C1A50835   6.607  19.821   6.453
 8946POPC   D2A50836   6.679  19.804   6.753
 8946POPC   C3A50837   6.625  19.840   7.053
 8946POPC   C4A50838   6.633  19.828   7.353
 8946POPC   C1B50839   6.428  19.689   6.453
 8946POPC   C2B50840   6.441  19.706   6.753
 8946POPC   C3B50841   6.438  19.650   7.053
 8946POPC   C4B50842   6.466  19.613   7.353
 8947POPC   NC350843  22.921  32.265   5.553
 8947POPC   PO450844  22.896  32.217   5.853
 8947POPC   GL150845  22.891  32.281   6.153
 8947POPC   GL250846  22.856  32.241   6.153
 8947POPC   C1A50847  22.958  32.245   6.453
 8947POPC   D2A50848  22.921  32.236   6.753
 8947POPC   C3A50849  22.926  32.294   7.053
 8947POPC   C4A50850  22.978  32.222   7.353
 8947POPC   C1B50851  22.673  32.176   6.453
 8947POPC   C2B50852  22.690  32.229   6.753
 8947POPC   C3B50853  22.695  32.199   7.053
 8947POPC   C4B50854  22.681  32.205   7.353
 8948POPC   NC350855  14.377  28.399   5.553
 8948POPC   PO450856  14.398  28.337   5.853
 8948POPC   GL150857  14.356  28.407   6.153
 8948POPC   GL250858  14.431  28.263   6.153
 8948POPC   C1A50859  14.440  28.331   6.453
 8948POPC   D2A50860  14.356  28.375   6.753
 8948POPC   C3A50861  14.442  28.362   7.053
 8948POPC   C4A50862  14.418  28.406   7.353
 8948POPC   C1B50863  14.504  28.109   6.453
 8948POPC   C2B50864  14.443  28.116   6.753
 8948POPC   C3B50865  14.507  28.112   7.053
 8948POPC   C4B50866  14.461  28.153   7.353
 8949POPC   NC350867   2.807  19.044   5.553
 8949POPC   PO450868   2.735  19.013   5.853
 8949POPC   GL150869   2.721  19.069   6.153
 8949POPC   GL250870   2.660  19.096   6.153
 8949POPC   C1A50871   2.723  19.027   6.453
 8949POPC   D2A50872   2.801  19.021   6.753
 8949POPC   C3A50873   2.737  19.037   7.053
 8949POPC   C4A50874   2.724  19.009   7.353
 8949POPC   C1B50875   2.518  19.104   6.453
 8949POPC   C2B50876   2.574  19.117   6.753
 8949POPC   C3B50877   2.513  19.104   7.053
 8949POPC   C4B50878   2.570  19.096   7.353
 8950POPC   NC350879   2.786  42.349   5.553
 8950POPC   PO450880   2.813  42.380   5.853
 8950POPC   GL150881   2.811  42.369   6.153
 8950POPC   GL250882   2.601  42.332   6.153
 8950POPC   C1A50883   2.717  42.382   6.453
 8950POPC   D2A50884   2.770  42.318   6.753
 8950POPC   C3A50885   2.762  42.344   7.053
 8950POPC   C4A50886   2.716  42.338   7.353
 8950POPC   C1B50887   2.499  42.474   6.453
 8950POPC   C2B50888   2.536  42.452   6.753
 8950POPC   C3B50889   2.495  42.451   7.053
 8950POPC   C4B50890   2.498  42.386   7.353
 8951POPC   NC350891   3.559  44.677   5.553
 8951POPC   PO450892   3.515  44.691   5.853
 8951POPC   GL150893   3.550  44.711   6.153
 8951POPC   GL250894   3.550  44.493   6.153
 8951POPC   C1A50895   3.500  44.678   6.453
 8951POPC   D2A50896   3.541  44.702   6.753
 8951POPC   C3A50897   3.512  44.703   7.053
 8951POPC   C4A50898   3.547  44.655   7.353
 8951POPC   C1B50899   3.561  44.424   6.453
 8951POPC   C2B50900   3.588  44.408   6.753
 8951POPC   C3B50901   3.599  44.453   7.053
 8951POPC   C4B50902   3.525  44.453   7.353
 8952POPC   NC350903  25.232  12.080   5.553
 8952POPC   PO450904  25.295  12.100   5.853
 8952POPC   GL150905  25.253  12.101   6.153
 8952POPC   GL250906  25.118  12.084   6.153
 8952POPC   C1A50907  25.239  12.064   6.453
 8952POPC   D2A50908  25.291  12.034   6.753
 8952POPC   C3A50909  25.291  12.084   7.053
 8952POPC   C4A50910  25.235  12.109   7.353
 8952POPC   C1B50911  25.033  12.053   6.453
 8952POPC   C2B50912  24.989  12.062   6.753
 8952POPC   C3B50913  24.987  12.098   7.053
 8952POPC   C4B50914  24.977  12.084   7.353
 8953POPC   NC350915  12.863  15.980   5.553
 8953POPC   PO450916  12.841  15.937   5.853
 8953POPC   GL150917  12.843  15.959   6.153
 8953POPC   GL250918  12.877  15.790   6.153
 8953POPC   C1A50919  12.879  15.984   6.453
 8953POPC   D2A50920  12.828  15.987   6.753
 8953POPC   C3A50921  12.816  15.914   7.053
 8953POPC   C4A50922  12.831  15.949   7.353
 8953POPC   C1B50923  12.983  15.685   6.453
 8953POPC   C2B50924  12.915  15.761   6.753
 8953POPC   C3B50925  12.940  15.722   7.053
 8953POPC   C4B50926  12.924  15.713   7.353
 8954POPC   NC350927  29.127  12.804   5.553
 8954POPC   PO450928  29.133  12.871   5.853
 8954POPC   GL150929  29.171  12.870   6.153
 8954POPC   GL250930  29.159  13.011   6.153
 8954POPC   C1A50931  29.140  12.823   6.453
 8954POPC   D2A50932  29.192  12.837   6.753
 8954POPC   C3A50933  29.128  12.890   7.053
 8954POPC   C4A50934  29.186  12.887   7.353
 8954POPC   C1B50935  29.178  13.101   6.453
 8954POPC   C2B50936  29.162  13.110   6.753
 8954POPC   C3B50937  29.235  13.141   7.053
 8954POPC   C4B50938  29.192  13.091   7.353
 8955POPC   NC350939  29.904   4.342   5.553
 8955POPC   PO450940  29.933   4.298   5.853
 8955POPC   GL150941  29.895   4.278   6.153
 8955POPC   GL250942  29.994   4.388   6.153
 8955POPC   C1A50943  29.954   4.330   6.453
 8955POPC   D2A50944  29.890   4.354   6.753
 8955POPC   C3A50945  29.927   4.276   7.053
 8955POPC   C4A50946  29.956   4.314   7.353
 8955POPC   C1B50947  30.095   4.434   6.453
 8955POPC   C2B50948  30.153   4.456   6.753
 8955POPC   C3B50949  30.103   4.411   7.053
 8955POPC   C4B50950  30.125   4.415   7.353
 8956POPC   NC350951  28.411  36.086   5.553
 8956POPC   PO450952  28.397  36.137   5.853
 8956POPC   GL150953  28.340  36.126   6.153
 8956POPC   GL250954  28.454  36.209   6.153
 8956POPC   C1A50955  28.391  36.133   6.453
 8956POPC   D2A50956  28.345  36.081   6.753
 8956POPC   C3A50957  28.363  36.084   7.053
 8956POPC   C4A50958  28.382  36.081   7.353
 8956POPC   C1B50959  28.589  36.292   6.453
 8956POPC   C2B50960  28.631  36.307   6.753
 8956POPC   C3B50961  28.620  36.289   7.053
 8956POPC   C4B50962  28.577  36.252   7.353
 8957POPC   NC350963   4.337  39.268   5.553
 8957POPC   PO450964   4.336  39.194   5.853
 8957POPC   GL150965   4.320  39.210   6.153
 8957POPC   GL250966   4.315  39.138   6.153
 8957POPC   C1A50967   4.355  39.201   6.453
 8957POPC   D2A50968   4.291  39.184   6.753
 8957POPC   C3A50969   4.275  39.202   7.053
 8957POPC   C4A50970   4.311  39.185   7.353
 8957POPC   C1B50971   4.257  39.011   6.453
 8957POPC   C2B50972   4.225  38.975   6.753
 8957POPC   C3B50973   4.244  39.014   7.053
 8957POPC   C4B50974   4.201  39.000   7.353
 8958POPC   NC350975  17.553  16.697   5.553
 8958POPC   PO450976  17.503  16.760   5.853
 8958POPC   GL150977  17.535  16.686   6.153
 8958POPC   GL250978  17.540  16.631   6.153
 8958POPC   C1A50979  17.539  16.745   6.453
 8958POPC   D2A50980  17.495  16.781   6.753
 8958POPC   C3A50981  17.521  16.742   7.053
 8958POPC   C4A50982  17.523  16.718   7.353
 8958POPC   C1B50983  17.584  16.476   6.453
 8958POPC   C2B50984  17.618  16.477   6.753
 8958POPC   C3B50985  17.581  16.470   7.053
 8958POPC   C4B50986  17.623  16.480   7.353
 8959POPC   NC350987  36.862  16.701   5.553
 8959POPC   PO450988  36.911  16.745   5.853
 8959POPC   GL150989  36.871  16.684   6.153
 8959POPC   GL250990  37.012  16.777   6.153
 8959POPC   C1A50991  36.924  16.766   6.453
 8959POPC   D2A50992  36.913  16.733   6.753
 8959POPC   C3A50993  36.940  16.694   7.053
 8959POPC   C4A50994  36.884  16.688   7.353
 8959POPC   C1B50995  37.104  16.923   6.453
 8959POPC   C2B50996  37.134  16.896   6.753
 8959POPC   C3B50997  37.110  16.868   7.053
 8959POPC   C4B50998  37.070  16.849   7.353
 8960POPC   NC350999  22.197  18.330   5.553
 8960POPC   PO451000  22.114  18.292   5.853
 8960POPC   GL151001  22.137  18.275   6.153
 8960POPC   GL251002  22.234  18.432   6.153
 8960POPC   C1A51003  22.174  18.303   6.453
 8960POPC   D2A51004  22.175  18.293   6.753
 8960POPC   C3A51005  22.188  18.311   7.053
 8960POPC   C4A51006  22.165  18.331   7.353
 8960POPC   C1B51007  22.238  18.560   6.453
 8960POPC   C2B51008  22.233  18.552   6.753
 8960POPC   C3B51009  22.268  18.552   7.053
 8960POPC   C4B51010  22.304  18.491   7.353
 8961POPC   NC351011  26.799  29.109   5.553
 8961POPC   PO451012  26.801  29.193   5.853
 8961POPC   GL151013  26.856  29.135   6.153
 8961POPC   GL251014  26.814  29.023   6.153
 8961POPC   C1A51015  26.838  29.100   6.453
 8961POPC   D2A51016  26.793  29.099   6.753
 8961POPC   C3A51017  26.817  29.163   7.053
 8961POPC   C4A51018  26.847  29.132   7.353
 8961POPC   C1B51019  26.849  28.859   6.453
 8961POPC   C2B51020  26.816  28.927   6.753
 8961POPC   C3B51021  26.800  28.883   7.053
 8961POPC   C4B51022  26.827  28.851   7.353
 8962POPC   NC351023   8.971  28.337   5.553
 8962POPC   PO451024   8.939  28.357   5.853
 8962POPC   GL151025   9.005  28.377   6.153
 8962POPC   GL251026   8.923  28.524   6.153
 8962POPC   C1A51027   8.933  28.355   6.453
 8962POPC   D2A51028   9.019  28.396   6.753
 8962POPC   C3A51029   8.998  28.416   7.053
 8962POPC   C4A51030   8.983  28.348   7.353
 8962POPC   C1B51031   8.866  28.611   6.453
 8962POPC   C2B51032   8.868  28.542   6.753
 8962POPC   C3B51033   8.854  28.611   7.053
 8962POPC   C4B51034   8.808  28.618   7.353
 8963POPC   NC351035   3.510  12.839   5.553
 8963POPC   PO451036   3.572  12.815   5.853
 8963POPC   GL151037   3.495  12.833   6.153
 8963POPC   GL251038   3.384  12.816   6.153
 8963POPC   C1A51039   3.514  12.809   6.453
 8963POPC   D2A51040   3.492  12.886   6.753
 8963POPC   C3A51041   3.578  12.807   7.053
 8963POPC   C4A51042   3.533  12.876   7.353
 8963POPC   C1B51043   3.312  12.730   6.453
 8963POPC   C2B51044   3.296  12.792   6.753
 8963POPC   C3B51045   3.314  12.782   7.053
 8963POPC   C4B51046   3.339  12.707   7.353
 8964POPC   NC351047  25.231  10.555   5.553
 8964POPC   PO451048  25.235  10.573   5.853
 8964POPC   GL151049  25.280  10.488   6.153
 8964POPC   GL251050  25.236  10.688   6.153
 8964POPC   C1A51051  25.236  10.515   6.453
 8964POPC   D2A51052  25.269  10.563   6.753
 8964POPC   C3A51053  25.218  10.475   7.053
 8964POPC   C4A51054  25.216  10.571   7.353
 8964POPC   C1B51055  25.248  10.797   6.453
 8964POPC   C2B51056  25.301  10.802   6.753
 8964POPC   C3B51057  25.311  10.728   7.053
 8964POPC   C4B51058  25.223  10.773   7.353
 8965POPC   NC351059  19.803  38.448   5.553
 8965POPC   PO451060  19.863  38.411   5.853
 8965POPC   GL151061  19.822  38.452   6.153
 8965POPC   GL251062  19.984  38.502   6.153
 8965POPC   C1A51063  19.856  38.409   6.453
 8965POPC   D2A51064  19.816  38.410   6.753
 8965POPC   C3A51065  19.842  38.475   7.053
 8965POPC   C4A51066  19.855  38.482   7.353
 8965POPC   C1B51067  20.090  38.471   6.453
 8965POPC   C2B51068  20.100  38.484   6.753
 8965POPC   C3B51069  20.037  38.528   7.053
 8965POPC   C4B51070  20.095  38.481   7.353
 8966POPC   NC351071  28.386  29.913   5.553
 8966POPC   PO451072  28.353  29.880   5.853
 8966POPC   GL151073  28.335  29.953   6.153
 8966POPC   GL251074  28.413  29.802   6.153
 8966POPC   C1A51075  28.357  29.883   6.453
 8966POPC   D2A51076  28.414  29.913   6.753
 8966POPC   C3A51077  28.329  29.921   7.053
 8966POPC   C4A51078  28.325  29.920   7.353
 8966POPC   C1B51079  28.446  29.649   6.453
 8966POPC   C2B51080  28.492  29.707   6.753
 8966POPC   C3B51081  28.438  29.642   7.053
 8966POPC   C4B51082  28.492  29.646   7.353
 8967POPC   NC351083  34.534   4.294   5.553
 8967POPC   PO451084  34.573   4.323   5.853
 8967POPC   GL151085  34.574   4.338   6.153
 8967POPC   GL251086  34.734   4.344   6.153
 8967POPC   C1A51087  34.576   4.353   6.453
 8967POPC   D2A51088  34.584   4.337   6.753
 8967POPC   C3A51089  34.581   4.281   7.053
 8967POPC   C4A51090  34.601   4.268   7.353
 8967POPC   C1B51091  34.784   4.379   6.453
 8967POPC   C2B51092  34.800   4.352   6.753
 8967POPC   C3B51093  34.854   4.417   7.053
 8967POPC   C4B51094  34.791   4.387   7.353
 8968POPC   NC351095  42.299  21.372   5.553
 8968POPC   PO451096  42.310  21.423   5.853
 8968POPC   GL151097  42.355  21.341   6.153
 8968POPC   GL251098  42.448  21.327   6.153
 8968POPC   C1A51099  42.304  21.379   6.453
 8968POPC   D2A51100  42.344  21.428   6.753
 8968POPC   C3A51101  42.321  21.418   7.053
 8968POPC   C4A51102  42.296  21.419   7.353
 8968POPC   C1B51103  42.530  21.310   6.453
 8968POPC   C2B51104  42.593  21.298   6.753
 8968POPC   C3B51105  42.575  21.335   7.053
 8968POPC   C4B51106  42.593  21.345   7.353
 8969POPC   NC351107  16.697  21.421   5.553
 8969POPC   PO451108  16.733  21.364   5.853
 8969POPC   GL151109  16.711  21.374   6.153
 8969POPC   GL251110  16.604  21.343   6.153
 8969POPC   C1A51111  16.746  21.353   6.453
 8969POPC   D2A51112  16.748  21.405   6.753
 8969POPC   C3A51113  16.742  21.365   7.053
 8969POPC   C4A51114  16.718  21.352   7.353
 8969POPC   C1B51115  16.498  21.387   6.453
 8969POPC   C2B51116  16.520  21.424   6.753
 8969POPC   C3B51117  16.448  21.420   7.053
 8969POPC   C4B51118  16.467  21.371   7.353
 8970POPC   NC351119  11.277  43.887   5.553
 8970POPC   PO451120  11.287  43.841   5.853
 8970POPC   GL151121  11.337  43.881   6.153
 8970POPC   GL251122  11.240  43.778   6.153
 8970POPC   C1A51123  11.311  43.904   6.453
 8970POPC   D2A51124  11.279  43.917   6.753
 8970POPC   C3A51125  11.280  43.849   7.053
 8970POPC   C4A51126  11.254  43.862   7.353
 8970POPC   C1B51127  11.236  43.644   6.453
 8970POPC   C2B51128  11.261  43.663   6.753
 8970POPC   C3B51129  11.287  43.682   7.053
 8970POPC   C4B51130  11.229  43.678   7.353
 8971POPC   NC351131   8.235  28.404   5.553
 8971POPC   PO451132   8.222  28.398   5.853
 8971POPC   GL151133   8.194  28.331   6.153
 8971POPC   GL251134   8.273  28.466   6.153
 8971POPC   C1A51135   8.179  28.336   6.453
 8971POPC   D2A51136   8.150  28.415   6.753
 8971POPC   C3A51137   8.195  28.405   7.053
 8971POPC   C4A51138   8.172  28.365   7.353
 8971POPC   C1B51139   8.382  28.428   6.453
 8971POPC   C2B51140   8.388  28.476   6.753
 8971POPC   C3B51141   8.472  28.423   7.053
 8971POPC   C4B51142   8.382  28.490   7.353
 8972POPC   NC351143   8.164   6.678   5.553
 8972POPC   PO451144   8.148   6.645   5.853
 8972POPC   GL151145   8.205   6.684   6.153
 8972POPC   GL251146   8.138   6.597   6.153
 8972POPC   C1A51147   8.180   6.637   6.453
 8972POPC   D2A51148   8.228   6.616   6.753
 8972POPC   C3A51149   8.240   6.636   7.053
 8972POPC   C4A51150   8.217   6.669   7.353
 8972POPC   C1B51151   7.982   6.529   6.453
 8972POPC   C2B51152   8.011   6.466   6.753
 8972POPC   C3B51153   8.030   6.464   7.053
 8972POPC   C4B51154   8.006   6.470   7.353
 8973POPC   NC351155  33.810  20.635   5.553
 8973POPC   PO451156  33.842  20.651   5.853
 8973POPC   GL151157  33.751  20.614   6.153
 8973POPC   GL251158  33.799  20.476   6.153
 8973POPC   C1A51159  33.826  20.602   6.453
 8973POPC   D2A51160  33.843  20.645   6.753
 8973POPC   C3A51161  33.798  20.580   7.053
 8973POPC   C4A51162  33.798  20.657   7.353
 8973POPC   C1B51163  33.767  20.397   6.453
 8973POPC   C2B51164  33.717  20.402   6.753
 8973POPC   C3B51165  33.678  20.360   7.053
 8973POPC   C4B51166  33.708  20.334   7.353
 8974POPC   NC351167  32.243  36.127   5.553
 8974POPC   PO451168  32.201  36.085   5.853
 8974POPC   GL151169  32.278  36.086   6.153
 8974POPC   GL251170  32.335  36.021   6.153
 8974POPC   C1A51171  32.234  36.172   6.453
 8974POPC   D2A51172  32.245  36.163   6.753
 8974POPC   C3A51173  32.229  36.118   7.053
 8974POPC   C4A51174  32.281  36.156   7.353
 8974POPC   C1B51175  32.395  35.890   6.453
 8974POPC   C2B51176  32.422  35.873   6.753
 8974POPC   C3B51177  32.343  35.954   7.053
 8974POPC   C4B51178  32.377  35.937   7.353
 8975POPC   NC351179  12.841  36.862   5.553
 8975POPC   PO451180  12.875  36.888   5.853
 8975POPC   GL151181  12.815  36.907   6.153
 8975POPC   GL251182  12.740  36.932   6.153
 8975POPC   C1A51183  12.810  36.926   6.453
 8975POPC   D2A51184  12.857  36.951   6.753
 8975POPC   C3A51185  12.803  36.872   7.053
 8975POPC   C4A51186  12.875  36.862   7.353
 8975POPC   C1B51187  12.694  37.017   6.453
 8975POPC   C2B51188  12.624  37.032   6.753
 8975POPC   C3B51189  12.695  37.098   7.053
 8975POPC   C4B51190  12.645  37.062   7.353
 8976POPC   NC351191   4.295  26.060   5.553
 8976POPC   PO451192   4.338  26.049   5.853
 8976POPC   GL151193   4.336  26.084   6.153
 8976POPC   GL251194   4.383  25.964   6.153
 8976POPC   C1A51195   4.325  26.038   6.453
 8976POPC   D2A51196   4.353  26.036   6.753
 8976POPC   C3A51197   4.280  26.068   7.053
 8976POPC   C4A51198   4.320  26.019   7.353
 8976POPC   C1B51199   4.490  25.843   6.453
 8976POPC   C2B51200   4.480  25.880   6.753
 8976POPC   C3B51201   4.509  25.860   7.053
 8976POPC   C4B51202   4.458  25.870   7.353
 8977POPC   NC351203   5.864  15.164   5.553
 8977POPC   PO451204   5.848  15.159   5.853
 8977POPC   GL151205   5.854  15.173   6.153
 8977POPC   GL251206   5.894  15.320   6.153
 8977POPC   C1A51207   5.860  15.150   6.453
 8977POPC   D2A51208   5.835  15.162   6.753
 8977POPC   C3A51209   5.896  15.150   7.053
 8977POPC   C4A51210   5.868  15.167   7.353
 8977POPC   C1B51211   6.008  15.365   6.453
 8977POPC   C2B51212   5.954  15.458   6.753
 8977POPC   C3B51213   6.009  15.426   7.053
 8977POPC   C4B51214   5.919  15.410   7.353
 8978POPC   NC351215  19.856   8.154   5.553
 8978POPC   PO451216  19.785   8.189   5.853
 8978POPC   GL151217  19.807   8.208   6.153
 8978POPC   GL251218  19.878   8.291   6.153
 8978POPC   C1A51219  19.814   8.197   6.453
 8978POPC   D2A51220  19.844   8.188   6.753
 8978POPC   C3A51221  19.828   8.222   7.053
 8978POPC   C4A51222  19.821   8.176   7.353
 8978POPC   C1B51223  19.905   8.474   6.453
 8978POPC   C2B51224  19.879   8.440   6.753
 8978POPC   C3B51225  19.869   8.487   7.053
 8978POPC   C4B51226  19.839   8.406   7.353
 8979POPC   NC351227   8.203   9.732   5.553
 8979POPC   PO451228   8.236   9.761   5.853
 8979POPC   GL151229   8.245   9.754   6.153
 8979POPC   GL251230   8.215   9.882   6.153
 8979POPC   C1A51231   8.221   9.717   6.453
 8979POPC   D2A51232   8.214   9.719   6.753
 8979POPC   C3A51233   8.226   9.721   7.053
 8979POPC   C4A51234   8.173   9.717   7.353
 8979POPC   C1B51235   8.272  10.001   6.453
 8979POPC   C2B51236   8.273  10.024   6.753
 8979POPC   C3B51237   8.250  10.027   7.053
 8979POPC   C4B51238   8.267  10.007   7.353
 8980POPC   NC351239  43.146   1.958   5.553
 8980POPC   PO451240  43.069   2.014   5.853
 8980POPC   GL151241  43.103   1.981   6.153
 8980POPC   GL251242  43.128   1.855   6.153
 8980POPC   C1A51243  43.139   1.975   6.453
 8980POPC   D2A51244  43.088   1.950   6.753
 8980POPC   C3A51245  43.076   1.955   7.053
 8980POPC   C4A51246  43.144   1.984   7.353
 8980POPC   C1B51247  43.039   1.756   6.453
 8980POPC   C2B51248  43.045   1.724   6.753
 8980POPC   C3B51249  43.041   1.763   7.053
 8980POPC   C4B51250  43.129   1.770   7.353
 8981POPC   NC351251  39.274  25.230   5.553
 8981POPC   PO451252  39.278  25.271   5.853
 8981POPC   GL151253  39.216  25.239   6.153
 8981POPC   GL251254  39.247  25.348   6.153
 8981POPC   C1A51255  39.218  25.229   6.453
 8981POPC   D2A51256  39.247  25.267   6.753
 8981POPC   C3A51257  39.205  25.226   7.053
 8981POPC   C4A51258  39.276  25.247   7.353
 8981POPC   C1B51259  39.245  25.477   6.453
 8981POPC   C2B51260  39.266  25.494   6.753
 8981POPC   C3B51261  39.243  25.527   7.053
 8981POPC   C4B51262  39.289  25.514   7.353
 8982POPC   NC351263   0.401  29.192   5.553
 8982POPC   PO451264   0.467  29.100   5.853
 8982POPC   GL151265   0.437  29.174   6.153
 8982POPC   GL251266   0.386  29.065   6.153
 8982POPC   C1A51267   0.477  29.103   6.453
 8982POPC   D2A51268   0.468  29.104   6.753
 8982POPC   C3A51269   0.472  29.115   7.053
 8982POPC   C4A51270   0.471  29.181   7.353
 8982POPC   C1B51271   0.367  28.946   6.453
 8982POPC   C2B51272   0.367  28.871   6.753
 8982POPC   C3B51273   0.346  28.858   7.053
 8982POPC   C4B51274   0.367  28.926   7.353
 8983POPC   NC351275  11.272  17.477   5.553
 8983POPC   PO451276  11.264  17.548   5.853
 8983POPC   GL151277  11.314  17.468   6.153
 8983POPC   GL251278  11.300  17.386   6.153
 8983POPC   C1A51279  11.341  17.553   6.453
 8983POPC   D2A51280  11.315  17.527   6.753
 8983POPC   C3A51281  11.272  17.514   7.053
 8983POPC   C4A51282  11.316  17.475   7.353
 8983POPC   C1B51283  11.331  17.294   6.453
 8983POPC   C2B51284  11.333  17.271   6.753
 8983POPC   C3B51285  11.300  17.222   7.053
 8983POPC   C4B51286  11.351  17.280   7.353
 8984POPC   NC351287  37.649   3.525   5.553
 8984POPC   PO451288  37.634   3.540   5.853
 8984POPC   GL151289  37.715   3.494   6.153
 8984POPC   GL251290  37.613   3.415   6.153
 8984POPC   C1A51291  37.724   3.502   6.453
 8984POPC   D2A51292  37.701   3.567   6.753
 8984POPC   C3A51293  37.721   3.528   7.053
 8984POPC   C4A51294  37.707   3.566   7.353
 8984POPC   C1B51295  37.571   3.291   6.453
 8984POPC   C2B51296  37.628   3.330   6.753
 8984POPC   C3B51297  37.591   3.291   7.053
 8984POPC   C4B51298  37.573   3.266   7.353
 8985POPC   NC351299  19.017   9.699   5.553
 8985POPC   PO451300  19.078   9.736   5.853
 8985POPC   GL151301  19.050   9.703   6.153
 8985POPC   GL251302  18.906   9.796   6.153
 8985POPC   C1A51303  19.013   9.757   6.453
 8985POPC   D2A51304  19.069   9.748   6.753
 8985POPC   C3A51305  19.050   9.777   7.053
 8985POPC   C4A51306  19.016   9.731   7.353
 8985POPC   C1B51307  18.802   9.911   6.453
 8985POPC   C2B51308  18.826   9.872   6.753
 8985POPC   C3B51309  18.860   9.918   7.053
 8985POPC   C4B51310  18.867   9.891   7.353
 8986POPC   NC351311  15.986  24.501   5.553
 8986POPC   PO451312  15.972  24.454   5.853
 8986POPC   GL151313  15.981  24.480   6.153
 8986POPC   GL251314  16.052  24.403   6.153
 8986POPC   C1A51315  15.928  24.468   6.453
 8986POPC   D2A51316  15.926  24.505   6.753
 8986POPC   C3A51317  15.933  24.527   7.053
 8986POPC   C4A51318  15.946  24.493   7.353
 8986POPC   C1B51319  16.174  24.368   6.453
 8986POPC   C2B51320  16.231  24.347   6.753
 8986POPC   C3B51321  16.165  24.341   7.053
 8986POPC   C4B51322  16.193  24.378   7.353
 8987POPC   NC351323   9.715  43.123   5.553
 8987POPC   PO451324   9.783  43.137   5.853
 8987POPC   GL151325   9.798  43.137   6.153
 8987POPC   GL251326   9.727  42.959   6.153
 8987POPC   C1A51327   9.790  43.064   6.453
 8987POPC   D2A51328   9.772  43.146   6.753
 8987POPC   C3A51329   9.713  43.079   7.053
 8987POPC   C4A51330   9.741  43.128   7.353
 8987POPC   C1B51331   9.721  42.843   6.453
 8987POPC   C2B51332   9.755  42.887   6.753
 8987POPC   C3B51333   9.722  42.897   7.053
 8987POPC   C4B51334   9.673  42.878   7.353
 8988POPC   NC351335  36.152  22.925   5.553
 8988POPC   PO451336  36.155  22.976   5.853
 8988POPC   GL151337  36.142  22.921   6.153
 8988POPC   GL251338  36.170  22.835   6.153
 8988POPC   C1A51339  36.138  22.987   6.453
 8988POPC   D2A51340  36.097  22.963   6.753
 8988POPC   C3A51341  36.088  22.926   7.053
 8988POPC   C4A51342  36.165  22.983   7.353
 8988POPC   C1B51343  36.256  22.679   6.453
 8988POPC   C2B51344  36.271  22.692   6.753
 8988POPC   C3B51345  36.283  22.698   7.053
 8988POPC   C4B51346  36.297  22.763   7.353
 8989POPC   NC351347  26.772  14.385   5.553
 8989POPC   PO451348  26.782  14.372   5.853
 8989POPC   GL151349  26.834  14.429   6.153
 8989POPC   GL251350  26.716  14.287   6.153
 8989POPC   C1A51351  26.812  14.433   6.453
 8989POPC   D2A51352  26.768  14.447   6.753
 8989POPC   C3A51353  26.768  14.354   7.053
 8989POPC   C4A51354  26.769  14.387   7.353
 8989POPC   C1B51355  26.684  14.159   6.453
 8989POPC   C2B51356  26.627  14.170   6.753
 8989POPC   C3B51357  26.703  14.250   7.053
 8989POPC   C4B51358  26.701  14.233   7.353
 8990POPC   NC351359  43.098  30.712   5.553
 8990POPC   PO451360  43.084  30.743   5.853
 8990POPC   GL151361  43.088  30.664   6.153
 8990POPC   GL251362  43.226  30.614   6.153
 8990POPC   C1A51363  43.125  30.706   6.453
 8990POPC   D2A51364  43.101  30.729   6.753
 8990POPC   C3A51365  43.119  30.673   7.053
 8990POPC   C4A51366  43.100  30.683   7.353
 8990POPC   C1B51367  43.377  30.529   6.453
 8990POPC   C2B51368  43.340  30.531   6.753
 8990POPC   C3B51369  43.372  30.572   7.053
 8990POPC   C4B51370  43.358  30.603   7.353
 8991POPC   NC351371  20.606  34.548   5.553
 8991POPC   PO451372  20.611  34.589   5.853
 8991POPC   GL151373  20.596  34.599   6.153
 8991POPC   GL251374  20.557  34.424   6.153
 8991POPC   C1A51375  20.638  34.545   6.453
 8991POPC   D2A51376  20.593  34.588   6.753
 8991POPC   C3A51377  20.614  34.542   7.053
 8991POPC   C4A51378  20.622  34.539   7.353
 8991POPC   C1B51379  20.430  34.404   6.453
 8991POPC   C2B51380  20.433  34.370   6.753
 8991POPC   C3B51381  20.422  34.329   7.053
 8991POPC   C4B51382  20.484  34.393   7.353
 8992POPC   NC351383  37.658  42.308   5.553
 8992POPC   PO451384  37.651  42.359   5.853
 8992POPC   GL151385  37.652  42.326   6.153
 8992POPC   GL251386  37.607  42.439   6.153
 8992POPC   C1A51387  37.696  42.299   6.453
 8992POPC   D2A51388  37.642  42.312   6.753
 8992POPC   C3A51389  37.700  42.317   7.053
 8992POPC   C4A51390  37.706  42.325   7.353
 8992POPC   C1B51391  37.493  42.415   6.453
 8992POPC   C2B51392  37.458  42.403   6.753
 8992POPC   C3B51393  37.431  42.463   7.053
 8992POPC   C4B51394  37.441  42.471   7.353
 8993POPC   NC351395  39.182  31.467   5.553
 8993POPC   PO451396  39.218  31.470   5.853
 8993POPC   GL151397  39.221  31.452   6.153
 8993POPC   GL251398  39.288  31.603   6.153
 8993POPC   C1A51399  39.195  31.454   6.453
 8993POPC   D2A51400  39.264  31.442   6.753
 8993POPC   C3A51401  39.257  31.481   7.053
 8993POPC   C4A51402  39.257  31.477   7.353
 8993POPC   C1B51403  39.300  31.728   6.453
 8993POPC   C2B51404  39.254  31.718   6.753
 8993POPC   C3B51405  39.266  31.749   7.053
 8993POPC   C4B51406  39.346  31.712   7.353
 8994POPC   NC351407  15.934  23.713   5.553
 8994POPC   PO451408  15.995  23.710   5.853
 8994POPC   GL151409  15.932  23.718   6.153
 8994POPC   GL251410  16.080  23.788   6.153
 8994POPC   C1A51411  15.940  23.699   6.453
 8994POPC   D2A51412  15.911  23.761   6.753
 8994POPC   C3A51413  15.956  23.670   7.053
 8994POPC   C4A51414  15.957  23.675   7.353
 8994POPC   C1B51415  16.062  23.916   6.453
 8994POPC   C2B51416  16.121  23.896   6.753
 8994POPC   C3B51417  16.117  23.907   7.053
 8994POPC   C4B51418  16.112  23.904   7.353
 8995POPC   NC351419  19.025   2.807   5.553
 8995POPC   PO451420  19.043   2.790   5.853
 8995POPC   GL151421  19.064   2.767   6.153
 8995POPC   GL251422  18.925   2.744   6.153
 8995POPC   C1A51423  19.092   2.758   6.453
 8995POPC   D2A51424  19.050   2.792   6.753
 8995POPC   C3A51425  19.035   2.790   7.053
 8995POPC   C4A51426  19.094   2.721   7.353
 8995POPC   C1B51427  18.874   2.671   6.453
 8995POPC   C2B51428  18.831   2.687   6.753
 8995POPC   C3B51429  18.779   2.662   7.053
 8995POPC   C4B51430  18.865   2.720   7.353
 8996POPC   NC351431  35.371  33.845   5.553
 8996POPC   PO451432  35.319  33.782   5.853
 8996POPC   GL151433  35.348  33.762   6.153
 8996POPC   GL251434  35.365  33.671   6.153
 8996POPC   C1A51435  35.349  33.763   6.453
 8996POPC   D2A51436  35.332  33.817   6.753
 8996POPC   C3A51437  35.390  33.759   7.053
 8996POPC   C4A51438  35.315  33.759   7.353
 8996POPC   C1B51439  35.338  33.543   6.453
 8996POPC   C2B51440  35.293  33.577   6.753
 8996POPC   C3B51441  35.327  33.571   7.053
 8996POPC   C4B51442  35.347  33.530   7.353
 8997POPC   NC351443   4.286   1.254   5.553
 8997POPC   PO451444   4.344   1.183   5.853
 8997POPC   GL151445   4.313   1.190   6.153
 8997POPC   GL251446   4.370   1.338   6.153
 8997POPC   C1A51447   4.281   1.167   6.453
 8997POPC   D2A51448   4.276   1.246   6.753
 8997POPC   C3A51449   4.335   1.231   7.053
 8997POPC   C4A51450   4.333   1.255   7.353
 8997POPC   C1B51451   4.443   1.421   6.453
 8997POPC   C2B51452   4.495   1.439   6.753
 8997POPC   C3B51453   4.523   1.396   7.053
 8997POPC   C4B51454   4.512   1.369   7.353
 8998POPC   NC351455  39.240  28.355   5.553
 8998POPC   PO451456  39.189  28.360   5.853
 8998POPC   GL151457  39.183  28.401   6.153
 8998POPC   GL251458  39.133  28.279   6.153
 8998POPC   C1A51459  39.201  28.325   6.453
 8998POPC   D2A51460  39.267  28.407   6.753
 8998POPC   C3A51461  39.226  28.416   7.053
 8998POPC   C4A51462  39.197  28.416   7.353
 8998POPC   C1B51463  39.012  28.280   6.453
 8998POPC   C2B51464  39.023  28.287   6.753
 8998POPC   C3B51465  39.021  28.223   7.053
 8998POPC   C4B51466  39.041  28.302   7.353
 8999POPC   NC351467   6.685  18.276   5.553
 8999POPC   PO451468   6.614  18.330   5.853
 8999POPC   GL151469   6.681  18.301   6.153
 8999POPC   GL251470   6.507  18.396   6.153
 8999POPC   C1A51471   6.654  18.243   6.453
 8999POPC   D2A51472   6.684  18.243   6.753
 8999POPC   C3A51473   6.647  18.246   7.053
 8999POPC   C4A51474   6.652  18.283   7.353
 8999POPC   C1B51475   6.393  18.381   6.453
 8999POPC   C2B51476   6.469  18.398   6.753
 8999POPC   C3B51477   6.387  18.387   7.053
 8999POPC   C4B51478   6.453  18.415   7.353
 9000POPC   NC351479  18.318  30.712   5.553
 9000POPC   PO451480  18.301  30.676   5.853
 9000POPC   GL151481  18.312  30.693   6.153
 9000POPC   GL251482  18.452  30.670   6.153
 9000POPC   C1A51483  18.240  30.701   6.453
 9000POPC   D2A51484  18.295  30.722   6.753
 9000POPC   C3A51485  18.329  30.665   7.053
 9000POPC   C4A51486  18.288  30.679   7.353
 9000POPC   C1B51487  18.516  30.666   6.453
 9000POPC   C2B51488  18.517  30.641   6.753
 9000POPC   C3B51489  18.541  30.629   7.053
 9000POPC   C4B51490  18.563  30.659   7.353
 9001POPC   NC351491  29.947   8.942   5.553
 9001POPC   PO451492  29.883   9.015   5.853
 9001POPC   GL151493  29.923   8.955   6.153
 9001POPC   GL251494  29.999   8.918   6.153
 9001POPC   C1A51495  29.921   8.955   6.453
 9001POPC   D2A51496  29.918   8.923   6.753
 9001POPC   C3A51497  29.910   8.977   7.053
 9001POPC   C4A51498  29.911   9.003   7.353
 9001POPC   C1B51499  30.048   8.754   6.453
 9001POPC   C2B51500  30.123   8.800   6.753
 9001POPC   C3B51501  30.117   8.771   7.053
 9001POPC   C4B51502  30.111   8.826   7.353
 9002POPC   NC351503  34.618  37.720   5.553
 9002POPC   PO451504  34.604  37.715   5.853
 9002POPC   GL151505  34.622  37.690   6.153
 9002POPC   GL251506  34.556  37.533   6.153
 9002POPC   C1A51507  34.585  37.674   6.453
 9002POPC   D2A51508  34.613  37.670   6.753
 9002POPC   C3A51509  34.616  37.657   7.053
 9002POPC   C4A51510  34.548  37.721   7.353
 9002POPC   C1B51511  34.553  37.463   6.453
 9002POPC   C2B51512  34.590  37.481   6.753
 9002POPC   C3B51513  34.541  37.403   7.053
 9002POPC   C4B51514  34.508  37.444   7.353
 9003POPC   NC351515  15.930  22.902   5.553
 9003POPC   PO451516  15.927  22.934   5.853
 9003POPC   GL151517  15.946  22.970   6.153
 9003POPC   GL251518  15.869  22.889   6.153
 9003POPC   C1A51519  16.003  22.958   6.453
 9003POPC   D2A51520  15.978  22.979   6.753
 9003POPC   C3A51521  15.956  22.974   7.053
 9003POPC   C4A51522  15.925  22.969   7.353
 9003POPC   C1B51523  15.749  22.855   6.453
 9003POPC   C2B51524  15.673  22.908   6.753
 9003POPC   C3B51525  15.681  22.873   7.053
 9003POPC   C4B51526  15.675  22.872   7.353
 9004POPC   NC351527  37.701  29.892   5.553
 9004POPC   PO451528  37.704  29.919   5.853
 9004POPC   GL151529  37.636  29.952   6.153
 9004POPC   GL251530  37.807  29.939   6.153
 9004POPC   C1A51531  37.631  29.899   6.453
 9004POPC   D2A51532  37.687  29.876   6.753
 9004POPC   C3A51533  37.676  29.878   7.053
 9004POPC   C4A51534  37.703  29.922   7.353
 9004POPC   C1B51535  37.901  29.878   6.453
 9004POPC   C2B51536  37.920  29.876   6.753
 9004POPC   C3B51537  37.920  29.929   7.053
 9004POPC   C4B51538  37.968  29.903   7.353
 9005POPC   NC351539   4.270  19.880   5.553
 9005POPC   PO451540   4.274  19.799   5.853
 9005POPC   GL151541   4.317  19.829   6.153
 9005POPC   GL251542   4.161  19.800   6.153
 9005POPC   C1A51543   4.315  19.877   6.453
 9005POPC   D2A51544   4.362  19.870   6.753
 9005POPC   C3A51545   4.365  19.881   7.053
 9005POPC   C4A51546   4.357  19.870   7.353
 9005POPC   C1B51547   4.061  19.751   6.453
 9005POPC   C2B51548   4.059  19.833   6.753
 9005POPC   C3B51549   4.077  19.827   7.053
 9005POPC   C4B51550   4.118  19.787   7.353
 9006POPC   NC351551   1.192  40.825   5.553
 9006POPC   PO451552   1.249  40.815   5.853
 9006POPC   GL151553   1.206  40.790   6.153
 9006POPC   GL251554   1.321  40.871   6.153
 9006POPC   C1A51555   1.174  40.807   6.453
 9006POPC   D2A51556   1.231  40.740   6.753
 9006POPC   C3A51557   1.205  40.821   7.053
 9006POPC   C4A51558   1.251  40.750   7.353
 9006POPC   C1B51559   1.405  40.950   6.453
 9006POPC   C2B51560   1.422  40.912   6.753
 9006POPC   C3B51561   1.389  40.933   7.053
 9006POPC   C4B51562   1.349  40.914   7.353
 9007POPC   NC351563   5.829  42.354   5.553
 9007POPC   PO451564   5.843  42.290   5.853
 9007POPC   GL151565   5.831  42.296   6.153
 9007POPC   GL251566   5.997  42.469   6.153
 9007POPC   C1A51567   5.914  42.302   6.453
 9007POPC   D2A51568   5.845  42.384   6.753
 9007POPC   C3A51569   5.880  42.311   7.053
 9007POPC   C4A51570   5.866  42.335   7.353
 9007POPC   C1B51571   6.064  42.496   6.453
 9007POPC   C2B51572   6.059  42.479   6.753
 9007POPC   C3B51573   6.066  42.508   7.053
 9007POPC   C4B51574   6.065  42.474   7.353
 9008POPC   NC351575  32.298  12.803   5.553
 9008POPC   PO451576  32.235  12.862   5.853
 9008POPC   GL151577  32.285  12.802   6.153
 9008POPC   GL251578  32.356  12.888   6.153
 9008POPC   C1A51579  32.213  12.807   6.453
 9008POPC   D2A51580  32.236  12.822   6.753
 9008POPC   C3A51581  32.281  12.891   7.053
 9008POPC   C4A51582  32.213  12.875   7.353
 9008POPC   C1B51583  32.426  12.971   6.453
 9008POPC   C2B51584  32.427  12.983   6.753
 9008POPC   C3B51585  32.468  13.007   7.053
 9008POPC   C4B51586  32.500  12.956   7.353
 9009POPC   NC351587  26.815  38.505   5.553
 9009POPC   PO451588  26.866  38.488   5.853
 9009POPC   GL151589  26.833  38.408   6.153
 9009POPC   GL251590  26.683  38.550   6.153
 9009POPC   C1A51591  26.803  38.434   6.453
 9009POPC   D2A51592  26.803  38.469   6.753
 9009POPC   C3A51593  26.841  38.424   7.053
 9009POPC   C4A51594  26.778  38.425   7.353
 9009POPC   C1B51595  26.640  38.604   6.453
 9009POPC   C2B51596  26.636  38.591   6.753
 9009POPC   C3B51597  26.673  38.627   7.053
 9009POPC   C4B51598  26.586  38.583   7.353
 9010POPC   NC351599  36.128  36.139   5.553
 9010POPC   PO451600  36.089  36.142   5.853
 9010POPC   GL151601  36.121  36.171   6.153
 9010POPC   GL251602  36.198  36.201   6.153
 9010POPC   C1A51603  36.145  36.171   6.453
 9010POPC   D2A51604  36.106  36.092   6.753
 9010POPC   C3A51605  36.113  36.085   7.053
 9010POPC   C4A51606  36.147  36.103   7.353
 9010POPC   C1B51607  36.150  36.364   6.453
 9010POPC   C2B51608  36.206  36.363   6.753
 9010POPC   C3B51609  36.149  36.387   7.053
 9010POPC   C4B51610  36.215  36.330   7.353
 9011POPC   NC351611  37.647   2.760   5.553
 9011POPC   PO451612  37.697   2.798   5.853
 9011POPC   GL151613  37.692   2.811   6.153
 9011POPC   GL251614  37.524   2.716   6.153
 9011POPC   C1A51615  37.666   2.791   6.453
 9011POPC   D2A51616  37.631   2.776   6.753
 9011POPC   C3A51617  37.714   2.742   7.053
 9011POPC   C4A51618  37.645   2.807   7.353
 9011POPC   C1B51619  37.423   2.669   6.453
 9011POPC   C2B51620  37.435   2.742   6.753
 9011POPC   C3B51621  37.409   2.707   7.053
 9011POPC   C4B51622  37.411   2.661   7.353
 9012POPC   NC351623   5.825  33.832   5.553
 9012POPC   PO451624   5.849  33.806   5.853
 9012POPC   GL151625   5.853  33.842   6.153
 9012POPC   GL251626   5.853  33.883   6.153
 9012POPC   C1A51627   5.865  33.849   6.453
 9012POPC   D2A51628   5.909  33.797   6.753
 9012POPC   C3A51629   5.882  33.803   7.053
 9012POPC   C4A51630   5.853  33.792   7.353
 9012POPC   C1B51631   5.833  34.040   6.453
 9012POPC   C2B51632   5.875  34.085   6.753
 9012POPC   C3B51633   5.866  34.042   7.053
 9012POPC   C4B51634   5.904  34.062   7.353
 9013POPC   NC351635   5.044  39.975   5.553
 9013POPC   PO451636   5.070  39.958   5.853
 9013POPC   GL151637   5.138  40.039   6.153
 9013POPC   GL251638   5.128  40.098   6.153
 9013POPC   C1A51639   5.048  40.040   6.453
 9013POPC   D2A51640   5.045  40.036   6.753
 9013POPC   C3A51641   5.088  39.988   7.053
 9013POPC   C4A51642   5.089  40.026   7.353
 9013POPC   C1B51643   5.187  40.242   6.453
 9013POPC   C2B51644   5.262  40.212   6.753
 9013POPC   C3B51645   5.209  40.219   7.053
 9013POPC   C4B51646   5.259  40.197   7.353
 9014POPC   NC351647  28.324  30.667   5.553
 9014POPC   PO451648  28.378  30.671   5.853
 9014POPC   GL151649  28.397  30.702   6.153
 9014POPC   GL251650  28.470  30.790   6.153
 9014POPC   C1A51651  28.413  30.677   6.453
 9014POPC   D2A51652  28.380  30.703   6.753
 9014POPC   C3A51653  28.369  30.669   7.053
 9014POPC   C4A51654  28.382  30.720   7.353
 9014POPC   C1B51655  28.579  30.875   6.453
 9014POPC   C2B51656  28.548  30.823   6.753
 9014POPC   C3B51657  28.569  30.840   7.053
 9014POPC   C4B51658  28.541  30.807   7.353
 9015POPC   NC351659  12.115  29.893   5.553
 9015POPC   PO451660  12.043  29.950   5.853
 9015POPC   GL151661  12.038  29.970   6.153
 9015POPC   GL251662  11.992  29.853   6.153
 9015POPC   C1A51663  12.054  29.920   6.453
 9015POPC   D2A51664  12.074  29.918   6.753
 9015POPC   C3A51665  12.064  29.903   7.053
 9015POPC   C4A51666  12.069  29.961   7.353
 9015POPC   C1B51667  11.923  29.710   6.453
 9015POPC   C2B51668  11.924  29.734   6.753
 9015POPC   C3B51669  11.870  29.719   7.053
 9015POPC   C4B51670  11.888  29.749   7.353
 9016POPC   NC351671  12.821   6.636   5.553
 9016POPC   PO451672  12.872   6.613   5.853
 9016POPC   GL151673  12.897   6.694   6.153
 9016POPC   GL251674  12.850   6.492   6.153
 9016POPC   C1A51675  12.813   6.689   6.453
 9016POPC   D2A51676  12.848   6.604   6.753
 9016POPC   C3A51677  12.824   6.660   7.053
 9016POPC   C4A51678  12.892   6.620   7.353
 9016POPC   C1B51679  12.747   6.376   6.453
 9016POPC   C2B51680  12.748   6.451   6.753
 9016POPC   C3B51681  12.745   6.438   7.053
 9016POPC   C4B51682  12.734   6.358   7.353
 9017POPC   NC351683  41.590  40.030   5.553
 9017POPC   PO451684  41.535  39.967   5.853
 9017POPC   GL151685  41.509  39.966   6.153
 9017POPC   GL251686  41.580  39.910   6.153
 9017POPC   C1A51687  41.532  40.009   6.453
 9017POPC   D2A51688  41.540  40.008   6.753
 9017POPC   C3A51689  41.593  39.965   7.053
 9017POPC   C4A51690  41.582  40.046   7.353
 9017POPC   C1B51691  41.685  39.799   6.453
 9017POPC   C2B51692  41.691  39.785   6.753
 9017POPC   C3B51693  41.640  39.791   7.053
 9017POPC   C4B51694  41.685  39.788   7.353
 9018POPC   NC351695   8.942  20.561   5.553
 9018POPC   PO451696   9.001  20.574   5.853
 9018POPC   GL151697   8.969  20.576   6.153
 9018POPC   GL251698   8.949  20.528   6.153
 9018POPC   C1A51699   8.982  20.629   6.453
 9018POPC   D2A51700   8.963  20.595   6.753
 9018POPC   C3A51701   8.992  20.592   7.053
 9018POPC   C4A51702   8.942  20.616   7.353
 9018POPC   C1B51703   8.794  20.415   6.453
 9018POPC   C2B51704   8.803  20.372   6.753
 9018POPC   C3B51705   8.786  20.374   7.053
 9018POPC   C4B51706   8.839  20.431   7.353
 9019POPC   NC351707  38.441   8.965   5.553
 9019POPC   PO451708  38.461   8.989   5.853
 9019POPC   GL151709  38.453   8.956   6.153
 9019POPC   GL251710  38.484   9.121   6.153
 9019POPC   C1A51711  38.465   8.979   6.453
 9019POPC   D2A51712  38.459   8.948   6.753
 9019POPC   C3A51713  38.411   8.939   7.053
 9019POPC   C4A51714  38.499   9.000   7.353
 9019POPC   C1B51715  38.614   9.166   6.453
 9019POPC   C2B51716  38.642   9.138   6.753
 9019POPC   C3B51717  38.601   9.172   7.053
 9019POPC   C4B51718  38.649   9.201   7.353
 9020POPC   NC351719  20.653   3.545   5.553
 9020POPC   PO451720  20.609   3.498   5.853
 9020POPC   GL151721  20.561   3.493   6.153
 9020POPC   GL251722  20.773   3.575   6.153
 9020POPC   C1A51723  20.615   3.540   6.453
 9020POPC   D2A51724  20.562   3.527   6.753
 9020POPC   C3A51725  20.584   3.511   7.053
 9020POPC   C4A51726  20.636   3.546   7.353
 9020POPC   C1B51727  20.886   3.482   6.453
 9020POPC   C2B51728  20.825   3.469   6.753
 9020POPC   C3B51729  20.863   3.543   7.053
 9020POPC   C4B51730  20.817   3.556   7.353
 9021POPC   NC351731  31.476  28.326   5.553
 9021POPC   PO451732  31.440  28.347   5.853
 9021POPC   GL151733  31.494  28.418   6.153
 9021POPC   GL251734  31.606  28.457   6.153
 9021POPC   C1A51735  31.459  28.409   6.453
 9021POPC   D2A51736  31.492  28.384   6.753
 9021POPC   C3A51737  31.456  28.400   7.053
 9021POPC   C4A51738  31.428  28.363   7.353
 9021POPC   C1B51739  31.725  28.428   6.453
 9021POPC   C2B51740  31.674  28.451   6.753
 9021POPC   C3B51741  31.673  28.440   7.053
 9021POPC   C4B51742  31.650  28.472   7.353
 9022POPC   NC351743  44.670  34.557   5.553
 9022POPC   PO451744  44.621  34.581   5.853
 9022POPC   GL151745  44.658  34.622   6.153
 9022POPC   GL251746  44.525  34.629   6.153
 9022POPC   C1A51747  44.616  34.580   6.453
 9022POPC   D2A51748  44.690  34.616   6.753
 9022POPC   C3A51749  44.696  34.528   7.053
 9022POPC   C4A51750  44.695  34.595   7.353
 9022POPC   C1B51751  44.374  34.560   6.453
 9022POPC   C2B51752  44.447  34.568   6.753
 9022POPC   C3B51753  44.394  34.619   7.053
 9022POPC   C4B51754  44.435  34.610   7.353
 9023POPC   NC351755  33.067   1.167   5.553
 9023POPC   PO451756  33.062   1.175   5.853
 9023POPC   GL151757  33.057   1.253   6.153
 9023POPC   GL251758  33.121   1.334   6.153
 9023POPC   C1A51759  33.064   1.187   6.453
 9023POPC   D2A51760  33.032   1.240   6.753
 9023POPC   C3A51761  32.978   1.204   7.053
 9023POPC   C4A51762  33.028   1.193   7.353
 9023POPC   C1B51763  33.237   1.394   6.453
 9023POPC   C2B51764  33.178   1.403   6.753
 9023POPC   C3B51765  33.224   1.357   7.053
 9023POPC   C4B51766  33.228   1.337   7.353
 9024POPC   NC351767  35.335  22.140   5.553
 9024POPC   PO451768  35.319  22.129   5.853
 9024POPC   GL151769  35.319  22.212   6.153
 9024POPC   GL251770  35.238  22.171   6.153
 9024POPC   C1A51771  35.341  22.156   6.453
 9024POPC   D2A51772  35.346  22.113   6.753
 9024POPC   C3A51773  35.394  22.209   7.053
 9024POPC   C4A51774  35.302  22.181   7.353
 9024POPC   C1B51775  35.093  22.258   6.453
 9024POPC   C2B51776  35.121  22.254   6.753
 9024POPC   C3B51777  35.151  22.309   7.053
 9024POPC   C4B51778  35.076  22.244   7.353
 9025POPC   NC351779  20.627   5.100   5.553
 9025POPC   PO451780  20.658   5.077   5.853
 9025POPC   GL151781  20.622   5.142   6.153
 9025POPC   GL251782  20.486   5.160   6.153
 9025POPC   C1A51783  20.570   5.110   6.453
 9025POPC   D2A51784  20.635   5.138   6.753
 9025POPC   C3A51785  20.581   5.090   7.053
 9025POPC   C4A51786  20.604   5.108   7.353
 9025POPC   C1B51787  20.323   5.112   6.453
 9025POPC   C2B51788  20.332   5.133   6.753
 9025POPC   C3B51789  20.413   5.107   7.053
 9025POPC   C4B51790  20.391   5.183   7.353
 9026POPC   NC351791  10.553   7.457   5.553
 9026POPC   PO451792  10.556   7.464   5.853
 9026POPC   GL151793  10.568   7.409   6.153
 9026POPC   GL251794  10.388   7.496   6.153
 9026POPC   C1A51795  10.571   7.380   6.453
 9026POPC   D2A51796  10.493   7.444   6.753
 9026POPC   C3A51797  10.508   7.467   7.053
 9026POPC   C4A51798  10.546   7.404   7.353
 9026POPC   C1B51799  10.296   7.529   6.453
 9026POPC   C2B51800  10.334   7.527   6.753
 9026POPC   C3B51801  10.313   7.535   7.053
 9026POPC   C4B51802  10.299   7.592   7.353
 9027POPC   NC351803  32.232   2.016   5.553
 9027POPC   PO451804  32.210   1.948   5.853
 9027POPC   GL151805  32.200   1.974   6.153
 9027POPC   GL251806  32.153   1.879   6.153
 9027POPC   C1A51807  32.263   1.941   6.453
 9027POPC   D2A51808  32.261   2.024   6.753
 9027POPC   C3A51809  32.260   2.003   7.053
 9027POPC   C4A51810  32.231   2.035   7.353
 9027POPC   C1B51811  32.104   1.789   6.453
 9027POPC   C2B51812  32.122   1.718   6.753
 9027POPC   C3B51813  32.096   1.805   7.053
 9027POPC   C4B51814  32.134   1.719   7.353
 9028POPC   NC351815   5.917   0.440   5.553
 9028POPC   PO451816   5.855   0.397   5.853
 9028POPC   GL151817   5.832   0.479   6.153
 9028POPC   GL251818   6.041   0.475   6.153
 9028POPC   C1A51819   5.886   0.448   6.453
 9028POPC   D2A51820   5.851   0.487   6.753
 9028POPC   C3A51821   5.888   0.436   7.053
 9028POPC   C4A51822   5.866   0.467   7.353
 9028POPC   C1B51823   6.137   0.517   6.453
 9028POPC   C2B51824   6.162   0.479   6.753
 9028POPC   C3B51825   6.078   0.475   7.053
 9028POPC   C4B51826   6.098   0.475   7.353
 9029POPC   NC351827  22.933   5.883   5.553
 9029POPC   PO451828  22.949   5.873   5.853
 9029POPC   GL151829  22.935   5.911   6.153
 9029POPC   GL251830  22.805   5.926   6.153
 9029POPC   C1A51831  22.894   5.882   6.453
 9029POPC   D2A51832  22.889   5.846   6.753
 9029POPC   C3A51833  22.929   5.837   7.053
 9029POPC   C4A51834  22.960   5.899   7.353
 9029POPC   C1B51835  22.657   5.944   6.453
 9029POPC   C2B51836  22.729   5.967   6.753
 9029POPC   C3B51837  22.718   5.923   7.053
 9029POPC   C4B51838  22.710   5.934   7.353
 9030POPC   NC351839  29.885  24.460   5.553
 9030POPC   PO451840  29.902  24.458   5.853
 9030POPC   GL151841  29.931  24.471   6.153
 9030POPC   GL251842  29.809  24.495   6.153
 9030POPC   C1A51843  29.960  24.473   6.453
 9030POPC   D2A51844  29.960  24.476   6.753
 9030POPC   C3A51845  29.967  24.446   7.053
 9030POPC   C4A51846  29.939  24.516   7.353
 9030POPC   C1B51847  29.650  24.529   6.453
 9030POPC   C2B51848  29.671  24.494   6.753
 9030POPC   C3B51849  29.685  24.555   7.053
 9030POPC   C4B51850  29.643  24.463   7.353
 9031POPC   NC351851  41.528  29.963   5.553
 9031POPC   PO451852  41.584  29.959   5.853
 9031POPC   GL151853  41.588  29.954   6.153
 9031POPC   GL251854  41.594  30.004   6.153
 9031POPC   C1A51855  41.563  29.878   6.453
 9031POPC   D2A51856  41.598  29.883   6.753
 9031POPC   C3A51857  41.577  29.922   7.053
 9031POPC   C4A51858  41.518  29.933   7.353
 9031POPC   C1B51859  41.630  30.195   6.453
 9031POPC   C2B51860  41.697  30.112   6.753
 9031POPC   C3B51861  41.671  30.165   7.053
 9031POPC   C4B51862  41.710  30.116   7.353
 9032POPC   NC351863   1.169  13.595   5.553
 9032POPC   PO451864   1.187  13.607   5.853
 9032POPC   GL151865   1.260  13.588   6.153
 9032POPC   GL251866   1.065  13.746   6.153
 9032POPC   C1A51867   1.254  13.602   6.453
 9032POPC   D2A51868   1.175  13.634   6.753
 9032POPC   C3A51869   1.261  13.642   7.053
 9032POPC   C4A51870   1.223  13.599   7.353
 9032POPC   C1B51871   1.018  13.788   6.453
 9032POPC   C2B51872   0.995  13.804   6.753
 9032POPC   C3B51873   0.969  13.764   7.053
 9032POPC   C4B51874   1.006  13.807   7.353
 9033POPC   NC351875  38.492  29.108   5.553
 9033POPC   PO451876  38.495  29.117   5.853
 9033POPC   GL151877  38.503  29.123   6.153
 9033POPC   GL251878  38.367  29.046   6.153
 9033POPC   C1A51879  38.480  29.167   6.453
 9033POPC   D2A51880  38.437  29.150   6.753
 9033POPC   C3A51881  38.410  29.164   7.053
 9033POPC   C4A51882  38.497  29.192   7.353
 9033POPC   C1B51883  38.328  28.927   6.453
 9033POPC   C2B51884  38.286  28.946   6.753
 9033POPC   C3B51885  38.238  28.984   7.053
 9033POPC   C4B51886  38.238  28.939   7.353
 9034POPC   NC351887  40.045  29.926   5.553
 9034POPC   PO451888  39.974  29.902   5.853
 9034POPC   GL151889  40.046  29.893   6.153
 9034POPC   GL251890  40.085  29.832   6.153
 9034POPC   C1A51891  40.014  29.912   6.453
 9034POPC   D2A51892  39.989  29.946   6.753
 9034POPC   C3A51893  39.992  29.947   7.053
 9034POPC   C4A51894  40.018  29.923   7.353
 9034POPC   C1B51895  40.241  29.786   6.453
 9034POPC   C2B51896  40.176  29.749   6.753
 9034POPC   C3B51897  40.190  29.795   7.053
 9034POPC   C4B51898  40.264  29.788   7.353
 9035POPC   NC351899  23.742  39.187   5.553
 9035POPC   PO451900  23.733  39.263   5.853
 9035POPC   GL151901  23.734  39.186   6.153
 9035POPC   GL251902  23.874  39.157   6.153
 9035POPC   C1A51903  23.667  39.239   6.453
 9035POPC   D2A51904  23.665  39.194   6.753
 9035POPC   C3A51905  23.763  39.183   7.053
 9035POPC   C4A51906  23.761  39.215   7.353
 9035POPC   C1B51907  23.922  39.096   6.453
 9035POPC   C2B51908  23.974  39.106   6.753
 9035POPC   C3B51909  23.991  39.096   7.053
 9035POPC   C4B51910  23.916  39.170   7.353
 9036POPC   NC351911  34.583  22.981   5.553
 9036POPC   PO451912  34.538  22.934   5.853
 9036POPC   GL151913  34.592  22.934   6.153
 9036POPC   GL251914  34.594  23.038   6.153
 9036POPC   C1A51915  34.563  22.979   6.453
 9036POPC   D2A51916  34.610  22.929   6.753
 9036POPC   C3A51917  34.604  22.968   7.053
 9036POPC   C4A51918  34.530  22.941   7.353
 9036POPC   C1B51919  34.608  23.130   6.453
 9036POPC   C2B51920  34.691  23.159   6.753
 9036POPC   C3B51921  34.652  23.185   7.053
 9036POPC   C4B51922  34.614  23.150   7.353
 9037POPC   NC351923  29.131  15.988   5.553
 9037POPC   PO451924  29.151  15.969   5.853
 9037POPC   GL151925  29.100  15.946   6.153
 9037POPC   GL251926  29.139  16.027   6.153
 9037POPC   C1A51927  29.171  15.936   6.453
 9037POPC   D2A51928  29.104  15.993   6.753
 9037POPC   C3A51929  29.118  15.966   7.053
 9037POPC   C4A51930  29.141  15.998   7.353
 9037POPC   C1B51931  29.204  16.213   6.453
 9037POPC   C2B51932  29.240  16.173   6.753
 9037POPC   C3B51933  29.192  16.196   7.053
 9037POPC   C4B51934  29.236  16.148   7.353
 9038POPC   NC351935  42.287  13.613   5.553
 9038POPC   PO451936  42.376  13.599   5.853
 9038POPC   GL151937  42.322  13.662   6.153
 9038POPC   GL251938  42.219  13.665   6.153
 9038POPC   C1A51939  42.370  13.597   6.453
 9038POPC   D2A51940  42.312  13.589   6.753
 9038POPC   C3A51941  42.336  13.669   7.053
 9038POPC   C4A51942  42.314  13.613   7.353
 9038POPC   C1B51943  42.155  13.703   6.453
 9038POPC   C2B51944  42.131  13.779   6.753
 9038POPC   C3B51945  42.138  13.732   7.053
 9038POPC   C4B51946  42.130  13.686   7.353
 9039POPC   NC351947  42.356   1.186   5.553
 9039POPC   PO451948  42.310   1.222   5.853
 9039POPC   GL151949  42.343   1.191   6.153
 9039POPC   GL251950  42.420   1.294   6.153
 9039POPC   C1A51951  42.288   1.168   6.453
 9039POPC   D2A51952  42.338   1.174   6.753
 9039POPC   C3A51953  42.373   1.195   7.053
 9039POPC   C4A51954  42.319   1.264   7.353
 9039POPC   C1B51955  42.435   1.433   6.453
 9039POPC   C2B51956  42.371   1.469   6.753
 9039POPC   C3B51957  42.381   1.495   7.053
 9039POPC   C4B51958  42.437   1.432   7.353
 9040POPC   NC351959  36.864  29.964   5.553
 9040POPC   PO451960  36.949  29.882   5.853
 9040POPC   GL151961  36.932  29.887   6.153
 9040POPC   GL251962  36.997  29.960   6.153
 9040POPC   C1A51963  36.943  29.935   6.453
 9040POPC   D2A51964  36.914  29.946   6.753
 9040POPC   C3A51965  36.925  29.949   7.053
 9040POPC   C4A51966  36.857  29.906   7.353
 9040POPC   C1B51967  37.116  29.958   6.453
 9040POPC   C2B51968  37.124  29.944   6.753
 9040POPC   C3B51969  37.153  29.913   7.053
 9040POPC   C4B51970  37.137  29.964   7.353
 9041POPC   NC351971  30.648   6.633   5.553
 9041POPC   PO451972  30.732   6.622   5.853
 9041POPC   GL151973  30.653   6.692   6.153
 9041POPC   GL251974  30.671   6.532   6.153
 9041POPC   C1A51975  30.656   6.620   6.453
 9041POPC   D2A51976  30.672   6.615   6.753
 9041POPC   C3A51977  30.714   6.641   7.053
 9041POPC   C4A51978  30.657   6.675   7.353
 9041POPC   C1B51979  30.690   6.349   6.453
 9041POPC   C2B51980  30.696   6.352   6.753
 9041POPC   C3B51981  30.642   6.360   7.053
 9041POPC   C4B51982  30.671   6.384   7.353
 9042POPC   NC351983   4.303  29.153   5.553
 9042POPC   PO451984   4.336  29.123   5.853
 9042POPC   GL151985   4.315  29.118   6.153
 9042POPC   GL251986   4.200  29.075   6.153
 9042POPC   C1A51987   4.318  29.129   6.453
 9042POPC   D2A51988   4.340  29.181   6.753
 9042POPC   C3A51989   4.342  29.125   7.053
 9042POPC   C4A51990   4.275  29.105   7.353
 9042POPC   C1B51991   4.057  29.026   6.453
 9042POPC   C2B51992   4.085  29.102   6.753
 9042POPC   C3B51993   4.058  29.060   7.053
 9042POPC   C4B51994   4.087  29.056   7.353
 9043POPC   NC351995  43.925  42.334   5.553
 9043POPC   PO451996  43.882  42.302   5.853
 9043POPC   GL151997  43.838  42.329   6.153
 9043POPC   GL251998  44.017  42.459   6.153
 9043POPC   C1A51999  43.886  42.306   6.453
 9043POPC   D2A52000  43.915  42.299   6.753
 9043POPC   C3A52001  43.848  42.301   7.053
 9043POPC   C4A52002  43.928  42.307   7.353
 9043POPC   C1B52003  44.058  42.567   6.453
 9043POPC   C2B52004  44.085  42.511   6.753
 9043POPC   C3B52005  44.008  42.552   7.053
 9043POPC   C4B52006  44.053  42.558   7.353
 9044POPC   NC352007  40.821   9.769   5.553
 9044POPC   PO452008  40.740   9.777   5.853
 9044POPC   GL152009  40.818   9.755   6.153
 9044POPC   GL252010  40.726   9.641   6.153
 9044POPC   C1A52011  40.773   9.784   6.453
 9044POPC   D2A52012  40.784   9.771   6.753
 9044POPC   C3A52013  40.735   9.714   7.053
 9044POPC   C4A52014  40.811   9.731   7.353
 9044POPC   C1B52015  40.602   9.581   6.453
 9044POPC   C2B52016  40.648   9.594   6.753
 9044POPC   C3B52017  40.571   9.522   7.053
 9044POPC   C4B52018  40.605   9.602   7.353
 9045POPC   NC352019  26.048  32.208   5.553
 9045POPC   PO452020  26.087  32.250   5.853
 9045POPC   GL152021  25.996  32.250   6.153
 9045POPC   GL252022  26.152  32.271   6.153
 9045POPC   C1A52023  26.007  32.276   6.453
 9045POPC   D2A52024  26.051  32.229   6.753
 9045POPC   C3A52025  25.994  32.241   7.053
 9045POPC   C4A52026  26.005  32.262   7.353
 9045POPC   C1B52027  26.219  32.387   6.453
 9045POPC   C2B52028  26.238  32.407   6.753
 9045POPC   C3B52029  26.240  32.392   7.053
 9045POPC   C4B52030  26.310  32.381   7.353
 9046POPC   NC352031  18.279   3.590   5.553
 9046POPC   PO452032  18.242   3.547   5.853
 9046POPC   GL152033  18.267   3.569   6.153
 9046POPC   GL252034  18.282   3.391   6.153
 9046POPC   C1A52035  18.246   3.539   6.453
 9046POPC   D2A52036  18.252   3.548   6.753
 9046POPC   C3A52037  18.284   3.579   7.053
 9046POPC   C4A52038  18.280   3.573   7.353
 9046POPC   C1B52039  18.224   3.256   6.453
 9046POPC   C2B52040  18.299   3.246   6.753
 9046POPC   C3B52041  18.302   3.339   7.053
 9046POPC   C4B52042  18.277   3.299   7.353
 9047POPC   NC352043  43.134   5.821   5.553
 9047POPC   PO452044  43.141   5.887   5.853
 9047POPC   GL152045  43.133   5.903   6.153
 9047POPC   GL252046  43.119   5.956   6.153
 9047POPC   C1A52047  43.088   5.911   6.453
 9047POPC   D2A52048  43.124   5.898   6.753
 9047POPC   C3A52049  43.084   5.906   7.053
 9047POPC   C4A52050  43.112   5.832   7.353
 9047POPC   C1B52051  43.162   6.110   6.453
 9047POPC   C2B52052  43.164   6.139   6.753
 9047POPC   C3B52053  43.090   6.086   7.053
 9047POPC   C4B52054  43.157   6.138   7.353
 9048POPC   NC352055  33.776   2.000   5.553
 9048POPC   PO452056  33.838   1.965   5.853
 9048POPC   GL152057  33.836   1.963   6.153
 9048POPC   GL252058  33.914   2.042   6.153
 9048POPC   C1A52059  33.834   1.982   6.453
 9048POPC   D2A52060  33.829   1.960   6.753
 9048POPC   C3A52061  33.828   1.986   7.053
 9048POPC   C4A52062  33.813   1.994   7.353
 9048POPC   C1B52063  34.021   2.020   6.453
 9048POPC   C2B52064  34.041   2.045   6.753
 9048POPC   C3B52065  34.069   2.042   7.053
 9048POPC   C4B52066  34.025   1.994   7.353
 9049POPC   NC352067   8.195  19.835   5.553
 9049POPC   PO452068   8.172  19.870   5.853
 9049POPC   GL152069   8.225  19.785   6.153
 9049POPC   GL252070   8.247  19.971   6.153
 9049POPC   C1A52071   8.161  19.841   6.453
 9049POPC   D2A52072   8.243  19.809   6.753
 9049POPC   C3A52073   8.206  19.787   7.053
 9049POPC   C4A52074   8.148  19.832   7.353
 9049POPC   C1B52075   8.217  20.081   6.453
 9049POPC   C2B52076   8.284  20.029   6.753
 9049POPC   C3B52077   8.270  20.091   7.053
 9049POPC   C4B52078   8.238  20.041   7.353
 9050POPC   NC352079   1.258   5.860   5.553
 9050POPC   PO452080   1.228   5.865   5.853
 9050POPC   GL152081   1.254   5.833   6.153
 9050POPC   GL252082   1.309   5.798   6.153
 9050POPC   C1A52083   1.257   5.857   6.453
 9050POPC   D2A52084   1.250   5.903   6.753
 9050POPC   C3A52085   1.196   5.828   7.053
 9050POPC   C4A52086   1.211   5.866   7.353
 9050POPC   C1B52087   1.287   5.629   6.453
 9050POPC   C2B52088   1.267   5.672   6.753
 9050POPC   C3B52089   1.266   5.670   7.053
 9050POPC   C4B52090   1.269   5.590   7.353
 9051POPC   NC352091   7.410  13.620   5.553
 9051POPC   PO452092   7.388  13.627   5.853
 9051POPC   GL152093   7.403  13.674   6.153
 9051POPC   GL252094   7.405  13.754   6.153
 9051POPC   C1A52095   7.434  13.649   6.453
 9051POPC   D2A52096   7.385  13.662   6.753
 9051POPC   C3A52097   7.428  13.593   7.053
 9051POPC   C4A52098   7.378  13.626   7.353
 9051POPC   C1B52099   7.463  13.886   6.453
 9051POPC   C2B52100   7.420  13.871   6.753
 9051POPC   C3B52101   7.446  13.925   7.053
 9051POPC   C4B52102   7.440  13.885   7.353
 9052POPC   NC352103  21.428  39.199   5.553
 9052POPC   PO452104  21.357  39.244   5.853
 9052POPC   GL152105  21.418  39.212   6.153
 9052POPC   GL252106  21.297  39.241   6.153
 9052POPC   C1A52107  21.358  39.197   6.453
 9052POPC   D2A52108  21.388  39.263   6.753
 9052POPC   C3A52109  21.344  39.183   7.053
 9052POPC   C4A52110  21.432  39.231   7.353
 9052POPC   C1B52111  21.116  39.216   6.453
 9052POPC   C2B52112  21.095  39.211   6.753
 9052POPC   C3B52113  21.159  39.215   7.053
 9052POPC   C4B52114  21.091  39.171   7.353
 9053POPC   NC352115  33.018   1.987   5.553
 9053POPC   PO452116  32.976   2.036   5.853
 9053POPC   GL152117  33.048   1.993   6.153
 9053POPC   GL252118  33.010   2.087   6.153
 9053POPC   C1A52119  33.073   2.027   6.453
 9053POPC   D2A52120  33.064   1.997   6.753
 9053POPC   C3A52121  33.072   1.983   7.053
 9053POPC   C4A52122  33.013   1.994   7.353
 9053POPC   C1B52123  32.977   2.201   6.453
 9053POPC   C2B52124  33.020   2.245   6.753
 9053POPC   C3B52125  32.986   2.273   7.053
 9053POPC   C4B52126  32.977   2.270   7.353
 9054POPC   NC352127  39.185  37.682   5.553
 9054POPC   PO452128  39.206  37.674   5.853
 9054POPC   GL152129  39.219  37.655   6.153
 9054POPC   GL252130  39.260  37.815   6.153
 9054POPC   C1A52131  39.264  37.713   6.453
 9054POPC   D2A52132  39.277  37.714   6.753
 9054POPC   C3A52133  39.196  37.687   7.053
 9054POPC   C4A52134  39.208  37.643   7.353
 9054POPC   C1B52135  39.316  37.861   6.453
 9054POPC   C2B52136  39.342  37.889   6.753
 9054POPC   C3B52137  39.405  37.876   7.053
 9054POPC   C4B52138  39.340  37.920   7.353
 9055POPC   NC352139  12.072   9.003   5.553
 9055POPC   PO452140  12.116   9.000   5.853
 9055POPC   GL152141  12.124   8.933   6.153
 9055POPC   GL252142  11.930   9.027   6.153
 9055POPC   C1A52143  12.028   8.959   6.453
 9055POPC   D2A52144  12.046   8.933   6.753
 9055POPC   C3A52145  12.112   8.925   7.053
 9055POPC   C4A52146  12.027   8.999   7.353
 9055POPC   C1B52147  11.868   8.999   6.453
 9055POPC   C2B52148  11.822   9.045   6.753
 9055POPC   C3B52149  11.808   9.031   7.053
 9055POPC   C4B52150  11.865   8.985   7.353
 9056POPC   NC352151  16.719   6.621   5.553
 9056POPC   PO452152  16.759   6.685   5.853
 9056POPC   GL152153  16.772   6.616   6.153
 9056POPC   GL252154  16.632   6.625   6.153
 9056POPC   C1A52155  16.722   6.649   6.453
 9056POPC   D2A52156  16.744   6.674   6.753
 9056POPC   C3A52157  16.765   6.668   7.053
 9056POPC   C4A52158  16.775   6.692   7.353
 9056POPC   C1B52159  16.527   6.606   6.453
 9056POPC   C2B52160  16.471   6.560   6.753
 9056POPC   C3B52161  16.492   6.630   7.053
 9056POPC   C4B52162  16.443   6.571   7.353
 9057POPC   NC352163  41.567  39.273   5.553
 9057POPC   PO452164  41.523  39.241   5.853
 9057POPC   GL152165  41.606  39.259   6.153
 9057POPC   GL252166  41.695  39.182   6.153
 9057POPC   C1A52167  41.567  39.243   6.453
 9057POPC   D2A52168  41.591  39.184   6.753
 9057POPC   C3A52169  41.566  39.237   7.053
 9057POPC   C4A52170  41.523  39.279   7.353
 9057POPC   C1B52171  41.780  39.164   6.453
 9057POPC   C2B52172  41.796  39.117   6.753
 9057POPC   C3B52173  41.766  39.117   7.053
 9057POPC   C4B52174  41.816  39.162   7.353
 9058POPC   NC352175  34.541  22.191   5.553
 9058POPC   PO452176  34.602  22.208   5.853
 9058POPC   GL152177  34.620  22.193   6.153
 9058POPC   GL252178  34.689  22.088   6.153
 9058POPC   C1A52179  34.603  22.120   6.453
 9058POPC   D2A52180  34.588  22.206   6.753
 9058POPC   C3A52181  34.530  22.133   7.053
 9058POPC   C4A52182  34.549  22.206   7.353
 9058POPC   C1B52183  34.682  21.948   6.453
 9058POPC   C2B52184  34.740  21.932   6.753
 9058POPC   C3B52185  34.727  21.961   7.053
 9058POPC   C4B52186  34.724  21.952   7.353
 9059POPC   NC352187  33.751  23.733   5.553
 9059POPC   PO452188  33.831  23.676   5.853
 9059POPC   GL152189  33.757  23.708   6.153
 9059POPC   GL252190  33.716  23.688   6.153
 9059POPC   C1A52191  33.774  23.726   6.453
 9059POPC   D2A52192  33.773  23.753   6.753
 9059POPC   C3A52193  33.804  23.679   7.053
 9059POPC   C4A52194  33.816  23.734   7.353
 9059POPC   C1B52195  33.507  23.609   6.453
 9059POPC   C2B52196  33.561  23.646   6.753
 9059POPC   C3B52197  33.575  23.702   7.053
 9059POPC   C4B52198  33.584  23.704   7.353
 9060POPC   NC352199   4.307   6.677   5.553
 9060POPC   PO452200   4.337   6.682   5.853
 9060POPC   GL152201   4.361   6.605   6.153
 9060POPC   GL252202   4.470   6.686   6.153
 9060POPC   C1A52203   4.294   6.628   6.453
 9060POPC   D2A52204   4.301   6.614   6.753
 9060POPC   C3A52205   4.332   6.676   7.053
 9060POPC   C4A52206   4.315   6.596   7.353
 9060POPC   C1B52207   4.563   6.718   6.453
 9060POPC   C2B52208   4.604   6.672   6.753
 9060POPC   C3B52209   4.521   6.671   7.053
 9060POPC   C4B52210   4.552   6.714   7.353
 9061POPC   NC352211  21.408  25.225   5.553
 9061POPC   PO452212  21.336  25.313   5.853
 9061POPC   GL152213  21.428  25.229   6.153
 9061POPC   GL252214  21.281  25.341   6.153
 9061POPC   C1A52215  21.340  25.264   6.453
 9061POPC   D2A52216  21.420  25.255   6.753
 9061POPC   C3A52217  21.399  25.314   7.053
 9061POPC   C4A52218  21.347  25.284   7.353
 9061POPC   C1B52219  21.159  25.433   6.453
 9061POPC   C2B52220  21.219  25.406   6.753
 9061POPC   C3B52221  21.144  25.394   7.053
 9061POPC   C4B52222  21.183  25.451   7.353
 9062POPC   NC352223  29.100   3.566   5.553
 9062POPC   PO452224  29.145   3.590   5.853
 9062POPC   GL152225  29.153   3.504   6.153
 9062POPC   GL252226  29.005   3.476   6.153
 9062POPC   C1A52227  29.187   3.492   6.453
 9062POPC   D2A52228  29.131   3.569   6.753
 9062POPC   C3A52229  29.136   3.555   7.053
 9062POPC   C4A52230  29.122   3.534   7.353
 9062POPC   C1B52231  28.930   3.448   6.453
 9062POPC   C2B52232  28.922   3.488   6.753
 9062POPC   C3B52233  28.931   3.515   7.053
 9062POPC   C4B52234  28.909   3.433   7.353
 9063POPC   NC352235  36.909   1.993   5.553
 9063POPC   PO452236  36.904   2.002   5.853
 9063POPC   GL152237  36.927   1.945   6.153
 9063POPC   GL252238  36.965   2.097   6.153
 9063POPC   C1A52239  36.897   1.969   6.453
 9063POPC   D2A52240  36.923   2.021   6.753
 9063POPC   C3A52241  36.918   1.990   7.053
 9063POPC   C4A52242  36.939   1.941   7.353
 9063POPC   C1B52243  37.106   2.153   6.453
 9063POPC   C2B52244  37.041   2.166   6.753
 9063POPC   C3B52245  37.068   2.147   7.053
 9063POPC   C4B52246  37.038   2.195   7.353
 9064POPC   NC352247  40.009  32.975   5.553
 9064POPC   PO452248  39.976  32.999   5.853
 9064POPC   GL152249  40.028  33.007   6.153
 9064POPC   GL252250  40.078  33.138   6.153
 9064POPC   C1A52251  40.003  33.048   6.453
 9064POPC   D2A52252  40.041  33.062   6.753
 9064POPC   C3A52253  40.051  33.026   7.053
 9064POPC   C4A52254  39.992  33.012   7.353
 9064POPC   C1B52255  40.255  33.216   6.453
 9064POPC   C2B52256  40.160  33.198   6.753
 9064POPC   C3B52257  40.228  33.207   7.053
 9064POPC   C4B52258  40.205  33.127   7.353
 9065POPC   NC352259  32.273   0.487   5.553
 9065POPC   PO452260  32.219   0.408   5.853
 9065POPC   GL152261  32.290   0.396   6.153
 9065POPC   GL252262  32.305   0.592   6.153
 9065POPC   C1A52263  32.280   0.437   6.453
 9065POPC   D2A52264  32.210   0.434   6.753
 9065POPC   C3A52265  32.295   0.408   7.053
 9065POPC   C4A52266  32.264   0.445   7.353
 9065POPC   C1B52267  32.362   0.679   6.453
 9065POPC   C2B52268  32.294   0.643   6.753
 9065POPC   C3B52269  32.298   0.667   7.053
 9065POPC   C4B52270  32.300   0.630   7.353
 9066POPC   NC352271  36.158  37.669   5.553
 9066POPC   PO452272  36.149  37.693   5.853
 9066POPC   GL152273  36.083  37.721   6.153
 9066POPC   GL252274  36.027  37.771   6.153
 9066POPC   C1A52275  36.159  37.727   6.453
 9066POPC   D2A52276  36.149  37.637   6.753
 9066POPC   C3A52277  36.108  37.687   7.053
 9066POPC   C4A52278  36.156  37.659   7.353
 9066POPC   C1B52279  35.968  37.848   6.453
 9066POPC   C2B52280  36.032  37.860   6.753
 9066POPC   C3B52281  35.979  37.855   7.053
 9066POPC   C4B52282  35.999  37.899   7.353
 9067POPC   NC352283  26.053  19.858   5.553
 9067POPC   PO452284  26.022  19.790   5.853
 9067POPC   GL152285  26.069  19.815   6.153
 9067POPC   GL252286  26.025  19.676   6.153
 9067POPC   C1A52287  26.068  19.791   6.453
 9067POPC   D2A52288  26.045  19.809   6.753
 9067POPC   C3A52289  26.046  19.844   7.053
 9067POPC   C4A52290  26.061  19.865   7.353
 9067POPC   C1B52291  26.108  19.582   6.453
 9067POPC   C2B52292  26.104  19.541   6.753
 9067POPC   C3B52293  26.046  19.545   7.053
 9067POPC   C4B52294  26.063  19.616   7.353
 9068POPC   NC352295  29.918  25.221   5.553
 9068POPC   PO452296  29.941  25.288   5.853
 9068POPC   GL152297  29.936  25.310   6.153
 9068POPC   GL252298  29.864  25.365   6.153
 9068POPC   C1A52299  29.909  25.277   6.453
 9068POPC   D2A52300  29.949  25.273   6.753
 9068POPC   C3A52301  29.932  25.282   7.053
 9068POPC   C4A52302  29.914  25.232   7.353
 9068POPC   C1B52303  29.668  25.384   6.453
 9068POPC   C2B52304  29.722  25.413   6.753
 9068POPC   C3B52305  29.693  25.426   7.053
 9068POPC   C4B52306  29.726  25.415   7.353
 9069POPC   NC352307   8.191  36.155   5.553
 9069POPC   PO452308   8.174  36.177   5.853
 9069POPC   GL152309   8.193  36.158   6.153
 9069POPC   GL252310   8.169  36.237   6.153
 9069POPC   C1A52311   8.224  36.162   6.453
 9069POPC   D2A52312   8.220  36.153   6.753
 9069POPC   C3A52313   8.220  36.080   7.053
 9069POPC   C4A52314   8.208  36.166   7.353
 9069POPC   C1B52315   8.114  36.356   6.453
 9069POPC   C2B52316   8.054  36.353   6.753
 9069POPC   C3B52317   8.041  36.389   7.053
 9069POPC   C4B52318   8.075  36.393   7.353
 9070POPC   NC352319  40.739  43.836   5.553
 9070POPC   PO452320  40.752  43.928   5.853
 9070POPC   GL152321  40.819  43.851   6.153
 9070POPC   GL252322  40.768  43.750   6.153
 9070POPC   C1A52323  40.781  43.846   6.453
 9070POPC   D2A52324  40.734  43.935   6.753
 9070POPC   C3A52325  40.733  43.906   7.053
 9070POPC   C4A52326  40.807  43.910   7.353
 9070POPC   C1B52327  40.732  43.601   6.453
 9070POPC   C2B52328  40.751  43.630   6.753
 9070POPC   C3B52329  40.762  43.650   7.053
 9070POPC   C4B52330  40.792  43.681   7.353
 9071POPC   NC352331  27.577  33.832   5.553
 9071POPC   PO452332  27.600  33.814   5.853
 9071POPC   GL152333  27.577  33.758   6.153
 9071POPC   GL252334  27.528  33.882   6.153
 9071POPC   C1A52335  27.632  33.777   6.453
 9071POPC   D2A52336  27.563  33.836   6.753
 9071POPC   C3A52337  27.608  33.793   7.053
 9071POPC   C4A52338  27.552  33.820   7.353
 9071POPC   C1B52339  27.538  34.081   6.453
 9071POPC   C2B52340  27.492  34.069   6.753
 9071POPC   C3B52341  27.565  34.005   7.053
 9071POPC   C4B52342  27.542  34.044   7.353
 9072POPC   NC352343  37.709  25.302   5.553
 9072POPC   PO452344  37.703  25.276   5.853
 9072POPC   GL152345  37.709  25.296   6.153
 9072POPC   GL252346  37.770  25.322   6.153
 9072POPC   C1A52347  37.669  25.258   6.453
 9072POPC   D2A52348  37.691  25.252   6.753
 9072POPC   C3A52349  37.655  25.287   7.053
 9072POPC   C4A52350  37.678  25.221   7.353
 9072POPC   C1B52351  37.880  25.394   6.453
 9072POPC   C2B52352  37.909  25.369   6.753
 9072POPC   C3B52353  37.885  25.421   7.053
 9072POPC   C4B52354  37.873  25.401   7.353
 9073POPC   NC352355  38.464  15.954   5.553
 9073POPC   PO452356  38.501  15.998   5.853
 9073POPC   GL152357  38.446  15.956   6.153
 9073POPC   GL252358  38.534  16.108   6.153
 9073POPC   C1A52359  38.436  15.988   6.453
 9073POPC   D2A52360  38.406  15.953   6.753
 9073POPC   C3A52361  38.425  15.991   7.053
 9073POPC   C4A52362  38.487  15.909   7.353
 9073POPC   C1B52363  38.526  16.164   6.453
 9073POPC   C2B52364  38.523  16.148   6.753
 9073POPC   C3B52365  38.513  16.231   7.053
 9073POPC   C4B52366  38.547  16.183   7.353
 9074POPC   NC352367  31.479  16.724   5.553
 9074POPC   PO452368  31.492  16.702   5.853
 9074POPC   GL152369  31.509  16.715   6.153
 9074POPC   GL252370  31.353  16.682   6.153
 9074POPC   C1A52371  31.435  16.772   6.453
 9074POPC   D2A52372  31.484  16.705   6.753
 9074POPC   C3A52373  31.481  16.759   7.053
 9074POPC   C4A52374  31.508  16.761   7.353
 9074POPC   C1B52375  31.178  16.727   6.453
 9074POPC   C2B52376  31.273  16.732   6.753
 9074POPC   C3B52377  31.205  16.699   7.053
 9074POPC   C4B52378  31.196  16.682   7.353
 9075POPC   NC352379  14.444  26.049   5.553
 9075POPC   PO452380  14.404  26.022   5.853
 9075POPC   GL152381  14.392  26.072   6.153
 9075POPC   GL252382  14.356  26.200   6.153
 9075POPC   C1A52383  14.434  25.993   6.453
 9075POPC   D2A52384  14.356  26.070   6.753
 9075POPC   C3A52385  14.375  26.053   7.053
 9075POPC   C4A52386  14.354  26.036   7.353
 9075POPC   C1B52387  14.273  26.313   6.453
 9075POPC   C2B52388  14.333  26.264   6.753
 9075POPC   C3B52389  14.299  26.322   7.053
 9075POPC   C4B52390  14.289  26.260   7.353
 9076POPC   NC352391   6.664   1.247   5.553
 9076POPC   PO452392   6.625   1.214   5.853
 9076POPC   GL152393   6.655   1.172   6.153
 9076POPC   GL252394   6.731   1.198   6.153
 9076POPC   C1A52395   6.610   1.262   6.453
 9076POPC   D2A52396   6.619   1.213   6.753
 9076POPC   C3A52397   6.620   1.244   7.053
 9076POPC   C4A52398   6.684   1.194   7.353
 9076POPC   C1B52399   6.888   1.119   6.453
 9076POPC   C2B52400   6.903   1.206   6.753
 9076POPC   C3B52401   6.842   1.199   7.053
 9076POPC   C4B52402   6.904   1.118   7.353
 9077POPC   NC352403  35.390  12.854   5.553
 9077POPC   PO452404  35.372  12.855   5.853
 9077POPC   GL152405  35.399  12.882   6.153
 9077POPC   GL252406  35.199  12.954   6.153
 9077POPC   C1A52407  35.309  12.886   6.453
 9077POPC   D2A52408  35.393  12.820   6.753
 9077POPC   C3A52409  35.372  12.853   7.053
 9077POPC   C4A52410  35.324  12.850   7.353
 9077POPC   C1B52411  35.137  12.959   6.453
 9077POPC   C2B52412  35.100  12.931   6.753
 9077POPC   C3B52413  35.161  12.949   7.053
 9077POPC   C4B52414  35.168  12.951   7.353
 9078POPC   NC352415  26.069  36.160   5.553
 9078POPC   PO452416  26.077  36.094   5.853
 9078POPC   GL152417  26.081  36.101   6.153
 9078POPC   GL252418  25.954  36.081   6.153
 9078POPC   C1A52419  26.073  36.154   6.453
 9078POPC   D2A52420  26.009  36.173   6.753
 9078POPC   C3A52421  26.066  36.141   7.053
 9078POPC   C4A52422  26.037  36.110   7.353
 9078POPC   C1B52423  25.809  36.064   6.453
 9078POPC   C2B52424  25.857  36.022   6.753
 9078POPC   C3B52425  25.819  35.985   7.053
 9078POPC   C4B52426  25.810  36.052   7.353
 9079POPC   NC352427   6.693   6.610   5.553
 9079POPC   PO452428   6.652   6.657   5.853
 9079POPC   GL152429   6.679   6.650   6.153
 9079POPC   GL252430   6.724   6.800   6.153
 9079POPC   C1A52431   6.621   6.663   6.453
 9079POPC   D2A52432   6.607   6.674   6.753
 9079POPC   C3A52433   6.639   6.690   7.053
 9079POPC   C4A52434   6.649   6.616   7.353
 9079POPC   C1B52435   6.716   6.886   6.453
 9079POPC   C2B52436   6.707   6.916   6.753
 9079POPC   C3B52437   6.682   6.929   7.053
 9079POPC   C4B52438   6.745   6.877   7.353
 9080POPC   NC352439  33.753  26.035   5.553
 9080POPC   PO452440  33.774  25.992   5.853
 9080POPC   GL152441  33.809  26.016   6.153
 9080POPC   GL252442  33.944  26.084   6.153
 9080POPC   C1A52443  33.812  26.084   6.453
 9080POPC   D2A52444  33.834  26.066   6.753
 9080POPC   C3A52445  33.841  26.060   7.053
 9080POPC   C4A52446  33.847  26.089   7.353
 9080POPC   C1B52447  34.058  26.182   6.453
 9080POPC   C2B52448  34.049  26.094   6.753
 9080POPC   C3B52449  34.064  26.162   7.053
 9080POPC   C4B52450  34.062  26.169   7.353
 9081POPC   NC352451  31.458  11.277   5.553
 9081POPC   PO452452  31.447  11.267   5.853
 9081POPC   GL152453  31.450  11.317   6.153
 9081POPC   GL252454  31.521  11.199   6.153
 9081POPC   C1A52455  31.478  11.262   6.453
 9081POPC   D2A52456  31.497  11.346   6.753
 9081POPC   C3A52457  31.465  11.314   7.053
 9081POPC   C4A52458  31.451  11.336   7.353
 9081POPC   C1B52459  31.654  11.119   6.453
 9081POPC   C2B52460  31.685  11.141   6.753
 9081POPC   C3B52461  31.651  11.125   7.053
 9081POPC   C4B52462  31.647  11.139   7.353
 9082POPC   NC352463  26.783  35.335   5.553
 9082POPC   PO452464  26.768  35.323   5.853
 9082POPC   GL152465  26.807  35.315   6.153
 9082POPC   GL252466  26.761  35.442   6.153
 9082POPC   C1A52467  26.822  35.400   6.453
 9082POPC   D2A52468  26.853  35.318   6.753
 9082POPC   C3A52469  26.782  35.359   7.053
 9082POPC   C4A52470  26.821  35.308   7.353
 9082POPC   C1B52471  26.846  35.599   6.453
 9082POPC   C2B52472  26.771  35.614   6.753
 9082POPC   C3B52473  26.812  35.567   7.053
 9082POPC   C4B52474  26.767  35.602   7.353
 9083POPC   NC352475  34.579  26.025   5.553
 9083POPC   PO452476  34.546  26.007   5.853
 9083POPC   GL152477  34.578  26.006   6.153
 9083POPC   GL252478  34.648  26.156   6.153
 9083POPC   C1A52479  34.571  26.035   6.453
 9083POPC   D2A52480  34.565  26.009   6.753
 9083POPC   C3A52481  34.551  26.020   7.053
 9083POPC   C4A52482  34.545  26.069   7.353
 9083POPC   C1B52483  34.602  26.249   6.453
 9083POPC   C2B52484  34.625  26.322   6.753
 9083POPC   C3B52485  34.660  26.258   7.053
 9083POPC   C4B52486  34.667  26.265   7.353
 9084POPC   NC352487  35.315   8.988   5.553
 9084POPC   PO452488  35.356   9.001   5.853
 9084POPC   GL152489  35.352   8.983   6.153
 9084POPC   GL252490  35.296   8.850   6.153
 9084POPC   C1A52491  35.312   9.010   6.453
 9084POPC   D2A52492  35.308   9.009   6.753
 9084POPC   C3A52493  35.346   8.928   7.053
 9084POPC   C4A52494  35.372   8.958   7.353
 9084POPC   C1B52495  35.218   8.777   6.453
 9084POPC   C2B52496  35.189   8.805   6.753
 9084POPC   C3B52497  35.222   8.779   7.053
 9084POPC   C4B52498  35.234   8.805   7.353
 9085POPC   NC352499  22.186  15.917   5.553
 9085POPC   PO452500  22.175  15.914   5.853
 9085POPC   GL152501  22.126  15.971   6.153
 9085POPC   GL252502  22.229  16.034   6.153
 9085POPC   C1A52503  22.187  15.948   6.453
 9085POPC   D2A52504  22.140  15.937   6.753
 9085POPC   C3A52505  22.196  16.000   7.053
 9085POPC   C4A52506  22.133  15.922   7.353
 9085POPC   C1B52507  22.399  16.105   6.453
 9085POPC   C2B52508  22.378  16.109   6.753
 9085POPC   C3B52509  22.408  16.151   7.053
 9085POPC   C4B52510  22.332  16.079   7.353
 9086POPC   NC352511   2.811  13.579   5.553
 9086POPC   PO452512   2.720  13.618   5.853
 9086POPC   GL152513   2.755  13.604   6.153
 9086POPC   GL252514   2.839  13.565   6.153
 9086POPC   C1A52515   2.768  13.579   6.453
 9086POPC   D2A52516   2.722  13.614   6.753
 9086POPC   C3A52517   2.791  13.581   7.053
 9086POPC   C4A52518   2.804  13.655   7.353
 9086POPC   C1B52519   3.029  13.563   6.453
 9086POPC   C2B52520   3.015  13.552   6.753
 9086POPC   C3B52521   2.954  13.556   7.053
 9086POPC   C4B52522   2.979  13.496   7.353
 9087POPC   NC352523  22.984  25.220   5.553
 9087POPC   PO452524  22.958  25.274   5.853
 9087POPC   GL152525  22.961  25.274   6.153
 9087POPC   GL252526  22.802  25.328   6.153
 9087POPC   C1A52527  22.953  25.300   6.453
 9087POPC   D2A52528  22.931  25.237   6.753
 9087POPC   C3A52529  22.932  25.264   7.053
 9087POPC   C4A52530  22.926  25.282   7.353
 9087POPC   C1B52531  22.804  25.454   6.453
 9087POPC   C2B52532  22.795  25.429   6.753
 9087POPC   C3B52533  22.805  25.459   7.053
 9087POPC   C4B52534  22.798  25.458   7.353
 9088POPC   NC352535  26.034  28.376   5.553
 9088POPC   PO452536  26.065  28.340   5.853
 9088POPC   GL152537  26.066  28.387   6.153
 9088POPC   GL252538  25.974  28.289   6.153
 9088POPC   C1A52539  26.073  28.336   6.453
 9088POPC   D2A52540  26.055  28.417   6.753
 9088POPC   C3A52541  25.995  28.325   7.053
 9088POPC   C4A52542  26.053  28.402   7.353
 9088POPC   C1B52543  25.951  28.129   6.453
 9088POPC   C2B52544  25.948  28.153   6.753
 9088POPC   C3B52545  25.952  28.097   7.053
 9088POPC   C4B52546  25.986  28.088   7.353
 9089POPC   NC352547  26.016  31.453   5.553
 9089POPC   PO452548  26.043  31.427   5.853
 9089POPC   GL152549  26.031  31.486   6.153
 9089POPC   GL252550  25.879  31.522   6.153
 9089POPC   C1A52551  26.026  31.432   6.453
 9089POPC   D2A52552  26.048  31.433   6.753
 9089POPC   C3A52553  26.048  31.485   7.053
 9089POPC   C4A52554  26.015  31.448   7.353
 9089POPC   C1B52555  25.774  31.490   6.453
 9089POPC   C2B52556  25.834  31.552   6.753
 9089POPC   C3B52557  25.797  31.526   7.053
 9089POPC   C4B52558  25.801  31.563   7.353
 9090POPC   NC352559  36.134  14.408   5.553
 9090POPC   PO452560  36.080  14.429   5.853
 9090POPC   GL152561  36.160  14.425   6.153
 9090POPC   GL252562  36.164  14.492   6.153
 9090POPC   C1A52563  36.109  14.400   6.453
 9090POPC   D2A52564  36.135  14.422   6.753
 9090POPC   C3A52565  36.095  14.447   7.053
 9090POPC   C4A52566  36.137  14.386   7.353
 9090POPC   C1B52567  36.176  14.612   6.453
 9090POPC   C2B52568  36.243  14.657   6.753
 9090POPC   C3B52569  36.215  14.672   7.053
 9090POPC   C4B52570  36.187  14.591   7.353
 9091POPC   NC352571  12.811  21.417   5.553
 9091POPC   PO452572  12.880  21.433   5.853
 9091POPC   GL152573  12.807  21.430   6.153
 9091POPC   GL252574  12.797  21.536   6.153
 9091POPC   C1A52575  12.892  21.436   6.453
 9091POPC   D2A52576  12.828  21.354   6.753
 9091POPC   C3A52577  12.879  21.432   7.053
 9091POPC   C4A52578  12.839  21.366   7.353
 9091POPC   C1B52579  12.688  21.590   6.453
 9091POPC   C2B52580  12.710  21.646   6.753
 9091POPC   C3B52581  12.699  21.642   7.053
 9091POPC   C4B52582  12.738  21.637   7.353
 9092POPC   NC352583  33.815  22.912   5.553
 9092POPC   PO452584  33.808  22.968   5.853
 9092POPC   GL152585  33.850  22.967   6.153
 9092POPC   GL252586  33.638  22.981   6.153
 9092POPC   C1A52587  33.807  22.951   6.453
 9092POPC   D2A52588  33.816  22.977   6.753
 9092POPC   C3A52589  33.797  22.905   7.053
 9092POPC   C4A52590  33.832  22.953   7.353
 9092POPC   C1B52591  33.568  23.002   6.453
 9092POPC   C2B52592  33.525  23.051   6.753
 9092POPC   C3B52593  33.587  22.989   7.053
 9092POPC   C4B52594  33.601  22.993   7.353
 9093POPC   NC352595  40.813   7.442   5.553
 9093POPC   PO452596  40.769   7.433   5.853
 9093POPC   GL152597  40.828   7.421   6.153
 9093POPC   GL252598  40.783   7.308   6.153
 9093POPC   C1A52599  40.743   7.424   6.453
 9093POPC   D2A52600  40.813   7.411   6.753
 9093POPC   C3A52601  40.785   7.458   7.053
 9093POPC   C4A52602  40.806   7.413   7.353
 9093POPC   C1B52603  40.864   7.213   6.453
 9093POPC   C2B52604  40.837   7.171   6.753
 9093POPC   C3B52605  40.918   7.162   7.053
 9093POPC   C4B52606  40.894   7.176   7.353
 9094POPC   NC352607  22.940  21.339   5.553
 9094POPC   PO452608  22.958  21.378   5.853
 9094POPC   GL152609  22.973  21.381   6.153
 9094POPC   GL252610  22.824  21.324   6.153
 9094POPC   C1A52611  22.968  21.408   6.453
 9094POPC   D2A52612  22.925  21.432   6.753
 9094POPC   C3A52613  22.937  21.355   7.053
 9094POPC   C4A52614  22.968  21.411   7.353
 9094POPC   C1B52615  22.695  21.310   6.453
 9094POPC   C2B52616  22.685  21.327   6.753
 9094POPC   C3B52617  22.715  21.362   7.053
 9094POPC   C4B52618  22.657  21.313   7.353
 9095POPC   NC352619  30.655  43.889   5.553
 9095POPC   PO452620  30.714  43.886   5.853
 9095POPC   GL152621  30.712  43.852   6.153
 9095POPC   GL252622  30.563  43.843   6.153
 9095POPC   C1A52623  30.664  43.858   6.453
 9095POPC   D2A52624  30.674  43.899   6.753
 9095POPC   C3A52625  30.686  43.888   7.053
 9095POPC   C4A52626  30.702  43.871   7.353
 9095POPC   C1B52627  30.516  43.748   6.453
 9095POPC   C2B52628  30.487  43.722   6.753
 9095POPC   C3B52629  30.532  43.739   7.053
 9095POPC   C4B52630  30.525  43.714   7.353
 9096POPC   NC352631  17.471  10.568   5.553
 9096POPC   PO452632  17.524  10.516   5.853
 9096POPC   GL152633  17.464  10.521   6.153
 9096POPC   GL252634  17.399  10.583   6.153
 9096POPC   C1A52635  17.483  10.560   6.453
 9096POPC   D2A52636  17.527  10.561   6.753
 9096POPC   C3A52637  17.551  10.533   7.053
 9096POPC   C4A52638  17.460  10.542   7.353
 9096POPC   C1B52639  17.267  10.684   6.453
 9096POPC   C2B52640  17.312  10.724   6.753
 9096POPC   C3B52641  17.265  10.635   7.053
 9096POPC   C4B52642  17.344  10.690   7.353
 9097POPC   NC352643  36.871  19.833   5.553
 9097POPC   PO452644  36.887  19.785   5.853
 9097POPC   GL152645  36.880  19.791   6.153
 9097POPC   GL252646  36.941  19.722   6.153
 9097POPC   C1A52647  36.890  19.864   6.453
 9097POPC   D2A52648  36.867  19.816   6.753
 9097POPC   C3A52649  36.879  19.818   7.053
 9097POPC   C4A52650  36.891  19.793   7.353
 9097POPC   C1B52651  36.838  19.557   6.453
 9097POPC   C2B52652  36.890  19.586   6.753
 9097POPC   C3B52653  36.885  19.626   7.053
 9097POPC   C4B52654  36.888  19.570   7.353
 9098POPC   NC352655  43.159  37.634   5.553
 9098POPC   PO452656  43.124  37.717   5.853
 9098POPC   GL152657  43.061  37.679   6.153
 9098POPC   GL252658  43.192  37.771   6.153
 9098POPC   C1A52659  43.076  37.682   6.453
 9098POPC   D2A52660  43.080  37.726   6.753
 9098POPC   C3A52661  43.157  37.711   7.053
 9098POPC   C4A52662  43.109  37.714   7.353
 9098POPC   C1B52663  43.254  37.893   6.453
 9098POPC   C2B52664  43.270  37.857   6.753
 9098POPC   C3B52665  43.226  37.905   7.053
 9098POPC   C4B52666  43.258  37.867   7.353
 9099POPC   NC352667  43.896  17.492   5.553
 9099POPC   PO452668  43.878  17.477   5.853
 9099POPC   GL152669  43.922  17.544   6.153
 9099POPC   GL252670  43.749  17.547   6.153
 9099POPC   C1A52671  43.905  17.470   6.453
 9099POPC   D2A52672  43.848  17.479   6.753
 9099POPC   C3A52673  43.913  17.457   7.053
 9099POPC   C4A52674  43.882  17.472   7.353
 9099POPC   C1B52675  43.688  17.580   6.453
 9099POPC   C2B52676  43.675  17.594   6.753
 9099POPC   C3B52677  43.674  17.640   7.053
 9099POPC   C4B52678  43.701  17.637   7.353
 9100POPC   NC352679  22.198   2.031   5.553
 9100POPC   PO452680  22.201   1.940   5.853
 9100POPC   GL152681  22.118   2.004   6.153
 9100POPC   GL252682  22.122   2.095   6.153
 9100POPC   C1A52683  22.173   1.992   6.453
 9100POPC   D2A52684  22.169   1.976   6.753
 9100POPC   C3A52685  22.142   2.029   7.053
 9100POPC   C4A52686  22.158   1.940   7.353
 9100POPC   C1B52687  22.132   2.224   6.453
 9100POPC   C2B52688  22.092   2.222   6.753
 9100POPC   C3B52689  22.113   2.188   7.053
 9100POPC   C4B52690  22.121   2.187   7.353
 9101POPC   NC352691  16.694  29.908   5.553
 9101POPC   PO452692  16.733  29.904   5.853
 9101POPC   GL152693  16.751  29.914   6.153
 9101POPC   GL252694  16.695  29.827   6.153
 9101POPC   C1A52695  16.768  29.904   6.453
 9101POPC   D2A52696  16.687  29.927   6.753
 9101POPC   C3A52697  16.769  29.884   7.053
 9101POPC   C4A52698  16.709  29.961   7.353
 9101POPC   C1B52699  16.545  29.740   6.453
 9101POPC   C2B52700  16.542  29.762   6.753
 9101POPC   C3B52701  16.549  29.756   7.053
 9101POPC   C4B52702  16.589  29.771   7.353
 9102POPC   NC352703   4.294  26.829   5.553
 9102POPC   PO452704   4.316  26.791   5.853
 9102POPC   GL152705   4.287  26.810   6.153
 9102POPC   GL252706   4.302  26.682   6.153
 9102POPC   C1A52707   4.365  26.827   6.453
 9102POPC   D2A52708   4.307  26.792   6.753
 9102POPC   C3A52709   4.348  26.792   7.053
 9102POPC   C4A52710   4.307  26.849   7.353
 9102POPC   C1B52711   4.329  26.590   6.453
 9102POPC   C2B52712   4.310  26.595   6.753
 9102POPC   C3B52713   4.346  26.578   7.053
 9102POPC   C4B52714   4.309  26.518   7.353
 9103POPC   NC352715  22.904   5.080   5.553
 9103POPC   PO452716  22.889   5.105   5.853
 9103POPC   GL152717  22.924   5.104   6.153
 9103POPC   GL252718  22.996   5.142   6.153
 9103POPC   C1A52719  22.963   5.050   6.453
 9103POPC   D2A52720  22.932   5.142   6.753
 9103POPC   C3A52721  22.916   5.063   7.053
 9103POPC   C4A52722  22.943   5.108   7.353
 9103POPC   C1B52723  23.149   5.285   6.453
 9103POPC   C2B52724  23.163   5.261   6.753
 9103POPC   C3B52725  23.123   5.230   7.053
 9103POPC   C4B52726  23.103   5.212   7.353
 9104POPC   NC352727  22.152  25.232   5.553
 9104POPC   PO452728  22.206  25.308   5.853
 9104POPC   GL152729  22.157  25.248   6.153
 9104POPC   GL252730  22.093  25.191   6.153
 9104POPC   C1A52731  22.200  25.227   6.453
 9104POPC   D2A52732  22.126  25.301   6.753
 9104POPC   C3A52733  22.183  25.287   7.053
 9104POPC   C4A52734  22.120  25.291   7.353
 9104POPC   C1B52735  22.079  25.054   6.453
 9104POPC   C2B52736  22.080  25.071   6.753
 9104POPC   C3B52737  22.081  25.048   7.053
 9104POPC   C4B52738  22.083  25.015   7.353
 9105POPC   NC352739   2.014  30.692   5.553
 9105POPC   PO452740   2.035  30.741   5.853
 9105POPC   GL152741   1.977  30.706   6.153
 9105POPC   GL252742   2.136  30.656   6.153
 9105POPC   C1A52743   2.001  30.738   6.453
 9105POPC   D2A52744   1.942  30.683   6.753
 9105POPC   C3A52745   1.999  30.712   7.053
 9105POPC   C4A52746   1.961  30.689   7.353
 9105POPC   C1B52747   2.261  30.758   6.453
 9105POPC   C2B52748   2.272  30.737   6.753
 9105POPC   C3B52749   2.234  30.705   7.053
 9105POPC   C4B52750   2.261  30.736   7.353
 9106POPC   NC352751  36.903  33.032   5.553
 9106POPC   PO452752  36.887  33.033   5.853
 9106POPC   GL152753  36.866  33.059   6.153
 9106POPC   GL252754  36.892  33.123   6.153
 9106POPC   C1A52755  36.869  33.070   6.453
 9106POPC   D2A52756  36.939  33.002   6.753
 9106POPC   C3A52757  36.924  33.015   7.053
 9106POPC   C4A52758  36.859  32.993   7.353
 9106POPC   C1B52759  36.835  33.250   6.453
 9106POPC   C2B52760  36.822  33.291   6.753
 9106POPC   C3B52761  36.862  33.220   7.053
 9106POPC   C4B52762  36.864  33.264   7.353
 9107POPC   NC352763  43.934  34.594   5.553
 9107POPC   PO452764  43.875  34.573   5.853
 9107POPC   GL152765  43.935  34.606   6.153
 9107POPC   GL252766  43.968  34.507   6.153
 9107POPC   C1A52767  43.859  34.588   6.453
 9107POPC   D2A52768  43.877  34.583   6.753
 9107POPC   C3A52769  43.889  34.536   7.053
 9107POPC   C4A52770  43.857  34.552   7.353
 9107POPC   C1B52771  44.065  34.425   6.453
 9107POPC   C2B52772  44.070  34.422   6.753
 9107POPC   C3B52773  44.057  34.429   7.053
 9107POPC   C4B52774  44.111  34.416   7.353
 9108POPC   NC352775  26.811  12.105   5.553
 9108POPC   PO452776  26.826  12.048   5.853
 9108POPC   GL152777  26.779  12.047   6.153
 9108POPC   GL252778  26.852  11.933   6.153
 9108POPC   C1A52779  26.774  12.041   6.453
 9108POPC   D2A52780  26.838  12.118   6.753
 9108POPC   C3A52781  26.855  12.046   7.053
 9108POPC   C4A52782  26.821  12.089   7.353
 9108POPC   C1B52783  26.871  11.876   6.453
 9108POPC   C2B52784  26.873  11.891   6.753
 9108POPC   C3B52785  26.878  11.887   7.053
 9108POPC   C4B52786  26.930  11.829   7.353
 9109POPC   NC352787  39.990  41.581   5.553
 9109POPC   PO452788  40.007  41.590   5.853
 9109POPC   GL152789  40.038  41.521   6.153
 9109POPC   GL252790  40.088  41.541   6.153
 9109POPC   C1A52791  39.987  41.544   6.453
 9109POPC   D2A52792  40.039  41.562   6.753
 9109POPC   C3A52793  40.044  41.521   7.053
 9109POPC   C4A52794  39.976  41.531   7.353
 9109POPC   C1B52795  40.246  41.477   6.453
 9109POPC   C2B52796  40.272  41.459   6.753
 9109POPC   C3B52797  40.261  41.406   7.053
 9109POPC   C4B52798  40.270  41.432   7.353
 9110POPC   NC352799  26.079  18.304   5.553
 9110POPC   PO452800  26.023  18.282   5.853
 9110POPC   GL152801  25.999  18.321   6.153
 9110POPC   GL252802  25.963  18.262   6.153
 9110POPC   C1A52803  26.027  18.287   6.453
 9110POPC   D2A52804  25.995  18.260   6.753
 9110POPC   C3A52805  26.027  18.292   7.053
 9110POPC   C4A52806  26.041  18.269   7.353
 9110POPC   C1B52807  25.773  18.164   6.453
 9110POPC   C2B52808  25.801  18.143   6.753
 9110POPC   C3B52809  25.783  18.190   7.053
 9110POPC   C4B52810  25.798  18.168   7.353
 9111POPC   NC352811   7.436  24.440   5.553
 9111POPC   PO452812   7.438  24.519   5.853
 9111POPC   GL152813   7.381  24.532   6.153
 9111POPC   GL252814   7.280  24.442   6.153
 9111POPC   C1A52815   7.455  24.526   6.453
 9111POPC   D2A52816   7.373  24.447   6.753
 9111POPC   C3A52817   7.421  24.516   7.053
 9111POPC   C4A52818   7.426  24.442   7.353
 9111POPC   C1B52819   7.230  24.342   6.453
 9111POPC   C2B52820   7.238  24.394   6.753
 9111POPC   C3B52821   7.179  24.390   7.053
 9111POPC   C4B52822   7.185  24.378   7.353
 9112POPC   NC352823  19.785  39.244   5.553
 9112POPC   PO452824  19.785  39.276   5.853
 9112POPC   GL152825  19.836  39.195   6.153
 9112POPC   GL252826  19.731  39.221   6.153
 9112POPC   C1A52827  19.822  39.246   6.453
 9112POPC   D2A52828  19.867  39.272   6.753
 9112POPC   C3A52829  19.814  39.263   7.053
 9112POPC   C4A52830  19.869  39.266   7.353
 9112POPC   C1B52831  19.601  39.301   6.453
 9112POPC   C2B52832  19.551  39.313   6.753
 9112POPC   C3B52833  19.593  39.265   7.053
 9112POPC   C4B52834  19.580  39.280   7.353
 9113POPC   NC352835   6.627  19.013   5.553
 9113POPC   PO452836   6.670  19.108   5.853
 9113POPC   GL152837   6.652  19.066   6.153
 9113POPC   GL252838   6.561  18.962   6.153
 9113POPC   C1A52839   6.682  19.035   6.453
 9113POPC   D2A52840   6.626  19.079   6.753
 9113POPC   C3A52841   6.683  19.088   7.053
 9113POPC   C4A52842   6.688  19.029   7.353
 9113POPC   C1B52843   6.474  18.833   6.453
 9113POPC   C2B52844   6.509  18.848   6.753
 9113POPC   C3B52845   6.515  18.839   7.053
 9113POPC   C4B52846   6.467  18.826   7.353
 9114POPC   NC352847  13.657  38.498   5.553
 9114POPC   PO452848  13.672  38.476   5.853
 9114POPC   GL152849  13.578  38.447   6.153
 9114POPC   GL252850  13.518  38.374   6.153
 9114POPC   C1A52851  13.587  38.465   6.453
 9114POPC   D2A52852  13.607  38.498   6.753
 9114POPC   C3A52853  13.669  38.491   7.053
 9114POPC   C4A52854  13.648  38.484   7.353
 9114POPC   C1B52855  13.405  38.241   6.453
 9114POPC   C2B52856  13.412  38.261   6.753
 9114POPC   C3B52857  13.451  38.260   7.053
 9114POPC   C4B52858  13.457  38.320   7.353
 9115POPC   NC352859  17.529  18.311   5.553
 9115POPC   PO452860  17.513  18.239   5.853
 9115POPC   GL152861  17.479  18.320   6.153
 9115POPC   GL252862  17.397  18.260   6.153
 9115POPC   C1A52863  17.458  18.298   6.453
 9115POPC   D2A52864  17.458  18.308   6.753
 9115POPC   C3A52865  17.553  18.245   7.053
 9115POPC   C4A52866  17.467  18.275   7.353
 9115POPC   C1B52867  17.280  18.216   6.453
 9115POPC   C2B52868  17.243  18.252   6.753
 9115POPC   C3B52869  17.308  18.246   7.053
 9115POPC   C4B52870  17.213  18.301   7.353
 9116POPC   NC352871   1.951  22.119   5.553
 9116POPC   PO452872   1.941  22.158   5.853
 9116POPC   GL152873   2.001  22.148   6.153
 9116POPC   GL252874   1.819  22.126   6.153
 9116POPC   C1A52875   1.941  22.207   6.453
 9116POPC   D2A52876   2.024  22.161   6.753
 9116POPC   C3A52877   1.996  22.162   7.053
 9116POPC   C4A52878   1.994  22.186   7.353
 9116POPC   C1B52879   1.714  22.149   6.453
 9116POPC   C2B52880   1.772  22.192   6.753
 9116POPC   C3B52881   1.721  22.209   7.053
 9116POPC   C4B52882   1.789  22.231   7.353
 9117POPC   NC352883  21.393  22.905   5.553
 9117POPC   PO452884  21.360  22.968   5.853
 9117POPC   GL152885  21.380  22.932   6.153
 9117POPC   GL252886  21.506  23.056   6.153
 9117POPC   C1A52887  21.373  22.895   6.453
 9117POPC   D2A52888  21.374  22.936   6.753
 9117POPC   C3A52889  21.416  22.973   7.053
 9117POPC   C4A52890  21.366  22.962   7.353
 9117POPC   C1B52891  21.586  23.116   6.453
 9117POPC   C2B52892  21.527  23.087   6.753
 9117POPC   C3B52893  21.515  23.124   7.053
 9117POPC   C4B52894  21.502  23.164   7.353
 9118POPC   NC352895   5.130  12.843   5.553
 9118POPC   PO452896   5.044  12.868   5.853
 9118POPC   GL152897   5.054  12.810   6.153
 9118POPC   GL252898   4.977  12.776   6.153
 9118POPC   C1A52899   5.067  12.885   6.453
 9118POPC   D2A52900   5.128  12.867   6.753
 9118POPC   C3A52901   5.108  12.844   7.053
 9118POPC   C4A52902   5.075  12.815   7.353
 9118POPC   C1B52903   4.916  12.718   6.453
 9118POPC   C2B52904   4.953  12.721   6.753
 9118POPC   C3B52905   4.858  12.726   7.053
 9118POPC   C4B52906   4.885  12.654   7.353
 9119POPC   NC352907  32.277  42.380   5.553
 9119POPC   PO452908  32.218  42.374   5.853
 9119POPC   GL152909  32.267  42.357   6.153
 9119POPC   GL252910  32.246  42.194   6.153
 9119POPC   C1A52911  32.201  42.377   6.453
 9119POPC   D2A52912  32.224  42.339   6.753
 9119POPC   C3A52913  32.235  42.370   7.053
 9119POPC   C4A52914  32.247  42.304   7.353
 9119POPC   C1B52915  32.225  42.069   6.453
 9119POPC   C2B52916  32.186  42.123   6.753
 9119POPC   C3B52917  32.149  42.104   7.053
 9119POPC   C4B52918  32.187  42.071   7.353
 9120POPC   NC352919  29.953  12.899   5.553
 9120POPC   PO452920  29.920  12.817   5.853
 9120POPC   GL152921  29.873  12.837   6.153
 9120POPC   GL252922  30.036  12.962   6.153
 9120POPC   C1A52923  29.881  12.835   6.453
 9120POPC   D2A52924  29.883  12.848   6.753
 9120POPC   C3A52925  29.938  12.866   7.053
 9120POPC   C4A52926  29.878  12.834   7.353
 9120POPC   C1B52927  30.073  13.056   6.453
 9120POPC   C2B52928  30.016  13.045   6.753
 9120POPC   C3B52929  30.037  13.094   7.053
 9120POPC   C4B52930  30.062  13.056   7.353
 9121POPC   NC352931  14.373  33.818   5.553
 9121POPC   PO452932  14.439  33.778   5.853
 9121POPC   GL152933  14.439  33.829   6.153
 9121POPC   GL252934  14.470  33.910   6.153
 9121POPC   C1A52935  14.452  33.810   6.453
 9121POPC   D2A52936  14.444  33.825   6.753
 9121POPC   C3A52937  14.398  33.784   7.053
 9121POPC   C4A52938  14.421  33.762   7.353
 9121POPC   C1B52939  14.431  34.076   6.453
 9121POPC   C2B52940  14.479  34.035   6.753
 9121POPC   C3B52941  14.453  34.056   7.053
 9121POPC   C4B52942  14.398  34.059   7.353
 9122POPC   NC352943  29.924   0.425   5.553
 9122POPC   PO452944  29.915   0.410   5.853
 9122POPC   GL152945  29.966   0.398   6.153
 9122POPC   GL252946  30.059   0.438   6.153
 9122POPC   C1A52947  29.935   0.441   6.453
 9122POPC   D2A52948  29.938   0.463   6.753
 9122POPC   C3A52949  29.908   0.452   7.053
 9122POPC   C4A52950  29.880   0.472   7.353
 9122POPC   C1B52951  30.150   0.559   6.453
 9122POPC   C2B52952  30.146   0.491   6.753
 9122POPC   C3B52953  30.162   0.556   7.053
 9122POPC   C4B52954  30.189   0.541   7.353
 9123POPC   NC352955  35.368  32.252   5.553
 9123POPC   PO452956  35.379  32.236   5.853
 9123POPC   GL152957  35.317  32.272   6.153
 9123POPC   GL252958  35.418  32.171   6.153
 9123POPC   C1A52959  35.315  32.260   6.453
 9123POPC   D2A52960  35.389  32.259   6.753
 9123POPC   C3A52961  35.372  32.243   7.053
 9123POPC   C4A52962  35.309  32.258   7.353
 9123POPC   C1B52963  35.494  32.038   6.453
 9123POPC   C2B52964  35.488  32.016   6.753
 9123POPC   C3B52965  35.484  32.070   7.053
 9123POPC   C4B52966  35.485  32.094   7.353
 9124POPC   NC352967  16.773  44.628   5.553
 9124POPC   PO452968  16.765  44.657   5.853
 9124POPC   GL152969  16.740  44.637   6.153
 9124POPC   GL252970  16.606  44.737   6.153
 9124POPC   C1A52971  16.714  44.711   6.453
 9124POPC   D2A52972  16.682  44.708   6.753
 9124POPC   C3A52973  16.761  44.681   7.053
 9124POPC   C4A52974  16.754  44.618   7.353
 9124POPC   C1B52975  16.519  44.821   6.453
 9124POPC   C2B52976  16.503  44.838   6.753
 9124POPC   C3B52977  16.560  44.782   7.053
 9124POPC   C4B52978  16.554  44.770   7.353
 9125POPC   NC352979   5.130   6.683   5.553
 9125POPC   PO452980   5.105   6.681   5.853
 9125POPC   GL152981   5.135   6.640   6.153
 9125POPC   GL252982   5.070   6.541   6.153
 9125POPC   C1A52983   5.077   6.649   6.453
 9125POPC   D2A52984   5.116   6.656   6.753
 9125POPC   C3A52985   5.079   6.653   7.053
 9125POPC   C4A52986   5.135   6.693   7.353
 9125POPC   C1B52987   5.143   6.381   6.453
 9125POPC   C2B52988   5.078   6.358   6.753
 9125POPC   C3B52989   5.083   6.373   7.053
 9125POPC   C4B52990   5.104   6.424   7.353
 9126POPC   NC352991   8.206  17.480   5.553
 9126POPC   PO452992   8.158  17.471   5.853
 9126POPC   GL152993   8.234  17.504   6.153
 9126POPC   GL252994   8.273  17.646   6.153
 9126POPC   C1A52995   8.245  17.544   6.453
 9126POPC   D2A52996   8.237  17.555   6.753
 9126POPC   C3A52997   8.185  17.535   7.053
 9126POPC   C4A52998   8.198  17.535   7.353
 9126POPC   C1B52999   8.253  17.783   6.453
 9126POPC   C2B53000   8.304  17.740   6.753
 9126POPC   C3B53001   8.296  17.743   7.053
 9126POPC   C4B53002   8.320  17.755   7.353
 9127POPC   NC353003   7.383  42.314   5.553
 9127POPC   PO453004   7.434  42.369   5.853
 9127POPC   GL153005   7.402  42.366   6.153
 9127POPC   GL253006   7.339  42.404   6.153
 9127POPC   C1A53007   7.429  42.301   6.453
 9127POPC   D2A53008   7.384  42.351   6.753
 9127POPC   C3A53009   7.377  42.334   7.053
 9127POPC   C4A53010   7.399  42.373   7.353
 9127POPC   C1B53011   7.229  42.548   6.453
 9127POPC   C2B53012   7.269  42.551   6.753
 9127POPC   C3B53013   7.228  42.549   7.053
 9127POPC   C4B53014   7.314  42.524   7.353
 9128POPC   NC353015  10.533  39.240   5.553
 9128POPC   PO453016  10.474  39.204   5.853
 9128POPC   GL153017  10.541  39.209   6.153
 9128POPC   GL253018  10.380  39.259   6.153
 9128POPC   C1A53019  10.502  39.190   6.453
 9128POPC   D2A53020  10.523  39.249   6.753
 9128POPC   C3A53021  10.492  39.189   7.053
 9128POPC   C4A53022  10.491  39.184   7.353
 9128POPC   C1B53023  10.317  39.284   6.453
 9128POPC   C2B53024  10.305  39.329   6.753
 9128POPC   C3B53025  10.325  39.269   7.053
 9128POPC   C4B53026  10.257  39.281   7.353
 9129POPC   NC353027   4.328  22.178   5.553
 9129POPC   PO453028   4.285  22.193   5.853
 9129POPC   GL153029   4.321  22.181   6.153
 9129POPC   GL253030   4.274  22.108   6.153
 9129POPC   C1A53031   4.337  22.131   6.453
 9129POPC   D2A53032   4.290  22.169   6.753
 9129POPC   C3A53033   4.352  22.173   7.053
 9129POPC   C4A53034   4.289  22.120   7.353
 9129POPC   C1B53035   4.116  21.969   6.453
 9129POPC   C2B53036   4.104  21.967   6.753
 9129POPC   C3B53037   4.186  21.954   7.053
 9129POPC   C4B53038   4.155  22.002   7.353
 9130POPC   NC353039   3.580  29.915   5.553
 9130POPC   PO453040   3.555  29.898   5.853
 9130POPC   GL153041   3.556  29.916   6.153
 9130POPC   GL253042   3.680  29.900   6.153
 9130POPC   C1A53043   3.549  29.967   6.453
 9130POPC   D2A53044   3.536  29.960   6.753
 9130POPC   C3A53045   3.529  29.917   7.053
 9130POPC   C4A53046   3.589  29.893   7.353
 9130POPC   C1B53047   3.785  29.842   6.453
 9130POPC   C2B53048   3.756  29.771   6.753
 9130POPC   C3B53049   3.748  29.828   7.053
 9130POPC   C4B53050   3.811  29.837   7.353
 9131POPC   NC353051  29.955  44.652   5.553
 9131POPC   PO453052  29.872  44.683   5.853
 9131POPC   GL153053  29.914  44.674   6.153
 9131POPC   GL253054  29.758  44.665   6.153
 9131POPC   C1A53055  29.881  44.625   6.453
 9131POPC   D2A53056  29.876  44.619   6.753
 9131POPC   C3A53057  29.902  44.665   7.053
 9131POPC   C4A53058  29.931  44.707   7.353
 9131POPC   C1B53059  29.647  44.801   6.453
 9131POPC   C2B53060  29.665  44.740   6.753
 9131POPC   C3B53061  29.696  44.750   7.053
 9131POPC   C4B53062  29.640  44.744   7.353
 9132POPC   NC353063  38.412  41.584   5.553
 9132POPC   PO453064  38.478  41.595   5.853
 9132POPC   GL153065  38.491  41.512   6.153
 9132POPC   GL253066  38.583  41.500   6.153
 9132POPC   C1A53067  38.409  41.512   6.453
 9132POPC   D2A53068  38.434  41.533   6.753
 9132POPC   C3A53069  38.476  41.609   7.053
 9132POPC   C4A53070  38.480  41.583   7.353
 9132POPC   C1B53071  38.635  41.399   6.453
 9132POPC   C2B53072  38.719  41.420   6.753
 9132POPC   C3B53073  38.698  41.473   7.053
 9132POPC   C4B53074  38.631  41.404   7.353
 9133POPC   NC353075  38.489  33.778   5.553
 9133POPC   PO453076  38.430  33.785   5.853
 9133POPC   GL153077  38.495  33.803   6.153
 9133POPC   GL253078  38.480  33.875   6.153
 9133POPC   C1A53079  38.441  33.825   6.453
 9133POPC   D2A53080  38.436  33.829   6.753
 9133POPC   C3A53081  38.468  33.831   7.053
 9133POPC   C4A53082  38.495  33.809   7.353
 9133POPC   C1B53083  38.554  33.974   6.453
 9133POPC   C2B53084  38.601  33.953   6.753
 9133POPC   C3B53085  38.582  34.005   7.053
 9133POPC   C4B53086  38.582  34.021   7.353
 9134POPC   NC353087  29.916   1.230   5.553
 9134POPC   PO453088  29.875   1.181   5.853
 9134POPC   GL153089  29.923   1.197   6.153
 9134POPC   GL253090  29.838   1.287   6.153
 9134POPC   C1A53091  29.953   1.260   6.453
 9134POPC   D2A53092  29.925   1.178   6.753
 9134POPC   C3A53093  29.969   1.262   7.053
 9134POPC   C4A53094  29.909   1.259   7.353
 9134POPC   C1B53095  29.747   1.341   6.453
 9134POPC   C2B53096  29.680   1.384   6.753
 9134POPC   C3B53097  29.704   1.335   7.053
 9134POPC   C4B53098  29.682   1.342   7.353
 9135POPC   NC353099   5.103  43.068   5.553
 9135POPC   PO453100   5.084  43.146   5.853
 9135POPC   GL153101   5.101  43.132   6.153
 9135POPC   GL253102   5.253  43.045   6.153
 9135POPC   C1A53103   5.135  43.088   6.453
 9135POPC   D2A53104   5.092  43.095   6.753
 9135POPC   C3A53105   5.123  43.112   7.053
 9135POPC   C4A53106   5.104  43.093   7.353
 9135POPC   C1B53107   5.300  43.017   6.453
 9135POPC   C2B53108   5.309  43.090   6.753
 9135POPC   C3B53109   5.292  43.081   7.053
 9135POPC   C4B53110   5.311  43.019   7.353
 9136POPC   NC353111  29.889  17.550   5.553
 9136POPC   PO453112  29.957  17.480   5.853
 9136POPC   GL153113  29.925  17.527   6.153
 9136POPC   GL253114  29.931  17.357   6.153
 9136POPC   C1A53115  29.898  17.475   6.453
 9136POPC   D2A53116  29.948  17.469   6.753
 9136POPC   C3A53117  29.951  17.484   7.053
 9136POPC   C4A53118  29.898  17.551   7.353
 9136POPC   C1B53119  30.002  17.219   6.453
 9136POPC   C2B53120  30.002  17.288   6.753
 9136POPC   C3B53121  29.980  17.247   7.053
 9136POPC   C4B53122  29.957  17.242   7.353
 9137POPC   NC353123   2.779  15.921   5.553
 9137POPC   PO453124   2.745  15.960   5.853
 9137POPC   GL153125   2.808  15.942   6.153
 9137POPC   GL253126   2.683  15.860   6.153
 9137POPC   C1A53127   2.812  15.940   6.453
 9137POPC   D2A53128   2.805  15.975   6.753
 9137POPC   C3A53129   2.732  15.913   7.053
 9137POPC   C4A53130   2.797  15.949   7.353
 9137POPC   C1B53131   2.740  15.690   6.453
 9137POPC   C2B53132   2.648  15.763   6.753
 9137POPC   C3B53133   2.735  15.736   7.053
 9137POPC   C4B53134   2.735  15.693   7.353
 9138POPC   NC353135  29.135   0.400   5.553
 9138POPC   PO453136  29.104   0.474   5.853
 9138POPC   GL153137  29.162   0.428   6.153
 9138POPC   GL253138  29.060   0.345   6.153
 9138POPC   C1A53139  29.095   0.410   6.453
 9138POPC   D2A53140  29.120   0.397   6.753
 9138POPC   C3A53141  29.156   0.421   7.053
 9138POPC   C4A53142  29.148   0.487   7.353
 9138POPC   C1B53143  29.014   0.234   6.453
 9138POPC   C2B53144  28.936   0.249   6.753
 9138POPC   C3B53145  28.988   0.220   7.053
 9138POPC   C4B53146  28.947   0.292   7.353
 9139POPC   NC353147   3.569  30.670   5.553
 9139POPC   PO453148   3.525  30.696   5.853
 9139POPC   GL153149   3.522  30.678   6.153
 9139POPC   GL253150   3.681  30.667   6.153
 9139POPC   C1A53151   3.541  30.744   6.453
 9139POPC   D2A53152   3.582  30.683   6.753
 9139POPC   C3A53153   3.571  30.647   7.053
 9139POPC   C4A53154   3.545  30.728   7.353
 9139POPC   C1B53155   3.840  30.717   6.453
 9139POPC   C2B53156   3.794  30.691   6.753
 9139POPC   C3B53157   3.823  30.729   7.053
 9139POPC   C4B53158   3.826  30.676   7.353
 9140POPC   NC353159  39.979  21.346   5.553
 9140POPC   PO453160  39.980  21.410   5.853
 9140POPC   GL153161  39.987  21.359   6.153
 9140POPC   GL253162  39.882  21.430   6.153
 9140POPC   C1A53163  39.967  21.364   6.453
 9140POPC   D2A53164  39.992  21.351   6.753
 9140POPC   C3A53165  39.979  21.404   7.053
 9140POPC   C4A53166  40.056  21.419   7.353
 9140POPC   C1B53167  39.847  21.529   6.453
 9140POPC   C2B53168  39.790  21.550   6.753
 9140POPC   C3B53169  39.836  21.482   7.053
 9140POPC   C4B53170  39.749  21.491   7.353
 9141POPC   NC353171  35.397  15.214   5.553
 9141POPC   PO453172  35.365  15.176   5.853
 9141POPC   GL153173  35.322  15.200   6.153
 9141POPC   GL253174  35.470  15.122   6.153
 9141POPC   C1A53175  35.306  15.139   6.453
 9141POPC   D2A53176  35.311  15.225   6.753
 9141POPC   C3A53177  35.393  15.223   7.053
 9141POPC   C4A53178  35.374  15.195   7.353
 9141POPC   C1B53179  35.580  15.087   6.453
 9141POPC   C2B53180  35.547  15.086   6.753
 9141POPC   C3B53181  35.612  15.054   7.053
 9141POPC   C4B53182  35.538  15.093   7.353
 9142POPC   NC353183  41.550  22.947   5.553
 9142POPC   PO453184  41.573  22.915   5.853
 9142POPC   GL153185  41.542  22.981   6.153
 9142POPC   GL253186  41.708  23.049   6.153
 9142POPC   C1A53187  41.591  22.940   6.453
 9142POPC   D2A53188  41.552  22.980   6.753
 9142POPC   C3A53189  41.586  22.953   7.053
 9142POPC   C4A53190  41.602  22.983   7.353
 9142POPC   C1B53191  41.769  23.073   6.453
 9142POPC   C2B53192  41.810  23.026   6.753
 9142POPC   C3B53193  41.741  23.113   7.053
 9142POPC   C4B53194  41.778  23.052   7.353
 9143POPC   NC353195   0.407  22.962   5.553
 9143POPC   PO453196   0.429  22.971   5.853
 9143POPC   GL153197   0.451  22.910   6.153
 9143POPC   GL253198   0.464  23.082   6.153
 9143POPC   C1A53199   0.399  22.919   6.453
 9143POPC   D2A53200   0.468  22.899   6.753
 9143POPC   C3A53201   0.485  22.966   7.053
 9143POPC   C4A53202   0.468  22.964   7.353
 9143POPC   C1B53203   0.505  23.156   6.453
 9143POPC   C2B53204   0.504  23.167   6.753
 9143POPC   C3B53205   0.493  23.206   7.053
 9143POPC   C4B53206   0.489  23.213   7.353
 9144POPC   NC353207  38.470  24.454   5.553
 9144POPC   PO453208  38.416  24.447   5.853
 9144POPC   GL153209  38.447  24.486   6.153
 9144POPC   GL253210  38.460  24.348   6.153
 9144POPC   C1A53211  38.470  24.499   6.453
 9144POPC   D2A53212  38.457  24.512   6.753
 9144POPC   C3A53213  38.467  24.449   7.053
 9144POPC   C4A53214  38.434  24.485   7.353
 9144POPC   C1B53215  38.580  24.236   6.453
 9144POPC   C2B53216  38.495  24.269   6.753
 9144POPC   C3B53217  38.580  24.239   7.053
 9144POPC   C4B53218  38.487  24.239   7.353
 9145POPC   NC353219  32.223  36.905   5.553
 9145POPC   PO453220  32.262  36.889   5.853
 9145POPC   GL153221  32.250  36.889   6.153
 9145POPC   GL253222  32.204  37.028   6.153
 9145POPC   C1A53223  32.262  36.940   6.453
 9145POPC   D2A53224  32.260  36.880   6.753
 9145POPC   C3A53225  32.212  36.861   7.053
 9145POPC   C4A53226  32.263  36.864   7.353
 9145POPC   C1B53227  32.144  37.142   6.453
 9145POPC   C2B53228  32.103  37.117   6.753
 9145POPC   C3B53229  32.065  37.065   7.053
 9145POPC   C4B53230  32.071  37.150   7.353
 9146POPC   NC353231   1.166  24.461   5.553
 9146POPC   PO453232   1.259  24.531   5.853
 9146POPC   GL153233   1.175  24.468   6.153
 9146POPC   GL253234   1.196  24.645   6.153
 9146POPC   C1A53235   1.200  24.445   6.453
 9146POPC   D2A53236   1.246  24.445   6.753
 9146POPC   C3A53237   1.263  24.520   7.053
 9146POPC   C4A53238   1.202  24.521   7.353
 9146POPC   C1B53239   1.161  24.778   6.453
 9146POPC   C2B53240   1.103  24.680   6.753
 9146POPC   C3B53241   1.163  24.682   7.053
 9146POPC   C4B53242   1.128  24.745   7.353
 9147POPC   NC353243   6.656  16.691   5.553
 9147POPC   PO453244   6.680  16.735   5.853
 9147POPC   GL153245   6.668  16.719   6.153
 9147POPC   GL253246   6.735  16.648   6.153
 9147POPC   C1A53247   6.640  16.693   6.453
 9147POPC   D2A53248   6.639  16.689   6.753
 9147POPC   C3A53249   6.684  16.705   7.053
 9147POPC   C4A53250   6.667  16.720   7.353
 9147POPC   C1B53251   6.827  16.506   6.453
 9147POPC   C2B53252   6.798  16.515   6.753
 9147POPC   C3B53253   6.816  16.488   7.053
 9147POPC   C4B53254   6.772  16.514   7.353
 9148POPC   NC353255  21.374  36.176   5.553
 9148POPC   PO453256  21.406  36.095   5.853
 9148POPC   GL153257  21.338  36.139   6.153
 9148POPC   GL253258  21.279  36.203   6.153
 9148POPC   C1A53259  21.413  36.101   6.453
 9148POPC   D2A53260  21.396  36.142   6.753
 9148POPC   C3A53261  21.395  36.107   7.053
 9148POPC   C4A53262  21.383  36.119   7.353
 9148POPC   C1B53263  21.160  36.267   6.453
 9148POPC   C2B53264  21.135  36.222   6.753
 9148POPC   C3B53265  21.123  36.274   7.053
 9148POPC   C4B53266  21.160  36.226   7.353
 9149POPC   NC353267  28.404  37.691   5.553
 9149POPC   PO453268  28.398  37.640   5.853
 9149POPC   GL153269  28.362  37.674   6.153
 9149POPC   GL253270  28.265  37.558   6.153
 9149POPC   C1A53271  28.381  37.728   6.453
 9149POPC   D2A53272  28.333  37.632   6.753
 9149POPC   C3A53273  28.400  37.638   7.053
 9149POPC   C4A53274  28.366  37.635   7.353
 9149POPC   C1B53275  28.157  37.521   6.453
 9149POPC   C2B53276  28.181  37.512   6.753
 9149POPC   C3B53277  28.167  37.461   7.053
 9149POPC   C4B53278  28.214  37.492   7.353
 9150POPC   NC353279  29.127  19.876   5.553
 9150POPC   PO453280  29.109  19.878   5.853
 9150POPC   GL153281  29.124  19.811   6.153
 9150POPC   GL253282  29.057  19.909   6.153
 9150POPC   C1A53283  29.189  19.870   6.453
 9150POPC   D2A53284  29.186  19.842   6.753
 9150POPC   C3A53285  29.116  19.850   7.053
 9150POPC   C4A53286  29.111  19.788   7.353
 9150POPC   C1B53287  28.932  19.940   6.453
 9150POPC   C2B53288  28.936  19.919   6.753
 9150POPC   C3B53289  28.912  19.889   7.053
 9150POPC   C4B53290  28.856  19.862   7.353
 9151POPC   NC353291   9.013  14.393   5.553
 9151POPC   PO453292   9.009  14.427   5.853
 9151POPC   GL153293   8.986  14.362   6.153
 9151POPC   GL253294   9.038  14.546   6.153
 9151POPC   C1A53295   8.957  14.413   6.453
 9151POPC   D2A53296   9.014  14.394   6.753
 9151POPC   C3A53297   8.924  14.399   7.053
 9151POPC   C4A53298   8.958  14.389   7.353
 9151POPC   C1B53299   9.166  14.608   6.453
 9151POPC   C2B53300   9.151  14.587   6.753
 9151POPC   C3B53301   9.154  14.545   7.053
 9151POPC   C4B53302   9.129  14.577   7.353
 9152POPC   NC353303   5.871  27.567   5.553
 9152POPC   PO453304   5.889  27.575   5.853
 9152POPC   GL153305   5.905  27.600   6.153
 9152POPC   GL253306   6.037  27.608   6.153
 9152POPC   C1A53307   5.894  27.643   6.453
 9152POPC   D2A53308   5.916  27.612   6.753
 9152POPC   C3A53309   5.860  27.545   7.053
 9152POPC   C4A53310   5.870  27.621   7.353
 9152POPC   C1B53311   6.071  27.695   6.453
 9152POPC   C2B53312   6.077  27.712   6.753
 9152POPC   C3B53313   6.132  27.667   7.053
 9152POPC   C4B53314   6.122  27.630   7.353
 9153POPC   NC353315  30.698   5.888   5.553
 9153POPC   PO453316  30.695   5.851   5.853
 9153POPC   GL153317  30.692   5.869   6.153
 9153POPC   GL253318  30.778   5.808   6.153
 9153POPC   C1A53319  30.703   5.833   6.453
 9153POPC   D2A53320  30.716   5.910   6.753
 9153POPC   C3A53321  30.701   5.855   7.053
 9153POPC   C4A53322  30.709   5.874   7.353
 9153POPC   C1B53323  30.937   5.703   6.453
 9153POPC   C2B53324  30.915   5.684   6.753
 9153POPC   C3B53325  30.922   5.719   7.053
 9153POPC   C4B53326  30.905   5.696   7.353
 9154POPC   NC353327   6.604  36.906   5.553
 9154POPC   PO453328   6.647  36.876   5.853
 9154POPC   GL153329   6.670  36.859   6.153
 9154POPC   GL253330   6.651  36.742   6.153
 9154POPC   C1A53331   6.654  36.926   6.453
 9154POPC   D2A53332   6.679  36.948   6.753
 9154POPC   C3A53333   6.639  36.859   7.053
 9154POPC   C4A53334   6.598  36.885   7.353
 9154POPC   C1B53335   6.574  36.635   6.453
 9154POPC   C2B53336   6.610  36.702   6.753
 9154POPC   C3B53337   6.605  36.630   7.053
 9154POPC   C4B53338   6.615  36.669   7.353
 9155POPC   NC353339   7.428  15.954   5.553
 9155POPC   PO453340   7.425  15.997   5.853
 9155POPC   GL153341   7.383  15.955   6.153
 9155POPC   GL253342   7.542  15.884   6.153
 9155POPC   C1A53343   7.389  15.961   6.453
 9155POPC   D2A53344   7.383  15.989   6.753
 9155POPC   C3A53345   7.415  15.981   7.053
 9155POPC   C4A53346   7.470  15.982   7.353
 9155POPC   C1B53347   7.624  15.805   6.453
 9155POPC   C2B53348   7.607  15.760   6.753
 9155POPC   C3B53349   7.601  15.745   7.053
 9155POPC   C4B53350   7.607  15.729   7.353
 9156POPC   NC353351  16.771  19.879   5.553
 9156POPC   PO453352  16.690  19.837   5.853
 9156POPC   GL153353  16.704  19.853   6.153
 9156POPC   GL253354  16.784  19.965   6.153
 9156POPC   C1A53355  16.730  19.820   6.453
 9156POPC   D2A53356  16.757  19.868   6.753
 9156POPC   C3A53357  16.724  19.850   7.053
 9156POPC   C4A53358  16.693  19.818   7.353
 9156POPC   C1B53359  16.861  20.078   6.453
 9156POPC   C2B53360  16.842  20.004   6.753
 9156POPC   C3B53361  16.823  20.079   7.053
 9156POPC   C4B53362  16.894  20.020   7.353
 9157POPC   NC353363  29.179  37.701   5.553
 9157POPC   PO453364  29.192  37.655   5.853
 9157POPC   GL153365  29.159  37.715   6.153
 9157POPC   GL253366  29.228  37.645   6.153
 9157POPC   C1A53367  29.122  37.650   6.453
 9157POPC   D2A53368  29.160  37.667   6.753
 9157POPC   C3A53369  29.175  37.669   7.053
 9157POPC   C4A53370  29.128  37.716   7.353
 9157POPC   C1B53371  29.394  37.575   6.453
 9157POPC   C2B53372  29.412  37.570   6.753
 9157POPC   C3B53373  29.323  37.574   7.053
 9157POPC   C4B53374  29.389  37.561   7.353
 9158POPC   NC353375   6.652   4.290   5.553
 9158POPC   PO453376   6.680   4.313   5.853
 9158POPC   GL153377   6.686   4.279   6.153
 9158POPC   GL253378   6.648   4.427   6.153
 9158POPC   C1A53379   6.692   4.367   6.453
 9158POPC   D2A53380   6.626   4.318   6.753
 9158POPC   C3A53381   6.669   4.284   7.053
 9158POPC   C4A53382   6.670   4.355   7.353
 9158POPC   C1B53383   6.669   4.522   6.453
 9158POPC   C2B53384   6.642   4.612   6.753
 9158POPC   C3B53385   6.603   4.612   7.053
 9158POPC   C4B53386   6.638   4.536   7.353
 9159POPC   NC353387   8.162   7.394   5.553
 9159POPC   PO453388   8.170   7.398   5.853
 9159POPC   GL153389   8.227   7.398   6.153
 9159POPC   GL253390   8.302   7.508   6.153
 9159POPC   C1A53391   8.181   7.436   6.453
 9159POPC   D2A53392   8.182   7.409   6.753
 9159POPC   C3A53393   8.155   7.442   7.053
 9159POPC   C4A53394   8.234   7.453   7.353
 9159POPC   C1B53395   8.327   7.576   6.453
 9159POPC   C2B53396   8.412   7.563   6.753
 9159POPC   C3B53397   8.411   7.587   7.053
 9159POPC   C4B53398   8.406   7.600   7.353
 9160POPC   NC353399  27.612  31.464   5.553
 9160POPC   PO453400  27.598  31.478   5.853
 9160POPC   GL153401  27.624  31.437   6.153
 9160POPC   GL253402  27.603  31.561   6.153
 9160POPC   C1A53403  27.613  31.470   6.453
 9160POPC   D2A53404  27.615  31.463   6.753
 9160POPC   C3A53405  27.580  31.518   7.053
 9160POPC   C4A53406  27.570  31.502   7.353
 9160POPC   C1B53407  27.700  31.672   6.453
 9160POPC   C2B53408  27.605  31.754   6.753
 9160POPC   C3B53409  27.653  31.669   7.053
 9160POPC   C4B53410  27.620  31.682   7.353
 9161POPC   NC353411   5.832  28.414   5.553
 9161POPC   PO453412   5.835  28.337   5.853
 9161POPC   GL153413   5.906  28.344   6.153
 9161POPC   GL253414   5.923  28.222   6.153
 9161POPC   C1A53415   5.840  28.397   6.453
 9161POPC   D2A53416   5.863  28.415   6.753
 9161POPC   C3A53417   5.868  28.364   7.053
 9161POPC   C4A53418   5.906  28.375   7.353
 9161POPC   C1B53419   6.026  28.144   6.453
 9161POPC   C2B53420   6.038  28.172   6.753
 9161POPC   C3B53421   5.962  28.120   7.053
 9161POPC   C4B53422   6.012  28.205   7.353
 9162POPC   NC353423  41.542  15.210   5.553
 9162POPC   PO453424  41.570  15.160   5.853
 9162POPC   GL153425  41.559  15.186   6.153
 9162POPC   GL253426  41.479  15.253   6.153
 9162POPC   C1A53427  41.531  15.199   6.453
 9162POPC   D2A53428  41.578  15.227   6.753
 9162POPC   C3A53429  41.557  15.157   7.053
 9162POPC   C4A53430  41.603  15.171   7.353
 9162POPC   C1B53431  41.439  15.418   6.453
 9162POPC   C2B53432  41.399  15.375   6.753
 9162POPC   C3B53433  41.486  15.375   7.053
 9162POPC   C4B53434  41.487  15.427   7.353
 9163POPC   NC353435   9.795  38.465   5.553
 9163POPC   PO453436   9.701  38.487   5.853
 9163POPC   GL153437   9.793  38.499   6.153
 9163POPC   GL253438   9.882  38.473   6.153
 9163POPC   C1A53439   9.736  38.424   6.453
 9163POPC   D2A53440   9.719  38.482   6.753
 9163POPC   C3A53441   9.788  38.413   7.053
 9163POPC   C4A53442   9.725  38.468   7.353
 9163POPC   C1B53443  10.021  38.446   6.453
 9163POPC   C2B53444   9.972  38.497   6.753
 9163POPC   C3B53445  10.006  38.479   7.053
 9163POPC   C4B53446  10.006  38.495   7.353
 9164POPC   NC353447  28.361  19.093   5.553
 9164POPC   PO453448  28.346  19.012   5.853
 9164POPC   GL153449  28.391  19.015   6.153
 9164POPC   GL253450  28.424  19.187   6.153
 9164POPC   C1A53451  28.398  19.085   6.453
 9164POPC   D2A53452  28.356  19.062   6.753
 9164POPC   C3A53453  28.412  19.090   7.053
 9164POPC   C4A53454  28.386  19.030   7.353
 9164POPC   C1B53455  28.514  19.255   6.453
 9164POPC   C2B53456  28.606  19.259   6.753
 9164POPC   C3B53457  28.567  19.244   7.053
 9164POPC   C4B53458  28.560  19.168   7.353
 9165POPC   NC353459  11.324   7.411   5.553
 9165POPC   PO453460  11.290   7.379   5.853
 9165POPC   GL153461  11.271   7.408   6.153
 9165POPC   GL253462  11.239   7.286   6.153
 9165POPC   C1A53463  11.306   7.467   6.453
 9165POPC   D2A53464  11.264   7.395   6.753
 9165POPC   C3A53465  11.339   7.380   7.053
 9165POPC   C4A53466  11.337   7.429   7.353
 9165POPC   C1B53467  11.301   7.123   6.453
 9165POPC   C2B53468  11.268   7.164   6.753
 9165POPC   C3B53469  11.271   7.182   7.053
 9165POPC   C4B53470  11.295   7.214   7.353
 9166POPC   NC353471  24.441   1.995   5.553
 9166POPC   PO453472  24.507   1.965   5.853
 9166POPC   GL153473  24.512   1.940   6.153
 9166POPC   GL253474  24.530   1.898   6.153
 9166POPC   C1A53475  24.448   2.033   6.453
 9166POPC   D2A53476  24.533   1.961   6.753
 9166POPC   C3A53477  24.501   2.003   7.053
 9166POPC   C4A53478  24.480   1.970   7.353
 9166POPC   C1B53479  24.616   1.834   6.453
 9166POPC   C2B53480  24.617   1.842   6.753
 9166POPC   C3B53481  24.702   1.808   7.053
 9166POPC   C4B53482  24.615   1.768   7.353
 9167POPC   NC353483   9.004  36.084   5.553
 9167POPC   PO453484   9.002  36.136   5.853
 9167POPC   GL153485   9.014  36.138   6.153
 9167POPC   GL253486   8.995  36.292   6.153
 9167POPC   C1A53487   8.972  36.094   6.453
 9167POPC   D2A53488   8.970  36.091   6.753
 9167POPC   C3A53489   8.987  36.115   7.053
 9167POPC   C4A53490   8.995  36.111   7.353
 9167POPC   C1B53491   8.981  36.369   6.453
 9167POPC   C2B53492   8.977  36.330   6.753
 9167POPC   C3B53493   8.989  36.372   7.053
 9167POPC   C4B53494   8.948  36.362   7.353
 9168POPC   NC353495  29.139  20.605   5.553
 9168POPC   PO453496  29.153  20.614   5.853
 9168POPC   GL153497  29.105  20.563   6.153
 9168POPC   GL253498  29.028  20.530   6.153
 9168POPC   C1A53499  29.129  20.609   6.453
 9168POPC   D2A53500  29.111  20.570   6.753
 9168POPC   C3A53501  29.114  20.616   7.053
 9168POPC   C4A53502  29.098  20.640   7.353
 9168POPC   C1B53503  28.960  20.451   6.453
 9168POPC   C2B53504  28.950  20.507   6.753
 9168POPC   C3B53505  28.929  20.506   7.053
 9168POPC   C4B53506  28.897  20.425   7.353
 9169POPC   NC353507  43.145  19.053   5.553
 9169POPC   PO453508  43.106  19.011   5.853
 9169POPC   GL153509  43.102  19.069   6.153
 9169POPC   GL253510  43.034  19.016   6.153
 9169POPC   C1A53511  43.085  19.099   6.453
 9169POPC   D2A53512  43.133  19.045   6.753
 9169POPC   C3A53513  43.063  19.035   7.053
 9169POPC   C4A53514  43.128  19.095   7.353
 9169POPC   C1B53515  42.943  18.906   6.453
 9169POPC   C2B53516  42.964  18.840   6.753
 9169POPC   C3B53517  42.896  18.872   7.053
 9169POPC   C4B53518  42.917  18.897   7.353
 9170POPC   NC353519   0.395  22.179   5.553
 9170POPC   PO453520   0.449  22.198   5.853
 9170POPC   GL153521   0.426  22.114   6.153
 9170POPC   GL253522   0.489  22.256   6.153
 9170POPC   C1A53523   0.441  22.201   6.453
 9170POPC   D2A53524   0.487  22.185   6.753
 9170POPC   C3A53525   0.401  22.152   7.053
 9170POPC   C4A53526   0.483  22.124   7.353
 9170POPC   C1B53527   0.599  22.362   6.453
 9170POPC   C2B53528   0.608  22.345   6.753
 9170POPC   C3B53529   0.604  22.305   7.053
 9170POPC   C4B53530   0.647  22.367   7.353
 9171POPC   NC353531  31.499  21.404   5.553
 9171POPC   PO453532  31.430  21.414   5.853
 9171POPC   GL153533  31.499  21.414   6.153
 9171POPC   GL253534  31.340  21.464   6.153
 9171POPC   C1A53535  31.492  21.365   6.453
 9171POPC   D2A53536  31.488  21.375   6.753
 9171POPC   C3A53537  31.438  21.397   7.053
 9171POPC   C4A53538  31.456  21.366   7.353
 9171POPC   C1B53539  31.296  21.549   6.453
 9171POPC   C2B53540  31.334  21.547   6.753
 9171POPC   C3B53541  31.270  21.584   7.053
 9171POPC   C4B53542  31.304  21.546   7.353
 9172POPC   NC353543  11.332  28.366   5.553
 9172POPC   PO453544  11.326  28.360   5.853
 9172POPC   GL153545  11.323  28.412   6.153
 9172POPC   GL253546  11.425  28.390   6.153
 9172POPC   C1A53547  11.286  28.384   6.453
 9172POPC   D2A53548  11.315  28.338   6.753
 9172POPC   C3A53549  11.336  28.347   7.053
 9172POPC   C4A53550  11.299  28.365   7.353
 9172POPC   C1B53551  11.508  28.522   6.453
 9172POPC   C2B53552  11.559  28.532   6.753
 9172POPC   C3B53553  11.555  28.518   7.053
 9172POPC   C4B53554  11.530  28.470   7.353
 9173POPC   NC353555   5.142  22.204   5.553
 9173POPC   PO453556   5.112  22.136   5.853
 9173POPC   GL153557   5.127  22.163   6.153
 9173POPC   GL253558   5.095  22.052   6.153
 9173POPC   C1A53559   5.111  22.154   6.453
 9173POPC   D2A53560   5.101  22.114   6.753
 9173POPC   C3A53561   5.045  22.141   7.053
 9173POPC   C4A53562   5.075  22.125   7.353
 9173POPC   C1B53563   5.030  21.886   6.453
 9173POPC   C2B53564   5.002  21.968   6.753
 9173POPC   C3B53565   5.026  21.948   7.053
 9173POPC   C4B53566   5.053  21.911   7.353
 9174POPC   NC353567  26.856  36.166   5.553
 9174POPC   PO453568  26.826  36.153   5.853
 9174POPC   GL153569  26.865  36.116   6.153
 9174POPC   GL253570  26.656  36.107   6.153
 9174POPC   C1A53571  26.829  36.118   6.453
 9174POPC   D2A53572  26.783  36.166   6.753
 9174POPC   C3A53573  26.783  36.167   7.053
 9174POPC   C4A53574  26.820  36.100   7.353
 9174POPC   C1B53575  26.541  36.070   6.453
 9174POPC   C2B53576  26.599  36.080   6.753
 9174POPC   C3B53577  26.574  36.089   7.053
 9174POPC   C4B53578  26.589  36.093   7.353
 9175POPC   NC353579   2.768  22.944   5.553
 9175POPC   PO453580   2.752  22.911   5.853
 9175POPC   GL153581   2.762  22.955   6.153
 9175POPC   GL253582   2.597  22.912   6.153
 9175POPC   C1A53583   2.784  22.919   6.453
 9175POPC   D2A53584   2.781  22.903   6.753
 9175POPC   C3A53585   2.743  22.959   7.053
 9175POPC   C4A53586   2.731  22.959   7.353
 9175POPC   C1B53587   2.541  22.908   6.453
 9175POPC   C2B53588   2.529  22.898   6.753
 9175POPC   C3B53589   2.543  22.883   7.053
 9175POPC   C4B53590   2.535  22.918   7.353
 9176POPC   NC353591  17.495  29.907   5.553
 9176POPC   PO453592  17.504  29.944   5.853
 9176POPC   GL153593  17.521  29.889   6.153
 9176POPC   GL253594  17.654  29.970   6.153
 9176POPC   C1A53595  17.459  29.905   6.453
 9176POPC   D2A53596  17.510  29.925   6.753
 9176POPC   C3A53597  17.487  29.939   7.053
 9176POPC   C4A53598  17.495  29.970   7.353
 9176POPC   C1B53599  17.726  29.997   6.453
 9176POPC   C2B53600  17.721  30.056   6.753
 9176POPC   C3B53601  17.787  30.057   7.053
 9176POPC   C4B53602  17.692  30.054   7.353
 9177POPC   NC353603  36.945   9.783   5.553
 9177POPC   PO453604  36.865   9.730   5.853
 9177POPC   GL153605  36.944   9.751   6.153
 9177POPC   GL253606  36.979   9.615   6.153
 9177POPC   C1A53607  36.917   9.745   6.453
 9177POPC   D2A53608  36.873   9.744   6.753
 9177POPC   C3A53609  36.911   9.717   7.053
 9177POPC   C4A53610  36.881   9.787   7.353
 9177POPC   C1B53611  36.990   9.548   6.453
 9177POPC   C2B53612  36.996   9.517   6.753
 9177POPC   C3B53613  36.984   9.549   7.053
 9177POPC   C4B53614  37.007   9.486   7.353
 9178POPC   NC353615  39.234  33.801   5.553
 9178POPC   PO453616  39.231  33.795   5.853
 9178POPC   GL153617  39.268  33.812   6.153
 9178POPC   GL253618  39.130  33.913   6.153
 9178POPC   C1A53619  39.246  33.786   6.453
 9178POPC   D2A53620  39.266  33.838   6.753
 9178POPC   C3A53621  39.274  33.792   7.053
 9178POPC   C4A53622  39.251  33.776   7.353
 9178POPC   C1B53623  39.062  34.013   6.453
 9178POPC   C2B53624  39.121  33.983   6.753
 9178POPC   C3B53625  39.102  34.051   7.053
 9178POPC   C4B53626  39.120  34.047   7.353
 9179POPC   NC353627  41.593   1.953   5.553
 9179POPC   PO453628  41.550   1.972   5.853
 9179POPC   GL153629  41.560   1.989   6.153
 9179POPC   GL253630  41.602   2.082   6.153
 9179POPC   C1A53631  41.577   1.986   6.453
 9179POPC   D2A53632  41.605   2.025   6.753
 9179POPC   C3A53633  41.604   2.004   7.053
 9179POPC   C4A53634  41.513   1.983   7.353
 9179POPC   C1B53635  41.630   2.246   6.453
 9179POPC   C2B53636  41.643   2.232   6.753
 9179POPC   C3B53637  41.628   2.245   7.053
 9179POPC   C4B53638  41.699   2.236   7.353
 9180POPC   NC353639  36.878  33.799   5.553
 9180POPC   PO453640  36.894  33.815   5.853
 9180POPC   GL153641  36.884  33.818   6.153
 9180POPC   GL253642  37.002  33.742   6.153
 9180POPC   C1A53643  36.931  33.836   6.453
 9180POPC   D2A53644  36.919  33.830   6.753
 9180POPC   C3A53645  36.883  33.828   7.053
 9180POPC   C4A53646  36.863  33.814   7.353
 9180POPC   C1B53647  37.115  33.645   6.453
 9180POPC   C2B53648  37.137  33.686   6.753
 9180POPC   C3B53649  37.079  33.637   7.053
 9180POPC   C4B53650  37.072  33.685   7.353
 9181POPC   NC353651   9.790  15.996   5.553
 9181POPC   PO453652   9.722  15.977   5.853
 9181POPC   GL153653   9.791  15.955   6.153
 9181POPC   GL253654   9.862  15.943   6.153
 9181POPC   C1A53655   9.763  15.996   6.453
 9181POPC   D2A53656   9.795  15.997   6.753
 9181POPC   C3A53657   9.713  15.915   7.053
 9181POPC   C4A53658   9.729  15.929   7.353
 9181POPC   C1B53659  10.042  15.999   6.453
 9181POPC   C2B53660   9.989  15.980   6.753
 9181POPC   C3B53661   9.966  15.967   7.053
 9181POPC   C4B53662  10.002  15.990   7.353
 9182POPC   NC353663  28.409  34.548   5.553
 9182POPC   PO453664  28.349  34.567   5.853
 9182POPC   GL153665  28.389  34.536   6.153
 9182POPC   GL253666  28.229  34.569   6.153
 9182POPC   C1A53667  28.361  34.591   6.453
 9182POPC   D2A53668  28.363  34.572   6.753
 9182POPC   C3A53669  28.413  34.592   7.053
 9182POPC   C4A53670  28.332  34.612   7.353
 9182POPC   C1B53671  28.127  34.623   6.453
 9182POPC   C2B53672  28.145  34.676   6.753
 9182POPC   C3B53673  28.134  34.618   7.053
 9182POPC   C4B53674  28.158  34.640   7.353
 9183POPC   NC353675   3.573  43.156   5.553
 9183POPC   PO453676   3.529  43.160   5.853
 9183POPC   GL153677   3.570  43.066   6.153
 9183POPC   GL253678   3.682  43.009   6.153
 9183POPC   C1A53679   3.509  43.069   6.453
 9183POPC   D2A53680   3.533  43.079   6.753
 9183POPC   C3A53681   3.576  43.079   7.053
 9183POPC   C4A53682   3.536  43.079   7.353
 9183POPC   C1B53683   3.785  42.989   6.453
 9183POPC   C2B53684   3.746  42.950   6.753
 9183POPC   C3B53685   3.734  42.949   7.053
 9183POPC   C4B53686   3.724  43.001   7.353
 9184POPC   NC353687  20.619  41.585   5.553
 9184POPC   PO453688  20.632  41.522   5.853
 9184POPC   GL153689  20.627  41.564   6.153
 9184POPC   GL253690  20.463  41.536   6.153
 9184POPC   C1A53691  20.581  41.537   6.453
 9184POPC   D2A53692  20.586  41.542   6.753
 9184POPC   C3A53693  20.590  41.585   7.053
 9184POPC   C4A53694  20.620  41.529   7.353
 9184POPC   C1B53695  20.414  41.436   6.453
 9184POPC   C2B53696  20.410  41.433   6.753
 9184POPC   C3B53697  20.385  41.456   7.053
 9184POPC   C4B53698  20.348  41.526   7.353
 9185POPC   NC353699  20.625  21.395   5.553
 9185POPC   PO453700  20.564  21.416   5.853
 9185POPC   GL153701  20.628  21.424   6.153
 9185POPC   GL253702  20.452  21.341   6.153
 9185POPC   C1A53703  20.650  21.400   6.453
 9185POPC   D2A53704  20.625  21.415   6.753
 9185POPC   C3A53705  20.615  21.412   7.053
 9185POPC   C4A53706  20.617  21.370   7.353
 9185POPC   C1B53707  20.415  21.358   6.453
 9185POPC   C2B53708  20.396  21.289   6.753
 9185POPC   C3B53709  20.385  21.260   7.053
 9185POPC   C4B53710  20.397  21.262   7.353
 9186POPC   NC353711   7.434   4.312   5.553
 9186POPC   PO453712   7.382   4.364   5.853
 9186POPC   GL153713   7.387   4.341   6.153
 9186POPC   GL253714   7.412   4.466   6.153
 9186POPC   C1A53715   7.438   4.306   6.453
 9186POPC   D2A53716   7.436   4.271   6.753
 9186POPC   C3A53717   7.447   4.330   7.053
 9186POPC   C4A53718   7.423   4.295   7.353
 9186POPC   C1B53719   7.373   4.520   6.453
 9186POPC   C2B53720   7.431   4.564   6.753
 9186POPC   C3B53721   7.419   4.611   7.053
 9186POPC   C4B53722   7.366   4.553   7.353
 9187POPC   NC353723   8.946  26.008   5.553
 9187POPC   PO453724   9.008  26.076   5.853
 9187POPC   GL153725   8.922  26.080   6.153
 9187POPC   GL253726   9.053  26.110   6.153
 9187POPC   C1A53727   8.982  26.056   6.453
 9187POPC   D2A53728   9.009  26.042   6.753
 9187POPC   C3A53729   9.017  26.052   7.053
 9187POPC   C4A53730   8.947  26.052   7.353
 9187POPC   C1B53731   9.141  26.203   6.453
 9187POPC   C2B53732   9.161  26.211   6.753
 9187POPC   C3B53733   9.124  26.163   7.053
 9187POPC   C4B53734   9.155  26.219   7.353
 9188POPC   NC353735   3.508  26.825   5.553
 9188POPC   PO453736   3.541  26.819   5.853
 9188POPC   GL153737   3.498  26.863   6.153
 9188POPC   GL253738   3.407  26.811   6.153
 9188POPC   C1A53739   3.522  26.801   6.453
 9188POPC   D2A53740   3.553  26.827   6.753
 9188POPC   C3A53741   3.533  26.853   7.053
 9188POPC   C4A53742   3.554  26.780   7.353
 9188POPC   C1B53743   3.302  26.879   6.453
 9188POPC   C2B53744   3.321  26.859   6.753
 9188POPC   C3B53745   3.352  26.932   7.053
 9188POPC   C4B53746   3.346  26.865   7.353
 9189POPC   NC353747  29.928  16.748   5.553
 9189POPC   PO453748  29.969  16.727   5.853
 9189POPC   GL153749  29.893  16.756   6.153
 9189POPC   GL253750  29.797  16.835   6.153
 9189POPC   C1A53751  29.913  16.702   6.453
 9189POPC   D2A53752  29.970  16.695   6.753
 9189POPC   C3A53753  29.893  16.730   7.053
 9189POPC   C4A53754  29.935  16.709   7.353
 9189POPC   C1B53755  29.772  16.897   6.453
 9189POPC   C2B53756  29.711  16.865   6.753
 9189POPC   C3B53757  29.708  16.860   7.053
 9189POPC   C4B53758  29.769  16.936   7.353
 9190POPC   NC353759   1.194  15.954   5.553
 9190POPC   PO453760   1.263  15.960   5.853
 9190POPC   GL153761   1.227  15.919   6.153
 9190POPC   GL253762   1.092  15.883   6.153
 9190POPC   C1A53763   1.255  15.977   6.453
 9190POPC   D2A53764   1.248  15.923   6.753
 9190POPC   C3A53765   1.246  15.914   7.053
 9190POPC   C4A53766   1.212  15.997   7.353
 9190POPC   C1B53767   1.066  15.744   6.453
 9190POPC   C2B53768   0.976  15.766   6.753
 9190POPC   C3B53769   1.053  15.834   7.053
 9190POPC   C4B53770   1.026  15.779   7.353
 9191POPC   NC353771   7.410   5.119   5.553
 9191POPC   PO453772   7.440   5.117   5.853
 9191POPC   GL153773   7.443   5.078   6.153
 9191POPC   GL253774   7.330   5.071   6.153
 9191POPC   C1A53775   7.379   5.090   6.453
 9191POPC   D2A53776   7.407   5.123   6.753
 9191POPC   C3A53777   7.420   5.075   7.053
 9191POPC   C4A53778   7.400   5.079   7.353
 9191POPC   C1B53779   7.206   5.029   6.453
 9191POPC   C2B53780   7.227   5.058   6.753
 9191POPC   C3B53781   7.146   5.065   7.053
 9191POPC   C4B53782   7.226   5.063   7.353
 9192POPC   NC353783  28.372  27.609   5.553
 9192POPC   PO453784  28.348  27.545   5.853
 9192POPC   GL153785  28.335  27.573   6.153
 9192POPC   GL253786  28.435  27.502   6.153
 9192POPC   C1A53787  28.324  27.574   6.453
 9192POPC   D2A53788  28.327  27.595   6.753
 9192POPC   C3A53789  28.416  27.588   7.053
 9192POPC   C4A53790  28.324  27.570   7.353
 9192POPC   C1B53791  28.493  27.323   6.453
 9192POPC   C2B53792  28.504  27.395   6.753
 9192POPC   C3B53793  28.522  27.343   7.053
 9192POPC   C4B53794  28.531  27.327   7.353
 9193POPC   NC353795  12.035  25.255   5.553
 9193POPC   PO453796  12.117  25.236   5.853
 9193POPC   GL153797  12.064  25.229   6.153
 9193POPC   GL253798  12.071  25.387   6.153
 9193POPC   C1A53799  12.096  25.251   6.453
 9193POPC   D2A53800  12.113  25.261   6.753
 9193POPC   C3A53801  12.043  25.299   7.053
 9193POPC   C4A53802  12.083  25.297   7.353
 9193POPC   C1B53803  12.183  25.464   6.453
 9193POPC   C2B53804  12.110  25.483   6.753
 9193POPC   C3B53805  12.144  25.540   7.053
 9193POPC   C4B53806  12.196  25.469   7.353
 9194POPC   NC353807   1.945  21.395   5.553
 9194POPC   PO453808   1.975  21.417   5.853
 9194POPC   GL153809   2.010  21.369   6.153
 9194POPC   GL253810   1.921  21.500   6.153
 9194POPC   C1A53811   1.969  21.366   6.453
 9194POPC   D2A53812   1.957  21.377   6.753
 9194POPC   C3A53813   2.004  21.351   7.053
 9194POPC   C4A53814   1.974  21.365   7.353
 9194POPC   C1B53815   1.896  21.596   6.453
 9194POPC   C2B53816   1.864  21.617   6.753
 9194POPC   C3B53817   1.937  21.618   7.053
 9194POPC   C4B53818   1.906  21.621   7.353
 9195POPC   NC353819  31.464  42.334   5.553
 9195POPC   PO453820  31.460  42.362   5.853
 9195POPC   GL153821  31.495  42.300   6.153
 9195POPC   GL253822  31.558  42.298   6.153
 9195POPC   C1A53823  31.515  42.358   6.453
 9195POPC   D2A53824  31.494  42.306   6.753
 9195POPC   C3A53825  31.456  42.338   7.053
 9195POPC   C4A53826  31.452  42.296   7.353
 9195POPC   C1B53827  31.736  42.262   6.453
 9195POPC   C2B53828  31.727  42.318   6.753
 9195POPC   C3B53829  31.716  42.258   7.053
 9195POPC   C4B53830  31.728  42.321   7.353
 9196POPC   NC353831  19.102  39.189   5.553
 9196POPC   PO453832  19.041  39.253   5.853
 9196POPC   GL153833  19.057  39.237   6.153
 9196POPC   GL253834  18.928  39.157   6.153
 9196POPC   C1A53835  19.095  39.237   6.453
 9196POPC   D2A53836  19.095  39.253   6.753
 9196POPC   C3A53837  19.056  39.190   7.053
 9196POPC   C4A53838  19.045  39.238   7.353
 9196POPC   C1B53839  18.855  39.061   6.453
 9196POPC   C2B53840  18.833  39.086   6.753
 9196POPC   C3B53841  18.837  39.120   7.053
 9196POPC   C4B53842  18.831  39.063   7.353
 9197POPC   NC353843  33.813  29.938   5.553
 9197POPC   PO453844  33.764  29.877   5.853
 9197POPC   GL153845  33.806  29.950   6.153
 9197POPC   GL253846  33.775  30.088   6.153
 9197POPC   C1A53847  33.831  29.881   6.453
 9197POPC   D2A53848  33.822  29.892   6.753
 9197POPC   C3A53849  33.756  29.935   7.053
 9197POPC   C4A53850  33.836  29.956   7.353
 9197POPC   C1B53851  33.783  30.156   6.453
 9197POPC   C2B53852  33.818  30.127   6.753
 9197POPC   C3B53853  33.820  30.123   7.053
 9197POPC   C4B53854  33.809  30.186   7.353
 9198POPC   NC353855  36.905  43.144   5.553
 9198POPC   PO453856  36.917  43.159   5.853
 9198POPC   GL153857  36.909  43.100   6.153
 9198POPC   GL253858  36.981  43.167   6.153
 9198POPC   C1A53859  36.902  43.113   6.453
 9198POPC   D2A53860  36.872  43.100   6.753
 9198POPC   C3A53861  36.895  43.155   7.053
 9198POPC   C4A53862  36.888  43.142   7.353
 9198POPC   C1B53863  37.149  43.188   6.453
 9198POPC   C2B53864  37.153  43.284   6.753
 9198POPC   C3B53865  37.156  43.269   7.053
 9198POPC   C4B53866  37.077  43.265   7.353
 9199POPC   NC353867  26.808   0.426   5.553
 9199POPC   PO453868  26.817   0.481   5.853
 9199POPC   GL153869  26.787   0.389   6.153
 9199POPC   GL253870  26.704   0.537   6.153
 9199POPC   C1A53871  26.808   0.445   6.453
 9199POPC   D2A53872  26.861   0.391   6.753
 9199POPC   C3A53873  26.852   0.455   7.053
 9199POPC   C4A53874  26.782   0.452   7.353
 9199POPC   C1B53875  26.635   0.570   6.453
 9199POPC   C2B53876  26.627   0.567   6.753
 9199POPC   C3B53877  26.580   0.588   7.053
 9199POPC   C4B53878  26.585   0.547   7.353
 9200POPC   NC353879  13.651  29.951   5.553
 9200POPC   PO453880  13.612  29.925   5.853
 9200POPC   GL153881  13.590  29.903   6.153
 9200POPC   GL253882  13.737  29.995   6.153
 9200POPC   C1A53883  13.585  29.942   6.453
 9200POPC   D2A53884  13.650  29.910   6.753
 9200POPC   C3A53885  13.596  29.898   7.053
 9200POPC   C4A53886  13.587  29.970   7.353
 9200POPC   C1B53887  13.815  30.049   6.453
 9200POPC   C2B53888  13.762  30.073   6.753
 9200POPC   C3B53889  13.831  30.133   7.053
 9200POPC   C4B53890  13.805  30.074   7.353
 9201POPC   NC353891  32.275  44.619   5.553
 9201POPC   PO453892  32.230  44.618   5.853
 9201POPC   GL153893  32.282  44.657   6.153
 9201POPC   GL253894  32.380  44.649   6.153
 9201POPC   C1A53895  32.262  44.688   6.453
 9201POPC   D2A53896  32.233  44.667   6.753
 9201POPC   C3A53897  32.201  44.647   7.053
 9201POPC   C4A53898  32.274  44.664   7.353
 9201POPC   C1B53899  32.499  44.648   6.453
 9201POPC   C2B53900  32.518  44.620   6.753
 9201POPC   C3B53901  32.530  44.615   7.053
 9201POPC   C4B53902  32.489  44.615   7.353
 9202POPC   NC353903  17.497  17.516   5.553
 9202POPC   PO453904  17.504  17.533   5.853
 9202POPC   GL153905  17.510  17.544   6.153
 9202POPC   GL253906  17.421  17.365   6.153
 9202POPC   C1A53907  17.529  17.497   6.453
 9202POPC   D2A53908  17.513  17.511   6.753
 9202POPC   C3A53909  17.500  17.458   7.053
 9202POPC   C4A53910  17.513  17.513   7.353
 9202POPC   C1B53911  17.363  17.312   6.453
 9202POPC   C2B53912  17.364  17.333   6.753
 9202POPC   C3B53913  17.408  17.280   7.053
 9202POPC   C4B53914  17.342  17.260   7.353
 9203POPC   NC353915   2.010  16.757   5.553
 9203POPC   PO453916   1.965  16.733   5.853
 9203POPC   GL153917   1.970  16.743   6.153
 9203POPC   GL253918   2.096  16.611   6.153
 9203POPC   C1A53919   1.995  16.721   6.453
 9203POPC   D2A53920   1.952  16.706   6.753
 9203POPC   C3A53921   2.017  16.733   7.053
 9203POPC   C4A53922   1.956  16.684   7.353
 9203POPC   C1B53923   2.146  16.595   6.453
 9203POPC   C2B53924   2.149  16.531   6.753
 9203POPC   C3B53925   2.119  16.532   7.053
 9203POPC   C4B53926   2.202  16.556   7.353
 9204POPC   NC353927  33.779  32.976   5.553
 9204POPC   PO453928  33.825  33.044   5.853
 9204POPC   GL153929  33.846  32.980   6.153
 9204POPC   GL253930  33.655  33.072   6.153
 9204POPC   C1A53931  33.836  33.027   6.453
 9204POPC   D2A53932  33.801  33.065   6.753
 9204POPC   C3A53933  33.785  32.997   7.053
 9204POPC   C4A53934  33.841  33.026   7.353
 9204POPC   C1B53935  33.584  33.140   6.453
 9204POPC   C2B53936  33.605  33.183   6.753
 9204POPC   C3B53937  33.579  33.157   7.053
 9204POPC   C4B53938  33.559  33.143   7.353
 9205POPC   NC353939   0.473  33.849   5.553
 9205POPC   PO453940   0.395  33.816   5.853
 9205POPC   GL153941   0.436  33.755   6.153
 9205POPC   GL253942   0.309  33.898   6.153
 9205POPC   C1A53943   0.444  33.825   6.453
 9205POPC   D2A53944   0.465  33.844   6.753
 9205POPC   C3A53945   0.439  33.765   7.053
 9205POPC   C4A53946   0.466  33.847   7.353
 9205POPC   C1B53947   0.243  33.968   6.453
 9205POPC   C2B53948   0.273  34.000   6.753
 9205POPC   C3B53949   0.282  33.946   7.053
 9205POPC   C4B53950   0.233  33.911   7.353
 9206POPC   NC353951  13.641  19.872   5.553
 9206POPC   PO453952  13.645  19.793   5.853
 9206POPC   GL153953  13.658  19.786   6.153
 9206POPC   GL253954  13.563  19.933   6.153
 9206POPC   C1A53955  13.609  19.794   6.453
 9206POPC   D2A53956  13.618  19.859   6.753
 9206POPC   C3A53957  13.600  19.871   7.053
 9206POPC   C4A53958  13.593  19.802   7.353
 9206POPC   C1B53959  13.442  19.959   6.453
 9206POPC   C2B53960  13.429  19.994   6.753
 9206POPC   C3B53961  13.394  19.908   7.053
 9206POPC   C4B53962  13.391  19.969   7.353
 9207POPC   NC353963  33.035  14.441   5.553
 9207POPC   PO453964  32.997  14.373   5.853
 9207POPC   GL153965  32.995  14.437   6.153
 9207POPC   GL253966  32.946  14.347   6.153
 9207POPC   C1A53967  33.002  14.401   6.453
 9207POPC   D2A53968  32.985  14.430   6.753
 9207POPC   C3A53969  33.041  14.392   7.053
 9207POPC   C4A53970  33.033  14.427   7.353
 9207POPC   C1B53971  32.859  14.199   6.453
 9207POPC   C2B53972  32.885  14.196   6.753
 9207POPC   C3B53973  32.878  14.243   7.053
 9207POPC   C4B53974  32.810  14.212   7.353
 9208POPC   NC353975   9.009  12.075   5.553
 9208POPC   PO453976   8.980  12.059   5.853
 9208POPC   GL153977   8.986  12.035   6.153
 9208POPC   GL253978   9.051  12.141   6.153
 9208POPC   C1A53979   8.976  12.123   6.453
 9208POPC   D2A53980   8.926  12.101   6.753
 9208POPC   C3A53981   9.017  12.059   7.053
 9208POPC   C4A53982   9.019  12.124   7.353
 9208POPC   C1B53983   9.180  12.121   6.453
 9208POPC   C2B53984   9.259  12.126   6.753
 9208POPC   C3B53985   9.194  12.095   7.053
 9208POPC   C4B53986   9.198  12.080   7.353
 9209POPC   NC353987   6.681  28.340   5.553
 9209POPC   PO453988   6.598  28.361   5.853
 9209POPC   GL153989   6.632  28.322   6.153
 9209POPC   GL253990   6.705  28.447   6.153
 9209POPC   C1A53991   6.597  28.395   6.453
 9209POPC   D2A53992   6.612  28.357   6.753
 9209POPC   C3A53993   6.683  28.365   7.053
 9209POPC   C4A53994   6.664  28.387   7.353
 9209POPC   C1B53995   6.741  28.623   6.453
 9209POPC   C2B53996   6.811  28.582   6.753
 9209POPC   C3B53997   6.749  28.612   7.053
 9209POPC   C4B53998   6.727  28.594   7.353
 9210POPC   NC353999  42.382  36.938   5.553
 9210POPC   PO454000  42.319  36.866   5.853
 9210POPC   GL154001  42.332  36.902   6.153
 9210POPC   GL254002  42.292  37.016   6.153
 9210POPC   C1A54003  42.352  36.875   6.453
 9210POPC   D2A54004  42.338  36.908   6.753
 9210POPC   C3A54005  42.339  36.924   7.053
 9210POPC   C4A54006  42.329  36.857   7.353
 9210POPC   C1B54007  42.220  37.147   6.453
 9210POPC   C2B54008  42.149  37.088   6.753
 9210POPC   C3B54009  42.155  37.136   7.053
 9210POPC   C4B54010  42.180  37.141   7.353
 9211POPC   NC354011  15.210  32.272   5.553
 9211POPC   PO454012  15.192  32.265   5.853
 9211POPC   GL154013  15.222  32.229   6.153
 9211POPC   GL254014  15.289  32.255   6.153
 9211POPC   C1A54015  15.144  32.236   6.453
 9211POPC   D2A54016  15.138  32.237   6.753
 9211POPC   C3A54017  15.171  32.221   7.053
 9211POPC   C4A54018  15.191  32.206   7.353
 9211POPC   C1B54019  15.386  32.246   6.453
 9211POPC   C2B54020  15.389  32.178   6.753
 9211POPC   C3B54021  15.428  32.197   7.053
 9211POPC   C4B54022  15.382  32.226   7.353
 9212POPC   NC354023  21.380   1.946   5.553
 9212POPC   PO454024  21.350   1.963   5.853
 9212POPC   GL154025  21.349   1.963   6.153
 9212POPC   GL254026  21.441   2.087   6.153
 9212POPC   C1A54027  21.382   2.011   6.453
 9212POPC   D2A54028  21.382   1.954   6.753
 9212POPC   C3A54029  21.378   2.009   7.053
 9212POPC   C4A54030  21.355   2.022   7.353
 9212POPC   C1B54031  21.483   2.209   6.453
 9212POPC   C2B54032  21.440   2.222   6.753
 9212POPC   C3B54033  21.512   2.170   7.053
 9212POPC   C4B54034  21.458   2.181   7.353
 9213POPC   NC354035  25.266   5.058   5.553
 9213POPC   PO454036  25.265   5.124   5.853
 9213POPC   GL154037  25.293   5.058   6.153
 9213POPC   GL254038  25.234   5.250   6.153
 9213POPC   C1A54039  25.306   5.107   6.453
 9213POPC   D2A54040  25.311   5.046   6.753
 9213POPC   C3A54041  25.283   5.091   7.053
 9213POPC   C4A54042  25.216   5.074   7.353
 9213POPC   C1B54043  25.110   5.291   6.453
 9213POPC   C2B54044  25.193   5.329   6.753
 9213POPC   C3B54045  25.117   5.294   7.053
 9213POPC   C4B54046  25.176   5.341   7.353
 9214POPC   NC354047  22.143  22.953   5.553
 9214POPC   PO454048  22.124  22.958   5.853
 9214POPC   GL154049  22.153  22.924   6.153
 9214POPC   GL254050  22.192  22.869   6.153
 9214POPC   C1A54051  22.141  22.947   6.453
 9214POPC   D2A54052  22.127  22.903   6.753
 9214POPC   C3A54053  22.209  22.946   7.053
 9214POPC   C4A54054  22.169  22.942   7.353
 9214POPC   C1B54055  22.276  22.749   6.453
 9214POPC   C2B54056  22.244  22.679   6.753
 9214POPC   C3B54057  22.253  22.681   7.053
 9214POPC   C4B54058  22.254  22.711   7.353
 9215POPC   NC354059   8.205  35.387   5.553
 9215POPC   PO454060   8.228  35.375   5.853
 9215POPC   GL154061   8.170  35.346   6.153
 9215POPC   GL254062   8.291  35.446   6.153
 9215POPC   C1A54063   8.181  35.359   6.453
 9215POPC   D2A54064   8.239  35.388   6.753
 9215POPC   C3A54065   8.233  35.374   7.053
 9215POPC   C4A54066   8.154  35.385   7.353
 9215POPC   C1B54067   8.391  35.417   6.453
 9215POPC   C2B54068   8.412  35.432   6.753
 9215POPC   C3B54069   8.410  35.453   7.053
 9215POPC   C4B54070   8.379  35.487   7.353
 9216POPC   NC354071  12.840  32.289   5.553
 9216POPC   PO454072  12.867  32.220   5.853
 9216POPC   GL154073  12.830  32.246   6.153
 9216POPC   GL254074  12.731  32.163   6.153
 9216POPC   C1A54075  12.818  32.295   6.453
 9216POPC   D2A54076  12.832  32.261   6.753
 9216POPC   C3A54077  12.840  32.269   7.053
 9216POPC   C4A54078  12.806  32.236   7.353
 9216POPC   C1B54079  12.654  32.093   6.453
 9216POPC   C2B54080  12.683  32.079   6.753
 9216POPC   C3B54081  12.673  32.120   7.053
 9216POPC   C4B54082  12.660  32.030   7.353
 9217POPC   NC354083  39.225   5.098   5.553
 9217POPC   PO454084  39.262   5.053   5.853
 9217POPC   GL154085  39.184   5.132   6.153
 9217POPC   GL254086  39.185   5.029   6.153
 9217POPC   C1A54087  39.205   5.049   6.453
 9217POPC   D2A54088  39.275   5.123   6.753
 9217POPC   C3A54089  39.229   5.109   7.053
 9217POPC   C4A54090  39.278   5.064   7.353
 9217POPC   C1B54091  39.145   4.842   6.453
 9217POPC   C2B54092  39.161   4.878   6.753
 9217POPC   C3B54093  39.131   4.911   7.053
 9217POPC   C4B54094  39.154   4.881   7.353
 9218POPC   NC354095  19.859  35.317   5.553
 9218POPC   PO454096  19.871  35.387   5.853
 9218POPC   GL154097  19.818  35.336   6.153
 9218POPC   GL254098  19.715  35.461   6.153
 9218POPC   C1A54099  19.835  35.338   6.453
 9218POPC   D2A54100  19.859  35.378   6.753
 9218POPC   C3A54101  19.788  35.346   7.053
 9218POPC   C4A54102  19.819  35.314   7.353
 9218POPC   C1B54103  19.654  35.483   6.453
 9218POPC   C2B54104  19.617  35.517   6.753
 9218POPC   C3B54105  19.671  35.472   7.053
 9218POPC   C4B54106  19.676  35.480   7.353
 9219POPC   NC354107  27.641  42.357   5.553
 9219POPC   PO454108  27.597  42.349   5.853
 9219POPC   GL154109  27.604  42.315   6.153
 9219POPC   GL254110  27.690  42.380   6.153
 9219POPC   C1A54111  27.608  42.380   6.453
 9219POPC   D2A54112  27.612  42.291   6.753
 9219POPC   C3A54113  27.631  42.359   7.053
 9219POPC   C4A54114  27.613  42.318   7.353
 9219POPC   C1B54115  27.803  42.395   6.453
 9219POPC   C2B54116  27.790  42.405   6.753
 9219POPC   C3B54117  27.882  42.367   7.053
 9219POPC   C4B54118  27.824  42.387   7.353
 9220POPC   NC354119  32.987  22.951   5.553
 9220POPC   PO454120  33.016  22.934   5.853
 9220POPC   GL154121  33.026  22.978   6.153
 9220POPC   GL254122  32.924  22.885   6.153
 9220POPC   C1A54123  33.031  22.896   6.453
 9220POPC   D2A54124  33.029  22.912   6.753
 9220POPC   C3A54125  33.009  22.899   7.053
 9220POPC   C4A54126  33.030  22.924   7.353
 9220POPC   C1B54127  32.835  22.769   6.453
 9220POPC   C2B54128  32.795  22.771   6.753
 9220POPC   C3B54129  32.878  22.746   7.053
 9220POPC   C4B54130  32.863  22.802   7.353
 9221POPC   NC354131  25.240  31.424   5.553
 9221POPC   PO454132  25.224  31.478   5.853
 9221POPC   GL154133  25.308  31.449   6.153
 9221POPC   GL254134  25.216  31.579   6.153
 9221POPC   C1A54135  25.229  31.510   6.453
 9221POPC   D2A54136  25.308  31.516   6.753
 9221POPC   C3A54137  25.257  31.428   7.053
 9221POPC   C4A54138  25.268  31.478   7.353
 9221POPC   C1B54139  25.152  31.736   6.453
 9221POPC   C2B54140  25.229  31.734   6.753
 9221POPC   C3B54141  25.221  31.681   7.053
 9221POPC   C4B54142  25.160  31.681   7.353
 9222POPC   NC354143  41.575  40.832   5.553
 9222POPC   PO454144  41.604  40.777   5.853
 9222POPC   GL154145  41.521  40.752   6.153
 9222POPC   GL254146  41.447  40.708   6.153
 9222POPC   C1A54147  41.516  40.814   6.453
 9222POPC   D2A54148  41.565  40.795   6.753
 9222POPC   C3A54149  41.570  40.790   7.053
 9222POPC   C4A54150  41.583  40.813   7.353
 9222POPC   C1B54151  41.316  40.698   6.453
 9222POPC   C2B54152  41.287  40.643   6.753
 9222POPC   C3B54153  41.376  40.663   7.053
 9222POPC   C4B54154  41.339  40.665   7.353
 9223POPC   NC354155  27.620  12.114   5.553
 9223POPC   PO454156  27.602  12.070   5.853
 9223POPC   GL154157  27.627  12.110   6.153
 9223POPC   GL254158  27.443  12.024   6.153
 9223POPC   C1A54159  27.639  12.037   6.453
 9223POPC   D2A54160  27.626  12.071   6.753
 9223POPC   C3A54161  27.623  12.106   7.053
 9223POPC   C4A54162  27.579  12.054   7.353
 9223POPC   C1B54163  27.385  12.014   6.453
 9223POPC   C2B54164  27.380  12.005   6.753
 9223POPC   C3B54165  27.393  11.997   7.053
 9223POPC   C4B54166  27.314  12.014   7.353
 9224POPC   NC354167  34.624  29.120   5.553
 9224POPC   PO454168  34.588  29.155   5.853
 9224POPC   GL154169  34.608  29.175   6.153
 9224POPC   GL254170  34.667  29.203   6.153
 9224POPC   C1A54171  34.551  29.162   6.453
 9224POPC   D2A54172  34.561  29.121   6.753
 9224POPC   C3A54173  34.529  29.161   7.053
 9224POPC   C4A54174  34.557  29.131   7.353
 9224POPC   C1B54175  34.799  29.244   6.453
 9224POPC   C2B54176  34.787  29.224   6.753
 9224POPC   C3B54177  34.778  29.202   7.053
 9224POPC   C4B54178  34.784  29.206   7.353
 9225POPC   NC354179  36.167  26.769   5.553
 9225POPC   PO454180  36.083  26.828   5.853
 9225POPC   GL154181  36.167  26.792   6.153
 9225POPC   GL254182  36.133  26.664   6.153
 9225POPC   C1A54183  36.160  26.768   6.453
 9225POPC   D2A54184  36.089  26.838   6.753
 9225POPC   C3A54185  36.091  26.825   7.053
 9225POPC   C4A54186  36.097  26.851   7.353
 9225POPC   C1B54187  36.189  26.531   6.453
 9225POPC   C2B54188  36.132  26.568   6.753
 9225POPC   C3B54189  36.159  26.526   7.053
 9225POPC   C4B54190  36.147  26.563   7.353
 9226POPC   NC354191  26.865  15.993   5.553
 9226POPC   PO454192  26.802  15.999   5.853
 9226POPC   GL154193  26.820  15.922   6.153
 9226POPC   GL254194  26.979  15.890   6.153
 9226POPC   C1A54195  26.804  15.980   6.453
 9226POPC   D2A54196  26.792  15.997   6.753
 9226POPC   C3A54197  26.802  15.928   7.053
 9226POPC   C4A54198  26.795  15.925   7.353
 9226POPC   C1B54199  27.045  15.889   6.453
 9226POPC   C2B54200  27.021  15.856   6.753
 9226POPC   C3B54201  27.054  15.913   7.053
 9226POPC   C4B54202  27.071  15.878   7.353
 9227POPC   NC354203  25.227   9.784   5.553
 9227POPC   PO454204  25.258   9.780   5.853
 9227POPC   GL154205  25.225   9.733   6.153
 9227POPC   GL254206  25.180   9.717   6.153
 9227POPC   C1A54207  25.312   9.737   6.453
 9227POPC   D2A54208  25.245   9.787   6.753
 9227POPC   C3A54209  25.292   9.705   7.053
 9227POPC   C4A54210  25.236   9.762   7.353
 9227POPC   C1B54211  24.976   9.721   6.453
 9227POPC   C2B54212  25.039   9.689   6.753
 9227POPC   C3B54213  25.007   9.725   7.053
 9227POPC   C4B54214  25.026   9.752   7.353
 9228POPC   NC354215  33.047  16.745   5.553
 9228POPC   PO454216  33.016  16.710   5.853
 9228POPC   GL154217  33.009  16.756   6.153
 9228POPC   GL254218  33.082  16.812   6.153
 9228POPC   C1A54219  33.022  16.694   6.453
 9228POPC   D2A54220  32.985  16.749   6.753
 9228POPC   C3A54221  33.046  16.778   7.053
 9228POPC   C4A54222  33.041  16.726   7.353
 9228POPC   C1B54223  33.188  16.917   6.453
 9228POPC   C2B54224  33.113  16.900   6.753
 9228POPC   C3B54225  33.169  16.908   7.053
 9228POPC   C4B54226  33.188  16.955   7.353
 9229POPC   NC354227   0.482   5.823   5.553
 9229POPC   PO454228   0.437   5.897   5.853
 9229POPC   GL154229   0.409   5.832   6.153
 9229POPC   GL254230   0.306   5.966   6.153
 9229POPC   C1A54231   0.456   5.902   6.453
 9229POPC   D2A54232   0.389   5.882   6.753
 9229POPC   C3A54233   0.390   5.884   7.053
 9229POPC   C4A54234   0.462   5.885   7.353
 9229POPC   C1B54235   0.239   6.035   6.453
 9229POPC   C2B54236   0.206   6.062   6.753
 9229POPC   C3B54237   0.264   6.035   7.053
 9229POPC   C4B54238   0.264   6.015   7.353
 9230POPC   NC354239  22.139  35.378   5.553
 9230POPC   PO454240  22.149  35.348   5.853
 9230POPC   GL154241  22.208  35.354   6.153
 9230POPC   GL254242  22.052  35.339   6.153
 9230POPC   C1A54243  22.144  35.380   6.453
 9230POPC   D2A54244  22.148  35.325   6.753
 9230POPC   C3A54245  22.169  35.304   7.053
 9230POPC   C4A54246  22.180  35.383   7.353
 9230POPC   C1B54247  21.977  35.230   6.453
 9230POPC   C2B54248  21.933  35.281   6.753
 9230POPC   C3B54249  21.977  35.229   7.053
 9230POPC   C4B54250  21.952  35.232   7.353
 9231POPC   NC354251  39.993  36.891   5.553
 9231POPC   PO454252  39.979  36.861   5.853
 9231POPC   GL154253  40.022  36.867   6.153
 9231POPC   GL254254  39.874  36.831   6.153
 9231POPC   C1A54255  40.035  36.918   6.453
 9231POPC   D2A54256  40.004  36.854   6.753
 9231POPC   C3A54257  40.007  36.898   7.053
 9231POPC   C4A54258  40.029  36.913   7.353
 9231POPC   C1B54259  39.739  36.842   6.453
 9231POPC   C2B54260  39.763  36.828   6.753
 9231POPC   C3B54261  39.761  36.878   7.053
 9231POPC   C4B54262  39.728  36.843   7.353
 9232POPC   NC354263  10.556  43.850   5.553
 9232POPC   PO454264  10.522  43.842   5.853
 9232POPC   GL154265  10.533  43.907   6.153
 9232POPC   GL254266  10.363  43.958   6.153
 9232POPC   C1A54267  10.479  43.842   6.453
 9232POPC   D2A54268  10.501  43.857   6.753
 9232POPC   C3A54269  10.563  43.856   7.053
 9232POPC   C4A54270  10.508  43.928   7.353
 9232POPC   C1B54271  10.309  43.974   6.453
 9232POPC   C2B54272  10.318  43.903   6.753
 9232POPC   C3B54273  10.328  43.920   7.053
 9232POPC   C4B54274  10.310  43.972   7.353
 9233POPC   NC354275  23.749  37.666   5.553
 9233POPC   PO454276  23.737  37.644   5.853
 9233POPC   GL154277  23.759  37.675   6.153
 9233POPC   GL254278  23.726  37.591   6.153
 9233POPC   C1A54279  23.706  37.697   6.453
 9233POPC   D2A54280  23.665  37.668   6.753
 9233POPC   C3A54281  23.701  37.671   7.053
 9233POPC   C4A54282  23.711  37.715   7.353
 9233POPC   C1B54283  23.795  37.446   6.453
 9233POPC   C2B54284  23.802  37.400   6.753
 9233POPC   C3B54285  23.825  37.420   7.053
 9233POPC   C4B54286  23.772  37.484   7.353
 9234POPC   NC354287   6.619  22.118   5.553
 9234POPC   PO454288   6.630  22.166   5.853
 9234POPC   GL154289   6.632  22.190   6.153
 9234POPC   GL254290   6.550  22.132   6.153
 9234POPC   C1A54291   6.597  22.183   6.453
 9234POPC   D2A54292   6.612  22.191   6.753
 9234POPC   C3A54293   6.609  22.142   7.053
 9234POPC   C4A54294   6.613  22.122   7.353
 9234POPC   C1B54295   6.372  22.143   6.453
 9234POPC   C2B54296   6.448  22.086   6.753
 9234POPC   C3B54297   6.377  22.119   7.053
 9234POPC   C4B54298   6.365  22.115   7.353
 9235POPC   NC354299   9.727  33.758   5.553
 9235POPC   PO454300   9.781  33.807   5.853
 9235POPC   GL154301   9.718  33.781   6.153
 9235POPC   GL254302   9.659  33.656   6.153
 9235POPC   C1A54303   9.721  33.809   6.453
 9235POPC   D2A54304   9.699  33.763   6.753
 9235POPC   C3A54305   9.750  33.808   7.053
 9235POPC   C4A54306   9.746  33.765   7.353
 9235POPC   C1B54307   9.602  33.631   6.453
 9235POPC   C2B54308   9.666  33.623   6.753
 9235POPC   C3B54309   9.613  33.548   7.053
 9235POPC   C4B54310   9.634  33.614   7.353
 9236POPC   NC354311  18.309  38.427   5.553
 9236POPC   PO454312  18.262  38.486   5.853
 9236POPC   GL154313  18.261  38.481   6.153
 9236POPC   GL254314  18.206  38.340   6.153
 9236POPC   C1A54315  18.301  38.454   6.453
 9236POPC   D2A54316  18.262  38.442   6.753
 9236POPC   C3A54317  18.266  38.427   7.053
 9236POPC   C4A54318  18.271  38.469   7.353
 9236POPC   C1B54319  18.165  38.222   6.453
 9236POPC   C2B54320  18.119  38.286   6.753
 9236POPC   C3B54321  18.199  38.265   7.053
 9236POPC   C4B54322  18.159  38.274   7.353
 9237POPC   NC354323  22.938   4.367   5.553
 9237POPC   PO454324  22.968   4.342   5.853
 9237POPC   GL154325  22.922   4.269   6.153
 9237POPC   GL254326  22.929   4.466   6.153
 9237POPC   C1A54327  22.934   4.312   6.453
 9237POPC   D2A54328  22.907   4.349   6.753
 9237POPC   C3A54329  22.968   4.312   7.053
 9237POPC   C4A54330  22.924   4.279   7.353
 9237POPC   C1B54331  22.871   4.588   6.453
 9237POPC   C2B54332  22.820   4.552   6.753
 9237POPC   C3B54333  22.913   4.534   7.053
 9237POPC   C4B54334  22.863   4.555   7.353
 9238POPC   NC354335  26.084  15.152   5.553
 9238POPC   PO454336  26.061  15.171   5.853
 9238POPC   GL154337  26.030  15.229   6.153
 9238POPC   GL254338  25.910  15.180   6.153
 9238POPC   C1A54339  26.025  15.184   6.453
 9238POPC   D2A54340  26.024  15.135   6.753
 9238POPC   C3A54341  26.056  15.172   7.053
 9238POPC   C4A54342  26.056  15.144   7.353
 9238POPC   C1B54343  25.755  15.165   6.453
 9238POPC   C2B54344  25.823  15.170   6.753
 9238POPC   C3B54345  25.749  15.139   7.053
 9238POPC   C4B54346  25.818  15.177   7.353
 9239POPC   NC354347  20.573  17.504   5.553
 9239POPC   PO454348  20.658  17.494   5.853
 9239POPC   GL154349  20.659  17.490   6.153
 9239POPC   GL254350  20.688  17.461   6.153
 9239POPC   C1A54351  20.634  17.468   6.453
 9239POPC   D2A54352  20.641  17.513   6.753
 9239POPC   C3A54353  20.588  17.530   7.053
 9239POPC   C4A54354  20.612  17.517   7.353
 9239POPC   C1B54355  20.792  17.348   6.453
 9239POPC   C2B54356  20.793  17.322   6.753
 9239POPC   C3B54357  20.852  17.388   7.053
 9239POPC   C4B54358  20.809  17.350   7.353
 9240POPC   NC354359  13.589   8.173   5.553
 9240POPC   PO454360  13.603   8.188   5.853
 9240POPC   GL154361  13.623   8.240   6.153
 9240POPC   GL254362  13.573   8.257   6.153
 9240POPC   C1A54363  13.633   8.182   6.453
 9240POPC   D2A54364  13.629   8.156   6.753
 9240POPC   C3A54365  13.605   8.151   7.053
 9240POPC   C4A54366  13.612   8.199   7.353
 9240POPC   C1B54367  13.445   8.335   6.453
 9240POPC   C2B54368  13.477   8.342   6.753
 9240POPC   C3B54369  13.402   8.404   7.053
 9240POPC   C4B54370  13.485   8.418   7.353
 9241POPC   NC354371  24.472  21.374   5.553
 9241POPC   PO454372  24.450  21.418   5.853
 9241POPC   GL154373  24.478  21.389   6.153
 9241POPC   GL254374  24.494  21.523   6.153
 9241POPC   C1A54375  24.502  21.381   6.453
 9241POPC   D2A54376  24.441  21.403   6.753
 9241POPC   C3A54377  24.483  21.433   7.053
 9241POPC   C4A54378  24.535  21.352   7.353
 9241POPC   C1B54379  24.588  21.588   6.453
 9241POPC   C2B54380  24.533  21.603   6.753
 9241POPC   C3B54381  24.592  21.619   7.053
 9241POPC   C4B54382  24.587  21.589   7.353
 9242POPC   NC354383  28.405   1.230   5.553
 9242POPC   PO454384  28.338   1.187   5.853
 9242POPC   GL154385  28.405   1.239   6.153
 9242POPC   GL254386  28.215   1.255   6.153
 9242POPC   C1A54387  28.320   1.185   6.453
 9242POPC   D2A54388  28.344   1.191   6.753
 9242POPC   C3A54389  28.409   1.189   7.053
 9242POPC   C4A54390  28.344   1.200   7.353
 9242POPC   C1B54391  28.074   1.273   6.453
 9242POPC   C2B54392  28.158   1.232   6.753
 9242POPC   C3B54393  28.074   1.208   7.053
 9242POPC   C4B54394  28.141   1.212   7.353
 9243POPC   NC354395  32.275  24.492   5.553
 9243POPC   PO454396  32.227  24.500   5.853
 9243POPC   GL154397  32.209  24.461   6.153
 9243POPC   GL254398  32.270  24.574   6.153
 9243POPC   C1A54399  32.219  24.506   6.453
 9243POPC   D2A54400  32.209  24.446   6.753
 9243POPC   C3A54401  32.244  24.454   7.053
 9243POPC   C4A54402  32.231  24.512   7.353
 9243POPC   C1B54403  32.233  24.729   6.453
 9243POPC   C2B54404  32.207  24.731   6.753
 9243POPC   C3B54405  32.203  24.748   7.053
 9243POPC   C4B54406  32.214  24.757   7.353
 9244POPC   NC354407  18.263  11.320   5.553
 9244POPC   PO454408  18.266  11.265   5.853
 9244POPC   GL154409  18.266  11.254   6.153
 9244POPC   GL254410  18.267  11.159   6.153
 9244POPC   C1A54411  18.270  11.285   6.453
 9244POPC   D2A54412  18.267  11.343   6.753
 9244POPC   C3A54413  18.262  11.300   7.053
 9244POPC   C4A54414  18.260  11.322   7.353
 9244POPC   C1B54415  18.205  11.123   6.453
 9244POPC   C2B54416  18.208  11.103   6.753
 9244POPC   C3B54417  18.205  11.094   7.053
 9244POPC   C4B54418  18.186  11.060   7.353
 9245POPC   NC354419   8.236   0.418   5.553
 9245POPC   PO454420   8.157   0.389   5.853
 9245POPC   GL154421   8.213   0.435   6.153
 9245POPC   GL254422   8.134   0.280   6.153
 9245POPC   C1A54423   8.181   0.427   6.453
 9245POPC   D2A54424   8.163   0.440   6.753
 9245POPC   C3A54425   8.176   0.434   7.053
 9245POPC   C4A54426   8.168   0.413   7.353
 9245POPC   C1B54427   8.200   0.212   6.453
 9245POPC   C2B54428   8.181   0.149   6.753
 9245POPC   C3B54429   8.184   0.230   7.053
 9245POPC   C4B54430   8.195   0.222   7.353
 9246POPC   NC354431  17.490  21.337   5.553
 9246POPC   PO454432  17.500  21.370   5.853
 9246POPC   GL154433  17.555  21.383   6.153
 9246POPC   GL254434  17.343  21.352   6.153
 9246POPC   C1A54435  17.488  21.404   6.453
 9246POPC   D2A54436  17.520  21.345   6.753
 9246POPC   C3A54437  17.469  21.406   7.053
 9246POPC   C4A54438  17.532  21.365   7.353
 9246POPC   C1B54439  17.212  21.371   6.453
 9246POPC   C2B54440  17.269  21.326   6.753
 9246POPC   C3B54441  17.235  21.379   7.053
 9246POPC   C4B54442  17.282  21.381   7.353
 9247POPC   NC354443  44.648   9.755   5.553
 9247POPC   PO454444  44.624   9.735   5.853
 9247POPC   GL154445  44.613   9.708   6.153
 9247POPC   GL254446  44.787   9.751   6.153
 9247POPC   C1A54447  44.619   9.793   6.453
 9247POPC   D2A54448  44.640   9.783   6.753
 9247POPC   C3A54449  44.645   9.710   7.053
 9247POPC   C4A54450  44.683   9.729   7.353
 9247POPC   C1B54451  44.870   9.846   6.453
 9247POPC   C2B54452  44.930   9.810   6.753
 9247POPC   C3B54453  44.887   9.861   7.053
 9247POPC   C4B54454  44.876   9.811   7.353
 9248POPC   NC354455  31.434  12.859   5.553
 9248POPC   PO454456  31.476  12.868   5.853
 9248POPC   GL154457  31.433  12.804   6.153
 9248POPC   GL254458  31.564  12.862   6.153
 9248POPC   C1A54459  31.477  12.832   6.453
 9248POPC   D2A54460  31.516  12.824   6.753
 9248POPC   C3A54461  31.446  12.855   7.053
 9248POPC   C4A54462  31.486  12.831   7.353
 9248POPC   C1B54463  31.689  12.935   6.453
 9248POPC   C2B54464  31.700  12.974   6.753
 9248POPC   C3B54465  31.718  12.986   7.053
 9248POPC   C4B54466  31.647  12.914   7.353
 9249POPC   NC354467  10.516  42.345   5.553
 9249POPC   PO454468  10.483  42.379   5.853
 9249POPC   GL154469  10.488  42.347   6.153
 9249POPC   GL254470  10.451  42.468   6.153
 9249POPC   C1A54471  10.498  42.365   6.453
 9249POPC   D2A54472  10.534  42.288   6.753
 9249POPC   C3A54473  10.555  42.313   7.053
 9249POPC   C4A54474  10.549  42.306   7.353
 9249POPC   C1B54475  10.426  42.578   6.453
 9249POPC   C2B54476  10.396  42.533   6.753
 9249POPC   C3B54477  10.387  42.566   7.053
 9249POPC   C4B54478  10.479  42.535   7.353
 9250POPC   NC354479  26.831  33.059   5.553
 9250POPC   PO454480  26.819  33.069   5.853
 9250POPC   GL154481  26.832  33.008   6.153
 9250POPC   GL254482  26.729  33.100   6.153
 9250POPC   C1A54483  26.800  33.026   6.453
 9250POPC   D2A54484  26.861  33.046   6.753
 9250POPC   C3A54485  26.832  33.017   7.053
 9250POPC   C4A54486  26.849  32.994   7.353
 9250POPC   C1B54487  26.565  33.137   6.453
 9250POPC   C2B54488  26.591  33.105   6.753
 9250POPC   C3B54489  26.556  33.112   7.053
 9250POPC   C4B54490  26.601  33.095   7.353
 9251POPC   NC354491  39.233   8.239   5.553
 9251POPC   PO454492  39.213   8.193   5.853
 9251POPC   GL154493  39.239   8.170   6.153
 9251POPC   GL254494  39.132   8.118   6.153
 9251POPC   C1A54495  39.217   8.175   6.453
 9251POPC   D2A54496  39.213   8.150   6.753
 9251POPC   C3A54497  39.244   8.153   7.053
 9251POPC   C4A54498  39.209   8.161   7.353
 9251POPC   C1B54499  39.022   8.012   6.453
 9251POPC   C2B54500  39.030   8.045   6.753
 9251POPC   C3B54501  39.042   8.042   7.053
 9251POPC   C4B54502  39.017   8.055   7.353
 9252POPC   NC354503   9.020  18.290   5.553
 9252POPC   PO454504   8.982  18.255   5.853
 9252POPC   GL154505   8.925  18.291   6.153
 9252POPC   GL254506   9.108  18.270   6.153
 9252POPC   C1A54507   8.940  18.324   6.453
 9252POPC   D2A54508   8.926  18.245   6.753
 9252POPC   C3A54509   8.961  18.297   7.053
 9252POPC   C4A54510   8.990  18.255   7.353
 9252POPC   C1B54511   9.253  18.251   6.453
 9252POPC   C2B54512   9.177  18.183   6.753
 9252POPC   C3B54513   9.218  18.229   7.053
 9252POPC   C4B54514   9.231  18.248   7.353
 9253POPC   NC354515  21.426  36.922   5.553
 9253POPC   PO454516  21.387  36.919   5.853
 9253POPC   GL154517  21.344  36.875   6.153
 9253POPC   GL254518  21.331  36.843   6.153
 9253POPC   C1A54519  21.346  36.913   6.453
 9253POPC   D2A54520  21.381  36.868   6.753
 9253POPC   C3A54521  21.357  36.888   7.053
 9253POPC   C4A54522  21.427  36.875   7.353
 9253POPC   C1B54523  21.246  36.685   6.453
 9253POPC   C2B54524  21.204  36.663   6.753
 9253POPC   C3B54525  21.233  36.674   7.053
 9253POPC   C4B54526  21.235  36.679   7.353
 9254POPC   NC354527  34.610  11.339   5.553
 9254POPC   PO454528  34.558  11.267   5.853
 9254POPC   GL154529  34.549  11.298   6.153
 9254POPC   GL254530  34.747  11.246   6.153
 9254POPC   C1A54531  34.584  11.274   6.453
 9254POPC   D2A54532  34.572  11.266   6.753
 9254POPC   C3A54533  34.530  11.295   7.053
 9254POPC   C4A54534  34.580  11.256   7.353
 9254POPC   C1B54535  34.852  11.243   6.453
 9254POPC   C2B54536  34.852  11.293   6.753
 9254POPC   C3B54537  34.864  11.236   7.053
 9254POPC   C4B54538  34.793  11.300   7.353
 9255POPC   NC354539  39.231   9.735   5.553
 9255POPC   PO454540  39.203   9.734   5.853
 9255POPC   GL154541  39.220   9.706   6.153
 9255POPC   GL254542  39.259   9.849   6.153
 9255POPC   C1A54543  39.252   9.705   6.453
 9255POPC   D2A54544  39.270   9.765   6.753
 9255POPC   C3A54545  39.196   9.757   7.053
 9255POPC   C4A54546  39.186   9.737   7.353
 9255POPC   C1B54547  39.263   9.953   6.453
 9255POPC   C2B54548  39.180  10.011   6.753
 9255POPC   C3B54549  39.190  10.039   7.053
 9255POPC   C4B54550  39.200   9.993   7.353
 9256POPC   NC354551  19.812  28.341   5.553
 9256POPC   PO454552  19.815  28.374   5.853
 9256POPC   GL154553  19.827  28.383   6.153
 9256POPC   GL254554  19.702  28.471   6.153
 9256POPC   C1A54555  19.823  28.322   6.453
 9256POPC   D2A54556  19.807  28.344   6.753
 9256POPC   C3A54557  19.850  28.367   7.053
 9256POPC   C4A54558  19.818  28.347   7.353
 9256POPC   C1B54559  19.620  28.471   6.453
 9256POPC   C2B54560  19.605  28.482   6.753
 9256POPC   C3B54561  19.633  28.528   7.053
 9256POPC   C4B54562  19.664  28.547   7.353
 9257POPC   NC354563  33.065  36.923   5.553
 9257POPC   PO454564  33.016  36.890   5.853
 9257POPC   GL154565  33.048  36.887   6.153
 9257POPC   GL254566  33.098  37.022   6.153
 9257POPC   C1A54567  32.981  36.911   6.453
 9257POPC   D2A54568  33.025  36.951   6.753
 9257POPC   C3A54569  33.060  36.907   7.053
 9257POPC   C4A54570  33.033  36.859   7.353
 9257POPC   C1B54571  33.091  37.162   6.453
 9257POPC   C2B54572  33.165  37.098   6.753
 9257POPC   C3B54573  33.083  37.160   7.053
 9257POPC   C4B54574  33.149  37.161   7.353
 9258POPC   NC354575  40.017  22.924   5.553
 9258POPC   PO454576  39.965  22.916   5.853
 9258POPC   GL154577  39.984  22.985   6.153
 9258POPC   GL254578  39.858  22.839   6.153
 9258POPC   C1A54579  40.020  22.936   6.453
 9258POPC   D2A54580  39.990  22.899   6.753
 9258POPC   C3A54581  40.013  22.939   7.053
 9258POPC   C4A54582  39.994  22.954   7.353
 9258POPC   C1B54583  39.760  22.777   6.453
 9258POPC   C2B54584  39.808  22.841   6.753
 9258POPC   C3B54585  39.772  22.815   7.053
 9258POPC   C4B54586  39.819  22.771   7.353
 9259POPC   NC354587   6.642  33.039   5.553
 9259POPC   PO454588   6.653  32.999   5.853
 9259POPC   GL154589   6.616  32.991   6.153
 9259POPC   GL254590   6.488  32.991   6.153
 9259POPC   C1A54591   6.610  32.980   6.453
 9259POPC   D2A54592   6.622  33.004   6.753
 9259POPC   C3A54593   6.634  33.001   7.053
 9259POPC   C4A54594   6.601  33.025   7.353
 9259POPC   C1B54595   6.414  32.874   6.453
 9259POPC   C2B54596   6.401  32.881   6.753
 9259POPC   C3B54597   6.399  32.885   7.053
 9259POPC   C4B54598   6.381  32.910   7.353
 9260POPC   NC354599  16.752   5.051   5.553
 9260POPC   PO454600  16.708   5.126   5.853
 9260POPC   GL154601  16.718   5.123   6.153
 9260POPC   GL254602  16.638   5.023   6.153
 9260POPC   C1A54603  16.705   5.077   6.453
 9260POPC   D2A54604  16.691   5.139   6.753
 9260POPC   C3A54605  16.715   5.082   7.053
 9260POPC   C4A54606  16.701   5.098   7.353
 9260POPC   C1B54607  16.607   4.849   6.453
 9260POPC   C2B54608  16.617   4.912   6.753
 9260POPC   C3B54609  16.579   4.852   7.053
 9260POPC   C4B54610  16.623   4.912   7.353
 9261POPC   NC354611  25.239  22.892   5.553
 9261POPC   PO454612  25.253  22.947   5.853
 9261POPC   GL154613  25.271  22.922   6.153
 9261POPC   GL254614  25.359  22.936   6.153
 9261POPC   C1A54615  25.252  22.910   6.453
 9261POPC   D2A54616  25.302  22.980   6.753
 9261POPC   C3A54617  25.252  22.958   7.053
 9261POPC   C4A54618  25.278  22.936   7.353
 9261POPC   C1B54619  25.479  22.897   6.453
 9261POPC   C2B54620  25.505  22.897   6.753
 9261POPC   C3B54621  25.501  22.894   7.053
 9261POPC   C4B54622  25.520  22.879   7.353
 9262POPC   NC354623  35.319  16.698   5.553
 9262POPC   PO454624  35.350  16.706   5.853
 9262POPC   GL154625  35.360  16.777   6.153
 9262POPC   GL254626  35.363  16.632   6.153
 9262POPC   C1A54627  35.376  16.729   6.453
 9262POPC   D2A54628  35.343  16.719   6.753
 9262POPC   C3A54629  35.386  16.703   7.053
 9262POPC   C4A54630  35.398  16.724   7.353
 9262POPC   C1B54631  35.427  16.505   6.453
 9262POPC   C2B54632  35.455  16.498   6.753
 9262POPC   C3B54633  35.454  16.449   7.053
 9262POPC   C4B54634  35.439  16.485   7.353
 9263POPC   NC354635  18.323   5.082   5.553
 9263POPC   PO454636  18.311   5.083   5.853
 9263POPC   GL154637  18.236   5.134   6.153
 9263POPC   GL254638  18.262   5.175   6.153
 9263POPC   C1A54639  18.233   5.077   6.453
 9263POPC   D2A54640  18.242   5.134   6.753
 9263POPC   C3A54641  18.317   5.044   7.053
 9263POPC   C4A54642  18.297   5.086   7.353
 9263POPC   C1B54643  18.206   5.277   6.453
 9263POPC   C2B54644  18.176   5.345   6.753
 9263POPC   C3B54645  18.166   5.306   7.053
 9263POPC   C4B54646  18.177   5.340   7.353
 9264POPC   NC354647  35.367   7.438   5.553
 9264POPC   PO454648  35.360   7.414   5.853
 9264POPC   GL154649  35.381   7.427   6.153
 9264POPC   GL254650  35.358   7.585   6.153
 9264POPC   C1A54651  35.378   7.462   6.453
 9264POPC   D2A54652  35.372   7.372   6.753
 9264POPC   C3A54653  35.342   7.373   7.053
 9264POPC   C4A54654  35.339   7.458   7.353
 9264POPC   C1B54655  35.285   7.636   6.453
 9264POPC   C2B54656  35.253   7.699   6.753
 9264POPC   C3B54657  35.237   7.703   7.053
 9264POPC   C4B54658  35.289   7.619   7.353
 9265POPC   NC354659  19.813  18.304   5.553
 9265POPC   PO454660  19.870  18.328   5.853
 9265POPC   GL154661  19.855  18.299   6.153
 9265POPC   GL254662  19.763  18.373   6.153
 9265POPC   C1A54663  19.881  18.328   6.453
 9265POPC   D2A54664  19.860  18.300   6.753
 9265POPC   C3A54665  19.819  18.293   7.053
 9265POPC   C4A54666  19.845  18.293   7.353
 9265POPC   C1B54667  19.679  18.500   6.453
 9265POPC   C2B54668  19.725  18.521   6.753
 9265POPC   C3B54669  19.671  18.474   7.053
 9265POPC   C4B54670  19.713  18.483   7.353
 9266POPC   NC354671  29.933  11.298   5.553
 9266POPC   PO454672  29.940  11.331   5.853
 9266POPC   GL154673  29.963  11.322   6.153
 9266POPC   GL254674  29.866  11.223   6.153
 9266POPC   C1A54675  29.885  11.316   6.453
 9266POPC   D2A54676  29.940  11.303   6.753
 9266POPC   C3A54677  29.956  11.335   7.053
 9266POPC   C4A54678  29.895  11.303   7.353
 9266POPC   C1B54679  29.763  11.072   6.453
 9266POPC   C2B54680  29.761  11.067   6.753
 9266POPC   C3B54681  29.715  11.095   7.053
 9266POPC   C4B54682  29.785  11.128   7.353
 9267POPC   NC354683  32.980  19.010   5.553
 9267POPC   PO454684  32.984  19.103   5.853
 9267POPC   GL154685  33.067  19.096   6.153
 9267POPC   GL254686  33.160  18.980   6.153
 9267POPC   C1A54687  32.982  19.074   6.453
 9267POPC   D2A54688  33.030  19.012   6.753
 9267POPC   C3A54689  33.021  19.022   7.053
 9267POPC   C4A54690  32.998  19.069   7.353
 9267POPC   C1B54691  33.275  18.952   6.453
 9267POPC   C2B54692  33.226  18.899   6.753
 9267POPC   C3B54693  33.228  18.895   7.053
 9267POPC   C4B54694  33.191  18.881   7.353
 9268POPC   NC354695  30.648  10.573   5.553
 9268POPC   PO454696  30.706  10.481   5.853
 9268POPC   GL154697  30.724  10.517   6.153
 9268POPC   GL254698  30.821  10.480   6.153
 9268POPC   C1A54699  30.745  10.503   6.453
 9268POPC   D2A54700  30.700  10.539   6.753
 9268POPC   C3A54701  30.672  10.535   7.053
 9268POPC   C4A54702  30.687  10.534   7.353
 9268POPC   C1B54703  30.903  10.478   6.453
 9268POPC   C2B54704  30.979  10.468   6.753
 9268POPC   C3B54705  30.983  10.464   7.053
 9268POPC   C4B54706  30.979  10.468   7.353
 9269POPC   NC354707   5.059   0.418   5.553
 9269POPC   PO454708   5.097   0.473   5.853
 9269POPC   GL154709   5.115   0.456   6.153
 9269POPC   GL254710   5.150   0.569   6.153
 9269POPC   C1A54711   5.045   0.436   6.453
 9269POPC   D2A54712   5.133   0.425   6.753
 9269POPC   C3A54713   5.090   0.402   7.053
 9269POPC   C4A54714   5.136   0.426   7.353
 9269POPC   C1B54715   5.202   0.698   6.453
 9269POPC   C2B54716   5.122   0.722   6.753
 9269POPC   C3B54717   5.154   0.629   7.053
 9269POPC   C4B54718   5.188   0.664   7.353
 9270POPC   NC354719  16.779  18.235   5.553
 9270POPC   PO454720  16.685  18.324   5.853
 9270POPC   GL154721  16.755  18.290   6.153
 9270POPC   GL254722  16.629  18.338   6.153
 9270POPC   C1A54723  16.776  18.260   6.453
 9270POPC   D2A54724  16.771  18.307   6.753
 9270POPC   C3A54725  16.726  18.299   7.053
 9270POPC   C4A54726  16.749  18.328   7.353
 9270POPC   C1B54727  16.491  18.378   6.453
 9270POPC   C2B54728  16.510  18.346   6.753
 9270POPC   C3B54729  16.529  18.373   7.053
 9270POPC   C4B54730  16.540  18.372   7.353
 9271POPC   NC354731  37.702  35.352   5.553
 9271POPC   PO454732  37.719  35.383   5.853
 9271POPC   GL154733  37.668  35.313   6.153
 9271POPC   GL254734  37.769  35.444   6.153
 9271POPC   C1A54735  37.709  35.303   6.453
 9271POPC   D2A54736  37.649  35.385   6.753
 9271POPC   C3A54737  37.657  35.323   7.053
 9271POPC   C4A54738  37.690  35.335   7.353
 9271POPC   C1B54739  37.873  35.474   6.453
 9271POPC   C2B54740  37.864  35.497   6.753
 9271POPC   C3B54741  37.931  35.518   7.053
 9271POPC   C4B54742  37.868  35.502   7.353
 9272POPC   NC354743  22.151  27.630   5.553
 9272POPC   PO454744  22.168  27.545   5.853
 9272POPC   GL154745  22.153  27.544   6.153
 9272POPC   GL254746  22.237  27.482   6.153
 9272POPC   C1A54747  22.176  27.567   6.453
 9272POPC   D2A54748  22.144  27.638   6.753
 9272POPC   C3A54749  22.145  27.575   7.053
 9272POPC   C4A54750  22.142  27.619   7.353
 9272POPC   C1B54751  22.387  27.414   6.453
 9272POPC   C2B54752  22.358  27.415   6.753
 9272POPC   C3B54753  22.369  27.427   7.053
 9272POPC   C4B54754  22.330  27.432   7.353
 9273POPC   NC354755  22.913  28.396   5.553
 9273POPC   PO454756  22.956  28.338   5.853
 9273POPC   GL154757  22.949  28.363   6.153
 9273POPC   GL254758  22.802  28.329   6.153
 9273POPC   C1A54759  22.917  28.359   6.453
 9273POPC   D2A54760  22.901  28.357   6.753
 9273POPC   C3A54761  22.911  28.408   7.053
 9273POPC   C4A54762  22.971  28.384   7.353
 9273POPC   C1B54763  22.762  28.261   6.453
 9273POPC   C2B54764  22.778  28.218   6.753
 9273POPC   C3B54765  22.721  28.234   7.053
 9273POPC   C4B54766  22.778  28.230   7.353
 9274POPC   NC354767  23.680  20.620   5.553
 9274POPC   PO454768  23.731  20.590   5.853
 9274POPC   GL154769  23.683  20.645   6.153
 9274POPC   GL254770  23.784  20.496   6.153
 9274POPC   C1A54771  23.731  20.644   6.453
 9274POPC   D2A54772  23.715  20.652   6.753
 9274POPC   C3A54773  23.745  20.624   7.053
 9274POPC   C4A54774  23.736  20.635   7.353
 9274POPC   C1B54775  23.909  20.397   6.453
 9274POPC   C2B54776  23.911  20.399   6.753
 9274POPC   C3B54777  23.901  20.495   7.053
 9274POPC   C4B54778  23.920  20.431   7.353
 9275POPC   NC354779  34.585   2.734   5.553
 9275POPC   PO454780  34.558   2.720   5.853
 9275POPC   GL154781  34.565   2.782   6.153
 9275POPC   GL254782  34.573   2.881   6.153
 9275POPC   C1A54783  34.582   2.738   6.453
 9275POPC   D2A54784  34.609   2.750   6.753
 9275POPC   C3A54785  34.581   2.730   7.053
 9275POPC   C4A54786  34.595   2.729   7.353
 9275POPC   C1B54787  34.516   2.989   6.453
 9275POPC   C2B54788  34.546   2.968   6.753
 9275POPC   C3B54789  34.498   3.018   7.053
 9275POPC   C4B54790  34.573   3.025   7.353
 9276POPC   NC354791  27.591   8.204   5.553
 9276POPC   PO454792  27.599   8.149   5.853
 9276POPC   GL154793  27.558   8.206   6.153
 9276POPC   GL254794  27.688   8.249   6.153
 9276POPC   C1A54795  27.582   8.164   6.453
 9276POPC   D2A54796  27.636   8.235   6.753
 9276POPC   C3A54797  27.632   8.198   7.053
 9276POPC   C4A54798  27.565   8.218   7.353
 9276POPC   C1B54799  27.793   8.189   6.453
 9276POPC   C2B54800  27.807   8.198   6.753
 9276POPC   C3B54801  27.825   8.198   7.053
 9276POPC   C4B54802  27.794   8.228   7.353
 9277POPC   NC354803  42.306  25.308   5.553
 9277POPC   PO454804  42.354  25.313   5.853
 9277POPC   GL154805  42.340  25.243   6.153
 9277POPC   GL254806  42.305  25.151   6.153
 9277POPC   C1A54807  42.328  25.218   6.453
 9277POPC   D2A54808  42.368  25.237   6.753
 9277POPC   C3A54809  42.324  25.269   7.053
 9277POPC   C4A54810  42.378  25.258   7.353
 9277POPC   C1B54811  42.311  24.998   6.453
 9277POPC   C2B54812  42.312  25.031   6.753
 9277POPC   C3B54813  42.315  25.035   7.053
 9277POPC   C4B54814  42.266  25.065   7.353
 9278POPC   NC354815   0.481  40.803   5.553
 9278POPC   PO454816   0.460  40.736   5.853
 9278POPC   GL154817   0.436  40.801   6.153
 9278POPC   GL254818   0.554  40.713   6.153
 9278POPC   C1A54819   0.462  40.780   6.453
 9278POPC   D2A54820   0.459  40.791   6.753
 9278POPC   C3A54821   0.472  40.769   7.053
 9278POPC   C4A54822   0.430  40.806   7.353
 9278POPC   C1B54823   0.707  40.732   6.453
 9278POPC   C2B54824   0.693  40.756   6.753
 9278POPC   C3B54825   0.661  40.679   7.053
 9278POPC   C4B54826   0.632  40.748   7.353
 9279POPC   NC354827  36.105  26.081   5.553
 9279POPC   PO454828  36.145  26.068   5.853
 9279POPC   GL154829  36.175  26.058   6.153
 9279POPC   GL254830  36.239  25.999   6.153
 9279POPC   C1A54831  36.133  26.064   6.453
 9279POPC   D2A54832  36.165  26.013   6.753
 9279POPC   C3A54833  36.121  26.002   7.053
 9279POPC   C4A54834  36.168  26.016   7.353
 9279POPC   C1B54835  36.365  25.962   6.453
 9279POPC   C2B54836  36.347  26.030   6.753
 9279POPC   C3B54837  36.356  25.957   7.053
 9279POPC   C4B54838  36.381  26.001   7.353
 9280POPC   NC354839  32.266  11.252   5.553
 9280POPC   PO454840  32.224  11.252   5.853
 9280POPC   GL154841  32.271  11.263   6.153
 9280POPC   GL254842  32.329  11.396   6.153
 9280POPC   C1A54843  32.265  11.254   6.453
 9280POPC   D2A54844  32.203  11.324   6.753
 9280POPC   C3A54845  32.201  11.291   7.053
 9280POPC   C4A54846  32.263  11.336   7.353
 9280POPC   C1B54847  32.454  11.424   6.453
 9280POPC   C2B54848  32.470  11.490   6.753
 9280POPC   C3B54849  32.431  11.475   7.053
 9280POPC   C4B54850  32.419  11.442   7.353
 9281POPC   NC354851  26.822   6.667   5.553
 9281POPC   PO454852  26.861   6.631   5.853
 9281POPC   GL154853  26.805   6.630   6.153
 9281POPC   GL254854  26.885   6.518   6.153
 9281POPC   C1A54855  26.845   6.687   6.453
 9281POPC   D2A54856  26.784   6.630   6.753
 9281POPC   C3A54857  26.826   6.629   7.053
 9281POPC   C4A54858  26.776   6.670   7.353
 9281POPC   C1B54859  26.935   6.379   6.453
 9281POPC   C2B54860  26.901   6.418   6.753
 9281POPC   C3B54861  26.965   6.465   7.053
 9281POPC   C4B54862  26.903   6.378   7.353
 9282POPC   NC354863  33.754  37.659   5.553
 9282POPC   PO454864  33.848  37.634   5.853
 9282POPC   GL154865  33.840  37.632   6.153
 9282POPC   GL254866  33.754  37.829   6.153
 9282POPC   C1A54867  33.824  37.704   6.453
 9282POPC   D2A54868  33.834  37.648   6.753
 9282POPC   C3A54869  33.821  37.706   7.053
 9282POPC   C4A54870  33.849  37.634   7.353
 9282POPC   C1B54871  33.709  37.919   6.453
 9282POPC   C2B54872  33.694  37.911   6.753
 9282POPC   C3B54873  33.627  37.860   7.053
 9282POPC   C4B54874  33.686  37.919   7.353
 9283POPC   NC354875  26.778  41.557   5.553
 9283POPC   PO454876  26.789  41.531   5.853
 9283POPC   GL154877  26.788  41.590   6.153
 9283POPC   GL254878  26.795  41.703   6.153
 9283POPC   C1A54879  26.862  41.564   6.453
 9283POPC   D2A54880  26.820  41.604   6.753
 9283POPC   C3A54881  26.796  41.552   7.053
 9283POPC   C4A54882  26.816  41.605   7.353
 9283POPC   C1B54883  26.719  41.764   6.453
 9283POPC   C2B54884  26.661  41.798   6.753
 9283POPC   C3B54885  26.689  41.732   7.053
 9283POPC   C4B54886  26.709  41.769   7.353
 9284POPC   NC354887  12.062  33.038   5.553
 9284POPC   PO454888  12.123  33.055   5.853
 9284POPC   GL154889  12.085  33.017   6.153
 9284POPC   GL254890  12.140  33.134   6.153
 9284POPC   C1A54891  12.119  33.029   6.453
 9284POPC   D2A54892  12.042  33.023   6.753
 9284POPC   C3A54893  12.031  32.978   7.053
 9284POPC   C4A54894  12.052  33.047   7.353
 9284POPC   C1B54895  12.222  33.254   6.453
 9284POPC   C2B54896  12.228  33.244   6.753
 9284POPC   C3B54897  12.188  33.277   7.053
 9284POPC   C4B54898  12.162  33.257   7.353
 9285POPC   NC354899  13.605   5.104   5.553
 9285POPC   PO454900  13.598   5.106   5.853
 9285POPC   GL154901  13.624   5.096   6.153
 9285POPC   GL254902  13.552   4.942   6.153
 9285POPC   C1A54903  13.625   5.085   6.453
 9285POPC   D2A54904  13.578   5.075   6.753
 9285POPC   C3A54905  13.641   5.119   7.053
 9285POPC   C4A54906  13.591   5.129   7.353
 9285POPC   C1B54907  13.585   4.852   6.453
 9285POPC   C2B54908  13.508   4.887   6.753
 9285POPC   C3B54909  13.582   4.819   7.053
 9285POPC   C4B54910  13.535   4.815   7.353
 9286POPC   NC354911   4.348  30.680   5.553
 9286POPC   PO454912   4.333  30.721   5.853
 9286POPC   GL154913   4.337  30.700   6.153
 9286POPC   GL254914   4.353  30.852   6.153
 9286POPC   C1A54915   4.358  30.700   6.453
 9286POPC   D2A54916   4.304  30.670   6.753
 9286POPC   C3A54917   4.314  30.662   7.053
 9286POPC   C4A54918   4.309  30.666   7.353
 9286POPC   C1B54919   4.403  30.906   6.453
 9286POPC   C2B54920   4.417  30.948   6.753
 9286POPC   C3B54921   4.423  30.893   7.053
 9286POPC   C4B54922   4.419  30.896   7.353
 9287POPC   NC354923  33.005  33.762   5.553
 9287POPC   PO454924  32.992  33.842   5.853
 9287POPC   GL154925  32.997  33.820   6.153
 9287POPC   GL254926  32.989  33.633   6.153
 9287POPC   C1A54927  33.002  33.794   6.453
 9287POPC   D2A54928  33.054  33.844   6.753
 9287POPC   C3A54929  33.047  33.772   7.053
 9287POPC   C4A54930  33.052  33.832   7.353
 9287POPC   C1B54931  32.954  33.554   6.453
 9287POPC   C2B54932  33.016  33.547   6.753
 9287POPC   C3B54933  32.969  33.578   7.053
 9287POPC   C4B54934  33.011  33.546   7.353
 9288POPC   NC354935  34.607  32.271   5.553
 9288POPC   PO454936  34.617  32.288   5.853
 9288POPC   GL154937  34.570  32.207   6.153
 9288POPC   GL254938  34.455  32.213   6.153
 9288POPC   C1A54939  34.565  32.251   6.453
 9288POPC   D2A54940  34.563  32.260   6.753
 9288POPC   C3A54941  34.526  32.198   7.053
 9288POPC   C4A54942  34.588  32.241   7.353
 9288POPC   C1B54943  34.361  32.191   6.453
 9288POPC   C2B54944  34.310  32.229   6.753
 9288POPC   C3B54945  34.304  32.189   7.053
 9288POPC   C4B54946  34.300  32.196   7.353
 9289POPC   NC354947  40.017  40.825   5.553
 9289POPC   PO454948  40.007  40.815   5.853
 9289POPC   GL154949  40.001  40.803   6.153
 9289POPC   GL254950  40.088  40.692   6.153
 9289POPC   C1A54951  39.993  40.754   6.453
 9289POPC   D2A54952  39.975  40.802   6.753
 9289POPC   C3A54953  39.972  40.770   7.053
 9289POPC   C4A54954  40.027  40.822   7.353
 9289POPC   C1B54955  40.181  40.627   6.453
 9289POPC   C2B54956  40.173  40.627   6.753
 9289POPC   C3B54957  40.266  40.614   7.053
 9289POPC   C4B54958  40.172  40.659   7.353
 9290POPC   NC354959  43.881  36.146   5.553
 9290POPC   PO454960  43.928  36.138   5.853
 9290POPC   GL154961  43.935  36.089   6.153
 9290POPC   GL254962  43.778  36.237   6.153
 9290POPC   C1A54963  43.903  36.096   6.453
 9290POPC   D2A54964  43.862  36.113   6.753
 9290POPC   C3A54965  43.903  36.098   7.053
 9290POPC   C4A54966  43.879  36.151   7.353
 9290POPC   C1B54967  43.713  36.217   6.453
 9290POPC   C2B54968  43.662  36.299   6.753
 9290POPC   C3B54969  43.640  36.233   7.053
 9290POPC   C4B54970  43.655  36.284   7.353
 9291POPC   NC354971  13.587  34.541   5.553
 9291POPC   PO454972  13.665  34.538   5.853
 9291POPC   GL154973  13.593  34.562   6.153
 9291POPC   GL254974  13.481  34.620   6.153
 9291POPC   C1A54975  13.603  34.532   6.453
 9291POPC   D2A54976  13.651  34.620   6.753
 9291POPC   C3A54977  13.602  34.556   7.053
 9291POPC   C4A54978  13.610  34.599   7.353
 9291POPC   C1B54979  13.430  34.703   6.453
 9291POPC   C2B54980  13.461  34.782   6.753
 9291POPC   C3B54981  13.448  34.756   7.053
 9291POPC   C4B54982  13.477  34.734   7.353
 9292POPC   NC354983  13.662  14.448   5.553
 9292POPC   PO454984  13.607  14.397   5.853
 9292POPC   GL154985  13.668  14.379   6.153
 9292POPC   GL254986  13.707  14.475   6.153
 9292POPC   C1A54987  13.642  14.434   6.453
 9292POPC   D2A54988  13.643  14.399   6.753
 9292POPC   C3A54989  13.596  14.368   7.053
 9292POPC   C4A54990  13.584  14.431   7.353
 9292POPC   C1B54991  13.873  14.514   6.453
 9292POPC   C2B54992  13.842  14.521   6.753
 9292POPC   C3B54993  13.830  14.490   7.053
 9292POPC   C4B54994  13.895  14.512   7.353
 9293POPC   NC354995   9.718   7.405   5.553
 9293POPC   PO454996   9.702   7.461   5.853
 9293POPC   GL154997   9.774   7.384   6.153
 9293POPC   GL254998   9.624   7.365   6.153
 9293POPC   C1A54999   9.746   7.463   6.453
 9293POPC   D2A55000   9.778   7.461   6.753
 9293POPC   C3A55001   9.774   7.396   7.053
 9293POPC   C4A55002   9.767   7.438   7.353
 9293POPC   C1B55003   9.543   7.339   6.453
 9293POPC   C2B55004   9.514   7.297   6.753
 9293POPC   C3B55005   9.553   7.290   7.053
 9293POPC   C4B55006   9.522   7.333   7.353
 9294POPC   NC355007   3.542   1.983   5.553
 9294POPC   PO455008   3.533   1.992   5.853
 9294POPC   GL155009   3.589   2.006   6.153
 9294POPC   GL255010   3.670   2.015   6.153
 9294POPC   C1A55011   3.500   1.963   6.453
 9294POPC   D2A55012   3.503   1.974   6.753
 9294POPC   C3A55013   3.519   1.977   7.053
 9294POPC   C4A55014   3.495   1.956   7.353
 9294POPC   C1B55015   3.749   2.080   6.453
 9294POPC   C2B55016   3.794   2.026   6.753
 9294POPC   C3B55017   3.787   2.104   7.053
 9294POPC   C4B55018   3.767   2.050   7.353
 9295POPC   NC355019  19.055   8.174   5.553
 9295POPC   PO455020  19.011   8.219   5.853
 9295POPC   GL155021  19.073   8.219   6.153
 9295POPC   GL255022  19.045   8.080   6.153
 9295POPC   C1A55023  19.064   8.164   6.453
 9295POPC   D2A55024  19.031   8.205   6.753
 9295POPC   C3A55025  19.011   8.196   7.053
 9295POPC   C4A55026  19.033   8.235   7.353
 9295POPC   C1B55027  19.136   7.934   6.453
 9295POPC   C2B55028  19.143   8.004   6.753
 9295POPC   C3B55029  19.111   7.914   7.053
 9295POPC   C4B55030  19.113   7.925   7.353
 9296POPC   NC355031   5.903   5.823   5.553
 9296POPC   PO455032   5.851   5.856   5.853
 9296POPC   GL155033   5.867   5.857   6.153
 9296POPC   GL255034   5.909   5.956   6.153
 9296POPC   C1A55035   5.872   5.867   6.453
 9296POPC   D2A55036   5.870   5.837   6.753
 9296POPC   C3A55037   5.871   5.895   7.053
 9296POPC   C4A55038   5.843   5.913   7.353
 9296POPC   C1B55039   5.943   6.097   6.453
 9296POPC   C2B55040   6.042   6.110   6.753
 9296POPC   C3B55041   5.987   6.129   7.053
 9296POPC   C4B55042   5.978   6.057   7.353
 9297POPC   NC355043  42.362  29.135   5.553
 9297POPC   PO455044  42.286  29.121   5.853
 9297POPC   GL155045  42.379  29.110   6.153
 9297POPC   GL255046  42.470  29.202   6.153
 9297POPC   C1A55047  42.357  29.165   6.453
 9297POPC   D2A55048  42.319  29.132   6.753
 9297POPC   C3A55049  42.285  29.126   7.053
 9297POPC   C4A55050  42.305  29.131   7.353
 9297POPC   C1B55051  42.629  29.195   6.453
 9297POPC   C2B55052  42.565  29.184   6.753
 9297POPC   C3B55053  42.586  29.183   7.053
 9297POPC   C4B55054  42.618  29.129   7.353
 9298POPC   NC355055  24.483   7.432   5.553
 9298POPC   PO455056  24.441   7.377   5.853
 9298POPC   GL155057  24.451   7.446   6.153
 9298POPC   GL255058  24.539   7.324   6.153
 9298POPC   C1A55059  24.453   7.439   6.453
 9298POPC   D2A55060  24.496   7.413   6.753
 9298POPC   C3A55061  24.501   7.431   7.053
 9298POPC   C4A55062  24.453   7.387   7.353
 9298POPC   C1B55063  24.468   7.210   6.453
 9298POPC   C2B55064  24.456   7.199   6.753
 9298POPC   C3B55065  24.487   7.123   7.053
 9298POPC   C4B55066  24.481   7.199   7.353
 9299POPC   NC355067  25.314   2.030   5.553
 9299POPC   PO455068  25.221   2.018   5.853
 9299POPC   GL155069  25.314   2.025   6.153
 9299POPC   GL255070  25.256   2.083   6.153
 9299POPC   C1A55071  25.277   2.034   6.453
 9299POPC   D2A55072  25.229   1.941   6.753
 9299POPC   C3A55073  25.312   2.007   7.053
 9299POPC   C4A55074  25.282   1.997   7.353
 9299POPC   C1B55075  25.367   2.260   6.453
 9299POPC   C2B55076  25.318   2.228   6.753
 9299POPC   C3B55077  25.278   2.245   7.053
 9299POPC   C4B55078  25.295   2.188   7.353
 9300POPC   NC355079  34.584  13.599   5.553
 9300POPC   PO455080  34.547  13.639   5.853
 9300POPC   GL155081  34.590  13.630   6.153
 9300POPC   GL255082  34.456  13.729   6.153
 9300POPC   C1A55083  34.596  13.624   6.453
 9300POPC   D2A55084  34.596  13.676   6.753
 9300POPC   C3A55085  34.620  13.660   7.053
 9300POPC   C4A55086  34.619  13.600   7.353
 9300POPC   C1B55087  34.379  13.824   6.453
 9300POPC   C2B55088  34.366  13.844   6.753
 9300POPC   C3B55089  34.390  13.821   7.053
 9300POPC   C4B55090  34.374  13.772   7.353
 9301POPC   NC355091  28.395  43.092   5.553
 9301POPC   PO455092  28.364  43.060   5.853
 9301POPC   GL155093  28.418  43.066   6.153
 9301POPC   GL255094  28.511  43.118   6.153
 9301POPC   C1A55095  28.409  43.150   6.453
 9301POPC   D2A55096  28.355  43.070   6.753
 9301POPC   C3A55097  28.395  43.116   7.053
 9301POPC   C4A55098  28.417  43.091   7.353
 9301POPC   C1B55099  28.595  43.200   6.453
 9301POPC   C2B55100  28.618  43.217   6.753
 9301POPC   C3B55101  28.605  43.202   7.053
 9301POPC   C4B55102  28.606  43.231   7.353
 9302POPC   NC355103  25.248  15.221   5.553
 9302POPC   PO455104  25.268  15.179   5.853
 9302POPC   GL155105  25.253  15.183   6.153
 9302POPC   GL255106  25.106  15.241   6.153
 9302POPC   C1A55107  25.264  15.223   6.453
 9302POPC   D2A55108  25.240  15.219   6.753
 9302POPC   C3A55109  25.227  15.218   7.053
 9302POPC   C4A55110  25.305  15.181   7.353
 9302POPC   C1B55111  25.023  15.244   6.453
 9302POPC   C2B55112  25.020  15.277   6.753
 9302POPC   C3B55113  25.006  15.305   7.053
 9302POPC   C4B55114  25.062  15.314   7.353
 9303POPC   NC355115  22.926  31.514   5.553
 9303POPC   PO455116  22.927  31.495   5.853
 9303POPC   GL155117  22.973  31.465   6.153
 9303POPC   GL255118  22.938  31.315   6.153
 9303POPC   C1A55119  22.958  31.434   6.453
 9303POPC   D2A55120  22.925  31.486   6.753
 9303POPC   C3A55121  22.983  31.475   7.053
 9303POPC   C4A55122  22.933  31.513   7.353
 9303POPC   C1B55123  22.893  31.177   6.453
 9303POPC   C2B55124  22.935  31.230   6.753
 9303POPC   C3B55125  22.968  31.228   7.053
 9303POPC   C4B55126  22.948  31.183   7.353
 9304POPC   NC355127  15.157  21.405   5.553
 9304POPC   PO455128  15.171  21.347   5.853
 9304POPC   GL155129  15.198  21.367   6.153
 9304POPC   GL255130  15.256  21.428   6.153
 9304POPC   C1A55131  15.186  21.431   6.453
 9304POPC   D2A55132  15.221  21.370   6.753
 9304POPC   C3A55133  15.227  21.428   7.053
 9304POPC   C4A55134  15.133  21.435   7.353
 9304POPC   C1B55135  15.351  21.518   6.453
 9304POPC   C2B55136  15.319  21.608   6.753
 9304POPC   C3B55137  15.391  21.526   7.053
 9304POPC   C4B55138  15.399  21.517   7.353
 9305POPC   NC355139  29.909  14.437   5.553
 9305POPC   PO455140  29.880  14.388   5.853
 9305POPC   GL155141  29.931  14.452   6.153
 9305POPC   GL255142  29.997  14.464   6.153
 9305POPC   C1A55143  29.948  14.403   6.453
 9305POPC   D2A55144  29.879  14.411   6.753
 9305POPC   C3A55145  29.962  14.381   7.053
 9305POPC   C4A55146  29.926  14.421   7.353
 9305POPC   C1B55147  30.138  14.555   6.453
 9305POPC   C2B55148  30.105  14.554   6.753
 9305POPC   C3B55149  30.146  14.574   7.053
 9305POPC   C4B55150  30.086  14.568   7.353
 9306POPC   NC355151  14.387   5.854   5.553
 9306POPC   PO455152  14.447   5.916   5.853
 9306POPC   GL155153  14.443   5.850   6.153
 9306POPC   GL255154  14.502   5.987   6.153
 9306POPC   C1A55155  14.433   5.864   6.453
 9306POPC   D2A55156  14.371   5.896   6.753
 9306POPC   C3A55157  14.450   5.888   7.053
 9306POPC   C4A55158  14.453   5.866   7.353
 9306POPC   C1B55159  14.614   5.979   6.453
 9306POPC   C2B55160  14.577   6.021   6.753
 9306POPC   C3B55161  14.571   6.005   7.053
 9306POPC   C4B55162  14.620   6.016   7.353
 9307POPC   NC355163  30.722  36.901   5.553
 9307POPC   PO455164  30.673  36.949   5.853
 9307POPC   GL155165  30.664  36.938   6.153
 9307POPC   GL255166  30.813  36.937   6.153
 9307POPC   C1A55167  30.729  36.915   6.453
 9307POPC   D2A55168  30.699  36.902   6.753
 9307POPC   C3A55169  30.735  36.863   7.053
 9307POPC   C4A55170  30.676  36.893   7.353
 9307POPC   C1B55171  30.981  37.019   6.453
 9307POPC   C2B55172  30.893  36.966   6.753
 9307POPC   C3B55173  30.915  36.938   7.053
 9307POPC   C4B55174  30.940  36.946   7.353
 9308POPC   NC355175  41.553  30.656   5.553
 9308POPC   PO455176  41.550  30.727   5.853
 9308POPC   GL155177  41.596  30.717   6.153
 9308POPC   GL255178  41.399  30.605   6.153
 9308POPC   C1A55179  41.548  30.734   6.453
 9308POPC   D2A55180  41.542  30.685   6.753
 9308POPC   C3A55181  41.540  30.699   7.053
 9308POPC   C4A55182  41.555  30.716   7.353
 9308POPC   C1B55183  41.304  30.612   6.453
 9308POPC   C2B55184  41.295  30.614   6.753
 9308POPC   C3B55185  41.358  30.598   7.053
 9308POPC   C4B55186  41.288  30.575   7.353
 9309POPC   NC355187  38.407  40.040   5.553
 9309POPC   PO455188  38.432  40.029   5.853
 9309POPC   GL155189  38.413  39.966   6.153
 9309POPC   GL255190  38.611  40.098   6.153
 9309POPC   C1A55191  38.471  40.022   6.453
 9309POPC   D2A55192  38.480  40.013   6.753
 9309POPC   C3A55193  38.445  40.000   7.053
 9309POPC   C4A55194  38.477  40.024   7.353
 9309POPC   C1B55195  38.673  40.146   6.453
 9309POPC   C2B55196  38.639  40.112   6.753
 9309POPC   C3B55197  38.630  40.156   7.053
 9309POPC   C4B55198  38.645  40.078   7.353
 9310POPC   NC355199   0.410  26.036   5.553
 9310POPC   PO455200   0.396  26.009   5.853
 9310POPC   GL155201   0.414  26.057   6.153
 9310POPC   GL255202   0.403  26.160   6.153
 9310POPC   C1A55203   0.487  26.069   6.453
 9310POPC   D2A55204   0.466  26.014   6.753
 9310POPC   C3A55205   0.410  26.042   7.053
 9310POPC   C4A55206   0.422  26.015   7.353
 9310POPC   C1B55207   0.351  26.333   6.453
 9310POPC   C2B55208   0.377  26.267   6.753
 9310POPC   C3B55209   0.351  26.290   7.053
 9310POPC   C4B55210   0.427  26.258   7.353
 9311POPC   NC355211  12.063  28.344   5.553
 9311POPC   PO455212  12.092  28.343   5.853
 9311POPC   GL155213  12.044  28.333   6.153
 9311POPC   GL255214  11.971  28.466   6.153
 9311POPC   C1A55215  12.058  28.408   6.453
 9311POPC   D2A55216  12.104  28.362   6.753
 9311POPC   C3A55217  12.029  28.383   7.053
 9311POPC   C4A55218  12.098  28.400   7.353
 9311POPC   C1B55219  11.917  28.489   6.453
 9311POPC   C2B55220  11.853  28.559   6.753
 9311POPC   C3B55221  11.842  28.509   7.053
 9311POPC   C4B55222  11.903  28.559   7.353
 9312POPC   NC355223  25.307   3.510   5.553
 9312POPC   PO455224  25.244   3.504   5.853
 9312POPC   GL155225  25.312   3.581   6.153
 9312POPC   GL255226  25.421   3.491   6.153
 9312POPC   C1A55227  25.251   3.526   6.453
 9312POPC   D2A55228  25.300   3.537   6.753
 9312POPC   C3A55229  25.286   3.576   7.053
 9312POPC   C4A55230  25.303   3.589   7.353
 9312POPC   C1B55231  25.461   3.390   6.453
 9312POPC   C2B55232  25.505   3.426   6.753
 9312POPC   C3B55233  25.506   3.395   7.053
 9312POPC   C4B55234  25.490   3.447   7.353
 9313POPC   NC355235  11.275   1.998   5.553
 9313POPC   PO455236  11.276   1.970   5.853
 9313POPC   GL155237  11.299   1.997   6.153
 9313POPC   GL255238  11.322   1.908   6.153
 9313POPC   C1A55239  11.295   1.955   6.453
 9313POPC   D2A55240  11.334   2.011   6.753
 9313POPC   C3A55241  11.309   1.959   7.053
 9313POPC   C4A55242  11.332   2.036   7.353
 9313POPC   C1B55243  11.449   1.730   6.453
 9313POPC   C2B55244  11.408   1.759   6.753
 9313POPC   C3B55245  11.435   1.780   7.053
 9313POPC   C4B55246  11.463   1.806   7.353
 9314POPC   NC355247  38.424  32.237   5.553
 9314POPC   PO455248  38.425  32.205   5.853
 9314POPC   GL155249  38.464  32.231   6.153
 9314POPC   GL255250  38.318  32.269   6.153
 9314POPC   C1A55251  38.476  32.260   6.453
 9314POPC   D2A55252  38.493  32.277   6.753
 9314POPC   C3A55253  38.498  32.231   7.053
 9314POPC   C4A55254  38.460  32.248   7.353
 9314POPC   C1B55255  38.164  32.189   6.453
 9314POPC   C2B55256  38.180  32.258   6.753
 9314POPC   C3B55257  38.191  32.205   7.053
 9314POPC   C4B55258  38.215  32.239   7.353
 9315POPC   NC355259  41.565  31.495   5.553
 9315POPC   PO455260  41.526  31.484   5.853
 9315POPC   GL155261  41.538  31.467   6.153
 9315POPC   GL255262  41.613  31.439   6.153
 9315POPC   C1A55263  41.571  31.438   6.453
 9315POPC   D2A55264  41.571  31.496   6.753
 9315POPC   C3A55265  41.573  31.493   7.053
 9315POPC   C4A55266  41.585  31.428   7.353
 9315POPC   C1B55267  41.808  31.282   6.453
 9315POPC   C2B55268  41.804  31.290   6.753
 9315POPC   C3B55269  41.755  31.378   7.053
 9315POPC   C4B55270  41.789  31.362   7.353
 9316POPC   NC355271  36.131   2.717   5.553
 9316POPC   PO455272  36.139   2.812   5.853
 9316POPC   GL155273  36.170   2.754   6.153
 9316POPC   GL255274  36.060   2.886   6.153
 9316POPC   C1A55275  36.119   2.733   6.453
 9316POPC   D2A55276  36.099   2.780   6.753
 9316POPC   C3A55277  36.162   2.792   7.053
 9316POPC   C4A55278  36.079   2.751   7.353
 9316POPC   C1B55279  35.912   2.900   6.453
 9316POPC   C2B55280  35.954   2.927   6.753
 9316POPC   C3B55281  35.891   2.954   7.053
 9316POPC   C4B55282  35.961   2.959   7.353
 9317POPC   NC355283  27.591  11.266   5.553
 9317POPC   PO455284  27.613  11.315   5.853
 9317POPC   GL155285  27.606  11.321   6.153
 9317POPC   GL255286  27.482  11.353   6.153
 9317POPC   C1A55287  27.639  11.307   6.453
 9317POPC   D2A55288  27.571  11.284   6.753
 9317POPC   C3A55289  27.602  11.345   7.053
 9317POPC   C4A55290  27.613  11.301   7.353
 9317POPC   C1B55291  27.424  11.544   6.453
 9317POPC   C2B55292  27.400  11.458   6.753
 9317POPC   C3B55293  27.440  11.472   7.053
 9317POPC   C4B55294  27.437  11.447   7.353
 9318POPC   NC355295  37.694   0.426   5.553
 9318POPC   PO455296  37.662   0.484   5.853
 9318POPC   GL155297  37.668   0.474   6.153
 9318POPC   GL255298  37.601   0.480   6.153
 9318POPC   C1A55299  37.712   0.467   6.453
 9318POPC   D2A55300  37.664   0.397   6.753
 9318POPC   C3A55301  37.691   0.415   7.053
 9318POPC   C4A55302  37.632   0.407   7.353
 9318POPC   C1B55303  37.430   0.426   6.453
 9318POPC   C2B55304  37.404   0.487   6.753
 9318POPC   C3B55305  37.391   0.486   7.053
 9318POPC   C4B55306  37.409   0.428   7.353
 9319POPC   NC355307  24.442  29.114   5.553
 9319POPC   PO455308  24.469  29.177   5.853
 9319POPC   GL155309  24.448  29.176   6.153
 9319POPC   GL255310  24.438  29.272   6.153
 9319POPC   C1A55311  24.493  29.177   6.453
 9319POPC   D2A55312  24.504  29.105   6.753
 9319POPC   C3A55313  24.490  29.122   7.053
 9319POPC   C4A55314  24.534  29.185   7.353
 9319POPC   C1B55315  24.396  29.418   6.453
 9319POPC   C2B55316  24.387  29.379   6.753
 9319POPC   C3B55317  24.461  29.366   7.053
 9319POPC   C4B55318  24.390  29.407   7.353
 9320POPC   NC355319  43.908   4.311   5.553
 9320POPC   PO455320  43.916   4.366   5.853
 9320POPC   GL155321  43.927   4.268   6.153
 9320POPC   GL255322  43.787   4.349   6.153
 9320POPC   C1A55323  43.842   4.346   6.453
 9320POPC   D2A55324  43.897   4.292   6.753
 9320POPC   C3A55325  43.875   4.269   7.053
 9320POPC   C4A55326  43.841   4.281   7.353
 9320POPC   C1B55327  43.658   4.457   6.453
 9320POPC   C2B55328  43.621   4.447   6.753
 9320POPC   C3B55329  43.658   4.439   7.053
 9320POPC   C4B55330  43.653   4.481   7.353
 9321POPC   NC355331   8.954  43.067   5.553
 9321POPC   PO455332   8.984  43.112   5.853
 9321POPC   GL155333   8.996  43.070   6.153
 9321POPC   GL255334   8.920  42.971   6.153
 9321POPC   C1A55335   8.958  43.089   6.453
 9321POPC   D2A55336   8.967  43.079   6.753
 9321POPC   C3A55337   8.930  43.087   7.053
 9321POPC   C4A55338   9.012  43.094   7.353
 9321POPC   C1B55339   8.846  42.857   6.453
 9321POPC   C2B55340   8.864  42.864   6.753
 9321POPC   C3B55341   8.835  42.898   7.053
 9321POPC   C4B55342   8.808  42.893   7.353
 9322POPC   NC355343  36.898   5.852   5.553
 9322POPC   PO455344  36.898   5.870   5.853
 9322POPC   GL155345  36.885   5.905   6.153
 9322POPC   GL255346  36.938   5.729   6.153
 9322POPC   C1A55347  36.857   5.905   6.453
 9322POPC   D2A55348  36.932   5.861   6.753
 9322POPC   C3A55349  36.919   5.866   7.053
 9322POPC   C4A55350  36.932   5.862   7.353
 9322POPC   C1B55351  36.994   5.592   6.453
 9322POPC   C2B55352  36.991   5.638   6.753
 9322POPC   C3B55353  36.954   5.659   7.053
 9322POPC   C4B55354  36.982   5.627   7.353
 9323POPC   NC355355  34.593  34.566   5.553
 9323POPC   PO455356  34.557  34.598   5.853
 9323POPC   GL155357  34.578  34.581   6.153
 9323POPC   GL255358  34.533  34.417   6.153
 9323POPC   C1A55359  34.613  34.611   6.453
 9323POPC   D2A55360  34.620  34.552   6.753
 9323POPC   C3A55361  34.622  34.548   7.053
 9323POPC   C4A55362  34.618  34.587   7.353
 9323POPC   C1B55363  34.521  34.287   6.453
 9323POPC   C2B55364  34.540  34.294   6.753
 9323POPC   C3B55365  34.555  34.284   7.053
 9323POPC   C4B55366  34.552  34.305   7.353
 9324POPC   NC355367  31.481  31.437   5.553
 9324POPC   PO455368  31.465  31.442   5.853
 9324POPC   GL155369  31.517  31.491   6.153
 9324POPC   GL255370  31.589  31.415   6.153
 9324POPC   C1A55371  31.451  31.488   6.453
 9324POPC   D2A55372  31.521  31.438   6.753
 9324POPC   C3A55373  31.484  31.491   7.053
 9324POPC   C4A55374  31.469  31.451   7.353
 9324POPC   C1B55375  31.642  31.265   6.453
 9324POPC   C2B55376  31.666  31.283   6.753
 9324POPC   C3B55377  31.646  31.344   7.053
 9324POPC   C4B55378  31.705  31.350   7.353
 9325POPC   NC355379  19.876  13.596   5.553
 9325POPC   PO455380  19.859  13.632   5.853
 9325POPC   GL155381  19.837  13.601   6.153
 9325POPC   GL255382  19.948  13.666   6.153
 9325POPC   C1A55383  19.847  13.641   6.453
 9325POPC   D2A55384  19.845  13.580   6.753
 9325POPC   C3A55385  19.860  13.640   7.053
 9325POPC   C4A55386  19.831  13.671   7.353
 9325POPC   C1B55387  20.032  13.782   6.453
 9325POPC   C2B55388  20.018  13.773   6.753
 9325POPC   C3B55389  20.036  13.721   7.053
 9325POPC   C4B55390  20.030  13.766   7.353
 9326POPC   NC355391  43.923   5.124   5.553
 9326POPC   PO455392  43.857   5.099   5.853
 9326POPC   GL155393  43.837   5.093   6.153
 9326POPC   GL255394  43.796   5.024   6.153
 9326POPC   C1A55395  43.869   5.074   6.453
 9326POPC   D2A55396  43.934   5.070   6.753
 9326POPC   C3A55397  43.922   5.125   7.053
 9326POPC   C4A55398  43.893   5.081   7.353
 9326POPC   C1B55399  43.823   4.889   6.453
 9326POPC   C2B55400  43.772   4.896   6.753
 9326POPC   C3B55401  43.813   4.876   7.053
 9326POPC   C4B55402  43.804   4.896   7.353
 9327POPC   NC355403   8.244   1.175   5.553
 9327POPC   PO455404   8.228   1.210   5.853
 9327POPC   GL155405   8.147   1.229   6.153
 9327POPC   GL255406   8.186   1.045   6.153
 9327POPC   C1A55407   8.159   1.169   6.453
 9327POPC   D2A55408   8.204   1.168   6.753
 9327POPC   C3A55409   8.149   1.183   7.053
 9327POPC   C4A55410   8.156   1.202   7.353
 9327POPC   C1B55411   8.232   0.983   6.453
 9327POPC   C2B55412   8.212   0.988   6.753
 9327POPC   C3B55413   8.211   0.937   7.053
 9327POPC   C4B55414   8.203   0.962   7.353
 9328POPC   NC355415  22.952  13.590   5.553
 9328POPC   PO455416  22.970  13.596   5.853
 9328POPC   GL155417  22.983  13.623   6.153
 9328POPC   GL255418  22.848  13.686   6.153
 9328POPC   C1A55419  22.982  13.602   6.453
 9328POPC   D2A55420  22.915  13.578   6.753
 9328POPC   C3A55421  22.899  13.650   7.053
 9328POPC   C4A55422  22.930  13.594   7.353
 9328POPC   C1B55423  22.855  13.854   6.453
 9328POPC   C2B55424  22.825  13.869   6.753
 9328POPC   C3B55425  22.770  13.885   7.053
 9328POPC   C4B55426  22.859  13.893   7.353
 9329POPC   NC355427  39.200  29.968   5.553
 9329POPC   PO455428  39.243  29.965   5.853
 9329POPC   GL155429  39.224  29.956   6.153
 9329POPC   GL255430  39.150  29.895   6.153
 9329POPC   C1A55431  39.240  29.934   6.453
 9329POPC   D2A55432  39.185  29.880   6.753
 9329POPC   C3A55433  39.203  29.901   7.053
 9329POPC   C4A55434  39.228  29.944   7.353
 9329POPC   C1B55435  38.933  29.940   6.453
 9329POPC   C2B55436  38.933  29.912   6.753
 9329POPC   C3B55437  39.016  29.923   7.053
 9329POPC   C4B55438  38.965  29.905   7.353
 9330POPC   NC355439  29.877  30.684   5.553
 9330POPC   PO455440  29.901  30.660   5.853
 9330POPC   GL155441  29.892  30.720   6.153
 9330POPC   GL255442  30.015  30.678   6.153
 9330POPC   C1A55443  29.962  30.672   6.453
 9330POPC   D2A55444  29.935  30.741   6.753
 9330POPC   C3A55445  29.906  30.715   7.053
 9330POPC   C4A55446  29.922  30.694   7.353
 9330POPC   C1B55447  30.170  30.727   6.453
 9330POPC   C2B55448  30.204  30.691   6.753
 9330POPC   C3B55449  30.197  30.752   7.053
 9330POPC   C4B55450  30.161  30.779   7.353
 9331POPC   NC355451  22.962  14.362   5.553
 9331POPC   PO455452  22.988  14.367   5.853
 9331POPC   GL155453  22.889  14.357   6.153
 9331POPC   GL255454  22.903  14.328   6.153
 9331POPC   C1A55455  22.922  14.385   6.453
 9331POPC   D2A55456  22.987  14.393   6.753
 9331POPC   C3A55457  22.920  14.380   7.053
 9331POPC   C4A55458  22.972  14.405   7.353
 9331POPC   C1B55459  22.855  14.139   6.453
 9331POPC   C2B55460  22.853  14.122   6.753
 9331POPC   C3B55461  22.885  14.143   7.053
 9331POPC   C4B55462  22.875  14.154   7.353
 9332POPC   NC355463  12.863  36.134   5.553
 9332POPC   PO455464  12.866  36.146   5.853
 9332POPC   GL155465  12.845  36.087   6.153
 9332POPC   GL255466  12.900  35.998   6.153
 9332POPC   C1A55467  12.836  36.173   6.453
 9332POPC   D2A55468  12.897  36.086   6.753
 9332POPC   C3A55469  12.875  36.164   7.053
 9332POPC   C4A55470  12.829  36.112   7.353
 9332POPC   C1B55471  12.927  35.891   6.453
 9332POPC   C2B55472  12.900  35.902   6.753
 9332POPC   C3B55473  12.891  35.910   7.053
 9332POPC   C4B55474  12.983  35.868   7.353
 9333POPC   NC355475   6.659  22.904   5.553
 9333POPC   PO455476   6.659  22.961   5.853
 9333POPC   GL155477   6.620  22.918   6.153
 9333POPC   GL255478   6.658  22.834   6.153
 9333POPC   C1A55479   6.629  22.924   6.453
 9333POPC   D2A55480   6.647  22.958   6.753
 9333POPC   C3A55481   6.616  22.905   7.053
 9333POPC   C4A55482   6.663  22.964   7.353
 9333POPC   C1B55483   6.555  22.679   6.453
 9333POPC   C2B55484   6.577  22.646   6.753
 9333POPC   C3B55485   6.616  22.709   7.053
 9333POPC   C4B55486   6.606  22.697   7.353
 9334POPC   NC355487  32.229  32.205   5.553
 9334POPC   PO455488  32.287  32.296   5.853
 9334POPC   GL155489  32.233  32.213   6.153
 9334POPC   GL255490  32.315  32.146   6.153
 9334POPC   C1A55491  32.206  32.224   6.453
 9334POPC   D2A55492  32.274  32.215   6.753
 9334POPC   C3A55493  32.270  32.210   7.053
 9334POPC   C4A55494  32.257  32.264   7.353
 9334POPC   C1B55495  32.412  32.112   6.453
 9334POPC   C2B55496  32.442  32.129   6.753
 9334POPC   C3B55497  32.420  32.050   7.053
 9334POPC   C4B55498  32.424  32.091   7.353
 9335POPC   NC355499  40.766  31.444   5.553
 9335POPC   PO455500  40.737  31.517   5.853
 9335POPC   GL155501  40.733  31.516   6.153
 9335POPC   GL255502  40.874  31.557   6.153
 9335POPC   C1A55503  40.746  31.448   6.453
 9335POPC   D2A55504  40.752  31.466   6.753
 9335POPC   C3A55505  40.808  31.479   7.053
 9335POPC   C4A55506  40.808  31.445   7.353
 9335POPC   C1B55507  40.972  31.620   6.453
 9335POPC   C2B55508  41.007  31.684   6.753
 9335POPC   C3B55509  40.978  31.682   7.053
 9335POPC   C4B55510  40.929  31.697   7.353
 9336POPC   NC355511  14.374   8.958   5.553
 9336POPC   PO455512  14.403   8.982   5.853
 9336POPC   GL155513  14.376   9.012   6.153
 9336POPC   GL255514  14.249   8.928   6.153
 9336POPC   C1A55515  14.443   8.968   6.453
 9336POPC   D2A55516  14.408   8.977   6.753
 9336POPC   C3A55517  14.377   8.955   7.053
 9336POPC   C4A55518  14.414   9.006   7.353
 9336POPC   C1B55519  14.116   8.941   6.453
 9336POPC   C2B55520  14.122   8.975   6.753
 9336POPC   C3B55521  14.173   8.997   7.053
 9336POPC   C4B55522  14.170   8.921   7.353
 9337POPC   NC355523  41.579  26.046   5.553
 9337POPC   PO455524  41.554  26.015   5.853
 9337POPC   GL155525  41.519  26.028   6.153
 9337POPC   GL255526  41.692  25.993   6.153
 9337POPC   C1A55527  41.591  26.044   6.453
 9337POPC   D2A55528  41.526  26.042   6.753
 9337POPC   C3A55529  41.585  26.038   7.053
 9337POPC   C4A55530  41.522  26.062   7.353
 9337POPC   C1B55531  41.837  26.054   6.453
 9337POPC   C2B55532  41.762  26.056   6.753
 9337POPC   C3B55533  41.783  26.017   7.053
 9337POPC   C4B55534  41.760  25.980   7.353
 9338POPC   NC355535  35.386  36.169   5.553
 9338POPC   PO455536  35.307  36.082   5.853
 9338POPC   GL155537  35.351  36.117   6.153
 9338POPC   GL255538  35.421  36.269   6.153
 9338POPC   C1A55539  35.344  36.098   6.453
 9338POPC   D2A55540  35.311  36.089   6.753
 9338POPC   C3A55541  35.336  36.096   7.053
 9338POPC   C4A55542  35.361  36.136   7.353
 9338POPC   C1B55543  35.414  36.350   6.453
 9338POPC   C2B55544  35.430  36.332   6.753
 9338POPC   C3B55545  35.454  36.335   7.053
 9338POPC   C4B55546  35.400  36.328   7.353
 9339POPC   NC355547   5.884  25.312   5.553
 9339POPC   PO455548   5.900  25.232   5.853
 9339POPC   GL155549   5.851  25.242   6.153
 9339POPC   GL255550   5.922  25.204   6.153
 9339POPC   C1A55551   5.845  25.222   6.453
 9339POPC   D2A55552   5.886  25.271   6.753
 9339POPC   C3A55553   5.878  25.313   7.053
 9339POPC   C4A55554   5.897  25.266   7.353
 9339POPC   C1B55555   5.999  25.069   6.453
 9339POPC   C2B55556   6.059  25.045   6.753
 9339POPC   C3B55557   6.059  25.034   7.053
 9339POPC   C4B55558   5.990  25.037   7.353
 9340POPC   NC355559  31.445  33.755   5.553
 9340POPC   PO455560  31.469  33.773   5.853
 9340POPC   GL155561  31.458  33.814   6.153
 9340POPC   GL255562  31.639  33.796   6.153
 9340POPC   C1A55563  31.485  33.813   6.453
 9340POPC   D2A55564  31.503  33.803   6.753
 9340POPC   C3A55565  31.449  33.786   7.053
 9340POPC   C4A55566  31.444  33.801   7.353
 9340POPC   C1B55567  31.682  33.744   6.453
 9340POPC   C2B55568  31.723  33.762   6.753
 9340POPC   C3B55569  31.695  33.753   7.053
 9340POPC   C4B55570  31.689  33.792   7.353
 9341POPC   NC355571   9.712  24.460   5.553
 9341POPC   PO455572   9.746  24.529   5.853
 9341POPC   GL155573   9.762  24.509   6.153
 9341POPC   GL255574   9.774  24.616   6.153
 9341POPC   C1A55575   9.704  24.500   6.453
 9341POPC   D2A55576   9.748  24.511   6.753
 9341POPC   C3A55577   9.774  24.510   7.053
 9341POPC   C4A55578   9.721  24.464   7.353
 9341POPC   C1B55579   9.702  24.688   6.453
 9341POPC   C2B55580   9.692  24.702   6.753
 9341POPC   C3B55581   9.665  24.764   7.053
 9341POPC   C4B55582   9.666  24.744   7.353
 9342POPC   NC355583  38.436  22.131   5.553
 9342POPC   PO455584  38.492  22.204   5.853
 9342POPC   GL155585  38.428  22.154   6.153
 9342POPC   GL255586  38.463  22.304   6.153
 9342POPC   C1A55587  38.426  22.122   6.453
 9342POPC   D2A55588  38.467  22.175   6.753
 9342POPC   C3A55589  38.418  22.162   7.053
 9342POPC   C4A55590  38.412  22.204   7.353
 9342POPC   C1B55591  38.432  22.411   6.453
 9342POPC   C2B55592  38.499  22.427   6.753
 9342POPC   C3B55593  38.471  22.375   7.053
 9342POPC   C4B55594  38.445  22.371   7.353
 9343POPC   NC355595  32.284   1.192   5.553
 9343POPC   PO455596  32.234   1.232   5.853
 9343POPC   GL155597  32.273   1.177   6.153
 9343POPC   GL255598  32.235   1.315   6.153
 9343POPC   C1A55599  32.264   1.247   6.453
 9343POPC   D2A55600  32.229   1.237   6.753
 9343POPC   C3A55601  32.229   1.242   7.053
 9343POPC   C4A55602  32.203   1.169   7.353
 9343POPC   C1B55603  32.118   1.398   6.453
 9343POPC   C2B55604  32.102   1.413   6.753
 9343POPC   C3B55605  32.080   1.406   7.053
 9343POPC   C4B55606  32.094   1.475   7.353
 9344POPC   NC355607   2.019  37.631   5.553
 9344POPC   PO455608   2.010  37.682   5.853
 9344POPC   GL155609   2.030  37.708   6.153
 9344POPC   GL255610   1.880  37.695   6.153
 9344POPC   C1A55611   1.971  37.727   6.453
 9344POPC   D2A55612   2.037  37.707   6.753
 9344POPC   C3A55613   2.024  37.661   7.053
 9344POPC   C4A55614   1.988  37.652   7.353
 9344POPC   C1B55615   1.785  37.837   6.453
 9344POPC   C2B55616   1.808  37.801   6.753
 9344POPC   C3B55617   1.759  37.817   7.053
 9344POPC   C4B55618   1.798  37.789   7.353
 9345POPC   NC355619  11.261  40.778   5.553
 9345POPC   PO455620  11.326  40.753   5.853
 9345POPC   GL155621  11.263  40.770   6.153
 9345POPC   GL255622  11.176  40.836   6.153
 9345POPC   C1A55623  11.283  40.763   6.453
 9345POPC   D2A55624  11.306  40.782   6.753
 9345POPC   C3A55625  11.348  40.742   7.053
 9345POPC   C4A55626  11.334  40.747   7.353
 9345POPC   C1B55627  11.063  40.841   6.453
 9345POPC   C2B55628  11.051  40.789   6.753
 9345POPC   C3B55629  11.043  40.876   7.053
 9345POPC   C4B55630  11.012  40.852   7.353
 9346POPC   NC355631   0.468  44.623   5.553
 9346POPC   PO455632   0.481  44.634   5.853
 9346POPC   GL155633   0.470  44.622   6.153
 9346POPC   GL255634   0.533  44.696   6.153
 9346POPC   C1A55635   0.465  44.654   6.453
 9346POPC   D2A55636   0.411  44.708   6.753
 9346POPC   C3A55637   0.433  44.642   7.053
 9346POPC   C4A55638   0.454  44.659   7.353
 9346POPC   C1B55639   0.644  44.761   6.453
 9346POPC   C2B55640   0.627  44.845   6.753
 9346POPC   C3B55641   0.634  44.798   7.053
 9346POPC   C4B55642   0.615  44.750   7.353
 9347POPC   NC355643  22.971  34.533   5.553
 9347POPC   PO455644  22.900  34.586   5.853
 9347POPC   GL155645  22.987  34.540   6.153
 9347POPC   GL255646  22.898  34.484   6.153
 9347POPC   C1A55647  22.898  34.575   6.453
 9347POPC   D2A55648  22.972  34.538   6.753
 9347POPC   C3A55649  22.931  34.602   7.053
 9347POPC   C4A55650  22.969  34.615   7.353
 9347POPC   C1B55651  22.809  34.367   6.453
 9347POPC   C2B55652  22.751  34.410   6.753
 9347POPC   C3B55653  22.736  34.418   7.053
 9347POPC   C4B55654  22.817  34.425   7.353
 9348POPC   NC355655  23.690   5.133   5.553
 9348POPC   PO455656  23.764   5.053   5.853
 9348POPC   GL155657  23.735   5.062   6.153
 9348POPC   GL255658  23.687   4.962   6.153
 9348POPC   C1A55659  23.741   5.116   6.453
 9348POPC   D2A55660  23.700   5.105   6.753
 9348POPC   C3A55661  23.710   5.081   7.053
 9348POPC   C4A55662  23.706   5.080   7.353
 9348POPC   C1B55663  23.664   4.795   6.453
 9348POPC   C2B55664  23.700   4.888   6.753
 9348POPC   C3B55665  23.711   4.866   7.053
 9348POPC   C4B55666  23.684   4.837   7.353
 9349POPC   NC355667  31.510  23.678   5.553
 9349POPC   PO455668  31.499  23.675   5.853
 9349POPC   GL155669  31.494  23.725   6.153
 9349POPC   GL255670  31.588  23.639   6.153
 9349POPC   C1A55671  31.426  23.747   6.453
 9349POPC   D2A55672  31.441  23.725   6.753
 9349POPC   C3A55673  31.470  23.753   7.053
 9349POPC   C4A55674  31.512  23.686   7.353
 9349POPC   C1B55675  31.678  23.654   6.453
 9349POPC   C2B55676  31.649  23.629   6.753
 9349POPC   C3B55677  31.673  23.561   7.053
 9349POPC   C4B55678  31.713  23.586   7.353
 9350POPC   NC355679  12.878  11.342   5.553
 9350POPC   PO455680  12.898  11.285   5.853
 9350POPC   GL155681  12.893  11.319   6.153
 9350POPC   GL255682  12.716  11.328   6.153
 9350POPC   C1A55683  12.884  11.264   6.453
 9350POPC   D2A55684  12.823  11.284   6.753
 9350POPC   C3A55685  12.814  11.311   7.053
 9350POPC   C4A55686  12.835  11.321   7.353
 9350POPC   C1B55687  12.672  11.466   6.453
 9350POPC   C2B55688  12.619  11.413   6.753
 9350POPC   C3B55689  12.654  11.448   7.053
 9350POPC   C4B55690  12.629  11.446   7.353
 9351POPC   NC355691   3.588  27.550   5.553
 9351POPC   PO455692   3.528  27.629   5.853
 9351POPC   GL155693   3.569  27.596   6.153
 9351POPC   GL255694   3.399  27.574   6.153
 9351POPC   C1A55695   3.583  27.558   6.453
 9351POPC   D2A55696   3.579  27.596   6.753
 9351POPC   C3A55697   3.531  27.613   7.053
 9351POPC   C4A55698   3.546  27.638   7.353
 9351POPC   C1B55699   3.283  27.481   6.453
 9351POPC   C2B55700   3.336  27.479   6.753
 9351POPC   C3B55701   3.263  27.522   7.053
 9351POPC   C4B55702   3.275  27.471   7.353
 9352POPC   NC355703  39.275  33.041   5.553
 9352POPC   PO455704  39.255  33.014   5.853
 9352POPC   GL155705  39.198  33.066   6.153
 9352POPC   GL255706  39.291  33.157   6.153
 9352POPC   C1A55707  39.230  33.040   6.453
 9352POPC   D2A55708  39.244  33.025   6.753
 9352POPC   C3A55709  39.206  32.987   7.053
 9352POPC   C4A55710  39.214  33.023   7.353
 9352POPC   C1B55711  39.257  33.291   6.453
 9352POPC   C2B55712  39.302  33.269   6.753
 9352POPC   C3B55713  39.303  33.225   7.053
 9352POPC   C4B55714  39.235  33.263   7.353
 9353POPC   NC355715  22.890  41.536   5.553
 9353POPC   PO455716  22.933  41.576   5.853
 9353POPC   GL155717  22.976  41.597   6.153
 9353POPC   GL255718  22.799  41.519   6.153
 9353POPC   C1A55719  22.954  41.530   6.453
 9353POPC   D2A55720  22.936  41.518   6.753
 9353POPC   C3A55721  22.915  41.557   7.053
 9353POPC   C4A55722  22.914  41.523   7.353
 9353POPC   C1B55723  22.716  41.371   6.453
 9353POPC   C2B55724  22.748  41.388   6.753
 9353POPC   C3B55725  22.741  41.397   7.053
 9353POPC   C4B55726  22.705  41.376   7.353
 9354POPC   NC355727   3.509   9.719   5.553
 9354POPC   PO455728   3.495   9.716   5.853
 9354POPC   GL155729   3.534   9.771   6.153
 9354POPC   GL255730   3.415   9.762   6.153
 9354POPC   C1A55731   3.562   9.734   6.453
 9354POPC   D2A55732   3.586   9.740   6.753
 9354POPC   C3A55733   3.525   9.753   7.053
 9354POPC   C4A55734   3.562   9.758   7.353
 9354POPC   C1B55735   3.307   9.819   6.453
 9354POPC   C2B55736   3.323   9.831   6.753
 9354POPC   C3B55737   3.311   9.854   7.053
 9354POPC   C4B55738   3.335   9.843   7.353
 9355POPC   NC355739   5.061   5.866   5.553
 9355POPC   PO455740   5.060   5.829   5.853
 9355POPC   GL155741   5.070   5.906   6.153
 9355POPC   GL255742   4.963   5.913   6.153
 9355POPC   C1A55743   5.106   5.839   6.453
 9355POPC   D2A55744   5.111   5.820   6.753
 9355POPC   C3A55745   5.102   5.907   7.053
 9355POPC   C4A55746   5.114   5.875   7.353
 9355POPC   C1B55747   4.907   5.945   6.453
 9355POPC   C2B55748   4.892   5.969   6.753
 9355POPC   C3B55749   4.835   5.949   7.053
 9355POPC   C4B55750   4.853   5.983   7.353
 9356POPC   NC355751  44.619  21.396   5.553
 9356POPC   PO455752  44.651  21.340   5.853
 9356POPC   GL155753  44.617  21.414   6.153
 9356POPC   GL255754  44.675  21.285   6.153
 9356POPC   C1A55755  44.661  21.382   6.453
 9356POPC   D2A55756  44.706  21.365   6.753
 9356POPC   C3A55757  44.682  21.427   7.053
 9356POPC   C4A55758  44.674  21.400   7.353
 9356POPC   C1B55759  44.767  21.159   6.453
 9356POPC   C2B55760  44.747  21.157   6.753
 9356POPC   C3B55761  44.741  21.192   7.053
 9356POPC   C4B55762  44.723  21.195   7.353
 9357POPC   NC355763   7.455  16.739   5.553
 9357POPC   PO455764   7.376  16.721   5.853
 9357POPC   GL155765   7.377  16.745   6.153
 9357POPC   GL255766   7.487  16.879   6.153
 9357POPC   C1A55767   7.427  16.778   6.453
 9357POPC   D2A55768   7.443  16.692   6.753
 9357POPC   C3A55769   7.450  16.711   7.053
 9357POPC   C4A55770   7.391  16.731   7.353
 9357POPC   C1B55771   7.578  16.951   6.453
 9357POPC   C2B55772   7.564  16.981   6.753
 9357POPC   C3B55773   7.556  16.949   7.053
 9357POPC   C4B55774   7.522  16.907   7.353
 9358POPC   NC355775  39.255  26.027   5.553
 9358POPC   PO455776  39.192  26.082   5.853
 9358POPC   GL155777  39.191  26.024   6.153
 9358POPC   GL255778  39.317  26.115   6.153
 9358POPC   C1A55779  39.222  26.020   6.453
 9358POPC   D2A55780  39.216  26.010   6.753
 9358POPC   C3A55781  39.277  26.048   7.053
 9358POPC   C4A55782  39.249  26.032   7.353
 9358POPC   C1B55783  39.479  26.093   6.453
 9358POPC   C2B55784  39.450  26.140   6.753
 9358POPC   C3B55785  39.494  26.134   7.053
 9358POPC   C4B55786  39.428  26.135   7.353
 9359POPC   NC355787  21.363   5.139   5.553
 9359POPC   PO455788  21.364   5.093   5.853
 9359POPC   GL155789  21.363   5.116   6.153
 9359POPC   GL255790  21.339   5.192   6.153
 9359POPC   C1A55791  21.337   5.104   6.453
 9359POPC   D2A55792  21.379   5.058   6.753
 9359POPC   C3A55793  21.367   5.081   7.053
 9359POPC   C4A55794  21.373   5.118   7.353
 9359POPC   C1B55795  21.167   5.270   6.453
 9359POPC   C2B55796  21.188   5.276   6.753
 9359POPC   C3B55797  21.170   5.285   7.053
 9359POPC   C4B55798  21.209   5.239   7.353
 9360POPC   NC355799  19.828  42.330   5.553
 9360POPC   PO455800  19.841  42.306   5.853
 9360POPC   GL155801  19.864  42.342   6.153
 9360POPC   GL255802  19.801  42.204   6.153
 9360POPC   C1A55803  19.790  42.315   6.453
 9360POPC   D2A55804  19.843  42.292   6.753
 9360POPC   C3A55805  19.882  42.383   7.053
 9360POPC   C4A55806  19.795  42.347   7.353
 9360POPC   C1B55807  19.882  42.116   6.453
 9360POPC   C2B55808  19.796  42.108   6.753
 9360POPC   C3B55809  19.840  42.120   7.053
 9360POPC   C4B55810  19.856  42.083   7.353
 9361POPC   NC355811  25.995   8.203   5.553
 9361POPC   PO455812  26.031   8.165   5.853
 9361POPC   GL155813  26.059   8.187   6.153
 9361POPC   GL255814  25.921   8.242   6.153
 9361POPC   C1A55815  26.077   8.202   6.453
 9361POPC   D2A55816  26.050   8.242   6.753
 9361POPC   C3A55817  26.058   8.184   7.053
 9361POPC   C4A55818  26.068   8.201   7.353
 9361POPC   C1B55819  25.783   8.237   6.453
 9361POPC   C2B55820  25.840   8.215   6.753
 9361POPC   C3B55821  25.760   8.243   7.053
 9361POPC   C4B55822  25.767   8.292   7.353
 9362POPC   NC355823  22.903  23.699   5.553
 9362POPC   PO455824  22.946  23.715   5.853
 9362POPC   GL155825  22.900  23.749   6.153
 9362POPC   GL255826  22.987  23.840   6.153
 9362POPC   C1A55827  22.910  23.708   6.453
 9362POPC   D2A55828  22.921  23.720   6.753
 9362POPC   C3A55829  22.975  23.680   7.053
 9362POPC   C4A55830  22.901  23.734   7.353
 9362POPC   C1B55831  22.904  23.969   6.453
 9362POPC   C2B55832  22.977  23.991   6.753
 9362POPC   C3B55833  22.949  23.956   7.053
 9362POPC   C4B55834  22.918  23.986   7.353
 9363POPC   NC355835  40.044  13.608   5.553
 9363POPC   PO455836  39.983  13.621   5.853
 9363POPC   GL155837  39.979  13.593   6.153
 9363POPC   GL255838  40.071  13.740   6.153
 9363POPC   C1A55839  40.038  13.655   6.453
 9363POPC   D2A55840  40.008  13.594   6.753
 9363POPC   C3A55841  40.025  13.596   7.053
 9363POPC   C4A55842  40.014  13.666   7.353
 9363POPC   C1B55843  40.108  13.779   6.453
 9363POPC   C2B55844  40.196  13.850   6.753
 9363POPC   C3B55845  40.166  13.853   7.053
 9363POPC   C4B55846  40.132  13.866   7.353
 9364POPC   NC355847   4.362  43.888   5.553
 9364POPC   PO455848   4.359  43.844   5.853
 9364POPC   GL155849   4.280  43.855   6.153
 9364POPC   GL255850   4.209  43.845   6.153
 9364POPC   C1A55851   4.273  43.926   6.453
 9364POPC   D2A55852   4.354  43.896   6.753
 9364POPC   C3A55853   4.282  43.855   7.053
 9364POPC   C4A55854   4.289  43.844   7.353
 9364POPC   C1B55855   4.087  43.720   6.453
 9364POPC   C2B55856   4.094  43.712   6.753
 9364POPC   C3B55857   4.171  43.684   7.053
 9364POPC   C4B55858   4.163  43.765   7.353
 9365POPC   NC355859   5.901  11.331   5.553
 9365POPC   PO455860   5.890  11.285   5.853
 9365POPC   GL155861   5.831  11.267   6.153
 9365POPC   GL255862   5.845  11.407   6.153
 9365POPC   C1A55863   5.913  11.321   6.453
 9365POPC   D2A55864   5.860  11.322   6.753
 9365POPC   C3A55865   5.871  11.306   7.053
 9365POPC   C4A55866   5.851  11.332   7.353
 9365POPC   C1B55867   5.731  11.510   6.453
 9365POPC   C2B55868   5.740  11.525   6.753
 9365POPC   C3B55869   5.700  11.539   7.053
 9365POPC   C4B55870   5.715  11.547   7.353
 9366POPC   NC355871  16.004   7.426   5.553
 9366POPC   PO455872  15.976   7.422   5.853
 9366POPC   GL155873  15.910   7.413   6.153
 9366POPC   GL255874  15.986   7.515   6.153
 9366POPC   C1A55875  16.003   7.413   6.453
 9366POPC   D2A55876  15.930   7.461   6.753
 9366POPC   C3A55877  15.949   7.386   7.053
 9366POPC   C4A55878  15.985   7.408   7.353
 9366POPC   C1B55879  16.060   7.605   6.453
 9366POPC   C2B55880  16.059   7.682   6.753
 9366POPC   C3B55881  16.017   7.615   7.053
 9366POPC   C4B55882  16.027   7.686   7.353
 9367POPC   NC355883   4.356  41.536   5.553
 9367POPC   PO455884   4.320  41.557   5.853
 9367POPC   GL155885   4.341  41.524   6.153
 9367POPC   GL255886   4.322  41.447   6.153
 9367POPC   C1A55887   4.335  41.549   6.453
 9367POPC   D2A55888   4.282  41.589   6.753
 9367POPC   C3A55889   4.327  41.562   7.053
 9367POPC   C4A55890   4.359  41.515   7.353
 9367POPC   C1B55891   4.219  41.268   6.453
 9367POPC   C2B55892   4.255  41.336   6.753
 9367POPC   C3B55893   4.286  41.334   7.053
 9367POPC   C4B55894   4.208  41.287   7.353
 9368POPC   NC355895  13.605   0.447   5.553
 9368POPC   PO455896  13.616   0.407   5.853
 9368POPC   GL155897  13.621   0.430   6.153
 9368POPC   GL255898  13.732   0.343   6.153
 9368POPC   C1A55899  13.674   0.412   6.453
 9368POPC   D2A55900  13.633   0.471   6.753
 9368POPC   C3A55901  13.605   0.453   7.053
 9368POPC   C4A55902  13.667   0.456   7.353
 9368POPC   C1B55903  13.883   0.291   6.453
 9368POPC   C2B55904  13.898   0.348   6.753
 9368POPC   C3B55905  13.849   0.290   7.053
 9368POPC   C4B55906  13.843   0.336   7.353
 9369POPC   NC355907  23.733   2.012   5.553
 9369POPC   PO455908  23.674   1.953   5.853
 9369POPC   GL155909  23.761   1.953   6.153
 9369POPC   GL255910  23.598   1.938   6.153
 9369POPC   C1A55911  23.715   2.039   6.453
 9369POPC   D2A55912  23.681   1.947   6.753
 9369POPC   C3A55913  23.709   1.971   7.053
 9369POPC   C4A55914  23.747   1.964   7.353
 9369POPC   C1B55915  23.469   1.954   6.453
 9369POPC   C2B55916  23.487   1.963   6.753
 9369POPC   C3B55917  23.434   1.882   7.053
 9369POPC   C4B55918  23.513   1.872   7.353
 9370POPC   NC355919  22.191  19.879   5.553
 9370POPC   PO455920  22.172  19.805   5.853
 9370POPC   GL155921  22.120  19.802   6.153
 9370POPC   GL255922  22.201  19.747   6.153
 9370POPC   C1A55923  22.185  19.871   6.453
 9370POPC   D2A55924  22.113  19.801   6.753
 9370POPC   C3A55925  22.164  19.808   7.053
 9370POPC   C4A55926  22.194  19.881   7.353
 9370POPC   C1B55927  22.368  19.617   6.453
 9370POPC   C2B55928  22.303  19.613   6.753
 9370POPC   C3B55929  22.359  19.627   7.053
 9370POPC   C4B55930  22.321  19.605   7.353
 9371POPC   NC355931  37.641  10.559   5.553
 9371POPC   PO455932  37.728  10.476   5.853
 9371POPC   GL155933  37.686  10.515   6.153
 9371POPC   GL255934  37.746  10.356   6.153
 9371POPC   C1A55935  37.683  10.486   6.453
 9371POPC   D2A55936  37.680  10.570   6.753
 9371POPC   C3A55937  37.728  10.507   7.053
 9371POPC   C4A55938  37.633  10.480   7.353
 9371POPC   C1B55939  37.712  10.308   6.453
 9371POPC   C2B55940  37.681  10.306   6.753
 9371POPC   C3B55941  37.713  10.324   7.053
 9371POPC   C4B55942  37.698  10.292   7.353
 9372POPC   NC355943  23.697   1.207   5.553
 9372POPC   PO455944  23.715   1.165   5.853
 9372POPC   GL155945  23.703   1.233   6.153
 9372POPC   GL255946  23.786   1.172   6.153
 9372POPC   C1A55947  23.674   1.184   6.453
 9372POPC   D2A55948  23.739   1.256   6.753
 9372POPC   C3A55949  23.700   1.243   7.053
 9372POPC   C4A55950  23.713   1.211   7.353
 9372POPC   C1B55951  23.952   1.181   6.453
 9372POPC   C2B55952  23.905   1.137   6.753
 9372POPC   C3B55953  23.980   1.193   7.053
 9372POPC   C4B55954  23.983   1.189   7.353
 9373POPC   NC355955  19.799   3.559   5.553
 9373POPC   PO455956  19.832   3.492   5.853
 9373POPC   GL155957  19.842   3.544   6.153
 9373POPC   GL255958  19.880   3.620   6.153
 9373POPC   C1A55959  19.864   3.590   6.453
 9373POPC   D2A55960  19.866   3.574   6.753
 9373POPC   C3A55961  19.841   3.554   7.053
 9373POPC   C4A55962  19.839   3.560   7.353
 9373POPC   C1B55963  20.022   3.708   6.453
 9373POPC   C2B55964  19.981   3.763   6.753
 9373POPC   C3B55965  19.968   3.744   7.053
 9373POPC   C4B55966  19.943   3.769   7.353
 9374POPC   NC355967  43.920  11.264   5.553
 9374POPC   PO455968  43.908  11.278   5.853
 9374POPC   GL155969  43.891  11.268   6.153
 9374POPC   GL255970  43.890  11.419   6.153
 9374POPC   C1A55971  43.860  11.251   6.453
 9374POPC   D2A55972  43.841  11.322   6.753
 9374POPC   C3A55973  43.844  11.348   7.053
 9374POPC   C4A55974  43.897  11.262   7.353
 9374POPC   C1B55975  43.896  11.498   6.453
 9374POPC   C2B55976  43.935  11.549   6.753
 9374POPC   C3B55977  43.914  11.509   7.053
 9374POPC   C4B55978  43.959  11.514   7.353
 9375POPC   NC355979  32.292  25.220   5.553
 9375POPC   PO455980  32.268  25.299   5.853
 9375POPC   GL155981  32.297  25.272   6.153
 9375POPC   GL255982  32.397  25.260   6.153
 9375POPC   C1A55983  32.238  25.263   6.453
 9375POPC   D2A55984  32.276  25.307   6.753
 9375POPC   C3A55985  32.294  25.302   7.053
 9375POPC   C4A55986  32.259  25.237   7.353
 9375POPC   C1B55987  32.470  25.313   6.453
 9375POPC   C2B55988  32.460  25.347   6.753
 9375POPC   C3B55989  32.532  25.320   7.053
 9375POPC   C4B55990  32.454  25.381   7.353
 9376POPC   NC355991  40.812  36.855   5.553
 9376POPC   PO455992  40.780  36.906   5.853
 9376POPC   GL155993  40.817  36.909   6.153
 9376POPC   GL255994  40.723  36.972   6.153
 9376POPC   C1A55995  40.743  36.884   6.453
 9376POPC   D2A55996  40.735  36.890   6.753
 9376POPC   C3A55997  40.807  36.923   7.053
 9376POPC   C4A55998  40.737  36.861   7.353
 9376POPC   C1B55999  40.636  37.116   6.453
 9376POPC   C2B56000  40.592  37.081   6.753
 9376POPC   C3B56001  40.590  37.138   7.053
 9376POPC   C4B56002  40.589  37.052   7.353
 9377POPC   NC356003  19.081  40.736   5.553
 9377POPC   PO456004  19.055  40.758   5.853
 9377POPC   GL156005  19.041  40.828   6.153
 9377POPC   GL256006  19.173  40.890   6.153
 9377POPC   C1A56007  19.048  40.752   6.453
 9377POPC   D2A56008  19.015  40.781   6.753
 9377POPC   C3A56009  19.072  40.812   7.053
 9377POPC   C4A56010  19.062  40.810   7.353
 9377POPC   C1B56011  19.269  40.977   6.453
 9377POPC   C2B56012  19.199  40.950   6.753
 9377POPC   C3B56013  19.251  40.994   7.053
 9377POPC   C4B56014  19.182  40.983   7.353
 9378POPC   NC356015  19.794  30.744   5.553
 9378POPC   PO456016  19.810  30.730   5.853
 9378POPC   GL156017  19.820  30.707   6.153
 9378POPC   GL256018  19.734  30.604   6.153
 9378POPC   C1A56019  19.821  30.709   6.453
 9378POPC   D2A56020  19.867  30.652   6.753
 9378POPC   C3A56021  19.837  30.651   7.053
 9378POPC   C4A56022  19.804  30.671   7.353
 9378POPC   C1B56023  19.721  30.440   6.453
 9378POPC   C2B56024  19.760  30.437   6.753
 9378POPC   C3B56025  19.743  30.481   7.053
 9378POPC   C4B56026  19.702  30.431   7.353
 9379POPC   NC356027  14.391  25.278   5.553
 9379POPC   PO456028  14.396  25.235   5.853
 9379POPC   GL156029  14.415  25.244   6.153
 9379POPC   GL256030  14.490  25.235   6.153
 9379POPC   C1A56031  14.387  25.250   6.453
 9379POPC   D2A56032  14.389  25.278   6.753
 9379POPC   C3A56033  14.400  25.266   7.053
 9379POPC   C4A56034  14.408  25.248   7.353
 9379POPC   C1B56035  14.657  25.197   6.453
 9379POPC   C2B56036  14.632  25.218   6.753
 9379POPC   C3B56037  14.687  25.214   7.053
 9379POPC   C4B56038  14.615  25.222   7.353
 9380POPC   NC356039  43.902  19.082   5.553
 9380POPC   PO456040  43.899  19.093   5.853
 9380POPC   GL156041  43.897  19.021   6.153
 9380POPC   GL256042  43.917  19.181   6.153
 9380POPC   C1A56043  43.863  19.053   6.453
 9380POPC   D2A56044  43.863  19.053   6.753
 9380POPC   C3A56045  43.855  19.070   7.053
 9380POPC   C4A56046  43.927  19.082   7.353
 9380POPC   C1B56047  43.988  19.303   6.453
 9380POPC   C2B56048  43.928  19.278   6.753
 9380POPC   C3B56049  43.940  19.309   7.053
 9380POPC   C4B56050  43.992  19.339   7.353
 9381POPC   NC356051  11.326  19.813   5.553
 9381POPC   PO456052  11.257  19.854   5.853
 9381POPC   GL156053  11.350  19.868   6.153
 9381POPC   GL256054  11.144  19.848   6.153
 9381POPC   C1A56055  11.293  19.794   6.453
 9381POPC   D2A56056  11.321  19.846   6.753
 9381POPC   C3A56057  11.296  19.850   7.053
 9381POPC   C4A56058  11.261  19.837   7.353
 9381POPC   C1B56059  11.060  19.797   6.453
 9381POPC   C2B56060  11.017  19.846   6.753
 9381POPC   C3B56061  11.028  19.844   7.053
 9381POPC   C4B56062  11.048  19.876   7.353
 9382POPC   NC356063   8.945  24.475   5.553
 9382POPC   PO456064   8.938  24.513   5.853
 9382POPC   GL156065   8.978  24.490   6.153
 9382POPC   GL256066   9.110  24.481   6.153
 9382POPC   C1A56067   8.962  24.474   6.453
 9382POPC   D2A56068   8.990  24.469   6.753
 9382POPC   C3A56069   9.010  24.537   7.053
 9382POPC   C4A56070   9.017  24.505   7.353
 9382POPC   C1B56071   9.270  24.434   6.453
 9382POPC   C2B56072   9.216  24.490   6.753
 9382POPC   C3B56073   9.234  24.473   7.053
 9382POPC   C4B56074   9.176  24.526   7.353
 9383POPC   NC356075   0.410  18.317   5.553
 9383POPC   PO456076   0.467  18.290   5.853
 9383POPC   GL156077   0.454  18.262   6.153
 9383POPC   GL256078   0.293  18.351   6.153
 9383POPC   C1A56079   0.397  18.235   6.453
 9383POPC   D2A56080   0.461  18.277   6.753
 9383POPC   C3A56081   0.461  18.309   7.053
 9383POPC   C4A56082   0.485  18.274   7.353
 9383POPC   C1B56083   0.196  18.421   6.453
 9383POPC   C2B56084   0.215  18.408   6.753
 9383POPC   C3B56085   0.286  18.444   7.053
 9383POPC   C4B56086   0.256  18.390   7.353
 9384POPC   NC356087  11.308   9.717   5.553
 9384POPC   PO456088  11.318   9.730   5.853
 9384POPC   GL156089  11.344   9.781   6.153
 9384POPC   GL256090  11.444   9.690   6.153
 9384POPC   C1A56091  11.334   9.778   6.453
 9384POPC   D2A56092  11.259   9.728   6.753
 9384POPC   C3A56093  11.285   9.701   7.053
 9384POPC   C4A56094  11.333   9.741   7.353
 9384POPC   C1B56095  11.524   9.624   6.453
 9384POPC   C2B56096  11.490   9.639   6.753
 9384POPC   C3B56097  11.580   9.697   7.053
 9384POPC   C4B56098  11.516   9.706   7.353
 9385POPC   NC356099  30.670  20.627   5.553
 9385POPC   PO456100  30.659  20.659   5.853
 9385POPC   GL156101  30.673  20.629   6.153
 9385POPC   GL256102  30.752  20.454   6.153
 9385POPC   C1A56103  30.698  20.577   6.453
 9385POPC   D2A56104  30.664  20.623   6.753
 9385POPC   C3A56105  30.653  20.577   7.053
 9385POPC   C4A56106  30.656  20.614   7.353
 9385POPC   C1B56107  30.829  20.424   6.453
 9385POPC   C2B56108  30.835  20.354   6.753
 9385POPC   C3B56109  30.795  20.389   7.053
 9385POPC   C4B56110  30.804  20.404   7.353
 9386POPC   NC356111  42.318  41.531   5.553
 9386POPC   PO456112  42.307  41.554   5.853
 9386POPC   GL156113  42.334  41.551   6.153
 9386POPC   GL256114  42.450  41.601   6.153
 9386POPC   C1A56115  42.291  41.544   6.453
 9386POPC   D2A56116  42.358  41.559   6.753
 9386POPC   C3A56117  42.373  41.603   7.053
 9386POPC   C4A56118  42.345  41.592   7.353
 9386POPC   C1B56119  42.551  41.693   6.453
 9386POPC   C2B56120  42.566  41.749   6.753
 9386POPC   C3B56121  42.498  41.717   7.053
 9386POPC   C4B56122  42.540  41.697   7.353
 9387POPC   NC356123  16.002   1.992   5.553
 9387POPC   PO456124  16.001   1.990   5.853
 9387POPC   GL156125  15.987   2.027   6.153
 9387POPC   GL256126  16.015   1.874   6.153
 9387POPC   C1A56127  15.941   1.975   6.453
 9387POPC   D2A56128  15.991   2.022   6.753
 9387POPC   C3A56129  15.930   2.020   7.053
 9387POPC   C4A56130  15.973   1.975   7.353
 9387POPC   C1B56131  16.051   1.757   6.453
 9387POPC   C2B56132  16.009   1.771   6.753
 9387POPC   C3B56133  16.085   1.767   7.053
 9387POPC   C4B56134  16.016   1.780   7.353
 9388POPC   NC356135   1.190   6.679   5.553
 9388POPC   PO456136   1.235   6.596   5.853
 9388POPC   GL156137   1.178   6.660   6.153
 9388POPC   GL256138   1.163   6.757   6.153
 9388POPC   C1A56139   1.233   6.637   6.453
 9388POPC   D2A56140   1.195   6.686   6.753
 9388POPC   C3A56141   1.235   6.669   7.053
 9388POPC   C4A56142   1.228   6.621   7.353
 9388POPC   C1B56143   1.093   6.790   6.453
 9388POPC   C2B56144   1.055   6.829   6.753
 9388POPC   C3B56145   1.052   6.806   7.053
 9388POPC   C4B56146   1.042   6.784   7.353
 9389POPC   NC356147  34.599   7.399   5.553
 9389POPC   PO456148  34.622   7.442   5.853
 9389POPC   GL156149  34.608   7.417   6.153
 9389POPC   GL256150  34.611   7.480   6.153
 9389POPC   C1A56151  34.606   7.441   6.453
 9389POPC   D2A56152  34.607   7.404   6.753
 9389POPC   C3A56153  34.566   7.399   7.053
 9389POPC   C4A56154  34.615   7.411   7.353
 9389POPC   C1B56155  34.745   7.610   6.453
 9389POPC   C2B56156  34.724   7.630   6.753
 9389POPC   C3B56157  34.747   7.630   7.053
 9389POPC   C4B56158  34.689   7.658   7.353
 9390POPC   NC356159  41.569  22.194   5.553
 9390POPC   PO456160  41.569  22.145   5.853
 9390POPC   GL156161  41.584  22.185   6.153
 9390POPC   GL256162  41.554  22.250   6.153
 9390POPC   C1A56163  41.553  22.186   6.453
 9390POPC   D2A56164  41.554  22.179   6.753
 9390POPC   C3A56165  41.576  22.211   7.053
 9390POPC   C4A56166  41.583  22.185   7.353
 9390POPC   C1B56167  41.467  22.400   6.453
 9390POPC   C2B56168  41.535  22.422   6.753
 9390POPC   C3B56169  41.498  22.411   7.053
 9390POPC   C4B56170  41.517  22.369   7.353
 9391POPC   NC356171  37.658  16.706   5.553
 9391POPC   PO456172  37.702  16.715   5.853
 9391POPC   GL156173  37.675  16.747   6.153
 9391POPC   GL256174  37.719  16.606   6.153
 9391POPC   C1A56175  37.654  16.763   6.453
 9391POPC   D2A56176  37.717  16.708   6.753
 9391POPC   C3A56177  37.719  16.757   7.053
 9391POPC   C4A56178  37.663  16.684   7.353
 9391POPC   C1B56179  37.859  16.523   6.453
 9391POPC   C2B56180  37.828  16.502   6.753
 9391POPC   C3B56181  37.811  16.555   7.053
 9391POPC   C4B56182  37.840  16.541   7.353
 9392POPC   NC356183  29.933  27.587   5.553
 9392POPC   PO456184  29.970  27.588   5.853
 9392POPC   GL156185  29.960  27.578   6.153
 9392POPC   GL256186  29.843  27.681   6.153
 9392POPC   C1A56187  29.897  27.620   6.453
 9392POPC   D2A56188  29.937  27.580   6.753
 9392POPC   C3A56189  29.932  27.618   7.053
 9392POPC   C4A56190  29.964  27.607   7.353
 9392POPC   C1B56191  29.687  27.680   6.453
 9392POPC   C2B56192  29.733  27.700   6.753
 9392POPC   C3B56193  29.690  27.754   7.053
 9392POPC   C4B56194  29.711  27.688   7.353
 9393POPC   NC356195  18.328  40.000   5.553
 9393POPC   PO456196  18.271  39.973   5.853
 9393POPC   GL156197  18.264  39.988   6.153
 9393POPC   GL256198  18.296  40.169   6.153
 9393POPC   C1A56199  18.272  39.995   6.453
 9393POPC   D2A56200  18.305  40.046   6.753
 9393POPC   C3A56201  18.235  39.966   7.053
 9393POPC   C4A56202  18.257  39.967   7.353
 9393POPC   C1B56203  18.258  40.216   6.453
 9393POPC   C2B56204  18.306  40.248   6.753
 9393POPC   C3B56205  18.224  40.234   7.053
 9393POPC   C4B56206  18.263  40.292   7.353
 9394POPC   NC356207  14.360   5.055   5.553
 9394POPC   PO456208  14.363   5.103   5.853
 9394POPC   GL156209  14.400   5.088   6.153
 9394POPC   GL256210  14.397   4.962   6.153
 9394POPC   C1A56211  14.423   5.094   6.453
 9394POPC   D2A56212  14.416   5.068   6.753
 9394POPC   C3A56213  14.384   5.095   7.053
 9394POPC   C4A56214  14.440   5.106   7.353
 9394POPC   C1B56215  14.417   4.800   6.453
 9394POPC   C2B56216  14.406   4.890   6.753
 9394POPC   C3B56217  14.488   4.812   7.053
 9394POPC   C4B56218  14.429   4.856   7.353
 9395POPC   NC356219  22.206  40.767   5.553
 9395POPC   PO456220  22.117  40.800   5.853
 9395POPC   GL156221  22.137  40.754   6.153
 9395POPC   GL256222  22.056  40.692   6.153
 9395POPC   C1A56223  22.149  40.807   6.453
 9395POPC   D2A56224  22.188  40.808   6.753
 9395POPC   C3A56225  22.112  40.826   7.053
 9395POPC   C4A56226  22.180  40.790   7.353
 9395POPC   C1B56227  21.997  40.660   6.453
 9395POPC   C2B56228  21.996  40.655   6.753
 9395POPC   C3B56229  21.994  40.670   7.053
 9395POPC   C4B56230  22.004  40.665   7.353
 9396POPC   NC356231  38.456  36.131   5.553
 9396POPC   PO456232  38.488  36.142   5.853
 9396POPC   GL156233  38.493  36.104   6.153
 9396POPC   GL256234  38.362  36.135   6.153
 9396POPC   C1A56235  38.497  36.171   6.453
 9396POPC   D2A56236  38.435  36.173   6.753
 9396POPC   C3A56237  38.480  36.083   7.053
 9396POPC   C4A56238  38.499  36.135   7.353
 9396POPC   C1B56239  38.245  36.172   6.453
 9396POPC   C2B56240  38.218  36.143   6.753
 9396POPC   C3B56241  38.258  36.180   7.053
 9396POPC   C4B56242  38.216  36.192   7.353
 9397POPC   NC356243  19.010   6.598   5.553
 9397POPC   PO456244  19.090   6.683   5.853
 9397POPC   GL156245  19.067   6.685   6.153
 9397POPC   GL256246  19.185   6.631   6.153
 9397POPC   C1A56247  19.082   6.646   6.453
 9397POPC   D2A56248  19.014   6.616   6.753
 9397POPC   C3A56249  19.073   6.604   7.053
 9397POPC   C4A56250  19.024   6.601   7.353
 9397POPC   C1B56251  19.344   6.735   6.453
 9397POPC   C2B56252  19.293   6.691   6.753
 9397POPC   C3B56253  19.276   6.651   7.053
 9397POPC   C4B56254  19.332   6.721   7.353
 9398POPC   NC356255  43.838  40.021   5.553
 9398POPC   PO456256  43.863  39.971   5.853
 9398POPC   GL156257  43.927  40.050   6.153
 9398POPC   GL256258  44.028  39.985   6.153
 9398POPC   C1A56259  43.854  40.030   6.453
 9398POPC   D2A56260  43.922  40.010   6.753
 9398POPC   C3A56261  43.869  39.985   7.053
 9398POPC   C4A56262  43.845  40.008   7.353
 9398POPC   C1B56263  44.156  40.085   6.453
 9398POPC   C2B56264  44.098  40.095   6.753
 9398POPC   C3B56265  44.082  40.026   7.053
 9398POPC   C4B56266  44.116  40.092   7.353
 9399POPC   NC356267  22.128  15.183   5.553
 9399POPC   PO456268  22.141  15.178   5.853
 9399POPC   GL156269  22.210  15.186   6.153
 9399POPC   GL256270  22.303  15.266   6.153
 9399POPC   C1A56271  22.192  15.188   6.453
 9399POPC   D2A56272  22.152  15.218   6.753
 9399POPC   C3A56273  22.191  15.211   7.053
 9399POPC   C4A56274  22.173  15.210   7.353
 9399POPC   C1B56275  22.357  15.375   6.453
 9399POPC   C2B56276  22.355  15.368   6.753
 9399POPC   C3B56277  22.397  15.383   7.053
 9399POPC   C4B56278  22.304  15.385   7.353
 9400POPC   NC356279  23.714  15.202   5.553
 9400POPC   PO456280  23.689  15.182   5.853
 9400POPC   GL156281  23.686  15.215   6.153
 9400POPC   GL256282  23.675  15.072   6.153
 9400POPC   C1A56283  23.736  15.161   6.453
 9400POPC   D2A56284  23.745  15.218   6.753
 9400POPC   C3A56285  23.739  15.203   7.053
 9400POPC   C4A56286  23.743  15.148   7.353
 9400POPC   C1B56287  23.716  14.958   6.453
 9400POPC   C2B56288  23.702  14.902   6.753
 9400POPC   C3B56289  23.772  14.924   7.053
 9400POPC   C4B56290  23.694  14.949   7.353
 9401POPC   NC356291   7.435  43.118   5.553
 9401POPC   PO456292   7.451  43.130   5.853
 9401POPC   GL156293   7.379  43.086   6.153
 9401POPC   GL256294   7.508  42.972   6.153
 9401POPC   C1A56295   7.378  43.064   6.453
 9401POPC   D2A56296   7.446  43.084   6.753
 9401POPC   C3A56297   7.398  43.148   7.053
 9401POPC   C4A56298   7.379  43.119   7.353
 9401POPC   C1B56299   7.577  42.856   6.453
 9401POPC   C2B56300   7.564  42.904   6.753
 9401POPC   C3B56301   7.547  42.883   7.053
 9401POPC   C4B56302   7.545  42.909   7.353
 9402POPC   NC356303   8.962  33.849   5.553
 9402POPC   PO456304   9.015  33.767   5.853
 9402POPC   GL156305   8.977  33.849   6.153
 9402POPC   GL256306   8.877  33.805   6.153
 9402POPC   C1A56307   8.943  33.810   6.453
 9402POPC   D2A56308   8.980  33.849   6.753
 9402POPC   C3A56309   8.930  33.766   7.053
 9402POPC   C4A56310   8.995  33.814   7.353
 9402POPC   C1B56311   8.709  33.728   6.453
 9402POPC   C2B56312   8.760  33.681   6.753
 9402POPC   C3B56313   8.692  33.679   7.053
 9402POPC   C4B56314   8.771  33.716   7.353
 9403POPC   NC356315  11.276  36.882   5.553
 9403POPC   PO456316  11.269  36.924   5.853
 9403POPC   GL156317  11.321  36.902   6.153
 9403POPC   GL256318  11.153  36.921   6.153
 9403POPC   C1A56319  11.256  36.870   6.453
 9403POPC   D2A56320  11.262  36.897   6.753
 9403POPC   C3A56321  11.261  36.891   7.053
 9403POPC   C4A56322  11.296  36.953   7.353
 9403POPC   C1B56323  11.045  36.922   6.453
 9403POPC   C2B56324  11.005  36.949   6.753
 9403POPC   C3B56325  11.004  36.937   7.053
 9403POPC   C4B56326  11.099  36.909   7.353
 9404POPC   NC356327  24.447  22.895   5.553
 9404POPC   PO456328  24.458  22.922   5.853
 9404POPC   GL156329  24.455  22.977   6.153
 9404POPC   GL256330  24.408  22.948   6.153
 9404POPC   C1A56331  24.505  22.962   6.453
 9404POPC   D2A56332  24.460  22.897   6.753
 9404POPC   C3A56333  24.495  22.893   7.053
 9404POPC   C4A56334  24.443  22.943   7.353
 9404POPC   C1B56335  24.244  23.038   6.453
 9404POPC   C2B56336  24.228  22.987   6.753
 9404POPC   C3B56337  24.268  22.988   7.053
 9404POPC   C4B56338  24.292  23.066   7.353
 9405POPC   NC356339   5.063   1.959   5.553
 9405POPC   PO456340   5.053   2.013   5.853
 9405POPC   GL156341   5.053   2.033   6.153
 9405POPC   GL256342   4.996   2.085   6.153
 9405POPC   C1A56343   5.105   2.033   6.453
 9405POPC   D2A56344   5.044   2.030   6.753
 9405POPC   C3A56345   5.056   1.955   7.053
 9405POPC   C4A56346   5.121   1.977   7.353
 9405POPC   C1B56347   4.940   2.208   6.453
 9405POPC   C2B56348   4.904   2.187   6.753
 9405POPC   C3B56349   4.973   2.172   7.053
 9405POPC   C4B56350   4.926   2.152   7.353
 9406POPC   NC356351  20.588   1.960   5.553
 9406POPC   PO456352  20.645   1.980   5.853
 9406POPC   GL156353  20.602   2.038   6.153
 9406POPC   GL256354  20.571   1.817   6.153
 9406POPC   C1A56355  20.628   1.998   6.453
 9406POPC   D2A56356  20.660   1.949   6.753
 9406POPC   C3A56357  20.579   1.944   7.053
 9406POPC   C4A56358  20.634   1.950   7.353
 9406POPC   C1B56359  20.644   1.712   6.453
 9406POPC   C2B56360  20.584   1.782   6.753
 9406POPC   C3B56361  20.605   1.771   7.053
 9406POPC   C4B56362  20.603   1.781   7.353
 9407POPC   NC356363   1.245   1.995   5.553
 9407POPC   PO456364   1.177   1.969   5.853
 9407POPC   GL156365   1.179   1.958   6.153
 9407POPC   GL256366   1.348   1.972   6.153
 9407POPC   C1A56367   1.216   1.994   6.453
 9407POPC   D2A56368   1.198   1.983   6.753
 9407POPC   C3A56369   1.252   2.005   7.053
 9407POPC   C4A56370   1.200   2.015   7.353
 9407POPC   C1B56371   1.466   2.034   6.453
 9407POPC   C2B56372   1.452   2.020   6.753
 9407POPC   C3B56373   1.480   1.985   7.053
 9407POPC   C4B56374   1.420   2.035   7.353
 9408POPC   NC356375  28.415   2.773   5.553
 9408POPC   PO456376  28.340   2.793   5.853
 9408POPC   GL156377  28.413   2.772   6.153
 9408POPC   GL256378  28.356   2.899   6.153
 9408POPC   C1A56379  28.324   2.735   6.453
 9408POPC   D2A56380  28.414   2.716   6.753
 9408POPC   C3A56381  28.344   2.726   7.053
 9408POPC   C4A56382  28.415   2.769   7.353
 9408POPC   C1B56383  28.401   3.008   6.453
 9408POPC   C2B56384  28.370   2.976   6.753
 9408POPC   C3B56385  28.341   3.025   7.053
 9408POPC   C4B56386  28.327   3.027   7.353
 9409POPC   NC356387  31.445  20.561   5.553
 9409POPC   PO456388  31.518  20.645   5.853
 9409POPC   GL156389  31.469  20.594   6.153
 9409POPC   GL256390  31.386  20.510   6.153
 9409POPC   C1A56391  31.427  20.587   6.453
 9409POPC   D2A56392  31.434  20.590   6.753
 9409POPC   C3A56393  31.503  20.628   7.053
 9409POPC   C4A56394  31.482  20.567   7.353
 9409POPC   C1B56395  31.336  20.443   6.453
 9409POPC   C2B56396  31.338  20.447   6.753
 9409POPC   C3B56397  31.373  20.359   7.053
 9409POPC   C4B56398  31.376  20.427   7.353
 9410POPC   NC356399  44.614  12.071   5.553
 9410POPC   PO456400  44.622  12.095   5.853
 9410POPC   GL156401  44.704  12.083   6.153
 9410POPC   GL256402  44.759  12.097   6.153
 9410POPC   C1A56403  44.646  12.029   6.453
 9410POPC   D2A56404  44.632  12.106   6.753
 9410POPC   C3A56405  44.647  12.081   7.053
 9410POPC   C4A56406  44.664  12.036   7.353
 9410POPC   C1B56407  44.954  12.175   6.453
 9410POPC   C2B56408  44.942  12.115   6.753
 9410POPC   C3B56409  44.919  12.176   7.053
 9410POPC   C4B56410  44.872  12.146   7.353
 9411POPC   NC356411  37.632  31.473   5.553
 9411POPC   PO456412  37.704  31.512   5.853
 9411POPC   GL156413  37.683  31.491   6.153
 9411POPC   GL256414  37.808  31.409   6.153
 9411POPC   C1A56415  37.635  31.496   6.453
 9411POPC   D2A56416  37.720  31.436   6.753
 9411POPC   C3A56417  37.670  31.446   7.053
 9411POPC   C4A56418  37.648  31.463   7.353
 9411POPC   C1B56419  37.898  31.452   6.453
 9411POPC   C2B56420  37.963  31.395   6.753
 9411POPC   C3B56421  37.949  31.441   7.053
 9411POPC   C4B56422  37.973  31.424   7.353
 9412POPC   NC356423   8.930  42.289   5.553
 9412POPC   PO456424   9.005  42.360   5.853
 9412POPC   GL156425   8.957  42.312   6.153
 9412POPC   GL256426   8.977  42.439   6.153
 9412POPC   C1A56427   9.007  42.338   6.453
 9412POPC   D2A56428   9.000  42.303   6.753
 9412POPC   C3A56429   9.004  42.360   7.053
 9412POPC   C4A56430   9.006  42.309   7.353
 9412POPC   C1B56431   9.014  42.548   6.453
 9412POPC   C2B56432   8.991  42.553   6.753
 9412POPC   C3B56433   9.026  42.553   7.053
 9412POPC   C4B56434   9.022  42.572   7.353
 9413POPC   NC356435  30.701   3.510   5.553
 9413POPC   PO456436  30.660   3.540   5.853
 9413POPC   GL156437  30.669   3.492   6.153
 9413POPC   GL256438  30.604   3.528   6.153
 9413POPC   C1A56439  30.729   3.584   6.453
 9413POPC   D2A56440  30.719   3.521   6.753
 9413POPC   C3A56441  30.737   3.510   7.053
 9413POPC   C4A56442  30.734   3.513   7.353
 9413POPC   C1B56443  30.474   3.409   6.453
 9413POPC   C2B56444  30.501   3.382   6.753
 9413POPC   C3B56445  30.433   3.399   7.053
 9413POPC   C4B56446  30.442   3.367   7.353
 9414POPC   NC356447  16.683  42.303   5.553
 9414POPC   PO456448  16.736  42.298   5.853
 9414POPC   GL156449  16.730  42.362   6.153
 9414POPC   GL256450  16.795  42.173   6.153
 9414POPC   C1A56451  16.726  42.288   6.453
 9414POPC   D2A56452  16.688  42.297   6.753
 9414POPC   C3A56453  16.767  42.360   7.053
 9414POPC   C4A56454  16.739  42.286   7.353
 9414POPC   C1B56455  16.757  42.103   6.453
 9414POPC   C2B56456  16.738  42.092   6.753
 9414POPC   C3B56457  16.765  42.125   7.053
 9414POPC   C4B56458  16.728  42.125   7.353
 9415POPC   NC356459  43.078  16.718   5.553
 9415POPC   PO456460  43.153  16.683   5.853
 9415POPC   GL156461  43.129  16.708   6.153
 9415POPC   GL256462  43.225  16.804   6.153
 9415POPC   C1A56463  43.145  16.708   6.453
 9415POPC   D2A56464  43.150  16.747   6.753
 9415POPC   C3A56465  43.116  16.683   7.053
 9415POPC   C4A56466  43.128  16.699   7.353
 9415POPC   C1B56467  43.305  16.823   6.453
 9415POPC   C2B56468  43.357  16.785   6.753
 9415POPC   C3B56469  43.315  16.775   7.053
 9415POPC   C4B56470  43.372  16.861   7.353
 9416POPC   NC356471  16.713   4.348   5.553
 9416POPC   PO456472  16.742   4.317   5.853
 9416POPC   GL156473  16.748   4.326   6.153
 9416POPC   GL256474  16.752   4.221   6.153
 9416POPC   C1A56475  16.773   4.291   6.453
 9416POPC   D2A56476  16.734   4.269   6.753
 9416POPC   C3A56477  16.777   4.280   7.053
 9416POPC   C4A56478  16.713   4.279   7.353
 9416POPC   C1B56479  16.722   4.115   6.453
 9416POPC   C2B56480  16.686   4.117   6.753
 9416POPC   C3B56481  16.673   4.065   7.053
 9416POPC   C4B56482  16.704   4.109   7.353
 9417POPC   NC356483  11.282  23.665   5.553
 9417POPC   PO456484  11.311  23.719   5.853
 9417POPC   GL156485  11.328  23.725   6.153
 9417POPC   GL256486  11.414  23.644   6.153
 9417POPC   C1A56487  11.265  23.737   6.453
 9417POPC   D2A56488  11.344  23.746   6.753
 9417POPC   C3A56489  11.304  23.744   7.053
 9417POPC   C4A56490  11.330  23.707   7.353
 9417POPC   C1B56491  11.573  23.569   6.453
 9417POPC   C2B56492  11.491  23.632   6.753
 9417POPC   C3B56493  11.521  23.631   7.053
 9417POPC   C4B56494  11.515  23.656   7.353
 9418POPC   NC356495  34.604  39.247   5.553
 9418POPC   PO456496  34.544  39.190   5.853
 9418POPC   GL156497  34.550  39.237   6.153
 9418POPC   GL256498  34.670  39.196   6.153
 9418POPC   C1A56499  34.529  39.232   6.453
 9418POPC   D2A56500  34.578  39.270   6.753
 9418POPC   C3A56501  34.562  39.185   7.053
 9418POPC   C4A56502  34.590  39.216   7.353
 9418POPC   C1B56503  34.807  39.084   6.453
 9418POPC   C2B56504  34.736  39.080   6.753
 9418POPC   C3B56505  34.758  39.110   7.053
 9418POPC   C4B56506  34.778  39.080   7.353
 9419POPC   NC356507  44.634  22.208   5.553
 9419POPC   PO456508  44.655  22.166   5.853
 9419POPC   GL156509  44.671  22.131   6.153
 9419POPC   GL256510  44.597  22.078   6.153
 9419POPC   C1A56511  44.658  22.128   6.453
 9419POPC   D2A56512  44.662  22.113   6.753
 9419POPC   C3A56513  44.694  22.124   7.053
 9419POPC   C4A56514  44.699  22.145   7.353
 9419POPC   C1B56515  44.413  22.037   6.453
 9419POPC   C2B56516  44.471  22.086   6.753
 9419POPC   C3B56517  44.414  22.013   7.053
 9419POPC   C4B56518  44.391  22.059   7.353
 9420POPC   NC356519  36.927   9.012   5.553
 9420POPC   PO456520  36.892   8.981   5.853
 9420POPC   GL156521  36.946   9.003   6.153
 9420POPC   GL256522  36.979   9.036   6.153
 9420POPC   C1A56523  36.951   8.940   6.453
 9420POPC   D2A56524  36.895   9.009   6.753
 9420POPC   C3A56525  36.893   9.021   7.053
 9420POPC   C4A56526  36.911   8.927   7.353
 9420POPC   C1B56527  37.048   9.192   6.453
 9420POPC   C2B56528  37.078   9.215   6.753
 9420POPC   C3B56529  37.060   9.181   7.053
 9420POPC   C4B56530  37.035   9.154   7.353
 9421POPC   NC356531   8.965  19.869   5.553
 9421POPC   PO456532   8.954  19.820   5.853
 9421POPC   GL156533   9.007  19.835   6.153
 9421POPC   GL256534   9.107  19.840   6.153
 9421POPC   C1A56535   8.983  19.818   6.453
 9421POPC   D2A56536   9.001  19.872   6.753
 9421POPC   C3A56537   8.944  19.828   7.053
 9421POPC   C4A56538   8.925  19.831   7.353
 9421POPC   C1B56539   9.168  19.773   6.453
 9421POPC   C2B56540   9.203  19.799   6.753
 9421POPC   C3B56541   9.223  19.776   7.053
 9421POPC   C4B56542   9.261  19.734   7.353
 9422POPC   NC356543  21.433   1.180   5.553
 9422POPC   PO456544  21.386   1.230   5.853
 9422POPC   GL156545  21.414   1.243   6.153
 9422POPC   GL256546  21.451   1.366   6.153
 9422POPC   C1A56547  21.383   1.175   6.453
 9422POPC   D2A56548  21.411   1.223   6.753
 9422POPC   C3A56549  21.365   1.201   7.053
 9422POPC   C4A56550  21.414   1.175   7.353
 9422POPC   C1B56551  21.509   1.427   6.453
 9422POPC   C2B56552  21.478   1.443   6.753
 9422POPC   C3B56553  21.452   1.431   7.053
 9422POPC   C4B56554  21.463   1.423   7.353
 9423POPC   NC356555  21.379  38.447   5.553
 9423POPC   PO456556  21.359  38.470   5.853
 9423POPC   GL156557  21.354  38.460   6.153
 9423POPC   GL256558  21.253  38.410   6.153
 9423POPC   C1A56559  21.380  38.437   6.453
 9423POPC   D2A56560  21.362  38.424   6.753
 9423POPC   C3A56561  21.393  38.428   7.053
 9423POPC   C4A56562  21.406  38.425   7.353
 9423POPC   C1B56563  21.143  38.418   6.453
 9423POPC   C2B56564  21.187  38.351   6.753
 9423POPC   C3B56565  21.144  38.438   7.053
 9423POPC   C4B56566  21.189  38.381   7.353
 9424POPC   NC356567  11.346  12.866   5.553
 9424POPC   PO456568  11.265  12.812   5.853
 9424POPC   GL156569  11.287  12.802   6.153
 9424POPC   GL256570  11.410  12.868   6.153
 9424POPC   C1A56571  11.265  12.897   6.453
 9424POPC   D2A56572  11.348  12.867   6.753
 9424POPC   C3A56573  11.302  12.883   7.053
 9424POPC   C4A56574  11.305  12.828   7.353
 9424POPC   C1B56575  11.523  12.841   6.453
 9424POPC   C2B56576  11.516  12.824   6.753
 9424POPC   C3B56577  11.519  12.821   7.053
 9424POPC   C4B56578  11.568  12.811   7.353
 9425POPC   NC356579  12.114  14.449   5.553
 9425POPC   PO456580  12.060  14.387   5.853
 9425POPC   GL156581  12.066  14.432   6.153
 9425POPC   GL256582  12.144  14.322   6.153
 9425POPC   C1A56583  12.047  14.387   6.453
 9425POPC   D2A56584  12.031  14.438   6.753
 9425POPC   C3A56585  12.107  14.417   7.053
 9425POPC   C4A56586  12.066  14.436   7.353
 9425POPC   C1B56587  12.205  14.131   6.453
 9425POPC   C2B56588  12.149  14.213   6.753
 9425POPC   C3B56589  12.191  14.135   7.053
 9425POPC   C4B56590  12.181  14.206   7.353
 9426POPC   NC356591  12.068  39.220   5.553
 9426POPC   PO456592  12.028  39.189   5.853
 9426POPC   GL156593  12.057  39.254   6.153
 9426POPC   GL256594  12.001  39.141   6.153
 9426POPC   C1A56595  12.100  39.244   6.453
 9426POPC   D2A56596  12.067  39.185   6.753
 9426POPC   C3A56597  12.036  39.274   7.053
 9426POPC   C4A56598  12.046  39.220   7.353
 9426POPC   C1B56599  11.840  39.141   6.453
 9426POPC   C2B56600  11.876  39.060   6.753
 9426POPC   C3B56601  11.873  39.063   7.053
 9426POPC   C4B56602  11.850  39.143   7.353
 9427POPC   NC356603   8.934   8.221   5.553
 9427POPC   PO456604   8.962   8.174   5.853
 9427POPC   GL156605   8.988   8.158   6.153
 9427POPC   GL256606   9.051   8.236   6.153
 9427POPC   C1A56607   8.929   8.150   6.453
 9427POPC   D2A56608   8.931   8.189   6.753
 9427POPC   C3A56609   8.962   8.163   7.053
 9427POPC   C4A56610   8.936   8.206   7.353
 9427POPC   C1B56611   9.149   8.288   6.453
 9427POPC   C2B56612   9.154   8.353   6.753
 9427POPC   C3B56613   9.217   8.283   7.053
 9427POPC   C4B56614   9.178   8.282   7.353
 9428POPC   NC356615  37.664  15.153   5.553
 9428POPC   PO456616  37.635  15.223   5.853
 9428POPC   GL156617  37.714  15.146   6.153
 9428POPC   GL256618  37.721  15.073   6.153
 9428POPC   C1A56619  37.694  15.224   6.453
 9428POPC   D2A56620  37.674  15.134   6.753
 9428POPC   C3A56621  37.645  15.130   7.053
 9428POPC   C4A56622  37.706  15.194   7.353
 9428POPC   C1B56623  37.788  14.935   6.453
 9428POPC   C2B56624  37.865  14.982   6.753
 9428POPC   C3B56625  37.785  14.941   7.053
 9428POPC   C4B56626  37.820  15.012   7.353
 9429POPC   NC356627  26.022   9.748   5.553
 9429POPC   PO456628  26.000   9.711   5.853
 9429POPC   GL156629  26.056   9.792   6.153
 9429POPC   GL256630  26.127   9.830   6.153
 9429POPC   C1A56631  26.010   9.788   6.453
 9429POPC   D2A56632  26.040   9.771   6.753
 9429POPC   C3A56633  26.061   9.755   7.053
 9429POPC   C4A56634  26.035   9.778   7.353
 9429POPC   C1B56635  26.274   9.870   6.453
 9429POPC   C2B56636  26.212   9.887   6.753
 9429POPC   C3B56637  26.203   9.894   7.053
 9429POPC   C4B56638  26.230   9.847   7.353
 9430POPC   NC356639  36.139   1.963   5.553
 9430POPC   PO456640  36.172   2.038   5.853
 9430POPC   GL156641  36.111   2.038   6.153
 9430POPC   GL256642  36.228   1.991   6.153
 9430POPC   C1A56643  36.106   1.977   6.453
 9430POPC   D2A56644  36.176   2.013   6.753
 9430POPC   C3A56645  36.152   2.019   7.053
 9430POPC   C4A56646  36.155   1.956   7.353
 9430POPC   C1B56647  36.421   1.996   6.453
 9430POPC   C2B56648  36.385   2.008   6.753
 9430POPC   C3B56649  36.348   2.073   7.053
 9430POPC   C4B56650  36.420   2.006   7.353
 9431POPC   NC356651  22.963  17.525   5.553
 9431POPC   PO456652  22.959  17.535   5.853
 9431POPC   GL156653  22.961  17.491   6.153
 9431POPC   GL256654  23.021  17.464   6.153
 9431POPC   C1A56655  22.938  17.512   6.453
 9431POPC   D2A56656  22.905  17.545   6.753
 9431POPC   C3A56657  22.932  17.468   7.053
 9431POPC   C4A56658  22.977  17.474   7.353
 9431POPC   C1B56659  23.173  17.405   6.453
 9431POPC   C2B56660  23.187  17.329   6.753
 9431POPC   C3B56661  23.127  17.367   7.053
 9431POPC   C4B56662  23.163  17.354   7.353
 9432POPC   NC356663  18.241   4.354   5.553
 9432POPC   PO456664  18.299   4.342   5.853
 9432POPC   GL156665  18.236   4.273   6.153
 9432POPC   GL256666  18.172   4.397   6.153
 9432POPC   C1A56667  18.261   4.282   6.453
 9432POPC   D2A56668  18.313   4.293   6.753
 9432POPC   C3A56669  18.272   4.346   7.053
 9432POPC   C4A56670  18.257   4.314   7.353
 9432POPC   C1B56671  18.159   4.470   6.453
 9432POPC   C2B56672  18.167   4.499   6.753
 9432POPC   C3B56673  18.117   4.496   7.053
 9432POPC   C4B56674  18.154   4.500   7.353
 9433POPC   NC356675  37.667  19.038   5.553
 9433POPC   PO456676  37.636  19.020   5.853
 9433POPC   GL156677  37.687  19.064   6.153
 9433POPC   GL256678  37.753  19.165   6.153
 9433POPC   C1A56679  37.725  19.009   6.453
 9433POPC   D2A56680  37.720  19.094   6.753
 9433POPC   C3A56681  37.664  19.042   7.053
 9433POPC   C4A56682  37.655  19.034   7.353
 9433POPC   C1B56683  37.807  19.300   6.453
 9433POPC   C2B56684  37.730  19.314   6.753
 9433POPC   C3B56685  37.776  19.244   7.053
 9433POPC   C4B56686  37.743  19.257   7.353
 9434POPC   NC356687  35.323   1.983   5.553
 9434POPC   PO456688  35.386   1.960   5.853
 9434POPC   GL156689  35.396   2.001   6.153
 9434POPC   GL256690  35.270   1.967   6.153
 9434POPC   C1A56691  35.356   2.032   6.453
 9434POPC   D2A56692  35.306   2.030   6.753
 9434POPC   C3A56693  35.363   2.027   7.053
 9434POPC   C4A56694  35.383   2.017   7.353
 9434POPC   C1B56695  35.145   1.969   6.453
 9434POPC   C2B56696  35.132   2.034   6.753
 9434POPC   C3B56697  35.152   2.046   7.053
 9434POPC   C4B56698  35.099   2.032   7.353
 9435POPC   NC356699  13.589  35.346   5.553
 9435POPC   PO456700  13.655  35.385   5.853
 9435POPC   GL156701  13.580  35.310   6.153
 9435POPC   GL256702  13.754  35.296   6.153
 9435POPC   C1A56703  13.606  35.340   6.453
 9435POPC   D2A56704  13.621  35.358   6.753
 9435POPC   C3A56705  13.664  35.304   7.053
 9435POPC   C4A56706  13.599  35.308   7.353
 9435POPC   C1B56707  13.906  35.358   6.453
 9435POPC   C2B56708  13.865  35.351   6.753
 9435POPC   C3B56709  13.877  35.278   7.053
 9435POPC   C4B56710  13.855  35.347   7.353
 9436POPC   NC356711  28.356  16.682   5.553
 9436POPC   PO456712  28.397  16.694   5.853
 9436POPC   GL156713  28.346  16.773   6.153
 9436POPC   GL256714  28.450  16.626   6.153
 9436POPC   C1A56715  28.343  16.695   6.453
 9436POPC   D2A56716  28.408  16.738   6.753
 9436POPC   C3A56717  28.346  16.721   7.053
 9436POPC   C4A56718  28.375  16.733   7.353
 9436POPC   C1B56719  28.431  16.542   6.453
 9436POPC   C2B56720  28.421  16.517   6.753
 9436POPC   C3B56721  28.487  16.540   7.053
 9436POPC   C4B56722  28.422  16.472   7.353
 9437POPC   NC356723   3.510  39.988   5.553
 9437POPC   PO456724   3.496  40.047   5.853
 9437POPC   GL156725   3.581  39.964   6.153
 9437POPC   GL256726   3.634  40.063   6.153
 9437POPC   C1A56727   3.496  40.001   6.453
 9437POPC   D2A56728   3.540  40.015   6.753
 9437POPC   C3A56729   3.549  39.996   7.053
 9437POPC   C4A56730   3.525  39.970   7.353
 9437POPC   C1B56731   3.704  40.191   6.453
 9437POPC   C2B56732   3.707  40.166   6.753
 9437POPC   C3B56733   3.731  40.158   7.053
 9437POPC   C4B56734   3.692  40.231   7.353
 9438POPC   NC356735  12.897  28.343   5.553
 9438POPC   PO456736  12.891  28.381   5.853
 9438POPC   GL156737  12.804  28.336   6.153
 9438POPC   GL256738  12.930  28.362   6.153
 9438POPC   C1A56739  12.884  28.344   6.453
 9438POPC   D2A56740  12.812  28.362   6.753
 9438POPC   C3A56741  12.882  28.338   7.053
 9438POPC   C4A56742  12.889  28.326   7.353
 9438POPC   C1B56743  13.061  28.336   6.453
 9438POPC   C2B56744  13.059  28.368   6.753
 9438POPC   C3B56745  13.100  28.312   7.053
 9438POPC   C4B56746  13.115  28.338   7.353
 9439POPC   NC356747  29.930  13.599   5.553
 9439POPC   PO456748  29.929  13.675   5.853
 9439POPC   GL156749  29.928  13.597   6.153
 9439POPC   GL256750  29.910  13.730   6.153
 9439POPC   C1A56751  29.889  13.677   6.453
 9439POPC   D2A56752  29.891  13.640   6.753
 9439POPC   C3A56753  29.962  13.665   7.053
 9439POPC   C4A56754  29.897  13.593   7.353
 9439POPC   C1B56755  30.002  13.842   6.453
 9439POPC   C2B56756  29.976  13.866   6.753
 9439POPC   C3B56757  29.969  13.836   7.053
 9439POPC   C4B56758  29.939  13.852   7.353
 9440POPC   NC356759  12.844   2.001   5.553
 9440POPC   PO456760  12.859   2.021   5.853
 9440POPC   GL156761  12.879   1.953   6.153
 9440POPC   GL256762  12.748   1.885   6.153
 9440POPC   C1A56763  12.860   2.027   6.453
 9440POPC   D2A56764  12.812   1.972   6.753
 9440POPC   C3A56765  12.865   1.974   7.053
 9440POPC   C4A56766  12.874   1.984   7.353
 9440POPC   C1B56767  12.648   1.869   6.453
 9440POPC   C2B56768  12.647   1.893   6.753
 9440POPC   C3B56769  12.626   1.806   7.053
 9440POPC   C4B56770  12.679   1.851   7.353
 9441POPC   NC356771  10.561  26.051   5.553
 9441POPC   PO456772  10.531  26.004   5.853
 9441POPC   GL156773  10.545  26.034   6.153
 9441POPC   GL256774  10.631  26.079   6.153
 9441POPC   C1A56775  10.555  26.004   6.453
 9441POPC   D2A56776  10.570  26.009   6.753
 9441POPC   C3A56777  10.570  26.068   7.053
 9441POPC   C4A56778  10.519  26.067   7.353
 9441POPC   C1B56779  10.757  26.178   6.453
 9441POPC   C2B56780  10.737  26.193   6.753
 9441POPC   C3B56781  10.733  26.151   7.053
 9441POPC   C4B56782  10.769  26.190   7.353
 9442POPC   NC356783   6.626  40.047   5.553
 9442POPC   PO456784   6.677  39.999   5.853
 9442POPC   GL156785   6.667  39.980   6.153
 9442POPC   GL256786   6.624  39.866   6.153
 9442POPC   C1A56787   6.648  39.969   6.453
 9442POPC   D2A56788   6.604  40.039   6.753
 9442POPC   C3A56789   6.652  40.012   7.053
 9442POPC   C4A56790   6.666  39.980   7.353
 9442POPC   C1B56791   6.576  39.720   6.453
 9442POPC   C2B56792   6.546  39.783   6.753
 9442POPC   C3B56793   6.559  39.737   7.053
 9442POPC   C4B56794   6.523  39.783   7.353
 9443POPC   NC356795  20.578   5.907   5.553
 9443POPC   PO456796  20.577   5.861   5.853
 9443POPC   GL156797  20.649   5.839   6.153
 9443POPC   GL256798  20.618   5.791   6.153
 9443POPC   C1A56799  20.634   5.876   6.453
 9443POPC   D2A56800  20.615   5.824   6.753
 9443POPC   C3A56801  20.574   5.822   7.053
 9443POPC   C4A56802  20.599   5.842   7.353
 9443POPC   C1B56803  20.628   5.644   6.453
 9443POPC   C2B56804  20.595   5.572   6.753
 9443POPC   C3B56805  20.648   5.587   7.053
 9443POPC   C4B56806  20.582   5.594   7.353
 9444POPC   NC356807  19.795   0.418   5.553
 9444POPC   PO456808  19.835   0.447   5.853
 9444POPC   GL156809  19.798   0.414   6.153
 9444POPC   GL256810  19.963   0.465   6.153
 9444POPC   C1A56811  19.857   0.447   6.453
 9444POPC   D2A56812  19.863   0.432   6.753
 9444POPC   C3A56813  19.812   0.477   7.053
 9444POPC   C4A56814  19.801   0.476   7.353
 9444POPC   C1B56815  20.119   0.531   6.453
 9444POPC   C2B56816  20.020   0.528   6.753
 9444POPC   C3B56817  20.026   0.552   7.053
 9444POPC   C4B56818  20.107   0.543   7.353
 9445POPC   NC356819  34.584  24.512   5.553
 9445POPC   PO456820  34.563  24.469   5.853
 9445POPC   GL156821  34.561  24.499   6.153
 9445POPC   GL256822  34.656  24.396   6.153
 9445POPC   C1A56823  34.599  24.463   6.453
 9445POPC   D2A56824  34.616  24.532   6.753
 9445POPC   C3A56825  34.583  24.524   7.053
 9445POPC   C4A56826  34.561  24.450   7.353
 9445POPC   C1B56827  34.742  24.319   6.453
 9445POPC   C2B56828  34.802  24.333   6.753
 9445POPC   C3B56829  34.738  24.354   7.053
 9445POPC   C4B56830  34.821  24.315   7.353
 9446POPC   NC356831  31.438  22.122   5.553
 9446POPC   PO456832  31.508  22.172   5.853
 9446POPC   GL156833  31.494  22.202   6.153
 9446POPC   GL256834  31.525  22.300   6.153
 9446POPC   C1A56835  31.508  22.209   6.453
 9446POPC   D2A56836  31.494  22.149   6.753
 9446POPC   C3A56837  31.435  22.211   7.053
 9446POPC   C4A56838  31.456  22.165   7.353
 9446POPC   C1B56839  31.599  22.438   6.453
 9446POPC   C2B56840  31.563  22.428   6.753
 9446POPC   C3B56841  31.564  22.437   7.053
 9446POPC   C4B56842  31.565  22.417   7.353
 9447POPC   NC356843  28.378   4.318   5.553
 9447POPC   PO456844  28.386   4.342   5.853
 9447POPC   GL156845  28.390   4.329   6.153
 9447POPC   GL256846  28.466   4.286   6.153
 9447POPC   C1A56847  28.381   4.292   6.453
 9447POPC   D2A56848  28.410   4.314   6.753
 9447POPC   C3A56849  28.390   4.286   7.053
 9447POPC   C4A56850  28.389   4.323   7.353
 9447POPC   C1B56851  28.598   4.177   6.453
 9447POPC   C2B56852  28.605   4.182   6.753
 9447POPC   C3B56853  28.585   4.137   7.053
 9447POPC   C4B56854  28.598   4.209   7.353
 9448POPC   NC356855   3.557  25.218   5.553
 9448POPC   PO456856   3.582  25.314   5.853
 9448POPC   GL156857   3.531  25.277   6.153
 9448POPC   GL256858   3.636  25.174   6.153
 9448POPC   C1A56859   3.524  25.290   6.453
 9448POPC   D2A56860   3.562  25.217   6.753
 9448POPC   C3A56861   3.532  25.236   7.053
 9448POPC   C4A56862   3.559  25.266   7.353
 9448POPC   C1B56863   3.635  25.045   6.453
 9448POPC   C2B56864   3.672  25.056   6.753
 9448POPC   C3B56865   3.671  24.993   7.053
 9448POPC   C4B56866   3.665  25.037   7.353
 9449POPC   NC356867  16.732  32.223   5.553
 9449POPC   PO456868  16.722  32.244   5.853
 9449POPC   GL156869  16.714  32.217   6.153
 9449POPC   GL256870  16.866  32.146   6.153
 9449POPC   C1A56871  16.717  32.213   6.453
 9449POPC   D2A56872  16.778  32.211   6.753
 9449POPC   C3A56873  16.753  32.290   7.053
 9449POPC   C4A56874  16.771  32.218   7.353
 9449POPC   C1B56875  16.950  32.031   6.453
 9449POPC   C2B56876  16.905  32.081   6.753
 9449POPC   C3B56877  16.900  32.056   7.053
 9449POPC   C4B56878  16.946  32.120   7.353
 9450POPC   NC356879  35.316  40.032   5.553
 9450POPC   PO456880  35.384  39.989   5.853
 9450POPC   GL156881  35.381  40.036   6.153
 9450POPC   GL256882  35.200  39.952   6.153
 9450POPC   C1A56883  35.380  39.963   6.453
 9450POPC   D2A56884  35.396  40.011   6.753
 9450POPC   C3A56885  35.337  40.023   7.053
 9450POPC   C4A56886  35.335  39.990   7.353
 9450POPC   C1B56887  35.148  39.906   6.453
 9450POPC   C2B56888  35.081  39.877   6.753
 9450POPC   C3B56889  35.144  39.929   7.053
 9450POPC   C4B56890  35.165  39.948   7.353
 9451POPC   NC356891  44.645   8.176   5.553
 9451POPC   PO456892  44.700   8.157   5.853
 9451POPC   GL156893  44.622   8.223   6.153
 9451POPC   GL256894  44.761   8.281   6.153
 9451POPC   C1A56895  44.698   8.181   6.453
 9451POPC   D2A56896  44.613   8.202   6.753
 9451POPC   C3A56897  44.712   8.147   7.053
 9451POPC   C4A56898  44.635   8.154   7.353
 9451POPC   C1B56899  44.853   8.283   6.453
 9451POPC   C2B56900  44.881   8.365   6.753
 9451POPC   C3B56901  44.835   8.363   7.053
 9451POPC   C4B56902  44.880   8.335   7.353
 9452POPC   NC356903   8.986   4.307   5.553
 9452POPC   PO456904   8.994   4.281   5.853
 9452POPC   GL156905   8.974   4.345   6.153
 9452POPC   GL256906   8.919   4.179   6.153
 9452POPC   C1A56907   8.934   4.308   6.453
 9452POPC   D2A56908   9.010   4.307   6.753
 9452POPC   C3A56909   9.006   4.332   7.053
 9452POPC   C4A56910   8.939   4.281   7.353
 9452POPC   C1B56911   8.909   4.091   6.453
 9452POPC   C2B56912   8.958   4.066   6.753
 9452POPC   C3B56913   8.944   4.099   7.053
 9452POPC   C4B56914   8.926   4.057   7.353
 9453POPC   NC356915  32.257   5.859   5.553
 9453POPC   PO456916  32.266   5.888   5.853
 9453POPC   GL156917  32.211   5.875   6.153
 9453POPC   GL256918  32.307   5.805   6.153
 9453POPC   C1A56919  32.281   5.905   6.453
 9453POPC   D2A56920  32.268   5.854   6.753
 9453POPC   C3A56921  32.297   5.909   7.053
 9453POPC   C4A56922  32.282   5.912   7.353
 9453POPC   C1B56923  32.417   5.704   6.453
 9453POPC   C2B56924  32.422   5.626   6.753
 9453POPC   C3B56925  32.407   5.639   7.053
 9453POPC   C4B56926  32.415   5.701   7.353
 9454POPC   NC356927   1.218   3.552   5.553
 9454POPC   PO456928   1.189   3.504   5.853
 9454POPC   GL156929   1.248   3.555   6.153
 9454POPC   GL256930   1.166   3.467   6.153
 9454POPC   C1A56931   1.262   3.529   6.453
 9454POPC   D2A56932   1.227   3.563   6.753
 9454POPC   C3A56933   1.203   3.577   7.053
 9454POPC   C4A56934   1.175   3.544   7.353
 9454POPC   C1B56935   1.040   3.337   6.453
 9454POPC   C2B56936   1.077   3.405   6.753
 9454POPC   C3B56937   0.994   3.328   7.053
 9454POPC   C4B56938   1.005   3.323   7.353
 9455POPC   NC356939  12.112  15.173   5.553
 9455POPC   PO456940  12.121  15.223   5.853
 9455POPC   GL156941  12.098  15.210   6.153
 9455POPC   GL256942  11.928  15.278   6.153
 9455POPC   C1A56943  12.107  15.186   6.453
 9455POPC   D2A56944  12.103  15.166   6.753
 9455POPC   C3A56945  12.043  15.147   7.053
 9455POPC   C4A56946  12.062  15.213   7.353
 9455POPC   C1B56947  11.837  15.298   6.453
 9455POPC   C2B56948  11.897  15.357   6.753
 9455POPC   C3B56949  11.856  15.319   7.053
 9455POPC   C4B56950  11.910  15.319   7.353
 9456POPC   NC356951   0.445  12.808   5.553
 9456POPC   PO456952   0.420  12.902   5.853
 9456POPC   GL156953   0.457  12.887   6.153
 9456POPC   GL256954   0.583  12.966   6.153
 9456POPC   C1A56955   0.409  12.859   6.453
 9456POPC   D2A56956   0.467  12.816   6.753
 9456POPC   C3A56957   0.485  12.827   7.053
 9456POPC   C4A56958   0.465  12.859   7.353
 9456POPC   C1B56959   0.631  12.951   6.453
 9456POPC   C2B56960   0.594  13.038   6.753
 9456POPC   C3B56961   0.639  13.006   7.053
 9456POPC   C4B56962   0.688  13.028   7.353
 9457POPC   NC356963   7.372  23.729   5.553
 9457POPC   PO456964   7.450  23.733   5.853
 9457POPC   GL156965   7.381  23.686   6.153
 9457POPC   GL256966   7.353  23.802   6.153
 9457POPC   C1A56967   7.373  23.715   6.453
 9457POPC   D2A56968   7.383  23.717   6.753
 9457POPC   C3A56969   7.468  23.696   7.053
 9457POPC   C4A56970   7.444  23.739   7.353
 9457POPC   C1B56971   7.313  23.942   6.453
 9457POPC   C2B56972   7.344  23.900   6.753
 9457POPC   C3B56973   7.346  23.968   7.053
 9457POPC   C4B56974   7.308  23.928   7.353
 9458POPC   NC356975  30.720  29.871   5.553
 9458POPC   PO456976  30.735  29.910   5.853
 9458POPC   GL156977  30.742  29.893   6.153
 9458POPC   GL256978  30.605  30.038   6.153
 9458POPC   C1A56979  30.651  29.913   6.453
 9458POPC   D2A56980  30.668  29.892   6.753
 9458POPC   C3A56981  30.745  29.935   7.053
 9458POPC   C4A56982  30.711  29.914   7.353
 9458POPC   C1B56983  30.491  30.090   6.453
 9458POPC   C2B56984  30.516  30.079   6.753
 9458POPC   C3B56985  30.532  30.135   7.053
 9458POPC   C4B56986  30.491  30.144   7.353
 9459POPC   NC356987  29.900  35.345   5.553
 9459POPC   PO456988  29.880  35.385   5.853
 9459POPC   GL156989  29.963  35.330   6.153
 9459POPC   GL256990  30.026  35.308   6.153
 9459POPC   C1A56991  29.908  35.306   6.453
 9459POPC   D2A56992  29.928  35.332   6.753
 9459POPC   C3A56993  29.911  35.317   7.053
 9459POPC   C4A56994  29.892  35.318   7.353
 9459POPC   C1B56995  30.069  35.166   6.453
 9459POPC   C2B56996  30.093  35.143   6.753
 9459POPC   C3B56997  30.071  35.208   7.053
 9459POPC   C4B56998  30.158  35.208   7.353
 9460POPC   NC356999  44.656  10.543   5.553
 9460POPC   PO457000  44.696  10.561   5.853
 9460POPC   GL157001  44.676  10.540   6.153
 9460POPC   GL257002  44.706  10.642   6.153
 9460POPC   C1A57003  44.678  10.549   6.453
 9460POPC   D2A57004  44.685  10.490   6.753
 9460POPC   C3A57005  44.619  10.530   7.053
 9460POPC   C4A57006  44.702  10.572   7.353
 9460POPC   C1B57007  44.674  10.778   6.453
 9460POPC   C2B57008  44.765  10.761   6.753
 9460POPC   C3B57009  44.742  10.719   7.053
 9460POPC   C4B57010  44.716  10.729   7.353
 9461POPC   NC357011  21.407  19.076   5.553
 9461POPC   PO457012  21.361  19.103   5.853
 9461POPC   GL157013  21.392  19.108   6.153
 9461POPC   GL257014  21.407  19.221   6.153
 9461POPC   C1A57015  21.358  19.033   6.453
 9461POPC   D2A57016  21.338  19.020   6.753
 9461POPC   C3A57017  21.435  19.009   7.053
 9461POPC   C4A57018  21.367  19.082   7.353
 9461POPC   C1B57019  21.476  19.284   6.453
 9461POPC   C2B57020  21.490  19.293   6.753
 9461POPC   C3B57021  21.443  19.335   7.053
 9461POPC   C4B57022  21.515  19.264   7.353
 9462POPC   NC357023   2.736  27.596   5.553
 9462POPC   PO457024   2.790  27.563   5.853
 9462POPC   GL157025   2.728  27.555   6.153
 9462POPC   GL257026   2.806  27.726   6.153
 9462POPC   C1A57027   2.755  27.562   6.453
 9462POPC   D2A57028   2.760  27.635   6.753
 9462POPC   C3A57029   2.727  27.597   7.053
 9462POPC   C4A57030   2.722  27.641   7.353
 9462POPC   C1B57031   2.763  27.790   6.453
 9462POPC   C2B57032   2.779  27.794   6.753
 9462POPC   C3B57033   2.847  27.848   7.053
 9462POPC   C4B57034   2.858  27.830   7.353
 9463POPC   NC357035  22.961  30.682   5.553
 9463POPC   PO457036  22.907  30.714   5.853
 9463POPC   GL157037  22.970  30.681   6.153
 9463POPC   GL257038  23.097  30.791   6.153
 9463POPC   C1A57039  22.902  30.736   6.453
 9463POPC   D2A57040  22.936  30.730   6.753
 9463POPC   C3A57041  22.914  30.694   7.053
 9463POPC   C4A57042  22.901  30.678   7.353
 9463POPC   C1B57043  23.151  30.782   6.453
 9463POPC   C2B57044  23.183  30.776   6.753
 9463POPC   C3B57045  23.150  30.753   7.053
 9463POPC   C4B57046  23.195  30.774   7.353
 9464POPC   NC357047  19.797  14.435   5.553
 9464POPC   PO457048  19.877  14.356   5.853
 9464POPC   GL157049  19.793  14.378   6.153
 9464POPC   GL257050  19.753  14.368   6.153
 9464POPC   C1A57051  19.800  14.366   6.453
 9464POPC   D2A57052  19.808  14.376   6.753
 9464POPC   C3A57053  19.826  14.398   7.053
 9464POPC   C4A57054  19.794  14.370   7.353
 9464POPC   C1B57055  19.561  14.266   6.453
 9464POPC   C2B57056  19.639  14.325   6.753
 9464POPC   C3B57057  19.585  14.282   7.053
 9464POPC   C4B57058  19.588  14.343   7.353
 9465POPC   NC357059   8.175  15.987   5.553
 9465POPC   PO457060   8.227  15.990   5.853
 9465POPC   GL157061   8.201  15.959   6.153
 9465POPC   GL257062   8.189  15.850   6.153
 9465POPC   C1A57063   8.185  15.997   6.453
 9465POPC   D2A57064   8.170  16.003   6.753
 9465POPC   C3A57065   8.199  15.938   7.053
 9465POPC   C4A57066   8.213  15.919   7.353
 9465POPC   C1B57067   8.070  15.683   6.453
 9465POPC   C2B57068   8.126  15.763   6.753
 9465POPC   C3B57069   8.080  15.673   7.053
 9465POPC   C4B57070   8.131  15.682   7.353
 9466POPC   NC357071  26.027   5.821   5.553
 9466POPC   PO457072  26.080   5.917   5.853
 9466POPC   GL157073  26.017   5.856   6.153
 9466POPC   GL257074  26.090   5.932   6.153
 9466POPC   C1A57075  26.016   5.888   6.453
 9466POPC   D2A57076  26.026   5.887   6.753
 9466POPC   C3A57077  25.992   5.885   7.053
 9466POPC   C4A57078  26.015   5.832   7.353
 9466POPC   C1B57079  26.251   6.076   6.453
 9466POPC   C2B57080  26.247   6.056   6.753
 9466POPC   C3B57081  26.236   6.046   7.053
 9466POPC   C4B57082  26.205   6.092   7.353
 9467POPC   NC357083   1.983   1.975   5.553
 9467POPC   PO457084   1.945   1.945   5.853
 9467POPC   GL157085   2.018   1.990   6.153
 9467POPC   GL257086   1.915   2.029   6.153
 9467POPC   C1A57087   1.990   2.038   6.453
 9467POPC   D2A57088   1.989   1.965   6.753
 9467POPC   C3A57089   1.942   1.968   7.053
 9467POPC   C4A57090   2.031   1.940   7.353
 9467POPC   C1B57091   1.753   2.033   6.453
 9467POPC   C2B57092   1.707   2.006   6.753
 9467POPC   C3B57093   1.758   1.995   7.053
 9467POPC   C4B57094   1.739   2.049   7.353
 9468POPC   NC357095  25.260  17.557   5.553
 9468POPC   PO457096  25.312  17.554   5.853
 9468POPC   GL157097  25.232  17.462   6.153
 9468POPC   GL257098  25.212  17.662   6.153
 9468POPC   C1A57099  25.236  17.548   6.453
 9468POPC   D2A57100  25.287  17.554   6.753
 9468POPC   C3A57101  25.230  17.472   7.053
 9468POPC   C4A57102  25.273  17.468   7.353
 9468POPC   C1B57103  25.256  17.716   6.453
 9468POPC   C2B57104  25.291  17.792   6.753
 9468POPC   C3B57105  25.231  17.775   7.053
 9468POPC   C4B57106  25.253  17.786   7.353
 9469POPC   NC357107  12.836  33.783   5.553
 9469POPC   PO457108  12.879  33.774   5.853
 9469POPC   GL157109  12.832  33.778   6.153
 9469POPC   GL257110  12.730  33.863   6.153
 9469POPC   C1A57111  12.849  33.751   6.453
 9469POPC   D2A57112  12.839  33.828   6.753
 9469POPC   C3A57113  12.878  33.760   7.053
 9469POPC   C4A57114  12.810  33.844   7.353
 9469POPC   C1B57115  12.602  33.910   6.453
 9469POPC   C2B57116  12.678  33.935   6.753
 9469POPC   C3B57117  12.651  33.958   7.053
 9469POPC   C4B57118  12.687  33.925   7.353
 9470POPC   NC357119  30.695   2.003   5.553
 9470POPC   PO457120  30.678   1.992   5.853
 9470POPC   GL157121  30.661   2.005   6.153
 9470POPC   GL257122  30.772   1.984   6.153
 9470POPC   C1A57123  30.664   1.998   6.453
 9470POPC   D2A57124  30.745   2.026   6.753
 9470POPC   C3A57125  30.737   1.974   7.053
 9470POPC   C4A57126  30.688   2.017   7.353
 9470POPC   C1B57127  30.949   1.889   6.453
 9470POPC   C2B57128  30.911   1.878   6.753
 9470POPC   C3B57129  30.969   1.952   7.053
 9470POPC   C4B57130  30.937   1.952   7.353
 9471POPC   NC357131  22.143   2.809   5.553
 9471POPC   PO457132  22.139   2.733   5.853
 9471POPC   GL157133  22.202   2.798   6.153
 9471POPC   GL257134  22.208   2.655   6.153
 9471POPC   C1A57135  22.150   2.768   6.453
 9471POPC   D2A57136  22.167   2.760   6.753
 9471POPC   C3A57137  22.166   2.780   7.053
 9471POPC   C4A57138  22.153   2.729   7.353
 9471POPC   C1B57139  22.221   2.511   6.453
 9471POPC   C2B57140  22.219   2.480   6.753
 9471POPC   C3B57141  22.226   2.486   7.053
 9471POPC   C4B57142  22.221   2.528   7.353
 9472POPC   NC357143  22.113  33.036   5.553
 9472POPC   PO457144  22.156  33.016   5.853
 9472POPC   GL157145  22.138  33.039   6.153
 9472POPC   GL257146  22.104  32.940   6.153
 9472POPC   C1A57147  22.168  33.055   6.453
 9472POPC   D2A57148  22.191  33.059   6.753
 9472POPC   C3A57149  22.200  33.031   7.053
 9472POPC   C4A57150  22.198  33.038   7.353
 9472POPC   C1B57151  22.067  32.864   6.453
 9472POPC   C2B57152  22.025  32.863   6.753
 9472POPC   C3B57153  22.000  32.851   7.053
 9472POPC   C4B57154  22.018  32.767   7.353
 9473POPC   NC357155  26.038  10.571   5.553
 9473POPC   PO457156  26.083  10.525   5.853
 9473POPC   GL157157  26.069  10.555   6.153
 9473POPC   GL257158  26.137  10.593   6.153
 9473POPC   C1A57159  26.049  10.534   6.453
 9473POPC   D2A57160  26.047  10.537   6.753
 9473POPC   C3A57161  26.000  10.491   7.053
 9473POPC   C4A57162  26.079  10.500   7.353
 9473POPC   C1B57163  26.223  10.642   6.453
 9473POPC   C2B57164  26.227  10.624   6.753
 9473POPC   C3B57165  26.271  10.679   7.053
 9473POPC   C4B57166  26.244  10.618   7.353
 9474POPC   NC357167  40.812  25.252   5.553
 9474POPC   PO457168  40.750  25.218   5.853
 9474POPC   GL157169  40.761  25.272   6.153
 9474POPC   GL257170  40.816  25.143   6.153
 9474POPC   C1A57171  40.756  25.285   6.453
 9474POPC   D2A57172  40.762  25.244   6.753
 9474POPC   C3A57173  40.742  25.308   7.053
 9474POPC   C4A57174  40.802  25.296   7.353
 9474POPC   C1B57175  40.907  25.100   6.453
 9474POPC   C2B57176  40.958  25.026   6.753
 9474POPC   C3B57177  40.930  25.104   7.053
 9474POPC   C4B57178  40.909  25.058   7.353
 9475POPC   NC357179  25.297  22.143   5.553
 9475POPC   PO457180  25.305  22.175   5.853
 9475POPC   GL157181  25.241  22.195   6.153
 9475POPC   GL257182  25.286  22.015   6.153
 9475POPC   C1A57183  25.256  22.137   6.453
 9475POPC   D2A57184  25.256  22.188   6.753
 9475POPC   C3A57185  25.266  22.150   7.053
 9475POPC   C4A57186  25.299  22.199   7.353
 9475POPC   C1B57187  25.369  21.969   6.453
 9475POPC   C2B57188  25.390  21.957   6.753
 9475POPC   C3B57189  25.383  21.910   7.053
 9475POPC   C4B57190  25.315  21.981   7.353
 9476POPC   NC357191  18.236  43.883   5.553
 9476POPC   PO457192  18.278  43.929   5.853
 9476POPC   GL157193  18.242  43.839   6.153
 9476POPC   GL257194  18.197  43.906   6.153
 9476POPC   C1A57195  18.250  43.872   6.453
 9476POPC   D2A57196  18.252  43.925   6.753
 9476POPC   C3A57197  18.239  43.905   7.053
 9476POPC   C4A57198  18.309  43.913   7.353
 9476POPC   C1B57199  18.104  44.022   6.453
 9476POPC   C2B57200  18.017  44.047   6.753
 9476POPC   C3B57201  18.104  44.051   7.053
 9476POPC   C4B57202  18.076  43.995   7.353
 9477POPC   NC357203  22.976  37.710   5.553
 9477POPC   PO457204  22.905  37.666   5.853
 9477POPC   GL157205  22.890  37.722   6.153
 9477POPC   GL257206  22.926  37.575   6.153
 9477POPC   C1A57207  22.975  37.722   6.453
 9477POPC   D2A57208  22.938  37.689   6.753
 9477POPC   C3A57209  22.981  37.660   7.053
 9477POPC   C4A57210  22.927  37.677   7.353
 9477POPC   C1B57211  22.896  37.420   6.453
 9477POPC   C2B57212  22.944  37.467   6.753
 9477POPC   C3B57213  22.958  37.391   7.053
 9477POPC   C4B57214  22.943  37.427   7.353
 9478POPC   NC357215   9.012  17.488   5.553
 9478POPC   PO457216   8.996  17.494   5.853
 9478POPC   GL157217   9.021  17.528   6.153
 9478POPC   GL257218   8.879  17.513   6.153
 9478POPC   C1A57219   8.943  17.557   6.453
 9478POPC   D2A57220   8.934  17.463   6.753
 9478POPC   C3A57221   8.982  17.481   7.053
 9478POPC   C4A57222   8.995  17.506   7.353
 9478POPC   C1B57223   8.697  17.553   6.453
 9478POPC   C2B57224   8.733  17.562   6.753
 9478POPC   C3B57225   8.742  17.571   7.053
 9478POPC   C4B57226   8.741  17.526   7.353
 9479POPC   NC357227  29.142  10.503   5.553
 9479POPC   PO457228  29.184  10.549   5.853
 9479POPC   GL157229  29.129  10.529   6.153
 9479POPC   GL257230  29.021  10.600   6.153
 9479POPC   C1A57231  29.136  10.527   6.453
 9479POPC   D2A57232  29.160  10.516   6.753
 9479POPC   C3A57233  29.190  10.564   7.053
 9479POPC   C4A57234  29.173  10.518   7.353
 9479POPC   C1B57235  28.919  10.548   6.453
 9479POPC   C2B57236  28.859  10.566   6.753
 9479POPC   C3B57237  28.912  10.618   7.053
 9479POPC   C4B57238  28.934  10.566   7.353
 9480POPC   NC357239  12.062  13.580   5.553
 9480POPC   PO457240  12.076  13.677   5.853
 9480POPC   GL157241  12.063  13.618   6.153
 9480POPC   GL257242  12.059  13.713   6.153
 9480POPC   C1A57243  12.075  13.581   6.453
 9480POPC   D2A57244  12.124  13.668   6.753
 9480POPC   C3A57245  12.047  13.641   7.053
 9480POPC   C4A57246  12.110  13.605   7.353
 9480POPC   C1B57247  11.964  13.827   6.453
 9480POPC   C2B57248  11.977  13.814   6.753
 9480POPC   C3B57249  11.960  13.825   7.053
 9480POPC   C4B57250  11.936  13.880   7.353
 9481POPC   NC357251  24.461  42.352   5.553
 9481POPC   PO457252  24.481  42.292   5.853
 9481POPC   GL157253  24.484  42.313   6.153
 9481POPC   GL257254  24.609  42.230   6.153
 9481POPC   C1A57255  24.498  42.340   6.453
 9481POPC   D2A57256  24.470  42.355   6.753
 9481POPC   C3A57257  24.531  42.354   7.053
 9481POPC   C4A57258  24.479  42.362   7.353
 9481POPC   C1B57259  24.724  42.134   6.453
 9481POPC   C2B57260  24.695  42.210   6.753
 9481POPC   C3B57261  24.630  42.183   7.053
 9481POPC   C4B57262  24.699  42.132   7.353
 9482POPC   NC357263  33.073  13.657   5.553
 9482POPC   PO457264  33.041  13.673   5.853
 9482POPC   GL157265  33.015  13.634   6.153
 9482POPC   GL257266  33.073  13.755   6.153
 9482POPC   C1A57267  33.005  13.634   6.453
 9482POPC   D2A57268  33.046  13.656   6.753
 9482POPC   C3A57269  33.021  13.642   7.053
 9482POPC   C4A57270  33.065  13.596   7.353
 9482POPC   C1B57271  33.114  13.891   6.453
 9482POPC   C2B57272  33.058  13.894   6.753
 9482POPC   C3B57273  33.070  13.892   7.053
 9482POPC   C4B57274  33.058  13.859   7.353
 9483POPC   NC357275   7.464  29.909   5.553
 9483POPC   PO457276   7.378  29.903   5.853
 9483POPC   GL157277   7.401  29.903   6.153
 9483POPC   GL257278   7.303  29.873   6.153
 9483POPC   C1A57279   7.390  29.944   6.453
 9483POPC   D2A57280   7.408  29.941   6.753
 9483POPC   C3A57281   7.455  29.881   7.053
 9483POPC   C4A57282   7.401  29.920   7.353
 9483POPC   C1B57283   7.161  29.795   6.453
 9483POPC   C2B57284   7.222  29.832   6.753
 9483POPC   C3B57285   7.223  29.811   7.053
 9483POPC   C4B57286   7.184  29.793   7.353
 9484POPC   NC357287   3.515  38.419   5.553
 9484POPC   PO457288   3.528  38.460   5.853
 9484POPC   GL157289   3.536  38.502   6.153
 9484POPC   GL257290   3.590  38.518   6.153
 9484POPC   C1A57291   3.587  38.499   6.453
 9484POPC   D2A57292   3.545  38.481   6.753
 9484POPC   C3A57293   3.515  38.455   7.053
 9484POPC   C4A57294   3.534  38.407   7.353
 9484POPC   C1B57295   3.657  38.715   6.453
 9484POPC   C2B57296   3.688  38.691   6.753
 9484POPC   C3B57297   3.645  38.662   7.053
 9484POPC   C4B57298   3.618  38.675   7.353
 9485POPC   NC357299  36.867  39.199   5.553
 9485POPC   PO457300  36.888  39.252   5.853
 9485POPC   GL157301  36.906  39.210   6.153
 9485POPC   GL257302  37.049  39.106   6.153
 9485POPC   C1A57303  36.915  39.264   6.453
 9485POPC   D2A57304  36.916  39.217   6.753
 9485POPC   C3A57305  36.913  39.193   7.053
 9485POPC   C4A57306  36.899  39.279   7.353
 9485POPC   C1B57307  37.057  39.121   6.453
 9485POPC   C2B57308  37.117  39.033   6.753
 9485POPC   C3B57309  37.095  39.069   7.053
 9485POPC   C4B57310  37.128  39.050   7.353
 9486POPC   NC357311  36.090  42.338   5.553
 9486POPC   PO457312  36.138  42.371   5.853
 9486POPC   GL157313  36.168  42.293   6.153
 9486POPC   GL257314  36.271  42.290   6.153
 9486POPC   C1A57315  36.120  42.301   6.453
 9486POPC   D2A57316  36.135  42.322   6.753
 9486POPC   C3A57317  36.098  42.311   7.053
 9486POPC   C4A57318  36.083  42.297   7.353
 9486POPC   C1B57319  36.384  42.296   6.453
 9486POPC   C2B57320  36.363  42.249   6.753
 9486POPC   C3B57321  36.386  42.262   7.053
 9486POPC   C4B57322  36.346  42.260   7.353
 9487POPC   NC357323  12.901   2.729   5.553
 9487POPC   PO457324  12.901   2.802   5.853
 9487POPC   GL157325  12.888   2.719   6.153
 9487POPC   GL257326  12.763   2.779   6.153
 9487POPC   C1A57327  12.850   2.719   6.453
 9487POPC   D2A57328  12.809   2.749   6.753
 9487POPC   C3A57329  12.874   2.814   7.053
 9487POPC   C4A57330  12.832   2.810   7.353
 9487POPC   C1B57331  12.572   2.818   6.453
 9487POPC   C2B57332  12.666   2.804   6.753
 9487POPC   C3B57333  12.640   2.807   7.053
 9487POPC   C4B57334  12.624   2.827   7.353
 9488POPC   NC357335  10.545  12.096   5.553
 9488POPC   PO457336  10.561  12.120   5.853
 9488POPC   GL157337  10.532  12.064   6.153
 9488POPC   GL257338  10.479  11.946   6.153
 9488POPC   C1A57339  10.518  12.084   6.453
 9488POPC   D2A57340  10.566  12.095   6.753
 9488POPC   C3A57341  10.560  12.114   7.053
 9488POPC   C4A57342  10.547  12.111   7.353
 9488POPC   C1B57343  10.339  11.824   6.453
 9488POPC   C2B57344  10.388  11.906   6.753
 9488POPC   C3B57345  10.405  11.845   7.053
 9488POPC   C4B57346  10.411  11.827   7.353
 9489POPC   NC357347  25.245  19.069   5.553
 9489POPC   PO457348  25.254  19.040   5.853
 9489POPC   GL157349  25.298  19.044   6.153
 9489POPC   GL257350  25.382  19.020   6.153
 9489POPC   C1A57351  25.285  19.057   6.453
 9489POPC   D2A57352  25.225  19.076   6.753
 9489POPC   C3A57353  25.249  19.018   7.053
 9489POPC   C4A57354  25.275  19.094   7.353
 9489POPC   C1B57355  25.500  18.914   6.453
 9489POPC   C2B57356  25.497  18.901   6.753
 9489POPC   C3B57357  25.527  18.901   7.053
 9489POPC   C4B57358  25.481  18.935   7.353
 9490POPC   NC357359  20.622  36.096   5.553
 9490POPC   PO457360  20.653  36.083   5.853
 9490POPC   GL157361  20.636  36.085   6.153
 9490POPC   GL257362  20.629  36.219   6.153
 9490POPC   C1A57363  20.581  36.159   6.453
 9490POPC   D2A57364  20.624  36.130   6.753
 9490POPC   C3A57365  20.588  36.124   7.053
 9490POPC   C4A57366  20.619  36.176   7.353
 9490POPC   C1B57367  20.733  36.294   6.453
 9490POPC   C2B57368  20.740  36.317   6.753
 9490POPC   C3B57369  20.744  36.319   7.053
 9490POPC   C4B57370  20.696  36.306   7.353
 9491POPC   NC357371  33.034  40.817   5.553
 9491POPC   PO457372  33.001  40.806   5.853
 9491POPC   GL157373  33.033  40.810   6.153
 9491POPC   GL257374  33.066  40.922   6.153
 9491POPC   C1A57375  32.977  40.768   6.453
 9491POPC   D2A57376  33.014  40.826   6.753
 9491POPC   C3A57377  33.008  40.769   7.053
 9491POPC   C4A57378  33.044  40.741   7.353
 9491POPC   C1B57379  33.135  40.985   6.453
 9491POPC   C2B57380  33.096  41.026   6.753
 9491POPC   C3B57381  33.138  41.033   7.053
 9491POPC   C4B57382  33.107  41.034   7.353
 9492POPC   NC357383  33.054  12.854   5.553
 9492POPC   PO457384  32.981  12.892   5.853
 9492POPC   GL157385  33.046  12.879   6.153
 9492POPC   GL257386  33.041  12.693   6.153
 9492POPC   C1A57387  33.041  12.807   6.453
 9492POPC   D2A57388  33.018  12.803   6.753
 9492POPC   C3A57389  33.022  12.864   7.053
 9492POPC   C4A57390  32.975  12.888   7.353
 9492POPC   C1B57391  32.991  12.579   6.453
 9492POPC   C2B57392  32.972  12.651   6.753
 9492POPC   C3B57393  32.943  12.626   7.053
 9492POPC   C4B57394  32.960  12.615   7.353
 9493POPC   NC357395   0.487  42.352   5.553
 9493POPC   PO457396   0.475  42.291   5.853
 9493POPC   GL157397   0.414  42.382   6.153
 9493POPC   GL257398   0.586  42.444   6.153
 9493POPC   C1A57399   0.424  42.350   6.453
 9493POPC   D2A57400   0.406  42.382   6.753
 9493POPC   C3A57401   0.483  42.384   7.053
 9493POPC   C4A57402   0.436  42.334   7.353
 9493POPC   C1B57403   0.686  42.481   6.453
 9493POPC   C2B57404   0.689  42.416   6.753
 9493POPC   C3B57405   0.707  42.467   7.053
 9493POPC   C4B57406   0.698  42.430   7.353
 9494POPC   NC357407  35.382  12.047   5.553
 9494POPC   PO457408  35.370  12.064   5.853
 9494POPC   GL157409  35.348  12.030   6.153
 9494POPC   GL257410  35.259  11.941   6.153
 9494POPC   C1A57411  35.352  12.101   6.453
 9494POPC   D2A57412  35.315  12.120   6.753
 9494POPC   C3A57413  35.366  12.033   7.053
 9494POPC   C4A57414  35.374  12.084   7.353
 9494POPC   C1B57415  35.150  11.867   6.453
 9494POPC   C2B57416  35.160  11.921   6.753
 9494POPC   C3B57417  35.184  11.914   7.053
 9494POPC   C4B57418  35.169  11.929   7.353
 9495POPC   NC357419  20.585  39.996   5.553
 9495POPC   PO457420  20.659  39.971   5.853
 9495POPC   GL157421  20.600  39.965   6.153
 9495POPC   GL257422  20.514  40.037   6.153
 9495POPC   C1A57423  20.566  40.017   6.453
 9495POPC   D2A57424  20.575  40.028   6.753
 9495POPC   C3A57425  20.617  40.008   7.053
 9495POPC   C4A57426  20.601  39.993   7.353
 9495POPC   C1B57427  20.345  40.053   6.453
 9495POPC   C2B57428  20.366  40.073   6.753
 9495POPC   C3B57429  20.380  40.065   7.053
 9495POPC   C4B57430  20.390  40.111   7.353
 9496POPC   NC357431  15.934  19.021   5.553
 9496POPC   PO457432  16.001  19.103   5.853
 9496POPC   GL157433  15.952  19.072   6.153
 9496POPC   GL257434  15.994  19.200   6.153
 9496POPC   C1A57435  16.000  19.045   6.453
 9496POPC   D2A57436  15.921  19.088   6.753
 9496POPC   C3A57437  15.964  19.044   7.053
 9496POPC   C4A57438  15.929  19.064   7.353
 9496POPC   C1B57439  16.085  19.243   6.453
 9496POPC   C2B57440  16.067  19.217   6.753
 9496POPC   C3B57441  16.092  19.299   7.053
 9496POPC   C4B57442  16.084  19.269   7.353
 9497POPC   NC357443  19.027  44.646   5.553
 9497POPC   PO457444  19.065  44.654   5.853
 9497POPC   GL157445  19.034  44.665   6.153
 9497POPC   GL257446  19.197  44.612   6.153
 9497POPC   C1A57447  19.013  44.647   6.453
 9497POPC   D2A57448  19.046  44.632   6.753
 9497POPC   C3A57449  19.013  44.704   7.053
 9497POPC   C4A57450  19.019  44.625   7.353
 9497POPC   C1B57451  19.241  44.475   6.453
 9497POPC   C2B57452  19.301  44.476   6.753
 9497POPC   C3B57453  19.283  44.478   7.053
 9497POPC   C4B57454  19.238  44.497   7.353
 9498POPC   NC357455  36.094  33.049   5.553
 9498POPC   PO457456  36.113  33.071   5.853
 9498POPC   GL157457  36.082  33.057   6.153
 9498POPC   GL257458  36.259  33.039   6.153
 9498POPC   C1A57459  36.097  32.997   6.453
 9498POPC   D2A57460  36.173  33.057   6.753
 9498POPC   C3A57461  36.129  32.991   7.053
 9498POPC   C4A57462  36.160  33.002   7.353
 9498POPC   C1B57463  36.393  33.129   6.453
 9498POPC   C2B57464  36.375  33.178   6.753
 9498POPC   C3B57465  36.393  33.080   7.053
 9498POPC   C4B57466  36.403  33.080   7.353
 9499POPC   NC357467   2.746  44.710   5.553
 9499POPC   PO457468   2.778  44.643   5.853
 9499POPC   GL157469   2.731  44.712   6.153
 9499POPC   GL257470   2.704  44.739   6.153
 9499POPC   C1A57471   2.726  44.709   6.453
 9499POPC   D2A57472   2.808  44.671   6.753
 9499POPC   C3A57473   2.783  44.702   7.053
 9499POPC   C4A57474   2.758  44.623   7.353
 9499POPC   C1B57475   2.623  44.827   6.453
 9499POPC   C2B57476   2.554  44.813   6.753
 9499POPC   C3B57477   2.556  44.803   7.053
 9499POPC   C4B57478   2.577  44.806   7.353
 9500POPC   NC357479   4.284   8.191   5.553
 9500POPC   PO457480   4.273   8.167   5.853
 9500POPC   GL157481   4.361   8.195   6.153
 9500POPC   GL257482   4.366   8.072   6.153
 9500POPC   C1A57483   4.302   8.161   6.453
 9500POPC   D2A57484   4.289   8.229   6.753
 9500POPC   C3A57485   4.311   8.150   7.053
 9500POPC   C4A57486   4.310   8.204   7.353
 9500POPC   C1B57487   4.463   8.052   6.453
 9500POPC   C2B57488   4.482   8.038   6.753
 9500POPC   C3B57489   4.514   8.019   7.053
 9500POPC   C4B57490   4.490   8.048   7.353
 9501POPC   NC357491  27.592  38.494   5.553
 9501POPC   PO457492  27.546  38.439   5.853
 9501POPC   GL157493  27.575  38.491   6.153
 9501POPC   GL257494  27.438  38.507   6.153
 9501POPC   C1A57495  27.626  38.452   6.453
 9501POPC   D2A57496  27.593  38.415   6.753
 9501POPC   C3A57497  27.585  38.421   7.053
 9501POPC   C4A57498  27.633  38.451   7.353
 9501POPC   C1B57499  27.334  38.588   6.453
 9501POPC   C2B57500  27.362  38.596   6.753
 9501POPC   C3B57501  27.334  38.531   7.053
 9501POPC   C4B57502  27.400  38.618   7.353
 9502POPC   NC357503  19.074  38.444   5.553
 9502POPC   PO457504  19.100  38.468   5.853
 9502POPC   GL157505  19.091  38.446   6.153
 9502POPC   GL257506  18.950  38.380   6.153
 9502POPC   C1A57507  19.033  38.493   6.453
 9502POPC   D2A57508  19.086  38.481   6.753
 9502POPC   C3A57509  19.070  38.490   7.053
 9502POPC   C4A57510  19.017  38.412   7.353
 9502POPC   C1B57511  18.880  38.288   6.453
 9502POPC   C2B57512  18.889  38.342   6.753
 9502POPC   C3B57513  18.827  38.292   7.053
 9502POPC   C4B57514  18.872  38.328   7.353
 9503POPC   NC357515  23.700  12.891   5.553
 9503POPC   PO457516  23.666  12.860   5.853
 9503POPC   GL157517  23.751  12.894   6.153
 9503POPC   GL257518  23.605  12.789   6.153
 9503POPC   C1A57519  23.720  12.897   6.453
 9503POPC   D2A57520  23.730  12.809   6.753
 9503POPC   C3A57521  23.719  12.809   7.053
 9503POPC   C4A57522  23.754  12.888   7.353
 9503POPC   C1B57523  23.443  12.781   6.453
 9503POPC   C2B57524  23.488  12.766   6.753
 9503POPC   C3B57525  23.510  12.773   7.053
 9503POPC   C4B57526  23.435  12.807   7.353
 9504POPC   NC357527  29.910  12.102   5.553
 9504POPC   PO457528  29.965  12.123   5.853
 9504POPC   GL157529  29.950  12.085   6.153
 9504POPC   GL257530  30.051  12.083   6.153
 9504POPC   C1A57531  29.924  12.112   6.453
 9504POPC   D2A57532  29.928  12.076   6.753
 9504POPC   C3A57533  29.928  12.057   7.053
 9504POPC   C4A57534  29.967  12.088   7.353
 9504POPC   C1B57535  30.146  12.065   6.453
 9504POPC   C2B57536  30.201  12.011   6.753
 9504POPC   C3B57537  30.129  12.077   7.053
 9504POPC   C4B57538  30.178  12.005   7.353
 9505POPC   NC357539  27.550  19.056   5.553
 9505POPC   PO457540  27.558  19.089   5.853
 9505POPC   GL157541  27.596  19.095   6.153
 9505POPC   GL257542  27.508  19.162   6.153
 9505POPC   C1A57543  27.608  19.102   6.453
 9505POPC   D2A57544  27.579  19.033   6.753
 9505POPC   C3A57545  27.601  19.057   7.053
 9505POPC   C4A57546  27.572  19.079   7.353
 9505POPC   C1B57547  27.533  19.295   6.453
 9505POPC   C2B57548  27.467  19.261   6.753
 9505POPC   C3B57549  27.474  19.327   7.053
 9505POPC   C4B57550  27.498  19.250   7.353
 9506POPC   NC357551  29.103   9.788   5.553
 9506POPC   PO457552  29.098   9.756   5.853
 9506POPC   GL157553  29.138   9.783   6.153
 9506POPC   GL257554  29.001   9.684   6.153
 9506POPC   C1A57555  29.154   9.748   6.453
 9506POPC   D2A57556  29.188   9.766   6.753
 9506POPC   C3A57557  29.098   9.772   7.053
 9506POPC   C4A57558  29.118   9.769   7.353
 9506POPC   C1B57559  28.944   9.664   6.453
 9506POPC   C2B57560  28.864   9.697   6.753
 9506POPC   C3B57561  28.857   9.637   7.053
 9506POPC   C4B57562  28.926   9.704   7.353
 9507POPC   NC357563  43.888   2.758   5.553
 9507POPC   PO457564  43.895   2.726   5.853
 9507POPC   GL157565  43.847   2.800   6.153
 9507POPC   GL257566  43.944   2.848   6.153
 9507POPC   C1A57567  43.890   2.805   6.453
 9507POPC   D2A57568  43.907   2.745   6.753
 9507POPC   C3A57569  43.880   2.731   7.053
 9507POPC   C4A57570  43.860   2.750   7.353
 9507POPC   C1B57571  43.910   3.031   6.453
 9507POPC   C2B57572  43.886   3.047   6.753
 9507POPC   C3B57573  43.946   2.967   7.053
 9507POPC   C4B57574  43.889   2.991   7.353
 9508POPC   NC357575   9.795  39.187   5.553
 9508POPC   PO457576   9.769  39.242   5.853
 9508POPC   GL157577   9.798  39.232   6.153
 9508POPC   GL257578   9.627  39.295   6.153
 9508POPC   C1A57579   9.794  39.202   6.453
 9508POPC   D2A57580   9.768  39.235   6.753
 9508POPC   C3A57581   9.783  39.254   7.053
 9508POPC   C4A57582   9.771  39.225   7.353
 9508POPC   C1B57583   9.587  39.448   6.453
 9508POPC   C2B57584   9.641  39.471   6.753
 9508POPC   C3B57585   9.602  39.463   7.053
 9508POPC   C4B57586   9.557  39.431   7.353
 9509POPC   NC357587  37.685   8.232   5.553
 9509POPC   PO457588  37.648   8.202   5.853
 9509POPC   GL157589  37.640   8.246   6.153
 9509POPC   GL257590  37.806   8.180   6.153
 9509POPC   C1A57591  37.704   8.151   6.453
 9509POPC   D2A57592  37.663   8.196   6.753
 9509POPC   C3A57593  37.682   8.166   7.053
 9509POPC   C4A57594  37.671   8.211   7.353
 9509POPC   C1B57595  37.884   8.119   6.453
 9509POPC   C2B57596  37.912   8.136   6.753
 9509POPC   C3B57597  37.917   8.087   7.053
 9509POPC   C4B57598  37.961   8.098   7.353
 9510POPC   NC357599  36.083   8.999   5.553
 9510POPC   PO457600  36.145   8.973   5.853
 9510POPC   GL157601  36.105   8.925   6.153
 9510POPC   GL257602  35.983   8.942   6.153
 9510POPC   C1A57603  36.093   8.929   6.453
 9510POPC   D2A57604  36.157   8.923   6.753
 9510POPC   C3A57605  36.109   8.999   7.053
 9510POPC   C4A57606  36.078   9.006   7.353
 9510POPC   C1B57607  35.904   8.967   6.453
 9510POPC   C2B57608  35.888   8.919   6.753
 9510POPC   C3B57609  35.868   8.943   7.053
 9510POPC   C4B57610  35.862   8.949   7.353
 9511POPC   NC357611   3.562  29.099   5.553
 9511POPC   PO457612   3.497  29.156   5.853
 9511POPC   GL157613   3.559  29.117   6.153
 9511POPC   GL257614   3.467  29.050   6.153
 9511POPC   C1A57615   3.561  29.120   6.453
 9511POPC   D2A57616   3.582  29.096   6.753
 9511POPC   C3A57617   3.501  29.170   7.053
 9511POPC   C4A57618   3.569  29.111   7.353
 9511POPC   C1B57619   3.345  28.967   6.453
 9511POPC   C2B57620   3.363  28.942   6.753
 9511POPC   C3B57621   3.333  28.929   7.053
 9511POPC   C4B57622   3.414  28.984   7.353
 9512POPC   NC357623   2.809   5.142   5.553
 9512POPC   PO457624   2.801   5.101   5.853
 9512POPC   GL157625   2.752   5.048   6.153
 9512POPC   GL257626   2.677   5.156   6.153
 9512POPC   C1A57627   2.739   5.076   6.453
 9512POPC   D2A57628   2.721   5.055   6.753
 9512POPC   C3A57629   2.795   5.073   7.053
 9512POPC   C4A57630   2.746   5.086   7.353
 9512POPC   C1B57631   2.615   5.309   6.453
 9512POPC   C2B57632   2.674   5.353   6.753
 9512POPC   C3B57633   2.670   5.298   7.053
 9512POPC   C4B57634   2.656   5.325   7.353
 9513POPC   NC357635  12.057   1.165   5.553
 9513POPC   PO457636  12.056   1.224   5.853
 9513POPC   GL157637  12.109   1.234   6.153
 9513POPC   GL257638  12.062   1.335   6.153
 9513POPC   C1A57639  12.122   1.225   6.453
 9513POPC   D2A57640  12.059   1.240   6.753
 9513POPC   C3A57641  12.124   1.226   7.053
 9513POPC   C4A57642  12.107   1.218   7.353
 9513POPC   C1B57643  11.955   1.437   6.453
 9513POPC   C2B57644  11.910   1.468   6.753
 9513POPC   C3B57645  11.971   1.484   7.053
 9513POPC   C4B57646  11.918   1.394   7.353
 9514POPC   NC357647   6.692  23.695   5.553
 9514POPC   PO457648   6.661  23.739   5.853
 9514POPC   GL157649   6.600  23.704   6.153
 9514POPC   GL257650   6.716  23.637   6.153
 9514POPC   C1A57651   6.694  23.665   6.453
 9514POPC   D2A57652   6.642  23.746   6.753
 9514POPC   C3A57653   6.618  23.690   7.053
 9514POPC   C4A57654   6.651  23.709   7.353
 9514POPC   C1B57655   6.719  23.491   6.453
 9514POPC   C2B57656   6.765  23.502   6.753
 9514POPC   C3B57657   6.763  23.441   7.053
 9514POPC   C4B57658   6.734  23.440   7.353
 9515POPC   NC357659  21.421  34.590   5.553
 9515POPC   PO457660  21.401  34.560   5.853
 9515POPC   GL157661  21.407  34.553   6.153
 9515POPC   GL257662  21.279  34.619   6.153
 9515POPC   C1A57663  21.393  34.556   6.453
 9515POPC   D2A57664  21.360  34.553   6.753
 9515POPC   C3A57665  21.404  34.599   7.053
 9515POPC   C4A57666  21.429  34.530   7.353
 9515POPC   C1B57667  21.198  34.649   6.453
 9515POPC   C2B57668  21.159  34.704   6.753
 9515POPC   C3B57669  21.174  34.637   7.053
 9515POPC   C4B57670  21.185  34.660   7.353
 9516POPC   NC357671  33.001  38.406   5.553
 9516POPC   PO457672  33.062  38.470   5.853
 9516POPC   GL157673  33.039  38.478   6.153
 9516POPC   GL257674  33.083  38.373   6.153
 9516POPC   C1A57675  33.055  38.433   6.453
 9516POPC   D2A57676  33.049  38.408   6.753
 9516POPC   C3A57677  33.047  38.429   7.053
 9516POPC   C4A57678  33.029  38.406   7.353
 9516POPC   C1B57679  33.221  38.296   6.453
 9516POPC   C2B57680  33.205  38.335   6.753
 9516POPC   C3B57681  33.188  38.256   7.053
 9516POPC   C4B57682  33.176  38.266   7.353
 9517POPC   NC357683  41.561  29.176   5.553
 9517POPC   PO457684  41.552  29.103   5.853
 9517POPC   GL157685  41.511  29.160   6.153
 9517POPC   GL257686  41.626  29.008   6.153
 9517POPC   C1A57687  41.512  29.125   6.453
 9517POPC   D2A57688  41.567  29.180   6.753
 9517POPC   C3A57689  41.575  29.109   7.053
 9517POPC   C4A57690  41.586  29.155   7.353
 9517POPC   C1B57691  41.636  28.883   6.453
 9517POPC   C2B57692  41.630  28.887   6.753
 9517POPC   C3B57693  41.669  28.875   7.053
 9517POPC   C4B57694  41.648  28.945   7.353
 9518POPC   NC357695   8.174  16.742   5.553
 9518POPC   PO457696   8.187  16.713   5.853
 9518POPC   GL157697   8.225  16.752   6.153
 9518POPC   GL257698   8.330  16.853   6.153
 9518POPC   C1A57699   8.191  16.728   6.453
 9518POPC   D2A57700   8.239  16.746   6.753
 9518POPC   C3A57701   8.217  16.779   7.053
 9518POPC   C4A57702   8.170  16.713   7.353
 9518POPC   C1B57703   8.395  16.921   6.453
 9518POPC   C2B57704   8.352  16.918   6.753
 9518POPC   C3B57705   8.415  16.955   7.053
 9518POPC   C4B57706   8.332  16.931   7.353
 9519POPC   NC357707  39.187  12.817   5.553
 9519POPC   PO457708  39.252  12.901   5.853
 9519POPC   GL157709  39.269  12.882   6.153
 9519POPC   GL257710  39.184  12.942   6.153
 9519POPC   C1A57711  39.185  12.811   6.453
 9519POPC   D2A57712  39.278  12.847   6.753
 9519POPC   C3A57713  39.220  12.863   7.053
 9519POPC   C4A57714  39.276  12.835   7.353
 9519POPC   C1B57715  39.207  13.094   6.453
 9519POPC   C2B57716  39.268  13.066   6.753
 9519POPC   C3B57717  39.212  13.147   7.053
 9519POPC   C4B57718  39.255  13.103   7.353
 9520POPC   NC357719  27.637  27.636   5.553
 9520POPC   PO457720  27.573  27.545   5.853
 9520POPC   GL157721  27.552  27.543   6.153
 9520POPC   GL257722  27.550  27.745   6.153
 9520POPC   C1A57723  27.561  27.571   6.453
 9520POPC   D2A57724  27.617  27.584   6.753
 9520POPC   C3A57725  27.560  27.575   7.053
 9520POPC   C4A57726  27.603  27.590   7.353
 9520POPC   C1B57727  27.479  27.841   6.453
 9520POPC   C2B57728  27.510  27.792   6.753
 9520POPC   C3B57729  27.490  27.861   7.053
 9520POPC   C4B57730  27.472  27.796   7.353
 9521POPC   NC357731  44.655   8.982   5.553
 9521POPC   PO457732  44.680   8.994   5.853
 9521POPC   GL157733  44.676   9.001   6.153
 9521POPC   GL257734  44.698   8.845   6.153
 9521POPC   C1A57735  44.680   8.931   6.453
 9521POPC   D2A57736  44.638   8.947   6.753
 9521POPC   C3A57737  44.642   8.991   7.053
 9521POPC   C4A57738  44.647   8.953   7.353
 9521POPC   C1B57739  44.697   8.761   6.453
 9521POPC   C2B57740  44.738   8.766   6.753
 9521POPC   C3B57741  44.751   8.714   7.053
 9521POPC   C4B57742  44.728   8.737   7.353
 9522POPC   NC357743  34.557  15.975   5.553
 9522POPC   PO457744  34.582  15.985   5.853
 9522POPC   GL157745  34.527  15.978   6.153
 9522POPC   GL257746  34.700  16.037   6.153
 9522POPC   C1A57747  34.548  15.991   6.453
 9522POPC   D2A57748  34.565  15.916   6.753
 9522POPC   C3A57749  34.528  15.910   7.053
 9522POPC   C4A57750  34.561  15.989   7.353
 9522POPC   C1B57751  34.748  16.141   6.453
 9522POPC   C2B57752  34.691  16.145   6.753
 9522POPC   C3B57753  34.764  16.145   7.053
 9522POPC   C4B57754  34.783  16.109   7.353
 9523POPC   NC357755  32.268  14.417   5.553
 9523POPC   PO457756  32.286  14.423   5.853
 9523POPC   GL157757  32.230  14.430   6.153
 9523POPC   GL257758  32.278  14.509   6.153
 9523POPC   C1A57759  32.295  14.407   6.453
 9523POPC   D2A57760  32.290  14.410   6.753
 9523POPC   C3A57761  32.289  14.366   7.053
 9523POPC   C4A57762  32.200  14.365   7.353
 9523POPC   C1B57763  32.302  14.671   6.453
 9523POPC   C2B57764  32.279  14.684   6.753
 9523POPC   C3B57765  32.262  14.648   7.053
 9523POPC   C4B57766  32.333  14.677   7.353
 9524POPC   NC357767  15.138   7.455   5.553
 9524POPC   PO457768  15.182   7.467   5.853
 9524POPC   GL157769  15.202   7.434   6.153
 9524POPC   GL257770  15.277   7.537   6.153
 9524POPC   C1A57771  15.169   7.459   6.453
 9524POPC   D2A57772  15.164   7.422   6.753
 9524POPC   C3A57773  15.197   7.416   7.053
 9524POPC   C4A57774  15.193   7.371   7.353
 9524POPC   C1B57775  15.348   7.611   6.453
 9524POPC   C2B57776  15.425   7.600   6.753
 9524POPC   C3B57777  15.361   7.577   7.053
 9524POPC   C4B57778  15.395   7.609   7.353
 9525POPC   NC357779  13.611   8.969   5.553
 9525POPC   PO457780  13.675   8.962   5.853
 9525POPC   GL157781  13.603   8.939   6.153
 9525POPC   GL257782  13.494   9.038   6.153
 9525POPC   C1A57783  13.612   8.987   6.453
 9525POPC   D2A57784  13.603   8.992   6.753
 9525POPC   C3A57785  13.664   9.007   7.053
 9525POPC   C4A57786  13.589   8.983   7.353
 9525POPC   C1B57787  13.498   9.196   6.453
 9525POPC   C2B57788  13.470   9.113   6.753
 9525POPC   C3B57789  13.452   9.189   7.053
 9525POPC   C4B57790  13.472   9.147   7.353
 9526POPC   NC357791   2.716  26.091   5.553
 9526POPC   PO457792   2.757  26.074   5.853
 9526POPC   GL157793   2.775  26.071   6.153
 9526POPC   GL257794   2.690  25.900   6.153
 9526POPC   C1A57795   2.749  26.055   6.453
 9526POPC   D2A57796   2.789  25.996   6.753
 9526POPC   C3A57797   2.797  26.061   7.053
 9526POPC   C4A57798   2.746  26.021   7.353
 9526POPC   C1B57799   2.619  25.869   6.453
 9526POPC   C2B57800   2.625  25.800   6.753
 9526POPC   C3B57801   2.561  25.811   7.053
 9526POPC   C4B57802   2.599  25.858   7.353
 9527POPC   NC357803  23.763  30.745   5.553
 9527POPC   PO457804  23.735  30.740   5.853
 9527POPC   GL157805  23.735  30.655   6.153
 9527POPC   GL257806  23.874  30.682   6.153
 9527POPC   C1A57807  23.671  30.659   6.453
 9527POPC   D2A57808  23.674  30.685   6.753
 9527POPC   C3A57809  23.717  30.668   7.053
 9527POPC   C4A57810  23.676  30.682   7.353
 9527POPC   C1B57811  23.924  30.713   6.453
 9527POPC   C2B57812  23.930  30.782   6.753
 9527POPC   C3B57813  23.988  30.741   7.053
 9527POPC   C4B57814  23.922  30.740   7.353
 9528POPC   NC357815   4.336  44.694   5.553
 9528POPC   PO457816   4.274  44.664   5.853
 9528POPC   GL157817   4.306  44.709   6.153
 9528POPC   GL257818   4.436  44.617   6.153
 9528POPC   C1A57819   4.313  44.636   6.453
 9528POPC   D2A57820   4.340  44.691   6.753
 9528POPC   C3A57821   4.363  44.647   7.053
 9528POPC   C4A57822   4.284  44.615   7.353
 9528POPC   C1B57823   4.540  44.629   6.453
 9528POPC   C2B57824   4.589  44.658   6.753
 9528POPC   C3B57825   4.568  44.617   7.053
 9528POPC   C4B57826   4.583  44.652   7.353
 9529POPC   NC357827  36.140   5.877   5.553
 9529POPC   PO457828  36.082   5.876   5.853
 9529POPC   GL157829  36.114   5.904   6.153
 9529POPC   GL257830  36.234   5.735   6.153
 9529POPC   C1A57831  36.091   5.885   6.453
 9529POPC   D2A57832  36.141   5.853   6.753
 9529POPC   C3A57833  36.164   5.862   7.053
 9529POPC   C4A57834  36.137   5.864   7.353
 9529POPC   C1B57835  36.288   5.641   6.453
 9529POPC   C2B57836  36.267   5.697   6.753
 9529POPC   C3B57837  36.319   5.679   7.053
 9529POPC   C4B57838  36.316   5.714   7.353
 9530POPC   NC357839   4.317  21.405   5.553
 9530POPC   PO457840   4.340  21.397   5.853
 9530POPC   GL157841   4.302  21.339   6.153
 9530POPC   GL257842   4.422  21.322   6.153
 9530POPC   C1A57843   4.274  21.423   6.453
 9530POPC   D2A57844   4.300  21.391   6.753
 9530POPC   C3A57845   4.348  21.358   7.053
 9530POPC   C4A57846   4.326  21.377   7.353
 9530POPC   C1B57847   4.518  21.294   6.453
 9530POPC   C2B57848   4.545  21.293   6.753
 9530POPC   C3B57849   4.502  21.230   7.053
 9530POPC   C4B57850   4.525  21.287   7.353
 9531POPC   NC357851  25.290  23.746   5.553
 9531POPC   PO457852  25.238  23.707   5.853
 9531POPC   GL157853  25.284  23.735   6.153
 9531POPC   GL257854  25.185  23.696   6.153
 9531POPC   C1A57855  25.242  23.754   6.453
 9531POPC   D2A57856  25.286  23.694   6.753
 9531POPC   C3A57857  25.252  23.685   7.053
 9531POPC   C4A57858  25.248  23.735   7.353
 9531POPC   C1B57859  24.993  23.785   6.453
 9531POPC   C2B57860  25.028  23.762   6.753
 9531POPC   C3B57861  25.005  23.772   7.053
 9531POPC   C4B57862  25.033  23.775   7.353
 9532POPC   NC357863   9.715  34.546   5.553
 9532POPC   PO457864   9.725  34.576   5.853
 9532POPC   GL157865   9.740  34.594   6.153
 9532POPC   GL257866   9.845  34.442   6.153
 9532POPC   C1A57867   9.727  34.587   6.453
 9532POPC   D2A57868   9.736  34.539   6.753
 9532POPC   C3A57869   9.750  34.609   7.053
 9532POPC   C4A57870   9.699  34.585   7.353
 9532POPC   C1B57871   9.868  34.432   6.453
 9532POPC   C2B57872   9.947  34.363   6.753
 9532POPC   C3B57873   9.906  34.393   7.053
 9532POPC   C4B57874   9.913  34.365   7.353
 9533POPC   NC357875  19.816  29.135   5.553
 9533POPC   PO457876  19.845  29.168   5.853
 9533POPC   GL157877  19.847  29.134   6.153
 9533POPC   GL257878  19.752  29.080   6.153
 9533POPC   C1A57879  19.796  29.181   6.453
 9533POPC   D2A57880  19.875  29.164   6.753
 9533POPC   C3A57881  19.851  29.141   7.053
 9533POPC   C4A57882  19.859  29.128   7.353
 9533POPC   C1B57883  19.545  29.082   6.453
 9533POPC   C2B57884  19.629  29.138   6.753
 9533POPC   C3B57885  19.544  29.068   7.053
 9533POPC   C4B57886  19.599  29.063   7.353
 9534POPC   NC357887  37.655  23.679   5.553
 9534POPC   PO457888  37.672  23.737   5.853
 9534POPC   GL157889  37.665  23.694   6.153
 9534POPC   GL257890  37.647  23.848   6.153
 9534POPC   C1A57891  37.680  23.719   6.453
 9534POPC   D2A57892  37.642  23.702   6.753
 9534POPC   C3A57893  37.650  23.753   7.053
 9534POPC   C4A57894  37.670  23.719   7.353
 9534POPC   C1B57895  37.648  23.964   6.453
 9534POPC   C2B57896  37.634  23.911   6.753
 9534POPC   C3B57897  37.609  24.002   7.053
 9534POPC   C4B57898  37.644  23.968   7.353
 9535POPC   NC357899  33.026   0.481   5.553
 9535POPC   PO457900  33.053   0.485   5.853
 9535POPC   GL157901  32.980   0.441   6.153
 9535POPC   GL257902  33.150   0.353   6.153
 9535POPC   C1A57903  33.073   0.428   6.453
 9535POPC   D2A57904  33.061   0.453   6.753
 9535POPC   C3A57905  33.039   0.388   7.053
 9535POPC   C4A57906  32.988   0.484   7.353
 9535POPC   C1B57907  33.189   0.285   6.453
 9535POPC   C2B57908  33.160   0.240   6.753
 9535POPC   C3B57909  33.213   0.246   7.053
 9535POPC   C4B57910  33.237   0.235   7.353
 9536POPC   NC357911   8.216  23.736   5.553
 9536POPC   PO457912   8.187  23.745   5.853
 9536POPC   GL157913   8.162  23.710   6.153
 9536POPC   GL257914   8.204  23.607   6.153
 9536POPC   C1A57915   8.235  23.750   6.453
 9536POPC   D2A57916   8.167  23.708   6.753
 9536POPC   C3A57917   8.151  23.674   7.053
 9536POPC   C4A57918   8.169  23.740   7.353
 9536POPC   C1B57919   8.171  23.460   6.453
 9536POPC   C2B57920   8.192  23.502   6.753
 9536POPC   C3B57921   8.166  23.449   7.053
 9536POPC   C4B57922   8.229  23.485   7.353
 9537POPC   NC357923   3.507  12.110   5.553
 9537POPC   PO457924   3.531  12.067   5.853
 9537POPC   GL157925   3.551  12.078   6.153
 9537POPC   GL257926   3.423  11.960   6.153
 9537POPC   C1A57927   3.584  12.123   6.453
 9537POPC   D2A57928   3.542  12.088   6.753
 9537POPC   C3A57929   3.588  12.104   7.053
 9537POPC   C4A57930   3.586  12.108   7.353
 9537POPC   C1B57931   3.318  11.896   6.453
 9537POPC   C2B57932   3.376  11.914   6.753
 9537POPC   C3B57933   3.383  11.972   7.053
 9537POPC   C4B57934   3.365  11.888   7.353
 9538POPC   NC357935  41.567  28.369   5.553
 9538POPC   PO457936  41.534  28.379   5.853
 9538POPC   GL157937  41.547  28.379   6.153
 9538POPC   GL257938  41.614  28.225   6.153
 9538POPC   C1A57939  41.530  28.391   6.453
 9538POPC   D2A57940  41.536  28.377   6.753
 9538POPC   C3A57941  41.588  28.404   7.053
 9538POPC   C4A57942  41.587  28.359   7.353
 9538POPC   C1B57943  41.722  28.188   6.453
 9538POPC   C2B57944  41.668  28.147   6.753
 9538POPC   C3B57945  41.722  28.154   7.053
 9538POPC   C4B57946  41.675  28.132   7.353
 9539POPC   NC357947  13.599  21.367   5.553
 9539POPC   PO457948  13.578  21.391   5.853
 9539POPC   GL157949  13.656  21.383   6.153
 9539POPC   GL257950  13.750  21.292   6.153
 9539POPC   C1A57951  13.591  21.413   6.453
 9539POPC   D2A57952  13.635  21.425   6.753
 9539POPC   C3A57953  13.664  21.434   7.053
 9539POPC   C4A57954  13.646  21.430   7.353
 9539POPC   C1B57955  13.806  21.198   6.453
 9539POPC   C2B57956  13.843  21.200   6.753
 9539POPC   C3B57957  13.785  21.249   7.053
 9539POPC   C4B57958  13.821  21.234   7.353
 9540POPC   NC357959  23.736  32.242   5.553
 9540POPC   PO457960  23.703  32.204   5.853
 9540POPC   GL157961  23.748  32.233   6.153
 9540POPC   GL257962  23.682  32.417   6.153
 9540POPC   C1A57963  23.667  32.281   6.453
 9540POPC   D2A57964  23.674  32.256   6.753
 9540POPC   C3A57965  23.687  32.234   7.053
 9540POPC   C4A57966  23.760  32.242   7.353
 9540POPC   C1B57967  23.674  32.450   6.453
 9540POPC   C2B57968  23.729  32.528   6.753
 9540POPC   C3B57969  23.748  32.544   7.053
 9540POPC   C4B57970  23.758  32.459   7.353
 9541POPC   NC357971  23.715  33.760   5.553
 9541POPC   PO457972  23.717  33.772   5.853
 9541POPC   GL157973  23.738  33.778   6.153
 9541POPC   GL257974  23.697  33.914   6.153
 9541POPC   C1A57975  23.751  33.765   6.453
 9541POPC   D2A57976  23.689  33.821   6.753
 9541POPC   C3A57977  23.743  33.772   7.053
 9541POPC   C4A57978  23.725  33.844   7.353
 9541POPC   C1B57979  23.556  33.982   6.453
 9541POPC   C2B57980  23.631  34.062   6.753
 9541POPC   C3B57981  23.580  34.031   7.053
 9541POPC   C4B57982  23.641  34.022   7.353
 9542POPC   NC357983   8.192  38.429   5.553
 9542POPC   PO457984   8.180  38.454   5.853
 9542POPC   GL157985   8.230  38.418   6.153
 9542POPC   GL257986   8.277  38.572   6.153
 9542POPC   C1A57987   8.201  38.424   6.453
 9542POPC   D2A57988   8.194  38.478   6.753
 9542POPC   C3A57989   8.161  38.467   7.053
 9542POPC   C4A57990   8.200  38.420   7.353
 9542POPC   C1B57991   8.285  38.643   6.453
 9542POPC   C2B57992   8.340  38.643   6.753
 9542POPC   C3B57993   8.283  38.728   7.053
 9542POPC   C4B57994   8.299  38.700   7.353
 9543POPC   NC357995  16.691  11.299   5.553
 9543POPC   PO457996  16.776  11.338   5.853
 9543POPC   GL157997  16.728  11.289   6.153
 9543POPC   GL257998  16.833  11.280   6.153
 9543POPC   C1A57999  16.715  11.271   6.453
 9543POPC   D2A58000  16.699  11.321   6.753
 9543POPC   C3A58001  16.742  11.318   7.053
 9543POPC   C4A58002  16.700  11.322   7.353
 9543POPC   C1B58003  17.028  11.306   6.453
 9543POPC   C2B58004  16.947  11.248   6.753
 9543POPC   C3B58005  16.989  11.297   7.053
 9543POPC   C4B58006  16.938  11.299   7.353
 9544POPC   NC358007   4.363  23.729   5.553
 9544POPC   PO458008   4.270  23.703   5.853
 9544POPC   GL158009   4.299  23.681   6.153
 9544POPC   GL258010   4.387  23.805   6.153
 9544POPC   C1A58011   4.274  23.752   6.453
 9544POPC   D2A58012   4.315  23.695   6.753
 9544POPC   C3A58013   4.331  23.754   7.053
 9544POPC   C4A58014   4.278  23.712   7.353
 9544POPC   C1B58015   4.466  23.963   6.453
 9544POPC   C2B58016   4.446  23.956   6.753
 9544POPC   C3B58017   4.446  23.888   7.053
 9544POPC   C4B58018   4.475  23.938   7.353
 9545POPC   NC358019  28.356  39.982   5.553
 9545POPC   PO458020  28.365  39.966   5.853
 9545POPC   GL158021  28.353  39.988   6.153
 9545POPC   GL258022  28.405  40.086   6.153
 9545POPC   C1A58023  28.383  40.017   6.453
 9545POPC   D2A58024  28.357  40.024   6.753
 9545POPC   C3A58025  28.394  39.984   7.053
 9545POPC   C4A58026  28.351  40.039   7.353
 9545POPC   C1B58027  28.538  40.203   6.453
 9545POPC   C2B58028  28.505  40.206   6.753
 9545POPC   C3B58029  28.448  40.234   7.053
 9545POPC   C4B58030  28.538  40.176   7.353
 9546POPC   NC358031  36.938  25.289   5.553
 9546POPC   PO458032  36.918  25.302   5.853
 9546POPC   GL158033  36.855  25.242   6.153
 9546POPC   GL258034  36.955  25.194   6.153
 9546POPC   C1A58035  36.948  25.221   6.453
 9546POPC   D2A58036  36.927  25.297   6.753
 9546POPC   C3A58037  36.882  25.238   7.053
 9546POPC   C4A58038  36.914  25.234   7.353
 9546POPC   C1B58039  36.983  25.056   6.453
 9546POPC   C2B58040  36.995  25.071   6.753
 9546POPC   C3B58041  37.067  25.052   7.053
 9546POPC   C4B58042  37.019  25.073   7.353
 9547POPC   NC358043   9.781  13.666   5.553
 9547POPC   PO458044   9.723  13.607   5.853
 9547POPC   GL158045   9.757  13.655   6.153
 9547POPC   GL258046   9.637  13.481   6.153
 9547POPC   C1A58047   9.768  13.641   6.453
 9547POPC   D2A58048   9.779  13.611   6.753
 9547POPC   C3A58049   9.774  13.589   7.053
 9547POPC   C4A58050   9.791  13.643   7.353
 9547POPC   C1B58051   9.569  13.473   6.453
 9547POPC   C2B58052   9.628  13.405   6.753
 9547POPC   C3B58053   9.602  13.453   7.053
 9547POPC   C4B58054   9.599  13.410   7.353
 9548POPC   NC358055  22.190  30.729   5.553
 9548POPC   PO458056  22.156  30.743   5.853
 9548POPC   GL158057  22.159  30.742   6.153
 9548POPC   GL258058  22.060  30.741   6.153
 9548POPC   C1A58059  22.183  30.723   6.453
 9548POPC   D2A58060  22.114  30.717   6.753
 9548POPC   C3A58061  22.203  30.741   7.053
 9548POPC   C4A58062  22.142  30.736   7.353
 9548POPC   C1B58063  21.965  30.716   6.453
 9548POPC   C2B58064  21.893  30.721   6.753
 9548POPC   C3B58065  21.914  30.780   7.053
 9548POPC   C4B58066  21.963  30.789   7.353
 9549POPC   NC358067  27.629  19.870   5.553
 9549POPC   PO458068  27.602  19.797   5.853
 9549POPC   GL158069  27.574  19.858   6.153
 9549POPC   GL258070  27.696  19.914   6.153
 9549POPC   C1A58071  27.560  19.818   6.453
 9549POPC   D2A58072  27.555  19.801   6.753
 9549POPC   C3A58073  27.577  19.793   7.053
 9549POPC   C4A58074  27.636  19.827   7.353
 9549POPC   C1B58075  27.826  19.881   6.453
 9549POPC   C2B58076  27.876  19.905   6.753
 9549POPC   C3B58077  27.787  19.899   7.053
 9549POPC   C4B58078  27.858  19.924   7.353
 9550POPC   NC358079  38.501  22.981   5.553
 9550POPC   PO458080  38.463  22.942   5.853
 9550POPC   GL158081  38.451  22.974   6.153
 9550POPC   GL258082  38.446  22.863   6.153
 9550POPC   C1A58083  38.419  22.968   6.453
 9550POPC   D2A58084  38.484  22.926   6.753
 9550POPC   C3A58085  38.486  22.915   7.053
 9550POPC   C4A58086  38.413  22.971   7.353
 9550POPC   C1B58087  38.587  22.726   6.453
 9550POPC   C2B58088  38.562  22.688   6.753
 9550POPC   C3B58089  38.494  22.673   7.053
 9550POPC   C4B58090  38.572  22.748   7.353
 9551POPC   NC358091  33.773  24.527   5.553
 9551POPC   PO458092  33.776  24.512   5.853
 9551POPC   GL158093  33.831  24.534   6.153
 9551POPC   GL258094  33.666  24.512   6.153
 9551POPC   C1A58095  33.788  24.452   6.453
 9551POPC   D2A58096  33.752  24.447   6.753
 9551POPC   C3A58097  33.807  24.447   7.053
 9551POPC   C4A58098  33.828  24.441   7.353
 9551POPC   C1B58099  33.609  24.597   6.453
 9551POPC   C2B58100  33.602  24.620   6.753
 9551POPC   C3B58101  33.598  24.562   7.053
 9551POPC   C4B58102  33.617  24.585   7.353
 9552POPC   NC358103  13.600  19.047   5.553
 9552POPC   PO458104  13.665  19.040   5.853
 9552POPC   GL158105  13.655  19.023   6.153
 9552POPC   GL258106  13.559  19.100   6.153
 9552POPC   C1A58107  13.644  19.103   6.453
 9552POPC   D2A58108  13.589  19.101   6.753
 9552POPC   C3A58109  13.607  19.063   7.053
 9552POPC   C4A58110  13.604  19.096   7.353
 9552POPC   C1B58111  13.437  19.263   6.453
 9552POPC   C2B58112  13.465  19.179   6.753
 9552POPC   C3B58113  13.433  19.196   7.053
 9552POPC   C4B58114  13.409  19.200   7.353
 9553POPC   NC358115  26.780  21.342   5.553
 9553POPC   PO458116  26.781  21.406   5.853
 9553POPC   GL158117  26.774  21.369   6.153
 9553POPC   GL258118  26.856  21.468   6.153
 9553POPC   C1A58119  26.806  21.352   6.453
 9553POPC   D2A58120  26.800  21.349   6.753
 9553POPC   C3A58121  26.828  21.404   7.053
 9553POPC   C4A58122  26.837  21.388   7.353
 9553POPC   C1B58123  26.815  21.596   6.453
 9553POPC   C2B58124  26.815  21.621   6.753
 9553POPC   C3B58125  26.873  21.658   7.053
 9553POPC   C4B58126  26.847  21.597   7.353
 9554POPC   NC358127  11.307   6.612   5.553
 9554POPC   PO458128  11.328   6.625   5.853
 9554POPC   GL158129  11.281   6.639   6.153
 9554POPC   GL258130  11.138   6.621   6.153
 9554POPC   C1A58131  11.308   6.681   6.453
 9554POPC   D2A58132  11.254   6.644   6.753
 9554POPC   C3A58133  11.318   6.642   7.053
 9554POPC   C4A58134  11.307   6.619   7.353
 9554POPC   C1B58135  11.030   6.715   6.453
 9554POPC   C2B58136  11.086   6.707   6.753
 9554POPC   C3B58137  11.045   6.699   7.053
 9554POPC   C4B58138  11.005   6.702   7.353
 9555POPC   NC358139  18.331  20.596   5.553
 9555POPC   PO458140  18.249  20.580   5.853
 9555POPC   GL158141  18.303  20.577   6.153
 9555POPC   GL258142  18.295  20.538   6.153
 9555POPC   C1A58143  18.282  20.569   6.453
 9555POPC   D2A58144  18.234  20.641   6.753
 9555POPC   C3A58145  18.266  20.612   7.053
 9555POPC   C4A58146  18.274  20.642   7.353
 9555POPC   C1B58147  18.234  20.400   6.453
 9555POPC   C2B58148  18.236  20.399   6.753
 9555POPC   C3B58149  18.255  20.386   7.053
 9555POPC   C4B58150  18.215  20.324   7.353
 9556POPC   NC358151  26.011  36.908   5.553
 9556POPC   PO458152  26.083  36.911   5.853
 9556POPC   GL158153  26.010  36.909   6.153
 9556POPC   GL258154  26.035  36.998   6.153
 9556POPC   C1A58155  26.061  36.863   6.453
 9556POPC   D2A58156  26.013  36.931   6.753
 9556POPC   C3A58157  26.036  36.908   7.053
 9556POPC   C4A58158  26.071  36.934   7.353
 9556POPC   C1B58159  26.042  37.194   6.453
 9556POPC   C2B58160  25.996  37.136   6.753
 9556POPC   C3B58161  25.985  37.199   7.053
 9556POPC   C4B58162  26.012  37.105   7.353
 9557POPC   NC358163  12.897  31.459   5.553
 9557POPC   PO458164  12.827  31.485   5.853
 9557POPC   GL158165  12.896  31.432   6.153
 9557POPC   GL258166  12.755  31.593   6.153
 9557POPC   C1A58167  12.848  31.481   6.453
 9557POPC   D2A58168  12.888  31.478   6.753
 9557POPC   C3A58169  12.851  31.484   7.053
 9557POPC   C4A58170  12.889  31.480   7.353
 9557POPC   C1B58171  12.717  31.645   6.453
 9557POPC   C2B58172  12.644  31.659   6.753
 9557POPC   C3B58173  12.683  31.687   7.053
 9557POPC   C4B58174  12.665  31.611   7.353
 9558POPC   NC358175  12.893  25.275   5.553
 9558POPC   PO458176  12.813  25.219   5.853
 9558POPC   GL158177  12.811  25.223   6.153
 9558POPC   GL258178  12.744  25.269   6.153
 9558POPC   C1A58179  12.817  25.310   6.453
 9558POPC   D2A58180  12.879  25.298   6.753
 9558POPC   C3A58181  12.808  25.239   7.053
 9558POPC   C4A58182  12.898  25.216   7.353
 9558POPC   C1B58183  12.593  25.217   6.453
 9558POPC   C2B58184  12.635  25.285   6.753
 9558POPC   C3B58185  12.566  25.224   7.053
 9558POPC   C4B58186  12.584  25.207   7.353
 9559POPC   NC358187  31.462  25.259   5.553
 9559POPC   PO458188  31.508  25.220   5.853
 9559POPC   GL158189  31.462  25.235   6.153
 9559POPC   GL258190  31.478  25.333   6.153
 9559POPC   C1A58191  31.509  25.216   6.453
 9559POPC   D2A58192  31.467  25.253   6.753
 9559POPC   C3A58193  31.432  25.264   7.053
 9559POPC   C4A58194  31.489  25.259   7.353
 9559POPC   C1B58195  31.524  25.512   6.453
 9559POPC   C2B58196  31.580  25.535   6.753
 9559POPC   C3B58197  31.592  25.533   7.053
 9559POPC   C4B58198  31.569  25.548   7.353
 9560POPC   NC358199  36.870  42.288   5.553
 9560POPC   PO458200  36.870  42.297   5.853
 9560POPC   GL158201  36.874  42.315   6.153
 9560POPC   GL258202  36.899  42.428   6.153
 9560POPC   C1A58203  36.862  42.343   6.453
 9560POPC   D2A58204  36.855  42.303   6.753
 9560POPC   C3A58205  36.946  42.347   7.053
 9560POPC   C4A58206  36.867  42.365   7.353
 9560POPC   C1B58207  36.828  42.551   6.453
 9560POPC   C2B58208  36.835  42.531   6.753
 9560POPC   C3B58209  36.810  42.531   7.053
 9560POPC   C4B58210  36.884  42.617   7.353
 9561POPC   NC358211  28.360  17.520   5.553
 9561POPC   PO458212  28.339  17.475   5.853
 9561POPC   GL158213  28.379  17.461   6.153
 9561POPC   GL258214  28.360  17.648   6.153
 9561POPC   C1A58215  28.381  17.510   6.453
 9561POPC   D2A58216  28.405  17.492   6.753
 9561POPC   C3A58217  28.383  17.546   7.053
 9561POPC   C4A58218  28.387  17.501   7.353
 9561POPC   C1B58219  28.212  17.705   6.453
 9561POPC   C2B58220  28.258  17.699   6.753
 9561POPC   C3B58221  28.238  17.685   7.053
 9561POPC   C4B58222  28.280  17.776   7.353
 9562POPC   NC358223  36.943   0.390   5.553
 9562POPC   PO458224  36.890   0.457   5.853
 9562POPC   GL158225  36.952   0.445   6.153
 9562POPC   GL258226  37.058   0.437   6.153
 9562POPC   C1A58227  36.948   0.479   6.453
 9562POPC   D2A58228  36.952   0.461   6.753
 9562POPC   C3A58229  36.885   0.403   7.053
 9562POPC   C4A58230  36.880   0.467   7.353
 9562POPC   C1B58231  37.143   0.388   6.453
 9562POPC   C2B58232  37.096   0.371   6.753
 9562POPC   C3B58233  37.171   0.325   7.053
 9562POPC   C4B58234  37.110   0.367   7.353
 9563POPC   NC358235  11.255  24.521   5.553
 9563POPC   PO458236  11.256  24.525   5.853
 9563POPC   GL158237  11.300  24.447   6.153
 9563POPC   GL258238  11.380  24.396   6.153
 9563POPC   C1A58239  11.259  24.460   6.453
 9563POPC   D2A58240  11.284  24.493   6.753
 9563POPC   C3A58241  11.300  24.489   7.053
 9563POPC   C4A58242  11.315  24.471   7.353
 9563POPC   C1B58243  11.466  24.330   6.453
 9563POPC   C2B58244  11.483  24.291   6.753
 9563POPC   C3B58245  11.460  24.344   7.053
 9563POPC   C4B58246  11.467  24.291   7.353
 9564POPC   NC358247   3.519  43.856   5.553
 9564POPC   PO458248   3.576  43.927   5.853
 9564POPC   GL158249   3.542  43.890   6.153
 9564POPC   GL258250   3.654  43.767   6.153
 9564POPC   C1A58251   3.512  43.857   6.453
 9564POPC   D2A58252   3.577  43.923   6.753
 9564POPC   C3A58253   3.579  43.901   7.053
 9564POPC   C4A58254   3.587  43.916   7.353
 9564POPC   C1B58255   3.728  43.686   6.453
 9564POPC   C2B58256   3.723  43.724   6.753
 9564POPC   C3B58257   3.722  43.667   7.053
 9564POPC   C4B58258   3.709  43.633   7.353
 9565POPC   NC358259  29.911  22.186   5.553
 9565POPC   PO458260  29.889  22.184   5.853
 9565POPC   GL158261  29.966  22.201   6.153
 9565POPC   GL258262  29.834  22.140   6.153
 9565POPC   C1A58263  29.963  22.158   6.453
 9565POPC   D2A58264  29.928  22.208   6.753
 9565POPC   C3A58265  29.942  22.124   7.053
 9565POPC   C4A58266  29.891  22.169   7.353
 9565POPC   C1B58267  29.678  22.121   6.453
 9565POPC   C2B58268  29.712  22.103   6.753
 9565POPC   C3B58269  29.667  22.143   7.053
 9565POPC   C4B58270  29.652  22.054   7.353
 9566POPC   NC358271  23.727  22.898   5.553
 9566POPC   PO458272  23.712  22.915   5.853
 9566POPC   GL158273  23.690  22.947   6.153
 9566POPC   GL258274  23.720  23.032   6.153
 9566POPC   C1A58275  23.732  22.913   6.453
 9566POPC   D2A58276  23.710  22.959   6.753
 9566POPC   C3A58277  23.731  22.900   7.053
 9566POPC   C4A58278  23.758  22.952   7.353
 9566POPC   C1B58279  23.829  23.197   6.453
 9566POPC   C2B58280  23.829  23.161   6.753
 9566POPC   C3B58281  23.768  23.147   7.053
 9566POPC   C4B58282  23.824  23.191   7.353
 9567POPC   NC358283  36.110   4.363   5.553
 9567POPC   PO458284  36.115   4.301   5.853
 9567POPC   GL158285  36.118   4.306   6.153
 9567POPC   GL258286  36.030   4.281   6.153
 9567POPC   C1A58287  36.175   4.339   6.453
 9567POPC   D2A58288  36.154   4.332   6.753
 9567POPC   C3A58289  36.090   4.273   7.053
 9567POPC   C4A58290  36.098   4.313   7.353
 9567POPC   C1B58291  35.870   4.199   6.453
 9567POPC   C2B58292  35.916   4.214   6.753
 9567POPC   C3B58293  35.857   4.220   7.053
 9567POPC   C4B58294  35.883   4.238   7.353
 9568POPC   NC358295  32.283   6.596   5.553
 9568POPC   PO458296  32.204   6.685   5.853
 9568POPC   GL158297  32.210   6.687   6.153
 9568POPC   GL258298  32.189   6.759   6.153
 9568POPC   C1A58299  32.220   6.624   6.453
 9568POPC   D2A58300  32.288   6.610   6.753
 9568POPC   C3A58301  32.282   6.626   7.053
 9568POPC   C4A58302  32.255   6.618   7.353
 9568POPC   C1B58303  32.228   6.922   6.453
 9568POPC   C2B58304  32.196   6.864   6.753
 9568POPC   C3B58305  32.227   6.854   7.053
 9568POPC   C4B58306  32.164   6.932   7.353
 9569POPC   NC358307   6.663  37.680   5.553
 9569POPC   PO458308   6.642  37.718   5.853
 9569POPC   GL158309   6.645  37.693   6.153
 9569POPC   GL258310   6.478  37.669   6.153
 9569POPC   C1A58311   6.663  37.712   6.453
 9569POPC   D2A58312   6.601  37.698   6.753
 9569POPC   C3A58313   6.621  37.640   7.053
 9569POPC   C4A58314   6.612  37.712   7.353
 9569POPC   C1B58315   6.426  37.749   6.453
 9569POPC   C2B58316   6.354  37.777   6.753
 9569POPC   C3B58317   6.408  37.737   7.053
 9569POPC   C4B58318   6.411  37.726   7.353
 9570POPC   NC358319  28.343  28.360   5.553
 9570POPC   PO458320  28.355  28.409   5.853
 9570POPC   GL158321  28.344  28.352   6.153
 9570POPC   GL258322  28.462  28.496   6.153
 9570POPC   C1A58323  28.388  28.378   6.453
 9570POPC   D2A58324  28.412  28.346   6.753
 9570POPC   C3A58325  28.376  28.347   7.053
 9570POPC   C4A58326  28.365  28.390   7.353
 9570POPC   C1B58327  28.588  28.553   6.453
 9570POPC   C2B58328  28.588  28.519   6.753
 9570POPC   C3B58329  28.573  28.557   7.053
 9570POPC   C4B58330  28.503  28.501   7.353
 9571POPC   NC358331  11.332  38.409   5.553
 9571POPC   PO458332  11.318  38.439   5.853
 9571POPC   GL158333  11.269  38.502   6.153
 9571POPC   GL258334  11.196  38.567   6.153
 9571POPC   C1A58335  11.302  38.457   6.453
 9571POPC   D2A58336  11.306  38.408   6.753
 9571POPC   C3A58337  11.265  38.419   7.053
 9571POPC   C4A58338  11.345  38.462   7.353
 9571POPC   C1B58339  11.124  38.579   6.453
 9571POPC   C2B58340  11.107  38.584   6.753
 9571POPC   C3B58341  11.093  38.582   7.053
 9571POPC   C4B58342  11.096  38.671   7.353
 9572POPC   NC358343   6.634  27.634   5.553
 9572POPC   PO458344   6.608  27.589   5.853
 9572POPC   GL158345   6.595  27.585   6.153
 9572POPC   GL258346   6.749  27.697   6.153
 9572POPC   C1A58347   6.597  27.565   6.453
 9572POPC   D2A58348   6.660  27.575   6.753
 9572POPC   C3A58349   6.663  27.608   7.053
 9572POPC   C4A58350   6.680  27.624   7.353
 9572POPC   C1B58351   6.862  27.766   6.453
 9572POPC   C2B58352   6.875  27.740   6.753
 9572POPC   C3B58353   6.794  27.773   7.053
 9572POPC   C4B58354   6.807  27.782   7.353
 9573POPC   NC358355  22.939  22.906   5.553
 9573POPC   PO458356  22.943  22.963   5.853
 9573POPC   GL158357  22.918  22.960   6.153
 9573POPC   GL258358  22.909  22.769   6.153
 9573POPC   C1A58359  22.956  22.957   6.453
 9573POPC   D2A58360  22.915  22.934   6.753
 9573POPC   C3A58361  22.934  22.947   7.053
 9573POPC   C4A58362  22.910  22.957   7.353
 9573POPC   C1B58363  23.000  22.731   6.453
 9573POPC   C2B58364  22.962  22.723   6.753
 9573POPC   C3B58365  22.985  22.712   7.053
 9573POPC   C4B58366  22.982  22.695   7.353
 9574POPC   NC358367   9.743  29.966   5.553
 9574POPC   PO458368   9.763  29.948   5.853
 9574POPC   GL158369   9.742  29.893   6.153
 9574POPC   GL258370   9.642  29.865   6.153
 9574POPC   C1A58371   9.796  29.941   6.453
 9574POPC   D2A58372   9.792  29.957   6.753
 9574POPC   C3A58373   9.707  29.883   7.053
 9574POPC   C4A58374   9.788  29.901   7.353
 9574POPC   C1B58375   9.499  29.901   6.453
 9574POPC   C2B58376   9.476  29.838   6.753
 9574POPC   C3B58377   9.517  29.824   7.053
 9574POPC   C4B58378   9.499  29.856   7.353
 9575POPC   NC358379  19.039  12.055   5.553
 9575POPC   PO458380  19.029  12.053   5.853
 9575POPC   GL158381  19.022  12.086   6.153
 9575POPC   GL258382  19.119  12.205   6.153
 9575POPC   C1A58383  19.035  12.113   6.453
 9575POPC   D2A58384  19.068  12.038   6.753
 9575POPC   C3A58385  19.056  12.108   7.053
 9575POPC   C4A58386  19.098  12.098   7.353
 9575POPC   C1B58387  19.147  12.295   6.453
 9575POPC   C2B58388  19.141  12.282   6.753
 9575POPC   C3B58389  19.175  12.304   7.053
 9575POPC   C4B58390  19.203  12.255   7.353
 9576POPC   NC358391  29.136  17.488   5.553
 9576POPC   PO458392  29.099  17.481   5.853
 9576POPC   GL158393  29.109  17.496   6.153
 9576POPC   GL258394  29.076  17.560   6.153
 9576POPC   C1A58395  29.178  17.540   6.453
 9576POPC   D2A58396  29.106  17.483   6.753
 9576POPC   C3A58397  29.124  17.510   7.053
 9576POPC   C4A58398  29.127  17.554   7.353
 9576POPC   C1B58399  29.017  17.651   6.453
 9576POPC   C2B58400  29.020  17.661   6.753
 9576POPC   C3B58401  28.963  17.655   7.053
 9576POPC   C4B58402  28.999  17.722   7.353
 9577POPC   NC358403  37.689  22.946   5.553
 9577POPC   PO458404  37.649  22.943   5.853
 9577POPC   GL158405  37.692  22.898   6.153
 9577POPC   GL258406  37.781  23.056   6.153
 9577POPC   C1A58407  37.680  22.969   6.453
 9577POPC   D2A58408  37.652  22.898   6.753
 9577POPC   C3A58409  37.690  22.965   7.053
 9577POPC   C4A58410  37.658  22.935   7.353
 9577POPC   C1B58411  37.853  23.090   6.453
 9577POPC   C2B58412  37.904  23.118   6.753
 9577POPC   C3B58413  37.910  23.096   7.053
 9577POPC   C4B58414  37.875  23.086   7.353
 9578POPC   NC358415   8.191   5.822   5.553
 9578POPC   PO458416   8.229   5.832   5.853
 9578POPC   GL158417   8.180   5.899   6.153
 9578POPC   GL258418   8.286   5.864   6.153
 9578POPC   C1A58419   8.240   5.913   6.453
 9578POPC   D2A58420   8.240   5.899   6.753
 9578POPC   C3A58421   8.195   5.855   7.053
 9578POPC   C4A58422   8.219   5.914   7.353
 9578POPC   C1B58423   8.383   5.819   6.453
 9578POPC   C2B58424   8.403   5.771   6.753
 9578POPC   C3B58425   8.462   5.813   7.053
 9578POPC   C4B58426   8.417   5.799   7.353
 9579POPC   NC358427  29.913  43.928   5.553
 9579POPC   PO458428  29.896  43.837   5.853
 9579POPC   GL158429  29.963  43.854   6.153
 9579POPC   GL258430  29.807  43.966   6.153
 9579POPC   C1A58431  29.897  43.843   6.453
 9579POPC   D2A58432  29.931  43.871   6.753
 9579POPC   C3A58433  29.876  43.843   7.053
 9579POPC   C4A58434  29.947  43.935   7.353
 9579POPC   C1B58435  29.682  43.964   6.453
 9579POPC   C2B58436  29.689  44.019   6.753
 9579POPC   C3B58437  29.691  43.996   7.053
 9579POPC   C4B58438  29.698  43.963   7.353
 9580POPC   NC358439   7.463   7.426   5.553
 9580POPC   PO458440   7.454   7.424   5.853
 9580POPC   GL158441   7.386   7.374   6.153
 9580POPC   GL258442   7.418   7.315   6.153
 9580POPC   C1A58443   7.440   7.444   6.453
 9580POPC   D2A58444   7.431   7.408   6.753
 9580POPC   C3A58445   7.405   7.409   7.053
 9580POPC   C4A58446   7.429   7.412   7.353
 9580POPC   C1B58447   7.447   7.145   6.453
 9580POPC   C2B58448   7.420   7.136   6.753
 9580POPC   C3B58449   7.439   7.131   7.053
 9580POPC   C4B58450   7.475   7.177   7.353
 9581POPC   NC358451  41.558  24.536   5.553
 9581POPC   PO458452  41.533  24.536   5.853
 9581POPC   GL158453  41.577  24.517   6.153
 9581POPC   GL258454  41.571  24.391   6.153
 9581POPC   C1A58455  41.524  24.520   6.453
 9581POPC   D2A58456  41.512  24.471   6.753
 9581POPC   C3A58457  41.586  24.521   7.053
 9581POPC   C4A58458  41.587  24.486   7.353
 9581POPC   C1B58459  41.515  24.295   6.453
 9581POPC   C2B58460  41.486  24.229   6.753
 9581POPC   C3B58461  41.485  24.228   7.053
 9581POPC   C4B58462  41.543  24.211   7.353
 9582POPC   NC358463  36.899  38.433   5.553
 9582POPC   PO458464  36.905  38.481   5.853
 9582POPC   GL158465  36.881  38.461   6.153
 9582POPC   GL258466  36.969  38.529   6.153
 9582POPC   C1A58467  36.949  38.437   6.453
 9582POPC   D2A58468  36.878  38.450   6.753
 9582POPC   C3A58469  36.898  38.490   7.053
 9582POPC   C4A58470  36.885  38.485   7.353
 9582POPC   C1B58471  37.084  38.613   6.453
 9582POPC   C2B58472  37.077  38.637   6.753
 9582POPC   C3B58473  37.105  38.672   7.053
 9582POPC   C4B58474  37.086  38.628   7.353
 9583POPC   NC358475  29.176  27.631   5.553
 9583POPC   PO458476  29.141  27.599   5.853
 9583POPC   GL158477  29.185  27.615   6.153
 9583POPC   GL258478  29.277  27.686   6.153
 9583POPC   C1A58479  29.098  27.617   6.453
 9583POPC   D2A58480  29.154  27.612   6.753
 9583POPC   C3A58481  29.096  27.638   7.053
 9583POPC   C4A58482  29.154  27.588   7.353
 9583POPC   C1B58483  29.398  27.688   6.453
 9583POPC   C2B58484  29.395  27.635   6.753
 9583POPC   C3B58485  29.344  27.712   7.053
 9583POPC   C4B58486  29.374  27.635   7.353
 9584POPC   NC358487  26.091  35.385   5.553
 9584POPC   PO458488  26.091  35.381   5.853
 9584POPC   GL158489  26.073  35.359   6.153
 9584POPC   GL258490  25.972  35.442   6.153
 9584POPC   C1A58491  26.086  35.368   6.453
 9584POPC   D2A58492  26.090  35.338   6.753
 9584POPC   C3A58493  26.009  35.388   7.053
 9584POPC   C4A58494  26.028  35.363   7.353
 9584POPC   C1B58495  25.878  35.512   6.453
 9584POPC   C2B58496  25.895  35.584   6.753
 9584POPC   C3B58497  25.882  35.593   7.053
 9584POPC   C4B58498  25.891  35.503   7.353
 9585POPC   NC358499  33.027   5.059   5.553
 9585POPC   PO458500  33.017   5.072   5.853
 9585POPC   GL158501  33.005   5.117   6.153
 9585POPC   GL258502  33.100   5.083   6.153
 9585POPC   C1A58503  32.984   5.102   6.453
 9585POPC   D2A58504  33.048   5.127   6.753
 9585POPC   C3A58505  33.029   5.131   7.053
 9585POPC   C4A58506  33.045   5.128   7.353
 9585POPC   C1B58507  33.275   5.003   6.453
 9585POPC   C2B58508  33.213   4.953   6.753
 9585POPC   C3B58509  33.211   4.968   7.053
 9585POPC   C4B58510  33.199   4.928   7.353
 9586POPC   NC358511   5.043  15.217   5.553
 9586POPC   PO458512   5.109  15.170   5.853
 9586POPC   GL158513   5.079  15.155   6.153
 9586POPC   GL258514   4.953  15.146   6.153
 9586POPC   C1A58515   5.132  15.175   6.453
 9586POPC   D2A58516   5.051  15.197   6.753
 9586POPC   C3A58517   5.069  15.177   7.053
 9586POPC   C4A58518   5.079  15.138   7.353
 9586POPC   C1B58519   4.849  15.144   6.453
 9586POPC   C2B58520   4.815  15.206   6.753
 9586POPC   C3B58521   4.840  15.209   7.053
 9586POPC   C4B58522   4.872  15.192   7.353
 9587POPC   NC358523  18.317   8.978   5.553
 9587POPC   PO458524  18.252   8.930   5.853
 9587POPC   GL158525  18.233   8.937   6.153
 9587POPC   GL258526  18.255   9.140   6.153
 9587POPC   C1A58527  18.271   8.972   6.453
 9587POPC   D2A58528  18.233   8.937   6.753
 9587POPC   C3A58529  18.326   8.985   7.053
 9587POPC   C4A58530  18.328   8.930   7.353
 9587POPC   C1B58531  18.332   9.248   6.453
 9587POPC   C2B58532  18.269   9.256   6.753
 9587POPC   C3B58533  18.262   9.251   7.053
 9587POPC   C4B58534  18.279   9.263   7.353
 9588POPC   NC358535  37.703  19.829   5.553
 9588POPC   PO458536  37.657  19.827   5.853
 9588POPC   GL158537  37.693  19.813   6.153
 9588POPC   GL258538  37.771  19.855   6.153
 9588POPC   C1A58539  37.664  19.852   6.453
 9588POPC   D2A58540  37.679  19.817   6.753
 9588POPC   C3A58541  37.668  19.832   7.053
 9588POPC   C4A58542  37.635  19.822   7.353
 9588POPC   C1B58543  37.972  19.795   6.453
 9588POPC   C2B58544  37.917  19.851   6.753
 9588POPC   C3B58545  37.936  19.810   7.053
 9588POPC   C4B58546  37.918  19.781   7.353
 9589POPC   NC358547  25.219  26.848   5.553
 9589POPC   PO458548  25.232  26.867   5.853
 9589POPC   GL158549  25.247  26.792   6.153
 9589POPC   GL258550  25.209  26.727   6.153
 9589POPC   C1A58551  25.273  26.800   6.453
 9589POPC   D2A58552  25.308  26.809   6.753
 9589POPC   C3A58553  25.261  26.810   7.053
 9589POPC   C4A58554  25.221  26.772   7.353
 9589POPC   C1B58555  25.221  26.537   6.453
 9589POPC   C2B58556  25.255  26.557   6.753
 9589POPC   C3B58557  25.209  26.531   7.053
 9589POPC   C4B58558  25.247  26.528   7.353
 9590POPC   NC358559   7.464  44.672   5.553
 9590POPC   PO458560   7.437  44.619   5.853
 9590POPC   GL158561   7.381  44.629   6.153
 9590POPC   GL258562   7.407  44.804   6.153
 9590POPC   C1A58563   7.375  44.705   6.453
 9590POPC   D2A58564   7.411  44.703   6.753
 9590POPC   C3A58565   7.406  44.701   7.053
 9590POPC   C4A58566   7.453  44.664   7.353
 9590POPC   C1B58567   7.490  44.956   6.453
 9590POPC   C2B58568   7.458  44.945   6.753
 9590POPC   C3B58569   7.445  44.863   7.053
 9590POPC   C4B58570   7.444  44.941   7.353
 9591POPC   NC358571  32.975   5.833   5.553
 9591POPC   PO458572  33.026   5.826   5.853
 9591POPC   GL158573  33.034   5.884   6.153
 9591POPC   GL258574  33.101   5.804   6.153
 9591POPC   C1A58575  33.015   5.828   6.453
 9591POPC   D2A58576  33.041   5.900   6.753
 9591POPC   C3A58577  33.028   5.822   7.053
 9591POPC   C4A58578  32.982   5.901   7.353
 9591POPC   C1B58579  33.115   5.702   6.453
 9591POPC   C2B58580  33.127   5.651   6.753
 9591POPC   C3B58581  33.132   5.657   7.053
 9591POPC   C4B58582  33.201   5.619   7.353
 9592POPC   NC358583  12.078  29.125   5.553
 9592POPC   PO458584  12.052  29.157   5.853
 9592POPC   GL158585  12.084  29.157   6.153
 9592POPC   GL258586  12.029  29.253   6.153
 9592POPC   C1A58587  12.087  29.114   6.453
 9592POPC   D2A58588  12.112  29.184   6.753
 9592POPC   C3A58589  12.054  29.097   7.053
 9592POPC   C4A58590  12.097  29.165   7.353
 9592POPC   C1B58591  12.061  29.408   6.453
 9592POPC   C2B58592  11.992  29.365   6.753
 9592POPC   C3B58593  12.062  29.390   7.053
 9592POPC   C4B58594  12.021  29.438   7.353
 9593POPC   NC358595  38.456   4.308   5.553
 9593POPC   PO458596  38.499   4.336   5.853
 9593POPC   GL158597  38.500   4.289   6.153
 9593POPC   GL258598  38.301   4.353   6.153
 9593POPC   C1A58599  38.491   4.289   6.453
 9593POPC   D2A58600  38.442   4.360   6.753
 9593POPC   C3A58601  38.485   4.325   7.053
 9593POPC   C4A58602  38.432   4.359   7.353
 9593POPC   C1B58603  38.183   4.295   6.453
 9593POPC   C2B58604  38.170   4.340   6.753
 9593POPC   C3B58605  38.195   4.258   7.053
 9593POPC   C4B58606  38.196   4.265   7.353
 9594POPC   NC358607   8.963  31.442   5.553
 9594POPC   PO458608   8.927  31.436   5.853
 9594POPC   GL158609   8.998  31.459   6.153
 9594POPC   GL258610   8.837  31.443   6.153
 9594POPC   C1A58611   8.946  31.515   6.453
 9594POPC   D2A58612   8.952  31.489   6.753
 9594POPC   C3A58613   8.951  31.476   7.053
 9594POPC   C4A58614   9.012  31.442   7.353
 9594POPC   C1B58615   8.725  31.431   6.453
 9594POPC   C2B58616   8.766  31.453   6.753
 9594POPC   C3B58617   8.759  31.457   7.053
 9594POPC   C4B58618   8.767  31.455   7.353
 9595POPC   NC358619  13.652  25.220   5.553
 9595POPC   PO458620  13.632  25.260   5.853
 9595POPC   GL158621  13.591  25.232   6.153
 9595POPC   GL258622  13.658  25.417   6.153
 9595POPC   C1A58623  13.636  25.237   6.453
 9595POPC   D2A58624  13.609  25.227   6.753
 9595POPC   C3A58625  13.597  25.296   7.053
 9595POPC   C4A58626  13.654  25.232   7.353
 9595POPC   C1B58627  13.706  25.485   6.453
 9595POPC   C2B58628  13.702  25.521   6.753
 9595POPC   C3B58629  13.709  25.497   7.053
 9595POPC   C4B58630  13.762  25.485   7.353
 9596POPC   NC358631  21.412   3.521   5.553
 9596POPC   PO458632  21.343   3.559   5.853
 9596POPC   GL158633  21.395   3.513   6.153
 9596POPC   GL258634  21.412   3.416   6.153
 9596POPC   C1A58635  21.345   3.505   6.453
 9596POPC   D2A58636  21.390   3.509   6.753
 9596POPC   C3A58637  21.346   3.510   7.053
 9596POPC   C4A58638  21.409   3.536   7.353
 9596POPC   C1B58639  21.481   3.356   6.453
 9596POPC   C2B58640  21.495   3.343   6.753
 9596POPC   C3B58641  21.471   3.343   7.053
 9596POPC   C4B58642  21.538   3.291   7.353
 9597POPC   NC358643   7.463  34.557   5.553
 9597POPC   PO458644   7.410  34.577   5.853
 9597POPC   GL158645   7.464  34.604   6.153
 9597POPC   GL258646   7.487  34.461   6.153
 9597POPC   C1A58647   7.399  34.602   6.453
 9597POPC   D2A58648   7.379  34.612   6.753
 9597POPC   C3A58649   7.376  34.539   7.053
 9597POPC   C4A58650   7.403  34.604   7.353
 9597POPC   C1B58651   7.456  34.285   6.453
 9597POPC   C2B58652   7.453  34.365   6.753
 9597POPC   C3B58653   7.502  34.301   7.053
 9597POPC   C4B58654   7.420  34.367   7.353
 9598POPC   NC358655  32.263  33.796   5.553
 9598POPC   PO458656  32.259  33.765   5.853
 9598POPC   GL158657  32.223  33.795   6.153
 9598POPC   GL258658  32.333  33.843   6.153
 9598POPC   C1A58659  32.198  33.848   6.453
 9598POPC   D2A58660  32.256  33.838   6.753
 9598POPC   C3A58661  32.287  33.782   7.053
 9598POPC   C4A58662  32.209  33.838   7.353
 9598POPC   C1B58663  32.454  33.896   6.453
 9598POPC   C2B58664  32.494  33.909   6.753
 9598POPC   C3B58665  32.472  33.910   7.053
 9598POPC   C4B58666  32.503  33.894   7.353
 9599POPC   NC358667  15.215   1.965   5.553
 9599POPC   PO458668  15.137   1.992   5.853
 9599POPC   GL158669  15.168   1.994   6.153
 9599POPC   GL258670  15.268   2.100   6.153
 9599POPC   C1A58671  15.182   1.964   6.453
 9599POPC   D2A58672  15.195   1.970   6.753
 9599POPC   C3A58673  15.209   1.978   7.053
 9599POPC   C4A58674  15.189   2.032   7.353
 9599POPC   C1B58675  15.327   2.159   6.453
 9599POPC   C2B58676  15.349   2.187   6.753
 9599POPC   C3B58677  15.392   2.216   7.053
 9599POPC   C4B58678  15.348   2.159   7.353
 9600POPC   NC358679   2.750   2.727   5.553
 9600POPC   PO458680   2.769   2.789   5.853
 9600POPC   GL158681   2.764   2.783   6.153
 9600POPC   GL258682   2.820   2.654   6.153
 9600POPC   C1A58683   2.788   2.738   6.453
 9600POPC   D2A58684   2.773   2.767   6.753
 9600POPC   C3A58685   2.720   2.780   7.053
 9600POPC   C4A58686   2.787   2.778   7.353
 9600POPC   C1B58687   2.883   2.480   6.453
 9600POPC   C2B58688   2.863   2.543   6.753
 9600POPC   C3B58689   2.874   2.554   7.053
 9600POPC   C4B58690   2.814   2.554   7.353
 9601POPC   NC358691   9.716  27.568   5.553
 9601POPC   PO458692   9.793  27.581   5.853
 9601POPC   GL158693   9.731  27.595   6.153
 9601POPC   GL258694   9.818  27.533   6.153
 9601POPC   C1A58695   9.780  27.608   6.453
 9601POPC   D2A58696   9.775  27.630   6.753
 9601POPC   C3A58697   9.772  27.549   7.053
 9601POPC   C4A58698   9.727  27.595   7.353
 9601POPC   C1B58699   9.937  27.460   6.453
 9601POPC   C2B58700   9.942  27.510   6.753
 9601POPC   C3B58701   9.924  27.502   7.053
 9601POPC   C4B58702   9.998  27.505   7.353
 9602POPC   NC358703  29.149  29.943   5.553
 9602POPC   PO458704  29.146  29.876   5.853
 9602POPC   GL158705  29.108  29.966   6.153
 9602POPC   GL258706  29.136  29.764   6.153
 9602POPC   C1A58707  29.182  29.934   6.453
 9602POPC   D2A58708  29.156  29.928   6.753
 9602POPC   C3A58709  29.183  29.894   7.053
 9602POPC   C4A58710  29.177  29.964   7.353
 9602POPC   C1B58711  29.177  29.647   6.453
 9602POPC   C2B58712  29.204  29.678   6.753
 9602POPC   C3B58713  29.205  29.713   7.053
 9602POPC   C4B58714  29.161  29.710   7.353
 9603POPC   NC358715   1.986   4.296   5.553
 9603POPC   PO458716   2.028   4.323   5.853
 9603POPC   GL158717   1.985   4.300   6.153
 9603POPC   GL258718   1.858   4.251   6.153
 9603POPC   C1A58719   2.002   4.363   6.453
 9603POPC   D2A58720   2.010   4.327   6.753
 9603POPC   C3A58721   1.978   4.328   7.053
 9603POPC   C4A58722   2.003   4.316   7.353
 9603POPC   C1B58723   1.762   4.230   6.453
 9603POPC   C2B58724   1.801   4.245   6.753
 9603POPC   C3B58725   1.727   4.253   7.053
 9603POPC   C4B58726   1.759   4.255   7.353
 9604POPC   NC358727  19.081  39.967   5.553
 9604POPC   PO458728  19.096  40.041   5.853
 9604POPC   GL158729  19.079  40.029   6.153
 9604POPC   GL258730  19.222  39.992   6.153
 9604POPC   C1A58731  19.063  40.017   6.453
 9604POPC   D2A58732  19.019  40.002   6.753
 9604POPC   C3A58733  19.084  40.054   7.053
 9604POPC   C4A58734  19.071  39.988   7.353
 9604POPC   C1B58735  19.262  39.975   6.453
 9604POPC   C2B58736  19.302  39.910   6.753
 9604POPC   C3B58737  19.340  39.975   7.053
 9604POPC   C4B58738  19.333  39.954   7.353
 9605POPC   NC358739   9.769  26.867   5.553
 9605POPC   PO458740   9.727  26.860   5.853
 9605POPC   GL158741   9.702  26.789   6.153
 9605POPC   GL258742   9.669  26.754   6.153
 9605POPC   C1A58743   9.773  26.806   6.453
 9605POPC   D2A58744   9.775  26.866   6.753
 9605POPC   C3A58745   9.699  26.797   7.053
 9605POPC   C4A58746   9.709  26.789   7.353
 9605POPC   C1B58747   9.623  26.615   6.453
 9605POPC   C2B58748   9.619  26.606   6.753
 9605POPC   C3B58749   9.594  26.581   7.053
 9605POPC   C4B58750   9.660  26.586   7.353
 9606POPC   NC358751   5.064  32.199   5.553
 9606POPC   PO458752   5.097  32.246   5.853
 9606POPC   GL158753   5.081  32.278   6.153
 9606POPC   GL258754   5.128  32.176   6.153
 9606POPC   C1A58755   5.069  32.288   6.453
 9606POPC   D2A58756   5.129  32.261   6.753
 9606POPC   C3A58757   5.064  32.270   7.053
 9606POPC   C4A58758   5.088  32.267   7.353
 9606POPC   C1B58759   5.200  32.055   6.453
 9606POPC   C2B58760   5.215  32.029   6.753
 9606POPC   C3B58761   5.185  32.060   7.053
 9606POPC   C4B58762   5.219  32.008   7.353
 9607POPC   NC358763  10.565  28.355   5.553
 9607POPC   PO458764  10.543  28.323   5.853
 9607POPC   GL158765  10.553  28.403   6.153
 9607POPC   GL258766  10.488  28.532   6.153
 9607POPC   C1A58767  10.485  28.405   6.453
 9607POPC   D2A58768  10.475  28.330   6.753
 9607POPC   C3A58769  10.557  28.377   7.053
 9607POPC   C4A58770  10.524  28.386   7.353
 9607POPC   C1B58771  10.442  28.605   6.453
 9607POPC   C2B58772  10.484  28.580   6.753
 9607POPC   C3B58773  10.501  28.640   7.053
 9607POPC   C4B58774  10.468  28.617   7.353
 9608POPC   NC358775  34.619   9.743   5.553
 9608POPC   PO458776  34.532   9.724   5.853
 9608POPC   GL158777  34.539   9.746   6.153
 9608POPC   GL258778  34.538   9.894   6.153
 9608POPC   C1A58779  34.625   9.707   6.453
 9608POPC   D2A58780  34.621   9.726   6.753
 9608POPC   C3A58781  34.540   9.764   7.053
 9608POPC   C4A58782  34.564   9.700   7.353
 9608POPC   C1B58783  34.539   9.999   6.453
 9608POPC   C2B58784  34.531  10.038   6.753
 9608POPC   C3B58785  34.514  10.031   7.053
 9608POPC   C4B58786  34.567   9.991   7.353
 9609POPC   NC358787   6.693  12.815   5.553
 9609POPC   PO458788   6.627  12.821   5.853
 9609POPC   GL158789   6.641  12.888   6.153
 9609POPC   GL258790   6.538  12.908   6.153
 9609POPC   C1A58791   6.690  12.871   6.453
 9609POPC   D2A58792   6.665  12.868   6.753
 9609POPC   C3A58793   6.618  12.827   7.053
 9609POPC   C4A58794   6.625  12.859   7.353
 9609POPC   C1B58795   6.363  12.963   6.453
 9609POPC   C2B58796   6.389  12.879   6.753
 9609POPC   C3B58797   6.422  12.918   7.053
 9609POPC   C4B58798   6.432  12.954   7.353
 9610POPC   NC358799  33.026  43.872   5.553
 9610POPC   PO458800  33.008  43.933   5.853
 9610POPC   GL158801  33.067  43.927   6.153
 9610POPC   GL258802  32.945  43.827   6.153
 9610POPC   C1A58803  33.001  43.872   6.453
 9610POPC   D2A58804  33.020  43.882   6.753
 9610POPC   C3A58805  33.062  43.912   7.053
 9610POPC   C4A58806  33.036  43.867   7.353
 9610POPC   C1B58807  32.814  43.739   6.453
 9610POPC   C2B58808  32.828  43.768   6.753
 9610POPC   C3B58809  32.757  43.723   7.053
 9610POPC   C4B58810  32.849  43.780   7.353
 9611POPC   NC358811  15.953  30.727   5.553
 9611POPC   PO458812  15.911  30.667   5.853
 9611POPC   GL158813  16.001  30.745   6.153
 9611POPC   GL258814  15.963  30.614   6.153
 9611POPC   C1A58815  15.982  30.727   6.453
 9611POPC   D2A58816  15.994  30.669   6.753
 9611POPC   C3A58817  15.990  30.677   7.053
 9611POPC   C4A58818  15.911  30.694   7.353
 9611POPC   C1B58819  15.938  30.455   6.453
 9611POPC   C2B58820  15.942  30.416   6.753
 9611POPC   C3B58821  15.991  30.443   7.053
 9611POPC   C4B58822  16.035  30.451   7.353
 9612POPC   NC358823   0.389  15.971   5.553
 9612POPC   PO458824   0.461  15.907   5.853
 9612POPC   GL158825   0.410  15.968   6.153
 9612POPC   GL258826   0.451  16.109   6.153
 9612POPC   C1A58827   0.394  15.980   6.453
 9612POPC   D2A58828   0.439  15.951   6.753
 9612POPC   C3A58829   0.424  15.961   7.053
 9612POPC   C4A58830   0.476  15.978   7.353
 9612POPC   C1B58831   0.383  16.166   6.453
 9612POPC   C2B58832   0.375  16.243   6.753
 9612POPC   C3B58833   0.359  16.241   7.053
 9612POPC   C4B58834   0.371  16.204   7.353
 9613POPC   NC358835  16.753  40.759   5.553
 9613POPC   PO458836  16.695  40.815   5.853
 9613POPC   GL158837  16.718  40.743   6.153
 9613POPC   GL258838  16.804  40.662   6.153
 9613POPC   C1A58839  16.756  40.738   6.453
 9613POPC   D2A58840  16.772  40.808   6.753
 9613POPC   C3A58841  16.712  40.733   7.053
 9613POPC   C4A58842  16.771  40.743   7.353
 9613POPC   C1B58843  16.736  40.584   6.453
 9613POPC   C2B58844  16.827  40.552   6.753
 9613POPC   C3B58845  16.739  40.532   7.053
 9613POPC   C4B58846  16.761  40.525   7.353
 9614POPC   NC358847  20.614   4.307   5.553
 9614POPC   PO458848  20.611   4.284   5.853
 9614POPC   GL158849  20.650   4.346   6.153
 9614POPC   GL258850  20.687   4.223   6.153
 9614POPC   C1A58851  20.637   4.352   6.453
 9614POPC   D2A58852  20.591   4.325   6.753
 9614POPC   C3A58853  20.591   4.278   7.053
 9614POPC   C4A58854  20.650   4.282   7.353
 9614POPC   C1B58855  20.693   4.138   6.453
 9614POPC   C2B58856  20.737   4.104   6.753
 9614POPC   C3B58857  20.696   4.050   7.053
 9614POPC   C4B58858  20.716   4.129   7.353
 9615POPC   NC358859  10.547  32.282   5.553
 9615POPC   PO458860  10.574  32.220   5.853
 9615POPC   GL158861  10.538  32.243   6.153
 9615POPC   GL258862  10.448  32.175   6.153
 9615POPC   C1A58863  10.536  32.273   6.453
 9615POPC   D2A58864  10.570  32.275   6.753
 9615POPC   C3A58865  10.545  32.245   7.053
 9615POPC   C4A58866  10.505  32.240   7.353
 9615POPC   C1B58867  10.284  32.159   6.453
 9615POPC   C2B58868  10.273  32.090   6.753
 9615POPC   C3B58869  10.275  32.089   7.053
 9615POPC   C4B58870  10.344  32.092   7.353
 9616POPC   NC358871  20.594  18.301   5.553
 9616POPC   PO458872  20.608  18.261   5.853
 9616POPC   GL158873  20.579  18.316   6.153
 9616POPC   GL258874  20.565  18.207   6.153
 9616POPC   C1A58875  20.650  18.264   6.453
 9616POPC   D2A58876  20.615  18.250   6.753
 9616POPC   C3A58877  20.638  18.279   7.053
 9616POPC   C4A58878  20.639  18.310   7.353
 9616POPC   C1B58879  20.557  18.069   6.453
 9616POPC   C2B58880  20.619  18.002   6.753
 9616POPC   C3B58881  20.590  17.984   7.053
 9616POPC   C4B58882  20.559  18.071   7.353
 9617POPC   NC358883  22.151  26.007   5.553
 9617POPC   PO458884  22.127  26.011   5.853
 9617POPC   GL158885  22.164  26.007   6.153
 9617POPC   GL258886  22.275  26.034   6.153
 9617POPC   C1A58887  22.127  26.025   6.453
 9617POPC   D2A58888  22.194  26.070   6.753
 9617POPC   C3A58889  22.196  26.078   7.053
 9617POPC   C4A58890  22.189  26.089   7.353
 9617POPC   C1B58891  22.390  26.073   6.453
 9617POPC   C2B58892  22.358  26.069   6.753
 9617POPC   C3B58893  22.395  26.159   7.053
 9617POPC   C4B58894  22.440  26.107   7.353
 9618POPC   NC358895  44.656  26.035   5.553
 9618POPC   PO458896  44.633  26.080   5.853
 9618POPC   GL158897  44.647  26.004   6.153
 9618POPC   GL258898  44.788  26.048   6.153
 9618POPC   C1A58899  44.676  26.035   6.453
 9618POPC   D2A58900  44.650  26.007   6.753
 9618POPC   C3A58901  44.643  26.053   7.053
 9618POPC   C4A58902  44.621  26.068   7.353
 9618POPC   C1B58903  44.962  26.031   6.453
 9618POPC   C2B58904  44.903  25.987   6.753
 9618POPC   C3B58905  44.873  25.999   7.053
 9618POPC   C4B58906  44.869  26.067   7.353
 9619POPC   NC358907  30.720   8.972   5.553
 9619POPC   PO458908  30.691   8.970   5.853
 9619POPC   GL158909  30.716   8.992   6.153
 9619POPC   GL258910  30.688   9.104   6.153
 9619POPC   C1A58911  30.740   8.991   6.453
 9619POPC   D2A58912  30.673   8.935   6.753
 9619POPC   C3A58913  30.695   8.970   7.053
 9619POPC   C4A58914  30.735   9.011   7.353
 9619POPC   C1B58915  30.686   9.179   6.453
 9619POPC   C2B58916  30.677   9.243   6.753
 9619POPC   C3B58917  30.663   9.214   7.053
 9619POPC   C4B58918  30.688   9.235   7.353
 9620POPC   NC358919   7.453  22.166   5.553
 9620POPC   PO458920   7.385  22.178   5.853
 9620POPC   GL158921   7.464  22.120   6.153
 9620POPC   GL258922   7.353  22.064   6.153
 9620POPC   C1A58923   7.433  22.181   6.453
 9620POPC   D2A58924   7.382  22.136   6.753
 9620POPC   C3A58925   7.378  22.171   7.053
 9620POPC   C4A58926   7.425  22.177   7.353
 9620POPC   C1B58927   7.227  21.975   6.453
 9620POPC   C2B58928   7.244  21.946   6.753
 9620POPC   C3B58929   7.273  21.984   7.053
 9620POPC   C4B58930   7.209  21.949   7.353
 9621POPC   NC358931   2.748  30.731   5.553
 9621POPC   PO458932   2.728  30.655   5.853
 9621POPC   GL158933   2.810  30.725   6.153
 9621POPC   GL258934   2.747  30.827   6.153
 9621POPC   C1A58935   2.728  30.709   6.453
 9621POPC   D2A58936   2.764  30.736   6.753
 9621POPC   C3A58937   2.803  30.658   7.053
 9621POPC   C4A58938   2.729  30.711   7.353
 9621POPC   C1B58939   2.860  30.892   6.453
 9621POPC   C2B58940   2.777  30.916   6.753
 9621POPC   C3B58941   2.794  30.966   7.053
 9621POPC   C4B58942   2.802  30.962   7.353
 9622POPC   NC358943  35.399   3.527   5.553
 9622POPC   PO458944  35.383   3.547   5.853
 9622POPC   GL158945  35.331   3.491   6.153
 9622POPC   GL258946  35.505   3.582   6.153
 9622POPC   C1A58947  35.382   3.533   6.453
 9622POPC   D2A58948  35.317   3.497   6.753
 9622POPC   C3A58949  35.357   3.506   7.053
 9622POPC   C4A58950  35.303   3.546   7.353
 9622POPC   C1B58951  35.586   3.609   6.453
 9622POPC   C2B58952  35.545   3.653   6.753
 9622POPC   C3B58953  35.554   3.607   7.053
 9622POPC   C4B58954  35.560   3.605   7.353
 9623POPC   NC358955  10.535  35.358   5.553
 9623POPC   PO458956  10.496  35.381   5.853
 9623POPC   GL158957  10.561  35.377   6.153
 9623POPC   GL258958  10.668  35.249   6.153
 9623POPC   C1A58959  10.527  35.342   6.453
 9623POPC   D2A58960  10.488  35.363   6.753
 9623POPC   C3A58961  10.572  35.335   7.053
 9623POPC   C4A58962  10.475  35.323   7.353
 9623POPC   C1B58963  10.755  35.234   6.453
 9623POPC   C2B58964  10.699  35.213   6.753
 9623POPC   C3B58965  10.745  35.170   7.053
 9623POPC   C4B58966  10.710  35.204   7.353
 9624POPC   NC358967  12.108  19.877   5.553
 9624POPC   PO458968  12.107  19.865   5.853
 9624POPC   GL158969  12.057  19.875   6.153
 9624POPC   GL258970  11.986  19.945   6.153
 9624POPC   C1A58971  12.089  19.842   6.453
 9624POPC   D2A58972  12.061  19.835   6.753
 9624POPC   C3A58973  12.090  19.865   7.053
 9624POPC   C4A58974  12.051  19.804   7.353
 9624POPC   C1B58975  11.984  20.024   6.453
 9624POPC   C2B58976  12.006  20.017   6.753
 9624POPC   C3B58977  11.953  20.057   7.053
 9624POPC   C4B58978  11.936  20.070   7.353
 9625POPC   NC358979   1.233  39.270   5.553
 9625POPC   PO458980   1.181  39.223   5.853
 9625POPC   GL158981   1.165  39.208   6.153
 9625POPC   GL258982   1.321  39.291   6.153
 9625POPC   C1A58983   1.263  39.214   6.453
 9625POPC   D2A58984   1.250  39.272   6.753
 9625POPC   C3A58985   1.242  39.243   7.053
 9625POPC   C4A58986   1.235  39.223   7.353
 9625POPC   C1B58987   1.370  39.410   6.453
 9625POPC   C2B58988   1.345  39.374   6.753
 9625POPC   C3B58989   1.353  39.376   7.053
 9625POPC   C4B58990   1.393  39.455   7.353
 9626POPC   NC358991  29.907  43.114   5.553
 9626POPC   PO458992  29.893  43.119   5.853
 9626POPC   GL158993  29.888  43.073   6.153
 9626POPC   GL258994  29.865  43.233   6.153
 9626POPC   C1A58995  29.934  43.159   6.453
 9626POPC   D2A58996  29.952  43.160   6.753
 9626POPC   C3A58997  29.961  43.127   7.053
 9626POPC   C4A58998  29.954  43.131   7.353
 9626POPC   C1B58999  29.906  43.406   6.453
 9626POPC   C2B59000  29.908  43.407   6.753
 9626POPC   C3B59001  29.908  43.373   7.053
 9626POPC   C4B59002  29.893  43.311   7.353
 9627POPC   NC359003  21.424  30.682   5.553
 9627POPC   PO459004  21.405  30.681   5.853
 9627POPC   GL159005  21.398  30.682   6.153
 9627POPC   GL259006  21.486  30.646   6.153
 9627POPC   C1A59007  21.375  30.735   6.453
 9627POPC   D2A59008  21.403  30.709   6.753
 9627POPC   C3A59009  21.386  30.729   7.053
 9627POPC   C4A59010  21.340  30.685   7.353
 9627POPC   C1B59011  21.606  30.531   6.453
 9627POPC   C2B59012  21.602  30.482   6.753
 9627POPC   C3B59013  21.522  30.516   7.053
 9627POPC   C4B59014  21.572  30.506   7.353
 9628POPC   NC359015   7.471   0.474   5.553
 9628POPC   PO459016   7.405   0.484   5.853
 9628POPC   GL159017   7.402   0.435   6.153
 9628POPC   GL259018   7.358   0.531   6.153
 9628POPC   C1A59019   7.389   0.450   6.453
 9628POPC   D2A59020   7.443   0.410   6.753
 9628POPC   C3A59021   7.446   0.426   7.053
 9628POPC   C4A59022   7.429   0.391   7.353
 9628POPC   C1B59023   7.191   0.622   6.453
 9628POPC   C2B59024   7.181   0.574   6.753
 9628POPC   C3B59025   7.214   0.591   7.053
 9628POPC   C4B59026   7.246   0.547   7.353
 9629POPC   NC359027  33.825  12.066   5.553
 9629POPC   PO459028  33.787  12.104   5.853
 9629POPC   GL159029  33.832  12.042   6.153
 9629POPC   GL259030  33.809  11.923   6.153
 9629POPC   C1A59031  33.779  12.032   6.453
 9629POPC   D2A59032  33.786  12.078   6.753
 9629POPC   C3A59033  33.752  12.080   7.053
 9629POPC   C4A59034  33.821  12.117   7.353
 9629POPC   C1B59035  33.771  11.862   6.453
 9629POPC   C2B59036  33.747  11.783   6.753
 9629POPC   C3B59037  33.771  11.839   7.053
 9629POPC   C4B59038  33.808  11.853   7.353
 9630POPC   NC359039  24.491  12.107   5.553
 9630POPC   PO459040  24.479  12.083   5.853
 9630POPC   GL159041  24.472  12.115   6.153
 9630POPC   GL259042  24.636  12.100   6.153
 9630POPC   C1A59043  24.492  12.104   6.453
 9630POPC   D2A59044  24.514  12.108   6.753
 9630POPC   C3A59045  24.461  12.038   7.053
 9630POPC   C4A59046  24.510  12.066   7.353
 9630POPC   C1B59047  24.672  12.233   6.453
 9630POPC   C2B59048  24.702  12.168   6.753
 9630POPC   C3B59049  24.703  12.161   7.053
 9630POPC   C4B59050  24.709  12.161   7.353
 9631POPC   NC359051  19.097   1.257   5.553
 9631POPC   PO459052  19.108   1.218   5.853
 9631POPC   GL159053  19.079   1.262   6.153
 9631POPC   GL259054  19.199   1.287   6.153
 9631POPC   C1A59055  19.090   1.255   6.453
 9631POPC   D2A59056  19.100   1.249   6.753
 9631POPC   C3A59057  19.010   1.240   7.053
 9631POPC   C4A59058  19.084   1.234   7.353
 9631POPC   C1B59059  19.304   1.248   6.453
 9631POPC   C2B59060  19.255   1.256   6.753
 9631POPC   C3B59061  19.317   1.281   7.053
 9631POPC   C4B59062  19.341   1.322   7.353
 9632POPC   NC359063  35.338  33.009   5.553
 9632POPC   PO459064  35.340  33.032   5.853
 9632POPC   GL159065  35.343  33.037   6.153
 9632POPC   GL259066  35.379  32.863   6.153
 9632POPC   C1A59067  35.344  33.064   6.453
 9632POPC   D2A59068  35.318  33.008   6.753
 9632POPC   C3A59069  35.379  32.994   7.053
 9632POPC   C4A59070  35.333  33.029   7.353
 9632POPC   C1B59071  35.361  32.798   6.453
 9632POPC   C2B59072  35.361  32.824   6.753
 9632POPC   C3B59073  35.338  32.758   7.053
 9632POPC   C4B59074  35.355  32.742   7.353
 9633POPC   NC359075  44.647  43.066   5.553
 9633POPC   PO459076  44.647  43.112   5.853
 9633POPC   GL159077  44.634  43.127   6.153
 9633POPC   GL259078  44.775  43.109   6.153
 9633POPC   C1A59079  44.650  43.139   6.453
 9633POPC   D2A59080  44.692  43.093   6.753
 9633POPC   C3A59081  44.661  43.130   7.053
 9633POPC   C4A59082  44.660  43.081   7.353
 9633POPC   C1B59083  44.902  43.072   6.453
 9633POPC   C2B59084  44.866  43.071   6.753
 9633POPC   C3B59085  44.866  43.094   7.053
 9633POPC   C4B59086  44.928  43.065   7.353
 9634POPC   NC359087   8.210  15.199   5.553
 9634POPC   PO459088   8.151  15.227   5.853
 9634POPC   GL159089   8.229  15.229   6.153
 9634POPC   GL259090   8.179  15.024   6.153
 9634POPC   C1A59091   8.224  15.221   6.453
 9634POPC   D2A59092   8.152  15.173   6.753
 9634POPC   C3A59093   8.222  15.179   7.053
 9634POPC   C4A59094   8.179  15.161   7.353
 9634POPC   C1B59095   8.230  14.979   6.453
 9634POPC   C2B59096   8.210  14.899   6.753
 9634POPC   C3B59097   8.224  14.977   7.053
 9634POPC   C4B59098   8.251  14.935   7.353
 9635POPC   NC359099  30.670  14.420   5.553
 9635POPC   PO459100  30.670  14.355   5.853
 9635POPC   GL159101  30.717  14.381   6.153
 9635POPC   GL259102  30.556  14.385   6.153
 9635POPC   C1A59103  30.725  14.384   6.453
 9635POPC   D2A59104  30.651  14.413   6.753
 9635POPC   C3A59105  30.712  14.440   7.053
 9635POPC   C4A59106  30.718  14.378   7.353
 9635POPC   C1B59107  30.461  14.359   6.453
 9635POPC   C2B59108  30.479  14.325   6.753
 9635POPC   C3B59109  30.417  14.301   7.053
 9635POPC   C4B59110  30.425  14.300   7.353
 9636POPC   NC359111  13.606  28.395   5.553
 9636POPC   PO459112  13.647  28.395   5.853
 9636POPC   GL159113  13.589  28.381   6.153
 9636POPC   GL259114  13.719  28.415   6.153
 9636POPC   C1A59115  13.633  28.382   6.453
 9636POPC   D2A59116  13.664  28.415   6.753
 9636POPC   C3A59117  13.598  28.372   7.053
 9636POPC   C4A59118  13.675  28.350   7.353
 9636POPC   C1B59119  13.843  28.414   6.453
 9636POPC   C2B59120  13.837  28.424   6.753
 9636POPC   C3B59121  13.846  28.430   7.053
 9636POPC   C4B59122  13.847  28.403   7.353
 9637POPC   NC359123   9.721  36.943   5.553
 9637POPC   PO459124   9.757  36.866   5.853
 9637POPC   GL159125   9.798  36.941   6.153
 9637POPC   GL259126   9.665  36.889   6.153
 9637POPC   C1A59127   9.732  36.933   6.453
 9637POPC   D2A59128   9.730  36.865   6.753
 9637POPC   C3A59129   9.742  36.878   7.053
 9637POPC   C4A59130   9.717  36.888   7.353
 9637POPC   C1B59131   9.528  36.970   6.453
 9637POPC   C2B59132   9.484  36.968   6.753
 9637POPC   C3B59133   9.479  37.008   7.053
 9637POPC   C4B59134   9.460  36.941   7.353
 9638POPC   NC359135   8.981  21.367   5.553
 9638POPC   PO459136   8.968  21.385   5.853
 9638POPC   GL159137   8.952  21.430   6.153
 9638POPC   GL259138   8.896  21.299   6.153
 9638POPC   C1A59139   9.002  21.367   6.453
 9638POPC   D2A59140   9.005  21.345   6.753
 9638POPC   C3A59141   8.978  21.391   7.053
 9638POPC   C4A59142   9.013  21.433   7.353
 9638POPC   C1B59143   8.853  21.160   6.453
 9638POPC   C2B59144   8.870  21.225   6.753
 9638POPC   C3B59145   8.810  21.132   7.053
 9638POPC   C4B59146   8.804  21.156   7.353
 9639POPC   NC359147  20.594  29.920   5.553
 9639POPC   PO459148  20.642  29.948   5.853
 9639POPC   GL159149  20.576  29.889   6.153
 9639POPC   GL259150  20.682  29.835   6.153
 9639POPC   C1A59151  20.631  29.962   6.453
 9639POPC   D2A59152  20.631  29.893   6.753
 9639POPC   C3A59153  20.566  29.893   7.053
 9639POPC   C4A59154  20.639  29.926   7.353
 9639POPC   C1B59155  20.783  29.759   6.453
 9639POPC   C2B59156  20.753  29.698   6.753
 9639POPC   C3B59157  20.713  29.681   7.053
 9639POPC   C4B59158  20.797  29.691   7.353
 9640POPC   NC359159  26.846  15.137   5.553
 9640POPC   PO459160  26.854  15.210   5.853
 9640POPC   GL159161  26.823  15.162   6.153
 9640POPC   GL259162  26.719  15.087   6.153
 9640POPC   C1A59163  26.801  15.172   6.453
 9640POPC   D2A59164  26.841  15.178   6.753
 9640POPC   C3A59165  26.861  15.166   7.053
 9640POPC   C4A59166  26.858  15.228   7.353
 9640POPC   C1B59167  26.543  15.082   6.453
 9640POPC   C2B59168  26.600  15.110   6.753
 9640POPC   C3B59169  26.585  15.102   7.053
 9640POPC   C4B59170  26.545  15.035   7.353
 9641POPC   NC359171   8.185  18.269   5.553
 9641POPC   PO459172   8.246  18.308   5.853
 9641POPC   GL159173   8.222  18.293   6.153
 9641POPC   GL259174   8.329  18.191   6.153
 9641POPC   C1A59175   8.150  18.311   6.453
 9641POPC   D2A59176   8.242  18.313   6.753
 9641POPC   C3A59177   8.244  18.241   7.053
 9641POPC   C4A59178   8.155  18.250   7.353
 9641POPC   C1B59179   8.383  18.134   6.453
 9641POPC   C2B59180   8.443  18.153   6.753
 9641POPC   C3B59181   8.393  18.144   7.053
 9641POPC   C4B59182   8.397  18.100   7.353
 9642POPC   NC359183   2.805  43.103   5.553
 9642POPC   PO459184   2.807  43.102   5.853
 9642POPC   GL159185   2.771  43.144   6.153
 9642POPC   GL259186   2.691  42.984   6.153
 9642POPC   C1A59187   2.757  43.063   6.453
 9642POPC   D2A59188   2.743  43.130   6.753
 9642POPC   C3A59189   2.773  43.091   7.053
 9642POPC   C4A59190   2.759  43.078   7.353
 9642POPC   C1B59191   2.564  42.885   6.453
 9642POPC   C2B59192   2.643  42.973   6.753
 9642POPC   C3B59193   2.572  42.916   7.053
 9642POPC   C4B59194   2.571  42.950   7.353
 9643POPC   NC359195   4.327  10.549   5.553
 9643POPC   PO459196   4.303  10.503   5.853
 9643POPC   GL159197   4.308  10.535   6.153
 9643POPC   GL259198   4.335  10.426   6.153
 9643POPC   C1A59199   4.354  10.540   6.453
 9643POPC   D2A59200   4.365  10.476   6.753
 9643POPC   C3A59201   4.307  10.528   7.053
 9643POPC   C4A59202   4.284  10.481   7.353
 9643POPC   C1B59203   4.373  10.244   6.453
 9643POPC   C2B59204   4.357  10.274   6.753
 9643POPC   C3B59205   4.398  10.254   7.053
 9643POPC   C4B59206   4.392  10.324   7.353
 9644POPC   NC359207  25.999  44.663   5.553
 9644POPC   PO459208  25.995  44.676   5.853
 9644POPC   GL159209  26.029  44.706   6.153
 9644POPC   GL259210  25.957  44.553   6.153
 9644POPC   C1A59211  26.026  44.680   6.453
 9644POPC   D2A59212  26.089  44.615   6.753
 9644POPC   C3A59213  26.023  44.704   7.053
 9644POPC   C4A59214  26.069  44.676   7.353
 9644POPC   C1B59215  25.987  44.426   6.453
 9644POPC   C2B59216  25.996  44.458   6.753
 9644POPC   C3B59217  25.952  44.452   7.053
 9644POPC   C4B59218  25.984  44.432   7.353
 9645POPC   NC359219  40.811  15.226   5.553
 9645POPC   PO459220  40.758  15.139   5.853
 9645POPC   GL159221  40.780  15.208   6.153
 9645POPC   GL259222  40.873  15.214   6.153
 9645POPC   C1A59223  40.801  15.155   6.453
 9645POPC   D2A59224  40.780  15.200   6.753
 9645POPC   C3A59225  40.824  15.204   7.053
 9645POPC   C4A59226  40.780  15.200   7.353
 9645POPC   C1B59227  41.047  15.129   6.453
 9645POPC   C2B59228  41.050  15.181   6.753
 9645POPC   C3B59229  41.075  15.148   7.053
 9645POPC   C4B59230  41.002  15.141   7.353
 9646POPC   NC359231   0.460  19.104   5.553
 9646POPC   PO459232   0.431  19.067   5.853
 9646POPC   GL159233   0.403  19.031   6.153
 9646POPC   GL259234   0.540  18.997   6.153
 9646POPC   C1A59235   0.443  19.057   6.453
 9646POPC   D2A59236   0.481  19.017   6.753
 9646POPC   C3A59237   0.461  19.097   7.053
 9646POPC   C4A59238   0.405  19.028   7.353
 9646POPC   C1B59239   0.638  18.883   6.453
 9646POPC   C2B59240   0.685  18.903   6.753
 9646POPC   C3B59241   0.672  18.962   7.053
 9646POPC   C4B59242   0.672  18.932   7.353
 9647POPC   NC359243  19.877   6.692   5.553
 9647POPC   PO459244  19.814   6.596   5.853
 9647POPC   GL159245  19.839   6.630   6.153
 9647POPC   GL259246  19.951   6.578   6.153
 9647POPC   C1A59247  19.812   6.694   6.453
 9647POPC   D2A59248  19.800   6.649   6.753
 9647POPC   C3A59249  19.843   6.617   7.053
 9647POPC   C4A59250  19.791   6.642   7.353
 9647POPC   C1B59251  20.073   6.506   6.453
 9647POPC   C2B59252  20.074   6.602   6.753
 9647POPC   C3B59253  20.054   6.561   7.053
 9647POPC   C4B59254  20.102   6.577   7.353
 9648POPC   NC359255  29.915  15.978   5.553
 9648POPC   PO459256  29.944  15.915   5.853
 9648POPC   GL159257  29.910  15.951   6.153
 9648POPC   GL259258  29.949  15.814   6.153
 9648POPC   C1A59259  29.903  15.914   6.453
 9648POPC   D2A59260  29.939  15.959   6.753
 9648POPC   C3A59261  29.875  15.983   7.053
 9648POPC   C4A59262  29.912  15.907   7.353
 9648POPC   C1B59263  30.015  15.758   6.453
 9648POPC   C2B59264  30.086  15.750   6.753
 9648POPC   C3B59265  30.053  15.749   7.053
 9648POPC   C4B59266  30.051  15.703   7.353
 9649POPC   NC359267  14.382  29.931   5.553
 9649POPC   PO459268  14.374  29.938   5.853
 9649POPC   GL159269  14.381  29.948   6.153
 9649POPC   GL259270  14.310  29.876   6.153
 9649POPC   C1A59271  14.374  29.893   6.453
 9649POPC   D2A59272  14.373  29.951   6.753
 9649POPC   C3A59273  14.417  29.895   7.053
 9649POPC   C4A59274  14.453  29.895   7.353
 9649POPC   C1B59275  14.227  29.798   6.453
 9649POPC   C2B59276  14.222  29.746   6.753
 9649POPC   C3B59277  14.250  29.812   7.053
 9649POPC   C4B59278  14.236  29.764   7.353
 9650POPC   NC359279  30.728  22.931   5.553
 9650POPC   PO459280  30.738  22.980   5.853
 9650POPC   GL159281  30.706  22.953   6.153
 9650POPC   GL259282  30.828  23.005   6.153
 9650POPC   C1A59283  30.692  22.915   6.453
 9650POPC   D2A59284  30.661  22.948   6.753
 9650POPC   C3A59285  30.717  22.965   7.053
 9650POPC   C4A59286  30.717  22.917   7.353
 9650POPC   C1B59287  30.983  23.026   6.453
 9650POPC   C2B59288  30.956  23.024   6.753
 9650POPC   C3B59289  30.911  22.973   7.053
 9650POPC   C4B59290  30.980  22.994   7.353
 9651POPC   NC359291  27.549   3.560   5.553
 9651POPC   PO459292  27.608   3.554   5.853
 9651POPC   GL159293  27.631   3.567   6.153
 9651POPC   GL259294  27.725   3.461   6.153
 9651POPC   C1A59295  27.571   3.540   6.453
 9651POPC   D2A59296  27.597   3.534   6.753
 9651POPC   C3A59297  27.562   3.495   7.053
 9651POPC   C4A59298  27.596   3.564   7.353
 9651POPC   C1B59299  27.778   3.409   6.453
 9651POPC   C2B59300  27.827   3.411   6.753
 9651POPC   C3B59301  27.789   3.421   7.053
 9651POPC   C4B59302  27.762   3.436   7.353
 9652POPC   NC359303   9.763  12.818   5.553
 9652POPC   PO459304   9.795  12.876   5.853
 9652POPC   GL159305   9.717  12.808   6.153
 9652POPC   GL259306   9.641  12.782   6.153
 9652POPC   C1A59307   9.713  12.872   6.453
 9652POPC   D2A59308   9.762  12.838   6.753
 9652POPC   C3A59309   9.761  12.846   7.053
 9652POPC   C4A59310   9.739  12.817   7.353
 9652POPC   C1B59311   9.589  12.652   6.453
 9652POPC   C2B59312   9.624  12.704   6.753
 9652POPC   C3B59313   9.594  12.646   7.053
 9652POPC   C4B59314   9.566  12.657   7.353
 9653POPC   NC359315  12.868   1.194   5.553
 9653POPC   PO459316  12.865   1.246   5.853
 9653POPC   GL159317  12.879   1.183   6.153
 9653POPC   GL259318  12.887   1.095   6.153
 9653POPC   C1A59319  12.833   1.164   6.453
 9653POPC   D2A59320  12.811   1.182   6.753
 9653POPC   C3A59321  12.818   1.257   7.053
 9653POPC   C4A59322  12.869   1.236   7.353
 9653POPC   C1B59323  12.911   0.935   6.453
 9653POPC   C2B59324  12.968   0.987   6.753
 9653POPC   C3B59325  12.969   0.948   7.053
 9653POPC   C4B59326  12.966   1.011   7.353
 9654POPC   NC359327  43.154  43.929   5.553
 9654POPC   PO459328  43.094  43.857   5.853
 9654POPC   GL159329  43.115  43.856   6.153
 9654POPC   GL259330  43.020  43.813   6.153
 9654POPC   C1A59331  43.133  43.927   6.453
 9654POPC   D2A59332  43.152  43.893   6.753
 9654POPC   C3A59333  43.134  43.891   7.053
 9654POPC   C4A59334  43.114  43.875   7.353
 9654POPC   C1B59335  42.895  43.823   6.453
 9654POPC   C2B59336  42.903  43.790   6.753
 9654POPC   C3B59337  42.896  43.792   7.053
 9654POPC   C4B59338  42.843  43.760   7.353
 9655POPC   NC359339  24.460  27.608   5.553
 9655POPC   PO459340  24.530  27.642   5.853
 9655POPC   GL159341  24.505  27.562   6.153
 9655POPC   GL259342  24.320  27.613   6.153
 9655POPC   C1A59343  24.516  27.606   6.453
 9655POPC   D2A59344  24.515  27.571   6.753
 9655POPC   C3A59345  24.532  27.546   7.053
 9655POPC   C4A59346  24.533  27.587   7.353
 9655POPC   C1B59347  24.296  27.695   6.453
 9655POPC   C2B59348  24.262  27.696   6.753
 9655POPC   C3B59349  24.201  27.684   7.053
 9655POPC   C4B59350  24.250  27.669   7.353
 9656POPC   NC359351  38.485  40.743   5.553
 9656POPC   PO459352  38.478  40.785   5.853
 9656POPC   GL159353  38.481  40.827   6.153
 9656POPC   GL259354  38.389  40.625   6.153
 9656POPC   C1A59355  38.407  40.770   6.453
 9656POPC   D2A59356  38.460  40.799   6.753
 9656POPC   C3A59357  38.501  40.734   7.053
 9656POPC   C4A59358  38.450  40.822   7.353
 9656POPC   C1B59359  38.382  40.595   6.453
 9656POPC   C2B59360  38.345  40.546   6.753
 9656POPC   C3B59361  38.367  40.543   7.053
 9656POPC   C4B59362  38.343  40.581   7.353
 9657POPC   NC359363  15.960  18.239   5.553
 9657POPC   PO459364  15.977  18.250   5.853
 9657POPC   GL159365  15.966  18.286   6.153
 9657POPC   GL259366  16.055  18.278   6.153
 9657POPC   C1A59367  15.969  18.259   6.453
 9657POPC   D2A59368  15.926  18.240   6.753
 9657POPC   C3A59369  15.989  18.307   7.053
 9657POPC   C4A59370  15.920  18.263   7.353
 9657POPC   C1B59371  16.193  18.346   6.453
 9657POPC   C2B59372  16.179  18.274   6.753
 9657POPC   C3B59373  16.239  18.322   7.053
 9657POPC   C4B59374  16.171  18.342   7.353
 9658POPC   NC359375  39.243  15.913   5.553
 9658POPC   PO459376  39.206  15.919   5.853
 9658POPC   GL159377  39.240  15.942   6.153
 9658POPC   GL259378  39.320  15.935   6.153
 9658POPC   C1A59379  39.249  15.917   6.453
 9658POPC   D2A59380  39.184  15.950   6.753
 9658POPC   C3A59381  39.183  15.995   7.053
 9658POPC   C4A59382  39.207  15.939   7.353
 9658POPC   C1B59383  39.442  15.860   6.453
 9658POPC   C2B59384  39.477  15.890   6.753
 9658POPC   C3B59385  39.488  15.921   7.053
 9658POPC   C4B59386  39.446  15.889   7.353
 9659POPC   NC359387  32.277  15.974   5.553
 9659POPC   PO459388  32.241  15.941   5.853
 9659POPC   GL159389  32.251  15.923   6.153
 9659POPC   GL259390  32.308  15.886   6.153
 9659POPC   C1A59391  32.271  15.996   6.453
 9659POPC   D2A59392  32.292  15.993   6.753
 9659POPC   C3A59393  32.241  15.933   7.053
 9659POPC   C4A59394  32.279  15.950   7.353
 9659POPC   C1B59395  32.445  15.789   6.453
 9659POPC   C2B59396  32.445  15.850   6.753
 9659POPC   C3B59397  32.491  15.799   7.053
 9659POPC   C4B59398  32.496  15.785   7.353
 9660POPC   NC359399  37.682  16.001   5.553
 9660POPC   PO459400  37.715  15.986   5.853
 9660POPC   GL159401  37.702  15.913   6.153
 9660POPC   GL259402  37.730  16.082   6.153
 9660POPC   C1A59403  37.725  15.911   6.453
 9660POPC   D2A59404  37.714  15.915   6.753
 9660POPC   C3A59405  37.712  15.922   7.053
 9660POPC   C4A59406  37.670  16.003   7.353
 9660POPC   C1B59407  37.803  16.154   6.453
 9660POPC   C2B59408  37.865  16.172   6.753
 9660POPC   C3B59409  37.822  16.187   7.053
 9660POPC   C4B59410  37.820  16.124   7.353
 9661POPC   NC359411  33.011  18.273   5.553
 9661POPC   PO459412  33.062  18.318   5.853
 9661POPC   GL159413  33.050  18.238   6.153
 9661POPC   GL259414  32.890  18.304   6.153
 9661POPC   C1A59415  33.055  18.325   6.453
 9661POPC   D2A59416  33.012  18.294   6.753
 9661POPC   C3A59417  32.989  18.327   7.053
 9661POPC   C4A59418  32.983  18.289   7.353
 9661POPC   C1B59419  32.757  18.372   6.453
 9661POPC   C2B59420  32.823  18.354   6.753
 9661POPC   C3B59421  32.778  18.309   7.053
 9661POPC   C4B59422  32.798  18.382   7.353
 9662POPC   NC359423  21.386  22.140   5.553
 9662POPC   PO459424  21.342  22.113   5.853
 9662POPC   GL159425  21.372  22.177   6.153
 9662POPC   GL259426  21.515  22.168   6.153
 9662POPC   C1A59427  21.405  22.112   6.453
 9662POPC   D2A59428  21.349  22.139   6.753
 9662POPC   C3A59429  21.365  22.175   7.053
 9662POPC   C4A59430  21.338  22.129   7.353
 9662POPC   C1B59431  21.646  22.157   6.453
 9662POPC   C2B59432  21.604  22.139   6.753
 9662POPC   C3B59433  21.598  22.193   7.053
 9662POPC   C4B59434  21.599  22.216   7.353
 9663POPC   NC359435  28.412  21.336   5.553
 9663POPC   PO459436  28.366  21.344   5.853
 9663POPC   GL159437  28.407  21.369   6.153
 9663POPC   GL259438  28.233  21.447   6.153
 9663POPC   C1A59439  28.416  21.352   6.453
 9663POPC   D2A59440  28.327  21.357   6.753
 9663POPC   C3A59441  28.369  21.385   7.053
 9663POPC   C4A59442  28.334  21.382   7.353
 9663POPC   C1B59443  28.099  21.393   6.453
 9663POPC   C2B59444  28.073  21.405   6.753
 9663POPC   C3B59445  28.141  21.418   7.053
 9663POPC   C4B59446  28.115  21.442   7.353
 9664POPC   NC359447  44.667  30.690   5.553
 9664POPC   PO459448  44.679  30.665   5.853
 9664POPC   GL159449  44.667  30.656   6.153
 9664POPC   GL259450  44.510  30.627   6.153
 9664POPC   C1A59451  44.697  30.715   6.453
 9664POPC   D2A59452  44.711  30.721   6.753
 9664POPC   C3A59453  44.647  30.648   7.053
 9664POPC   C4A59454  44.630  30.686   7.353
 9664POPC   C1B59455  44.428  30.621   6.453
 9664POPC   C2B59456  44.478  30.563   6.753
 9664POPC   C3B59457  44.428  30.548   7.053
 9664POPC   C4B59458  44.396  30.614   7.353
 9665POPC   NC359459  38.475  12.823   5.553
 9665POPC   PO459460  38.474  12.889   5.853
 9665POPC   GL159461  38.436  12.807   6.153
 9665POPC   GL259462  38.598  12.894   6.153
 9665POPC   C1A59463  38.441  12.846   6.453
 9665POPC   D2A59464  38.479  12.883   6.753
 9665POPC   C3A59465  38.423  12.837   7.053
 9665POPC   C4A59466  38.469  12.871   7.353
 9665POPC   C1B59467  38.725  12.901   6.453
 9665POPC   C2B59468  38.657  12.910   6.753
 9665POPC   C3B59469  38.651  12.955   7.053
 9665POPC   C4B59470  38.664  12.989   7.353
 9666POPC   NC359471  25.248   4.277   5.553
 9666POPC   PO459472  25.235   4.289   5.853
 9666POPC   GL159473  25.252   4.291   6.153
 9666POPC   GL259474  25.334   4.389   6.153
 9666POPC   C1A59475  25.287   4.303   6.453
 9666POPC   D2A59476  25.286   4.315   6.753
 9666POPC   C3A59477  25.230   4.271   7.053
 9666POPC   C4A59478  25.269   4.314   7.353
 9666POPC   C1B59479  25.336   4.549   6.453
 9666POPC   C2B59480  25.295   4.531   6.753
 9666POPC   C3B59481  25.277   4.558   7.053
 9666POPC   C4B59482  25.315   4.537   7.353
 9667POPC   NC359483  43.095  12.814   5.553
 9667POPC   PO459484  43.135  12.841   5.853
 9667POPC   GL159485  43.136  12.828   6.153
 9667POPC   GL259486  43.202  12.846   6.153
 9667POPC   C1A59487  43.093  12.901   6.453
 9667POPC   D2A59488  43.105  12.898   6.753
 9667POPC   C3A59489  43.147  12.865   7.053
 9667POPC   C4A59490  43.112  12.891   7.353
 9667POPC   C1B59491  43.315  12.843   6.453
 9667POPC   C2B59492  43.410  12.902   6.753
 9667POPC   C3B59493  43.335  12.833   7.053
 9667POPC   C4B59494  43.385  12.872   7.353
 9668POPC   NC359495   4.323  19.029   5.553
 9668POPC   PO459496   4.294  19.080   5.853
 9668POPC   GL159497   4.280  19.050   6.153
 9668POPC   GL259498   4.379  18.969   6.153
 9668POPC   C1A59499   4.333  19.099   6.453
 9668POPC   D2A59500   4.288  19.097   6.753
 9668POPC   C3A59501   4.354  19.054   7.053
 9668POPC   C4A59502   4.347  19.015   7.353
 9668POPC   C1B59503   4.377  18.859   6.453
 9668POPC   C2B59504   4.431  18.783   6.753
 9668POPC   C3B59505   4.365  18.849   7.053
 9668POPC   C4B59506   4.436  18.781   7.353
 9669POPC   NC359507  44.687   2.762   5.553
 9669POPC   PO459508  44.644   2.747   5.853
 9669POPC   GL159509  44.678   2.799   6.153
 9669POPC   GL259510  44.533   2.770   6.153
 9669POPC   C1A59511  44.635   2.744   6.453
 9669POPC   D2A59512  44.676   2.772   6.753
 9669POPC   C3A59513  44.645   2.770   7.053
 9669POPC   C4A59514  44.680   2.761   7.353
 9669POPC   C1B59515  44.386   2.826   6.453
 9669POPC   C2B59516  44.388   2.826   6.753
 9669POPC   C3B59517  44.433   2.786   7.053
 9669POPC   C4B59518  44.433   2.743   7.353
 9670POPC   NC359519  43.126  29.933   5.553
 9670POPC   PO459520  43.088  29.960   5.853
 9670POPC   GL159521  43.151  29.902   6.153
 9670POPC   GL259522  43.249  29.841   6.153
 9670POPC   C1A59523  43.097  29.897   6.453
 9670POPC   D2A59524  43.129  29.911   6.753
 9670POPC   C3A59525  43.087  29.930   7.053
 9670POPC   C4A59526  43.080  29.893   7.353
 9670POPC   C1B59527  43.267  29.726   6.453
 9670POPC   C2B59528  43.300  29.767   6.753
 9670POPC   C3B59529  43.287  29.712   7.053
 9670POPC   C4B59530  43.289  29.751   7.353
 9671POPC   NC359531  44.636  25.246   5.553
 9671POPC   PO459532  44.672  25.245   5.853
 9671POPC   GL159533  44.645  25.240   6.153
 9671POPC   GL259534  44.675  25.404   6.153
 9671POPC   C1A59535  44.678  25.242   6.453
 9671POPC   D2A59536  44.694  25.305   6.753
 9671POPC   C3A59537  44.682  25.244   7.053
 9671POPC   C4A59538  44.621  25.222   7.353
 9671POPC   C1B59539  44.730  25.493   6.453
 9671POPC   C2B59540  44.811  25.533   6.753
 9671POPC   C3B59541  44.761  25.500   7.053
 9671POPC   C4B59542  44.777  25.507   7.353
 9672POPC   NC359543  19.054  42.287   5.553
 9672POPC   PO459544  19.086  42.351   5.853
 9672POPC   GL159545  19.107  42.293   6.153
 9672POPC   GL259546  19.019  42.412   6.153
 9672POPC   C1A59547  19.077  42.312   6.453
 9672POPC   D2A59548  19.075  42.300   6.753
 9672POPC   C3A59549  19.101  42.317   7.053
 9672POPC   C4A59550  19.067  42.318   7.353
 9672POPC   C1B59551  18.938  42.609   6.453
 9672POPC   C2B59552  18.958  42.535   6.753
 9672POPC   C3B59553  18.921  42.609   7.053
 9672POPC   C4B59554  18.951  42.592   7.353
 9673POPC   NC359555  40.826   0.438   5.553
 9673POPC   PO459556  40.798   0.468   5.853
 9673POPC   GL159557  40.819   0.427   6.153
 9673POPC   GL259558  40.650   0.526   6.153
 9673POPC   C1A59559  40.733   0.488   6.453
 9673POPC   D2A59560  40.771   0.484   6.753
 9673POPC   C3A59561  40.791   0.438   7.053
 9673POPC   C4A59562  40.812   0.436   7.353
 9673POPC   C1B59563  40.604   0.647   6.453
 9673POPC   C2B59564  40.595   0.607   6.753
 9673POPC   C3B59565  40.555   0.598   7.053
 9673POPC   C4B59566  40.578   0.584   7.353
 9674POPC   NC359567  19.837  36.117   5.553
 9674POPC   PO459568  19.858  36.098   5.853
 9674POPC   GL159569  19.795  36.174   6.153
 9674POPC   GL259570  19.747  36.244   6.153
 9674POPC   C1A59571  19.813  36.160   6.453
 9674POPC   D2A59572  19.791  36.101   6.753
 9674POPC   C3A59573  19.808  36.108   7.053
 9674POPC   C4A59574  19.809  36.127   7.353
 9674POPC   C1B59575  19.747  36.330   6.453
 9674POPC   C2B59576  19.734  36.351   6.753
 9674POPC   C3B59577  19.705  36.395   7.053
 9674POPC   C4B59578  19.696  36.314   7.353
 9675POPC   NC359579  39.961   1.995   5.553
 9675POPC   PO459580  39.988   2.030   5.853
 9675POPC   GL159581  40.016   2.026   6.153
 9675POPC   GL259582  39.917   2.094   6.153
 9675POPC   C1A59583  39.960   2.031   6.453
 9675POPC   D2A59584  40.047   1.985   6.753
 9675POPC   C3A59585  40.052   1.951   7.053
 9675POPC   C4A59586  39.962   2.012   7.353
 9675POPC   C1B59587  39.853   2.128   6.453
 9675POPC   C2B59588  39.815   2.136   6.753
 9675POPC   C3B59589  39.802   2.123   7.053
 9675POPC   C4B59590  39.808   2.188   7.353
 9676POPC   NC359591   6.675  10.569   5.553
 9676POPC   PO459592   6.617  10.478   5.853
 9676POPC   GL159593   6.694  10.483   6.153
 9676POPC   GL259594   6.762  10.631   6.153
 9676POPC   C1A59595   6.608  10.562   6.453
 9676POPC   D2A59596   6.639  10.561   6.753
 9676POPC   C3A59597   6.669  10.546   7.053
 9676POPC   C4A59598   6.631  10.508   7.353
 9676POPC   C1B59599   6.876  10.634   6.453
 9676POPC   C2B59600   6.874  10.637   6.753
 9676POPC   C3B59601   6.890  10.653   7.053
 9676POPC   C4B59602   6.821  10.698   7.353
 9677POPC   NC359603  36.854   7.457   5.553
 9677POPC   PO459604  36.908   7.431   5.853
 9677POPC   GL159605  36.932   7.381   6.153
 9677POPC   GL259606  36.996   7.433   6.153
 9677POPC   C1A59607  36.920   7.427   6.453
 9677POPC   D2A59608  36.899   7.418   6.753
 9677POPC   C3A59609  36.948   7.400   7.053
 9677POPC   C4A59610  36.915   7.436   7.353
 9677POPC   C1B59611  37.153   7.450   6.453
 9677POPC   C2B59612  37.164   7.456   6.753
 9677POPC   C3B59613  37.154   7.435   7.053
 9677POPC   C4B59614  37.117   7.471   7.353
 9678POPC   NC359615  16.766  37.654   5.553
 9678POPC   PO459616  16.765  37.717   5.853
 9678POPC   GL159617  16.716  37.689   6.153
 9678POPC   GL259618  16.806  37.700   6.153
 9678POPC   C1A59619  16.704  37.676   6.453
 9678POPC   D2A59620  16.685  37.661   6.753
 9678POPC   C3A59621  16.758  37.645   7.053
 9678POPC   C4A59622  16.696  37.671   7.353
 9678POPC   C1B59623  16.955  37.696   6.453
 9678POPC   C2B59624  16.943  37.701   6.753
 9678POPC   C3B59625  17.010  37.775   7.053
 9678POPC   C4B59626  16.986  37.754   7.353
 9679POPC   NC359627  39.969   0.450   5.553
 9679POPC   PO459628  39.988   0.448   5.853
 9679POPC   GL159629  39.978   0.448   6.153
 9679POPC   GL259630  40.066   0.347   6.153
 9679POPC   C1A59631  40.036   0.418   6.453
 9679POPC   D2A59632  40.032   0.451   6.753
 9679POPC   C3A59633  39.995   0.471   7.053
 9679POPC   C4A59634  39.992   0.443   7.353
 9679POPC   C1B59635  40.056   0.187   6.453
 9679POPC   C2B59636  40.022   0.231   6.753
 9679POPC   C3B59637  39.987   0.218   7.053
 9679POPC   C4B59638  40.068   0.211   7.353
 9680POPC   NC359639   1.944   3.507   5.553
 9680POPC   PO459640   2.026   3.557   5.853
 9680POPC   GL159641   1.982   3.523   6.153
 9680POPC   GL259642   2.085   3.651   6.153
 9680POPC   C1A59643   1.942   3.566   6.453
 9680POPC   D2A59644   2.000   3.574   6.753
 9680POPC   C3A59645   2.017   3.500   7.053
 9680POPC   C4A59646   2.039   3.548   7.353
 9680POPC   C1B59647   2.165   3.723   6.453
 9680POPC   C2B59648   2.195   3.680   6.753
 9680POPC   C3B59649   2.147   3.660   7.053
 9680POPC   C4B59650   2.157   3.743   7.353
 9681POPC   NC359651  33.823  26.863   5.553
 9681POPC   PO459652  33.759  26.858   5.853
 9681POPC   GL159653  33.785  26.798   6.153
 9681POPC   GL259654  33.702  26.760   6.153
 9681POPC   C1A59655  33.795  26.810   6.453
 9681POPC   D2A59656  33.818  26.841   6.753
 9681POPC   C3A59657  33.770  26.797   7.053
 9681POPC   C4A59658  33.793  26.778   7.353
 9681POPC   C1B59659  33.646  26.625   6.453
 9681POPC   C2B59660  33.570  26.632   6.753
 9681POPC   C3B59661  33.616  26.686   7.053
 9681POPC   C4B59662  33.623  26.699   7.353
 9682POPC   NC359663  36.129   3.590   5.553
 9682POPC   PO459664  36.114   3.585   5.853
 9682POPC   GL159665  36.150   3.590   6.153
 9682POPC   GL259666  36.025   3.612   6.153
 9682POPC   C1A59667  36.093   3.507   6.453
 9682POPC   D2A59668  36.157   3.568   6.753
 9682POPC   C3A59669  36.137   3.573   7.053
 9682POPC   C4A59670  36.117   3.523   7.353
 9682POPC   C1B59671  35.992   3.758   6.453
 9682POPC   C2B59672  35.965   3.720   6.753
 9682POPC   C3B59673  35.989   3.762   7.053
 9682POPC   C4B59674  36.003   3.799   7.353
 9683POPC   NC359675  11.267   2.768   5.553
 9683POPC   PO459676  11.254   2.785   5.853
 9683POPC   GL159677  11.316   2.762   6.153
 9683POPC   GL259678  11.322   2.601   6.153
 9683POPC   C1A59679  11.260   2.724   6.453
 9683POPC   D2A59680  11.315   2.717   6.753
 9683POPC   C3A59681  11.279   2.808   7.053
 9683POPC   C4A59682  11.323   2.777   7.353
 9683POPC   C1B59683  11.436   2.521   6.453
 9683POPC   C2B59684  11.407   2.520   6.753
 9683POPC   C3B59685  11.406   2.572   7.053
 9683POPC   C4B59686  11.347   2.564   7.353
 9684POPC   NC359687   8.970  27.569   5.553
 9684POPC   PO459688   8.968  27.567   5.853
 9684POPC   GL159689   9.017  27.577   6.153
 9684POPC   GL259690   8.956  27.475   6.153
 9684POPC   C1A59691   8.970  27.563   6.453
 9684POPC   D2A59692   9.005  27.621   6.753
 9684POPC   C3A59693   8.929  27.570   7.053
 9684POPC   C4A59694   9.018  27.638   7.353
 9684POPC   C1B59695   8.870  27.421   6.453
 9684POPC   C2B59696   8.883  27.420   6.753
 9684POPC   C3B59697   8.818  27.399   7.053
 9684POPC   C4B59698   8.799  27.402   7.353
 9685POPC   NC359699  27.614  30.672   5.553
 9685POPC   PO459700  27.605  30.706   5.853
 9685POPC   GL159701  27.553  30.740   6.153
 9685POPC   GL259702  27.656  30.825   6.153
 9685POPC   C1A59703  27.626  30.714   6.453
 9685POPC   D2A59704  27.631  30.718   6.753
 9685POPC   C3A59705  27.631  30.663   7.053
 9685POPC   C4A59706  27.634  30.696   7.353
 9685POPC   C1B59707  27.664  30.941   6.453
 9685POPC   C2B59708  27.661  30.935   6.753
 9685POPC   C3B59709  27.678  30.980   7.053
 9685POPC   C4B59710  27.645  30.954   7.353
 9686POPC   NC359711  27.570  43.924   5.553
 9686POPC   PO459712  27.642  43.914   5.853
 9686POPC   GL159713  27.596  43.906   6.153
 9686POPC   GL259714  27.511  43.755   6.153
 9686POPC   C1A59715  27.562  43.857   6.453
 9686POPC   D2A59716  27.575  43.850   6.753
 9686POPC   C3A59717  27.598  43.876   7.053
 9686POPC   C4A59718  27.581  43.869   7.353
 9686POPC   C1B59719  27.507  43.631   6.453
 9686POPC   C2B59720  27.528  43.668   6.753
 9686POPC   C3B59721  27.453  43.689   7.053
 9686POPC   C4B59722  27.514  43.651   7.353
 9687POPC   NC359723  28.350  40.762   5.553
 9687POPC   PO459724  28.391  40.791   5.853
 9687POPC   GL159725  28.399  40.786   6.153
 9687POPC   GL259726  28.411  40.668   6.153
 9687POPC   C1A59727  28.327  40.744   6.453
 9687POPC   D2A59728  28.394  40.794   6.753
 9687POPC   C3A59729  28.395  40.779   7.053
 9687POPC   C4A59730  28.392  40.755   7.353
 9687POPC   C1B59731  28.493  40.556   6.453
 9687POPC   C2B59732  28.487  40.638   6.753
 9687POPC   C3B59733  28.564  40.550   7.053
 9687POPC   C4B59734  28.546  40.627   7.353
 9688POPC   NC359735  28.373   0.427   5.553
 9688POPC   PO459736  28.404   0.484   5.853
 9688POPC   GL159737  28.389   0.465   6.153
 9688POPC   GL259738  28.278   0.410   6.153
 9688POPC   C1A59739  28.346   0.394   6.453
 9688POPC   D2A59740  28.371   0.449   6.753
 9688POPC   C3A59741  28.340   0.482   7.053
 9688POPC   C4A59742  28.321   0.458   7.353
 9688POPC   C1B59743  28.097   0.431   6.453
 9688POPC   C2B59744  28.134   0.406   6.753
 9688POPC   C3B59745  28.102   0.412   7.053
 9688POPC   C4B59746  28.151   0.361   7.353
 9689POPC   NC359747  29.099  43.936   5.553
 9689POPC   PO459748  29.112  43.880   5.853
 9689POPC   GL159749  29.181  43.850   6.153
 9689POPC   GL259750  29.228  43.772   6.153
 9689POPC   C1A59751  29.125  43.902   6.453
 9689POPC   D2A59752  29.180  43.886   6.753
 9689POPC   C3A59753  29.151  43.922   7.053
 9689POPC   C4A59754  29.168  43.890   7.353
 9689POPC   C1B59755  29.235  43.699   6.453
 9689POPC   C2B59756  29.212  43.689   6.753
 9689POPC   C3B59757  29.197  43.621   7.053
 9689POPC   C4B59758  29.223  43.687   7.353
 9690POPC   NC359759  19.044  36.140   5.553
 9690POPC   PO459760  19.033  36.149   5.853
 9690POPC   GL159761  19.076  36.106   6.153
 9690POPC   GL259762  19.213  36.131   6.153
 9690POPC   C1A59763  19.036  36.130   6.453
 9690POPC   D2A59764  19.099  36.156   6.753
 9690POPC   C3A59765  19.081  36.169   7.053
 9690POPC   C4A59766  19.108  36.127   7.353
 9690POPC   C1B59767  19.266  36.038   6.453
 9690POPC   C2B59768  19.324  36.033   6.753
 9690POPC   C3B59769  19.349  36.088   7.053
 9690POPC   C4B59770  19.261  36.074   7.353
 9691POPC   NC359771  39.255   7.420   5.553
 9691POPC   PO459772  39.224   7.439   5.853
 9691POPC   GL159773  39.237   7.456   6.153
 9691POPC   GL259774  39.358   7.375   6.153
 9691POPC   C1A59775  39.223   7.386   6.453
 9691POPC   D2A59776  39.278   7.471   6.753
 9691POPC   C3A59777  39.208   7.428   7.053
 9691POPC   C4A59778  39.261   7.441   7.353
 9691POPC   C1B59779  39.500   7.285   6.453
 9691POPC   C2B59780  39.511   7.344   6.753
 9691POPC   C3B59781  39.500   7.327   7.053
 9691POPC   C4B59782  39.434   7.283   7.353
 9692POPC   NC359783  34.614  12.033   5.553
 9692POPC   PO459784  34.603  12.030   5.853
 9692POPC   GL159785  34.555  12.060   6.153
 9692POPC   GL259786  34.540  11.932   6.153
 9692POPC   C1A59787  34.547  12.124   6.453
 9692POPC   D2A59788  34.575  12.040   6.753
 9692POPC   C3A59789  34.549  12.061   7.053
 9692POPC   C4A59790  34.568  12.081   7.353
 9692POPC   C1B59791  34.515  11.792   6.453
 9692POPC   C2B59792  34.452  11.862   6.753
 9692POPC   C3B59793  34.477  11.849   7.053
 9692POPC   C4B59794  34.481  11.873   7.353
 9693POPC   NC359795  36.132  43.915   5.553
 9693POPC   PO459796  36.138  43.866   5.853
 9693POPC   GL159797  36.108  43.905   6.153
 9693POPC   GL259798  36.003  43.793   6.153
 9693POPC   C1A59799  36.140  43.844   6.453
 9693POPC   D2A59800  36.089  43.867   6.753
 9693POPC   C3A59801  36.118  43.876   7.053
 9693POPC   C4A59802  36.095  43.881   7.353
 9693POPC   C1B59803  35.898  43.768   6.453
 9693POPC   C2B59804  35.966  43.755   6.753
 9693POPC   C3B59805  35.920  43.727   7.053
 9693POPC   C4B59806  35.928  43.772   7.353
 9694POPC   NC359807  15.200   4.314   5.553
 9694POPC   PO459808  15.187   4.320   5.853
 9694POPC   GL159809  15.203   4.334   6.153
 9694POPC   GL259810  15.269   4.258   6.153
 9694POPC   C1A59811  15.186   4.276   6.453
 9694POPC   D2A59812  15.228   4.360   6.753
 9694POPC   C3A59813  15.189   4.342   7.053
 9694POPC   C4A59814  15.190   4.350   7.353
 9694POPC   C1B59815  15.347   4.173   6.453
 9694POPC   C2B59816  15.328   4.097   6.753
 9694POPC   C3B59817  15.368   4.174   7.053
 9694POPC   C4B59818  15.379   4.111   7.353
 9695POPC   NC359819  19.050  21.351   5.553
 9695POPC   PO459820  19.102  21.404   5.853
 9695POPC   GL159821  19.089  21.415   6.153
 9695POPC   GL259822  19.137  21.257   6.153
 9695POPC   C1A59823  19.092  21.403   6.453
 9695POPC   D2A59824  19.076  21.377   6.753
 9695POPC   C3A59825  19.051  21.424   7.053
 9695POPC   C4A59826  19.067  21.385   7.353
 9695POPC   C1B59827  19.267  21.273   6.453
 9695POPC   C2B59828  19.261  21.245   6.753
 9695POPC   C3B59829  19.230  21.225   7.053
 9695POPC   C4B59830  19.260  21.222   7.353
 9696POPC   NC359831   1.941  41.548   5.553
 9696POPC   PO459832   2.008  41.516   5.853
 9696POPC   GL159833   2.011  41.594   6.153
 9696POPC   GL259834   2.026  41.433   6.153
 9696POPC   C1A59835   2.033  41.524   6.453
 9696POPC   D2A59836   1.973  41.523   6.753
 9696POPC   C3A59837   1.979  41.561   7.053
 9696POPC   C4A59838   2.016  41.538   7.353
 9696POPC   C1B59839   2.062  41.371   6.453
 9696POPC   C2B59840   2.069  41.376   6.753
 9696POPC   C3B59841   2.077  41.291   7.053
 9696POPC   C4B59842   2.152  41.357   7.353
 9697POPC   NC359843  21.400  37.640   5.553
 9697POPC   PO459844  21.400  37.633   5.853
 9697POPC   GL159845  21.347  37.725   6.153
 9697POPC   GL259846  21.500  37.648   6.153
 9697POPC   C1A59847  21.345  37.707   6.453
 9697POPC   D2A59848  21.340  37.726   6.753
 9697POPC   C3A59849  21.337  37.686   7.053
 9697POPC   C4A59850  21.346  37.711   7.353
 9697POPC   C1B59851  21.632  37.731   6.453
 9697POPC   C2B59852  21.662  37.708   6.753
 9697POPC   C3B59853  21.645  37.726   7.053
 9697POPC   C4B59854  21.628  37.732   7.353
 9698POPC   NC359855   5.882  39.196   5.553
 9698POPC   PO459856   5.872  39.220   5.853
 9698POPC   GL159857   5.836  39.183   6.153
 9698POPC   GL259858   5.931  39.073   6.153
 9698POPC   C1A59859   5.827  39.252   6.453
 9698POPC   D2A59860   5.888  39.262   6.753
 9698POPC   C3A59861   5.873  39.210   7.053
 9698POPC   C4A59862   5.820  39.208   7.353
 9698POPC   C1B59863   5.892  38.968   6.453
 9698POPC   C2B59864   5.928  38.946   6.753
 9698POPC   C3B59865   5.896  38.942   7.053
 9698POPC   C4B59866   5.875  39.030   7.353
 9699POPC   NC359867  23.694  38.443   5.553
 9699POPC   PO459868  23.731  38.455   5.853
 9699POPC   GL159869  23.763  38.488   6.153
 9699POPC   GL259870  23.807  38.460   6.153
 9699POPC   C1A59871  23.698  38.411   6.453
 9699POPC   D2A59872  23.687  38.464   6.753
 9699POPC   C3A59873  23.726  38.499   7.053
 9699POPC   C4A59874  23.726  38.454   7.353
 9699POPC   C1B59875  23.913  38.379   6.453
 9699POPC   C2B59876  23.972  38.423   6.753
 9699POPC   C3B59877  23.935  38.439   7.053
 9699POPC   C4B59878  23.957  38.435   7.353
 9700POPC   NC359879  44.711  35.311   5.553
 9700POPC   PO459880  44.648  35.351   5.853
 9700POPC   GL159881  44.639  35.332   6.153
 9700POPC   GL259882  44.753  35.430   6.153
 9700POPC   C1A59883  44.699  35.382   6.453
 9700POPC   D2A59884  44.651  35.357   6.753
 9700POPC   C3A59885  44.705  35.376   7.053
 9700POPC   C4A59886  44.699  35.382   7.353
 9700POPC   C1B59887  44.885  35.516   6.453
 9700POPC   C2B59888  44.908  35.500   6.753
 9700POPC   C3B59889  44.895  35.460   7.053
 9700POPC   C4B59890  44.904  35.484   7.353
 9701POPC   NC359891  22.172  32.215   5.553
 9701POPC   PO459892  22.189  32.295   5.853
 9701POPC   GL159893  22.199  32.298   6.153
 9701POPC   GL259894  22.033  32.321   6.153
 9701POPC   C1A59895  22.163  32.276   6.453
 9701POPC   D2A59896  22.138  32.242   6.753
 9701POPC   C3A59897  22.186  32.272   7.053
 9701POPC   C4A59898  22.173  32.256   7.353
 9701POPC   C1B59899  21.912  32.405   6.453
 9701POPC   C2B59900  21.909  32.412   6.753
 9701POPC   C3B59901  21.941  32.388   7.053
 9701POPC   C4B59902  21.968  32.369   7.353
 9702POPC   NC359903  34.613  16.768   5.553
 9702POPC   PO459904  34.609  16.689   5.853
 9702POPC   GL159905  34.529  16.710   6.153
 9702POPC   GL259906  34.505  16.665   6.153
 9702POPC   C1A59907  34.607  16.717   6.453
 9702POPC   D2A59908  34.547  16.728   6.753
 9702POPC   C3A59909  34.560  16.769   7.053
 9702POPC   C4A59910  34.563  16.684   7.353
 9702POPC   C1B59911  34.419  16.583   6.453
 9702POPC   C2B59912  34.465  16.500   6.753
 9702POPC   C3B59913  34.427  16.504   7.053
 9702POPC   C4B59914  34.425  16.515   7.353
 9703POPC   NC359915  24.457  23.755   5.553
 9703POPC   PO459916  24.483  23.751   5.853
 9703POPC   GL159917  24.529  23.680   6.153
 9703POPC   GL259918  24.458  23.800   6.153
 9703POPC   C1A59919  24.486  23.758   6.453
 9703POPC   D2A59920  24.474  23.690   6.753
 9703POPC   C3A59921  24.536  23.736   7.053
 9703POPC   C4A59922  24.512  23.724   7.353
 9703POPC   C1B59923  24.337  23.870   6.453
 9703POPC   C2B59924  24.314  23.895   6.753
 9703POPC   C3B59925  24.317  23.877   7.053
 9703POPC   C4B59926  24.309  23.922   7.353
 9704POPC   NC359927  18.252  17.534   5.553
 9704POPC   PO459928  18.266  17.477   5.853
 9704POPC   GL159929  18.285  17.471   6.153
 9704POPC   GL259930  18.112  17.538   6.153
 9704POPC   C1A59931  18.300  17.474   6.453
 9704POPC   D2A59932  18.237  17.495   6.753
 9704POPC   C3A59933  18.286  17.555   7.053
 9704POPC   C4A59934  18.270  17.550   7.353
 9704POPC   C1B59935  18.063  17.489   6.453
 9704POPC   C2B59936  18.058  17.474   6.753
 9704POPC   C3B59937  18.062  17.502   7.053
 9704POPC   C4B59938  18.079  17.483   7.353
 9705POPC   NC359939  27.607  24.471   5.553
 9705POPC   PO459940  27.627  24.496   5.853
 9705POPC   GL159941  27.642  24.508   6.153
 9705POPC   GL259942  27.603  24.369   6.153
 9705POPC   C1A59943  27.590  24.520   6.453
 9705POPC   D2A59944  27.629  24.501   6.753
 9705POPC   C3A59945  27.627  24.452   7.053
 9705POPC   C4A59946  27.619  24.537   7.353
 9705POPC   C1B59947  27.552  24.285   6.453
 9705POPC   C2B59948  27.545  24.293   6.753
 9705POPC   C3B59949  27.489  24.255   7.053
 9705POPC   C4B59950  27.480  24.288   7.353
 9706POPC   NC359951   2.790  19.821   5.553
 9706POPC   PO459952   2.744  19.835   5.853
 9706POPC   GL159953   2.756  19.786   6.153
 9706POPC   GL259954   2.909  19.880   6.153
 9706POPC   C1A59955   2.813  19.817   6.453
 9706POPC   D2A59956   2.729  19.878   6.753
 9706POPC   C3A59957   2.784  19.849   7.053
 9706POPC   C4A59958   2.739  19.796   7.353
 9706POPC   C1B59959   2.992  19.880   6.453
 9706POPC   C2B59960   2.961  19.923   6.753
 9706POPC   C3B59961   3.036  19.853   7.053
 9706POPC   C4B59962   2.993  19.850   7.353
 9707POPC   NC359963  38.434  14.401   5.553
 9707POPC   PO459964  38.433  14.445   5.853
 9707POPC   GL159965  38.444  14.399   6.153
 9707POPC   GL259966  38.484  14.239   6.153
 9707POPC   C1A59967  38.458  14.359   6.453
 9707POPC   D2A59968  38.446  14.402   6.753
 9707POPC   C3A59969  38.457  14.444   7.053
 9707POPC   C4A59970  38.413  14.374   7.353
 9707POPC   C1B59971  38.424  14.119   6.453
 9707POPC   C2B59972  38.443  14.179   6.753
 9707POPC   C3B59973  38.483  14.163   7.053
 9707POPC   C4B59974  38.450  14.183   7.353
 9708POPC   NC359975  34.561  39.979   5.553
 9708POPC   PO459976  34.596  40.032   5.853
 9708POPC   GL159977  34.590  40.053   6.153
 9708POPC   GL259978  34.618  40.151   6.153
 9708POPC   C1A59979  34.569  40.010   6.453
 9708POPC   D2A59980  34.583  40.039   6.753
 9708POPC   C3A59981  34.531  40.003   7.053
 9708POPC   C4A59982  34.604  40.048   7.353
 9708POPC   C1B59983  34.723  40.254   6.453
 9708POPC   C2B59984  34.654  40.245   6.753
 9708POPC   C3B59985  34.661  40.235   7.053
 9708POPC   C4B59986  34.703  40.232   7.353
 9709POPC   NC359987  15.204  38.498   5.553
 9709POPC   PO459988  15.139  38.412   5.853
 9709POPC   GL159989  15.183  38.406   6.153
 9709POPC   GL259990  15.293  38.388   6.153
 9709POPC   C1A59991  15.193  38.421   6.453
 9709POPC   D2A59992  15.222  38.465   6.753
 9709POPC   C3A59993  15.130  38.417   7.053
 9709POPC   C4A59994  15.148  38.435   7.353
 9709POPC   C1B59995  15.422  38.382   6.453
 9709POPC   C2B59996  15.423  38.370   6.753
 9709POPC   C3B59997  15.435  38.373   7.053
 9709POPC   C4B59998  15.413  38.314   7.353
 9710POPC   NC359999   0.403  19.788   5.553
 9710POPC   PO460000   0.460  19.879   5.853
 9710POPC   GL160001   0.413  19.868   6.153
 9710POPC   GL260002   0.522  19.758   6.153
 9710POPC   C1A60003   0.446  19.823   6.453
 9710POPC   D2A60004   0.474  19.872   6.753
 9710POPC   C3A60005   0.396  19.790   7.053
 9710POPC   C4A60006   0.477  19.785   7.353
 9710POPC   C1B60007   0.622  19.710   6.453
 9710POPC   C2B60008   0.627  19.640   6.753
 9710POPC   C3B60009   0.626  19.651   7.053
 9710POPC   C4B60010   0.657  19.702   7.353
 9711POPC   NC360011  36.878  17.501   5.553
 9711POPC   PO460012  36.925  17.538   5.853
 9711POPC   GL160013  36.881  17.550   6.153
 9711POPC   GL260014  36.979  17.625   6.153
 9711POPC   C1A60015  36.943  17.476   6.453
 9711POPC   D2A60016  36.920  17.463   6.753
 9711POPC   C3A60017  36.892  17.555   7.053
 9711POPC   C4A60018  36.898  17.484   7.353
 9711POPC   C1B60019  36.944  17.712   6.453
 9711POPC   C2B60020  36.985  17.756   6.753
 9711POPC   C3B60021  37.009  17.774   7.053
 9711POPC   C4B60022  36.985  17.765   7.353
 9712POPC   NC360023  12.074  42.351   5.553
 9712POPC   PO460024  12.059  42.373   5.853
 9712POPC   GL160025  12.079  42.382   6.153
 9712POPC   GL260026  11.983  42.461   6.153
 9712POPC   C1A60027  12.044  42.316   6.453
 9712POPC   D2A60028  12.041  42.288   6.753
 9712POPC   C3A60029  12.099  42.366   7.053
 9712POPC   C4A60030  12.032  42.382   7.353
 9712POPC   C1B60031  11.912  42.545   6.453
 9712POPC   C2B60032  11.939  42.566   6.753
 9712POPC   C3B60033  11.928  42.574   7.053
 9712POPC   C4B60034  11.961  42.597   7.353
 9713POPC   NC360035  19.030   5.857   5.553
 9713POPC   PO460036  19.025   5.853   5.853
 9713POPC   GL160037  19.012   5.840   6.153
 9713POPC   GL260038  19.163   5.928   6.153
 9713POPC   C1A60039  19.066   5.855   6.453
 9713POPC   D2A60040  19.011   5.834   6.753
 9713POPC   C3A60041  19.059   5.849   7.053
 9713POPC   C4A60042  19.071   5.851   7.353
 9713POPC   C1B60043  19.227   5.977   6.453
 9713POPC   C2B60044  19.269   5.993   6.753
 9713POPC   C3B60045  19.266   5.993   7.053
 9713POPC   C4B60046  19.247   6.018   7.353
 9714POPC   NC360047  22.187  29.914   5.553
 9714POPC   PO460048  22.206  29.915   5.853
 9714POPC   GL160049  22.167  29.952   6.153
 9714POPC   GL260050  22.291  29.932   6.153
 9714POPC   C1A60051  22.140  29.931   6.453
 9714POPC   D2A60052  22.153  29.904   6.753
 9714POPC   C3A60053  22.206  29.969   7.053
 9714POPC   C4A60054  22.142  29.896   7.353
 9714POPC   C1B60055  22.446  30.012   6.453
 9714POPC   C2B60056  22.408  29.996   6.753
 9714POPC   C3B60057  22.446  29.934   7.053
 9714POPC   C4B60058  22.424  30.002   7.353
 9715POPC   NC360059  22.977  11.310   5.553
 9715POPC   PO460060  22.933  11.311   5.853
 9715POPC   GL160061  22.905  11.288   6.153
 9715POPC   GL260062  22.933  11.441   6.153
 9715POPC   C1A60063  22.947  11.288   6.453
 9715POPC   D2A60064  22.921  11.273   6.753
 9715POPC   C3A60065  22.967  11.273   7.053
 9715POPC   C4A60066  22.930  11.324   7.353
 9715POPC   C1B60067  22.968  11.539   6.453
 9715POPC   C2B60068  22.928  11.524   6.753
 9715POPC   C3B60069  22.999  11.566   7.053
 9715POPC   C4B60070  22.980  11.581   7.353
 9716POPC   NC360071   7.402  11.280   5.553
 9716POPC   PO460072   7.443  11.276   5.853
 9716POPC   GL160073   7.445  11.255   6.153
 9716POPC   GL260074   7.450  11.172   6.153
 9716POPC   C1A60075   7.449  11.346   6.453
 9716POPC   D2A60076   7.432  11.321   6.753
 9716POPC   C3A60077   7.470  11.256   7.053
 9716POPC   C4A60078   7.390  11.289   7.353
 9716POPC   C1B60079   7.503  11.105   6.453
 9716POPC   C2B60080   7.554  11.034   6.753
 9716POPC   C3B60081   7.496  11.083   7.053
 9716POPC   C4B60082   7.523  11.040   7.353
 9717POPC   NC360083  26.781  26.844   5.553
 9717POPC   PO460084  26.857  26.804   5.853
 9717POPC   GL160085  26.851  26.832   6.153
 9717POPC   GL260086  26.965  26.862   6.153
 9717POPC   C1A60087  26.780  26.824   6.453
 9717POPC   D2A60088  26.793  26.790   6.753
 9717POPC   C3A60089  26.864  26.785   7.053
 9717POPC   C4A60090  26.860  26.810   7.353
 9717POPC   C1B60091  27.081  26.958   6.453
 9717POPC   C2B60092  27.048  26.892   6.753
 9717POPC   C3B60093  27.066  26.982   7.053
 9717POPC   C4B60094  27.087  26.961   7.353
 9718POPC   NC360095   4.309   7.377   5.553
 9718POPC   PO460096   4.298   7.469   5.853
 9718POPC   GL160097   4.351   7.382   6.153
 9718POPC   GL260098   4.247   7.470   6.153
 9718POPC   C1A60099   4.321   7.420   6.453
 9718POPC   D2A60100   4.275   7.417   6.753
 9718POPC   C3A60101   4.317   7.460   7.053
 9718POPC   C4A60102   4.281   7.375   7.353
 9718POPC   C1B60103   4.166   7.565   6.453
 9718POPC   C2B60104   4.175   7.579   6.753
 9718POPC   C3B60105   4.165   7.647   7.053
 9718POPC   C4B60106   4.205   7.647   7.353
 9719POPC   NC360107  14.431  31.432   5.553
 9719POPC   PO460108  14.420  31.467   5.853
 9719POPC   GL160109  14.412  31.429   6.153
 9719POPC   GL260110  14.276  31.423   6.153
 9719POPC   C1A60111  14.385  31.464   6.453
 9719POPC   D2A60112  14.363  31.482   6.753
 9719POPC   C3A60113  14.406  31.444   7.053
 9719POPC   C4A60114  14.425  31.521   7.353
 9719POPC   C1B60115  14.201  31.367   6.453
 9719POPC   C2B60116  14.133  31.423   6.753
 9719POPC   C3B60117  14.201  31.425   7.053
 9719POPC   C4B60118  14.181  31.442   7.353
 9720POPC   NC360119   7.450  37.726   5.553
 9720POPC   PO460120   7.382  37.649   5.853
 9720POPC   GL160121   7.461  37.719   6.153
 9720POPC   GL260122   7.272  37.689   6.153
 9720POPC   C1A60123   7.413  37.677   6.453
 9720POPC   D2A60124   7.434  37.681   6.753
 9720POPC   C3A60125   7.374  37.665   7.053
 9720POPC   C4A60126   7.380  37.726   7.353
 9720POPC   C1B60127   7.179  37.742   6.453
 9720POPC   C2B60128   7.222  37.736   6.753
 9720POPC   C3B60129   7.167  37.730   7.053
 9720POPC   C4B60130   7.205  37.783   7.353
 9721POPC   NC360131  26.066  19.047   5.553
 9721POPC   PO460132  26.074  19.075   5.853
 9721POPC   GL160133  26.045  19.064   6.153
 9721POPC   GL260134  26.015  19.190   6.153
 9721POPC   C1A60135  25.992  19.054   6.453
 9721POPC   D2A60136  26.065  19.083   6.753
 9721POPC   C3A60137  26.012  19.086   7.053
 9721POPC   C4A60138  26.024  19.091   7.353
 9721POPC   C1B60139  26.054  19.318   6.453
 9721POPC   C2B60140  26.058  19.286   6.753
 9721POPC   C3B60141  26.087  19.343   7.053
 9721POPC   C4B60142  26.107  19.274   7.353
 9722POPC   NC360143   4.326  17.512   5.553
 9722POPC   PO460144   4.281  17.510   5.853
 9722POPC   GL160145   4.280  17.521   6.153
 9722POPC   GL260146   4.418  17.550   6.153
 9722POPC   C1A60147   4.336  17.473   6.453
 9722POPC   D2A60148   4.359  17.519   6.753
 9722POPC   C3A60149   4.343  17.507   7.053
 9722POPC   C4A60150   4.365  17.529   7.353
 9722POPC   C1B60151   4.479  17.637   6.453
 9722POPC   C2B60152   4.552  17.649   6.753
 9722POPC   C3B60153   4.512  17.701   7.053
 9722POPC   C4B60154   4.551  17.688   7.353
 9723POPC   NC360155  31.497   6.606   5.553
 9723POPC   PO460156  31.428   6.615   5.853
 9723POPC   GL160157  31.443   6.681   6.153
 9723POPC   GL260158  31.575   6.510   6.153
 9723POPC   C1A60159  31.456   6.690   6.453
 9723POPC   D2A60160  31.445   6.622   6.753
 9723POPC   C3A60161  31.468   6.601   7.053
 9723POPC   C4A60162  31.504   6.646   7.353
 9723POPC   C1B60163  31.576   6.463   6.453
 9723POPC   C2B60164  31.647   6.412   6.753
 9723POPC   C3B60165  31.576   6.484   7.053
 9723POPC   C4B60166  31.638   6.451   7.353
 9724POPC   NC360167  39.220  44.620   5.553
 9724POPC   PO460168  39.255  44.676   5.853
 9724POPC   GL160169  39.191  44.632   6.153
 9724POPC   GL260170  39.304  44.729   6.153
 9724POPC   C1A60171  39.219  44.701   6.453
 9724POPC   D2A60172  39.255  44.642   6.753
 9724POPC   C3A60173  39.266  44.640   7.053
 9724POPC   C4A60174  39.228  44.655   7.353
 9724POPC   C1B60175  39.345  44.880   6.453
 9724POPC   C2B60176  39.330  44.862   6.753
 9724POPC   C3B60177  39.334  44.854   7.053
 9724POPC   C4B60178  39.376  44.819   7.353
 9725POPC   NC360179  42.367   7.419   5.553
 9725POPC   PO460180  42.298   7.403   5.853
 9725POPC   GL160181  42.324   7.382   6.153
 9725POPC   GL260182  42.397   7.451   6.153
 9725POPC   C1A60183  42.321   7.435   6.453
 9725POPC   D2A60184  42.287   7.426   6.753
 9725POPC   C3A60185  42.315   7.391   7.053
 9725POPC   C4A60186  42.328   7.443   7.353
 9725POPC   C1B60187  42.563   7.505   6.453
 9725POPC   C2B60188  42.556   7.546   6.753
 9725POPC   C3B60189  42.540   7.573   7.053
 9725POPC   C4B60190  42.591   7.488   7.353
 9726POPC   NC360191  28.393  26.079   5.553
 9726POPC   PO460192  28.397  26.000   5.853
 9726POPC   GL160193  28.334  25.995   6.153
 9726POPC   GL260194  28.323  25.891   6.153
 9726POPC   C1A60195  28.362  26.062   6.453
 9726POPC   D2A60196  28.368  25.995   6.753
 9726POPC   C3A60197  28.354  26.002   7.053
 9726POPC   C4A60198  28.370  26.064   7.353
 9726POPC   C1B60199  28.312  25.773   6.453
 9726POPC   C2B60200  28.297  25.795   6.753
 9726POPC   C3B60201  28.298  25.766   7.053
 9726POPC   C4B60202  28.275  25.780   7.353
 9727POPC   NC360203   7.413  40.771   5.553
 9727POPC   PO460204   7.402  40.822   5.853
 9727POPC   GL160205   7.402  40.821   6.153
 9727POPC   GL260206   7.575  40.866   6.153
 9727POPC   C1A60207   7.371  40.772   6.453
 9727POPC   D2A60208   7.379  40.814   6.753
 9727POPC   C3A60209   7.379  40.749   7.053
 9727POPC   C4A60210   7.371  40.733   7.353
 9727POPC   C1B60211   7.644  40.876   6.453
 9727POPC   C2B60212   7.602  40.917   6.753
 9727POPC   C3B60213   7.671  40.869   7.053
 9727POPC   C4B60214   7.655  40.875   7.353
 9728POPC   NC360215  29.900   5.133   5.553
 9728POPC   PO460216  29.914   5.110   5.853
 9728POPC   GL160217  29.915   5.142   6.153
 9728POPC   GL260218  29.991   5.216   6.153
 9728POPC   C1A60219  29.894   5.090   6.453
 9728POPC   D2A60220  29.879   5.092   6.753
 9728POPC   C3A60221  29.944   5.084   7.053
 9728POPC   C4A60222  29.898   5.093   7.353
 9728POPC   C1B60223  30.074   5.280   6.453
 9728POPC   C2B60224  30.035   5.260   6.753
 9728POPC   C3B60225  30.056   5.306   7.053
 9728POPC   C4B60226  30.117   5.236   7.353
 9729POPC   NC360227  15.936  29.138   5.553
 9729POPC   PO460228  15.940  29.105   5.853
 9729POPC   GL160229  15.997  29.150   6.153
 9729POPC   GL260230  15.890  29.309   6.153
 9729POPC   C1A60231  15.980  29.150   6.453
 9729POPC   D2A60232  16.003  29.127   6.753
 9729POPC   C3A60233  15.954  29.141   7.053
 9729POPC   C4A60234  15.957  29.157   7.353
 9729POPC   C1B60235  15.881  29.342   6.453
 9729POPC   C2B60236  15.936  29.372   6.753
 9729POPC   C3B60237  15.952  29.432   7.053
 9729POPC   C4B60238  15.901  29.364   7.353
 9730POPC   NC360239  37.712   5.086   5.553
 9730POPC   PO460240  37.698   5.089   5.853
 9730POPC   GL160241  37.675   5.050   6.153
 9730POPC   GL260242  37.697   4.955   6.153
 9730POPC   C1A60243  37.633   5.105   6.453
 9730POPC   D2A60244  37.722   5.127   6.753
 9730POPC   C3A60245  37.700   5.073   7.053
 9730POPC   C4A60246  37.663   5.045   7.353
 9730POPC   C1B60247  37.722   4.868   6.453
 9730POPC   C2B60248  37.724   4.851   6.753
 9730POPC   C3B60249  37.679   4.872   7.053
 9730POPC   C4B60250  37.749   4.872   7.353
 9731POPC   NC360251  34.575  21.343   5.553
 9731POPC   PO460252  34.613  21.341   5.853
 9731POPC   GL160253  34.599  21.417   6.153
 9731POPC   GL260254  34.482  21.336   6.153
 9731POPC   C1A60255  34.567  21.395   6.453
 9731POPC   D2A60256  34.534  21.377   6.753
 9731POPC   C3A60257  34.544  21.357   7.053
 9731POPC   C4A60258  34.543  21.371   7.353
 9731POPC   C1B60259  34.421  21.214   6.453
 9731POPC   C2B60260  34.368  21.242   6.753
 9731POPC   C3B60261  34.388  21.290   7.053
 9731POPC   C4B60262  34.326  21.199   7.353
 9732POPC   NC360263  33.770  42.322   5.553
 9732POPC   PO460264  33.824  42.291   5.853
 9732POPC   GL160265  33.776  42.349   6.153
 9732POPC   GL260266  33.927  42.390   6.153
 9732POPC   C1A60267  33.808  42.313   6.453
 9732POPC   D2A60268  33.801  42.321   6.753
 9732POPC   C3A60269  33.752  42.384   7.053
 9732POPC   C4A60270  33.776  42.363   7.353
 9732POPC   C1B60271  34.024  42.396   6.453
 9732POPC   C2B60272  34.082  42.467   6.753
 9732POPC   C3B60273  34.076  42.380   7.053
 9732POPC   C4B60274  34.022  42.429   7.353
 9733POPC   NC360275  38.422  27.612   5.553
 9733POPC   PO460276  38.450  27.572   5.853
 9733POPC   GL160277  38.445  27.622   6.153
 9733POPC   GL260278  38.385  27.520   6.153
 9733POPC   C1A60279  38.487  27.586   6.453
 9733POPC   D2A60280  38.490  27.614   6.753
 9733POPC   C3A60281  38.445  27.630   7.053
 9733POPC   C4A60282  38.482  27.642   7.353
 9733POPC   C1B60283  38.460  27.367   6.453
 9733POPC   C2B60284  38.454  27.321   6.753
 9733POPC   C3B60285  38.421  27.319   7.053
 9733POPC   C4B60286  38.384  27.297   7.353
 9734POPC   NC360287  29.957  26.781   5.553
 9734POPC   PO460288  29.899  26.801   5.853
 9734POPC   GL160289  29.892  26.827   6.153
 9734POPC   GL260290  30.008  26.906   6.153
 9734POPC   C1A60291  29.916  26.844   6.453
 9734POPC   D2A60292  29.890  26.818   6.753
 9734POPC   C3A60293  29.947  26.831   7.053
 9734POPC   C4A60294  29.917  26.794   7.353
 9734POPC   C1B60295  30.166  26.935   6.453
 9734POPC   C2B60296  30.091  27.012   6.753
 9734POPC   C3B60297  30.127  26.966   7.053
 9734POPC   C4B60298  30.078  26.959   7.353
 9735POPC   NC360299  32.988  25.284   5.553
 9735POPC   PO460300  33.054  25.224   5.853
 9735POPC   GL160301  33.046  25.307   6.153
 9735POPC   GL260302  33.092  25.114   6.153
 9735POPC   C1A60303  33.005  25.253   6.453
 9735POPC   D2A60304  33.034  25.313   6.753
 9735POPC   C3A60305  33.049  25.235   7.053
 9735POPC   C4A60306  33.025  25.275   7.353
 9735POPC   C1B60307  33.175  25.010   6.453
 9735POPC   C2B60308  33.201  25.053   6.753
 9735POPC   C3B60309  33.139  25.008   7.053
 9735POPC   C4B60310  33.124  25.028   7.353
 9736POPC   NC360311  29.126  33.834   5.553
 9736POPC   PO460312  29.138  33.826   5.853
 9736POPC   GL160313  29.193  33.834   6.153
 9736POPC   GL260314  28.987  33.771   6.153
 9736POPC   C1A60315  29.108  33.820   6.453
 9736POPC   D2A60316  29.107  33.822   6.753
 9736POPC   C3A60317  29.106  33.760   7.053
 9736POPC   C4A60318  29.189  33.756   7.353
 9736POPC   C1B60319  28.872  33.659   6.453
 9736POPC   C2B60320  28.924  33.700   6.753
 9736POPC   C3B60321  28.915  33.670   7.053
 9736POPC   C4B60322  28.920  33.708   7.353
 9737POPC   NC360323  31.458  26.832   5.553
 9737POPC   PO460324  31.456  26.776   5.853
 9737POPC   GL160325  31.485  26.772   6.153
 9737POPC   GL260326  31.623  26.772   6.153
 9737POPC   C1A60327  31.461  26.831   6.453
 9737POPC   D2A60328  31.435  26.778   6.753
 9737POPC   C3A60329  31.511  26.776   7.053
 9737POPC   C4A60330  31.487  26.772   7.353
 9737POPC   C1B60331  31.698  26.698   6.453
 9737POPC   C2B60332  31.640  26.733   6.753
 9737POPC   C3B60333  31.703  26.726   7.053
 9737POPC   C4B60334  31.679  26.649   7.353
 9738POPC   NC360335  15.149  27.575   5.553
 9738POPC   PO460336  15.206  27.605   5.853
 9738POPC   GL160337  15.166  27.593   6.153
 9738POPC   GL260338  15.022  27.532   6.153
 9738POPC   C1A60339  15.198  27.548   6.453
 9738POPC   D2A60340  15.150  27.571   6.753
 9738POPC   C3A60341  15.193  27.546   7.053
 9738POPC   C4A60342  15.179  27.563   7.353
 9738POPC   C1B60343  14.988  27.518   6.453
 9738POPC   C2B60344  14.944  27.566   6.753
 9738POPC   C3B60345  14.966  27.546   7.053
 9738POPC   C4B60346  14.911  27.572   7.353
 9739POPC   NC360347  21.365  10.485   5.553
 9739POPC   PO460348  21.386  10.479   5.853
 9739POPC   GL160349  21.422  10.479   6.153
 9739POPC   GL260350  21.305  10.586   6.153
 9739POPC   C1A60351  21.353  10.482   6.453
 9739POPC   D2A60352  21.429  10.541   6.753
 9739POPC   C3A60353  21.340  10.475   7.053
 9739POPC   C4A60354  21.421  10.496   7.353
 9739POPC   C1B60355  21.215  10.744   6.453
 9739POPC   C2B60356  21.232  10.718   6.753
 9739POPC   C3B60357  21.185  10.662   7.053
 9739POPC   C4B60358  21.176  10.687   7.353
 9740POPC   NC360359  10.540  14.450   5.553
 9740POPC   PO460360  10.476  14.364   5.853
 9740POPC   GL160361  10.542  14.440   6.153
 9740POPC   GL260362  10.460  14.369   6.153
 9740POPC   C1A60363  10.547  14.368   6.453
 9740POPC   D2A60364  10.544  14.367   6.753
 9740POPC   C3A60365  10.554  14.451   7.053
 9740POPC   C4A60366  10.562  14.431   7.353
 9740POPC   C1B60367  10.296  14.260   6.453
 9740POPC   C2B60368  10.279  14.297   6.753
 9740POPC   C3B60369  10.327  14.211   7.053
 9740POPC   C4B60370  10.288  14.242   7.353
 9741POPC   NC360371  29.940   8.195   5.553
 9741POPC   PO460372  29.917   8.156   5.853
 9741POPC   GL160373  29.962   8.205   6.153
 9741POPC   GL260374  29.792   8.298   6.153
 9741POPC   C1A60375  29.905   8.170   6.453
 9741POPC   D2A60376  29.970   8.188   6.753
 9741POPC   C3A60377  29.916   8.204   7.053
 9741POPC   C4A60378  29.912   8.180   7.353
 9741POPC   C1B60379  29.737   8.398   6.453
 9741POPC   C2B60380  29.693   8.314   6.753
 9741POPC   C3B60381  29.754   8.376   7.053
 9741POPC   C4B60382  29.759   8.385   7.353
 9742POPC   NC360383  11.328  34.593   5.553
 9742POPC   PO460384  11.284  34.591   5.853
 9742POPC   GL160385  11.326  34.527   6.153
 9742POPC   GL260386  11.396  34.631   6.153
 9742POPC   C1A60387  11.273  34.622   6.453
 9742POPC   D2A60388  11.350  34.535   6.753
 9742POPC   C3A60389  11.338  34.622   7.053
 9742POPC   C4A60390  11.285  34.625   7.353
 9742POPC   C1B60391  11.495  34.742   6.453
 9742POPC   C2B60392  11.552  34.670   6.753
 9742POPC   C3B60393  11.548  34.708   7.053
 9742POPC   C4B60394  11.493  34.736   7.353
 9743POPC   NC360395  40.793  33.760   5.553
 9743POPC   PO460396  40.786  33.774   5.853
 9743POPC   GL160397  40.805  33.809   6.153
 9743POPC   GL260398  40.711  33.720   6.153
 9743POPC   C1A60399  40.787  33.777   6.453
 9743POPC   D2A60400  40.795  33.772   6.753
 9743POPC   C3A60401  40.740  33.829   7.053
 9743POPC   C4A60402  40.750  33.848   7.353
 9743POPC   C1B60403  40.695  33.554   6.453
 9743POPC   C2B60404  40.729  33.595   6.753
 9743POPC   C3B60405  40.668  33.538   7.053
 9743POPC   C4B60406  40.698  33.526   7.353
 9744POPC   NC360407  26.821  33.827   5.553
 9744POPC   PO460408  26.858  33.849   5.853
 9744POPC   GL160409  26.772  33.776   6.153
 9744POPC   GL260410  26.923  33.745   6.153
 9744POPC   C1A60411  26.779  33.822   6.453
 9744POPC   D2A60412  26.854  33.775   6.753
 9744POPC   C3A60413  26.865  33.777   7.053
 9744POPC   C4A60414  26.831  33.817   7.353
 9744POPC   C1B60415  27.081  33.758   6.453
 9744POPC   C2B60416  27.081  33.746   6.753
 9744POPC   C3B60417  27.094  33.707   7.053
 9744POPC   C4B60418  27.048  33.703   7.353
 9745POPC   NC360419  30.690  13.582   5.553
 9745POPC   PO460420  30.693  13.635   5.853
 9745POPC   GL160421  30.665  13.668   6.153
 9745POPC   GL260422  30.770  13.664   6.153
 9745POPC   C1A60423  30.676  13.658   6.453
 9745POPC   D2A60424  30.734  13.652   6.753
 9745POPC   C3A60425  30.740  13.617   7.053
 9745POPC   C4A60426  30.678  13.617   7.353
 9745POPC   C1B60427  30.968  13.729   6.453
 9745POPC   C2B60428  30.974  13.726   6.753
 9745POPC   C3B60429  30.919  13.716   7.053
 9745POPC   C4B60430  30.972  13.690   7.353
 9746POPC   NC360431  29.169  32.211   5.553
 9746POPC   PO460432  29.190  32.220   5.853
 9746POPC   GL160433  29.137  32.261   6.153
 9746POPC   GL260434  29.179  32.121   6.153
 9746POPC   C1A60435  29.187  32.233   6.453
 9746POPC   D2A60436  29.163  32.286   6.753
 9746POPC   C3A60437  29.103  32.269   7.053
 9746POPC   C4A60438  29.125  32.294   7.353
 9746POPC   C1B60439  29.321  32.064   6.453
 9746POPC   C2B60440  29.319  32.052   6.753
 9746POPC   C3B60441  29.260  32.069   7.053
 9746POPC   C4B60442  29.253  32.090   7.353
 9747POPC   NC360443  27.580  44.687   5.553
 9747POPC   PO460444  27.606  44.650   5.853
 9747POPC   GL160445  27.551  44.662   6.153
 9747POPC   GL260446  27.499  44.806   6.153
 9747POPC   C1A60447  27.596  44.654   6.453
 9747POPC   D2A60448  27.623  44.639   6.753
 9747POPC   C3A60449  27.570  44.637   7.053
 9747POPC   C4A60450  27.610  44.668   7.353
 9747POPC   C1B60451  27.504  44.896   6.453
 9747POPC   C2B60452  27.452  44.901   6.753
 9747POPC   C3B60453  27.440  44.907   7.053
 9747POPC   C4B60454  27.483  44.925   7.353
 9748POPC   NC360455  27.606   1.182   5.553
 9748POPC   PO460456  27.574   1.192   5.853
 9748POPC   GL160457  27.609   1.248   6.153
 9748POPC   GL260458  27.517   1.327   6.153
 9748POPC   C1A60459  27.589   1.233   6.453
 9748POPC   D2A60460  27.634   1.239   6.753
 9748POPC   C3A60461  27.601   1.227   7.053
 9748POPC   C4A60462  27.575   1.204   7.353
 9748POPC   C1B60463  27.370   1.350   6.453
 9748POPC   C2B60464  27.430   1.344   6.753
 9748POPC   C3B60465  27.443   1.333   7.053
 9748POPC   C4B60466  27.404   1.414   7.353
 9749POPC   NC360467  36.911  15.165   5.553
 9749POPC   PO460468  36.949  15.182   5.853
 9749POPC   GL160469  36.934  15.221   6.153
 9749POPC   GL260470  36.944  15.257   6.153
 9749POPC   C1A60471  36.913  15.229   6.453
 9749POPC   D2A60472  36.871  15.229   6.753
 9749POPC   C3A60473  36.915  15.207   7.053
 9749POPC   C4A60474  36.925  15.181   7.353
 9749POPC   C1B60475  37.085  15.342   6.453
 9749POPC   C2B60476  37.053  15.393   6.753
 9749POPC   C3B60477  37.108  15.324   7.053
 9749POPC   C4B60478  37.113  15.388   7.353
 9750POPC   NC360479   2.024  29.946   5.553
 9750POPC   PO460480   2.000  29.896   5.853
 9750POPC   GL160481   1.992  29.958   6.153
 9750POPC   GL260482   2.096  29.989   6.153
 9750POPC   C1A60483   1.946  29.931   6.453
 9750POPC   D2A60484   2.016  29.910   6.753
 9750POPC   C3A60485   1.982  29.879   7.053
 9750POPC   C4A60486   2.007  29.905   7.353
 9750POPC   C1B60487   2.174  30.106   6.453
 9750POPC   C2B60488   2.197  30.058   6.753
 9750POPC   C3B60489   2.113  30.150   7.053
 9750POPC   C4B60490   2.156  30.111   7.353
 9751POPC   NC360491  20.567  35.389   5.553
 9751POPC   PO460492  20.651  35.378   5.853
 9751POPC   GL160493  20.620  35.358   6.153
 9751POPC   GL260494  20.678  35.198   6.153
 9751POPC   C1A60495  20.621  35.387   6.453
 9751POPC   D2A60496  20.566  35.304   6.753
 9751POPC   C3A60497  20.563  35.396   7.053
 9751POPC   C4A60498  20.588  35.312   7.353
 9751POPC   C1B60499  20.758  35.125   6.453
 9751POPC   C2B60500  20.686  35.135   6.753
 9751POPC   C3B60501  20.697  35.085   7.053
 9751POPC   C4B60502  20.688  35.090   7.353
 9752POPC   NC360503   0.460  41.576   5.553
 9752POPC   PO460504   0.414  41.572   5.853
 9752POPC   GL160505   0.448  41.537   6.153
 9752POPC   GL260506   0.477  41.441   6.153
 9752POPC   C1A60507   0.481  41.548   6.453
 9752POPC   D2A60508   0.418  41.577   6.753
 9752POPC   C3A60509   0.443  41.511   7.053
 9752POPC   C4A60510   0.426  41.509   7.353
 9752POPC   C1B60511   0.554  41.306   6.453
 9752POPC   C2B60512   0.576  41.323   6.753
 9752POPC   C3B60513   0.568  41.297   7.053
 9752POPC   C4B60514   0.565  41.330   7.353
 9753POPC   NC360515  13.582  36.129   5.553
 9753POPC   PO460516  13.584  36.100   5.853
 9753POPC   GL160517  13.625  36.126   6.153
 9753POPC   GL260518  13.669  35.959   6.153
 9753POPC   C1A60519  13.593  36.174   6.453
 9753POPC   D2A60520  13.601  36.137   6.753
 9753POPC   C3A60521  13.658  36.096   7.053
 9753POPC   C4A60522  13.669  36.163   7.353
 9753POPC   C1B60523  13.728  35.860   6.453
 9753POPC   C2B60524  13.671  35.931   6.753
 9753POPC   C3B60525  13.721  35.903   7.053
 9753POPC   C4B60526  13.723  35.852   7.353
 9754POPC   NC360527  12.812  26.808   5.553
 9754POPC   PO460528  12.894  26.777   5.853
 9754POPC   GL160529  12.848  26.852   6.153
 9754POPC   GL260530  12.807  26.733   6.153
 9754POPC   C1A60531  12.879  26.862   6.453
 9754POPC   D2A60532  12.869  26.802   6.753
 9754POPC   C3A60533  12.895  26.770   7.053
 9754POPC   C4A60534  12.896  26.840   7.353
 9754POPC   C1B60535  12.813  26.588   6.453
 9754POPC   C2B60536  12.781  26.585   6.753
 9754POPC   C3B60537  12.831  26.615   7.053
 9754POPC   C4B60538  12.809  26.610   7.353
 9755POPC   NC360539  39.245  41.568   5.553
 9755POPC   PO460540  39.222  41.525   5.853
 9755POPC   GL160541  39.211  41.581   6.153
 9755POPC   GL260542  39.231  41.479   6.153
 9755POPC   C1A60543  39.211  41.537   6.453
 9755POPC   D2A60544  39.246  41.607   6.753
 9755POPC   C3A60545  39.242  41.552   7.053
 9755POPC   C4A60546  39.239  41.564   7.353
 9755POPC   C1B60547  39.213  41.306   6.453
 9755POPC   C2B60548  39.280  41.266   6.753
 9755POPC   C3B60549  39.275  41.271   7.053
 9755POPC   C4B60550  39.229  41.317   7.353
 9756POPC   NC360551   1.228  44.697   5.553
 9756POPC   PO460552   1.197  44.629   5.853
 9756POPC   GL160553   1.240  44.651   6.153
 9756POPC   GL260554   1.333  44.645   6.153
 9756POPC   C1A60555   1.200  44.658   6.453
 9756POPC   D2A60556   1.170  44.624   6.753
 9756POPC   C3A60557   1.236  44.622   7.053
 9756POPC   C4A60558   1.193  44.613   7.353
 9756POPC   C1B60559   1.468  44.629   6.453
 9756POPC   C2B60560   1.493  44.721   6.753
 9756POPC   C3B60561   1.469  44.698   7.053
 9756POPC   C4B60562   1.481  44.714   7.353
 9757POPC   NC360563   3.587  22.180   5.553
 9757POPC   PO460564   3.589  22.212   5.853
 9757POPC   GL160565   3.568  22.153   6.153
 9757POPC   GL260566   3.582  22.067   6.153
 9757POPC   C1A60567   3.579  22.204   6.453
 9757POPC   D2A60568   3.535  22.168   6.753
 9757POPC   C3A60569   3.517  22.206   7.053
 9757POPC   C4A60570   3.544  22.136   7.353
 9757POPC   C1B60571   3.572  21.899   6.453
 9757POPC   C2B60572   3.593  21.876   6.753
 9757POPC   C3B60573   3.619  21.924   7.053
 9757POPC   C4B60574   3.604  21.930   7.353
 9758POPC   NC360575  26.059  37.644   5.553
 9758POPC   PO460576  26.080  37.664   5.853
 9758POPC   GL160577  26.066  37.700   6.153
 9758POPC   GL260578  26.137  37.570   6.153
 9758POPC   C1A60579  26.035  37.669   6.453
 9758POPC   D2A60580  26.056  37.640   6.753
 9758POPC   C3A60581  26.077  37.684   7.053
 9758POPC   C4A60582  26.070  37.652   7.353
 9758POPC   C1B60583  26.192  37.500   6.453
 9758POPC   C2B60584  26.282  37.481   6.753
 9758POPC   C3B60585  26.255  37.514   7.053
 9758POPC   C4B60586  26.219  37.559   7.353
 9759POPC   NC360587  43.077  40.780   5.553
 9759POPC   PO460588  43.140  40.813   5.853
 9759POPC   GL160589  43.154  40.735   6.153
 9759POPC   GL260590  43.156  40.619   6.153
 9759POPC   C1A60591  43.139  40.787   6.453
 9759POPC   D2A60592  43.078  40.783   6.753
 9759POPC   C3A60593  43.146  40.809   7.053
 9759POPC   C4A60594  43.114  40.757   7.353
 9759POPC   C1B60595  43.154  40.570   6.453
 9759POPC   C2B60596  43.134  40.590   6.753
 9759POPC   C3B60597  43.232  40.502   7.053
 9759POPC   C4B60598  43.206  40.523   7.353
 9760POPC   NC360599   3.552  23.724   5.553
 9760POPC   PO460600   3.501  23.664   5.853
 9760POPC   GL160601   3.507  23.728   6.153
 9760POPC   GL260602   3.504  23.860   6.153
 9760POPC   C1A60603   3.563  23.716   6.453
 9760POPC   D2A60604   3.587  23.722   6.753
 9760POPC   C3A60605   3.533  23.755   7.053
 9760POPC   C4A60606   3.573  23.723   7.353
 9760POPC   C1B60607   3.391  23.948   6.453
 9760POPC   C2B60608   3.400  23.930   6.753
 9760POPC   C3B60609   3.392  23.937   7.053
 9760POPC   C4B60610   3.450  23.954   7.353
 9761POPC   NC360611  22.898  35.303   5.553
 9761POPC   PO460612  22.895  35.370   5.853
 9761POPC   GL160613  22.931  35.373   6.153
 9761POPC   GL260614  23.051  35.405   6.153
 9761POPC   C1A60615  22.915  35.344   6.453
 9761POPC   D2A60616  22.920  35.353   6.753
 9761POPC   C3A60617  22.974  35.374   7.053
 9761POPC   C4A60618  22.929  35.386   7.353
 9761POPC   C1B60619  23.228  35.392   6.453
 9761POPC   C2B60620  23.227  35.351   6.753
 9761POPC   C3B60621  23.146  35.431   7.053
 9761POPC   C4B60622  23.150  35.375   7.353
 9762POPC   NC360623  34.548  26.788   5.553
 9762POPC   PO460624  34.595  26.789   5.853
 9762POPC   GL160625  34.620  26.771   6.153
 9762POPC   GL260626  34.670  26.870   6.153
 9762POPC   C1A60627  34.615  26.857   6.453
 9762POPC   D2A60628  34.616  26.806   6.753
 9762POPC   C3A60629  34.588  26.791   7.053
 9762POPC   C4A60630  34.612  26.797   7.353
 9762POPC   C1B60631  34.851  26.860   6.453
 9762POPC   C2B60632  34.847  26.908   6.753
 9762POPC   C3B60633  34.793  26.897   7.053
 9762POPC   C4B60634  34.834  26.907   7.353
 9763POPC   NC360635  20.633  33.068   5.553
 9763POPC   PO460636  20.647  33.024   5.853
 9763POPC   GL160637  20.579  33.066   6.153
 9763POPC   GL260638  20.761  32.999   6.153
 9763POPC   C1A60639  20.638  32.994   6.453
 9763POPC   D2A60640  20.634  33.045   6.753
 9763POPC   C3A60641  20.601  33.067   7.053
 9763POPC   C4A60642  20.582  33.037   7.353
 9763POPC   C1B60643  20.849  32.887   6.453
 9763POPC   C2B60644  20.837  32.935   6.753
 9763POPC   C3B60645  20.841  32.944   7.053
 9763POPC   C4B60646  20.851  32.890   7.353
 9764POPC   NC360647   8.989  36.951   5.553
 9764POPC   PO460648   9.005  36.903   5.853
 9764POPC   GL160649   8.936  36.901   6.153
 9764POPC   GL260650   9.099  36.919   6.153
 9764POPC   C1A60651   8.987  36.953   6.453
 9764POPC   D2A60652   9.003  36.932   6.753
 9764POPC   C3A60653   8.924  36.863   7.053
 9764POPC   C4A60654   8.959  36.941   7.353
 9764POPC   C1B60655   9.176  36.801   6.453
 9764POPC   C2B60656   9.215  36.840   6.753
 9764POPC   C3B60657   9.179  36.837   7.053
 9764POPC   C4B60658   9.256  36.881   7.353
 9765POPC   NC360659  26.793  39.262   5.553
 9765POPC   PO460660  26.806  39.279   5.853
 9765POPC   GL160661  26.857  39.275   6.153
 9765POPC   GL260662  26.905  39.219   6.153
 9765POPC   C1A60663  26.788  39.229   6.453
 9765POPC   D2A60664  26.780  39.210   6.753
 9765POPC   C3A60665  26.789  39.182   7.053
 9765POPC   C4A60666  26.815  39.238   7.353
 9765POPC   C1B60667  27.030  39.161   6.453
 9765POPC   C2B60668  27.008  39.080   6.753
 9765POPC   C3B60669  27.058  39.093   7.053
 9765POPC   C4B60670  27.072  39.128   7.353
 9766POPC   NC360671  30.691   5.075   5.553
 9766POPC   PO460672  30.707   5.066   5.853
 9766POPC   GL160673  30.720   5.068   6.153
 9766POPC   GL260674  30.637   5.230   6.153
 9766POPC   C1A60675  30.647   5.056   6.453
 9766POPC   D2A60676  30.705   5.108   6.753
 9766POPC   C3A60677  30.721   5.137   7.053
 9766POPC   C4A60678  30.701   5.130   7.353
 9766POPC   C1B60679  30.555   5.272   6.453
 9766POPC   C2B60680  30.583   5.307   6.753
 9766POPC   C3B60681  30.602   5.333   7.053
 9766POPC   C4B60682  30.581   5.314   7.353
 9767POPC   NC360683  43.080  15.143   5.553
 9767POPC   PO460684  43.127  15.148   5.853
 9767POPC   GL160685  43.101  15.215   6.153
 9767POPC   GL260686  43.016  15.127   6.153
 9767POPC   C1A60687  43.118  15.203   6.453
 9767POPC   D2A60688  43.098  15.132   6.753
 9767POPC   C3A60689  43.118  15.229   7.053
 9767POPC   C4A60690  43.157  15.196   7.353
 9767POPC   C1B60691  42.981  15.003   6.453
 9767POPC   C2B60692  42.939  15.023   6.753
 9767POPC   C3B60693  42.915  14.985   7.053
 9767POPC   C4B60694  42.916  14.949   7.353
 9768POPC   NC360695  27.558  40.763   5.553
 9768POPC   PO460696  27.596  40.751   5.853
 9768POPC   GL160697  27.643  40.799   6.153
 9768POPC   GL260698  27.502  40.826   6.153
 9768POPC   C1A60699  27.623  40.769   6.453
 9768POPC   D2A60700  27.620  40.823   6.753
 9768POPC   C3A60701  27.569  40.822   7.053
 9768POPC   C4A60702  27.637  40.817   7.353
 9768POPC   C1B60703  27.324  40.904   6.453
 9768POPC   C2B60704  27.400  40.899   6.753
 9768POPC   C3B60705  27.410  40.860   7.053
 9768POPC   C4B60706  27.380  40.923   7.353
 9769POPC   NC360707  12.053   0.390   5.553
 9769POPC   PO460708  12.118   0.402   5.853
 9769POPC   GL160709  12.116   0.449   6.153
 9769POPC   GL260710  12.101   0.598   6.153
 9769POPC   C1A60711  12.032   0.479   6.453
 9769POPC   D2A60712  12.047   0.398   6.753
 9769POPC   C3A60713  12.060   0.411   7.053
 9769POPC   C4A60714  12.101   0.410   7.353
 9769POPC   C1B60715  12.141   0.727   6.453
 9769POPC   C2B60716  12.133   0.709   6.753
 9769POPC   C3B60717  12.150   0.655   7.053
 9769POPC   C4B60718  12.103   0.728   7.353
 9770POPC   NC360719  42.285  33.045   5.553
 9770POPC   PO460720  42.341  33.062   5.853
 9770POPC   GL160721  42.375  33.020   6.153
 9770POPC   GL260722  42.230  33.077   6.153
 9770POPC   C1A60723  42.287  33.032   6.453
 9770POPC   D2A60724  42.376  33.024   6.753
 9770POPC   C3A60725  42.377  32.992   7.053
 9770POPC   C4A60726  42.340  33.034   7.353
 9770POPC   C1B60727  42.150  33.153   6.453
 9770POPC   C2B60728  42.093  33.169   6.753
 9770POPC   C3B60729  42.144  33.116   7.053
 9770POPC   C4B60730  42.098  33.163   7.353
 9771POPC   NC360731  43.102  34.529   5.553
 9771POPC   PO460732  43.093  34.545   5.853
 9771POPC   GL160733  43.094  34.528   6.153
 9771POPC   GL260734  43.025  34.566   6.153
 9771POPC   C1A60735  43.089  34.606   6.453
 9771POPC   D2A60736  43.113  34.527   6.753
 9771POPC   C3A60737  43.072  34.606   7.053
 9771POPC   C4A60738  43.146  34.577   7.353
 9771POPC   C1B60739  42.882  34.656   6.453
 9771POPC   C2B60740  42.850  34.586   6.753
 9771POPC   C3B60741  42.888  34.613   7.053
 9771POPC   C4B60742  42.844  34.588   7.353
 9772POPC   NC360743  15.184  20.631   5.553
 9772POPC   PO460744  15.220  20.601   5.853
 9772POPC   GL160745  15.138  20.605   6.153
 9772POPC   GL260746  15.167  20.754   6.153
 9772POPC   C1A60747  15.204  20.585   6.453
 9772POPC   D2A60748  15.161  20.624   6.753
 9772POPC   C3A60749  15.136  20.636   7.053
 9772POPC   C4A60750  15.218  20.623   7.353
 9772POPC   C1B60751  15.075  20.815   6.453
 9772POPC   C2B60752  15.072  20.805   6.753
 9772POPC   C3B60753  15.096  20.865   7.053
 9772POPC   C4B60754  15.119  20.851   7.353
 9773POPC   NC360755   3.501   4.326   5.553
 9773POPC   PO460756   3.564   4.350   5.853
 9773POPC   GL160757   3.550   4.298   6.153
 9773POPC   GL260758   3.539   4.195   6.153
 9773POPC   C1A60759   3.520   4.320   6.453
 9773POPC   D2A60760   3.564   4.335   6.753
 9773POPC   C3A60761   3.549   4.293   7.053
 9773POPC   C4A60762   3.545   4.300   7.353
 9773POPC   C1B60763   3.461   4.040   6.453
 9773POPC   C2B60764   3.472   4.116   6.753
 9773POPC   C3B60765   3.455   4.066   7.053
 9773POPC   C4B60766   3.503   4.034   7.353
 9774POPC   NC360767  42.314  40.811   5.553
 9774POPC   PO460768  42.353  40.828   5.853
 9774POPC   GL160769  42.343  40.739   6.153
 9774POPC   GL260770  42.254  40.719   6.153
 9774POPC   C1A60771  42.307  40.739   6.453
 9774POPC   D2A60772  42.357  40.812   6.753
 9774POPC   C3A60773  42.300  40.792   7.053
 9774POPC   C4A60774  42.360  40.785   7.353
 9774POPC   C1B60775  42.199  40.550   6.453
 9774POPC   C2B60776  42.238  40.563   6.753
 9774POPC   C3B60777  42.220  40.597   7.053
 9774POPC   C4B60778  42.244  40.544   7.353
 9775POPC   NC360779  12.803  35.360   5.553
 9775POPC   PO460780  12.832  35.371   5.853
 9775POPC   GL160781  12.845  35.371   6.153
 9775POPC   GL260782  12.761  35.411   6.153
 9775POPC   C1A60783  12.871  35.302   6.453
 9775POPC   D2A60784  12.842  35.329   6.753
 9775POPC   C3A60785  12.873  35.347   7.053
 9775POPC   C4A60786  12.805  35.345   7.353
 9775POPC   C1B60787  12.603  35.510   6.453
 9775POPC   C2B60788  12.598  35.522   6.753
 9775POPC   C3B60789  12.665  35.454   7.053
 9775POPC   C4B60790  12.590  35.454   7.353
 9776POPC   NC360791  38.423   5.117   5.553
 9776POPC   PO460792  38.405   5.117   5.853
 9776POPC   GL160793  38.405   5.081   6.153
 9776POPC   GL260794  38.332   5.145   6.153
 9776POPC   C1A60795  38.452   5.130   6.453
 9776POPC   D2A60796  38.476   5.095   6.753
 9776POPC   C3A60797  38.426   5.078   7.053
 9776POPC   C4A60798  38.469   5.129   7.353
 9776POPC   C1B60799  38.312   5.219   6.453
 9776POPC   C2B60800  38.261   5.221   6.753
 9776POPC   C3B60801  38.241   5.216   7.053
 9776POPC   C4B60802  38.233   5.243   7.353
 9777POPC   NC360803  19.797   5.866   5.553
 9777POPC   PO460804  19.863   5.901   5.853
 9777POPC   GL160805  19.853   5.901   6.153
 9777POPC   GL260806  19.830   5.746   6.153
 9777POPC   C1A60807  19.836   5.867   6.453
 9777POPC   D2A60808  19.832   5.848   6.753
 9777POPC   C3A60809  19.823   5.840   7.053
 9777POPC   C4A60810  19.787   5.831   7.353
 9777POPC   C1B60811  19.897   5.634   6.453
 9777POPC   C2B60812  19.905   5.612   6.753
 9777POPC   C3B60813  19.879   5.626   7.053
 9777POPC   C4B60814  19.876   5.667   7.353
 9778POPC   NC360815  12.840  37.716   5.553
 9778POPC   PO460816  12.852  37.651   5.853
 9778POPC   GL160817  12.856  37.724   6.153
 9778POPC   GL260818  12.687  37.651   6.153
 9778POPC   C1A60819  12.845  37.706   6.453
 9778POPC   D2A60820  12.887  37.726   6.753
 9778POPC   C3A60821  12.855  37.714   7.053
 9778POPC   C4A60822  12.887  37.719   7.353
 9778POPC   C1B60823  12.576  37.595   6.453
 9778POPC   C2B60824  12.593  37.594   6.753
 9778POPC   C3B60825  12.568  37.572   7.053
 9778POPC   C4B60826  12.598  37.630   7.353
 9779POPC   NC360827   5.892   7.432   5.553
 9779POPC   PO460828   5.835   7.387   5.853
 9779POPC   GL160829   5.862   7.396   6.153
 9779POPC   GL260830   5.851   7.344   6.153
 9779POPC   C1A60831   5.872   7.389   6.453
 9779POPC   D2A60832   5.889   7.403   6.753
 9779POPC   C3A60833   5.907   7.460   7.053
 9779POPC   C4A60834   5.829   7.455   7.353
 9779POPC   C1B60835   5.860   7.168   6.453
 9779POPC   C2B60836   5.873   7.180   6.753
 9779POPC   C3B60837   5.867   7.154   7.053
 9779POPC   C4B60838   5.847   7.148   7.353
 9780POPC   NC360839  12.852   8.940   5.553
 9780POPC   PO460840  12.888   8.939   5.853
 9780POPC   GL160841  12.839   8.985   6.153
 9780POPC   GL260842  12.787   8.911   6.153
 9780POPC   C1A60843  12.892   8.960   6.453
 9780POPC   D2A60844  12.825   9.003   6.753
 9780POPC   C3A60845  12.858   8.956   7.053
 9780POPC   C4A60846  12.893   8.948   7.353
 9780POPC   C1B60847  12.641   8.889   6.453
 9780POPC   C2B60848  12.682   8.869   6.753
 9780POPC   C3B60849  12.617   8.817   7.053
 9780POPC   C4B60850  12.676   8.888   7.353
 9781POPC   NC360851   8.977  29.154   5.553
 9781POPC   PO460852   8.950  29.166   5.853
 9781POPC   GL160853   8.982  29.183   6.153
 9781POPC   GL260854   8.881  29.162   6.153
 9781POPC   C1A60855   8.939  29.180   6.453
 9781POPC   D2A60856   8.938  29.139   6.753
 9781POPC   C3A60857   9.006  29.134   7.053
 9781POPC   C4A60858   8.941  29.109   7.353
 9781POPC   C1B60859   8.724  29.195   6.453
 9781POPC   C2B60860   8.732  29.187   6.753
 9781POPC   C3B60861   8.712  29.179   7.053
 9781POPC   C4B60862   8.728  29.145   7.353
 9782POPC   NC360863  30.736   1.238   5.553
 9782POPC   PO460864  30.726   1.211   5.853
 9782POPC   GL160865  30.670   1.181   6.153
 9782POPC   GL260866  30.694   1.368   6.153
 9782POPC   C1A60867  30.663   1.173   6.453
 9782POPC   D2A60868  30.656   1.264   6.753
 9782POPC   C3A60869  30.680   1.217   7.053
 9782POPC   C4A60870  30.693   1.253   7.353
 9782POPC   C1B60871  30.665   1.441   6.453
 9782POPC   C2B60872  30.744   1.502   6.753
 9782POPC   C3B60873  30.735   1.457   7.053
 9782POPC   C4B60874  30.707   1.487   7.353
 9783POPC   NC360875  42.291  26.059   5.553
 9783POPC   PO460876  42.314  26.076   5.853
 9783POPC   GL160877  42.375  25.996   6.153
 9783POPC   GL260878  42.306  25.946   6.153
 9783POPC   C1A60879  42.363  26.057   6.453
 9783POPC   D2A60880  42.383  26.049   6.753
 9783POPC   C3A60881  42.323  26.066   7.053
 9783POPC   C4A60882  42.347  25.997   7.353
 9783POPC   C1B60883  42.330  25.786   6.453
 9783POPC   C2B60884  42.322  25.759   6.753
 9783POPC   C3B60885  42.389  25.756   7.053
 9783POPC   C4B60886  42.409  25.797   7.353
 9784POPC   NC360887  15.168  31.462   5.553
 9784POPC   PO460888  15.215  31.467   5.853
 9784POPC   GL160889  15.134  31.456   6.153
 9784POPC   GL260890  15.192  31.629   6.153
 9784POPC   C1A60891  15.219  31.425   6.453
 9784POPC   D2A60892  15.138  31.512   6.753
 9784POPC   C3A60893  15.208  31.512   7.053
 9784POPC   C4A60894  15.132  31.502   7.353
 9784POPC   C1B60895  15.172  31.672   6.453
 9784POPC   C2B60896  15.178  31.677   6.753
 9784POPC   C3B60897  15.080  31.711   7.053
 9784POPC   C4B60898  15.154  31.719   7.353
 9785POPC   NC360899   8.973   3.546   5.553
 9785POPC   PO460900   8.929   3.561   5.853
 9785POPC   GL160901   9.000   3.576   6.153
 9785POPC   GL260902   8.868   3.652   6.153
 9785POPC   C1A60903   8.967   3.516   6.453
 9785POPC   D2A60904   8.977   3.559   6.753
 9785POPC   C3A60905   8.950   3.526   7.053
 9785POPC   C4A60906   8.949   3.582   7.353
 9785POPC   C1B60907   8.774   3.682   6.453
 9785POPC   C2B60908   8.824   3.727   6.753
 9785POPC   C3B60909   8.764   3.677   7.053
 9785POPC   C4B60910   8.730   3.686   7.353
 9786POPC   NC360911   8.202  41.598   5.553
 9786POPC   PO460912   8.243  41.600   5.853
 9786POPC   GL160913   8.164  41.527   6.153
 9786POPC   GL260914   8.246  41.657   6.153
 9786POPC   C1A60915   8.207  41.586   6.453
 9786POPC   D2A60916   8.227  41.605   6.753
 9786POPC   C3A60917   8.220  41.556   7.053
 9786POPC   C4A60918   8.190  41.529   7.353
 9786POPC   C1B60919   8.176  41.794   6.453
 9786POPC   C2B60920   8.235  41.832   6.753
 9786POPC   C3B60921   8.202  41.832   7.053
 9786POPC   C4B60922   8.241  41.764   7.353
 9787POPC   NC360923  41.540  12.044   5.553
 9787POPC   PO460924  41.546  12.053   5.853
 9787POPC   GL160925  41.560  12.090   6.153
 9787POPC   GL260926  41.517  12.198   6.153
 9787POPC   C1A60927  41.534  12.095   6.453
 9787POPC   D2A60928  41.564  12.072   6.753
 9787POPC   C3A60929  41.596  12.061   7.053
 9787POPC   C4A60930  41.519  12.044   7.353
 9787POPC   C1B60931  41.380  12.294   6.453
 9787POPC   C2B60932  41.397  12.271   6.753
 9787POPC   C3B60933  41.451  12.327   7.053
 9787POPC   C4B60934  41.370  12.247   7.353
 9788POPC   NC360935  39.248  39.227   5.553
 9788POPC   PO460936  39.278  39.227   5.853
 9788POPC   GL160937  39.228  39.268   6.153
 9788POPC   GL260938  39.303  39.337   6.153
 9788POPC   C1A60939  39.257  39.244   6.453
 9788POPC   D2A60940  39.238  39.235   6.753
 9788POPC   C3A60941  39.237  39.200   7.053
 9788POPC   C4A60942  39.278  39.268   7.353
 9788POPC   C1B60943  39.340  39.469   6.453
 9788POPC   C2B60944  39.397  39.440   6.753
 9788POPC   C3B60945  39.339  39.470   7.053
 9788POPC   C4B60946  39.373  39.449   7.353
 9789POPC   NC360947   5.054  12.120   5.553
 9789POPC   PO460948   5.143  12.073   5.853
 9789POPC   GL160949   5.069  12.045   6.153
 9789POPC   GL260950   5.231  12.096   6.153
 9789POPC   C1A60951   5.056  12.109   6.453
 9789POPC   D2A60952   5.127  12.105   6.753
 9789POPC   C3A60953   5.053  12.038   7.053
 9789POPC   C4A60954   5.086  12.049   7.353
 9789POPC   C1B60955   5.357  12.071   6.453
 9789POPC   C2B60956   5.364  12.062   6.753
 9789POPC   C3B60957   5.330  12.070   7.053
 9789POPC   C4B60958   5.296  12.090   7.353
 9790POPC   NC360959   2.729   8.159   5.553
 9790POPC   PO460960   2.721   8.178   5.853
 9790POPC   GL160961   2.734   8.177   6.153
 9790POPC   GL260962   2.674   8.231   6.153
 9790POPC   C1A60963   2.801   8.182   6.453
 9790POPC   D2A60964   2.738   8.224   6.753
 9790POPC   C3A60965   2.752   8.175   7.053
 9790POPC   C4A60966   2.770   8.223   7.353
 9790POPC   C1B60967   2.507   8.282   6.453
 9790POPC   C2B60968   2.541   8.272   6.753
 9790POPC   C3B60969   2.492   8.265   7.053
 9790POPC   C4B60970   2.485   8.229   7.353
 9791POPC   NC360971   2.764  23.713   5.553
 9791POPC   PO460972   2.742  23.667   5.853
 9791POPC   GL160973   2.751  23.754   6.153
 9791POPC   GL260974   2.609  23.809   6.153
 9791POPC   C1A60975   2.745  23.723   6.453
 9791POPC   D2A60976   2.739  23.749   6.753
 9791POPC   C3A60977   2.808  23.665   7.053
 9791POPC   C4A60978   2.767  23.729   7.353
 9791POPC   C1B60979   2.551  23.765   6.453
 9791POPC   C2B60980   2.547  23.856   6.753
 9791POPC   C3B60981   2.494  23.822   7.053
 9791POPC   C4B60982   2.546  23.790   7.353
 9792POPC   NC360983  24.445  34.537   5.553
 9792POPC   PO460984  24.529  34.575   5.853
 9792POPC   GL160985  24.467  34.602   6.153
 9792POPC   GL260986  24.377  34.472   6.153
 9792POPC   C1A60987  24.465  34.615   6.453
 9792POPC   D2A60988  24.487  34.604   6.753
 9792POPC   C3A60989  24.540  34.534   7.053
 9792POPC   C4A60990  24.446  34.538   7.353
 9792POPC   C1B60991  24.362  34.368   6.453
 9792POPC   C2B60992  24.302  34.415   6.753
 9792POPC   C3B60993  24.352  34.417   7.053
 9792POPC   C4B60994  24.338  34.416   7.353
 9793POPC   NC360995  19.070  10.479   5.553
 9793POPC   PO460996  19.067  10.510   5.853
 9793POPC   GL160997  19.024  10.483   6.153
 9793POPC   GL260998  18.930  10.469   6.153
 9793POPC   C1A60999  19.027  10.475   6.453
 9793POPC   D2A61000  19.066  10.558   6.753
 9793POPC   C3A61001  19.035  10.552   7.053
 9793POPC   C4A61002  19.042  10.478   7.353
 9793POPC   C1B61003  18.922  10.345   6.453
 9793POPC   C2B61004  18.922  10.332   6.753
 9793POPC   C3B61005  18.914  10.353   7.053
 9793POPC   C4B61006  18.921  10.358   7.353
 9794POPC   NC361007   7.417   8.156   5.553
 9794POPC   PO461008   7.375   8.204   5.853
 9794POPC   GL161009   7.459   8.204   6.153
 9794POPC   GL261010   7.313   8.292   6.153
 9794POPC   C1A61011   7.454   8.168   6.453
 9794POPC   D2A61012   7.394   8.152   6.753
 9794POPC   C3A61013   7.450   8.194   7.053
 9794POPC   C4A61014   7.433   8.183   7.353
 9794POPC   C1B61015   7.267   8.427   6.453
 9794POPC   C2B61016   7.287   8.424   6.753
 9794POPC   C3B61017   7.283   8.348   7.053
 9794POPC   C4B61018   7.319   8.412   7.353
 9795POPC   NC361019  33.762   5.910   5.553
 9795POPC   PO461020  33.768   5.856   5.853
 9795POPC   GL161021  33.791   5.849   6.153
 9795POPC   GL261022  33.874   5.864   6.153
 9795POPC   C1A61023  33.793   5.872   6.453
 9795POPC   D2A61024  33.752   5.857   6.753
 9795POPC   C3A61025  33.815   5.851   7.053
 9795POPC   C4A61026  33.835   5.830   7.353
 9795POPC   C1B61027  34.043   5.861   6.453
 9795POPC   C2B61028  34.071   5.928   6.753
 9795POPC   C3B61029  34.030   5.957   7.053
 9795POPC   C4B61030  34.008   5.906   7.353
 9796POPC   NC361031   1.217  37.714   5.553
 9796POPC   PO461032   1.171  37.637   5.853
 9796POPC   GL161033   1.216  37.702   6.153
 9796POPC   GL261034   1.351  37.773   6.153
 9796POPC   C1A61035   1.227  37.659   6.453
 9796POPC   D2A61036   1.260  37.674   6.753
 9796POPC   C3A61037   1.239  37.644   7.053
 9796POPC   C4A61038   1.253  37.698   7.353
 9796POPC   C1B61039   1.421  37.783   6.453
 9796POPC   C2B61040   1.411  37.782   6.753
 9796POPC   C3B61041   1.463  37.769   7.053
 9796POPC   C4B61042   1.410  37.750   7.353
 9797POPC   NC361043  44.688  40.786   5.553
 9797POPC   PO461044  44.676  40.788   5.853
 9797POPC   GL161045  44.654  40.738   6.153
 9797POPC   GL261046  44.671  40.618   6.153
 9797POPC   C1A61047  44.648  40.735   6.453
 9797POPC   D2A61048  44.632  40.763   6.753
 9797POPC   C3A61049  44.706  40.789   7.053
 9797POPC   C4A61050  44.708  40.815   7.353
 9797POPC   C1B61051  44.643  40.567   6.453
 9797POPC   C2B61052  44.636  40.556   6.753
 9797POPC   C3B61053  44.596  40.524   7.053
 9797POPC   C4B61054  44.641  40.498   7.353
 9798POPC   NC361055  10.503  37.720   5.553
 9798POPC   PO461056  10.552  37.660   5.853
 9798POPC   GL161057  10.505  37.723   6.153
 9798POPC   GL261058  10.513  37.600   6.153
 9798POPC   C1A61059  10.565  37.701   6.453
 9798POPC   D2A61060  10.564  37.682   6.753
 9798POPC   C3A61061  10.570  37.642   7.053
 9798POPC   C4A61062  10.553  37.706   7.353
 9798POPC   C1B61063  10.368  37.415   6.453
 9798POPC   C2B61064  10.390  37.480   6.753
 9798POPC   C3B61065  10.432  37.425   7.053
 9798POPC   C4B61066  10.380  37.431   7.353
 9799POPC   NC361067  37.636  26.855   5.553
 9799POPC   PO461068  37.641  26.816   5.853
 9799POPC   GL161069  37.658  26.774   6.153
 9799POPC   GL261070  37.635  26.959   6.153
 9799POPC   C1A61071  37.709  26.790   6.453
 9799POPC   D2A61072  37.634  26.818   6.753
 9799POPC   C3A61073  37.631  26.770   7.053
 9799POPC   C4A61074  37.658  26.820   7.353
 9799POPC   C1B61075  37.484  27.061   6.453
 9799POPC   C2B61076  37.532  27.019   6.753
 9799POPC   C3B61077  37.500  27.052   7.053
 9799POPC   C4B61078  37.525  27.040   7.353
 9800POPC   NC361079   1.236  17.484   5.553
 9800POPC   PO461080   1.180  17.540   5.853
 9800POPC   GL161081   1.176  17.482   6.153
 9800POPC   GL261082   1.282  17.372   6.153
 9800POPC   C1A61083   1.203  17.535   6.453
 9800POPC   D2A61084   1.181  17.548   6.753
 9800POPC   C3A61085   1.185  17.471   7.053
 9800POPC   C4A61086   1.165  17.556   7.353
 9800POPC   C1B61087   1.308  17.230   6.453
 9800POPC   C2B61088   1.301  17.298   6.753
 9800POPC   C3B61089   1.279  17.224   7.053
 9800POPC   C4B61090   1.302  17.255   7.353
 9801POPC   NC361091  18.284   2.796   5.553
 9801POPC   PO461092  18.283   2.760   5.853
 9801POPC   GL161093  18.246   2.738   6.153
 9801POPC   GL261094  18.409   2.743   6.153
 9801POPC   C1A61095  18.254   2.748   6.453
 9801POPC   D2A61096  18.266   2.795   6.753
 9801POPC   C3A61097  18.290   2.785   7.053
 9801POPC   C4A61098  18.323   2.802   7.353
 9801POPC   C1B61099  18.474   2.668   6.453
 9801POPC   C2B61100  18.510   2.693   6.753
 9801POPC   C3B61101  18.493   2.718   7.053
 9801POPC   C4B61102  18.505   2.656   7.353
 9802POPC   NC361103  28.365  35.367   5.553
 9802POPC   PO461104  28.320  35.308   5.853
 9802POPC   GL161105  28.373  35.308   6.153
 9802POPC   GL261106  28.319  35.401   6.153
 9802POPC   C1A61107  28.376  35.394   6.453
 9802POPC   D2A61108  28.385  35.321   6.753
 9802POPC   C3A61109  28.322  35.359   7.053
 9802POPC   C4A61110  28.399  35.322   7.353
 9802POPC   C1B61111  28.231  35.503   6.453
 9802POPC   C2B61112  28.193  35.511   6.753
 9802POPC   C3B61113  28.184  35.548   7.053
 9802POPC   C4B61114  28.176  35.579   7.353
 9803POPC   NC361115   3.545  22.937   5.553
 9803POPC   PO461116   3.562  22.959   5.853
 9803POPC   GL161117   3.508  22.915   6.153
 9803POPC   GL261118   3.458  22.863   6.153
 9803POPC   C1A61119   3.589  22.920   6.453
 9803POPC   D2A61120   3.554  22.911   6.753
 9803POPC   C3A61121   3.561  22.956   7.053
 9803POPC   C4A61122   3.508  22.922   7.353
 9803POPC   C1B61123   3.413  22.757   6.453
 9803POPC   C2B61124   3.453  22.720   6.753
 9803POPC   C3B61125   3.438  22.706   7.053
 9803POPC   C4B61126   3.451  22.683   7.353
 9804POPC   NC361127  23.684  40.736   5.553
 9804POPC   PO461128  23.695  40.791   5.853
 9804POPC   GL161129  23.732  40.762   6.153
 9804POPC   GL261130  23.620  40.644   6.153
 9804POPC   C1A61131  23.727  40.750   6.453
 9804POPC   D2A61132  23.686  40.750   6.753
 9804POPC   C3A61133  23.714  40.738   7.053
 9804POPC   C4A61134  23.697  40.751   7.353
 9804POPC   C1B61135  23.562  40.522   6.453
 9804POPC   C2B61136  23.597  40.549   6.753
 9804POPC   C3B61137  23.581  40.542   7.053
 9804POPC   C4B61138  23.589  40.531   7.353
 9805POPC   NC361139  32.280  32.974   5.553
 9805POPC   PO461140  32.201  33.072   5.853
 9805POPC   GL161141  32.217  32.991   6.153
 9805POPC   GL261142  32.214  33.114   6.153
 9805POPC   C1A61143  32.260  33.004   6.453
 9805POPC   D2A61144  32.210  33.063   6.753
 9805POPC   C3A61145  32.276  33.056   7.053
 9805POPC   C4A61146  32.295  33.071   7.353
 9805POPC   C1B61147  32.217  33.274   6.453
 9805POPC   C2B61148  32.210  33.246   6.753
 9805POPC   C3B61149  32.171  33.249   7.053
 9805POPC   C4B61150  32.218  33.247   7.353
 9806POPC   NC361151   3.534  41.552   5.553
 9806POPC   PO461152   3.502  41.575   5.853
 9806POPC   GL161153   3.552  41.523   6.153
 9806POPC   GL261154   3.708  41.561   6.153
 9806POPC   C1A61155   3.532  41.559   6.453
 9806POPC   D2A61156   3.499  41.576   6.753
 9806POPC   C3A61157   3.535  41.512   7.053
 9806POPC   C4A61158   3.582  41.577   7.353
 9806POPC   C1B61159   3.766  41.622   6.453
 9806POPC   C2B61160   3.747  41.626   6.753
 9806POPC   C3B61161   3.769  41.565   7.053
 9806POPC   C4B61162   3.762  41.557   7.353
 9807POPC   NC361163  36.085   8.196   5.553
 9807POPC   PO461164  36.175   8.162   5.853
 9807POPC   GL161165  36.113   8.148   6.153
 9807POPC   GL261166  36.277   8.248   6.153
 9807POPC   C1A61167  36.154   8.186   6.453
 9807POPC   D2A61168  36.173   8.202   6.753
 9807POPC   C3A61169  36.088   8.156   7.053
 9807POPC   C4A61170  36.153   8.160   7.353
 9807POPC   C1B61171  36.374   8.303   6.453
 9807POPC   C2B61172  36.393   8.296   6.753
 9807POPC   C3B61173  36.352   8.319   7.053
 9807POPC   C4B61174  36.349   8.304   7.353
 9808POPC   NC361175  19.100   1.953   5.553
 9808POPC   PO461176  19.082   1.995   5.853
 9808POPC   GL161177  19.082   1.976   6.153
 9808POPC   GL261178  19.149   2.032   6.153
 9808POPC   C1A61179  19.044   1.979   6.453
 9808POPC   D2A61180  19.016   1.975   6.753
 9808POPC   C3A61181  19.052   1.952   7.053
 9808POPC   C4A61182  19.107   2.024   7.353
 9808POPC   C1B61183  19.283   2.039   6.453
 9808POPC   C2B61184  19.273   2.029   6.753
 9808POPC   C3B61185  19.266   2.008   7.053
 9808POPC   C4B61186  19.304   2.053   7.353
 9809POPC   NC361187  26.859  13.634   5.553
 9809POPC   PO461188  26.852  13.647   5.853
 9809POPC   GL161189  26.774  13.596   6.153
 9809POPC   GL261190  26.892  13.561   6.153
 9809POPC   C1A61191  26.820  13.633   6.453
 9809POPC   D2A61192  26.814  13.636   6.753
 9809POPC   C3A61193  26.858  13.632   7.053
 9809POPC   C4A61194  26.813  13.607   7.353
 9809POPC   C1B61195  27.031  13.509   6.453
 9809POPC   C2B61196  27.036  13.446   6.753
 9809POPC   C3B61197  27.020  13.526   7.053
 9809POPC   C4B61198  26.986  13.475   7.353
 9810POPC   NC361199  43.084  26.805   5.553
 9810POPC   PO461200  43.109  26.811   5.853
 9810POPC   GL161201  43.128  26.771   6.153
 9810POPC   GL261202  43.212  26.732   6.153
 9810POPC   C1A61203  43.098  26.822   6.453
 9810POPC   D2A61204  43.124  26.787   6.753
 9810POPC   C3A61205  43.067  26.823   7.053
 9810POPC   C4A61206  43.067  26.854   7.353
 9810POPC   C1B61207  43.381  26.775   6.453
 9810POPC   C2B61208  43.330  26.775   6.753
 9810POPC   C3B61209  43.367  26.787   7.053
 9810POPC   C4B61210  43.313  26.782   7.353
 9811POPC   NC361211  26.075  39.231   5.553
 9811POPC   PO461212  25.996  39.270   5.853
 9811POPC   GL161213  26.016  39.235   6.153
 9811POPC   GL261214  26.153  39.325   6.153
 9811POPC   C1A61215  26.088  39.201   6.453
 9811POPC   D2A61216  26.026  39.275   6.753
 9811POPC   C3A61217  26.039  39.246   7.053
 9811POPC   C4A61218  26.076  39.274   7.353
 9811POPC   C1B61219  26.209  39.386   6.453
 9811POPC   C2B61220  26.277  39.433   6.753
 9811POPC   C3B61221  26.231  39.419   7.053
 9811POPC   C4B61222  26.265  39.402   7.353
 9812POPC   NC361223  40.823   9.022   5.553
 9812POPC   PO461224  40.739   8.923   5.853
 9812POPC   GL161225  40.832   8.968   6.153
 9812POPC   GL261226  40.881   9.062   6.153
 9812POPC   C1A61227  40.740   9.018   6.453
 9812POPC   D2A61228  40.804   9.010   6.753
 9812POPC   C3A61229  40.746   8.959   7.053
 9812POPC   C4A61230  40.771   8.981   7.353
 9812POPC   C1B61231  40.897   9.196   6.453
 9812POPC   C2B61232  40.954   9.221   6.753
 9812POPC   C3B61233  40.939   9.149   7.053
 9812POPC   C4B61234  40.942   9.195   7.353
 9813POPC   NC361235  39.194  43.105   5.553
 9813POPC   PO461236  39.261  43.089   5.853
 9813POPC   GL161237  39.209  43.134   6.153
 9813POPC   GL261238  39.272  43.020   6.153
 9813POPC   C1A61239  39.217  43.070   6.453
 9813POPC   D2A61240  39.206  43.131   6.753
 9813POPC   C3A61241  39.212  43.080   7.053
 9813POPC   C4A61242  39.242  43.126   7.353
 9813POPC   C1B61243  39.257  42.896   6.453
 9813POPC   C2B61244  39.259  42.823   6.753
 9813POPC   C3B61245  39.269  42.825   7.053
 9813POPC   C4B61246  39.238  42.839   7.353
 9814POPC   NC361247   2.017  28.379   5.553
 9814POPC   PO461248   1.944  28.373   5.853
 9814POPC   GL161249   1.951  28.388   6.153
 9814POPC   GL261250   2.062  28.263   6.153
 9814POPC   C1A61251   2.007  28.372   6.453
 9814POPC   D2A61252   1.996  28.381   6.753
 9814POPC   C3A61253   2.010  28.391   7.053
 9814POPC   C4A61254   2.032  28.414   7.353
 9814POPC   C1B61255   2.135  28.160   6.453
 9814POPC   C2B61256   2.170  28.180   6.753
 9814POPC   C3B61257   2.206  28.166   7.053
 9814POPC   C4B61258   2.147  28.213   7.353
 9815POPC   NC361259  24.516  26.821   5.553
 9815POPC   PO461260  24.472  26.838   5.853
 9815POPC   GL161261  24.535  26.793   6.153
 9815POPC   GL261262  24.402  26.874   6.153
 9815POPC   C1A61263  24.474  26.795   6.453
 9815POPC   D2A61264  24.521  26.830   6.753
 9815POPC   C3A61265  24.501  26.825   7.053
 9815POPC   C4A61266  24.538  26.818   7.353
 9815POPC   C1B61267  24.248  27.003   6.453
 9815POPC   C2B61268  24.295  26.932   6.753
 9815POPC   C3B61269  24.315  26.961   7.053
 9815POPC   C4B61270  24.320  26.964   7.353
 9816POPC   NC361271  22.948  22.190   5.553
 9816POPC   PO461272  22.986  22.143   5.853
 9816POPC   GL161273  22.970  22.193   6.153
 9816POPC   GL261274  22.997  22.220   6.153
 9816POPC   C1A61275  22.914  22.117   6.453
 9816POPC   D2A61276  22.977  22.210   6.753
 9816POPC   C3A61277  22.903  22.146   7.053
 9816POPC   C4A61278  22.918  22.190   7.353
 9816POPC   C1B61279  23.129  22.386   6.453
 9816POPC   C2B61280  23.100  22.338   6.753
 9816POPC   C3B61281  23.132  22.389   7.053
 9816POPC   C4B61282  23.132  22.341   7.353
 9817POPC   NC361283  21.369  15.157   5.553
 9817POPC   PO461284  21.374  15.156   5.853
 9817POPC   GL161285  21.351  15.198   6.153
 9817POPC   GL261286  21.341  15.041   6.153
 9817POPC   C1A61287  21.385  15.185   6.453
 9817POPC   D2A61288  21.399  15.201   6.753
 9817POPC   C3A61289  21.397  15.199   7.053
 9817POPC   C4A61290  21.359  15.204   7.353
 9817POPC   C1B61291  21.360  14.906   6.453
 9817POPC   C2B61292  21.335  14.964   6.753
 9817POPC   C3B61293  21.340  14.945   7.053
 9817POPC   C4B61294  21.385  14.897   7.353
 9818POPC   NC361295  33.835  11.265   5.553
 9818POPC   PO461296  33.823  11.306   5.853
 9818POPC   GL161297  33.827  11.252   6.153
 9818POPC   GL261298  33.671  11.274   6.153
 9818POPC   C1A61299  33.844  11.256   6.453
 9818POPC   D2A61300  33.775  11.327   6.753
 9818POPC   C3A61301  33.787  11.278   7.053
 9818POPC   C4A61302  33.829  11.308   7.353
 9818POPC   C1B61303  33.594  11.296   6.453
 9818POPC   C2B61304  33.535  11.303   6.753
 9818POPC   C3B61305  33.550  11.300   7.053
 9818POPC   C4B61306  33.585  11.297   7.353
 9819POPC   NC361307  31.474  36.128   5.553
 9819POPC   PO461308  31.430  36.104   5.853
 9819POPC   GL161309  31.448  36.078   6.153
 9819POPC   GL261310  31.458  36.283   6.153
 9819POPC   C1A61311  31.475  36.169   6.453
 9819POPC   D2A61312  31.427  36.165   6.753
 9819POPC   C3A61313  31.500  36.172   7.053
 9819POPC   C4A61314  31.440  36.088   7.353
 9819POPC   C1B61315  31.565  36.371   6.453
 9819POPC   C2B61316  31.517  36.348   6.753
 9819POPC   C3B61317  31.505  36.372   7.053
 9819POPC   C4B61318  31.469  36.366   7.353
 9820POPC   NC361319   5.098  25.229   5.553
 9820POPC   PO461320   5.061  25.249   5.853
 9820POPC   GL161321   5.111  25.282   6.153
 9820POPC   GL261322   4.930  25.204   6.153
 9820POPC   C1A61323   5.100  25.313   6.453
 9820POPC   D2A61324   5.100  25.289   6.753
 9820POPC   C3A61325   5.086  25.224   7.053
 9820POPC   C4A61326   5.094  25.279   7.353
 9820POPC   C1B61327   4.828  25.219   6.453
 9820POPC   C2B61328   4.856  25.247   6.753
 9820POPC   C3B61329   4.879  25.244   7.053
 9820POPC   C4B61330   4.822  25.181   7.353
 9821POPC   NC361331  35.310  24.467   5.553
 9821POPC   PO461332  35.373  24.513   5.853
 9821POPC   GL161333  35.352  24.454   6.153
 9821POPC   GL261334  35.254  24.566   6.153
 9821POPC   C1A61335  35.392  24.516   6.453
 9821POPC   D2A61336  35.314  24.511   6.753
 9821POPC   C3A61337  35.321  24.523   7.053
 9821POPC   C4A61338  35.390  24.489   7.353
 9821POPC   C1B61339  35.204  24.678   6.453
 9821POPC   C2B61340  35.164  24.727   6.753
 9821POPC   C3B61341  35.219  24.672   7.053
 9821POPC   C4B61342  35.170  24.701   7.353
 9822POPC   NC361343  26.795  19.883   5.553
 9822POPC   PO461344  26.814  19.880   5.853
 9822POPC   GL161345  26.835  19.823   6.153
 9822POPC   GL261346  26.740  19.840   6.153
 9822POPC   C1A61347  26.776  19.813   6.453
 9822POPC   D2A61348  26.815  19.838   6.753
 9822POPC   C3A61349  26.780  19.876   7.053
 9822POPC   C4A61350  26.853  19.805   7.353
 9822POPC   C1B61351  26.520  19.809   6.453
 9822POPC   C2B61352  26.576  19.798   6.753
 9822POPC   C3B61353  26.605  19.840   7.053
 9822POPC   C4B61354  26.542  19.842   7.353
 9823POPC   NC361355   8.172  40.781   5.553
 9823POPC   PO461356   8.167  40.770   5.853
 9823POPC   GL161357   8.192  40.783   6.153
 9823POPC   GL261358   8.218  40.669   6.153
 9823POPC   C1A61359   8.147  40.761   6.453
 9823POPC   D2A61360   8.234  40.774   6.753
 9823POPC   C3A61361   8.184  40.823   7.053
 9823POPC   C4A61362   8.230  40.811   7.353
 9823POPC   C1B61363   8.184  40.562   6.453
 9823POPC   C2B61364   8.139  40.575   6.753
 9823POPC   C3B61365   8.142  40.511   7.053
 9823POPC   C4B61366   8.209  40.504   7.353
 9824POPC   NC361367   3.535  14.358   5.553
 9824POPC   PO461368   3.523  14.367   5.853
 9824POPC   GL161369   3.534  14.359   6.153
 9824POPC   GL261370   3.620  14.291   6.153
 9824POPC   C1A61371   3.589  14.384   6.453
 9824POPC   D2A61372   3.557  14.406   6.753
 9824POPC   C3A61373   3.574  14.410   7.053
 9824POPC   C4A61374   3.514  14.378   7.353
 9824POPC   C1B61375   3.661  14.190   6.453
 9824POPC   C2B61376   3.618  14.206   6.753
 9824POPC   C3B61377   3.717  14.232   7.053
 9824POPC   C4B61378   3.658  14.196   7.353
 9825POPC   NC361379  15.925  29.968   5.553
 9825POPC   PO461380  15.991  29.966   5.853
 9825POPC   GL161381  15.928  29.968   6.153
 9825POPC   GL261382  15.973  30.040   6.153
 9825POPC   C1A61383  15.990  29.906   6.453
 9825POPC   D2A61384  15.911  29.945   6.753
 9825POPC   C3A61385  16.004  29.920   7.053
 9825POPC   C4A61386  15.948  29.897   7.353
 9825POPC   C1B61387  15.985  30.185   6.453
 9825POPC   C2B61388  15.903  30.132   6.753
 9825POPC   C3B61389  15.971  30.121   7.053
 9825POPC   C4B61390  15.913  30.211   7.353
 9826POPC   NC361391   5.121   8.209   5.553
 9826POPC   PO461392   5.110   8.158   5.853
 9826POPC   GL161393   5.115   8.226   6.153
 9826POPC   GL261394   5.202   8.274   6.153
 9826POPC   C1A61395   5.093   8.228   6.453
 9826POPC   D2A61396   5.138   8.231   6.753
 9826POPC   C3A61397   5.127   8.234   7.053
 9826POPC   C4A61398   5.121   8.163   7.353
 9826POPC   C1B61399   5.236   8.432   6.453
 9826POPC   C2B61400   5.191   8.433   6.753
 9826POPC   C3B61401   5.269   8.423   7.053
 9826POPC   C4B61402   5.254   8.448   7.353
 9827POPC   NC361403  14.428  23.734   5.553
 9827POPC   PO461404  14.392  23.759   5.853
 9827POPC   GL161405  14.414  23.668   6.153
 9827POPC   GL261406  14.353  23.590   6.153
 9827POPC   C1A61407  14.361  23.727   6.453
 9827POPC   D2A61408  14.447  23.734   6.753
 9827POPC   C3A61409  14.356  23.747   7.053
 9827POPC   C4A61410  14.389  23.693   7.353
 9827POPC   C1B61411  14.361  23.523   6.453
 9827POPC   C2B61412  14.306  23.516   6.753
 9827POPC   C3B61413  14.293  23.465   7.053
 9827POPC   C4B61414  14.345  23.497   7.353
 9828POPC   NC361415  17.521  40.789   5.553
 9828POPC   PO461416  17.548  40.778   5.853
 9828POPC   GL161417  17.498  40.826   6.153
 9828POPC   GL261418  17.492  40.624   6.153
 9828POPC   C1A61419  17.537  40.766   6.453
 9828POPC   D2A61420  17.534  40.824   6.753
 9828POPC   C3A61421  17.554  40.757   7.053
 9828POPC   C4A61422  17.538  40.774   7.353
 9828POPC   C1B61423  17.512  40.560   6.453
 9828POPC   C2B61424  17.487  40.577   6.753
 9828POPC   C3B61425  17.528  40.505   7.053
 9828POPC   C4B61426  17.555  40.559   7.353
 9829POPC   NC361427  32.281  35.310   5.553
 9829POPC   PO461428  32.213  35.347   5.853
 9829POPC   GL161429  32.254  35.304   6.153
 9829POPC   GL261430  32.084  35.403   6.153
 9829POPC   C1A61431  32.260  35.384   6.453
 9829POPC   D2A61432  32.277  35.365   6.753
 9829POPC   C3A61433  32.251  35.314   7.053
 9829POPC   C4A61434  32.282  35.340   7.353
 9829POPC   C1B61435  31.991  35.440   6.453
 9829POPC   C2B61436  32.023  35.408   6.753
 9829POPC   C3B61437  31.993  35.453   7.053
 9829POPC   C4B61438  32.036  35.399   7.353
 9830POPC   NC361439  19.821  41.575   5.553
 9830POPC   PO461440  19.823  41.574   5.853
 9830POPC   GL161441  19.866  41.591   6.153
 9830POPC   GL261442  19.751  41.507   6.153
 9830POPC   C1A61443  19.799  41.557   6.453
 9830POPC   D2A61444  19.864  41.603   6.753
 9830POPC   C3A61445  19.857  41.572   7.053
 9830POPC   C4A61446  19.822  41.518   7.353
 9830POPC   C1B61447  19.605  41.376   6.453
 9830POPC   C2B61448  19.677  41.403   6.753
 9830POPC   C3B61449  19.652  41.447   7.053
 9830POPC   C4B61450  19.677  41.454   7.353
 9831POPC   NC361451   2.810  39.244   5.553
 9831POPC   PO461452   2.800  39.249   5.853
 9831POPC   GL161453   2.807  39.205   6.153
 9831POPC   GL261454   2.655  39.318   6.153
 9831POPC   C1A61455   2.740  39.272   6.453
 9831POPC   D2A61456   2.783  39.197   6.753
 9831POPC   C3A61457   2.800  39.214   7.053
 9831POPC   C4A61458   2.812  39.267   7.353
 9831POPC   C1B61459   2.574  39.433   6.453
 9831POPC   C2B61460   2.551  39.399   6.753
 9831POPC   C3B61461   2.586  39.446   7.053
 9831POPC   C4B61462   2.586  39.435   7.353
 9832POPC   NC361463   0.400  39.989   5.553
 9832POPC   PO461464   0.435  39.965   5.853
 9832POPC   GL161465   0.462  39.972   6.153
 9832POPC   GL261466   0.334  39.952   6.153
 9832POPC   C1A61467   0.406  39.996   6.453
 9832POPC   D2A61468   0.436  40.045   6.753
 9832POPC   C3A61469   0.487  40.002   7.053
 9832POPC   C4A61470   0.440  39.966   7.353
 9832POPC   C1B61471   0.284  39.785   6.453
 9832POPC   C2B61472   0.286  39.793   6.753
 9832POPC   C3B61473   0.273  39.785   7.053
 9832POPC   C4B61474   0.300  39.808   7.353
 9833POPC   NC361475  44.682  22.984   5.553
 9833POPC   PO461476  44.703  22.975   5.853
 9833POPC   GL161477  44.674  22.919   6.153
 9833POPC   GL261478  44.691  22.796   6.153
 9833POPC   C1A61479  44.656  22.933   6.453
 9833POPC   D2A61480  44.674  22.903   6.753
 9833POPC   C3A61481  44.627  22.986   7.053
 9833POPC   C4A61482  44.690  22.952   7.353
 9833POPC   C1B61483  44.721  22.718   6.453
 9833POPC   C2B61484  44.742  22.728   6.753
 9833POPC   C3B61485  44.730  22.732   7.053
 9833POPC   C4B61486  44.746  22.655   7.353
 9834POPC   NC361487  19.836  23.753   5.553
 9834POPC   PO461488  19.787  23.682   5.853
 9834POPC   GL161489  19.830  23.702   6.153
 9834POPC   GL261490  19.711  23.795   6.153
 9834POPC   C1A61491  19.795  23.683   6.453
 9834POPC   D2A61492  19.816  23.745   6.753
 9834POPC   C3A61493  19.842  23.734   7.053
 9834POPC   C4A61494  19.872  23.726   7.353
 9834POPC   C1B61495  19.634  23.792   6.453
 9834POPC   C2B61496  19.595  23.748   6.753
 9834POPC   C3B61497  19.562  23.766   7.053
 9834POPC   C4B61498  19.630  23.729   7.353
 9835POPC   NC361499   1.954  40.740   5.553
 9835POPC   PO461500   1.995  40.754   5.853
 9835POPC   GL161501   1.985  40.758   6.153
 9835POPC   GL261502   1.862  40.828   6.153
 9835POPC   C1A61503   1.975  40.781   6.453
 9835POPC   D2A61504   2.006  40.740   6.753
 9835POPC   C3A61505   2.013  40.758   7.053
 9835POPC   C4A61506   1.965  40.780   7.353
 9835POPC   C1B61507   1.754  40.835   6.453
 9835POPC   C2B61508   1.778  40.821   6.753
 9835POPC   C3B61509   1.769  40.877   7.053
 9835POPC   C4B61510   1.788  40.823   7.353
 9836POPC   NC361511  40.760  41.551   5.553
 9836POPC   PO461512  40.824  41.597   5.853
 9836POPC   GL161513  40.826  41.544   6.153
 9836POPC   GL261514  40.943  41.531   6.153
 9836POPC   C1A61515  40.826  41.520   6.453
 9836POPC   D2A61516  40.734  41.539   6.753
 9836POPC   C3A61517  40.779  41.569   7.053
 9836POPC   C4A61518  40.801  41.553   7.353
 9836POPC   C1B61519  40.985  41.581   6.453
 9836POPC   C2B61520  40.984  41.586   6.753
 9836POPC   C3B61521  41.061  41.553   7.053
 9836POPC   C4B61522  41.066  41.582   7.353
 9837POPC   NC361523  33.828  43.154   5.553
 9837POPC   PO461524  33.795  43.144   5.853
 9837POPC   GL161525  33.835  43.123   6.153
 9837POPC   GL261526  33.724  43.187   6.153
 9837POPC   C1A61527  33.820  43.084   6.453
 9837POPC   D2A61528  33.805  43.066   6.753
 9837POPC   C3A61529  33.812  43.086   7.053
 9837POPC   C4A61530  33.786  43.083   7.353
 9837POPC   C1B61531  33.625  43.256   6.453
 9837POPC   C2B61532  33.595  43.285   6.753
 9837POPC   C3B61533  33.665  43.276   7.053
 9837POPC   C4B61534  33.640  43.267   7.353
 9838POPC   NC361535  43.855  32.261   5.553
 9838POPC   PO461536  43.876  32.271   5.853
 9838POPC   GL161537  43.837  32.269   6.153
 9838POPC   GL261538  43.923  32.328   6.153
 9838POPC   C1A61539  43.870  32.263   6.453
 9838POPC   D2A61540  43.846  32.247   6.753
 9838POPC   C3A61541  43.912  32.266   7.053
 9838POPC   C4A61542  43.880  32.295   7.353
 9838POPC   C1B61543  43.934  32.495   6.453
 9838POPC   C2B61544  43.908  32.519   6.753
 9838POPC   C3B61545  43.935  32.544   7.053
 9838POPC   C4B61546  43.901  32.491   7.353
 9839POPC   NC361547  37.706   1.959   5.553
 9839POPC   PO461548  37.654   1.948   5.853
 9839POPC   GL161549  37.681   2.039   6.153
 9839POPC   GL261550  37.583   2.073   6.153
 9839POPC   C1A61551  37.633   1.969   6.453
 9839POPC   D2A61552  37.672   1.968   6.753
 9839POPC   C3A61553  37.636   1.968   7.053
 9839POPC   C4A61554  37.668   1.992   7.353
 9839POPC   C1B61555  37.418   2.086   6.453
 9839POPC   C2B61556  37.462   2.066   6.753
 9839POPC   C3B61557  37.405   2.135   7.053
 9839POPC   C4B61558  37.435   2.129   7.353
 9840POPC   NC361559  25.246  13.656   5.553
 9840POPC   PO461560  25.296  13.647   5.853
 9840POPC   GL161561  25.274  13.641   6.153
 9840POPC   GL261562  25.282  13.746   6.153
 9840POPC   C1A61563  25.260  13.617   6.453
 9840POPC   D2A61564  25.276  13.637   6.753
 9840POPC   C3A61565  25.293  13.659   7.053
 9840POPC   C4A61566  25.278  13.660   7.353
 9840POPC   C1B61567  25.380  13.820   6.453
 9840POPC   C2B61568  25.407  13.816   6.753
 9840POPC   C3B61569  25.329  13.905   7.053
 9840POPC   C4B61570  25.335  13.886   7.353
 9841POPC   NC361571   0.465  36.144   5.553
 9841POPC   PO461572   0.475  36.083   5.853
 9841POPC   GL161573   0.448  36.108   6.153
 9841POPC   GL261574   0.411  35.997   6.153
 9841POPC   C1A61575   0.395  36.155   6.453
 9841POPC   D2A61576   0.485  36.145   6.753
 9841POPC   C3A61577   0.486  36.125   7.053
 9841POPC   C4A61578   0.420  36.108   7.353
 9841POPC   C1B61579   0.314  35.936   6.453
 9841POPC   C2B61580   0.293  35.967   6.753
 9841POPC   C3B61581   0.308  35.939   7.053
 9841POPC   C4B61582   0.277  35.901   7.353
 9842POPC   NC361583   8.209   5.090   5.553
 9842POPC   PO461584   8.169   5.049   5.853
 9842POPC   GL161585   8.199   5.107   6.153
 9842POPC   GL261586   8.053   5.069   6.153
 9842POPC   C1A61587   8.161   5.098   6.453
 9842POPC   D2A61588   8.177   5.052   6.753
 9842POPC   C3A61589   8.172   5.080   7.053
 9842POPC   C4A61590   8.246   5.101   7.353
 9842POPC   C1B61591   7.936   5.041   6.453
 9842POPC   C2B61592   7.936   5.045   6.753
 9842POPC   C3B61593   7.925   4.976   7.053
 9842POPC   C4B61594   8.005   4.954   7.353
 9843POPC   NC361595  33.034  29.104   5.553
 9843POPC   PO461596  33.071  29.128   5.853
 9843POPC   GL161597  33.026  29.179   6.153
 9843POPC   GL261598  33.055  29.223   6.153
 9843POPC   C1A61599  33.028  29.103   6.453
 9843POPC   D2A61600  33.000  29.172   6.753
 9843POPC   C3A61601  33.017  29.132   7.053
 9843POPC   C4A61602  33.023  29.105   7.353
 9843POPC   C1B61603  33.016  29.382   6.453
 9843POPC   C2B61604  33.022  29.413   6.753
 9843POPC   C3B61605  33.083  29.367   7.053
 9843POPC   C4B61606  33.102  29.397   7.353
 9844POPC   NC361607  15.991  21.389   5.553
 9844POPC   PO461608  16.005  21.411   5.853
 9844POPC   GL161609  15.916  21.357   6.153
 9844POPC   GL261610  16.059  21.423   6.153
 9844POPC   C1A61611  15.996  21.357   6.453
 9844POPC   D2A61612  15.981  21.434   6.753
 9844POPC   C3A61613  15.928  21.366   7.053
 9844POPC   C4A61614  15.998  21.348   7.353
 9844POPC   C1B61615  16.254  21.410   6.453
 9844POPC   C2B61616  16.175  21.445   6.753
 9844POPC   C3B61617  16.209  21.432   7.053
 9844POPC   C4B61618  16.175  21.384   7.353
 9845POPC   NC361619  44.689  29.112   5.553
 9845POPC   PO461620  44.694  29.194   5.853
 9845POPC   GL161621  44.706  29.156   6.153
 9845POPC   GL261622  44.592  29.196   6.153
 9845POPC   C1A61623  44.624  29.193   6.453
 9845POPC   D2A61624  44.613  29.128   6.753
 9845POPC   C3A61625  44.650  29.172   7.053
 9845POPC   C4A61626  44.699  29.110   7.353
 9845POPC   C1B61627  44.488  29.284   6.453
 9845POPC   C2B61628  44.529  29.368   6.753
 9845POPC   C3B61629  44.504  29.294   7.053
 9845POPC   C4B61630  44.466  29.327   7.353
 9846POPC   NC361631  17.496   7.424   5.553
 9846POPC   PO461632  17.534   7.392   5.853
 9846POPC   GL161633  17.477   7.417   6.153
 9846POPC   GL261634  17.454   7.338   6.153
 9846POPC   C1A61635  17.526   7.470   6.453
 9846POPC   D2A61636  17.511   7.470   6.753
 9846POPC   C3A61637  17.501   7.435   7.053
 9846POPC   C4A61638  17.529   7.386   7.353
 9846POPC   C1B61639  17.454   7.168   6.453
 9846POPC   C2B61640  17.499   7.154   6.753
 9846POPC   C3B61641  17.500   7.186   7.053
 9846POPC   C4B61642  17.454   7.221   7.353
 9847POPC   NC361643  20.629  14.376   5.553
 9847POPC   PO461644  20.624  14.424   5.853
 9847POPC   GL161645  20.635  14.404   6.153
 9847POPC   GL261646  20.656  14.254   6.153
 9847POPC   C1A61647  20.591  14.452   6.453
 9847POPC   D2A61648  20.610  14.414   6.753
 9847POPC   C3A61649  20.564  14.443   7.053
 9847POPC   C4A61650  20.616  14.375   7.353
 9847POPC   C1B61651  20.618  14.155   6.453
 9847POPC   C2B61652  20.639  14.129   6.753
 9847POPC   C3B61653  20.644  14.204   7.053
 9847POPC   C4B61654  20.670  14.135   7.353
 9848POPC   NC361655  39.996  36.118   5.553
 9848POPC   PO461656  39.963  36.099   5.853
 9848POPC   GL161657  39.967  36.079   6.153
 9848POPC   GL261658  39.930  36.124   6.153
 9848POPC   C1A61659  40.019  36.162   6.453
 9848POPC   D2A61660  39.999  36.131   6.753
 9848POPC   C3A61661  39.982  36.117   7.053
 9848POPC   C4A61662  40.040  36.126   7.353
 9848POPC   C1B61663  39.745  36.074   6.453
 9848POPC   C2B61664  39.763  36.093   6.753
 9848POPC   C3B61665  39.742  36.098   7.053
 9848POPC   C4B61666  39.750  36.113   7.353
 9849POPC   NC361667  42.318  37.719   5.553
 9849POPC   PO461668  42.294  37.657   5.853
 9849POPC   GL161669  42.367  37.707   6.153
 9849POPC   GL261670  42.449  37.716   6.153
 9849POPC   C1A61671  42.319  37.682   6.453
 9849POPC   D2A61672  42.376  37.684   6.753
 9849POPC   C3A61673  42.296  37.668   7.053
 9849POPC   C4A61674  42.291  37.641   7.353
 9849POPC   C1B61675  42.588  37.680   6.453
 9849POPC   C2B61676  42.597  37.668   6.753
 9849POPC   C3B61677  42.581  37.682   7.053
 9849POPC   C4B61678  42.555  37.663   7.353
 9850POPC   NC361679   3.539  17.515   5.553
 9850POPC   PO461680   3.506  17.493   5.853
 9850POPC   GL161681   3.533  17.521   6.153
 9850POPC   GL261682   3.561  17.359   6.153
 9850POPC   C1A61683   3.581  17.502   6.453
 9850POPC   D2A61684   3.498  17.513   6.753
 9850POPC   C3A61685   3.521  17.531   7.053
 9850POPC   C4A61686   3.505  17.466   7.353
 9850POPC   C1B61687   3.631  17.292   6.453
 9850POPC   C2B61688   3.571  17.230   6.753
 9850POPC   C3B61689   3.620  17.217   7.053
 9850POPC   C4B61690   3.589  17.251   7.353
 9851POPC   NC361691  33.054  21.431   5.553
 9851POPC   PO461692  33.013  21.379   5.853
 9851POPC   GL161693  32.990  21.396   6.153
 9851POPC   GL261694  33.143  21.413   6.153
 9851POPC   C1A61695  33.039  21.409   6.453
 9851POPC   D2A61696  33.044  21.362   6.753
 9851POPC   C3A61697  33.039  21.385   7.053
 9851POPC   C4A61698  32.987  21.400   7.353
 9851POPC   C1B61699  33.263  21.363   6.453
 9851POPC   C2B61700  33.318  21.357   6.753
 9851POPC   C3B61701  33.278  21.385   7.053
 9851POPC   C4B61702  33.316  21.328   7.353
 9852POPC   NC361703  25.247   1.208   5.553
 9852POPC   PO461704  25.274   1.202   5.853
 9852POPC   GL161705  25.291   1.207   6.153
 9852POPC   GL261706  25.167   1.178   6.153
 9852POPC   C1A61707  25.297   1.182   6.453
 9852POPC   D2A61708  25.237   1.174   6.753
 9852POPC   C3A61709  25.271   1.164   7.053
 9852POPC   C4A61710  25.259   1.247   7.353
 9852POPC   C1B61711  25.022   1.205   6.453
 9852POPC   C2B61712  25.037   1.243   6.753
 9852POPC   C3B61713  25.008   1.161   7.053
 9852POPC   C4B61714  24.974   1.210   7.353
 9853POPC   NC361715   3.554   0.407   5.553
 9853POPC   PO461716   3.560   0.419   5.853
 9853POPC   GL161717   3.543   0.452   6.153
 9853POPC   GL261718   3.629   0.330   6.153
 9853POPC   C1A61719   3.572   0.478   6.453
 9853POPC   D2A61720   3.502   0.391   6.753
 9853POPC   C3A61721   3.569   0.471   7.053
 9853POPC   C4A61722   3.570   0.421   7.353
 9853POPC   C1B61723   3.670   0.269   6.453
 9853POPC   C2B61724   3.639   0.242   6.753
 9853POPC   C3B61725   3.710   0.270   7.053
 9853POPC   C4B61726   3.636   0.202   7.353
 9854POPC   NC361727  22.170  26.812   5.553
 9854POPC   PO461728  22.148  26.771   5.853
 9854POPC   GL161729  22.170  26.846   6.153
 9854POPC   GL261730  22.085  26.757   6.153
 9854POPC   C1A61731  22.168  26.815   6.453
 9854POPC   D2A61732  22.128  26.792   6.753
 9854POPC   C3A61733  22.164  26.768   7.053
 9854POPC   C4A61734  22.136  26.838   7.353
 9854POPC   C1B61735  21.937  26.656   6.453
 9854POPC   C2B61736  21.971  26.653   6.753
 9854POPC   C3B61737  21.941  26.693   7.053
 9854POPC   C4B61738  21.971  26.712   7.353
 9855POPC   NC361739  12.118   4.302   5.553
 9855POPC   PO461740  12.117   4.320   5.853
 9855POPC   GL161741  12.039   4.334   6.153
 9855POPC   GL261742  12.084   4.237   6.153
 9855POPC   C1A61743  12.054   4.285   6.453
 9855POPC   D2A61744  12.125   4.347   6.753
 9855POPC   C3A61745  12.065   4.305   7.053
 9855POPC   C4A61746  12.050   4.333   7.353
 9855POPC   C1B61747  12.192   4.074   6.453
 9855POPC   C2B61748  12.125   4.097   6.753
 9855POPC   C3B61749  12.195   4.112   7.053
 9855POPC   C4B61750  12.208   4.083   7.353
 9856POPC   NC361751  10.506  15.944   5.553
 9856POPC   PO461752  10.545  15.972   5.853
 9856POPC   GL161753  10.526  15.975   6.153
 9856POPC   GL261754  10.439  16.070   6.153
 9856POPC   C1A61755  10.542  15.925   6.453
 9856POPC   D2A61756  10.560  15.999   6.753
 9856POPC   C3A61757  10.551  15.963   7.053
 9856POPC   C4A61758  10.496  15.920   7.353
 9856POPC   C1B61759  10.401  16.179   6.453
 9856POPC   C2B61760  10.410  16.211   6.753
 9856POPC   C3B61761  10.420  16.194   7.053
 9856POPC   C4B61762  10.370  16.203   7.353
 9857POPC   NC361763  38.449   8.202   5.553
 9857POPC   PO461764  38.464   8.173   5.853
 9857POPC   GL161765  38.479   8.161   6.153
 9857POPC   GL261766  38.559   8.224   6.153
 9857POPC   C1A61767  38.440   8.202   6.453
 9857POPC   D2A61768  38.474   8.194   6.753
 9857POPC   C3A61769  38.453   8.240   7.053
 9857POPC   C4A61770  38.478   8.162   7.353
 9857POPC   C1B61771  38.661   8.219   6.453
 9857POPC   C2B61772  38.725   8.198   6.753
 9857POPC   C3B61773  38.697   8.169   7.053
 9857POPC   C4B61774  38.685   8.197   7.353
 9858POPC   NC361775   1.252   8.961   5.553
 9858POPC   PO461776   1.211   8.951   5.853
 9858POPC   GL161777   1.250   8.986   6.153
 9858POPC   GL261778   1.068   9.028   6.153
 9858POPC   C1A61779   1.179   8.954   6.453
 9858POPC   D2A61780   1.255   9.020   6.753
 9858POPC   C3A61781   1.174   8.984   7.053
 9858POPC   C4A61782   1.198   8.989   7.353
 9858POPC   C1B61783   0.993   9.043   6.453
 9858POPC   C2B61784   0.984   9.030   6.753
 9858POPC   C3B61785   0.973   9.050   7.053
 9858POPC   C4B61786   0.971   9.059   7.353
 9859POPC   NC361787   0.425  16.719   5.553
 9859POPC   PO461788   0.442  16.728   5.853
 9859POPC   GL161789   0.397  16.713   6.153
 9859POPC   GL261790   0.594  16.752   6.153
 9859POPC   C1A61791   0.458  16.710   6.453
 9859POPC   D2A61792   0.447  16.743   6.753
 9859POPC   C3A61793   0.399  16.762   7.053
 9859POPC   C4A61794   0.411  16.722   7.353
 9859POPC   C1B61795   0.644  16.853   6.453
 9859POPC   C2B61796   0.695  16.805   6.753
 9859POPC   C3B61797   0.694  16.814   7.053
 9859POPC   C4B61798   0.654  16.854   7.353
 9860POPC   NC361799   4.327  37.673   5.553
 9860POPC   PO461800   4.341  37.692   5.853
 9860POPC   GL161801   4.314  37.637   6.153
 9860POPC   GL261802   4.488  37.719   6.153
 9860POPC   C1A61803   4.286  37.694   6.453
 9860POPC   D2A61804   4.326  37.646   6.753
 9860POPC   C3A61805   4.322  37.670   7.053
 9860POPC   C4A61806   4.360  37.683   7.353
 9860POPC   C1B61807   4.522  37.761   6.453
 9860POPC   C2B61808   4.588  37.714   6.753
 9860POPC   C3B61809   4.558  37.766   7.053
 9860POPC   C4B61810   4.586  37.744   7.353
 9861POPC   NC361811  13.588  39.261   5.553
 9861POPC   PO461812  13.664  39.207   5.853
 9861POPC   GL161813  13.676  39.195   6.153
 9861POPC   GL261814  13.701  39.303   6.153
 9861POPC   C1A61815  13.610  39.252   6.453
 9861POPC   D2A61816  13.649  39.249   6.753
 9861POPC   C3A61817  13.599  39.217   7.053
 9861POPC   C4A61818  13.592  39.195   7.353
 9861POPC   C1B61819  13.811  39.316   6.453
 9861POPC   C2B61820  13.833  39.351   6.753
 9861POPC   C3B61821  13.831  39.341   7.053
 9861POPC   C4B61822  13.872  39.295   7.353
 9862POPC   NC361823   5.118  19.034   5.553
 9862POPC   PO461824   5.071  19.010   5.853
 9862POPC   GL161825   5.052  19.100   6.153
 9862POPC   GL261826   4.958  19.075   6.153
 9862POPC   C1A61827   5.086  19.090   6.453
 9862POPC   D2A61828   5.130  19.078   6.753
 9862POPC   C3A61829   5.121  19.105   7.053
 9862POPC   C4A61830   5.062  19.010   7.353
 9862POPC   C1B61831   4.838  19.004   6.453
 9862POPC   C2B61832   4.842  19.019   6.753
 9862POPC   C3B61833   4.829  19.012   7.053
 9862POPC   C4B61834   4.843  19.084   7.353
 9863POPC   NC361835  37.661  36.160   5.553
 9863POPC   PO461836  37.643  36.133   5.853
 9863POPC   GL161837  37.688  36.082   6.153
 9863POPC   GL261838  37.722  36.170   6.153
 9863POPC   C1A61839  37.667  36.118   6.453
 9863POPC   D2A61840  37.641  36.124   6.753
 9863POPC   C3A61841  37.640  36.098   7.053
 9863POPC   C4A61842  37.669  36.162   7.353
 9863POPC   C1B61843  37.868  36.263   6.453
 9863POPC   C2B61844  37.863  36.264   6.753
 9863POPC   C3B61845  37.856  36.294   7.053
 9863POPC   C4B61846  37.895  36.326   7.353
 9864POPC   NC361847  19.039  36.918   5.553
 9864POPC   PO461848  19.101  36.939   5.853
 9864POPC   GL161849  19.090  36.946   6.153
 9864POPC   GL261850  18.915  36.922   6.153
 9864POPC   C1A61851  19.043  36.890   6.453
 9864POPC   D2A61852  19.015  36.892   6.753
 9864POPC   C3A61853  19.045  36.880   7.053
 9864POPC   C4A61854  19.046  36.857   7.353
 9864POPC   C1B61855  18.837  36.982   6.453
 9864POPC   C2B61856  18.879  36.986   6.753
 9864POPC   C3B61857  18.816  37.028   7.053
 9864POPC   C4B61858  18.832  37.042   7.353
 9865POPC   NC361859   0.415   0.460   5.553
 9865POPC   PO461860   0.481   0.410   5.853
 9865POPC   GL161861   0.432   0.389   6.153
 9865POPC   GL261862   0.508   0.574   6.153
 9865POPC   C1A61863   0.399   0.470   6.453
 9865POPC   D2A61864   0.427   0.422   6.753
 9865POPC   C3A61865   0.438   0.418   7.053
 9865POPC   C4A61866   0.405   0.435   7.353
 9865POPC   C1B61867   0.491   0.628   6.453
 9865POPC   C2B61868   0.546   0.719   6.753
 9865POPC   C3B61869   0.473   0.633   7.053
 9865POPC   C4B61870   0.515   0.693   7.353
 9866POPC   NC361871  43.153  44.669   5.553
 9866POPC   PO461872  43.139  44.649   5.853
 9866POPC   GL161873  43.082  44.617   6.153
 9866POPC   GL261874  42.951  44.687   6.153
 9866POPC   C1A61875  43.128  44.658   6.453
 9866POPC   D2A61876  43.101  44.663   6.753
 9866POPC   C3A61877  43.094  44.636   7.053
 9866POPC   C4A61878  43.112  44.661   7.353
 9866POPC   C1B61879  42.835  44.676   6.453
 9866POPC   C2B61880  42.878  44.741   6.753
 9866POPC   C3B61881  42.879  44.723   7.053
 9866POPC   C4B61882  42.840  44.695   7.353
 9867POPC   NC361883  10.524  21.382   5.553
 9867POPC   PO461884  10.550  21.384   5.853
 9867POPC   GL161885  10.561  21.369   6.153
 9867POPC   GL261886  10.440  21.250   6.153
 9867POPC   C1A61887  10.512  21.376   6.453
 9867POPC   D2A61888  10.482  21.393   6.753
 9867POPC   C3A61889  10.502  21.377   7.053
 9867POPC   C4A61890  10.552  21.377   7.353
 9867POPC   C1B61891  10.329  21.235   6.453
 9867POPC   C2B61892  10.353  21.253   6.753
 9867POPC   C3B61893  10.370  21.238   7.053
 9867POPC   C4B61894  10.344  21.210   7.353
 9868POPC   NC361895  30.728  44.700   5.553
 9868POPC   PO461896  30.714  44.648   5.853
 9868POPC   GL161897  30.713  44.625   6.153
 9868POPC   GL261898  30.597  44.787   6.153
 9868POPC   C1A61899  30.727  44.701   6.453
 9868POPC   D2A61900  30.701  44.651   6.753
 9868POPC   C3A61901  30.712  44.623   7.053
 9868POPC   C4A61902  30.731  44.664   7.353
 9868POPC   C1B61903  30.506  44.806   6.453
 9868POPC   C2B61904  30.521  44.799   6.753
 9868POPC   C3B61905  30.542  44.784   7.053
 9868POPC   C4B61906  30.538  44.813   7.353
 9869POPC   NC361907  15.959   9.789   5.553
 9869POPC   PO461908  15.927   9.780   5.853
 9869POPC   GL161909  15.984   9.713   6.153
 9869POPC   GL261910  16.096   9.726   6.153
 9869POPC   C1A61911  15.985   9.715   6.453
 9869POPC   D2A61912  15.952   9.781   6.753
 9869POPC   C3A61913  15.959   9.747   7.053
 9869POPC   C4A61914  15.976   9.756   7.353
 9869POPC   C1B61915  16.211   9.650   6.453
 9869POPC   C2B61916  16.226   9.598   6.753
 9869POPC   C3B61917  16.180   9.592   7.053
 9869POPC   C4B61918  16.140   9.643   7.353
 9870POPC   NC361919  34.545  43.874   5.553
 9870POPC   PO461920  34.565  43.839   5.853
 9870POPC   GL161921  34.584  43.883   6.153
 9870POPC   GL261922  34.547  43.995   6.153
 9870POPC   C1A61923  34.542  43.893   6.453
 9870POPC   D2A61924  34.560  43.863   6.753
 9870POPC   C3A61925  34.569  43.864   7.053
 9870POPC   C4A61926  34.616  43.898   7.353
 9870POPC   C1B61927  34.560  44.119   6.453
 9870POPC   C2B61928  34.620  44.186   6.753
 9870POPC   C3B61929  34.611  44.152   7.053
 9870POPC   C4B61930  34.577  44.114   7.353
 9871POPC   NC361931  28.406  22.157   5.553
 9871POPC   PO461932  28.324  22.134   5.853
 9871POPC   GL161933  28.406  22.204   6.153
 9871POPC   GL261934  28.413  22.009   6.153
 9871POPC   C1A61935  28.348  22.177   6.453
 9871POPC   D2A61936  28.409  22.171   6.753
 9871POPC   C3A61937  28.365  22.154   7.053
 9871POPC   C4A61938  28.412  22.130   7.353
 9871POPC   C1B61939  28.401  21.946   6.453
 9871POPC   C2B61940  28.409  21.879   6.753
 9871POPC   C3B61941  28.404  21.901   7.053
 9871POPC   C4B61942  28.417  21.889   7.353
 9872POPC   NC361943  10.479   8.194   5.553
 9872POPC   PO461944  10.517   8.173   5.853
 9872POPC   GL161945  10.499   8.226   6.153
 9872POPC   GL261946  10.590   8.290   6.153
 9872POPC   C1A61947  10.488   8.216   6.453
 9872POPC   D2A61948  10.478   8.181   6.753
 9872POPC   C3A61949  10.513   8.230   7.053
 9872POPC   C4A61950  10.539   8.200   7.353
 9872POPC   C1B61951  10.571   8.482   6.453
 9872POPC   C2B61952  10.569   8.469   6.753
 9872POPC   C3B61953  10.584   8.410   7.053
 9872POPC   C4B61954  10.620   8.466   7.353
 9873POPC   NC361955  24.500  31.434   5.553
 9873POPC   PO461956  24.532  31.498   5.853
 9873POPC   GL161957  24.482  31.451   6.153
 9873POPC   GL261958  24.451  31.315   6.153
 9873POPC   C1A61959  24.538  31.457   6.453
 9873POPC   D2A61960  24.491  31.492   6.753
 9873POPC   C3A61961  24.532  31.493   7.053
 9873POPC   C4A61962  24.511  31.479   7.353
 9873POPC   C1B61963  24.430  31.188   6.453
 9873POPC   C2B61964  24.469  31.188   6.753
 9873POPC   C3B61965  24.406  31.244   7.053
 9873POPC   C4B61966  24.381  31.256   7.353
 9874POPC   NC361967  14.408  22.932   5.553
 9874POPC   PO461968  14.444  22.941   5.853
 9874POPC   GL161969  14.441  22.938   6.153
 9874POPC   GL261970  14.471  22.797   6.153
 9874POPC   C1A61971  14.406  22.964   6.453
 9874POPC   D2A61972  14.385  22.945   6.753
 9874POPC   C3A61973  14.356  22.929   7.053
 9874POPC   C4A61974  14.440  22.965   7.353
 9874POPC   C1B61975  14.514  22.747   6.453
 9874POPC   C2B61976  14.494  22.692   6.753
 9874POPC   C3B61977  14.502  22.660   7.053
 9874POPC   C4B61978  14.514  22.676   7.353
 9875POPC   NC361979   8.147  36.859   5.553
 9875POPC   PO461980   8.216  36.912   5.853
 9875POPC   GL161981   8.190  36.936   6.153
 9875POPC   GL261982   8.175  36.793   6.153
 9875POPC   C1A61983   8.226  36.877   6.453
 9875POPC   D2A61984   8.195  36.878   6.753
 9875POPC   C3A61985   8.201  36.881   7.053
 9875POPC   C4A61986   8.152  36.897   7.353
 9875POPC   C1B61987   8.152  36.631   6.453
 9875POPC   C2B61988   8.141  36.648   6.753
 9875POPC   C3B61989   8.117  36.671   7.053
 9875POPC   C4B61990   8.160  36.621   7.353
 9876POPC   NC361991  39.257  16.690   5.553
 9876POPC   PO461992  39.269  16.683   5.853
 9876POPC   GL161993  39.275  16.714   6.153
 9876POPC   GL261994  39.336  16.819   6.153
 9876POPC   C1A61995  39.218  16.707   6.453
 9876POPC   D2A61996  39.228  16.716   6.753
 9876POPC   C3A61997  39.225  16.732   7.053
 9876POPC   C4A61998  39.263  16.701   7.353
 9876POPC   C1B61999  39.409  16.904   6.453
 9876POPC   C2B62000  39.362  16.905   6.753
 9876POPC   C3B62001  39.413  16.903   7.053
 9876POPC   C4B62002  39.407  16.978   7.353
 9877POPC   NC362003  44.689  24.491   5.553
 9877POPC   PO462004  44.665  24.467   5.853
 9877POPC   GL162005  44.617  24.499   6.153
 9877POPC   GL262006  44.753  24.455   6.153
 9877POPC   C1A62007  44.653  24.525   6.453
 9877POPC   D2A62008  44.679  24.503   6.753
 9877POPC   C3A62009  44.698  24.540   7.053
 9877POPC   C4A62010  44.711  24.505   7.353
 9877POPC   C1B62011  44.883  24.376   6.453
 9877POPC   C2B62012  44.854  24.462   6.753
 9877POPC   C3B62013  44.934  24.423   7.053
 9877POPC   C4B62014  44.892  24.450   7.353
 9878POPC   NC362015  24.488   8.205   5.553
 9878POPC   PO462016  24.447   8.193   5.853
 9878POPC   GL162017  24.539   8.242   6.153
 9878POPC   GL262018  24.597   8.158   6.153
 9878POPC   C1A62019  24.458   8.215   6.453
 9878POPC   D2A62020  24.520   8.179   6.753
 9878POPC   C3A62021  24.464   8.207   7.053
 9878POPC   C4A62022  24.488   8.191   7.353
 9878POPC   C1B62023  24.741   8.114   6.453
 9878POPC   C2B62024  24.743   8.103   6.753
 9878POPC   C3B62025  24.686   8.123   7.053
 9878POPC   C4B62026  24.712   8.185   7.353
 9879POPC   NC362027  39.973  44.626   5.553
 9879POPC   PO462028  39.974  44.666   5.853
 9879POPC   GL162029  40.008  44.661   6.153
 9879POPC   GL262030  40.039  44.529   6.153
 9879POPC   C1A62031  39.982  44.640   6.453
 9879POPC   D2A62032  39.966  44.615   6.753
 9879POPC   C3A62033  39.980  44.688   7.053
 9879POPC   C4A62034  40.011  44.654   7.353
 9879POPC   C1B62035  39.990  44.444   6.453
 9879POPC   C2B62036  40.050  44.402   6.753
 9879POPC   C3B62037  40.033  44.399   7.053
 9879POPC   C4B62038  40.014  44.364   7.353
 9880POPC   NC362039   5.861   6.638   5.553
 9880POPC   PO462040   5.833   6.595   5.853
 9880POPC   GL162041   5.886   6.614   6.153
 9880POPC   GL262042   5.989   6.534   6.153
 9880POPC   C1A62043   5.831   6.677   6.453
 9880POPC   D2A62044   5.847   6.656   6.753
 9880POPC   C3A62045   5.875   6.684   7.053
 9880POPC   C4A62046   5.911   6.669   7.353
 9880POPC   C1B62047   6.116   6.554   6.453
 9880POPC   C2B62048   6.046   6.502   6.753
 9880POPC   C3B62049   6.073   6.469   7.053
 9880POPC   C4B62050   6.071   6.564   7.353
 9881POPC   NC362051  40.787  39.217   5.553
 9881POPC   PO462052  40.800  39.182   5.853
 9881POPC   GL162053  40.800  39.223   6.153
 9881POPC   GL262054  40.713  39.333   6.153
 9881POPC   C1A62055  40.823  39.254   6.453
 9881POPC   D2A62056  40.784  39.234   6.753
 9881POPC   C3A62057  40.808  39.182   7.053
 9881POPC   C4A62058  40.772  39.253   7.353
 9881POPC   C1B62059  40.597  39.390   6.453
 9881POPC   C2B62060  40.588  39.347   6.753
 9881POPC   C3B62061  40.551  39.391   7.053
 9881POPC   C4B62062  40.577  39.388   7.353
 9882POPC   NC362063   5.839  43.888   5.553
 9882POPC   PO462064   5.902  43.914   5.853
 9882POPC   GL162065   5.831  43.901   6.153
 9882POPC   GL262066   5.710  43.838   6.153
 9882POPC   C1A62067   5.907  43.931   6.453
 9882POPC   D2A62068   5.860  43.868   6.753
 9882POPC   C3A62069   5.890  43.868   7.053
 9882POPC   C4A62070   5.834  43.928   7.353
 9882POPC   C1B62071   5.624  43.841   6.453
 9882POPC   C2B62072   5.633  43.852   6.753
 9882POPC   C3B62073   5.586  43.847   7.053
 9882POPC   C4B62074   5.616  43.893   7.353
 9883POPC   NC362075  43.897  22.985   5.553
 9883POPC   PO462076  43.861  22.978   5.853
 9883POPC   GL162077  43.929  22.892   6.153
 9883POPC   GL262078  43.884  23.090   6.153
 9883POPC   C1A62079  43.876  22.889   6.453
 9883POPC   D2A62080  43.891  22.902   6.753
 9883POPC   C3A62081  43.895  22.912   7.053
 9883POPC   C4A62082  43.864  22.977   7.353
 9883POPC   C1B62083  43.871  23.146   6.453
 9883POPC   C2B62084  43.943  23.173   6.753
 9883POPC   C3B62085  43.879  23.179   7.053
 9883POPC   C4B62086  43.918  23.188   7.353
 9884POPC   NC362087  29.117   5.102   5.553
 9884POPC   PO462088  29.183   5.046   5.853
 9884POPC   GL162089  29.145   5.060   6.153
 9884POPC   GL262090  29.006   5.054   6.153
 9884POPC   C1A62091  29.167   5.094   6.453
 9884POPC   D2A62092  29.189   5.070   6.753
 9884POPC   C3A62093  29.149   5.087   7.053
 9884POPC   C4A62094  29.176   5.119   7.353
 9884POPC   C1B62095  28.978   4.962   6.453
 9884POPC   C2B62096  28.925   4.926   6.753
 9884POPC   C3B62097  28.883   4.938   7.053
 9884POPC   C4B62098  28.882   5.000   7.353
 9885POPC   NC362099  31.457   1.227   5.553
 9885POPC   PO462100  31.482   1.169   5.853
 9885POPC   GL162101  31.428   1.236   6.153
 9885POPC   GL262102  31.629   1.205   6.153
 9885POPC   C1A62103  31.462   1.227   6.453
 9885POPC   D2A62104  31.513   1.202   6.753
 9885POPC   C3A62105  31.492   1.260   7.053
 9885POPC   C4A62106  31.505   1.176   7.353
 9885POPC   C1B62107  31.750   1.234   6.453
 9885POPC   C2B62108  31.685   1.239   6.753
 9885POPC   C3B62109  31.719   1.162   7.053
 9885POPC   C4B62110  31.729   1.227   7.353
 9886POPC   NC362111   0.445   2.012   5.553
 9886POPC   PO462112   0.465   1.991   5.853
 9886POPC   GL162113   0.440   1.992   6.153
 9886POPC   GL262114   0.546   2.089   6.153
 9886POPC   C1A62115   0.430   2.002   6.453
 9886POPC   D2A62116   0.470   2.027   6.753
 9886POPC   C3A62117   0.438   1.969   7.053
 9886POPC   C4A62118   0.389   1.983   7.353
 9886POPC   C1B62119   0.569   2.185   6.453
 9886POPC   C2B62120   0.564   2.213   6.753
 9886POPC   C3B62121   0.578   2.199   7.053
 9886POPC   C4B62122   0.646   2.142   7.353
 9887POPC   NC362123  43.129  10.484   5.553
 9887POPC   PO462124  43.068  10.513   5.853
 9887POPC   GL162125  43.111  10.545   6.153
 9887POPC   GL262126  43.216  10.474   6.153
 9887POPC   C1A62127  43.089  10.518   6.453
 9887POPC   D2A62128  43.123  10.572   6.753
 9887POPC   C3A62129  43.137  10.559   7.053
 9887POPC   C4A62130  43.155  10.500   7.353
 9887POPC   C1B62131  43.294  10.425   6.453
 9887POPC   C2B62132  43.344  10.482   6.753
 9887POPC   C3B62133  43.306  10.444   7.053
 9887POPC   C4B62134  43.350  10.471   7.353
 9888POPC   NC362135  38.455   1.227   5.553
 9888POPC   PO462136  38.423   1.218   5.853
 9888POPC   GL162137  38.443   1.213   6.153
 9888POPC   GL262138  38.626   1.192   6.153
 9888POPC   C1A62139  38.493   1.235   6.453
 9888POPC   D2A62140  38.412   1.175   6.753
 9888POPC   C3A62141  38.497   1.200   7.053
 9888POPC   C4A62142  38.426   1.248   7.353
 9888POPC   C1B62143  38.658   1.313   6.453
 9888POPC   C2B62144  38.712   1.313   6.753
 9888POPC   C3B62145  38.668   1.299   7.053
 9888POPC   C4B62146  38.724   1.239   7.353
 9889POPC   NC362147  33.006  42.295   5.553
 9889POPC   PO462148  32.992  42.304   5.853
 9889POPC   GL162149  32.987  42.305   6.153
 9889POPC   GL262150  32.896  42.299   6.153
 9889POPC   C1A62151  33.064  42.371   6.453
 9889POPC   D2A62152  33.034  42.340   6.753
 9889POPC   C3A62153  33.040  42.356   7.053
 9889POPC   C4A62154  33.026  42.370   7.353
 9889POPC   C1B62155  32.748  42.237   6.453
 9889POPC   C2B62156  32.809  42.192   6.753
 9889POPC   C3B62157  32.842  42.194   7.053
 9889POPC   C4B62158  32.817  42.232   7.353
 9890POPC   NC362159  42.325  43.141   5.553
 9890POPC   PO462160  42.373  43.138   5.853
 9890POPC   GL162161  42.382  43.087   6.153
 9890POPC   GL262162  42.188  43.095   6.153
 9890POPC   C1A62163  42.368  43.158   6.453
 9890POPC   D2A62164  42.291  43.140   6.753
 9890POPC   C3A62165  42.382  43.160   7.053
 9890POPC   C4A62166  42.325  43.068   7.353
 9890POPC   C1B62167  42.108  43.118   6.453
 9890POPC   C2B62168  42.081  43.090   6.753
 9890POPC   C3B62169  42.086  43.123   7.053
 9890POPC   C4B62170  42.055  43.094   7.353
 9891POPC   NC362171  40.022  12.858   5.553
 9891POPC   PO462172  39.970  12.832   5.853
 9891POPC   GL162173  40.036  12.863   6.153
 9891POPC   GL262174  39.901  12.725   6.153
 9891POPC   C1A62175  40.024  12.853   6.453
 9891POPC   D2A62176  40.033  12.876   6.753
 9891POPC   C3A62177  39.973  12.812   7.053
 9891POPC   C4A62178  39.997  12.843   7.353
 9891POPC   C1B62179  39.944  12.671   6.453
 9891POPC   C2B62180  39.897  12.602   6.753
 9891POPC   C3B62181  39.889  12.666   7.053
 9891POPC   C4B62182  39.937  12.608   7.353
 9892POPC   NC362183   1.979   2.743   5.553
 9892POPC   PO462184   2.039   2.798   5.853
 9892POPC   GL162185   2.015   2.735   6.153
 9892POPC   GL262186   1.857   2.828   6.153
 9892POPC   C1A62187   1.988   2.806   6.453
 9892POPC   D2A62188   2.036   2.760   6.753
 9892POPC   C3A62189   1.971   2.770   7.053
 9892POPC   C4A62190   1.979   2.725   7.353
 9892POPC   C1B62191   1.763   2.940   6.453
 9892POPC   C2B62192   1.843   2.932   6.753
 9892POPC   C3B62193   1.796   2.893   7.053
 9892POPC   C4B62194   1.775   2.940   7.353
 9893POPC   NC362195  44.613  19.860   5.553
 9893POPC   PO462196  44.646  19.820   5.853
 9893POPC   GL162197  44.698  19.858   6.153
 9893POPC   GL262198  44.539  19.842   6.153
 9893POPC   C1A62199  44.650  19.790   6.453
 9893POPC   D2A62200  44.682  19.882   6.753
 9893POPC   C3A62201  44.665  19.859   7.053
 9893POPC   C4A62202  44.633  19.835   7.353
 9893POPC   C1B62203  44.427  19.837   6.453
 9893POPC   C2B62204  44.369  19.866   6.753
 9893POPC   C3B62205  44.392  19.846   7.053
 9893POPC   C4B62206  44.377  19.835   7.353
 9894POPC   NC362207   5.091  40.805   5.553
 9894POPC   PO462208   5.066  40.786   5.853
 9894POPC   GL162209   5.076  40.832   6.153
 9894POPC   GL262210   5.023  40.724   6.153
 9894POPC   C1A62211   5.073  40.779   6.453
 9894POPC   D2A62212   5.073  40.740   6.753
 9894POPC   C3A62213   5.078  40.766   7.053
 9894POPC   C4A62214   5.121  40.760   7.353
 9894POPC   C1B62215   4.843  40.629   6.453
 9894POPC   C2B62216   4.897  40.640   6.753
 9894POPC   C3B62217   4.913  40.678   7.053
 9894POPC   C4B62218   4.936  40.664   7.353
 9895POPC   NC362219  12.819  38.445   5.553
 9895POPC   PO462220  12.895  38.435   5.853
 9895POPC   GL162221  12.894  38.462   6.153
 9895POPC   GL262222  12.702  38.521   6.153
 9895POPC   C1A62223  12.807  38.439   6.453
 9895POPC   D2A62224  12.856  38.454   6.753
 9895POPC   C3A62225  12.874  38.446   7.053
 9895POPC   C4A62226  12.887  38.420   7.353
 9895POPC   C1B62227  12.647  38.532   6.453
 9895POPC   C2B62228  12.568  38.529   6.753
 9895POPC   C3B62229  12.569  38.528   7.053
 9895POPC   C4B62230  12.593  38.502   7.353
 9896POPC   NC362231  40.829  12.847   5.553
 9896POPC   PO462232  40.733  12.843   5.853
 9896POPC   GL162233  40.763  12.807   6.153
 9896POPC   GL262234  40.801  12.691   6.153
 9896POPC   C1A62235  40.741  12.818   6.453
 9896POPC   D2A62236  40.816  12.895   6.753
 9896POPC   C3A62237  40.801  12.868   7.053
 9896POPC   C4A62238  40.820  12.830   7.353
 9896POPC   C1B62239  40.728  12.569   6.453
 9896POPC   C2B62240  40.713  12.577   6.753
 9896POPC   C3B62241  40.686  12.587   7.053
 9896POPC   C4B62242  40.700  12.609   7.353
 9897POPC   NC362243  26.065  34.622   5.553
 9897POPC   PO462244  26.032  34.537   5.853
 9897POPC   GL162245  26.019  34.538   6.153
 9897POPC   GL262246  26.045  34.718   6.153
 9897POPC   C1A62247  25.998  34.597   6.453
 9897POPC   D2A62248  26.063  34.567   6.753
 9897POPC   C3A62249  26.024  34.584   7.053
 9897POPC   C4A62250  26.032  34.559   7.353
 9897POPC   C1B62251  26.031  34.850   6.453
 9897POPC   C2B62252  26.066  34.826   6.753
 9897POPC   C3B62253  26.056  34.786   7.053
 9897POPC   C4B62254  26.037  34.847   7.353
 9898POPC   NC362255  34.590  19.839   5.553
 9898POPC   PO462256  34.546  19.846   5.853
 9898POPC   GL162257  34.601  19.815   6.153
 9898POPC   GL262258  34.524  19.688   6.153
 9898POPC   C1A62259  34.594  19.830   6.453
 9898POPC   D2A62260  34.537  19.830   6.753
 9898POPC   C3A62261  34.574  19.879   7.053
 9898POPC   C4A62262  34.528  19.826   7.353
 9898POPC   C1B62263  34.489  19.641   6.453
 9898POPC   C2B62264  34.497  19.597   6.753
 9898POPC   C3B62265  34.445  19.561   7.053
 9898POPC   C4B62266  34.504  19.581   7.353
 9899POPC   NC362267   5.917  15.992   5.553
 9899POPC   PO462268   5.846  15.909   5.853
 9899POPC   GL162269   5.867  15.958   6.153
 9899POPC   GL262270   5.753  15.924   6.153
 9899POPC   C1A62271   5.884  15.998   6.453
 9899POPC   D2A62272   5.853  15.951   6.753
 9899POPC   C3A62273   5.849  15.975   7.053
 9899POPC   C4A62274   5.871  15.930   7.353
 9899POPC   C1B62275   5.617  15.957   6.453
 9899POPC   C2B62276   5.618  15.961   6.753
 9899POPC   C3B62277   5.637  15.944   7.053
 9899POPC   C4B62278   5.650  15.890   7.353
 9900POPC   NC362279  19.820  22.153   5.553
 9900POPC   PO462280  19.840  22.183   5.853
 9900POPC   GL162281  19.789  22.155   6.153
 9900POPC   GL262282  19.813  22.326   6.153
 9900POPC   C1A62283  19.789  22.141   6.453
 9900POPC   D2A62284  19.870  22.173   6.753
 9900POPC   C3A62285  19.821  22.125   7.053
 9900POPC   C4A62286  19.871  22.187   7.353
 9900POPC   C1B62287  19.852  22.374   6.453
 9900POPC   C2B62288  19.820  22.376   6.753
 9900POPC   C3B62289  19.765  22.421   7.053
 9900POPC   C4B62290  19.783  22.416   7.353
 9901POPC   NC362291  23.673  22.162   5.553
 9901POPC   PO462292  23.714  22.187   5.853
 9901POPC   GL162293  23.700  22.172   6.153
 9901POPC   GL262294  23.710  22.062   6.153
 9901POPC   C1A62295  23.713  22.190   6.453
 9901POPC   D2A62296  23.746  22.166   6.753
 9901POPC   C3A62297  23.737  22.190   7.053
 9901POPC   C4A62298  23.756  22.167   7.353
 9901POPC   C1B62299  23.786  21.921   6.453
 9901POPC   C2B62300  23.720  21.896   6.753
 9901POPC   C3B62301  23.718  21.884   7.053
 9901POPC   C4B62302  23.695  21.918   7.353
 9902POPC   NC362303   2.799   5.838   5.553
 9902POPC   PO462304   2.795   5.897   5.853
 9902POPC   GL162305   2.800   5.832   6.153
 9902POPC   GL262306   2.607   5.944   6.153
 9902POPC   C1A62307   2.722   5.902   6.453
 9902POPC   D2A62308   2.792   5.843   6.753
 9902POPC   C3A62309   2.799   5.858   7.053
 9902POPC   C4A62310   2.803   5.851   7.353
 9902POPC   C1B62311   2.496   5.958   6.453
 9902POPC   C2B62312   2.484   5.914   6.753
 9902POPC   C3B62313   2.540   5.913   7.053
 9902POPC   C4B62314   2.575   5.987   7.353
 9903POPC   NC362315  26.041   1.972   5.553
 9903POPC   PO462316  25.997   1.948   5.853
 9903POPC   GL162317  26.046   2.004   6.153
 9903POPC   GL262318  25.960   1.952   6.153
 9903POPC   C1A62319  26.017   1.951   6.453
 9903POPC   D2A62320  26.052   2.033   6.753
 9903POPC   C3A62321  26.063   2.015   7.053
 9903POPC   C4A62322  26.017   2.022   7.353
 9903POPC   C1B62323  25.854   1.888   6.453
 9903POPC   C2B62324  25.832   1.879   6.753
 9903POPC   C3B62325  25.775   1.861   7.053
 9903POPC   C4B62326  25.850   1.930   7.353
 9904POPC   NC362327  23.721  36.111   5.553
 9904POPC   PO462328  23.666  36.115   5.853
 9904POPC   GL162329  23.699  36.117   6.153
 9904POPC   GL262330  23.815  35.979   6.153
 9904POPC   C1A62331  23.745  36.098   6.453
 9904POPC   D2A62332  23.692  36.078   6.753
 9904POPC   C3A62333  23.684  36.127   7.053
 9904POPC   C4A62334  23.751  36.108   7.353
 9904POPC   C1B62335  23.801  35.919   6.453
 9904POPC   C2B62336  23.819  35.947   6.753
 9904POPC   C3B62337  23.851  35.898   7.053
 9904POPC   C4B62338  23.822  35.943   7.353
 9905POPC   NC362339  26.802  27.582   5.553
 9905POPC   PO462340  26.821  27.628   5.853
 9905POPC   GL162341  26.785  27.606   6.153
 9905POPC   GL262342  26.685  27.617   6.153
 9905POPC   C1A62343  26.786  27.629   6.453
 9905POPC   D2A62344  26.848  27.635   6.753
 9905POPC   C3A62345  26.831  27.603   7.053
 9905POPC   C4A62346  26.799  27.598   7.353
 9905POPC   C1B62347  26.533  27.674   6.453
 9905POPC   C2B62348  26.523  27.639   6.753
 9905POPC   C3B62349  26.545  27.593   7.053
 9905POPC   C4B62350  26.545  27.632   7.353
 9906POPC   NC362351  19.026  18.297   5.553
 9906POPC   PO462352  19.079  18.275   5.853
 9906POPC   GL162353  19.107  18.255   6.153
 9906POPC   GL262354  19.066  18.178   6.153
 9906POPC   C1A62355  19.037  18.333   6.453
 9906POPC   D2A62356  19.085  18.302   6.753
 9906POPC   C3A62357  19.101  18.291   7.053
 9906POPC   C4A62358  19.072  18.268   7.353
 9906POPC   C1B62359  19.162  18.063   6.453
 9906POPC   C2B62360  19.193  18.080   6.753
 9906POPC   C3B62361  19.107  18.063   7.053
 9906POPC   C4B62362  19.134  18.069   7.353
 9907POPC   NC362363  29.970  23.719   5.553
 9907POPC   PO462364  29.909  23.710   5.853
 9907POPC   GL162365  29.930  23.724   6.153
 9907POPC   GL262366  29.965  23.807   6.153
 9907POPC   C1A62367  29.970  23.742   6.453
 9907POPC   D2A62368  29.966  23.691   6.753
 9907POPC   C3A62369  29.934  23.690   7.053
 9907POPC   C4A62370  29.955  23.707   7.353
 9907POPC   C1B62371  30.120  23.886   6.453
 9907POPC   C2B62372  30.137  23.902   6.753
 9907POPC   C3B62373  30.052  23.926   7.053
 9907POPC   C4B62374  30.123  23.853   7.353
 9908POPC   NC362375   4.291   2.801   5.553
 9908POPC   PO462376   4.317   2.808   5.853
 9908POPC   GL162377   4.269   2.753   6.153
 9908POPC   GL262378   4.334   2.854   6.153
 9908POPC   C1A62379   4.351   2.787   6.453
 9908POPC   D2A62380   4.351   2.745   6.753
 9908POPC   C3A62381   4.337   2.784   7.053
 9908POPC   C4A62382   4.313   2.769   7.353
 9908POPC   C1B62383   4.392   3.010   6.453
 9908POPC   C2B62384   4.441   3.036   6.753
 9908POPC   C3B62385   4.359   2.958   7.053
 9908POPC   C4B62386   4.378   3.019   7.353
 9909POPC   NC362387  19.861  17.550   5.553
 9909POPC   PO462388  19.873  17.515   5.853
 9909POPC   GL162389  19.803  17.477   6.153
 9909POPC   GL262390  19.816  17.368   6.153
 9909POPC   C1A62391  19.878  17.501   6.453
 9909POPC   D2A62392  19.793  17.489   6.753
 9909POPC   C3A62393  19.878  17.501   7.053
 9909POPC   C4A62394  19.834  17.544   7.353
 9909POPC   C1B62395  19.703  17.277   6.453
 9909POPC   C2B62396  19.739  17.323   6.753
 9909POPC   C3B62397  19.708  17.286   7.053
 9909POPC   C4B62398  19.681  17.281   7.353
 9910POPC   NC362399   2.722  25.280   5.553
 9910POPC   PO462400   2.716  25.291   5.853
 9910POPC   GL162401   2.774  25.227   6.153
 9910POPC   GL262402   2.682  25.363   6.153
 9910POPC   C1A62403   2.724  25.275   6.453
 9910POPC   D2A62404   2.771  25.255   6.753
 9910POPC   C3A62405   2.788  25.217   7.053
 9910POPC   C4A62406   2.764  25.293   7.353
 9910POPC   C1B62407   2.671  25.461   6.453
 9910POPC   C2B62408   2.658  25.487   6.753
 9910POPC   C3B62409   2.617  25.486   7.053
 9910POPC   C4B62410   2.668  25.494   7.353
 9911POPC   NC362411  32.984   6.678   5.553
 9911POPC   PO462412  33.027   6.606   5.853
 9911POPC   GL162413  33.018   6.673   6.153
 9911POPC   GL262414  33.182   6.652   6.153
 9911POPC   C1A62415  32.979   6.632   6.453
 9911POPC   D2A62416  33.012   6.617   6.753
 9911POPC   C3A62417  33.056   6.665   7.053
 9911POPC   C4A62418  33.060   6.615   7.353
 9911POPC   C1B62419  33.221   6.616   6.453
 9911POPC   C2B62420  33.223   6.537   6.753
 9911POPC   C3B62421  33.235   6.544   7.053
 9911POPC   C4B62422  33.300   6.583   7.353
 9912POPC   NC362423   8.242  12.052   5.553
 9912POPC   PO462424   8.180  12.100   5.853
 9912POPC   GL162425   8.222  12.101   6.153
 9912POPC   GL262426   8.350  11.983   6.153
 9912POPC   C1A62427   8.226  12.058   6.453
 9912POPC   D2A62428   8.153  12.102   6.753
 9912POPC   C3A62429   8.174  12.076   7.053
 9912POPC   C4A62430   8.219  12.095   7.353
 9912POPC   C1B62431   8.465  11.965   6.453
 9912POPC   C2B62432   8.452  11.933   6.753
 9912POPC   C3B62433   8.391  11.980   7.053
 9912POPC   C4B62434   8.381  11.951   7.353
 9913POPC   NC362435  19.093  30.659   5.553
 9913POPC   PO462436  19.044  30.720   5.853
 9913POPC   GL162437  19.098  30.735   6.153
 9913POPC   GL262438  19.081  30.762   6.153
 9913POPC   C1A62439  19.068  30.694   6.453
 9913POPC   D2A62440  19.048  30.675   6.753
 9913POPC   C3A62441  19.022  30.707   7.053
 9913POPC   C4A62442  19.011  30.727   7.353
 9913POPC   C1B62443  19.151  30.903   6.453
 9913POPC   C2B62444  19.155  30.918   6.753
 9913POPC   C3B62445  19.122  30.941   7.053
 9913POPC   C4B62446  19.150  30.953   7.353
 9914POPC   NC362447   8.245  32.282   5.553
 9914POPC   PO462448   8.202  32.207   5.853
 9914POPC   GL162449   8.182  32.205   6.153
 9914POPC   GL262450   8.117  32.174   6.153
 9914POPC   C1A62451   8.158  32.215   6.453
 9914POPC   D2A62452   8.239  32.258   6.753
 9914POPC   C3A62453   8.180  32.214   7.053
 9914POPC   C4A62454   8.191  32.229   7.353
 9914POPC   C1B62455   8.011  32.082   6.453
 9914POPC   C2B62456   8.032  32.096   6.753
 9914POPC   C3B62457   8.033  32.056   7.053
 9914POPC   C4B62458   8.001  32.070   7.353
 9915POPC   NC362459  10.536   9.018   5.553
 9915POPC   PO462460  10.513   8.930   5.853
 9915POPC   GL162461  10.529   9.000   6.153
 9915POPC   GL262462  10.487   9.122   6.153
 9915POPC   C1A62463  10.555   8.958   6.453
 9915POPC   D2A62464  10.553   8.925   6.753
 9915POPC   C3A62465  10.569   8.988   7.053
 9915POPC   C4A62466  10.516   8.963   7.353
 9915POPC   C1B62467  10.517   9.197   6.453
 9915POPC   C2B62468  10.513   9.246   6.753
 9915POPC   C3B62469  10.547   9.242   7.053
 9915POPC   C4B62470  10.517   9.174   7.353
 9916POPC   NC362471  43.156  33.822   5.553
 9916POPC   PO462472  43.149  33.812   5.853
 9916POPC   GL162473  43.088  33.819   6.153
 9916POPC   GL262474  43.183  33.896   6.153
 9916POPC   C1A62475  43.136  33.825   6.453
 9916POPC   D2A62476  43.158  33.760   6.753
 9916POPC   C3A62477  43.146  33.798   7.053
 9916POPC   C4A62478  43.099  33.796   7.353
 9916POPC   C1B62479  43.228  34.047   6.453
 9916POPC   C2B62480  43.189  33.978   6.753
 9916POPC   C3B62481  43.216  34.030   7.053
 9916POPC   C4B62482  43.223  34.005   7.353
 9917POPC   NC362483  36.859  26.053   5.553
 9917POPC   PO462484  36.917  26.014   5.853
 9917POPC   GL162485  36.893  26.007   6.153
 9917POPC   GL262486  37.018  25.910   6.153
 9917POPC   C1A62487  36.924  26.031   6.453
 9917POPC   D2A62488  36.888  26.047   6.753
 9917POPC   C3A62489  36.946  26.022   7.053
 9917POPC   C4A62490  36.938  26.049   7.353
 9917POPC   C1B62491  37.024  25.819   6.453
 9917POPC   C2B62492  37.009  25.818   6.753
 9917POPC   C3B62493  37.009  25.810   7.053
 9917POPC   C4B62494  37.075  25.827   7.353
 9918POPC   NC362495  14.421  19.850   5.553
 9918POPC   PO462496  14.367  19.809   5.853
 9918POPC   GL162497  14.451  19.810   6.153
 9918POPC   GL262498  14.370  19.910   6.153
 9918POPC   C1A62499  14.363  19.856   6.453
 9918POPC   D2A62500  14.372  19.823   6.753
 9918POPC   C3A62501  14.402  19.843   7.053
 9918POPC   C4A62502  14.374  19.837   7.353
 9918POPC   C1B62503  14.356  20.129   6.453
 9918POPC   C2B62504  14.316  20.097   6.753
 9918POPC   C3B62505  14.317  20.119   7.053
 9918POPC   C4B62506  14.385  20.044   7.353
 9919POPC   NC362507  41.542  43.886   5.553
 9919POPC   PO462508  41.588  43.905   5.853
 9919POPC   GL162509  41.525  43.902   6.153
 9919POPC   GL262510  41.631  44.024   6.153
 9919POPC   C1A62511  41.548  43.841   6.453
 9919POPC   D2A62512  41.541  43.855   6.753
 9919POPC   C3A62513  41.509  43.876   7.053
 9919POPC   C4A62514  41.567  43.881   7.353
 9919POPC   C1B62515  41.641  44.114   6.453
 9919POPC   C2B62516  41.597  44.128   6.753
 9919POPC   C3B62517  41.567  44.125   7.053
 9919POPC   C4B62518  41.631  44.144   7.353
 9920POPC   NC362519   8.943  38.463   5.553
 9920POPC   PO462520   8.932  38.452   5.853
 9920POPC   GL162521   9.009  38.420   6.153
 9920POPC   GL262522   8.916  38.529   6.153
 9920POPC   C1A62523   8.959  38.441   6.453
 9920POPC   D2A62524   8.928  38.407   6.753
 9920POPC   C3A62525   8.945  38.422   7.053
 9920POPC   C4A62526   8.961  38.453   7.353
 9920POPC   C1B62527   8.895  38.655   6.453
 9920POPC   C2B62528   8.823  38.667   6.753
 9920POPC   C3B62529   8.853  38.712   7.053
 9920POPC   C4B62530   8.824  38.658   7.353
 9921POPC   NC362531   3.562   5.831   5.553
 9921POPC   PO462532   3.500   5.829   5.853
 9921POPC   GL162533   3.562   5.894   6.153
 9921POPC   GL262534   3.525   5.731   6.153
 9921POPC   C1A62535   3.566   5.876   6.453
 9921POPC   D2A62536   3.531   5.914   6.753
 9921POPC   C3A62537   3.523   5.863   7.053
 9921POPC   C4A62538   3.498   5.828   7.353
 9921POPC   C1B62539   3.542   5.625   6.453
 9921POPC   C2B62540   3.524   5.636   6.753
 9921POPC   C3B62541   3.511   5.651   7.053
 9921POPC   C4B62542   3.547   5.656   7.353
 9922POPC   NC362543  28.372  22.920   5.553
 9922POPC   PO462544  28.380  22.934   5.853
 9922POPC   GL162545  28.398  22.939   6.153
 9922POPC   GL262546  28.440  22.893   6.153
 9922POPC   C1A62547  28.394  22.901   6.453
 9922POPC   D2A62548  28.320  22.940   6.753
 9922POPC   C3A62549  28.334  22.955   7.053
 9922POPC   C4A62550  28.398  22.955   7.353
 9922POPC   C1B62551  28.605  22.891   6.453
 9922POPC   C2B62552  28.592  22.847   6.753
 9922POPC   C3B62553  28.620  22.855   7.053
 9922POPC   C4B62554  28.655  22.835   7.353
 9923POPC   NC362555  16.747   9.750   5.553
 9923POPC   PO462556  16.681   9.788   5.853
 9923POPC   GL162557  16.742   9.743   6.153
 9923POPC   GL262558  16.773   9.878   6.153
 9923POPC   C1A62559  16.697   9.730   6.453
 9923POPC   D2A62560  16.755   9.729   6.753
 9923POPC   C3A62561  16.760   9.729   7.053
 9923POPC   C4A62562  16.773   9.729   7.353
 9923POPC   C1B62563  16.693  10.020   6.453
 9923POPC   C2B62564  16.760   9.963   6.753
 9923POPC   C3B62565  16.683  10.026   7.053
 9923POPC   C4B62566  16.682  10.001   7.353
 9924POPC   NC362567   5.112   3.585   5.553
 9924POPC   PO462568   5.044   3.589   5.853
 9924POPC   GL162569   5.123   3.582   6.153
 9924POPC   GL262570   4.975   3.586   6.153
 9924POPC   C1A62571   5.114   3.562   6.453
 9924POPC   D2A62572   5.097   3.577   6.753
 9924POPC   C3A62573   5.115   3.538   7.053
 9924POPC   C4A62574   5.105   3.560   7.353
 9924POPC   C1B62575   4.815   3.629   6.453
 9924POPC   C2B62576   4.891   3.560   6.753
 9924POPC   C3B62577   4.840   3.605   7.053
 9924POPC   C4B62578   4.799   3.542   7.353
 9925POPC   NC362579  19.795   8.994   5.553
 9925POPC   PO462580  19.801   8.985   5.853
 9925POPC   GL162581  19.792   8.949   6.153
 9925POPC   GL262582  19.694   8.978   6.153
 9925POPC   C1A62583  19.870   9.006   6.453
 9925POPC   D2A62584  19.807   9.009   6.753
 9925POPC   C3A62585  19.815   9.010   7.053
 9925POPC   C4A62586  19.821   8.947   7.353
 9925POPC   C1B62587  19.624   9.006   6.453
 9925POPC   C2B62588  19.625   9.030   6.753
 9925POPC   C3B62589  19.552   9.069   7.053
 9925POPC   C4B62590  19.616   9.011   7.353
 9926POPC   NC362591  30.740  33.055   5.553
 9926POPC   PO462592  30.679  33.037   5.853
 9926POPC   GL162593  30.721  33.056   6.153
 9926POPC   GL262594  30.600  33.142   6.153
 9926POPC   C1A62595  30.717  33.046   6.453
 9926POPC   D2A62596  30.729  33.050   6.753
 9926POPC   C3A62597  30.746  33.015   7.053
 9926POPC   C4A62598  30.703  33.053   7.353
 9926POPC   C1B62599  30.533  33.234   6.453
 9926POPC   C2B62600  30.523  33.214   6.753
 9926POPC   C3B62601  30.539  33.200   7.053
 9926POPC   C4B62602  30.608  33.212   7.353
 9927POPC   NC362603   8.236  29.099   5.553
 9927POPC   PO462604   8.238  29.188   5.853
 9927POPC   GL162605   8.158  29.166   6.153
 9927POPC   GL262606   8.150  29.040   6.153
 9927POPC   C1A62607   8.186  29.095   6.453
 9927POPC   D2A62608   8.192  29.168   6.753
 9927POPC   C3A62609   8.222  29.132   7.053
 9927POPC   C4A62610   8.199  29.168   7.353
 9927POPC   C1B62611   8.085  28.899   6.453
 9927POPC   C2B62612   8.095  28.911   6.753
 9927POPC   C3B62613   8.059  28.943   7.053
 9927POPC   C4B62614   8.095  28.936   7.353
 9928POPC   NC362615  12.119  26.019   5.553
 9928POPC   PO462616  12.095  26.009   5.853
 9928POPC   GL162617  12.043  26.051   6.153
 9928POPC   GL262618  12.117  25.888   6.153
 9928POPC   C1A62619  12.120  26.031   6.453
 9928POPC   D2A62620  12.058  26.090   6.753
 9928POPC   C3A62621  12.125  26.083   7.053
 9928POPC   C4A62622  12.097  26.054   7.353
 9928POPC   C1B62623  12.057  25.828   6.453
 9928POPC   C2B62624  12.022  25.835   6.753
 9928POPC   C3B62625  12.061  25.761   7.053
 9928POPC   C4B62626  12.063  25.810   7.353
 9929POPC   NC362627  29.174  18.270   5.553
 9929POPC   PO462628  29.166  18.272   5.853
 9929POPC   GL162629  29.167  18.297   6.153
 9929POPC   GL262630  29.141  18.175   6.153
 9929POPC   C1A62631  29.163  18.327   6.453
 9929POPC   D2A62632  29.141  18.326   6.753
 9929POPC   C3A62633  29.175  18.296   7.053
 9929POPC   C4A62634  29.107  18.264   7.353
 9929POPC   C1B62635  29.270  18.005   6.453
 9929POPC   C2B62636  29.192  18.027   6.753
 9929POPC   C3B62637  29.208  18.056   7.053
 9929POPC   C4B62638  29.243  18.075   7.353
 9930POPC   NC362639  36.118  22.184   5.553
 9930POPC   PO462640  36.152  22.181   5.853
 9930POPC   GL162641  36.099  22.210   6.153
 9930POPC   GL262642  36.105  22.318   6.153
 9930POPC   C1A62643  36.144  22.156   6.453
 9930POPC   D2A62644  36.153  22.187   6.753
 9930POPC   C3A62645  36.091  22.134   7.053
 9930POPC   C4A62646  36.177  22.165   7.353
 9930POPC   C1B62647  36.070  22.398   6.453
 9930POPC   C2B62648  36.069  22.361   6.753
 9930POPC   C3B62649  36.098  22.372   7.053
 9930POPC   C4B62650  36.098  22.372   7.353
 9931POPC   NC362651  25.992  43.098   5.553
 9931POPC   PO462652  26.020  43.076   5.853
 9931POPC   GL162653  25.999  43.088   6.153
 9931POPC   GL262654  26.160  43.145   6.153
 9931POPC   C1A62655  26.039  43.158   6.453
 9931POPC   D2A62656  26.034  43.066   6.753
 9931POPC   C3A62657  26.031  43.160   7.053
 9931POPC   C4A62658  26.012  43.132   7.353
 9931POPC   C1B62659  26.304  43.223   6.453
 9931POPC   C2B62660  26.291  43.196   6.753
 9931POPC   C3B62661  26.286  43.199   7.053
 9931POPC   C4B62662  26.304  43.213   7.353
 9932POPC   NC362663   1.229  16.702   5.553
 9932POPC   PO462664   1.243  16.722   5.853
 9932POPC   GL162665   1.165  16.763   6.153
 9932POPC   GL262666   1.152  16.611   6.153
 9932POPC   C1A62667   1.232  16.707   6.453
 9932POPC   D2A62668   1.245  16.711   6.753
 9932POPC   C3A62669   1.245  16.754   7.053
 9932POPC   C4A62670   1.201  16.735   7.353
 9932POPC   C1B62671   1.059  16.550   6.453
 9932POPC   C2B62672   1.058  16.511   6.753
 9932POPC   C3B62673   1.114  16.517   7.053
 9932POPC   C4B62674   1.105  16.498   7.353
 9933POPC   NC362675  19.046  15.913   5.553
 9933POPC   PO462676  19.042  15.947   5.853
 9933POPC   GL162677  19.048  15.948   6.153
 9933POPC   GL262678  19.031  15.867   6.153
 9933POPC   C1A62679  19.095  15.935   6.453
 9933POPC   D2A62680  19.009  15.912   6.753
 9933POPC   C3A62681  19.091  15.948   7.053
 9933POPC   C4A62682  19.085  15.974   7.353
 9933POPC   C1B62683  19.125  15.752   6.453
 9933POPC   C2B62684  19.081  15.717   6.753
 9933POPC   C3B62685  19.050  15.747   7.053
 9933POPC   C4B62686  19.056  15.754   7.353
 9934POPC   NC362687  22.941  29.916   5.553
 9934POPC   PO462688  22.912  29.960   5.853
 9934POPC   GL162689  22.981  29.923   6.153
 9934POPC   GL262690  23.039  29.802   6.153
 9934POPC   C1A62691  22.964  29.943   6.453
 9934POPC   D2A62692  22.943  29.912   6.753
 9934POPC   C3A62693  22.927  29.941   7.053
 9934POPC   C4A62694  22.913  29.899   7.353
 9934POPC   C1B62695  23.036  29.688   6.453
 9934POPC   C2B62696  23.038  29.735   6.753
 9934POPC   C3B62697  23.083  29.727   7.053
 9934POPC   C4B62698  23.023  29.669   7.353
 9935POPC   NC362699   0.449  25.307   5.553
 9935POPC   PO462700   0.399  25.312   5.853
 9935POPC   GL162701   0.414  25.294   6.153
 9935POPC   GL262702   0.546  25.353   6.153
 9935POPC   C1A62703   0.399  25.267   6.453
 9935POPC   D2A62704   0.461  25.257   6.753
 9935POPC   C3A62705   0.462  25.237   7.053
 9935POPC   C4A62706   0.402  25.251   7.353
 9935POPC   C1B62707   0.620  25.492   6.453
 9935POPC   C2B62708   0.544  25.441   6.753
 9935POPC   C3B62709   0.593  25.460   7.053
 9935POPC   C4B62710   0.614  25.493   7.353
 9936POPC   NC362711  22.900   3.558   5.553
 9936POPC   PO462712  22.898   3.562   5.853
 9936POPC   GL162713  22.935   3.510   6.153
 9936POPC   GL262714  22.931   3.439   6.153
 9936POPC   C1A62715  22.899   3.566   6.453
 9936POPC   D2A62716  22.969   3.567   6.753
 9936POPC   C3A62717  22.967   3.588   7.053
 9936POPC   C4A62718  22.908   3.528   7.353
 9936POPC   C1B62719  22.919   3.297   6.453
 9936POPC   C2B62720  22.959   3.291   6.753
 9936POPC   C3B62721  22.916   3.301   7.053
 9936POPC   C4B62722  22.904   3.306   7.353
 9937POPC   NC362723  34.572  19.028   5.553
 9937POPC   PO462724  34.535  19.022   5.853
 9937POPC   GL162725  34.570  19.054   6.153
 9937POPC   GL262726  34.514  19.212   6.153
 9937POPC   C1A62727  34.533  19.073   6.453
 9937POPC   D2A62728  34.532  19.033   6.753
 9937POPC   C3A62729  34.617  19.035   7.053
 9937POPC   C4A62730  34.590  19.034   7.353
 9937POPC   C1B62731  34.529  19.317   6.453
 9937POPC   C2B62732  34.498  19.310   6.753
 9937POPC   C3B62733  34.525  19.286   7.053
 9937POPC   C4B62734  34.478  19.297   7.353
 9938POPC   NC362735  19.841  40.739   5.553
 9938POPC   PO462736  19.853  40.753   5.853
 9938POPC   GL162737  19.863  40.768   6.153
 9938POPC   GL262738  19.731  40.836   6.153
 9938POPC   C1A62739  19.808  40.765   6.453
 9938POPC   D2A62740  19.810  40.832   6.753
 9938POPC   C3A62741  19.868  40.799   7.053
 9938POPC   C4A62742  19.834  40.822   7.353
 9938POPC   C1B62743  19.548  40.778   6.453
 9938POPC   C2B62744  19.585  40.773   6.753
 9938POPC   C3B62745  19.575  40.835   7.053
 9938POPC   C4B62746  19.565  40.794   7.353
 9939POPC   NC362747  12.807  27.568   5.553
 9939POPC   PO462748  12.892  27.574   5.853
 9939POPC   GL162749  12.901  27.618   6.153
 9939POPC   GL262750  12.962  27.624   6.153
 9939POPC   C1A62751  12.805  27.620   6.453
 9939POPC   D2A62752  12.889  27.602   6.753
 9939POPC   C3A62753  12.830  27.557   7.053
 9939POPC   C4A62754  12.838  27.621   7.353
 9939POPC   C1B62755  13.126  27.649   6.453
 9939POPC   C2B62756  13.043  27.709   6.753
 9939POPC   C3B62757  13.068  27.648   7.053
 9939POPC   C4B62758  13.102  27.738   7.353
 9940POPC   NC362759   1.210  38.418   5.553
 9940POPC   PO462760   1.229  38.414   5.853
 9940POPC   GL162761   1.254  38.411   6.153
 9940POPC   GL262762   1.268  38.381   6.153
 9940POPC   C1A62763   1.177  38.479   6.453
 9940POPC   D2A62764   1.209  38.435   6.753
 9940POPC   C3A62765   1.193  38.487   7.053
 9940POPC   C4A62766   1.261  38.493   7.353
 9940POPC   C1B62767   1.424  38.311   6.453
 9940POPC   C2B62768   1.353  38.251   6.753
 9940POPC   C3B62769   1.350  38.254   7.053
 9940POPC   C4B62770   1.430  38.295   7.353
 9941POPC   NC362771  21.402  21.363   5.553
 9941POPC   PO462772  21.407  21.400   5.853
 9941POPC   GL162773  21.368  21.359   6.153
 9941POPC   GL262774  21.511  21.380   6.153
 9941POPC   C1A62775  21.351  21.357   6.453
 9941POPC   D2A62776  21.416  21.343   6.753
 9941POPC   C3A62777  21.416  21.419   7.053
 9941POPC   C4A62778  21.389  21.343   7.353
 9941POPC   C1B62779  21.596  21.378   6.453
 9941POPC   C2B62780  21.634  21.361   6.753
 9941POPC   C3B62781  21.621  21.358   7.053
 9941POPC   C4B62782  21.621  21.407   7.353
 9942POPC   NC362783  11.349  40.039   5.553
 9942POPC   PO462784  11.290  40.047   5.853
 9942POPC   GL162785  11.320  40.048   6.153
 9942POPC   GL262786  11.168  40.041   6.153
 9942POPC   C1A62787  11.303  39.993   6.453
 9942POPC   D2A62788  11.259  39.971   6.753
 9942POPC   C3A62789  11.307  39.994   7.053
 9942POPC   C4A62790  11.254  39.977   7.353
 9942POPC   C1B62791  11.051  39.943   6.453
 9942POPC   C2B62792  11.028  39.969   6.753
 9942POPC   C3B62793  11.054  40.032   7.053
 9942POPC   C4B62794  11.013  40.012   7.353
 9943POPC   NC362795  43.849  29.895   5.553
 9943POPC   PO462796  43.869  29.964   5.853
 9943POPC   GL162797  43.856  29.906   6.153
 9943POPC   GL262798  43.839  29.838   6.153
 9943POPC   C1A62799  43.875  29.905   6.453
 9943POPC   D2A62800  43.840  29.924   6.753
 9943POPC   C3A62801  43.841  29.916   7.053
 9943POPC   C4A62802  43.870  29.921   7.353
 9943POPC   C1B62803  43.841  29.723   6.453
 9943POPC   C2B62804  43.831  29.687   6.753
 9943POPC   C3B62805  43.776  29.678   7.053
 9943POPC   C4B62806  43.790  29.727   7.353
 9944POPC   NC362807   3.554   8.220   5.553
 9944POPC   PO462808   3.526   8.170   5.853
 9944POPC   GL162809   3.529   8.172   6.153
 9944POPC   GL262810   3.475   8.289   6.153
 9944POPC   C1A62811   3.560   8.176   6.453
 9944POPC   D2A62812   3.505   8.154   6.753
 9944POPC   C3A62813   3.589   8.218   7.053
 9944POPC   C4A62814   3.574   8.172   7.353
 9944POPC   C1B62815   3.356   8.398   6.453
 9944POPC   C2B62816   3.313   8.381   6.753
 9944POPC   C3B62817   3.391   8.399   7.053
 9944POPC   C4B62818   3.360   8.320   7.353
 9945POPC   NC362819  38.416  26.040   5.553
 9945POPC   PO462820  38.440  25.997   5.853
 9945POPC   GL162821  38.501  26.019   6.153
 9945POPC   GL262822  38.345  26.044   6.153
 9945POPC   C1A62823  38.452  26.010   6.453
 9945POPC   D2A62824  38.409  26.001   6.753
 9945POPC   C3A62825  38.492  26.082   7.053
 9945POPC   C4A62826  38.434  25.994   7.353
 9945POPC   C1B62827  38.244  26.055   6.453
 9945POPC   C2B62828  38.212  26.079   6.753
 9945POPC   C3B62829  38.236  26.094   7.053
 9945POPC   C4B62830  38.210  26.132   7.353
 9946POPC   NC362831   0.405  27.597   5.553
 9946POPC   PO462832   0.488  27.592   5.853
 9946POPC   GL162833   0.417  27.581   6.153
 9946POPC   GL262834   0.466  27.760   6.153
 9946POPC   C1A62835   0.393  27.628   6.453
 9946POPC   D2A62836   0.411  27.545   6.753
 9946POPC   C3A62837   0.479  27.565   7.053
 9946POPC   C4A62838   0.425  27.590   7.353
 9946POPC   C1B62839   0.521  27.854   6.453
 9946POPC   C2B62840   0.504  27.869   6.753
 9946POPC   C3B62841   0.539  27.883   7.053
 9946POPC   C4B62842   0.467  27.798   7.353
 9947POPC   NC362843   2.788  14.401   5.553
 9947POPC   PO462844   2.759  14.385   5.853
 9947POPC   GL162845   2.792  14.418   6.153
 9947POPC   GL262846   2.783  14.519   6.153
 9947POPC   C1A62847   2.789  14.412   6.453
 9947POPC   D2A62848   2.761  14.424   6.753
 9947POPC   C3A62849   2.743  14.445   7.053
 9947POPC   C4A62850   2.788  14.372   7.353
 9947POPC   C1B62851   2.668  14.669   6.453
 9947POPC   C2B62852   2.695  14.665   6.753
 9947POPC   C3B62853   2.681  14.616   7.053
 9947POPC   C4B62854   2.707  14.598   7.353
 9948POPC   NC362855   5.071   9.722   5.553
 9948POPC   PO462856   5.054   9.737   5.853
 9948POPC   GL162857   5.110   9.789   6.153
 9948POPC   GL262858   5.143   9.910   6.153
 9948POPC   C1A62859   5.080   9.721   6.453
 9948POPC   D2A62860   5.127   9.705   6.753
 9948POPC   C3A62861   5.094   9.764   7.053
 9948POPC   C4A62862   5.134   9.742   7.353
 9948POPC   C1B62863   5.145  10.038   6.453
 9948POPC   C2B62864   5.122   9.952   6.753
 9948POPC   C3B62865   5.061  10.046   7.053
 9948POPC   C4B62866   5.102   9.988   7.353
 9949POPC   NC362867  42.285  34.595   5.553
 9949POPC   PO462868  42.345  34.570   5.853
 9949POPC   GL162869  42.320  34.589   6.153
 9949POPC   GL262870  42.360  34.493   6.153
 9949POPC   C1A62871  42.321  34.582   6.453
 9949POPC   D2A62872  42.302  34.608   6.753
 9949POPC   C3A62873  42.302  34.564   7.053
 9949POPC   C4A62874  42.296  34.570   7.353
 9949POPC   C1B62875  42.409  34.300   6.453
 9949POPC   C2B62876  42.420  34.356   6.753
 9949POPC   C3B62877  42.432  34.379   7.053
 9949POPC   C4B62878  42.472  34.368   7.353
 9950POPC   NC362879  25.277   2.737   5.553
 9950POPC   PO462880  25.309   2.803   5.853
 9950POPC   GL162881  25.229   2.719   6.153
 9950POPC   GL262882  25.173   2.809   6.153
 9950POPC   C1A62883  25.311   2.789   6.453
 9950POPC   D2A62884  25.248   2.738   6.753
 9950POPC   C3A62885  25.219   2.802   7.053
 9950POPC   C4A62886  25.308   2.726   7.353
 9950POPC   C1B62887  25.016   2.865   6.453
 9950POPC   C2B62888  25.080   2.877   6.753
 9950POPC   C3B62889  25.074   2.937   7.053
 9950POPC   C4B62890  25.040   2.909   7.353
 9951POPC   NC362891   3.508  24.461   5.553
 9951POPC   PO462892   3.587  24.453   5.853
 9951POPC   GL162893   3.562  24.537   6.153
 9951POPC   GL262894   3.590  24.653   6.153
 9951POPC   C1A62895   3.589  24.477   6.453
 9951POPC   D2A62896   3.553  24.481   6.753
 9951POPC   C3A62897   3.556  24.533   7.053
 9951POPC   C4A62898   3.559  24.473   7.353
 9951POPC   C1B62899   3.562  24.780   6.453
 9951POPC   C2B62900   3.553  24.724   6.753
 9951POPC   C3B62901   3.588  24.757   7.053
 9951POPC   C4B62902   3.619  24.721   7.353
 9952POPC   NC362903  29.107  35.382   5.553
 9952POPC   PO462904  29.099  35.358   5.853
 9952POPC   GL162905  29.153  35.327   6.153
 9952POPC   GL262906  29.250  35.327   6.153
 9952POPC   C1A62907  29.192  35.397   6.453
 9952POPC   D2A62908  29.109  35.395   6.753
 9952POPC   C3A62909  29.184  35.349   7.053
 9952POPC   C4A62910  29.145  35.306   7.353
 9952POPC   C1B62911  29.356  35.328   6.453
 9952POPC   C2B62912  29.406  35.363   6.753
 9952POPC   C3B62913  29.370  35.315   7.053
 9952POPC   C4B62914  29.414  35.323   7.353
 9953POPC   NC362915  20.647  32.285   5.553
 9953POPC   PO462916  20.578  32.226   5.853
 9953POPC   GL162917  20.588  32.215   6.153
 9953POPC   GL262918  20.530  32.263   6.153
 9953POPC   C1A62919  20.617  32.220   6.453
 9953POPC   D2A62920  20.638  32.267   6.753
 9953POPC   C3A62921  20.561  32.215   7.053
 9953POPC   C4A62922  20.649  32.292   7.353
 9953POPC   C1B62923  20.361  32.361   6.453
 9953POPC   C2B62924  20.335  32.304   6.753
 9953POPC   C3B62925  20.346  32.391   7.053
 9953POPC   C4B62926  20.404  32.371   7.353
 9954POPC   NC362927  36.085  11.275   5.553
 9954POPC   PO462928  36.098  11.276   5.853
 9954POPC   GL162929  36.168  11.313   6.153
 9954POPC   GL262930  36.228  11.351   6.153
 9954POPC   C1A62931  36.146  11.314   6.453
 9954POPC   D2A62932  36.142  11.290   6.753
 9954POPC   C3A62933  36.103  11.278   7.053
 9954POPC   C4A62934  36.154  11.325   7.353
 9954POPC   C1B62935  36.412  11.314   6.453
 9954POPC   C2B62936  36.357  11.374   6.753
 9954POPC   C3B62937  36.367  11.324   7.053
 9954POPC   C4B62938  36.385  11.372   7.353
 9955POPC   NC362939  15.150  39.964   5.553
 9955POPC   PO462940  15.134  40.007   5.853
 9955POPC   GL162941  15.130  40.034   6.153
 9955POPC   GL262942  15.173  39.907   6.153
 9955POPC   C1A62943  15.156  39.958   6.453
 9955POPC   D2A62944  15.156  40.020   6.753
 9955POPC   C3A62945  15.187  40.047   7.053
 9955POPC   C4A62946  15.169  40.041   7.353
 9955POPC   C1B62947  15.097  39.763   6.453
 9955POPC   C2B62948  15.072  39.818   6.753
 9955POPC   C3B62949  15.145  39.781   7.053
 9955POPC   C4B62950  15.117  39.748   7.353
 9956POPC   NC362951   8.169  20.615   5.553
 9956POPC   PO462952   8.195  20.634   5.853
 9956POPC   GL162953   8.233  20.646   6.153
 9956POPC   GL262954   8.306  20.608   6.153
 9956POPC   C1A62955   8.215  20.582   6.453
 9956POPC   D2A62956   8.194  20.612   6.753
 9956POPC   C3A62957   8.209  20.619   7.053
 9956POPC   C4A62958   8.190  20.641   7.353
 9956POPC   C1B62959   8.482  20.574   6.453
 9956POPC   C2B62960   8.414  20.504   6.753
 9956POPC   C3B62961   8.475  20.579   7.053
 9956POPC   C4B62962   8.447  20.555   7.353
 9957POPC   NC362963  11.319  41.606   5.553
 9957POPC   PO462964  11.288  41.509   5.853
 9957POPC   GL162965  11.340  41.526   6.153
 9957POPC   GL262966  11.379  41.674   6.153
 9957POPC   C1A62967  11.345  41.562   6.453
 9957POPC   D2A62968  11.306  41.594   6.753
 9957POPC   C3A62969  11.307  41.511   7.053
 9957POPC   C4A62970  11.294  41.557   7.353
 9957POPC   C1B62971  11.378  41.822   6.453
 9957POPC   C2B62972  11.337  41.784   6.753
 9957POPC   C3B62973  11.371  41.839   7.053
 9957POPC   C4B62974  11.382  41.766   7.353
 9958POPC   NC362975  25.236  34.620   5.553
 9958POPC   PO462976  25.242  34.543   5.853
 9958POPC   GL162977  25.244  34.598   6.153
 9958POPC   GL262978  25.361  34.601   6.153
 9958POPC   C1A62979  25.297  34.598   6.453
 9958POPC   D2A62980  25.304  34.571   6.753
 9958POPC   C3A62981  25.287  34.538   7.053
 9958POPC   C4A62982  25.255  34.589   7.353
 9958POPC   C1B62983  25.538  34.516   6.453
 9958POPC   C2B62984  25.475  34.540   6.753
 9958POPC   C3B62985  25.481  34.538   7.053
 9958POPC   C4B62986  25.523  34.553   7.353
 9959POPC   NC362987  11.339  19.103   5.553
 9959POPC   PO462988  11.306  19.055   5.853
 9959POPC   GL162989  11.288  19.038   6.153
 9959POPC   GL262990  11.200  18.980   6.153
 9959POPC   C1A62991  11.342  19.093   6.453
 9959POPC   D2A62992  11.299  19.054   6.753
 9959POPC   C3A62993  11.270  19.066   7.053
 9959POPC   C4A62994  11.268  19.085   7.353
 9959POPC   C1B62995  11.195  18.866   6.453
 9959POPC   C2B62996  11.144  18.877   6.753
 9959POPC   C3B62997  11.172  18.823   7.053
 9959POPC   C4B62998  11.231  18.870   7.353
 9960POPC   NC362999   8.927   7.465   5.553
 9960POPC   PO463000   8.956   7.435   5.853
 9960POPC   GL163001   8.941   7.468   6.153
 9960POPC   GL263002   8.829   7.322   6.153
 9960POPC   C1A63003   8.933   7.470   6.453
 9960POPC   D2A63004   8.970   7.460   6.753
 9960POPC   C3A63005   9.021   7.387   7.053
 9960POPC   C4A63006   8.983   7.427   7.353
 9960POPC   C1B63007   8.763   7.281   6.453
 9960POPC   C2B63008   8.715   7.326   6.753
 9960POPC   C3B63009   8.758   7.366   7.053
 9960POPC   C4B63010   8.709   7.336   7.353
 9961POPC   NC363011  18.282  13.637   5.553
 9961POPC   PO463012  18.276  13.592   5.853
 9961POPC   GL163013  18.276  13.653   6.153
 9961POPC   GL263014  18.202  13.609   6.153
 9961POPC   C1A63015  18.330  13.608   6.453
 9961POPC   D2A63016  18.290  13.599   6.753
 9961POPC   C3A63017  18.319  13.609   7.053
 9961POPC   C4A63018  18.332  13.630   7.353
 9961POPC   C1B63019  18.081  13.700   6.453
 9961POPC   C2B63020  18.013  13.686   6.753
 9961POPC   C3B63021  18.061  13.699   7.053
 9961POPC   C4B63022  18.056  13.706   7.353
 9962POPC   NC363023  12.840  40.025   5.553
 9962POPC   PO463024  12.870  40.039   5.853
 9962POPC   GL163025  12.807  40.037   6.153
 9962POPC   GL263026  12.971  40.021   6.153
 9962POPC   C1A63027  12.810  39.972   6.453
 9962POPC   D2A63028  12.825  40.053   6.753
 9962POPC   C3A63029  12.868  40.017   7.053
 9962POPC   C4A63030  12.866  40.004   7.353
 9962POPC   C1B63031  13.057  39.994   6.453
 9962POPC   C2B63032  13.126  40.032   6.753
 9962POPC   C3B63033  13.076  40.058   7.053
 9962POPC   C4B63034  13.109  40.031   7.353
 9963POPC   NC363035  30.648   2.735   5.553
 9963POPC   PO463036  30.662   2.795   5.853
 9963POPC   GL163037  30.652   2.720   6.153
 9963POPC   GL263038  30.706   2.688   6.153
 9963POPC   C1A63039  30.665   2.757   6.453
 9963POPC   D2A63040  30.693   2.792   6.753
 9963POPC   C3A63041  30.683   2.719   7.053
 9963POPC   C4A63042  30.691   2.806   7.353
 9963POPC   C1B63043  30.673   2.481   6.453
 9963POPC   C2B63044  30.721   2.525   6.753
 9963POPC   C3B63045  30.716   2.503   7.053
 9963POPC   C4B63046  30.713   2.504   7.353
 9964POPC   NC363047  36.944   8.240   5.553
 9964POPC   PO463048  36.880   8.218   5.853
 9964POPC   GL163049  36.889   8.201   6.153
 9964POPC   GL263050  36.757   8.217   6.153
 9964POPC   C1A63051  36.935   8.173   6.453
 9964POPC   D2A63052  36.893   8.191   6.753
 9964POPC   C3A63053  36.876   8.169   7.053
 9964POPC   C4A63054  36.926   8.184   7.353
 9964POPC   C1B63055  36.692   8.125   6.453
 9964POPC   C2B63056  36.694   8.142   6.753
 9964POPC   C3B63057  36.653   8.168   7.053
 9964POPC   C4B63058  36.686   8.158   7.353
 9965POPC   NC363059  36.172   6.651   5.553
 9965POPC   PO463060  36.168   6.675   5.853
 9965POPC   GL163061  36.154   6.651   6.153
 9965POPC   GL263062  36.241   6.719   6.153
 9965POPC   C1A63063  36.121   6.664   6.453
 9965POPC   D2A63064  36.122   6.621   6.753
 9965POPC   C3A63065  36.102   6.664   7.053
 9965POPC   C4A63066  36.121   6.677   7.353
 9965POPC   C1B63067  36.374   6.736   6.453
 9965POPC   C2B63068  36.359   6.786   6.753
 9965POPC   C3B63069  36.321   6.815   7.053
 9965POPC   C4B63070  36.374   6.734   7.353
 9966POPC   NC363071   1.257  22.170   5.553
 9966POPC   PO463072   1.169  22.206   5.853
 9966POPC   GL163073   1.208  22.148   6.153
 9966POPC   GL263074   1.306  22.234   6.153
 9966POPC   C1A63075   1.194  22.114   6.453
 9966POPC   D2A63076   1.254  22.200   6.753
 9966POPC   C3A63077   1.177  22.141   7.053
 9966POPC   C4A63078   1.175  22.153   7.353
 9966POPC   C1B63079   1.411  22.298   6.453
 9966POPC   C2B63080   1.472  22.319   6.753
 9966POPC   C3B63081   1.436  22.344   7.053
 9966POPC   C4B63082   1.451  22.249   7.353
 9967POPC   NC363083   8.181  33.065   5.553
 9967POPC   PO463084   8.176  33.056   5.853
 9967POPC   GL163085   8.207  33.007   6.153
 9967POPC   GL263086   8.106  33.122   6.153
 9967POPC   C1A63087   8.187  33.069   6.453
 9967POPC   D2A63088   8.197  32.990   6.753
 9967POPC   C3A63089   8.160  33.064   7.053
 9967POPC   C4A63090   8.193  33.012   7.353
 9967POPC   C1B63091   8.101  33.201   6.453
 9967POPC   C2B63092   8.072  33.230   6.753
 9967POPC   C3B63093   8.058  33.216   7.053
 9967POPC   C4B63094   8.110  33.207   7.353
 9968POPC   NC363095  17.550  40.001   5.553
 9968POPC   PO463096  17.539  39.971   5.853
 9968POPC   GL163097  17.521  39.997   6.153
 9968POPC   GL263098  17.387  39.943   6.153
 9968POPC   C1A63099  17.497  40.014   6.453
 9968POPC   D2A63100  17.501  40.025   6.753
 9968POPC   C3A63101  17.485  40.011   7.053
 9968POPC   C4A63102  17.494  40.053   7.353
 9968POPC   C1B63103  17.285  39.910   6.453
 9968POPC   C2B63104  17.313  39.874   6.753
 9968POPC   C3B63105  17.277  39.948   7.053
 9968POPC   C4B63106  17.239  39.889   7.353
 9969POPC   NC363107  29.140  29.127   5.553
 9969POPC   PO463108  29.159  29.141   5.853
 9969POPC   GL163109  29.168  29.192   6.153
 9969POPC   GL263110  29.155  29.221   6.153
 9969POPC   C1A63111  29.191  29.096   6.453
 9969POPC   D2A63112  29.127  29.112   6.753
 9969POPC   C3A63113  29.102  29.106   7.053
 9969POPC   C4A63114  29.171  29.164   7.353
 9969POPC   C1B63115  29.142  29.391   6.453
 9969POPC   C2B63116  29.156  29.412   6.753
 9969POPC   C3B63117  29.094  29.436   7.053
 9969POPC   C4B63118  29.081  29.379   7.353
 9970POPC   NC363119  22.169  29.119   5.553
 9970POPC   PO463120  22.186  29.152   5.853
 9970POPC   GL163121  22.186  29.167   6.153
 9970POPC   GL263122  22.255  29.066   6.153
 9970POPC   C1A63123  22.181  29.113   6.453
 9970POPC   D2A63124  22.200  29.132   6.753
 9970POPC   C3A63125  22.172  29.179   7.053
 9970POPC   C4A63126  22.183  29.181   7.353
 9970POPC   C1B63127  22.391  29.052   6.453
 9970POPC   C2B63128  22.355  29.052   6.753
 9970POPC   C3B63129  22.429  29.031   7.053
 9970POPC   C4B63130  22.411  29.027   7.353
 9971POPC   NC363131   6.653  15.936   5.553
 9971POPC   PO463132   6.682  15.940   5.853
 9971POPC   GL163133   6.601  15.929   6.153
 9971POPC   GL263134   6.570  15.884   6.153
 9971POPC   C1A63135   6.651  15.919   6.453
 9971POPC   D2A63136   6.627  15.926   6.753
 9971POPC   C3A63137   6.602  15.935   7.053
 9971POPC   C4A63138   6.629  15.916   7.353
 9971POPC   C1B63139   6.508  15.708   6.453
 9971POPC   C2B63140   6.500  15.733   6.753
 9971POPC   C3B63141   6.447  15.780   7.053
 9971POPC   C4B63142   6.526  15.754   7.353
 9972POPC   NC363143  17.491   1.992   5.553
 9972POPC   PO463144  17.555   1.998   5.853
 9972POPC   GL163145  17.494   2.030   6.153
 9972POPC   GL263146  17.407   2.040   6.153
 9972POPC   C1A63147  17.524   2.028   6.453
 9972POPC   D2A63148  17.460   2.024   6.753
 9972POPC   C3A63149  17.549   1.949   7.053
 9972POPC   C4A63150  17.464   1.987   7.353
 9972POPC   C1B63151  17.346   2.184   6.453
 9972POPC   C2B63152  17.313   2.205   6.753
 9972POPC   C3B63153  17.295   2.187   7.053
 9972POPC   C4B63154  17.360   2.135   7.353
 9973POPC   NC363155   2.028   9.705   5.553
 9973POPC   PO463156   1.997   9.749   5.853
 9973POPC   GL163157   1.972   9.743   6.153
 9973POPC   GL263158   2.083   9.824   6.153
 9973POPC   C1A63159   1.964   9.701   6.453
 9973POPC   D2A63160   1.982   9.757   6.753
 9973POPC   C3A63161   2.020   9.779   7.053
 9973POPC   C4A63162   2.033   9.705   7.353
 9973POPC   C1B63163   2.189   9.962   6.453
 9973POPC   C2B63164   2.195   9.926   6.753
 9973POPC   C3B63165   2.179   9.931   7.053
 9973POPC   C4B63166   2.176   9.882   7.353
 9974POPC   NC363167  22.904  12.049   5.553
 9974POPC   PO463168  22.987  12.057   5.853
 9974POPC   GL163169  22.898  12.031   6.153
 9974POPC   GL263170  22.918  11.989   6.153
 9974POPC   C1A63171  22.925  12.117   6.453
 9974POPC   D2A63172  22.976  12.107   6.753
 9974POPC   C3A63173  22.915  12.087   7.053
 9974POPC   C4A63174  22.894  12.072   7.353
 9974POPC   C1B63175  22.780  11.875   6.453
 9974POPC   C2B63176  22.789  11.906   6.753
 9974POPC   C3B63177  22.823  11.854   7.053
 9974POPC   C4B63178  22.820  11.866   7.353
 9975POPC   NC363179  17.551   3.583   5.553
 9975POPC   PO463180  17.534   3.519   5.853
 9975POPC   GL163181  17.536   3.588   6.153
 9975POPC   GL263182  17.412   3.612   6.153
 9975POPC   C1A63183  17.464   3.502   6.453
 9975POPC   D2A63184  17.525   3.559   6.753
 9975POPC   C3A63185  17.472   3.522   7.053
 9975POPC   C4A63186  17.537   3.546   7.353
 9975POPC   C1B63187  17.266   3.637   6.453
 9975POPC   C2B63188  17.251   3.614   6.753
 9975POPC   C3B63189  17.256   3.571   7.053
 9975POPC   C4B63190  17.277   3.605   7.353
 9976POPC   NC363191  12.899  24.484   5.553
 9976POPC   PO463192  12.885  24.461   5.853
 9976POPC   GL163193  12.899  24.536   6.153
 9976POPC   GL263194  12.956  24.517   6.153
 9976POPC   C1A63195  12.850  24.517   6.453
 9976POPC   D2A63196  12.812  24.520   6.753
 9976POPC   C3A63197  12.889  24.476   7.053
 9976POPC   C4A63198  12.886  24.482   7.353
 9976POPC   C1B63199  13.109  24.566   6.453
 9976POPC   C2B63200  13.130  24.561   6.753
 9976POPC   C3B63201  13.055  24.511   7.053
 9976POPC   C4B63202  13.105  24.496   7.353
 9977POPC   NC363203  19.078  12.806   5.553
 9977POPC   PO463204  19.051  12.816   5.853
 9977POPC   GL163205  19.068  12.814   6.153
 9977POPC   GL263206  18.983  12.772   6.153
 9977POPC   C1A63207  19.013  12.853   6.453
 9977POPC   D2A63208  19.067  12.857   6.753
 9977POPC   C3A63209  19.044  12.809   7.053
 9977POPC   C4A63210  19.071  12.872   7.353
 9977POPC   C1B63211  18.957  12.663   6.453
 9977POPC   C2B63212  18.913  12.596   6.753
 9977POPC   C3B63213  18.923  12.632   7.053
 9977POPC   C4B63214  18.929  12.665   7.353
 9978POPC   NC363215  38.487  13.677   5.553
 9978POPC   PO463216  38.435  13.606   5.853
 9978POPC   GL163217  38.422  13.628   6.153
 9978POPC   GL263218  38.376  13.761   6.153
 9978POPC   C1A63219  38.486  13.656   6.453
 9978POPC   D2A63220  38.462  13.585   6.753
 9978POPC   C3A63221  38.451  13.596   7.053
 9978POPC   C4A63222  38.504  13.591   7.353
 9978POPC   C1B63223  38.309  13.832   6.453
 9978POPC   C2B63224  38.273  13.822   6.753
 9978POPC   C3B63225  38.295  13.802   7.053
 9978POPC   C4B63226  38.269  13.854   7.353
 9979POPC   NC363227  11.317   4.314   5.553
 9979POPC   PO463228  11.338   4.295   5.853
 9979POPC   GL163229  11.269   4.336   6.153
 9979POPC   GL263230  11.307   4.190   6.153
 9979POPC   C1A63231  11.300   4.366   6.453
 9979POPC   D2A63232  11.322   4.327   6.753
 9979POPC   C3A63233  11.343   4.317   7.053
 9979POPC   C4A63234  11.273   4.286   7.353
 9979POPC   C1B63235  11.314   4.031   6.453
 9979POPC   C2B63236  11.361   4.050   6.753
 9979POPC   C3B63237  11.336   4.085   7.053
 9979POPC   C4B63238  11.340   4.098   7.353
 9980POPC   NC363239  36.920  22.120   5.553
 9980POPC   PO463240  36.867  22.121   5.853
 9980POPC   GL163241  36.890  22.202   6.153
 9980POPC   GL263242  36.865  22.047   6.153
 9980POPC   C1A63243  36.919  22.210   6.453
 9980POPC   D2A63244  36.910  22.191   6.753
 9980POPC   C3A63245  36.891  22.200   7.053
 9980POPC   C4A63246  36.920  22.187   7.353
 9980POPC   C1B63247  36.871  21.935   6.453
 9980POPC   C2B63248  36.861  21.964   6.753
 9980POPC   C3B63249  36.826  21.946   7.053
 9980POPC   C4B63250  36.843  21.927   7.353
 9981POPC   NC363251  43.083  36.873   5.553
 9981POPC   PO463252  43.150  36.926   5.853
 9981POPC   GL163253  43.112  36.893   6.153
 9981POPC   GL263254  43.000  36.805   6.153
 9981POPC   C1A63255  43.071  36.897   6.453
 9981POPC   D2A63256  43.122  36.928   6.753
 9981POPC   C3A63257  43.094  36.866   7.053
 9981POPC   C4A63258  43.089  36.943   7.353
 9981POPC   C1B63259  42.879  36.724   6.453
 9981POPC   C2B63260  42.941  36.770   6.753
 9981POPC   C3B63261  42.882  36.709   7.053
 9981POPC   C4B63262  42.959  36.733   7.353
 9982POPC   NC363263  40.054  15.916   5.553
 9982POPC   PO463264  40.026  15.928   5.853
 9982POPC   GL163265  39.972  15.983   6.153
 9982POPC   GL263266  39.962  16.028   6.153
 9982POPC   C1A63267  40.016  15.976   6.453
 9982POPC   D2A63268  40.034  15.927   6.753
 9982POPC   C3A63269  39.998  15.926   7.053
 9982POPC   C4A63270  40.055  15.911   7.353
 9982POPC   C1B63271  39.852  16.162   6.453
 9982POPC   C2B63272  39.898  16.170   6.753
 9982POPC   C3B63273  39.898  16.126   7.053
 9982POPC   C4B63274  39.846  16.191   7.353
 9983POPC   NC363275   2.770  26.854   5.553
 9983POPC   PO463276   2.772  26.828   5.853
 9983POPC   GL163277   2.723  26.851   6.153
 9983POPC   GL263278   2.681  26.936   6.153
 9983POPC   C1A63279   2.716  26.769   6.453
 9983POPC   D2A63280   2.774  26.864   6.753
 9983POPC   C3A63281   2.767  26.846   7.053
 9983POPC   C4A63282   2.782  26.828   7.353
 9983POPC   C1B63283   2.625  27.001   6.453
 9983POPC   C2B63284   2.655  26.992   6.753
 9983POPC   C3B63285   2.682  27.079   7.053
 9983POPC   C4B63286   2.595  27.012   7.353
 9984POPC   NC363287  40.739  35.393   5.553
 9984POPC   PO463288  40.790  35.365   5.853
 9984POPC   GL163289  40.744  35.379   6.153
 9984POPC   GL263290  40.683  35.452   6.153
 9984POPC   C1A63291  40.800  35.323   6.453
 9984POPC   D2A63292  40.735  35.335   6.753
 9984POPC   C3A63293  40.745  35.317   7.053
 9984POPC   C4A63294  40.785  35.327   7.353
 9984POPC   C1B63295  40.597  35.505   6.453
 9984POPC   C2B63296  40.552  35.520   6.753
 9984POPC   C3B63297  40.536  35.514   7.053
 9984POPC   C4B63298  40.551  35.506   7.353
 9985POPC   NC363299  16.777   8.939   5.553
 9985POPC   PO463300  16.688   8.968   5.853
 9985POPC   GL163301  16.705   9.017   6.153
 9985POPC   GL263302  16.815   8.901   6.153
 9985POPC   C1A63303  16.781   8.961   6.453
 9985POPC   D2A63304  16.712   8.998   6.753
 9985POPC   C3A63305  16.775   8.924   7.053
 9985POPC   C4A63306  16.758   9.015   7.353
 9985POPC   C1B63307  16.994   8.860   6.453
 9985POPC   C2B63308  16.966   8.866   6.753
 9985POPC   C3B63309  16.995   8.849   7.053
 9985POPC   C4B63310  16.948   8.863   7.353
 9986POPC   NC363311  29.916  36.905   5.553
 9986POPC   PO463312  29.967  36.900   5.853
 9986POPC   GL163313  29.926  36.856   6.153
 9986POPC   GL263314  30.043  36.955   6.153
 9986POPC   C1A63315  29.941  36.906   6.453
 9986POPC   D2A63316  29.969  36.900   6.753
 9986POPC   C3A63317  29.927  36.937   7.053
 9986POPC   C4A63318  29.901  36.871   7.353
 9986POPC   C1B63319  30.115  36.977   6.453
 9986POPC   C2B63320  30.189  37.004   6.753
 9986POPC   C3B63321  30.199  37.003   7.053
 9986POPC   C4B63322  30.153  36.981   7.353
 9987POPC   NC363323  41.562   8.968   5.553
 9987POPC   PO463324  41.571   8.942   5.853
 9987POPC   GL163325  41.526   9.018   6.153
 9987POPC   GL263326  41.394   9.026   6.153
 9987POPC   C1A63327  41.524   8.960   6.453
 9987POPC   D2A63328  41.523   8.986   6.753
 9987POPC   C3A63329  41.597   8.993   7.053
 9987POPC   C4A63330  41.597   8.989   7.353
 9987POPC   C1B63331  41.278   9.049   6.453
 9987POPC   C2B63332  41.326   9.018   6.753
 9987POPC   C3B63333  41.360   8.987   7.053
 9987POPC   C4B63334  41.355   9.028   7.353
 9988POPC   NC363335  16.756  23.677   5.553
 9988POPC   PO463336  16.701  23.720   5.853
 9988POPC   GL163337  16.778  23.720   6.153
 9988POPC   GL263338  16.644  23.742   6.153
 9988POPC   C1A63339  16.770  23.672   6.453
 9988POPC   D2A63340  16.775  23.763   6.753
 9988POPC   C3A63341  16.739  23.716   7.053
 9988POPC   C4A63342  16.763  23.697   7.353
 9988POPC   C1B63343  16.532  23.853   6.453
 9988POPC   C2B63344  16.564  23.891   6.753
 9988POPC   C3B63345  16.549  23.905   7.053
 9988POPC   C4B63346  16.532  23.844   7.353
 9989POPC   NC363347  20.627  30.727   5.553
 9989POPC   PO463348  20.624  30.725   5.853
 9989POPC   GL163349  20.655  30.694   6.153
 9989POPC   GL263350  20.450  30.663   6.153
 9989POPC   C1A63351  20.599  30.674   6.453
 9989POPC   D2A63352  20.616  30.700   6.753
 9989POPC   C3A63353  20.589  30.672   7.053
 9989POPC   C4A63354  20.580  30.712   7.353
 9989POPC   C1B63355  20.416  30.627   6.453
 9989POPC   C2B63356  20.342  30.605   6.753
 9989POPC   C3B63357  20.354  30.658   7.053
 9989POPC   C4B63358  20.362  30.599   7.353
 9990POPC   NC363359  43.132  11.312   5.553
 9990POPC   PO463360  43.151  11.252   5.853
 9990POPC   GL163361  43.117  11.338   6.153
 9990POPC   GL263362  43.064  11.429   6.153
 9990POPC   C1A63363  43.138  11.317   6.453
 9990POPC   D2A63364  43.149  11.338   6.753
 9990POPC   C3A63365  43.149  11.279   7.053
 9990POPC   C4A63366  43.134  11.335   7.353
 9990POPC   C1B63367  42.981  11.501   6.453
 9990POPC   C2B63368  42.940  11.464   6.753
 9990POPC   C3B63369  42.963  11.482   7.053
 9990POPC   C4B63370  42.943  11.495   7.353
 9991POPC   NC363371  40.026  12.032   5.553
 9991POPC   PO463372  40.017  12.057   5.853
 9991POPC   GL163373  40.048  12.046   6.153
 9991POPC   GL263374  40.069  12.206   6.153
 9991POPC   C1A63375  40.020  12.045   6.453
 9991POPC   D2A63376  39.996  12.083   6.753
 9991POPC   C3A63377  40.056  12.086   7.053
 9991POPC   C4A63378  40.019  12.123   7.353
 9991POPC   C1B63379  40.162  12.278   6.453
 9991POPC   C2B63380  40.119  12.269   6.753
 9991POPC   C3B63381  40.157  12.300   7.053
 9991POPC   C4B63382  40.117  12.262   7.353
 9992POPC   NC363383  26.814  10.532   5.553
 9992POPC   PO463384  26.784  10.554   5.853
 9992POPC   GL163385  26.805  10.572   6.153
 9992POPC   GL263386  26.872  10.579   6.153
 9992POPC   C1A63387  26.842  10.512   6.453
 9992POPC   D2A63388  26.801  10.510   6.753
 9992POPC   C3A63389  26.856  10.550   7.053
 9992POPC   C4A63390  26.836  10.478   7.353
 9992POPC   C1B63391  27.005  10.701   6.453
 9992POPC   C2B63392  27.056  10.633   6.753
 9992POPC   C3B63393  26.999  10.721   7.053
 9992POPC   C4B63394  27.052  10.708   7.353
 9993POPC   NC363395  20.639  44.682   5.553
 9993POPC   PO463396  20.562  44.654   5.853
 9993POPC   GL163397  20.624  44.629   6.153
 9993POPC   GL263398  20.692  44.712   6.153
 9993POPC   C1A63399  20.574  44.631   6.453
 9993POPC   D2A63400  20.647  44.668   6.753
 9993POPC   C3A63401  20.609  44.620   7.053
 9993POPC   C4A63402  20.644  44.628   7.353
 9993POPC   C1B63403  20.879  44.739   6.453
 9993POPC   C2B63404  20.873  44.713   6.753
 9993POPC   C3B63405  20.813  44.668   7.053
 9993POPC   C4B63406  20.825  44.675   7.353
 9994POPC   NC363407   8.153  39.997   5.553
 9994POPC   PO463408   8.244  40.008   5.853
 9994POPC   GL163409   8.196  39.975   6.153
 9994POPC   GL263410   8.323  40.093   6.153
 9994POPC   C1A63411   8.239  39.984   6.453
 9994POPC   D2A63412   8.174  39.968   6.753
 9994POPC   C3A63413   8.208  39.972   7.053
 9994POPC   C4A63414   8.204  40.042   7.353
 9994POPC   C1B63415   8.357  40.184   6.453
 9994POPC   C2B63416   8.440  40.164   6.753
 9994POPC   C3B63417   8.425  40.116   7.053
 9994POPC   C4B63418   8.433  40.185   7.353
 9995POPC   NC363419  26.854  19.098   5.553
 9995POPC   PO463420  26.800  19.055   5.853
 9995POPC   GL163421  26.796  19.062   6.153
 9995POPC   GL263422  26.725  19.166   6.153
 9995POPC   C1A63423  26.785  19.068   6.453
 9995POPC   D2A63424  26.821  19.011   6.753
 9995POPC   C3A63425  26.829  19.009   7.053
 9995POPC   C4A63426  26.838  19.099   7.353
 9995POPC   C1B63427  26.627  19.196   6.453
 9995POPC   C2B63428  26.593  19.184   6.753
 9995POPC   C3B63429  26.577  19.254   7.053
 9995POPC   C4B63430  26.616  19.186   7.353
 9996POPC   NC363431  31.468   5.139   5.553
 9996POPC   PO463432  31.504   5.088   5.853
 9996POPC   GL163433  31.470   5.105   6.153
 9996POPC   GL263434  31.366   5.158   6.153
 9996POPC   C1A63435  31.481   5.101   6.453
 9996POPC   D2A63436  31.522   5.074   6.753
 9996POPC   C3A63437  31.480   5.128   7.053
 9996POPC   C4A63438  31.495   5.142   7.353
 9996POPC   C1B63439  31.271   5.221   6.453
 9996POPC   C2B63440  31.203   5.161   6.753
 9996POPC   C3B63441  31.247   5.190   7.053
 9996POPC   C4B63442  31.232   5.230   7.353
 9997POPC   NC363443  43.851  24.443   5.553
 9997POPC   PO463444  43.919  24.509   5.853
 9997POPC   GL163445  43.843  24.465   6.153
 9997POPC   GL263446  43.833  24.338   6.153
 9997POPC   C1A63447  43.848  24.534   6.453
 9997POPC   D2A63448  43.895  24.445   6.753
 9997POPC   C3A63449  43.898  24.451   7.053
 9997POPC   C4A63450  43.893  24.491   7.353
 9997POPC   C1B63451  43.773  24.247   6.453
 9997POPC   C2B63452  43.792  24.279   6.753
 9997POPC   C3B63453  43.836  24.275   7.053
 9997POPC   C4B63454  43.848  24.272   7.353
 9998POPC   NC363455   7.435   6.623   5.553
 9998POPC   PO463456   7.441   6.611   5.853
 9998POPC   GL163457   7.419   6.633   6.153
 9998POPC   GL263458   7.506   6.659   6.153
 9998POPC   C1A63459   7.389   6.652   6.453
 9998POPC   D2A63460   7.431   6.630   6.753
 9998POPC   C3A63461   7.440   6.664   7.053
 9998POPC   C4A63462   7.452   6.617   7.353
 9998POPC   C1B63463   7.678   6.694   6.453
 9998POPC   C2B63464   7.688   6.752   6.753
 9998POPC   C3B63465   7.688   6.704   7.053
 9998POPC   C4B63466   7.682   6.767   7.353
 9999POPC   NC363467  33.813  34.552   5.553
 9999POPC   PO463468  33.783  34.565   5.853
 9999POPC   GL163469  33.764  34.591   6.153
 9999POPC   GL263470  33.897  34.648   6.153
 9999POPC   C1A63471  33.812  34.535   6.453
 9999POPC   D2A63472  33.830  34.551   6.753
 9999POPC   C3A63473  33.846  34.616   7.053
 9999POPC   C4A63474  33.838  34.602   7.353
 9999POPC   C1B63475  33.988  34.675   6.453
 9999POPC   C2B63476  34.072  34.638   6.753
 9999POPC   C3B63477  33.992  34.672   7.053
 9999POPC   C4B63478  34.071  34.700   7.353
10000POPC   NC363479   1.988  26.059   5.553
10000POPC   PO463480   1.962  26.003   5.853
10000POPC   GL163481   2.013  26.052   6.153
10000POPC   GL263482   1.906  25.980   6.153
10000POPC   C1A63483   2.026  26.032   6.453
10000POPC   D2A63484   2.014  26.035   6.753
10000POPC   C3A63485   1.950  25.992   7.053
10000POPC   C4A63486   2.010  26.009   7.353
10000POPC   C1B63487   1.900  25.823   6.453
10000POPC   C2B63488   1.834  25.858   6.753
10000POPC   C3B63489   1.859  25.814   7.053
10000POPC   C4B63490   1.881  25.839   7.353
10001POPC   NC363491   6.687  44.645   5.553
10001POPC   PO463492   6.650  44.680   5.853
10001POPC   GL163493   6.651  44.613   6.153
10001POPC   GL263494   6.486  44.684   6.153
10001POPC   C1A63495   6.618  44.674   6.453
10001POPC   D2A63496   6.635  44.648   6.753
10001POPC   C3A63497   6.673  44.696   7.053
10001POPC   C4A63498   6.692  44.625   7.353
10001POPC   C1B63499   6.394  44.685   6.453
10001POPC   C2B63500   6.394  44.765   6.753
10001POPC   C3B63501   6.430  44.683   7.053
10001POPC   C4B63502   6.367  44.722   7.353
10002POPC   NC363503  34.617   8.972   5.553
10002POPC   PO463504  34.537   9.009   5.853
10002POPC   GL163505  34.566   8.983   6.153
10002POPC   GL263506  34.482   9.039   6.153
10002POPC   C1A63507  34.563   8.935   6.453
10002POPC   D2A63508  34.621   8.996   6.753
10002POPC   C3A63509  34.621   9.010   7.053
10002POPC   C4A63510  34.610   8.972   7.353
10002POPC   C1B63511  34.441   9.172   6.453
10002POPC   C2B63512  34.442   9.142   6.753
10002POPC   C3B63513  34.449   9.200   7.053
10002POPC   C4B63514  34.411   9.132   7.353
10003POPC   NC363515   6.661  38.428   5.553
10003POPC   PO463516   6.684  38.475   5.853
10003POPC   GL163517   6.617  38.418   6.153
10003POPC   GL263518   6.642  38.298   6.153
10003POPC   C1A63519   6.651  38.466   6.453
10003POPC   D2A63520   6.663  38.469   6.753
10003POPC   C3A63521   6.617  38.499   7.053
10003POPC   C4A63522   6.643  38.410   7.353
10003POPC   C1B63523   6.738  38.259   6.453
10003POPC   C2B63524   6.698  38.174   6.753
10003POPC   C3B63525   6.716  38.203   7.053
10003POPC   C4B63526   6.781  38.219   7.353
10004POPC   NC363527  43.066  41.574   5.553
10004POPC   PO463528  43.063  41.588   5.853
10004POPC   GL163529  43.128  41.539   6.153
10004POPC   GL263530  42.992  41.450   6.153
10004POPC   C1A63531  43.111  41.551   6.453
10004POPC   D2A63532  43.152  41.545   6.753
10004POPC   C3A63533  43.154  41.550   7.053
10004POPC   C4A63534  43.082  41.529   7.353
10004POPC   C1B63535  42.858  41.432   6.453
10004POPC   C2B63536  42.856  41.470   6.753
10004POPC   C3B63537  42.908  41.430   7.053
10004POPC   C4B63538  42.945  41.452   7.353
10005POPC   NC363539  24.471  13.626   5.553
10005POPC   PO463540  24.464  13.623   5.853
10005POPC   GL163541  24.539  13.612   6.153
10005POPC   GL263542  24.602  13.632   6.153
10005POPC   C1A63543  24.440  13.671   6.453
10005POPC   D2A63544  24.464  13.639   6.753
10005POPC   C3A63545  24.489  13.632   7.053
10005POPC   C4A63546  24.522  13.611   7.353
10005POPC   C1B63547  24.714  13.724   6.453
10005POPC   C2B63548  24.719  13.730   6.753
10005POPC   C3B63549  24.737  13.758   7.053
10005POPC   C4B63550  24.728  13.678   7.353
10006POPC   NC363551   2.027  23.761   5.553
10006POPC   PO463552   1.998  23.727   5.853
10006POPC   GL163553   2.025  23.671   6.153
10006POPC   GL263554   2.050  23.855   6.153
10006POPC   C1A63555   1.970  23.724   6.453
10006POPC   D2A63556   1.965  23.756   6.753
10006POPC   C3A63557   2.038  23.745   7.053
10006POPC   C4A63558   1.979  23.747   7.353
10006POPC   C1B63559   2.176  23.908   6.453
10006POPC   C2B63560   2.146  23.940   6.753
10006POPC   C3B63561   2.173  23.951   7.053
10006POPC   C4B63562   2.089  23.940   7.353
10007POPC   NC363563  38.488   2.722   5.553
10007POPC   PO463564  38.448   2.765   5.853
10007POPC   GL163565  38.470   2.729   6.153
10007POPC   GL263566  38.573   2.689   6.153
10007POPC   C1A63567  38.504   2.728   6.453
10007POPC   D2A63568  38.420   2.720   6.753
10007POPC   C3A63569  38.477   2.722   7.053
10007POPC   C4A63570  38.451   2.751   7.353
10007POPC   C1B63571  38.646   2.656   6.453
10007POPC   C2B63572  38.702   2.660   6.753
10007POPC   C3B63573  38.652   2.689   7.053
10007POPC   C4B63574  38.703   2.691   7.353
10008POPC   NC363575  13.656  27.570   5.553
10008POPC   PO463576  13.653  27.588   5.853
10008POPC   GL163577  13.609  27.617   6.153
10008POPC   GL263578  13.500  27.696   6.153
10008POPC   C1A63579  13.626  27.625   6.453
10008POPC   D2A63580  13.649  27.640   6.753
10008POPC   C3A63581  13.664  27.564   7.053
10008POPC   C4A63582  13.641  27.612   7.353
10008POPC   C1B63583  13.374  27.731   6.453
10008POPC   C2B63584  13.408  27.742   6.753
10008POPC   C3B63585  13.391  27.685   7.053
10008POPC   C4B63586  13.439  27.738   7.353
10009POPC   NC363587  31.480  15.974   5.553
10009POPC   PO463588  31.424  15.992   5.853
10009POPC   GL163589  31.423  15.982   6.153
10009POPC   GL263590  31.539  15.881   6.153
10009POPC   C1A63591  31.435  15.923   6.453
10009POPC   D2A63592  31.475  15.938   6.753
10009POPC   C3A63593  31.496  15.907   7.053
10009POPC   C4A63594  31.438  15.947   7.353
10009POPC   C1B63595  31.662  15.874   6.453
10009POPC   C2B63596  31.673  15.902   6.753
10009POPC   C3B63597  31.745  15.913   7.053
10009POPC   C4B63598  31.657  15.841   7.353
10010POPC   NC363599  36.160  30.707   5.553
10010POPC   PO463600  36.162  30.735   5.853
10010POPC   GL163601  36.092  30.650   6.153
10010POPC   GL263602  36.067  30.666   6.153
10010POPC   C1A63603  36.105  30.675   6.453
10010POPC   D2A63604  36.162  30.723   6.753
10010POPC   C3A63605  36.103  30.667   7.053
10010POPC   C4A63606  36.081  30.680   7.353
10010POPC   C1B63607  35.964  30.561   6.453
10010POPC   C2B63608  35.938  30.523   6.753
10010POPC   C3B63609  35.902  30.510   7.053
10010POPC   C4B63610  35.947  30.502   7.353
10011POPC   NC363611  34.559   8.223   5.553
10011POPC   PO463612  34.532   8.217   5.853
10011POPC   GL163613  34.617   8.160   6.153
10011POPC   GL263614  34.473   8.080   6.153
10011POPC   C1A63615  34.560   8.222   6.453
10011POPC   D2A63616  34.600   8.231   6.753
10011POPC   C3A63617  34.531   8.205   7.053
10011POPC   C4A63618  34.597   8.205   7.353
10011POPC   C1B63619  34.437   8.045   6.453
10011POPC   C2B63620  34.386   7.996   6.753
10011POPC   C3B63621  34.468   7.976   7.053
10011POPC   C4B63622  34.396   8.007   7.353
10012POPC   NC363623  11.254  26.843   5.553
10012POPC   PO463624  11.263  26.830   5.853
10012POPC   GL163625  11.253  26.792   6.153
10012POPC   GL263626  11.267  26.937   6.153
10012POPC   C1A63627  11.315  26.798   6.453
10012POPC   D2A63628  11.276  26.774   6.753
10012POPC   C3A63629  11.321  26.814   7.053
10012POPC   C4A63630  11.252  26.850   7.353
10012POPC   C1B63631  11.321  27.052   6.453
10012POPC   C2B63632  11.314  27.103   6.753
10012POPC   C3B63633  11.239  27.115   7.053
10012POPC   C4B63634  11.297  27.041   7.353
10013POPC   NC363635  26.004  38.450   5.553
10013POPC   PO463636  26.012  38.501   5.853
10013POPC   GL163637  26.078  38.478   6.153
10013POPC   GL263638  25.999  38.375   6.153
10013POPC   C1A63639  26.066  38.429   6.453
10013POPC   D2A63640  26.021  38.498   6.753
10013POPC   C3A63641  26.070  38.406   7.053
10013POPC   C4A63642  26.000  38.409   7.353
10013POPC   C1B63643  25.840  38.313   6.453
10013POPC   C2B63644  25.833  38.230   6.753
10013POPC   C3B63645  25.840  38.224   7.053
10013POPC   C4B63646  25.841  38.317   7.353
10014POPC   NC363647  32.219  22.211   5.553
10014POPC   PO463648  32.285  22.121   5.853
10014POPC   GL163649  32.295  22.148   6.153
10014POPC   GL263650  32.153  22.150   6.153
10014POPC   C1A63651  32.256  22.126   6.453
10014POPC   D2A63652  32.283  22.151   6.753
10014POPC   C3A63653  32.238  22.131   7.053
10014POPC   C4A63654  32.264  22.148   7.353
10014POPC   C1B63655  31.993  22.213   6.453
10014POPC   C2B63656  32.002  22.233   6.753
10014POPC   C3B63657  31.999  22.157   7.053
10014POPC   C4B63658  31.974  22.221   7.353
10015POPC   NC363659  15.219   8.968   5.553
10015POPC   PO463660  15.186   8.951   5.853
10015POPC   GL163661  15.149   8.935   6.153
10015POPC   GL263662  15.307   9.025   6.153
10015POPC   C1A63663  15.166   8.937   6.453
10015POPC   D2A63664  15.189   8.944   6.753
10015POPC   C3A63665  15.143   8.979   7.053
10015POPC   C4A63666  15.199   8.928   7.353
10015POPC   C1B63667  15.417   9.004   6.453
10015POPC   C2B63668  15.376   9.013   6.753
10015POPC   C3B63669  15.379   9.041   7.053
10015POPC   C4B63670  15.427   9.071   7.353
10016POPC   NC363671   8.946   6.661   5.553
10016POPC   PO463672   8.937   6.677   5.853
10016POPC   GL163673   8.976   6.663   6.153
10016POPC   GL263674   8.934   6.501   6.153
10016POPC   C1A63675   8.963   6.671   6.453
10016POPC   D2A63676   8.951   6.656   6.753
10016POPC   C3A63677   8.924   6.629   7.053
10016POPC   C4A63678   8.947   6.614   7.353
10016POPC   C1B63679   8.765   6.495   6.453
10016POPC   C2B63680   8.810   6.432   6.753
10016POPC   C3B63681   8.839   6.421   7.053
10016POPC   C4B63682   8.819   6.443   7.353
10017POPC   NC363683  36.118  44.622   5.553
10017POPC   PO463684  36.133  44.654   5.853
10017POPC   GL163685  36.166  44.684   6.153
10017POPC   GL263686  36.191  44.590   6.153
10017POPC   C1A63687  36.118  44.704   6.453
10017POPC   D2A63688  36.103  44.709   6.753
10017POPC   C3A63689  36.111  44.706   7.053
10017POPC   C4A63690  36.166  44.660   7.353
10017POPC   C1B63691  36.279  44.400   6.453
10017POPC   C2B63692  36.263  44.488   6.753
10017POPC   C3B63693  36.264  44.442   7.053
10017POPC   C4B63694  36.256  44.450   7.353
10018POPC   NC363695  19.045  16.710   5.553
10018POPC   PO463696  19.047  16.695   5.853
10018POPC   GL163697  19.019  16.734   6.153
10018POPC   GL263698  19.063  16.655   6.153
10018POPC   C1A63699  19.048  16.724   6.453
10018POPC   D2A63700  19.054  16.763   6.753
10018POPC   C3A63701  19.068  16.681   7.053
10018POPC   C4A63702  19.099  16.694   7.353
10018POPC   C1B63703  19.083  16.463   6.453
10018POPC   C2B63704  19.061  16.528   6.753
10018POPC   C3B63705  19.118  16.432   7.053
10018POPC   C4B63706  19.105  16.508   7.353
10019POPC   NC363707  19.873  10.534   5.553
10019POPC   PO463708  19.791  10.565   5.853
10019POPC   GL163709  19.820  10.507   6.153
10019POPC   GL263710  19.936  10.436   6.153
10019POPC   C1A63711  19.851  10.507   6.453
10019POPC   D2A63712  19.816  10.516   6.753
10019POPC   C3A63713  19.878  10.562   7.053
10019POPC   C4A63714  19.789  10.524   7.353
10019POPC   C1B63715  20.025  10.304   6.453
10019POPC   C2B63716  19.944  10.289   6.753
10019POPC   C3B63717  19.955  10.285   7.053
10019POPC   C4B63718  19.955  10.309   7.353
10020POPC   NC363719  19.105  19.840   5.553
10020POPC   PO463720  19.014  19.817   5.853
10020POPC   GL163721  19.057  19.868   6.153
10020POPC   GL263722  19.121  19.909   6.153
10020POPC   C1A63723  19.012  19.829   6.453
10020POPC   D2A63724  19.080  19.853   6.753
10020POPC   C3A63725  19.084  19.875   7.053
10020POPC   C4A63726  19.034  19.882   7.353
10020POPC   C1B63727  19.263  20.004   6.453
10020POPC   C2B63728  19.277  19.983   6.753
10020POPC   C3B63729  19.307  20.019   7.053
10020POPC   C4B63730  19.267  19.949   7.353
10021POPC   NC363731   9.005   5.057   5.553
10021POPC   PO463732   8.927   5.085   5.853
10021POPC   GL163733   8.928   5.139   6.153
10021POPC   GL263734   8.999   5.217   6.153
10021POPC   C1A63735   8.972   5.070   6.453
10021POPC   D2A63736   8.987   5.063   6.753
10021POPC   C3A63737   8.973   5.114   7.053
10021POPC   C4A63738   8.932   5.075   7.353
10021POPC   C1B63739   8.942   5.302   6.453
10021POPC   C2B63740   8.964   5.376   6.753
10021POPC   C3B63741   8.945   5.339   7.053
10021POPC   C4B63742   9.005   5.295   7.353
10022POPC   NC363743  10.498  27.567   5.553
10022POPC   PO463744  10.486  27.547   5.853
10022POPC   GL163745  10.509  27.570   6.153
10022POPC   GL263746  10.690  27.663   6.153
10022POPC   C1A63747  10.528  27.632   6.453
10022POPC   D2A63748  10.494  27.628   6.753
10022POPC   C3A63749  10.563  27.559   7.053
10022POPC   C4A63750  10.549  27.566   7.353
10022POPC   C1B63751  10.733  27.685   6.453
10022POPC   C2B63752  10.742  27.660   6.753
10022POPC   C3B63753  10.767  27.639   7.053
10022POPC   C4B63754  10.805  27.646   7.353
10023POPC   NC363755   1.230   0.470   5.553
10023POPC   PO463756   1.223   0.449   5.853
10023POPC   GL163757   1.227   0.419   6.153
10023POPC   GL263758   1.154   0.298   6.153
10023POPC   C1A63759   1.178   0.458   6.453
10023POPC   D2A63760   1.250   0.431   6.753
10023POPC   C3A63761   1.234   0.485   7.053
10023POPC   C4A63762   1.184   0.391   7.353
10023POPC   C1B63763   1.086   0.242   6.453
10023POPC   C2B63764   1.089   0.210   6.753
10023POPC   C3B63765   1.017   0.256   7.053
10023POPC   C4B63766   1.014   0.297   7.353
10024POPC   NC363767  32.257  20.648   5.553
10024POPC   PO463768  32.278  20.600   5.853
10024POPC   GL163769  32.287  20.660   6.153
10024POPC   GL263770  32.158  20.559   6.153
10024POPC   C1A63771  32.255  20.624   6.453
10024POPC   D2A63772  32.221  20.564   6.753
10024POPC   C3A63773  32.255  20.567   7.053
10024POPC   C4A63774  32.214  20.650   7.353
10024POPC   C1B63775  32.042  20.551   6.453
10024POPC   C2B63776  31.970  20.571   6.753
10024POPC   C3B63777  32.046  20.544   7.053
10024POPC   C4B63778  32.001  20.631   7.353
10025POPC   NC363779   5.860  12.044   5.553
10025POPC   PO463780   5.891  12.051   5.853
10025POPC   GL163781   5.890  12.079   6.153
10025POPC   GL263782   5.788  11.958   6.153
10025POPC   C1A63783   5.826  12.102   6.453
10025POPC   D2A63784   5.822  12.081   6.753
10025POPC   C3A63785   5.873  12.122   7.053
10025POPC   C4A63786   5.866  12.089   7.353
10025POPC   C1B63787   5.627  11.931   6.453
10025POPC   C2B63788   5.644  11.913   6.753
10025POPC   C3B63789   5.687  11.893   7.053
10025POPC   C4B63790   5.622  11.907   7.353
10026POPC   NC363791  44.641  13.633   5.553
10026POPC   PO463792  44.645  13.628   5.853
10026POPC   GL163793  44.660  13.587   6.153
10026POPC   GL263794  44.582  13.763   6.153
10026POPC   C1A63795  44.693  13.665   6.453
10026POPC   D2A63796  44.627  13.667   6.753
10026POPC   C3A63797  44.695  13.590   7.053
10026POPC   C4A63798  44.641  13.604   7.353
10026POPC   C1B63799  44.545  13.872   6.453
10026POPC   C2B63800  44.538  13.806   6.753
10026POPC   C3B63801  44.483  13.804   7.053
10026POPC   C4B63802  44.520  13.791   7.353
10027POPC   NC363803   0.423  15.222   5.553
10027POPC   PO463804   0.451  15.154   5.853
10027POPC   GL163805   0.474  15.166   6.153
10027POPC   GL263806   0.323  15.152   6.153
10027POPC   C1A63807   0.396  15.130   6.453
10027POPC   D2A63808   0.441  15.211   6.753
10027POPC   C3A63809   0.458  15.212   7.053
10027POPC   C4A63810   0.403  15.202   7.353
10027POPC   C1B63811   0.158  15.117   6.453
10027POPC   C2B63812   0.200  15.155   6.753
10027POPC   C3B63813   0.233  15.147   7.053
10027POPC   C4B63814   0.149  15.173   7.353
10028POPC   NC363815  24.448  40.792   5.553
10028POPC   PO463816  24.456  40.752   5.853
10028POPC   GL163817  24.459  40.761   6.153
10028POPC   GL263818  24.504  40.674   6.153
10028POPC   C1A63819  24.441  40.754   6.453
10028POPC   D2A63820  24.467  40.791   6.753
10028POPC   C3A63821  24.516  40.812   7.053
10028POPC   C4A63822  24.475  40.782   7.353
10028POPC   C1B63823  24.497  40.565   6.453
10028POPC   C2B63824  24.520  40.508   6.753
10028POPC   C3B63825  24.527  40.582   7.053
10028POPC   C4B63826  24.549  40.584   7.353
10029POPC   NC363827   2.742   3.503   5.553
10029POPC   PO463828   2.758   3.529   5.853
10029POPC   GL163829   2.807   3.501   6.153
10029POPC   GL263830   2.709   3.603   6.153
10029POPC   C1A63831   2.767   3.562   6.453
10029POPC   D2A63832   2.789   3.590   6.753
10029POPC   C3A63833   2.749   3.531   7.053
10029POPC   C4A63834   2.763   3.504   7.353
10029POPC   C1B63835   2.671   3.778   6.453
10029POPC   C2B63836   2.686   3.749   6.753
10029POPC   C3B63837   2.633   3.756   7.053
10029POPC   C4B63838   2.665   3.748   7.353
10030POPC   NC363839  21.337  11.284   5.553
10030POPC   PO463840  21.389  11.287   5.853
10030POPC   GL163841  21.376  11.320   6.153
10030POPC   GL263842  21.348  11.146   6.153
10030POPC   C1A63843  21.352  11.307   6.453
10030POPC   D2A63844  21.414  11.268   6.753
10030POPC   C3A63845  21.402  11.286   7.053
10030POPC   C4A63846  21.360  11.293   7.353
10030POPC   C1B63847  21.323  11.105   6.453
10030POPC   C2B63848  21.266  11.020   6.753
10030POPC   C3B63849  21.326  11.088   7.053
10030POPC   C4B63850  21.287  11.042   7.353
10031POPC   NC363851  42.335  43.874   5.553
10031POPC   PO463852  42.286  43.885   5.853
10031POPC   GL163853  42.333  43.857   6.153
10031POPC   GL263854  42.379  43.750   6.153
10031POPC   C1A63855  42.298  43.843   6.453
10031POPC   D2A63856  42.360  43.933   6.753
10031POPC   C3A63857  42.336  43.904   7.053
10031POPC   C4A63858  42.348  43.873   7.353
10031POPC   C1B63859  42.448  43.604   6.453
10031POPC   C2B63860  42.401  43.596   6.753
10031POPC   C3B63861  42.403  43.614   7.053
10031POPC   C4B63862  42.421  43.669   7.353
10032POPC   NC363863   0.421   5.057   5.553
10032POPC   PO463864   0.438   5.107   5.853
10032POPC   GL163865   0.456   5.094   6.153
10032POPC   GL263866   0.330   5.176   6.153
10032POPC   C1A63867   0.486   5.076   6.453
10032POPC   D2A63868   0.450   5.058   6.753
10032POPC   C3A63869   0.428   5.071   7.053
10032POPC   C4A63870   0.484   5.138   7.353
10032POPC   C1B63871   0.311   5.305   6.453
10032POPC   C2B63872   0.253   5.271   6.753
10032POPC   C3B63873   0.348   5.324   7.053
10032POPC   C4B63874   0.287   5.267   7.353
10033POPC   NC363875  10.553   5.061   5.553
10033POPC   PO463876  10.555   5.095   5.853
10033POPC   GL163877  10.474   5.091   6.153
10033POPC   GL263878  10.417   5.153   6.153
10033POPC   C1A63879  10.547   5.088   6.453
10033POPC   D2A63880  10.563   5.064   6.753
10033POPC   C3A63881  10.499   5.087   7.053
10033POPC   C4A63882  10.485   5.075   7.353
10033POPC   C1B63883  10.321   5.228   6.453
10033POPC   C2B63884  10.348   5.250   6.753
10033POPC   C3B63885  10.305   5.244   7.053
10033POPC   C4B63886  10.319   5.262   7.353
10034POPC   NC363887  38.442  26.847   5.553
10034POPC   PO463888  38.415  26.831   5.853
10034POPC   GL163889  38.479  26.815   6.153
10034POPC   GL263890  38.335  26.795   6.153
10034POPC   C1A63891  38.484  26.775   6.453
10034POPC   D2A63892  38.478  26.866   6.753
10034POPC   C3A63893  38.446  26.824   7.053
10034POPC   C4A63894  38.451  26.770   7.353
10034POPC   C1B63895  38.221  26.639   6.453
10034POPC   C2B63896  38.270  26.670   6.753
10034POPC   C3B63897  38.228  26.651   7.053
10034POPC   C4B63898  38.247  26.685   7.353
10035POPC   NC363899   5.893   9.750   5.553
10035POPC   PO463900   5.900   9.792   5.853
10035POPC   GL163901   5.869   9.711   6.153
10035POPC   GL263902   5.963   9.761   6.153
10035POPC   C1A63903   5.870   9.778   6.453
10035POPC   D2A63904   5.878   9.748   6.753
10035POPC   C3A63905   5.824   9.727   7.053
10035POPC   C4A63906   5.869   9.756   7.353
10035POPC   C1B63907   6.081   9.871   6.453
10035POPC   C2B63908   6.134   9.847   6.753
10035POPC   C3B63909   6.085   9.846   7.053
10035POPC   C4B63910   6.080   9.850   7.353
10036POPC   NC363911   3.564  15.911   5.553
10036POPC   PO463912   3.548  16.000   5.853
10036POPC   GL163913   3.539  15.957   6.153
10036POPC   GL263914   3.391  15.905   6.153
10036POPC   C1A63915   3.504  15.924   6.453
10036POPC   D2A63916   3.545  15.967   6.753
10036POPC   C3A63917   3.538  15.972   7.053
10036POPC   C4A63918   3.510  15.998   7.353
10036POPC   C1B63919   3.269  15.960   6.453
10036POPC   C2B63920   3.290  15.893   6.753
10036POPC   C3B63921   3.287  15.883   7.053
10036POPC   C4B63922   3.338  15.961   7.353
10037POPC   NC363923  24.531   2.744   5.553
10037POPC   PO463924  24.499   2.725   5.853
10037POPC   GL163925  24.533   2.719   6.153
10037POPC   GL263926  24.575   2.758   6.153
10037POPC   C1A63927  24.480   2.811   6.453
10037POPC   D2A63928  24.487   2.807   6.753
10037POPC   C3A63929  24.451   2.767   7.053
10037POPC   C4A63930  24.473   2.754   7.353
10037POPC   C1B63931  24.725   2.707   6.453
10037POPC   C2B63932  24.747   2.656   6.753
10037POPC   C3B63933  24.743   2.644   7.053
10037POPC   C4B63934  24.674   2.682   7.353
10038POPC   NC363935  29.178  25.995   5.553
10038POPC   PO463936  29.169  26.066   5.853
10038POPC   GL163937  29.137  26.049   6.153
10038POPC   GL263938  29.187  25.923   6.153
10038POPC   C1A63939  29.187  26.006   6.453
10038POPC   D2A63940  29.162  26.064   6.753
10038POPC   C3A63941  29.159  26.007   7.053
10038POPC   C4A63942  29.129  26.084   7.353
10038POPC   C1B63943  29.148  25.757   6.453
10038POPC   C2B63944  29.163  25.812   6.753
10038POPC   C3B63945  29.143  25.764   7.053
10038POPC   C4B63946  29.216  25.794   7.353
10039POPC   NC363947  36.113  13.667   5.553
10039POPC   PO463948  36.091  13.660   5.853
10039POPC   GL163949  36.121  13.582   6.153
10039POPC   GL263950  36.235  13.603   6.153
10039POPC   C1A63951  36.158  13.661   6.453
10039POPC   D2A63952  36.139  13.596   6.753
10039POPC   C3A63953  36.142  13.667   7.053
10039POPC   C4A63954  36.153  13.661   7.353
10039POPC   C1B63955  36.374  13.684   6.453
10039POPC   C2B63956  36.383  13.668   6.753
10039POPC   C3B63957  36.335  13.636   7.053
10039POPC   C4B63958  36.382  13.667   7.353
10040POPC   NC363959  43.065  42.293   5.553
10040POPC   PO463960  43.122  42.329   5.853
10040POPC   GL163961  43.115  42.286   6.153
10040POPC   GL263962  43.179  42.412   6.153
10040POPC   C1A63963  43.069  42.353   6.453
10040POPC   D2A63964  43.147  42.292   6.753
10040POPC   C3A63965  43.116  42.372   7.053
10040POPC   C4A63966  43.111  42.303   7.353
10040POPC   C1B63967  43.310  42.495   6.453
10040POPC   C2B63968  43.315  42.481   6.753
10040POPC   C3B63969  43.312  42.481   7.053
10040POPC   C4B63970  43.337  42.426   7.353
10041POPC   NC363971  15.134   3.588   5.553
10041POPC   PO463972  15.169   3.519   5.853
10041POPC   GL163973  15.186   3.493   6.153
10041POPC   GL263974  15.252   3.397   6.153
10041POPC   C1A63975  15.217   3.518   6.453
10041POPC   D2A63976  15.221   3.525   6.753
10041POPC   C3A63977  15.222   3.590   7.053
10041POPC   C4A63978  15.202   3.536   7.353
10041POPC   C1B63979  15.235   3.330   6.453
10041POPC   C2B63980  15.228   3.320   6.753
10041POPC   C3B63981  15.258   3.348   7.053
10041POPC   C4B63982  15.264   3.263   7.353
10042POPC   NC363983  32.233  23.749   5.553
10042POPC   PO463984  32.294  23.701   5.853
10042POPC   GL163985  32.283  23.711   6.153
10042POPC   GL263986  32.179  23.586   6.153
10042POPC   C1A63987  32.239  23.738   6.453
10042POPC   D2A63988  32.256  23.757   6.753
10042POPC   C3A63989  32.201  23.683   7.053
10042POPC   C4A63990  32.247  23.695   7.353
10042POPC   C1B63991  32.165  23.502   6.453
10042POPC   C2B63992  32.202  23.461   6.753
10042POPC   C3B63993  32.196  23.480   7.053
10042POPC   C4B63994  32.150  23.506   7.353
10043POPC   NC363995  33.807  31.456   5.553
10043POPC   PO463996  33.834  31.512   5.853
10043POPC   GL163997  33.786  31.522   6.153
10043POPC   GL263998  33.849  31.514   6.153
10043POPC   C1A63999  33.842  31.519   6.453
10043POPC   D2A64000  33.811  31.520   6.753
10043POPC   C3A64001  33.835  31.464   7.053
10043POPC   C4A64002  33.764  31.465   7.353
10043POPC   C1B64003  33.973  31.628   6.453
10043POPC   C2B64004  34.042  31.645   6.753
10043POPC   C3B64005  34.014  31.635   7.053
10043POPC   C4B64006  33.999  31.637   7.353
10044POPC   NC364007  11.345  33.767   5.553
10044POPC   PO464008  11.303  33.770   5.853
10044POPC   GL164009  11.271  33.829   6.153
10044POPC   GL264010  11.413  33.802   6.153
10044POPC   C1A64011  11.284  33.773   6.453
10044POPC   D2A64012  11.305  33.843   6.753
10044POPC   C3A64013  11.284  33.792   7.053
10044POPC   C4A64014  11.285  33.805   7.353
10044POPC   C1B64015  11.499  33.785   6.453
10044POPC   C2B64016  11.585  33.802   6.753
10044POPC   C3B64017  11.580  33.771   7.053
10044POPC   C4B64018  11.565  33.737   7.353
10045POPC   NC364019  38.421  25.310   5.553
10045POPC   PO464020  38.468  25.264   5.853
10045POPC   GL164021  38.500  25.271   6.153
10045POPC   GL264022  38.336  25.241   6.153
10045POPC   C1A64023  38.484  25.243   6.453
10045POPC   D2A64024  38.439  25.314   6.753
10045POPC   C3A64025  38.449  25.260   7.053
10045POPC   C4A64026  38.429  25.264   7.353
10045POPC   C1B64027  38.259  25.274   6.453
10045POPC   C2B64028  38.162  25.274   6.753
10045POPC   C3B64029  38.181  25.325   7.053
10045POPC   C4B64030  38.205  25.327   7.353
10046POPC   NC364031   0.432  30.708   5.553
10046POPC   PO464032   0.399  30.667   5.853
10046POPC   GL164033   0.453  30.720   6.153
10046POPC   GL264034   0.466  30.767   6.153
10046POPC   C1A64035   0.458  30.712   6.453
10046POPC   D2A64036   0.482  30.737   6.753
10046POPC   C3A64037   0.448  30.676   7.053
10046POPC   C4A64038   0.458  30.699   7.353
10046POPC   C1B64039   0.623  30.890   6.453
10046POPC   C2B64040   0.619  30.870   6.753
10046POPC   C3B64041   0.611  30.902   7.053
10046POPC   C4B64042   0.612  30.904   7.353
10047POPC   NC364043  17.476  11.312   5.553
10047POPC   PO464044  17.536  11.317   5.853
10047POPC   GL164045  17.548  11.251   6.153
10047POPC   GL264046  17.421  11.250   6.153
10047POPC   C1A64047  17.504  11.340   6.453
10047POPC   D2A64048  17.518  11.350   6.753
10047POPC   C3A64049  17.465  11.338   7.053
10047POPC   C4A64050  17.460  11.322   7.353
10047POPC   C1B64051  17.313  11.098   6.453
10047POPC   C2B64052  17.293  11.164   6.753
10047POPC   C3B64053  17.329  11.125   7.053
10047POPC   C4B64054  17.375  11.072   7.353
10048POPC   NC364055   3.548  19.815   5.553
10048POPC   PO464056   3.505  19.840   5.853
10048POPC   GL164057   3.527  19.838   6.153
10048POPC   GL264058   3.430  19.952   6.153
10048POPC   C1A64059   3.506  19.831   6.453
10048POPC   D2A64060   3.565  19.864   6.753
10048POPC   C3A64061   3.583  19.856   7.053
10048POPC   C4A64062   3.577  19.795   7.353
10048POPC   C1B64063   3.366  19.998   6.453
10048POPC   C2B64064   3.400  20.060   6.753
10048POPC   C3B64065   3.386  20.006   7.053
10048POPC   C4B64066   3.363  20.033   7.353
10049POPC   NC364067  38.495  35.388   5.553
10049POPC   PO464068  38.458  35.324   5.853
10049POPC   GL164069  38.464  35.374   6.153
10049POPC   GL264070  38.518  35.284   6.153
10049POPC   C1A64071  38.498  35.304   6.453
10049POPC   D2A64072  38.474  35.328   6.753
10049POPC   C3A64073  38.410  35.308   7.053
10049POPC   C4A64074  38.453  35.350   7.353
10049POPC   C1B64075  38.583  35.194   6.453
10049POPC   C2B64076  38.616  35.166   6.753
10049POPC   C3B64077  38.634  35.151   7.053
10049POPC   C4B64078  38.590  35.192   7.353
10050POPC   NC364079  36.857  22.929   5.553
10050POPC   PO464080  36.923  22.932   5.853
10050POPC   GL164081  36.910  22.983   6.153
10050POPC   GL264082  36.896  22.812   6.153
10050POPC   C1A64083  36.948  22.953   6.453
10050POPC   D2A64084  36.898  22.892   6.753
10050POPC   C3A64085  36.879  22.917   7.053
10050POPC   C4A64086  36.940  22.921   7.353
10050POPC   C1B64087  36.855  22.707   6.453
10050POPC   C2B64088  36.824  22.647   6.753
10050POPC   C3B64089  36.861  22.663   7.053
10050POPC   C4B64090  36.819  22.685   7.353
10051POPC   NC364091  17.555  32.291   5.553
10051POPC   PO464092  17.491  32.240   5.853
10051POPC   GL164093  17.529  32.226   6.153
10051POPC   GL264094  17.450  32.409   6.153
10051POPC   C1A64095  17.528  32.214   6.453
10051POPC   D2A64096  17.516  32.216   6.753
10051POPC   C3A64097  17.541  32.249   7.053
10051POPC   C4A64098  17.499  32.288   7.353
10051POPC   C1B64099  17.431  32.430   6.453
10051POPC   C2B64100  17.424  32.500   6.753
10051POPC   C3B64101  17.424  32.429   7.053
10051POPC   C4B64102  17.424  32.482   7.353
10052POPC   NC364103   5.112  24.481   5.553
10052POPC   PO464104   5.131  24.484   5.853
10052POPC   GL164105   5.053  24.512   6.153
10052POPC   GL264106   4.969  24.495   6.153
10052POPC   C1A64107   5.128  24.444   6.453
10052POPC   D2A64108   5.072  24.531   6.753
10052POPC   C3A64109   5.119  24.489   7.053
10052POPC   C4A64110   5.078  24.499   7.353
10052POPC   C1B64111   4.836  24.544   6.453
10052POPC   C2B64112   4.872  24.630   6.753
10052POPC   C3B64113   4.817  24.553   7.053
10052POPC   C4B64114   4.897  24.596   7.353
10053POPC   NC364115  43.069  29.133   5.553
10053POPC   PO464116  43.095  29.110   5.853
10053POPC   GL164117  43.108  29.144   6.153
10053POPC   GL264118  43.042  29.027   6.153
10053POPC   C1A64119  43.136  29.188   6.453
10053POPC   D2A64120  43.107  29.184   6.753
10053POPC   C3A64121  43.074  29.137   7.053
10053POPC   C4A64122  43.088  29.193   7.353
10053POPC   C1B64123  43.077  28.922   6.453
10053POPC   C2B64124  43.083  28.866   6.753
10053POPC   C3B64125  43.073  28.910   7.053
10053POPC   C4B64126  43.075  28.869   7.353
10054POPC   NC364127  21.384  42.364   5.553
10054POPC   PO464128  21.362  42.311   5.853
10054POPC   GL164129  21.366  42.373   6.153
10054POPC   GL264130  21.294  42.322   6.153
10054POPC   C1A64131  21.400  42.382   6.453
10054POPC   D2A64132  21.383  42.285   6.753
10054POPC   C3A64133  21.432  42.357   7.053
10054POPC   C4A64134  21.363  42.286   7.353
10054POPC   C1B64135  21.165  42.244   6.453
10054POPC   C2B64136  21.169  42.230   6.753
10054POPC   C3B64137  21.177  42.191   7.053
10054POPC   C4B64138  21.156  42.248   7.353
10055POPC   NC364139  44.621  20.638   5.553
10055POPC   PO464140  44.687  20.658   5.853
10055POPC   GL164141  44.661  20.626   6.153
10055POPC   GL264142  44.736  20.511   6.153
10055POPC   C1A64143  44.667  20.619   6.453
10055POPC   D2A64144  44.662  20.605   6.753
10055POPC   C3A64145  44.647  20.631   7.053
10055POPC   C4A64146  44.639  20.651   7.353
10055POPC   C1B64147  44.840  20.462   6.453
10055POPC   C2B64148  44.826  20.458   6.753
10055POPC   C3B64149  44.851  20.421   7.053
10055POPC   C4B64150  44.773  20.422   7.353
10056POPC   NC364151  42.384  33.767   5.553
10056POPC   PO464152  42.356  33.841   5.853
10056POPC   GL164153  42.352  33.812   6.153
10056POPC   GL264154  42.226  33.716   6.153
10056POPC   C1A64155  42.311  33.803   6.453
10056POPC   D2A64156  42.362  33.768   6.753
10056POPC   C3A64157  42.363  33.767   7.053
10056POPC   C4A64158  42.361  33.825   7.353
10056POPC   C1B64159  42.091  33.648   6.453
10056POPC   C2B64160  42.067  33.648   6.753
10056POPC   C3B64161  42.096  33.638   7.053
10056POPC   C4B64162  42.074  33.700   7.353
10057POPC   NC364163  13.647   4.298   5.553
10057POPC   PO464164  13.671   4.352   5.853
10057POPC   GL164165  13.630   4.323   6.153
10057POPC   GL264166  13.535   4.353   6.153
10057POPC   C1A64167  13.596   4.352   6.453
10057POPC   D2A64168  13.669   4.294   6.753
10057POPC   C3A64169  13.655   4.337   7.053
10057POPC   C4A64170  13.653   4.355   7.353
10057POPC   C1B64171  13.417   4.336   6.453
10057POPC   C2B64172  13.365   4.344   6.753
10057POPC   C3B64173  13.379   4.306   7.053
10057POPC   C4B64174  13.405   4.289   7.353
10058POPC   NC364175  36.112  31.424   5.553
10058POPC   PO464176  36.123  31.437   5.853
10058POPC   GL164177  36.166  31.491   6.153
10058POPC   GL264178  36.210  31.412   6.153
10058POPC   C1A64179  36.097  31.494   6.453
10058POPC   D2A64180  36.113  31.434   6.753
10058POPC   C3A64181  36.090  31.427   7.053
10058POPC   C4A64182  36.141  31.432   7.353
10058POPC   C1B64183  36.389  31.350   6.453
10058POPC   C2B64184  36.339  31.351   6.753
10058POPC   C3B64185  36.347  31.398   7.053
10058POPC   C4B64186  36.387  31.355   7.353
10059POPC   NC364187  12.034   5.881   5.553
10059POPC   PO464188  12.119   5.846   5.853
10059POPC   GL164189  12.026   5.889   6.153
10059POPC   GL264190  12.022   5.750   6.153
10059POPC   C1A64191  12.090   5.840   6.453
10059POPC   D2A64192  12.031   5.836   6.753
10059POPC   C3A64193  12.109   5.910   7.053
10059POPC   C4A64194  12.086   5.917   7.353
10059POPC   C1B64195  12.007   5.613   6.453
10059POPC   C2B64196  11.980   5.628   6.753
10059POPC   C3B64197  12.034   5.668   7.053
10059POPC   C4B64198  12.016   5.640   7.353
10060POPC   NC364199  27.585  25.227   5.553
10060POPC   PO464200  27.618  25.254   5.853
10060POPC   GL164201  27.637  25.263   6.153
10060POPC   GL264202  27.724  25.189   6.153
10060POPC   C1A64203  27.579  25.280   6.453
10060POPC   D2A64204  27.582  25.301   6.753
10060POPC   C3A64205  27.570  25.263   7.053
10060POPC   C4A64206  27.603  25.298   7.353
10060POPC   C1B64207  27.791  25.215   6.453
10060POPC   C2B64208  27.823  25.214   6.753
10060POPC   C3B64209  27.819  25.165   7.053
10060POPC   C4B64210  27.788  25.190   7.353
10061POPC   NC364211  31.507   9.720   5.553
10061POPC   PO464212  31.488   9.718   5.853
10061POPC   GL164213  31.444   9.737   6.153
10061POPC   GL264214  31.555   9.641   6.153
10061POPC   C1A64215  31.445   9.765   6.453
10061POPC   D2A64216  31.476   9.782   6.753
10061POPC   C3A64217  31.494   9.716   7.053
10061POPC   C4A64218  31.480   9.778   7.353
10061POPC   C1B64219  31.732   9.578   6.453
10061POPC   C2B64220  31.648   9.626   6.753
10061POPC   C3B64221  31.722   9.577   7.053
10061POPC   C4B64222  31.706   9.619   7.353
10062POPC   NC364223  31.455   2.781   5.553
10062POPC   PO464224  31.483   2.791   5.853
10062POPC   GL164225  31.459   2.765   6.153
10062POPC   GL264226  31.398   2.719   6.153
10062POPC   C1A64227  31.496   2.727   6.453
10062POPC   D2A64228  31.451   2.717   6.753
10062POPC   C3A64229  31.510   2.727   7.053
10062POPC   C4A64230  31.451   2.734   7.353
10062POPC   C1B64231  31.296   2.566   6.453
10062POPC   C2B64232  31.299   2.605   6.753
10062POPC   C3B64233  31.251   2.608   7.053
10062POPC   C4B64234  31.259   2.615   7.353
10063POPC   NC364235  19.047  37.685   5.553
10063POPC   PO464236  19.061  37.663   5.853
10063POPC   GL164237  19.039  37.700   6.153
10063POPC   GL264238  19.085  37.845   6.153
10063POPC   C1A64239  19.059  37.656   6.453
10063POPC   D2A64240  19.074  37.719   6.753
10063POPC   C3A64241  19.092  37.686   7.053
10063POPC   C4A64242  19.101  37.669   7.353
10063POPC   C1B64243  19.132  37.954   6.453
10063POPC   C2B64244  19.100  37.952   6.753
10063POPC   C3B64245  19.122  37.891   7.053
10063POPC   C4B64246  19.138  37.946   7.353
10064POPC   NC364247   5.824  36.891   5.553
10064POPC   PO464248   5.829  36.911   5.853
10064POPC   GL164249   5.860  36.875   6.153
10064POPC   GL264250   5.846  37.076   6.153
10064POPC   C1A64251   5.848  36.858   6.453
10064POPC   D2A64252   5.829  36.892   6.753
10064POPC   C3A64253   5.823  36.908   7.053
10064POPC   C4A64254   5.907  36.906   7.353
10064POPC   C1B64255   5.905  37.147   6.453
10064POPC   C2B64256   5.900  37.138   6.753
10064POPC   C3B64257   5.916  37.127   7.053
10064POPC   C4B64258   5.909  37.113   7.353
10065POPC   NC364259   9.783   8.167   5.553
10065POPC   PO464260   9.748   8.162   5.853
10065POPC   GL164261   9.750   8.175   6.153
10065POPC   GL264262   9.755   8.343   6.153
10065POPC   C1A64263   9.782   8.154   6.453
10065POPC   D2A64264   9.740   8.190   6.753
10065POPC   C3A64265   9.797   8.189   7.053
10065POPC   C4A64266   9.796   8.210   7.353
10065POPC   C1B64267   9.739   8.457   6.453
10065POPC   C2B64268   9.690   8.459   6.753
10065POPC   C3B64269   9.726   8.434   7.053
10065POPC   C4B64270   9.703   8.462   7.353
10066POPC   NC364271  29.944  37.698   5.553
10066POPC   PO464272  29.921  37.632   5.853
10066POPC   GL164273  29.901  37.683   6.153
10066POPC   GL264274  30.039  37.571   6.153
10066POPC   C1A64275  29.956  37.715   6.453
10066POPC   D2A64276  29.943  37.693   6.753
10066POPC   C3A64277  29.944  37.659   7.053
10066POPC   C4A64278  29.883  37.647   7.353
10066POPC   C1B64279  30.108  37.563   6.453
10066POPC   C2B64280  30.169  37.510   6.753
10066POPC   C3B64281  30.134  37.585   7.053
10066POPC   C4B64282  30.177  37.535   7.353
10067POPC   NC364283   3.566   5.130   5.553
10067POPC   PO464284   3.533   5.099   5.853
10067POPC   GL164285   3.532   5.051   6.153
10067POPC   GL264286   3.529   4.955   6.153
10067POPC   C1A64287   3.557   5.085   6.453
10067POPC   D2A64288   3.544   5.138   6.753
10067POPC   C3A64289   3.496   5.129   7.053
10067POPC   C4A64290   3.557   5.108   7.353
10067POPC   C1B64291   3.462   4.905   6.453
10067POPC   C2B64292   3.442   4.857   6.753
10067POPC   C3B64293   3.430   4.889   7.053
10067POPC   C4B64294   3.464   4.888   7.353
10068POPC   NC364295  24.500  33.782   5.553
10068POPC   PO464296  24.515  33.815   5.853
10068POPC   GL164297  24.454  33.755   6.153
10068POPC   GL264298  24.473  33.931   6.153
10068POPC   C1A64299  24.469  33.831   6.453
10068POPC   D2A64300  24.516  33.758   6.753
10068POPC   C3A64301  24.477  33.773   7.053
10068POPC   C4A64302  24.537  33.807   7.353
10068POPC   C1B64303  24.506  34.023   6.453
10068POPC   C2B64304  24.505  34.017   6.753
10068POPC   C3B64305  24.454  34.085   7.053
10068POPC   C4B64306  24.422  34.065   7.353
10069POPC   NC364307  19.067  43.851   5.553
10069POPC   PO464308  19.097  43.914   5.853
10069POPC   GL164309  19.009  43.933   6.153
10069POPC   GL264310  19.095  43.734   6.153
10069POPC   C1A64311  19.104  43.931   6.453
10069POPC   D2A64312  19.043  43.927   6.753
10069POPC   C3A64313  19.105  43.875   7.053
10069POPC   C4A64314  19.057  43.912   7.353
10069POPC   C1B64315  19.129  43.668   6.453
10069POPC   C2B64316  19.082  43.663   6.753
10069POPC   C3B64317  19.159  43.613   7.053
10069POPC   C4B64318  19.162  43.683   7.353
10070POPC   NC364319  43.885  39.255   5.553
10070POPC   PO464320  43.848  39.278   5.853
10070POPC   GL164321  43.899  39.230   6.153
10070POPC   GL264322  43.948  39.065   6.153
10070POPC   C1A64323  43.895  39.182   6.453
10070POPC   D2A64324  43.869  39.269   6.753
10070POPC   C3A64325  43.887  39.206   7.053
10070POPC   C4A64326  43.869  39.216   7.353
10070POPC   C1B64327  43.961  38.983   6.453
10070POPC   C2B64328  43.933  38.974   6.753
10070POPC   C3B64329  43.962  38.985   7.053
10070POPC   C4B64330  43.907  38.991   7.353
10071POPC   NC364331  39.987  17.507   5.553
10071POPC   PO464332  40.023  17.497   5.853
10071POPC   GL164333  39.969  17.550   6.153
10071POPC   GL264334  39.934  17.608   6.153
10071POPC   C1A64335  39.994  17.500   6.453
10071POPC   D2A64336  39.990  17.534   6.753
10071POPC   C3A64337  39.986  17.467   7.053
10071POPC   C4A64338  40.003  17.468   7.353
10071POPC   C1B64339  39.856  17.728   6.453
10071POPC   C2B64340  39.845  17.697   6.753
10071POPC   C3B64341  39.875  17.687   7.053
10071POPC   C4B64342  39.907  17.686   7.353
10072POPC   NC364343  33.069  17.486   5.553
10072POPC   PO464344  33.037  17.521   5.853
10072POPC   GL164345  33.014  17.502   6.153
10072POPC   GL264346  32.895  17.464   6.153
10072POPC   C1A64347  32.994  17.468   6.453
10072POPC   D2A64348  33.019  17.531   6.753
10072POPC   C3A64349  32.992  17.520   7.053
10072POPC   C4A64350  33.063  17.542   7.353
10072POPC   C1B64351  32.826  17.410   6.453
10072POPC   C2B64352  32.769  17.420   6.753
10072POPC   C3B64353  32.744  17.439   7.053
10072POPC   C4B64354  32.831  17.392   7.353
10073POPC   NC364355  35.337  20.641   5.553
10073POPC   PO464356  35.368  20.574   5.853
10073POPC   GL164357  35.317  20.617   6.153
10073POPC   GL264358  35.520  20.604   6.153
10073POPC   C1A64359  35.307  20.587   6.453
10073POPC   D2A64360  35.326  20.578   6.753
10073POPC   C3A64361  35.382  20.576   7.053
10073POPC   C4A64362  35.325  20.602   7.353
10073POPC   C1B64363  35.577  20.707   6.453
10073POPC   C2B64364  35.548  20.677   6.753
10073POPC   C3B64365  35.579  20.688   7.053
10073POPC   C4B64366  35.641  20.657   7.353
10074POPC   NC364367  40.764  37.698   5.553
10074POPC   PO464368  40.827  37.633   5.853
10074POPC   GL164369  40.743  37.680   6.153
10074POPC   GL264370  40.618  37.615   6.153
10074POPC   C1A64371  40.817  37.703   6.453
10074POPC   D2A64372  40.798  37.655   6.753
10074POPC   C3A64373  40.751  37.663   7.053
10074POPC   C4A64374  40.733  37.674   7.353
10074POPC   C1B64375  40.520  37.632   6.453
10074POPC   C2B64376  40.492  37.612   6.753
10074POPC   C3B64377  40.524  37.612   7.053
10074POPC   C4B64378  40.536  37.625   7.353
10075POPC   NC364379  12.047  33.848   5.553
10075POPC   PO464380  12.099  33.788   5.853
10075POPC   GL164381  12.101  33.794   6.153
10075POPC   GL264382  11.991  33.834   6.153
10075POPC   C1A64383  12.107  33.840   6.453
10075POPC   D2A64384  12.050  33.830   6.753
10075POPC   C3A64385  12.122  33.840   7.053
10075POPC   C4A64386  12.085  33.847   7.353
10075POPC   C1B64387  11.797  33.800   6.453
10075POPC   C2B64388  11.844  33.774   6.753
10075POPC   C3B64389  11.862  33.822   7.053
10075POPC   C4B64390  11.789  33.782   7.353
10076POPC   NC364391  37.672  36.914   5.553
10076POPC   PO464392  37.720  36.947   5.853
10076POPC   GL164393  37.683  36.855   6.153
10076POPC   GL264394  37.584  36.876   6.153
10076POPC   C1A64395  37.651  36.933   6.453
10076POPC   D2A64396  37.723  36.902   6.753
10076POPC   C3A64397  37.658  36.890   7.053
10076POPC   C4A64398  37.652  36.924   7.353
10076POPC   C1B64399  37.450  36.935   6.453
10076POPC   C2B64400  37.404  36.905   6.753
10076POPC   C3B64401  37.383  36.881   7.053
10076POPC   C4B64402  37.408  36.870   7.353
10077POPC   NC364403   6.658   7.416   5.553
10077POPC   PO464404   6.610   7.463   5.853
10077POPC   GL164405   6.675   7.457   6.153
10077POPC   GL264406   6.642   7.582   6.153
10077POPC   C1A64407   6.623   7.451   6.453
10077POPC   D2A64408   6.634   7.376   6.753
10077POPC   C3A64409   6.641   7.428   7.053
10077POPC   C4A64410   6.676   7.439   7.353
10077POPC   C1B64411   6.650   7.676   6.453
10077POPC   C2B64412   6.640   7.697   6.753
10077POPC   C3B64413   6.580   7.711   7.053
10077POPC   C4B64414   6.630   7.643   7.353
10078POPC   NC364415   1.981  36.857   5.553
10078POPC   PO464416   2.025  36.886   5.853
10078POPC   GL164417   2.000  36.931   6.153
10078POPC   GL264418   2.097  36.924   6.153
10078POPC   C1A64419   2.001  36.948   6.453
10078POPC   D2A64420   2.005  36.920   6.753
10078POPC   C3A64421   2.035  36.900   7.053
10078POPC   C4A64422   1.943  36.861   7.353
10078POPC   C1B64423   2.237  36.969   6.453
10078POPC   C2B64424   2.232  37.015   6.753
10078POPC   C3B64425   2.230  36.952   7.053
10078POPC   C4B64426   2.264  36.971   7.353
10079POPC   NC364427  22.113  39.234   5.553
10079POPC   PO464428  22.134  39.191   5.853
10079POPC   GL164429  22.129  39.226   6.153
10079POPC   GL264430  22.240  39.128   6.153
10079POPC   C1A64431  22.133  39.184   6.453
10079POPC   D2A64432  22.202  39.234   6.753
10079POPC   C3A64433  22.175  39.195   7.053
10079POPC   C4A64434  22.200  39.244   7.353
10079POPC   C1B64435  22.296  39.105   6.453
10079POPC   C2B64436  22.356  39.042   6.753
10079POPC   C3B64437  22.379  39.064   7.053
10079POPC   C4B64438  22.316  39.103   7.353
10080POPC   NC364439  25.240  35.342   5.553
10080POPC   PO464440  25.223  35.344   5.853
10080POPC   GL164441  25.269  35.323   6.153
10080POPC   GL264442  25.331  35.225   6.153
10080POPC   C1A64443  25.263  35.370   6.453
10080POPC   D2A64444  25.258  35.311   6.753
10080POPC   C3A64445  25.270  35.394   7.053
10080POPC   C4A64446  25.222  35.389   7.353
10080POPC   C1B64447  25.354  35.165   6.453
10080POPC   C2B64448  25.379  35.106   6.753
10080POPC   C3B64449  25.344  35.106   7.053
10080POPC   C4B64450  25.314  35.091   7.353
10081POPC   NC364451  16.779  28.365   5.553
10081POPC   PO464452  16.705  28.329   5.853
10081POPC   GL164453  16.752  28.388   6.153
10081POPC   GL264454  16.773  28.536   6.153
10081POPC   C1A64455  16.751  28.355   6.453
10081POPC   D2A64456  16.720  28.362   6.753
10081POPC   C3A64457  16.759  28.408   7.053
10081POPC   C4A64458  16.747  28.415   7.353
10081POPC   C1B64459  16.836  28.610   6.453
10081POPC   C2B64460  16.820  28.572   6.753
10081POPC   C3B64461  16.766  28.607   7.053
10081POPC   C4B64462  16.838  28.641   7.353
10082POPC   NC364463   8.204  26.069   5.553
10082POPC   PO464464   8.221  26.015   5.853
10082POPC   GL164465   8.182  26.065   6.153
10082POPC   GL264466   8.078  25.967   6.153
10082POPC   C1A64467   8.156  26.040   6.453
10082POPC   D2A64468   8.204  25.996   6.753
10082POPC   C3A64469   8.165  26.053   7.053
10082POPC   C4A64470   8.220  26.025   7.353
10082POPC   C1B64471   7.950  25.972   6.453
10082POPC   C2B64472   7.940  25.978   6.753
10082POPC   C3B64473   7.991  25.937   7.053
10082POPC   C4B64474   7.946  25.969   7.353
10083POPC   NC364475  18.262  16.759   5.553
10083POPC   PO464476  18.320  16.703   5.853
10083POPC   GL164477  18.234  16.771   6.153
10083POPC   GL264478  18.177  16.869   6.153
10083POPC   C1A64479  18.315  16.762   6.453
10083POPC   D2A64480  18.245  16.736   6.753
10083POPC   C3A64481  18.317  16.762   7.053
10083POPC   C4A64482  18.311  16.695   7.353
10083POPC   C1B64483  18.178  16.924   6.453
10083POPC   C2B64484  18.182  16.955   6.753
10083POPC   C3B64485  18.163  16.927   7.053
10083POPC   C4B64486  18.107  16.991   7.353
10084POPC   NC364487   2.030   8.168   5.553
10084POPC   PO464488   1.984   8.242   5.853
10084POPC   GL164489   2.009   8.181   6.153
10084POPC   GL264490   2.066   8.275   6.153
10084POPC   C1A64491   1.970   8.184   6.453
10084POPC   D2A64492   1.965   8.231   6.753
10084POPC   C3A64493   2.032   8.151   7.053
10084POPC   C4A64494   1.985   8.163   7.353
10084POPC   C1B64495   2.192   8.335   6.453
10084POPC   C2B64496   2.181   8.366   6.753
10084POPC   C3B64497   2.200   8.284   7.053
10084POPC   C4B64498   2.181   8.279   7.353
10085POPC   NC364499  15.992  36.855   5.553
10085POPC   PO464500  15.932  36.855   5.853
10085POPC   GL164501  15.965  36.870   6.153
10085POPC   GL264502  15.897  36.949   6.153
10085POPC   C1A64503  15.997  36.898   6.453
10085POPC   D2A64504  15.972  36.894   6.753
10085POPC   C3A64505  15.983  36.938   7.053
10085POPC   C4A64506  15.918  36.930   7.353
10085POPC   C1B64507  15.754  37.070   6.453
10085POPC   C2B64508  15.745  37.011   6.753
10085POPC   C3B64509  15.769  37.041   7.053
10085POPC   C4B64510  15.797  37.092   7.353
10086POPC   NC364511   1.191  18.242   5.553
10086POPC   PO464512   1.166  18.268   5.853
10086POPC   GL164513   1.231  18.248   6.153
10086POPC   GL264514   1.068  18.376   6.153
10086POPC   C1A64515   1.218  18.324   6.453
10086POPC   D2A64516   1.229  18.286   6.753
10086POPC   C3A64517   1.215  18.280   7.053
10086POPC   C4A64518   1.178  18.281   7.353
10086POPC   C1B64519   0.938  18.344   6.453
10086POPC   C2B64520   1.021  18.323   6.753
10086POPC   C3B64521   1.017  18.346   7.053
10086POPC   C4B64522   0.942  18.367   7.353
10087POPC   NC364523   5.902   9.001   5.553
10087POPC   PO464524   5.902   8.942   5.853
10087POPC   GL164525   5.821   9.000   6.153
10087POPC   GL264526   5.936   9.082   6.153
10087POPC   C1A64527   5.844   9.002   6.453
10087POPC   D2A64528   5.880   8.932   6.753
10087POPC   C3A64529   5.899   8.979   7.053
10087POPC   C4A64530   5.837   8.930   7.353
10087POPC   C1B64531   5.927   9.204   6.453
10087POPC   C2B64532   5.970   9.178   6.753
10087POPC   C3B64533   5.996   9.193   7.053
10087POPC   C4B64534   6.009   9.170   7.353
10088POPC   NC364535  35.315  34.576   5.553
10088POPC   PO464536  35.385  34.580   5.853
10088POPC   GL164537  35.337  34.605   6.153
10088POPC   GL264538  35.494  34.579   6.153
10088POPC   C1A64539  35.357  34.620   6.453
10088POPC   D2A64540  35.323  34.615   6.753
10088POPC   C3A64541  35.353  34.576   7.053
10088POPC   C4A64542  35.357  34.563   7.353
10088POPC   C1B64543  35.629  34.590   6.453
10088POPC   C2B64544  35.579  34.503   6.753
10088POPC   C3B64545  35.552  34.538   7.053
10088POPC   C4B64546  35.590  34.531   7.353
10089POPC   NC364547  18.236   1.213   5.553
10089POPC   PO464548  18.252   1.165   5.853
10089POPC   GL164549  18.247   1.193   6.153
10089POPC   GL264550  18.150   1.188   6.153
10089POPC   C1A64551  18.318   1.195   6.453
10089POPC   D2A64552  18.304   1.213   6.753
10089POPC   C3A64553  18.241   1.207   7.053
10089POPC   C4A64554  18.242   1.260   7.353
10089POPC   C1B64555  18.051   1.123   6.453
10089POPC   C2B64556  18.030   1.118   6.753
10089POPC   C3B64557  18.044   1.065   7.053
10089POPC   C4B64558  18.076   1.053   7.353
10090POPC   NC364559  30.662  26.054   5.553
10090POPC   PO464560  30.741  26.025   5.853
10090POPC   GL164561  30.716  26.007   6.153
10090POPC   GL264562  30.817  25.952   6.153
10090POPC   C1A64563  30.667  26.066   6.453
10090POPC   D2A64564  30.696  26.035   6.753
10090POPC   C3A64565  30.731  26.050   7.053
10090POPC   C4A64566  30.709  25.994   7.353
10090POPC   C1B64567  30.872  25.816   6.453
10090POPC   C2B64568  30.844  25.810   6.753
10090POPC   C3B64569  30.836  25.838   7.053
10090POPC   C4B64570  30.819  25.892   7.353
10091POPC   NC364571  33.820   3.570   5.553
10091POPC   PO464572  33.805   3.541   5.853
10091POPC   GL164573  33.782   3.517   6.153
10091POPC   GL264574  33.638   3.488   6.153
10091POPC   C1A64575  33.773   3.513   6.453
10091POPC   D2A64576  33.766   3.498   6.753
10091POPC   C3A64577  33.835   3.545   7.053
10091POPC   C4A64578  33.825   3.510   7.353
10091POPC   C1B64579  33.537   3.467   6.453
10091POPC   C2B64580  33.599   3.466   6.753
10091POPC   C3B64581  33.523   3.397   7.053
10091POPC   C4B64582  33.574   3.445   7.353
10092POPC   NC364583  42.291  38.460   5.553
10092POPC   PO464584  42.363  38.426   5.853
10092POPC   GL164585  42.342  38.425   6.153
10092POPC   GL264586  42.411  38.468   6.153
10092POPC   C1A64587  42.365  38.409   6.453
10092POPC   D2A64588  42.365  38.422   6.753
10092POPC   C3A64589  42.324  38.493   7.053
10092POPC   C4A64590  42.377  38.418   7.353
10092POPC   C1B64591  42.554  38.484   6.453
10092POPC   C2B64592  42.560  38.487   6.753
10092POPC   C3B64593  42.615  38.482   7.053
10092POPC   C4B64594  42.536  38.502   7.353
10093POPC   NC364595  29.153   1.979   5.553
10093POPC   PO464596  29.137   1.948   5.853
10093POPC   GL164597  29.161   2.016   6.153
10093POPC   GL264598  28.992   1.987   6.153
10093POPC   C1A64599  29.096   1.958   6.453
10093POPC   D2A64600  29.168   1.963   6.753
10093POPC   C3A64601  29.103   2.036   7.053
10093POPC   C4A64602  29.177   1.955   7.353
10093POPC   C1B64603  28.866   2.004   6.453
10093POPC   C2B64604  28.943   2.040   6.753
10093POPC   C3B64605  28.863   2.034   7.053
10093POPC   C4B64606  28.905   2.067   7.353
10094POPC   NC364607   2.742  12.815   5.553
10094POPC   PO464608   2.716  12.838   5.853
10094POPC   GL164609   2.783  12.806   6.153
10094POPC   GL264610   2.640  12.776   6.153
10094POPC   C1A64611   2.790  12.844   6.453
10094POPC   D2A64612   2.815  12.826   6.753
10094POPC   C3A64613   2.732  12.807   7.053
10094POPC   C4A64614   2.785  12.872   7.353
10094POPC   C1B64615   2.658  12.607   6.453
10094POPC   C2B64616   2.638  12.675   6.753
10094POPC   C3B64617   2.567  12.676   7.053
10094POPC   C4B64618   2.647  12.685   7.353
10095POPC   NC364619  20.594  29.178   5.553
10095POPC   PO464620  20.637  29.168   5.853
10095POPC   GL164621  20.626  29.176   6.153
10095POPC   GL264622  20.499  29.123   6.153
10095POPC   C1A64623  20.649  29.169   6.453
10095POPC   D2A64624  20.634  29.135   6.753
10095POPC   C3A64625  20.659  29.096   7.053
10095POPC   C4A64626  20.649  29.154   7.353
10095POPC   C1B64627  20.389  29.073   6.453
10095POPC   C2B64628  20.351  29.028   6.753
10095POPC   C3B64629  20.364  29.096   7.053
10095POPC   C4B64630  20.338  29.070   7.353
10096POPC   NC364631  17.485  31.431   5.553
10096POPC   PO464632  17.509  31.491   5.853
10096POPC   GL164633  17.467  31.427   6.153
10096POPC   GL264634  17.603  31.478   6.153
10096POPC   C1A64635  17.525  31.494   6.453
10096POPC   D2A64636  17.551  31.453   6.753
10096POPC   C3A64637  17.520  31.468   7.053
10096POPC   C4A64638  17.544  31.462   7.353
10096POPC   C1B64639  17.755  31.526   6.453
10096POPC   C2B64640  17.763  31.533   6.753
10096POPC   C3B64641  17.746  31.520   7.053
10096POPC   C4B64642  17.711  31.587   7.353
10097POPC   NC364643  14.359  38.426   5.553
10097POPC   PO464644  14.402  38.417   5.853
10097POPC   GL164645  14.435  38.461   6.153
10097POPC   GL264646  14.354  38.590   6.153
10097POPC   C1A64647  14.445  38.492   6.453
10097POPC   D2A64648  14.414  38.502   6.753
10097POPC   C3A64649  14.415  38.468   7.053
10097POPC   C4A64650  14.406  38.462   7.353
10097POPC   C1B64651  14.321  38.726   6.453
10097POPC   C2B64652  14.288  38.713   6.753
10097POPC   C3B64653  14.343  38.678   7.053
10097POPC   C4B64654  14.340  38.642   7.353
10098POPC   NC364655  14.355  22.150   5.553
10098POPC   PO464656  14.420  22.119   5.853
10098POPC   GL164657  14.408  22.128   6.153
10098POPC   GL264658  14.462  22.257   6.153
10098POPC   C1A64659  14.425  22.163   6.453
10098POPC   D2A64660  14.444  22.181   6.753
10098POPC   C3A64661  14.431  22.181   7.053
10098POPC   C4A64662  14.411  22.140   7.353
10098POPC   C1B64663  14.493  22.442   6.453
10098POPC   C2B64664  14.506  22.411   6.753
10098POPC   C3B64665  14.512  22.385   7.053
10098POPC   C4B64666  14.481  22.440   7.353
10099POPC   NC364667  32.246   2.763   5.553
10099POPC   PO464668  32.297   2.805   5.853
10099POPC   GL164669  32.275   2.779   6.153
10099POPC   GL264670  32.301   2.898   6.153
10099POPC   C1A64671  32.221   2.765   6.453
10099POPC   D2A64672  32.212   2.757   6.753
10099POPC   C3A64673  32.237   2.717   7.053
10099POPC   C4A64674  32.235   2.781   7.353
10099POPC   C1B64675  32.389   2.961   6.453
10099POPC   C2B64676  32.386   2.942   6.753
10099POPC   C3B64677  32.368   2.993   7.053
10099POPC   C4B64678  32.320   2.988   7.353
10100POPC   NC364679  38.411  43.152   5.553
10100POPC   PO464680  38.504  43.110   5.853
10100POPC   GL164681  38.415  43.106   6.153
10100POPC   GL264682  38.508  43.196   6.153
10100POPC   C1A64683  38.481  43.150   6.453
10100POPC   D2A64684  38.459  43.124   6.753
10100POPC   C3A64685  38.408  43.118   7.053
10100POPC   C4A64686  38.469  43.118   7.353
10100POPC   C1B64687  38.469  43.358   6.453
10100POPC   C2B64688  38.505  43.358   6.753
10100POPC   C3B64689  38.479  43.363   7.053
10100POPC   C4B64690  38.524  43.342   7.353
10101POPC   NC364691  39.959  26.840   5.553
10101POPC   PO464692  40.000  26.803   5.853
10101POPC   GL164693  39.987  26.853   6.153
10101POPC   GL264694  40.116  26.764   6.153
10101POPC   C1A64695  40.002  26.856   6.453
10101POPC   D2A64696  40.002  26.842   6.753
10101POPC   C3A64697  40.038  26.851   7.053
10101POPC   C4A64698  39.993  26.857   7.353
10101POPC   C1B64699  40.283  26.756   6.453
10101POPC   C2B64700  40.205  26.743   6.753
10101POPC   C3B64701  40.214  26.711   7.053
10101POPC   C4B64702  40.273  26.715   7.353
10102POPC   NC364703   2.728   8.935   5.553
10102POPC   PO464704   2.761   8.964   5.853
10102POPC   GL164705   2.785   8.971   6.153
10102POPC   GL264706   2.639   8.942   6.153
10102POPC   C1A64707   2.804   8.946   6.453
10102POPC   D2A64708   2.741   8.996   6.753
10102POPC   C3A64709   2.782   8.929   7.053
10102POPC   C4A64710   2.718   8.938   7.353
10102POPC   C1B64711   2.519   8.929   6.453
10102POPC   C2B64712   2.566   8.927   6.753
10102POPC   C3B64713   2.566   8.890   7.053
10102POPC   C4B64714   2.566   8.936   7.353
10103POPC   NC364715  38.447  37.659   5.553
10103POPC   PO464716  38.423  37.666   5.853
10103POPC   GL164717  38.487  37.714   6.153
10103POPC   GL264718  38.495  37.584   6.153
10103POPC   C1A64719  38.503  37.645   6.453
10103POPC   D2A64720  38.416  37.691   6.753
10103POPC   C3A64721  38.415  37.635   7.053
10103POPC   C4A64722  38.427  37.652   7.353
10103POPC   C1B64723  38.627  37.468   6.453
10103POPC   C2B64724  38.597  37.458   6.753
10103POPC   C3B64725  38.630  37.421   7.053
10103POPC   C4B64726  38.572  37.484   7.353
10104POPC   NC364727   9.736  31.489   5.553
10104POPC   PO464728   9.733  31.465   5.853
10104POPC   GL164729   9.767  31.435   6.153
10104POPC   GL264730   9.726  31.364   6.153
10104POPC   C1A64731   9.743  31.452   6.453
10104POPC   D2A64732   9.754  31.444   6.753
10104POPC   C3A64733   9.734  31.483   7.053
10104POPC   C4A64734   9.782  31.472   7.353
10104POPC   C1B64735   9.696  31.201   6.453
10104POPC   C2B64736   9.624  31.284   6.753
10104POPC   C3B64737   9.676  31.249   7.053
10104POPC   C4B64738   9.691  31.223   7.353
10105POPC   NC364739  38.429  11.311   5.553
10105POPC   PO464740  38.477  11.263   5.853
10105POPC   GL164741  38.498  11.276   6.153
10105POPC   GL264742  38.326  11.326   6.153
10105POPC   C1A64743  38.502  11.312   6.453
10105POPC   D2A64744  38.450  11.287   6.753
10105POPC   C3A64745  38.457  11.266   7.053
10105POPC   C4A64746  38.420  11.276   7.353
10105POPC   C1B64747  38.230  11.405   6.453
10105POPC   C2B64748  38.236  11.336   6.753
10105POPC   C3B64749  38.179  11.326   7.053
10105POPC   C4B64750  38.167  11.316   7.353
10106POPC   NC364751  25.277  11.302   5.553
10106POPC   PO464752  25.298  11.281   5.853
10106POPC   GL164753  25.226  11.337   6.153
10106POPC   GL264754  25.220  11.363   6.153
10106POPC   C1A64755  25.284  11.261   6.453
10106POPC   D2A64756  25.220  11.269   6.753
10106POPC   C3A64757  25.311  11.252   7.053
10106POPC   C4A64758  25.218  11.259   7.353
10106POPC   C1B64759  25.114  11.538   6.453
10106POPC   C2B64760  25.145  11.521   6.753
10106POPC   C3B64761  25.115  11.472   7.053
10106POPC   C4B64762  25.086  11.465   7.353
10107POPC   NC364763  43.936  13.598   5.553
10107POPC   PO464764  43.928  13.585   5.853
10107POPC   GL164765  43.848  13.601   6.153
10107POPC   GL264766  43.864  13.708   6.153
10107POPC   C1A64767  43.922  13.652   6.453
10107POPC   D2A64768  43.924  13.629   6.753
10107POPC   C3A64769  43.865  13.675   7.053
10107POPC   C4A64770  43.876  13.673   7.353
10107POPC   C1B64771  43.852  13.870   6.453
10107POPC   C2B64772  43.941  13.857   6.753
10107POPC   C3B64773  43.860  13.881   7.053
10107POPC   C4B64774  43.864  13.925   7.353
10108POPC   NC364775   8.987  25.289   5.553
10108POPC   PO464776   9.004  25.248   5.853
10108POPC   GL164777   8.975  25.298   6.153
10108POPC   GL264778   8.831  25.208   6.153
10108POPC   C1A64779   8.960  25.304   6.453
10108POPC   D2A64780   8.986  25.314   6.753
10108POPC   C3A64781   9.019  25.235   7.053
10108POPC   C4A64782   8.951  25.297   7.353
10108POPC   C1B64783   8.796  25.143   6.453
10108POPC   C2B64784   8.710  25.102   6.753
10108POPC   C3B64785   8.725  25.136   7.053
10108POPC   C4B64786   8.787  25.134   7.353
10109POPC   NC364787  19.821   7.424   5.553
10109POPC   PO464788  19.862   7.414   5.853
10109POPC   GL164789  19.813   7.381   6.153
10109POPC   GL264790  19.769   7.534   6.153
10109POPC   C1A64791  19.797   7.410   6.453
10109POPC   D2A64792  19.863   7.394   6.753
10109POPC   C3A64793  19.819   7.448   7.053
10109POPC   C4A64794  19.788   7.456   7.353
10109POPC   C1B64795  19.690   7.640   6.453
10109POPC   C2B64796  19.755   7.690   6.753
10109POPC   C3B64797  19.683   7.609   7.053
10109POPC   C4B64798  19.748   7.644   7.353
10110POPC   NC364799  43.150   8.987   5.553
10110POPC   PO464800  43.129   8.966   5.853
10110POPC   GL164801  43.115   8.994   6.153
10110POPC   GL264802  43.171   9.064   6.153
10110POPC   C1A64803  43.158   8.994   6.453
10110POPC   D2A64804  43.109   8.989   6.753
10110POPC   C3A64805  43.062   8.949   7.053
10110POPC   C4A64806  43.063   8.952   7.353
10110POPC   C1B64807  43.226   9.128   6.453
10110POPC   C2B64808  43.271   9.188   6.753
10110POPC   C3B64809  43.234   9.164   7.053
10110POPC   C4B64810  43.251   9.161   7.353
10111POPC   NC364811  36.145  29.949   5.553
10111POPC   PO464812  36.169  29.949   5.853
10111POPC   GL164813  36.126  29.938   6.153
10111POPC   GL264814  36.162  30.083   6.153
10111POPC   C1A64815  36.160  29.964   6.453
10111POPC   D2A64816  36.094  29.961   6.753
10111POPC   C3A64817  36.153  29.953   7.053
10111POPC   C4A64818  36.082  29.964   7.353
10111POPC   C1B64819  36.189  30.171   6.453
10111POPC   C2B64820  36.203  30.183   6.753
10111POPC   C3B64821  36.162  30.154   7.053
10111POPC   C4B64822  36.163  30.167   7.353
10112POPC   NC364823  29.138  33.005   5.553
10112POPC   PO464824  29.182  33.033   5.853
10112POPC   GL164825  29.186  33.071   6.153
10112POPC   GL264826  29.234  33.131   6.153
10112POPC   C1A64827  29.163  33.053   6.453
10112POPC   D2A64828  29.141  33.036   6.753
10112POPC   C3A64829  29.129  32.999   7.053
10112POPC   C4A64830  29.125  33.034   7.353
10112POPC   C1B64831  29.307  33.213   6.453
10112POPC   C2B64832  29.274  33.247   6.753
10112POPC   C3B64833  29.244  33.260   7.053
10112POPC   C4B64834  29.274  33.182   7.353
10113POPC   NC364835  27.597  26.067   5.553
10113POPC   PO464836  27.559  26.026   5.853
10113POPC   GL164837  27.612  26.049   6.153
10113POPC   GL264838  27.693  26.081   6.153
10113POPC   C1A64839  27.593  26.069   6.453
10113POPC   D2A64840  27.557  26.052   6.753
10113POPC   C3A64841  27.576  26.013   7.053
10113POPC   C4A64842  27.591  26.036   7.353
10113POPC   C1B64843  27.817  26.151   6.453
10113POPC   C2B64844  27.772  26.146   6.753
10113POPC   C3B64845  27.841  26.147   7.053
10113POPC   C4B64846  27.806  26.132   7.353
10114POPC   NC364847   8.188  22.156   5.553
10114POPC   PO464848   8.222  22.141   5.853
10114POPC   GL164849   8.221  22.166   6.153
10114POPC   GL264850   8.117  22.096   6.153
10114POPC   C1A64851   8.153  22.136   6.453
10114POPC   D2A64852   8.162  22.134   6.753
10114POPC   C3A64853   8.165  22.163   7.053
10114POPC   C4A64854   8.156  22.172   7.353
10114POPC   C1B64855   8.006  22.071   6.453
10114POPC   C2B64856   7.950  22.016   6.753
10114POPC   C3B64857   7.977  22.031   7.053
10114POPC   C4B64858   7.924  22.029   7.353
10115POPC   NC364859  24.533  41.550   5.553
10115POPC   PO464860  24.488  41.587   5.853
10115POPC   GL164861  24.520  41.556   6.153
10115POPC   GL264862  24.568  41.637   6.153
10115POPC   C1A64863  24.505  41.509   6.453
10115POPC   D2A64864  24.463  41.560   6.753
10115POPC   C3A64865  24.523  41.539   7.053
10115POPC   C4A64866  24.488  41.546   7.353
10115POPC   C1B64867  24.689  41.722   6.453
10115POPC   C2B64868  24.616  41.753   6.753
10115POPC   C3B64869  24.602  41.780   7.053
10115POPC   C4B64870  24.610  41.716   7.353
10116POPC   NC364871   1.179  36.079   5.553
10116POPC   PO464872   1.239  36.133   5.853
10116POPC   GL164873   1.238  36.080   6.153
10116POPC   GL264874   1.152  36.252   6.153
10116POPC   C1A64875   1.251  36.120   6.453
10116POPC   D2A64876   1.191  36.176   6.753
10116POPC   C3A64877   1.190  36.148   7.053
10116POPC   C4A64878   1.207  36.092   7.353
10116POPC   C1B64879   1.074  36.320   6.453
10116POPC   C2B64880   1.021  36.281   6.753
10116POPC   C3B64881   1.102  36.284   7.053
10116POPC   C4B64882   1.061  36.331   7.353
10117POPC   NC364883  33.784  38.475   5.553
10117POPC   PO464884  33.849  38.413   5.853
10117POPC   GL164885  33.828  38.439   6.153
10117POPC   GL264886  33.958  38.518   6.153
10117POPC   C1A64887  33.804  38.474   6.453
10117POPC   D2A64888  33.796  38.475   6.753
10117POPC   C3A64889  33.767  38.438   7.053
10117POPC   C4A64890  33.843  38.469   7.353
10117POPC   C1B64891  33.975  38.565   6.453
10117POPC   C2B64892  34.016  38.616   6.753
10117POPC   C3B64893  34.052  38.617   7.053
10117POPC   C4B64894  34.053  38.621   7.353
10118POPC   NC364895   6.694   5.115   5.553
10118POPC   PO464896   6.638   5.049   5.853
10118POPC   GL164897   6.598   5.138   6.153
10118POPC   GL264898   6.724   5.157   6.153
10118POPC   C1A64899   6.660   5.110   6.453
10118POPC   D2A64900   6.638   5.141   6.753
10118POPC   C3A64901   6.686   5.109   7.053
10118POPC   C4A64902   6.614   5.133   7.353
10118POPC   C1B64903   6.884   5.195   6.453
10118POPC   C2B64904   6.909   5.215   6.753
10118POPC   C3B64905   6.836   5.145   7.053
10118POPC   C4B64906   6.841   5.163   7.353
10119POPC   NC364907   2.018  20.622   5.553
10119POPC   PO464908   1.967  20.659   5.853
10119POPC   GL164909   1.977  20.636   6.153
10119POPC   GL264910   1.953  20.709   6.153
10119POPC   C1A64911   1.961  20.601   6.453
10119POPC   D2A64912   2.039  20.649   6.753
10119POPC   C3A64913   1.984  20.593   7.053
10119POPC   C4A64914   1.984  20.577   7.353
10119POPC   C1B64915   1.885  20.883   6.453
10119POPC   C2B64916   1.860  20.813   6.753
10119POPC   C3B64917   1.921  20.794   7.053
10119POPC   C4B64918   1.876  20.834   7.353
10120POPC   NC364919  24.482  18.240   5.553
10120POPC   PO464920  24.530  18.292   5.853
10120POPC   GL164921  24.469  18.271   6.153
10120POPC   GL264922  24.606  18.295   6.153
10120POPC   C1A64923  24.524  18.234   6.453
10120POPC   D2A64924  24.473  18.269   6.753
10120POPC   C3A64925  24.494  18.280   7.053
10120POPC   C4A64926  24.456  18.239   7.353
10120POPC   C1B64927  24.719  18.389   6.453
10120POPC   C2B64928  24.729  18.381   6.753
10120POPC   C3B64929  24.715  18.361   7.053
10120POPC   C4B64930  24.773  18.352   7.353
10121POPC   NC364931  43.857  43.103   5.553
10121POPC   PO464932  43.876  43.070   5.853
10121POPC   GL164933  43.886  43.080   6.153
10121POPC   GL264934  43.827  43.002   6.153
10121POPC   C1A64935  43.913  43.061   6.453
10121POPC   D2A64936  43.928  43.074   6.753
10121POPC   C3A64937  43.913  43.139   7.053
10121POPC   C4A64938  43.842  43.101   7.353
10121POPC   C1B64939  43.786  42.863   6.453
10121POPC   C2B64940  43.799  42.919   6.753
10121POPC   C3B64941  43.748  42.875   7.053
10121POPC   C4B64942  43.799  42.947   7.353
10122POPC   NC364943   9.796   6.667   5.553
10122POPC   PO464944   9.761   6.636   5.853
10122POPC   GL164945   9.797   6.618   6.153
10122POPC   GL264946   9.735   6.525   6.153
10122POPC   C1A64947   9.752   6.685   6.453
10122POPC   D2A64948   9.733   6.679   6.753
10122POPC   C3A64949   9.763   6.651   7.053
10122POPC   C4A64950   9.734   6.650   7.353
10122POPC   C1B64951   9.653   6.397   6.453
10122POPC   C2B64952   9.681   6.374   6.753
10122POPC   C3B64953   9.622   6.436   7.053
10122POPC   C4B64954   9.583   6.414   7.353
10123POPC   NC364955   2.743  16.704   5.553
10123POPC   PO464956   2.726  16.718   5.853
10123POPC   GL164957   2.722  16.715   6.153
10123POPC   GL264958   2.737  16.604   6.153
10123POPC   C1A64959   2.796  16.689   6.453
10123POPC   D2A64960   2.796  16.758   6.753
10123POPC   C3A64961   2.757  16.682   7.053
10123POPC   C4A64962   2.790  16.716   7.353
10123POPC   C1B64963   2.714  16.448   6.453
10123POPC   C2B64964   2.662  16.515   6.753
10123POPC   C3B64965   2.719  16.468   7.053
10123POPC   C4B64966   2.663  16.535   7.353
10124POPC   NC364967  38.441  20.658   5.553
10124POPC   PO464968  38.421  20.658   5.853
10124POPC   GL164969  38.500  20.597   6.153
10124POPC   GL264970  38.567  20.522   6.153
10124POPC   C1A64971  38.422  20.587   6.453
10124POPC   D2A64972  38.425  20.623   6.753
10124POPC   C3A64973  38.484  20.648   7.053
10124POPC   C4A64974  38.454  20.598   7.353
10124POPC   C1B64975  38.567  20.362   6.453
10124POPC   C2B64976  38.630  20.409   6.753
10124POPC   C3B64977  38.613  20.443   7.053
10124POPC   C4B64978  38.591  20.401   7.353
10125POPC   NC364979   8.216  43.136   5.553
10125POPC   PO464980   8.229  43.120   5.853
10125POPC   GL164981   8.163  43.120   6.153
10125POPC   GL264982   8.118  43.206   6.153
10125POPC   C1A64983   8.208  43.155   6.453
10125POPC   D2A64984   8.236  43.146   6.753
10125POPC   C3A64985   8.164  43.074   7.053
10125POPC   C4A64986   8.203  43.071   7.353
10125POPC   C1B64987   8.108  43.349   6.453
10125POPC   C2B64988   8.087  43.372   6.753
10125POPC   C3B64989   8.054  43.292   7.053
10125POPC   C4B64990   8.134  43.300   7.353
10126POPC   NC364991   8.223   2.038   5.553
10126POPC   PO464992   8.152   1.945   5.853
10126POPC   GL164993   8.185   1.997   6.153
10126POPC   GL264994   8.232   1.858   6.153
10126POPC   C1A64995   8.181   1.977   6.453
10126POPC   D2A64996   8.154   2.012   6.753
10126POPC   C3A64997   8.243   1.958   7.053
10126POPC   C4A64998   8.202   2.029   7.353
10126POPC   C1B64999   8.318   1.725   6.453
10126POPC   C2B65000   8.267   1.713   6.753
10126POPC   C3B65001   8.243   1.771   7.053
10126POPC   C4B65002   8.299   1.762   7.353
10127POPC   NC365003   9.019  35.384   5.553
10127POPC   PO465004   8.986  35.326   5.853
10127POPC   GL165005   8.926  35.305   6.153
10127POPC   GL265006   8.925  35.291   6.153
10127POPC   C1A65007   8.950  35.352   6.453
10127POPC   D2A65008   8.959  35.390   6.753
10127POPC   C3A65009   8.996  35.401   7.053
10127POPC   C4A65010   8.945  35.367   7.353
10127POPC   C1B65011   8.823  35.197   6.453
10127POPC   C2B65012   8.774  35.155   6.753
10127POPC   C3B65013   8.754  35.212   7.053
10127POPC   C4B65014   8.754  35.215   7.353
10128POPC   NC365015  22.900  20.596   5.553
10128POPC   PO465016  22.913  20.624   5.853
10128POPC   GL165017  22.894  20.593   6.153
10128POPC   GL265018  22.896  20.707   6.153
10128POPC   C1A65019  22.976  20.602   6.453
10128POPC   D2A65020  22.943  20.615   6.753
10128POPC   C3A65021  22.968  20.649   7.053
10128POPC   C4A65022  22.956  20.586   7.353
10128POPC   C1B65023  22.867  20.801   6.453
10128POPC   C2B65024  22.811  20.833   6.753
10128POPC   C3B65025  22.810  20.841   7.053
10128POPC   C4B65026  22.871  20.834   7.353
10129POPC   NC365027   8.982  29.937   5.553
10129POPC   PO465028   8.952  29.898   5.853
10129POPC   GL165029   9.006  29.885   6.153
10129POPC   GL265030   8.952  29.769   6.153
10129POPC   C1A65031   8.975  29.883   6.453
10129POPC   D2A65032   8.924  29.971   6.753
10129POPC   C3A65033   9.001  29.945   7.053
10129POPC   C4A65034   8.970  29.895   7.353
10129POPC   C1B65035   8.813  29.748   6.453
10129POPC   C2B65036   8.887  29.661   6.753
10129POPC   C3B65037   8.861  29.741   7.053
10129POPC   C4B65038   8.862  29.724   7.353
10130POPC   NC365039  13.673  30.711   5.553
10130POPC   PO465040  13.580  30.741   5.853
10130POPC   GL165041  13.666  30.671   6.153
10130POPC   GL265042  13.771  30.790   6.153
10130POPC   C1A65043  13.669  30.717   6.453
10130POPC   D2A65044  13.607  30.701   6.753
10130POPC   C3A65045  13.670  30.688   7.053
10130POPC   C4A65046  13.621  30.691   7.353
10130POPC   C1B65047  13.879  30.820   6.453
10130POPC   C2B65048  13.815  30.814   6.753
10130POPC   C3B65049  13.826  30.752   7.053
10130POPC   C4B65050  13.805  30.795   7.353
10131POPC   NC365051  15.996  37.722   5.553
10131POPC   PO465052  15.948  37.648   5.853
10131POPC   GL165053  15.949  37.694   6.153
10131POPC   GL265054  15.845  37.600   6.153
10131POPC   C1A65055  15.922  37.714   6.453
10131POPC   D2A65056  15.933  37.644   6.753
10131POPC   C3A65057  15.981  37.728   7.053
10131POPC   C4A65058  15.905  37.711   7.353
10131POPC   C1B65059  15.795  37.435   6.453
10131POPC   C2B65060  15.809  37.496   6.753
10131POPC   C3B65061  15.777  37.472   7.053
10131POPC   C4B65062  15.795  37.446   7.353
10132POPC   NC365063  19.792  12.117   5.553
10132POPC   PO465064  19.856  12.064   5.853
10132POPC   GL165065  19.804  12.111   6.153
10132POPC   GL265066  19.710  11.951   6.153
10132POPC   C1A65067  19.820  12.096   6.453
10132POPC   D2A65068  19.794  12.030   6.753
10132POPC   C3A65069  19.873  12.106   7.053
10132POPC   C4A65070  19.863  12.120   7.353
10132POPC   C1B65071  19.641  11.881   6.453
10132POPC   C2B65072  19.655  11.939   6.753
10132POPC   C3B65073  19.623  11.906   7.053
10132POPC   C4B65074  19.715  11.915   7.353
10133POPC   NC365075  21.385  43.135   5.553
10133POPC   PO465076  21.364  43.093   5.853
10133POPC   GL165077  21.410  43.145   6.153
10133POPC   GL265078  21.441  43.233   6.153
10133POPC   C1A65079  21.396  43.117   6.453
10133POPC   D2A65080  21.386  43.140   6.753
10133POPC   C3A65081  21.344  43.138   7.053
10133POPC   C4A65082  21.397  43.073   7.353
10133POPC   C1B65083  21.494  43.265   6.453
10133POPC   C2B65084  21.491  43.318   6.753
10133POPC   C3B65085  21.506  43.282   7.053
10133POPC   C4B65086  21.524  43.283   7.353
10134POPC   NC365087  44.696  33.025   5.553
10134POPC   PO465088  44.687  33.074   5.853
10134POPC   GL165089  44.651  32.975   6.153
10134POPC   GL265090  44.568  33.098   6.153
10134POPC   C1A65091  44.643  32.993   6.453
10134POPC   D2A65092  44.704  33.049   6.753
10134POPC   C3A65093  44.695  32.975   7.053
10134POPC   C4A65094  44.702  33.009   7.353
10134POPC   C1B65095  44.396  33.128   6.453
10134POPC   C2B65096  44.409  33.161   6.753
10134POPC   C3B65097  44.399  33.125   7.053
10134POPC   C4B65098  44.463  33.149   7.353
10135POPC   NC365099   5.070  20.632   5.553
10135POPC   PO465100   5.100  20.572   5.853
10135POPC   GL165101   5.058  20.581   6.153
10135POPC   GL265102   4.977  20.627   6.153
10135POPC   C1A65103   5.090  20.644   6.453
10135POPC   D2A65104   5.131  20.573   6.753
10135POPC   C3A65105   5.122  20.619   7.053
10135POPC   C4A65106   5.122  20.604   7.353
10135POPC   C1B65107   4.862  20.768   6.453
10135POPC   C2B65108   4.888  20.749   6.753
10135POPC   C3B65109   4.903  20.686   7.053
10135POPC   C4B65110   4.873  20.751   7.353
10136POPC   NC365111  23.756  26.042   5.553
10136POPC   PO465112  23.745  26.064   5.853
10136POPC   GL165113  23.719  26.071   6.153
10136POPC   GL265114  23.823  26.076   6.153
10136POPC   C1A65115  23.719  26.037   6.453
10136POPC   D2A65116  23.696  25.994   6.753
10136POPC   C3A65117  23.738  26.020   7.053
10136POPC   C4A65118  23.668  26.020   7.353
10136POPC   C1B65119  23.867  26.164   6.453
10136POPC   C2B65120  23.947  26.243   6.753
10136POPC   C3B65121  23.899  26.254   7.053
10136POPC   C4B65122  23.863  26.200   7.353
10137POPC   NC365123  36.952   2.716   5.553
10137POPC   PO465124  36.947   2.815   5.853
10137POPC   GL165125  36.863   2.806   6.153
10137POPC   GL265126  36.802   2.887   6.153
10137POPC   C1A65127  36.858   2.736   6.453
10137POPC   D2A65128  36.883   2.814   6.753
10137POPC   C3A65129  36.930   2.800   7.053
10137POPC   C4A65130  36.900   2.729   7.353
10137POPC   C1B65131  36.742   2.955   6.453
10137POPC   C2B65132  36.748   3.018   6.753
10137POPC   C3B65133  36.745   2.954   7.053
10137POPC   C4B65134  36.770   3.010   7.353
10138POPC   NC365135   3.516   6.647   5.553
10138POPC   PO465136   3.492   6.633   5.853
10138POPC   GL165137   3.520   6.641   6.153
10138POPC   GL265138   3.651   6.650   6.153
10138POPC   C1A65139   3.529   6.652   6.453
10138POPC   D2A65140   3.574   6.667   6.753
10138POPC   C3A65141   3.519   6.665   7.053
10138POPC   C4A65142   3.559   6.662   7.353
10138POPC   C1B65143   3.824   6.675   6.453
10138POPC   C2B65144   3.807   6.685   6.753
10138POPC   C3B65145   3.785   6.621   7.053
10138POPC   C4B65146   3.774   6.650   7.353
10139POPC   NC365147  35.361   6.625   5.553
10139POPC   PO465148  35.353   6.640   5.853
10139POPC   GL165149  35.356   6.688   6.153
10139POPC   GL265150  35.506   6.603   6.153
10139POPC   C1A65151  35.303   6.652   6.453
10139POPC   D2A65152  35.396   6.627   6.753
10139POPC   C3A65153  35.392   6.612   7.053
10139POPC   C4A65154  35.360   6.668   7.353
10139POPC   C1B65155  35.630   6.522   6.453
10139POPC   C2B65156  35.553   6.550   6.753
10139POPC   C3B65157  35.541   6.512   7.053
10139POPC   C4B65158  35.565   6.525   7.353
10140POPC   NC365159  32.991  24.446   5.553
10140POPC   PO465160  32.981  24.477   5.853
10140POPC   GL165161  33.064  24.443   6.153
10140POPC   GL265162  32.897  24.412   6.153
10140POPC   C1A65163  33.066  24.489   6.453
10140POPC   D2A65164  33.058  24.467   6.753
10140POPC   C3A65165  33.009  24.465   7.053
10140POPC   C4A65166  33.001  24.457   7.353
10140POPC   C1B65167  32.764  24.432   6.453
10140POPC   C2B65168  32.745  24.418   6.753
10140POPC   C3B65169  32.787  24.340   7.053
10140POPC   C4B65170  32.760  24.371   7.353
10141POPC   NC365171   7.385   9.005   5.553
10141POPC   PO465172   7.428   8.937   5.853
10141POPC   GL165173   7.412   8.991   6.153
10141POPC   GL265174   7.348   8.860   6.153
10141POPC   C1A65175   7.397   9.022   6.453
10141POPC   D2A65176   7.456   8.940   6.753
10141POPC   C3A65177   7.422   8.986   7.053
10141POPC   C4A65178   7.452   8.986   7.353
10141POPC   C1B65179   7.293   8.758   6.453
10141POPC   C2B65180   7.317   8.773   6.753
10141POPC   C3B65181   7.285   8.767   7.053
10141POPC   C4B65182   7.237   8.786   7.353
10142POPC   NC365183  39.210  24.471   5.553
10142POPC   PO465184  39.236  24.497   5.853
10142POPC   GL165185  39.189  24.489   6.153
10142POPC   GL265186  39.220  24.411   6.153
10142POPC   C1A65187  39.192  24.497   6.453
10142POPC   D2A65188  39.239  24.510   6.753
10142POPC   C3A65189  39.227  24.538   7.053
10142POPC   C4A65190  39.210  24.468   7.353
10142POPC   C1B65191  39.344  24.275   6.453
10142POPC   C2B65192  39.302  24.217   6.753
10142POPC   C3B65193  39.338  24.237   7.053
10142POPC   C4B65194  39.276  24.225   7.353
10143POPC   NC365195   7.420  10.528   5.553
10143POPC   PO465196   7.460  10.506   5.853
10143POPC   GL165197   7.374  10.484   6.153
10143POPC   GL265198   7.323  10.535   6.153
10143POPC   C1A65199   7.375  10.483   6.453
10143POPC   D2A65200   7.463  10.537   6.753
10143POPC   C3A65201   7.470  10.519   7.053
10143POPC   C4A65202   7.395  10.502   7.353
10143POPC   C1B65203   7.198  10.619   6.453
10143POPC   C2B65204   7.216  10.619   6.753
10143POPC   C3B65205   7.191  10.624   7.053
10143POPC   C4B65206   7.225  10.648   7.353
10144POPC   NC365207  32.274   9.733   5.553
10144POPC   PO465208  32.246   9.793   5.853
10144POPC   GL165209  32.247   9.764   6.153
10144POPC   GL265210  32.350   9.691   6.153
10144POPC   C1A65211  32.261   9.746   6.453
10144POPC   D2A65212  32.200   9.738   6.753
10144POPC   C3A65213  32.242   9.707   7.053
10144POPC   C4A65214  32.293   9.730   7.353
10144POPC   C1B65215  32.376   9.508   6.453
10144POPC   C2B65216  32.393   9.506   6.753
10144POPC   C3B65217  32.417   9.535   7.053
10144POPC   C4B65218  32.401   9.507   7.353
10145POPC   NC365219  29.132  43.121   5.553
10145POPC   PO465220  29.179  43.083   5.853
10145POPC   GL165221  29.123  43.119   6.153
10145POPC   GL265222  29.139  42.947   6.153
10145POPC   C1A65223  29.144  43.135   6.453
10145POPC   D2A65224  29.119  43.130   6.753
10145POPC   C3A65225  29.180  43.074   7.053
10145POPC   C4A65226  29.182  43.061   7.353
10145POPC   C1B65227  29.088  42.876   6.453
10145POPC   C2B65228  29.046  42.867   6.753
10145POPC   C3B65229  29.107  42.897   7.053
10145POPC   C4B65230  29.080  42.848   7.353
10146POPC   NC365231  14.411  39.199   5.553
10146POPC   PO465232  14.376  39.202   5.853
10146POPC   GL165233  14.447  39.277   6.153
10146POPC   GL265234  14.485  39.244   6.153
10146POPC   C1A65235  14.389  39.264   6.453
10146POPC   D2A65236  14.419  39.248   6.753
10146POPC   C3A65237  14.398  39.226   7.053
10146POPC   C4A65238  14.409  39.263   7.353
10146POPC   C1B65239  14.676  39.258   6.453
10146POPC   C2B65240  14.685  39.331   6.753
10146POPC   C3B65241  14.597  39.337   7.053
10146POPC   C4B65242  14.619  39.300   7.353
10147POPC   NC365243  32.276  26.059   5.553
10147POPC   PO465244  32.199  26.038   5.853
10147POPC   GL165245  32.253  26.027   6.153
10147POPC   GL265246  32.339  26.101   6.153
10147POPC   C1A65247  32.210  26.039   6.453
10147POPC   D2A65248  32.261  26.002   6.753
10147POPC   C3A65249  32.219  26.089   7.053
10147POPC   C4A65250  32.229  26.070   7.353
10147POPC   C1B65251  32.517  26.137   6.453
10147POPC   C2B65252  32.466  26.132   6.753
10147POPC   C3B65253  32.526  26.138   7.053
10147POPC   C4B65254  32.441  26.094   7.353
10148POPC   NC365255  18.285  10.490   5.553
10148POPC   PO465256  18.266  10.510   5.853
10148POPC   GL165257  18.286  10.476   6.153
10148POPC   GL265258  18.402  10.584   6.153
10148POPC   C1A65259  18.298  10.487   6.453
10148POPC   D2A65260  18.282  10.534   6.753
10148POPC   C3A65261  18.314  10.504   7.053
10148POPC   C4A65262  18.284  10.486   7.353
10148POPC   C1B65263  18.430  10.683   6.453
10148POPC   C2B65264  18.379  10.775   6.753
10148POPC   C3B65265  18.453  10.698   7.053
10148POPC   C4B65266  18.421  10.762   7.353
10149POPC   NC365267  38.448  44.660   5.553
10149POPC   PO465268  38.475  44.641   5.853
10149POPC   GL165269  38.464  44.662   6.153
10149POPC   GL265270  38.609  44.712   6.153
10149POPC   C1A65271  38.458  44.686   6.453
10149POPC   D2A65272  38.467  44.659   6.753
10149POPC   C3A65273  38.495  44.648   7.053
10149POPC   C4A65274  38.453  44.683   7.353
10149POPC   C1B65275  38.655  44.774   6.453
10149POPC   C2B65276  38.705  44.779   6.753
10149POPC   C3B65277  38.686  44.756   7.053
10149POPC   C4B65278  38.669  44.747   7.353
10150POPC   NC365279  42.372  44.707   5.553
10150POPC   PO465280  42.375  44.636   5.853
10150POPC   GL165281  42.321  44.704   6.153
10150POPC   GL265282  42.416  44.578   6.153
10150POPC   C1A65283  42.350  44.678   6.453
10150POPC   D2A65284  42.292  44.619   6.753
10150POPC   C3A65285  42.375  44.684   7.053
10150POPC   C4A65286  42.343  44.697   7.353
10150POPC   C1B65287  42.427  44.474   6.453
10150POPC   C2B65288  42.429  44.407   6.753
10150POPC   C3B65289  42.466  44.464   7.053
10150POPC   C4B65290  42.410  44.435   7.353
10151POPC   NC365291  24.526   3.539   5.553
10151POPC   PO465292  24.519   3.553   5.853
10151POPC   GL165293  24.472   3.506   6.153
10151POPC   GL265294  24.524   3.418   6.153
10151POPC   C1A65295  24.496   3.505   6.453
10151POPC   D2A65296  24.530   3.588   6.753
10151POPC   C3A65297  24.493   3.579   7.053
10151POPC   C4A65298  24.505   3.552   7.353
10151POPC   C1B65299  24.591   3.299   6.453
10151POPC   C2B65300  24.588   3.332   6.753
10151POPC   C3B65301  24.584   3.346   7.053
10151POPC   C4B65302  24.555   3.317   7.353
10152POPC   NC365303  44.643  11.327   5.553
10152POPC   PO465304  44.624  11.299   5.853
10152POPC   GL165305  44.684  11.319   6.153
10152POPC   GL265306  44.630  11.146   6.153
10152POPC   C1A65307  44.684  11.330   6.453
10152POPC   D2A65308  44.686  11.296   6.753
10152POPC   C3A65309  44.638  11.323   7.053
10152POPC   C4A65310  44.670  11.344   7.353
10152POPC   C1B65311  44.641  11.045   6.453
10152POPC   C2B65312  44.717  11.057   6.753
10152POPC   C3B65313  44.713  11.085   7.053
10152POPC   C4B65314  44.691  11.096   7.353
10153POPC   NC365315  19.821  37.707   5.553
10153POPC   PO465316  19.855  37.684   5.853
10153POPC   GL165317  19.875  37.640   6.153
10153POPC   GL265318  19.924  37.619   6.153
10153POPC   C1A65319  19.881  37.649   6.453
10153POPC   D2A65320  19.796  37.706   6.753
10153POPC   C3A65321  19.834  37.689   7.053
10153POPC   C4A65322  19.837  37.633   7.353
10153POPC   C1B65323  20.038  37.521   6.453
10153POPC   C2B65324  20.043  37.540   6.753
10153POPC   C3B65325  19.978  37.467   7.053
10153POPC   C4B65326  20.051  37.490   7.353
10154POPC   NC365327  28.332  12.842   5.553
10154POPC   PO465328  28.377  12.892   5.853
10154POPC   GL165329  28.323  12.868   6.153
10154POPC   GL265330  28.294  12.997   6.153
10154POPC   C1A65331  28.355  12.887   6.453
10154POPC   D2A65332  28.389  12.855   6.753
10154POPC   C3A65333  28.386  12.873   7.053
10154POPC   C4A65334  28.397  12.814   7.353
10154POPC   C1B65335  28.346  13.103   6.453
10154POPC   C2B65336  28.343  13.044   6.753
10154POPC   C3B65337  28.322  13.055   7.053
10154POPC   C4B65338  28.306  13.114   7.353
10155POPC   NC365339  29.131   1.185   5.553
10155POPC   PO465340  29.114   1.242   5.853
10155POPC   GL165341  29.131   1.230   6.153
10155POPC   GL265342  29.114   1.342   6.153
10155POPC   C1A65343  29.121   1.180   6.453
10155POPC   D2A65344  29.158   1.210   6.753
10155POPC   C3A65345  29.122   1.219   7.053
10155POPC   C4A65346  29.134   1.248   7.353
10155POPC   C1B65347  29.148   1.443   6.453
10155POPC   C2B65348  29.060   1.480   6.753
10155POPC   C3B65349  29.111   1.478   7.053
10155POPC   C4B65350  29.121   1.508   7.353
10156POPC   NC365351  10.525  31.441   5.553
10156POPC   PO465352  10.487  31.427   5.853
10156POPC   GL165353  10.558  31.432   6.153
10156POPC   GL265354  10.461  31.576   6.153
10156POPC   C1A65355  10.517  31.489   6.453
10156POPC   D2A65356  10.487  31.425   6.753
10156POPC   C3A65357  10.539  31.518   7.053
10156POPC   C4A65358  10.475  31.424   7.353
10156POPC   C1B65359  10.322  31.652   6.453
10156POPC   C2B65360  10.325  31.612   6.753
10156POPC   C3B65361  10.336  31.603   7.053
10156POPC   C4B65362  10.388  31.610   7.353
10157POPC   NC365363  13.612  22.127   5.553
10157POPC   PO465364  13.587  22.123   5.853
10157POPC   GL165365  13.625  22.158   6.153
10157POPC   GL265366  13.579  22.305   6.153
10157POPC   C1A65367  13.592  22.133   6.453
10157POPC   D2A65368  13.672  22.171   6.753
10157POPC   C3A65369  13.652  22.190   7.053
10157POPC   C4A65370  13.588  22.173   7.353
10157POPC   C1B65371  13.565  22.403   6.453
10157POPC   C2B65372  13.516  22.413   6.753
10157POPC   C3B65373  13.487  22.406   7.053
10157POPC   C4B65374  13.557  22.354   7.353
10158POPC   NC365375  28.319  11.324   5.553
10158POPC   PO465376  28.323  11.342   5.853
10158POPC   GL165377  28.419  11.318   6.153
10158POPC   GL265378  28.394  11.185   6.153
10158POPC   C1A65379  28.376  11.281   6.453
10158POPC   D2A65380  28.392  11.296   6.753
10158POPC   C3A65381  28.387  11.280   7.053
10158POPC   C4A65382  28.400  11.336   7.353
10158POPC   C1B65383  28.457  11.022   6.453
10158POPC   C2B65384  28.466  11.023   6.753
10158POPC   C3B65385  28.481  11.038   7.053
10158POPC   C4B65386  28.414  11.045   7.353
10159POPC   NC365387  33.817  40.039   5.553
10159POPC   PO465388  33.808  40.025   5.853
10159POPC   GL165389  33.801  40.016   6.153
10159POPC   GL265390  33.943  39.925   6.153
10159POPC   C1A65391  33.788  39.974   6.453
10159POPC   D2A65392  33.755  39.977   6.753
10159POPC   C3A65393  33.850  40.036   7.053
10159POPC   C4A65394  33.839  40.056   7.353
10159POPC   C1B65395  34.045  39.891   6.453
10159POPC   C2B65396  34.042  39.868   6.753
10159POPC   C3B65397  34.011  39.868   7.053
10159POPC   C4B65398  33.994  39.854   7.353
10160POPC   NC365399  32.207  30.653   5.553
10160POPC   PO465400  32.251  30.685   5.853
10160POPC   GL165401  32.282  30.726   6.153
10160POPC   GL265402  32.108  30.646   6.153
10160POPC   C1A65403  32.215  30.743   6.453
10160POPC   D2A65404  32.232  30.735   6.753
10160POPC   C3A65405  32.229  30.712   7.053
10160POPC   C4A65406  32.210  30.710   7.353
10160POPC   C1B65407  31.962  30.668   6.453
10160POPC   C2B65408  32.009  30.648   6.753
10160POPC   C3B65409  32.035  30.651   7.053
10160POPC   C4B65410  32.012  30.629   7.353
10161POPC   NC365411  38.495  30.665   5.553
10161POPC   PO465412  38.439  30.710   5.853
10161POPC   GL165413  38.444  30.649   6.153
10161POPC   GL265414  38.401  30.577   6.153
10161POPC   C1A65415  38.502  30.738   6.453
10161POPC   D2A65416  38.407  30.647   6.753
10161POPC   C3A65417  38.465  30.734   7.053
10161POPC   C4A65418  38.493  30.721   7.353
10161POPC   C1B65419  38.352  30.514   6.453
10161POPC   C2B65420  38.362  30.441   6.753
10161POPC   C3B65421  38.369  30.473   7.053
10161POPC   C4B65422  38.307  30.530   7.353
10162POPC   NC365423  16.706   1.208   5.553
10162POPC   PO465424  16.713   1.255   5.853
10162POPC   GL165425  16.733   1.198   6.153
10162POPC   GL265426  16.770   1.114   6.153
10162POPC   C1A65427  16.685   1.223   6.453
10162POPC   D2A65428  16.757   1.182   6.753
10162POPC   C3A65429  16.707   1.222   7.053
10162POPC   C4A65430  16.734   1.188   7.353
10162POPC   C1B65431  16.910   1.033   6.453
10162POPC   C2B65432  16.928   1.010   6.753
10162POPC   C3B65433  16.888   0.978   7.053
10162POPC   C4B65434  16.868   1.026   7.353
10163POPC   NC365435  42.363  39.241   5.553
10163POPC   PO465436  42.371  39.272   5.853
10163POPC   GL165437  42.360  39.261   6.153
10163POPC   GL265438  42.497  39.235   6.153
10163POPC   C1A65439  42.372  39.251   6.453
10163POPC   D2A65440  42.296  39.205   6.753
10163POPC   C3A65441  42.368  39.264   7.053
10163POPC   C4A65442  42.296  39.216   7.353
10163POPC   C1B65443  42.573  39.247   6.453
10163POPC   C2B65444  42.552  39.309   6.753
10163POPC   C3B65445  42.620  39.315   7.053
10163POPC   C4B65446  42.594  39.311   7.353
10164POPC   NC365447  11.295  43.081   5.553
10164POPC   PO465448  11.265  43.090   5.853
10164POPC   GL165449  11.256  43.150   6.153
10164POPC   GL265450  11.400  43.074   6.153
10164POPC   C1A65451  11.284  43.094   6.453
10164POPC   D2A65452  11.330  43.103   6.753
10164POPC   C3A65453  11.349  43.078   7.053
10164POPC   C4A65454  11.256  43.133   7.353
10164POPC   C1B65455  11.545  42.996   6.453
10164POPC   C2B65456  11.573  43.016   6.753
10164POPC   C3B65457  11.508  42.952   7.053
10164POPC   C4B65458  11.511  43.009   7.353
10165POPC   NC365459  20.577  37.638   5.553
10165POPC   PO465460  20.626  37.700   5.853
10165POPC   GL165461  20.648  37.708   6.153
10165POPC   GL265462  20.500  37.700   6.153
10165POPC   C1A65463  20.579  37.662   6.453
10165POPC   D2A65464  20.600  37.670   6.753
10165POPC   C3A65465  20.602  37.721   7.053
10165POPC   C4A65466  20.627  37.699   7.353
10165POPC   C1B65467  20.347  37.722   6.453
10165POPC   C2B65468  20.355  37.729   6.753
10165POPC   C3B65469  20.362  37.690   7.053
10165POPC   C4B65470  20.325  37.710   7.353
10166POPC   NC365471   7.465  12.844   5.553
10166POPC   PO465472   7.452  12.816   5.853
10166POPC   GL165473   7.434  12.862   6.153
10166POPC   GL265474   7.428  12.983   6.153
10166POPC   C1A65475   7.401  12.899   6.453
10166POPC   D2A65476   7.442  12.852   6.753
10166POPC   C3A65477   7.435  12.870   7.053
10166POPC   C4A65478   7.372  12.870   7.353
10166POPC   C1B65479   7.479  13.058   6.453
10166POPC   C2B65480   7.430  13.075   6.753
10166POPC   C3B65481   7.418  13.064   7.053
10166POPC   C4B65482   7.488  13.052   7.353
10167POPC   NC365483  24.465  15.941   5.553
10167POPC   PO465484  24.508  15.955   5.853
10167POPC   GL165485  24.460  15.963   6.153
10167POPC   GL265486  24.500  16.084   6.153
10167POPC   C1A65487  24.487  15.935   6.453
10167POPC   D2A65488  24.533  16.002   6.753
10167POPC   C3A65489  24.485  15.910   7.053
10167POPC   C4A65490  24.530  15.982   7.353
10167POPC   C1B65491  24.552  16.237   6.453
10167POPC   C2B65492  24.569  16.157   6.753
10167POPC   C3B65493  24.542  16.160   7.053
10167POPC   C4B65494  24.473  16.206   7.353
10168POPC   NC365495   2.027  19.849   5.553
10168POPC   PO465496   1.972  19.797   5.853
10168POPC   GL165497   2.009  19.876   6.153
10168POPC   GL265498   1.933  19.676   6.153
10168POPC   C1A65499   2.033  19.881   6.453
10168POPC   D2A65500   1.957  19.828   6.753
10168POPC   C3A65501   2.017  19.850   7.053
10168POPC   C4A65502   1.953  19.833   7.353
10168POPC   C1B65503   1.939  19.613   6.453
10168POPC   C2B65504   1.904  19.613   6.753
10168POPC   C3B65505   1.890  19.591   7.053
10168POPC   C4B65506   1.882  19.581   7.353
10169POPC   NC365507   4.283  12.078   5.553
10169POPC   PO465508   4.298  12.094   5.853
10169POPC   GL165509   4.329  12.040   6.153
10169POPC   GL265510   4.189  12.027   6.153
10169POPC   C1A65511   4.345  12.073   6.453
10169POPC   D2A65512   4.330  12.070   6.753
10169POPC   C3A65513   4.291  12.030   7.053
10169POPC   C4A65514   4.340  12.101   7.353
10169POPC   C1B65515   4.065  11.958   6.453
10169POPC   C2B65516   4.084  11.961   6.753
10169POPC   C3B65517   4.118  11.909   7.053
10169POPC   C4B65518   4.070  11.905   7.353
10170POPC   NC365519  41.595  32.256   5.553
10170POPC   PO465520  41.584  32.271   5.853
10170POPC   GL165521  41.558  32.290   6.153
10170POPC   GL265522  41.431  32.126   6.153
10170POPC   C1A65523  41.594  32.259   6.453
10170POPC   D2A65524  41.551  32.284   6.753
10170POPC   C3A65525  41.539  32.273   7.053
10170POPC   C4A65526  41.599  32.210   7.353
10170POPC   C1B65527  41.323  32.086   6.453
10170POPC   C2B65528  41.395  32.095   6.753
10170POPC   C3B65529  41.346  32.114   7.053
10170POPC   C4B65530  41.393  32.108   7.353
10171POPC   NC365531  16.731  22.185   5.553
10171POPC   PO465532  16.762  22.147   5.853
10171POPC   GL165533  16.720  22.202   6.153
10171POPC   GL265534  16.787  22.111   6.153
10171POPC   C1A65535  16.704  22.147   6.453
10171POPC   D2A65536  16.710  22.188   6.753
10171POPC   C3A65537  16.685  22.184   7.053
10171POPC   C4A65538  16.766  22.210   7.353
10171POPC   C1B65539  16.909  21.996   6.453
10171POPC   C2B65540  16.973  22.019   6.753
10171POPC   C3B65541  16.958  21.973   7.053
10171POPC   C4B65542  16.908  22.001   7.353
10172POPC   NC365543  12.120  30.666   5.553
10172POPC   PO465544  12.041  30.654   5.853
10172POPC   GL165545  12.113  30.703   6.153
10172POPC   GL265546  12.117  30.536   6.153
10172POPC   C1A65547  12.033  30.659   6.453
10172POPC   D2A65548  12.026  30.682   6.753
10172POPC   C3A65549  12.060  30.713   7.053
10172POPC   C4A65550  12.122  30.678   7.353
10172POPC   C1B65551  12.141  30.494   6.453
10172POPC   C2B65552  12.172  30.470   6.753
10172POPC   C3B65553  12.136  30.458   7.053
10172POPC   C4B65554  12.166  30.422   7.353
10173POPC   NC365555   8.986   1.251   5.553
10173POPC   PO465556   8.941   1.235   5.853
10173POPC   GL165557   9.022   1.202   6.153
10173POPC   GL265558   9.101   1.308   6.153
10173POPC   C1A65559   8.932   1.228   6.453
10173POPC   D2A65560   9.008   1.206   6.753
10173POPC   C3A65561   8.949   1.215   7.053
10173POPC   C4A65562   9.021   1.263   7.353
10173POPC   C1B65563   9.191   1.364   6.453
10173POPC   C2B65564   9.158   1.394   6.753
10173POPC   C3B65565   9.190   1.351   7.053
10173POPC   C4B65566   9.216   1.317   7.353
10174POPC   NC365567  35.333  43.154   5.553
10174POPC   PO465568  35.340  43.080   5.853
10174POPC   GL165569  35.313  43.066   6.153
10174POPC   GL265570  35.363  43.277   6.153
10174POPC   C1A65571  35.310  43.097   6.453
10174POPC   D2A65572  35.376  43.091   6.753
10174POPC   C3A65573  35.369  43.078   7.053
10174POPC   C4A65574  35.326  43.108   7.353
10174POPC   C1B65575  35.286  43.336   6.453
10174POPC   C2B65576  35.308  43.389   6.753
10174POPC   C3B65577  35.378  43.360   7.053
10174POPC   C4B65578  35.325  43.332   7.353
10175POPC   NC365579  21.419  40.804   5.553
10175POPC   PO465580  21.372  40.792   5.853
10175POPC   GL165581  21.374  40.793   6.153
10175POPC   GL265582  21.465  40.887   6.153
10175POPC   C1A65583  21.396  40.824   6.453
10175POPC   D2A65584  21.406  40.742   6.753
10175POPC   C3A65585  21.362  40.821   7.053
10175POPC   C4A65586  21.424  40.745   7.353
10175POPC   C1B65587  21.585  40.904   6.453
10175POPC   C2B65588  21.611  40.901   6.753
10175POPC   C3B65589  21.572  40.953   7.053
10175POPC   C4B65590  21.611  40.941   7.353
10176POPC   NC365591  26.769  30.746   5.553
10176POPC   PO465592  26.774  30.672   5.853
10176POPC   GL165593  26.846  30.715   6.153
10176POPC   GL265594  26.655  30.690   6.153
10176POPC   C1A65595  26.829  30.716   6.453
10176POPC   D2A65596  26.842  30.690   6.753
10176POPC   C3A65597  26.817  30.722   7.053
10176POPC   C4A65598  26.768  30.647   7.353
10176POPC   C1B65599  26.564  30.709   6.453
10176POPC   C2B65600  26.593  30.773   6.753
10176POPC   C3B65601  26.593  30.752   7.053
10176POPC   C4B65602  26.610  30.720   7.353
10177POPC   NC365603   5.080   5.051   5.553
10177POPC   PO465604   5.053   5.125   5.853
10177POPC   GL165605   5.114   5.106   6.153
10177POPC   GL265606   5.105   4.964   6.153
10177POPC   C1A65607   5.046   5.073   6.453
10177POPC   D2A65608   5.073   5.105   6.753
10177POPC   C3A65609   5.064   5.079   7.053
10177POPC   C4A65610   5.105   5.137   7.353
10177POPC   C1B65611   5.137   4.853   6.453
10177POPC   C2B65612   5.215   4.883   6.753
10177POPC   C3B65613   5.160   4.888   7.053
10177POPC   C4B65614   5.154   4.813   7.353
10178POPC   NC365615  18.288  15.214   5.553
10178POPC   PO465616  18.323  15.173   5.853
10178POPC   GL165617  18.303  15.212   6.153
10178POPC   GL265618  18.284  15.312   6.153
10178POPC   C1A65619  18.327  15.223   6.453
10178POPC   D2A65620  18.320  15.160   6.753
10178POPC   C3A65621  18.236  15.160   7.053
10178POPC   C4A65622  18.278  15.176   7.353
10178POPC   C1B65623  18.340  15.437   6.453
10178POPC   C2B65624  18.295  15.404   6.753
10178POPC   C3B65625  18.287  15.380   7.053
10178POPC   C4B65626  18.337  15.390   7.353
10179POPC   NC365627   5.857   2.748   5.553
10179POPC   PO465628   5.873   2.779   5.853
10179POPC   GL165629   5.879   2.815   6.153
10179POPC   GL265630   5.787   2.664   6.153
10179POPC   C1A65631   5.904   2.813   6.453
10179POPC   D2A65632   5.897   2.777   6.753
10179POPC   C3A65633   5.866   2.805   7.053
10179POPC   C4A65634   5.862   2.729   7.353
10179POPC   C1B65635   5.693   2.562   6.453
10179POPC   C2B65636   5.714   2.524   6.753
10179POPC   C3B65637   5.685   2.553   7.053
10179POPC   C4B65638   5.697   2.567   7.353
10180POPC   NC365639   5.846   1.199   5.553
10180POPC   PO465640   5.824   1.196   5.853
10180POPC   GL165641   5.831   1.186   6.153
10180POPC   GL265642   6.000   1.277   6.153
10180POPC   C1A65643   5.849   1.224   6.453
10180POPC   D2A65644   5.830   1.212   6.753
10180POPC   C3A65645   5.875   1.184   7.053
10180POPC   C4A65646   5.905   1.235   7.353
10180POPC   C1B65647   6.077   1.277   6.453
10180POPC   C2B65648   6.081   1.283   6.753
10180POPC   C3B65649   6.124   1.304   7.053
10180POPC   C4B65650   6.064   1.341   7.353
10181POPC   NC365651  31.445  29.127   5.553
10181POPC   PO465652  31.522  29.186   5.853
10181POPC   GL165653  31.483  29.152   6.153
10181POPC   GL265654  31.505  29.066   6.153
10181POPC   C1A65655  31.488  29.135   6.453
10181POPC   D2A65656  31.428  29.172   6.753
10181POPC   C3A65657  31.493  29.186   7.053
10181POPC   C4A65658  31.519  29.180   7.353
10181POPC   C1B65659  31.561  28.865   6.453
10181POPC   C2B65660  31.528  28.917   6.753
10181POPC   C3B65661  31.534  28.915   7.053
10181POPC   C4B65662  31.569  28.874   7.353
10182POPC   NC365663  19.011  22.982   5.553
10182POPC   PO465664  19.023  22.937   5.853
10182POPC   GL165665  19.021  22.978   6.153
10182POPC   GL265666  18.991  23.066   6.153
10182POPC   C1A65667  19.074  22.899   6.453
10182POPC   D2A65668  19.063  22.922   6.753
10182POPC   C3A65669  19.086  22.987   7.053
10182POPC   C4A65670  19.072  22.984   7.353
10182POPC   C1B65671  18.986  23.148   6.453
10182POPC   C2B65672  18.981  23.191   6.753
10182POPC   C3B65673  19.051  23.173   7.053
10182POPC   C4B65674  19.028  23.199   7.353
10183POPC   NC365675  15.220  19.040   5.553
10183POPC   PO465676  15.198  19.030   5.853
10183POPC   GL165677  15.159  19.097   6.153
10183POPC   GL265678  15.144  18.959   6.153
10183POPC   C1A65679  15.198  19.048   6.453
10183POPC   D2A65680  15.176  19.064   6.753
10183POPC   C3A65681  15.228  19.065   7.053
10183POPC   C4A65682  15.141  19.099   7.353
10183POPC   C1B65683  15.205  18.790   6.453
10183POPC   C2B65684  15.227  18.816   6.753
10183POPC   C3B65685  15.248  18.796   7.053
10183POPC   C4B65686  15.203  18.768   7.353
10184POPC   NC365687  15.132  22.939   5.553
10184POPC   PO465688  15.193  22.898   5.853
10184POPC   GL165689  15.220  22.949   6.153
10184POPC   GL265690  15.167  22.796   6.153
10184POPC   C1A65691  15.168  22.904   6.453
10184POPC   D2A65692  15.189  22.918   6.753
10184POPC   C3A65693  15.229  22.971   7.053
10184POPC   C4A65694  15.177  22.920   7.353
10184POPC   C1B65695  15.173  22.698   6.453
10184POPC   C2B65696  15.241  22.716   6.753
10184POPC   C3B65697  15.166  22.680   7.053
10184POPC   C4B65698  15.214  22.730   7.353
10185POPC   NC365699  14.412  32.207   5.553
10185POPC   PO465700  14.432  32.293   5.853
10185POPC   GL165701  14.365  32.256   6.153
10185POPC   GL265702  14.431  32.356   6.153
10185POPC   C1A65703  14.440  32.281   6.453
10185POPC   D2A65704  14.379  32.282   6.753
10185POPC   C3A65705  14.411  32.250   7.053
10185POPC   C4A65706  14.445  32.220   7.353
10185POPC   C1B65707  14.576  32.413   6.453
10185POPC   C2B65708  14.545  32.450   6.753
10185POPC   C3B65709  14.571  32.469   7.053
10185POPC   C4B65710  14.565  32.445   7.353
10186POPC   NC365711  18.299  19.096   5.553
10186POPC   PO465712  18.237  19.014   5.853
10186POPC   GL165713  18.266  19.017   6.153
10186POPC   GL265714  18.342  18.982   6.153
10186POPC   C1A65715  18.279  19.075   6.453
10186POPC   D2A65716  18.289  19.054   6.753
10186POPC   C3A65717  18.247  19.049   7.053
10186POPC   C4A65718  18.270  19.070   7.353
10186POPC   C1B65719  18.476  18.950   6.453
10186POPC   C2B65720  18.473  18.950   6.753
10186POPC   C3B65721  18.515  18.933   7.053
10186POPC   C4B65722  18.495  18.921   7.353
10187POPC   NC365723  15.220   5.134   5.553
10187POPC   PO465724  15.189   5.044   5.853
10187POPC   GL165725  15.229   5.075   6.153
10187POPC   GL265726  15.104   5.170   6.153
10187POPC   C1A65727  15.152   5.135   6.453
10187POPC   D2A65728  15.203   5.078   6.753
10187POPC   C3A65729  15.162   5.123   7.053
10187POPC   C4A65730  15.172   5.105   7.353
10187POPC   C1B65731  15.075   5.290   6.453
10187POPC   C2B65732  15.028   5.318   6.753
10187POPC   C3B65733  15.080   5.290   7.053
10187POPC   C4B65734  15.047   5.281   7.353
10188POPC   NC365735  31.515  10.534   5.553
10188POPC   PO465736  31.478  10.538   5.853
10188POPC   GL165737  31.509  10.573   6.153
10188POPC   GL265738  31.335  10.592   6.153
10188POPC   C1A65739  31.437  10.560   6.453
10188POPC   D2A65740  31.437  10.528   6.753
10188POPC   C3A65741  31.445  10.529   7.053
10188POPC   C4A65742  31.456  10.483   7.353
10188POPC   C1B65743  31.261  10.685   6.453
10188POPC   C2B65744  31.256  10.639   6.753
10188POPC   C3B65745  31.268  10.656   7.053
10188POPC   C4B65746  31.239  10.599   7.353
10189POPC   NC365747  32.984  26.771   5.553
10189POPC   PO465748  33.037  26.821   5.853
10189POPC   GL165749  32.984  26.803   6.153
10189POPC   GL265750  33.184  26.844   6.153
10189POPC   C1A65751  32.995  26.854   6.453
10189POPC   D2A65752  32.988  26.767   6.753
10189POPC   C3A65753  33.022  26.801   7.053
10189POPC   C4A65754  33.001  26.835   7.353
10189POPC   C1B65755  33.246  26.860   6.453
10189POPC   C2B65756  33.230  26.810   6.753
10189POPC   C3B65757  33.301  26.818   7.053
10189POPC   C4B65758  33.296  26.885   7.353
10190POPC   NC365759  22.182  20.658   5.553
10190POPC   PO465760  22.210  20.634   5.853
10190POPC   GL165761  22.193  20.595   6.153
10190POPC   GL265762  22.177  20.535   6.153
10190POPC   C1A65763  22.153  20.618   6.453
10190POPC   D2A65764  22.200  20.580   6.753
10190POPC   C3A65765  22.141  20.641   7.053
10190POPC   C4A65766  22.154  20.617   7.353
10190POPC   C1B65767  22.293  20.344   6.453
10190POPC   C2B65768  22.293  20.374   6.753
10190POPC   C3B65769  22.255  20.386   7.053
10190POPC   C4B65770  22.238  20.329   7.353
10191POPC   NC365771  17.483   8.974   5.553
10191POPC   PO465772  17.489   9.018   5.853
10191POPC   GL165773  17.513   8.979   6.153
10191POPC   GL265774  17.592   8.851   6.153
10191POPC   C1A65775  17.474   8.954   6.453
10191POPC   D2A65776  17.519   8.941   6.753
10191POPC   C3A65777  17.543   8.982   7.053
10191POPC   C4A65778  17.551   8.932   7.353
10191POPC   C1B65779  17.603   8.807   6.453
10191POPC   C2B65780  17.658   8.788   6.753
10191POPC   C3B65781  17.594   8.806   7.053
10191POPC   C4B65782  17.657   8.766   7.353
10192POPC   NC365783  12.852  29.121   5.553
10192POPC   PO465784  12.843  29.141   5.853
10192POPC   GL165785  12.858  29.156   6.153
10192POPC   GL265786  12.745  29.118   6.153
10192POPC   C1A65787  12.844  29.194   6.453
10192POPC   D2A65788  12.830  29.185   6.753
10192POPC   C3A65789  12.859  29.149   7.053
10192POPC   C4A65790  12.881  29.162   7.353
10192POPC   C1B65791  12.575  29.142   6.453
10192POPC   C2B65792  12.566  29.177   6.753
10192POPC   C3B65793  12.589  29.189   7.053
10192POPC   C4B65794  12.649  29.126   7.353
10193POPC   NC365795  23.746   5.906   5.553
10193POPC   PO465796  23.700   5.850   5.853
10193POPC   GL165797  23.707   5.850   6.153
10193POPC   GL265798  23.698   5.953   6.153
10193POPC   C1A65799  23.667   5.844   6.453
10193POPC   D2A65800  23.711   5.858   6.753
10193POPC   C3A65801  23.751   5.899   7.053
10193POPC   C4A65802  23.724   5.864   7.353
10193POPC   C1B65803  23.690   6.101   6.453
10193POPC   C2B65804  23.676   6.091   6.753
10193POPC   C3B65805  23.735   6.104   7.053
10193POPC   C4B65806  23.671   6.121   7.353
10194POPC   NC365807   7.380  20.601   5.553
10194POPC   PO465808   7.401  20.586   5.853
10194POPC   GL165809   7.415  20.567   6.153
10194POPC   GL265810   7.378  20.711   6.153
10194POPC   C1A65811   7.467  20.568   6.453
10194POPC   D2A65812   7.392  20.599   6.753
10194POPC   C3A65813   7.435  20.585   7.053
10194POPC   C4A65814   7.467  20.625   7.353
10194POPC   C1B65815   7.326  20.897   6.453
10194POPC   C2B65816   7.398  20.898   6.753
10194POPC   C3B65817   7.327  20.839   7.053
10194POPC   C4B65818   7.378  20.862   7.353
10195POPC   NC365819   5.883  17.465   5.553
10195POPC   PO465820   5.855  17.551   5.853
10195POPC   GL165821   5.907  17.458   6.153
10195POPC   GL265822   5.968  17.494   6.153
10195POPC   C1A65823   5.836  17.492   6.453
10195POPC   D2A65824   5.917  17.506   6.753
10195POPC   C3A65825   5.893  17.495   7.053
10195POPC   C4A65826   5.827  17.547   7.353
10195POPC   C1B65827   6.099  17.482   6.453
10195POPC   C2B65828   6.099  17.490   6.753
10195POPC   C3B65829   6.131  17.543   7.053
10195POPC   C4B65830   6.133  17.450   7.353
10196POPC   NC365831  40.048  39.198   5.553
10196POPC   PO465832  39.997  39.251   5.853
10196POPC   GL165833  40.015  39.229   6.153
10196POPC   GL265834  40.139  39.187   6.153
10196POPC   C1A65835  40.041  39.239   6.453
10196POPC   D2A65836  39.980  39.194   6.753
10196POPC   C3A65837  40.053  39.251   7.053
10196POPC   C4A65838  40.006  39.233   7.353
10196POPC   C1B65839  40.235  39.168   6.453
10196POPC   C2B65840  40.249  39.182   6.753
10196POPC   C3B65841  40.267  39.141   7.053
10196POPC   C4B65842  40.265  39.185   7.353
10197POPC   NC365843   0.482  12.062   5.553
10197POPC   PO465844   0.411  12.114   5.853
10197POPC   GL165845   0.412  12.092   6.153
10197POPC   GL265846   0.524  12.123   6.153
10197POPC   C1A65847   0.472  12.107   6.453
10197POPC   D2A65848   0.454  12.076   6.753
10197POPC   C3A65849   0.412  12.063   7.053
10197POPC   C4A65850   0.475  12.044   7.353
10197POPC   C1B65851   0.721  12.072   6.453
10197POPC   C2B65852   0.707  12.081   6.753
10197POPC   C3B65853   0.728  12.058   7.053
10197POPC   C4B65854   0.668  12.036   7.353
10198POPC   NC365855   0.450   8.188   5.553
10198POPC   PO465856   0.458   8.199   5.853
10198POPC   GL165857   0.451   8.175   6.153
10198POPC   GL265858   0.426   8.344   6.153
10198POPC   C1A65859   0.397   8.216   6.453
10198POPC   D2A65860   0.404   8.154   6.753
10198POPC   C3A65861   0.391   8.188   7.053
10198POPC   C4A65862   0.461   8.156   7.353
10198POPC   C1B65863   0.423   8.453   6.453
10198POPC   C2B65864   0.455   8.425   6.753
10198POPC   C3B65865   0.482   8.452   7.053
10198POPC   C4B65866   0.439   8.489   7.353
10199POPC   NC365867  33.758  40.825   5.553
10199POPC   PO465868  33.841  40.757   5.853
10199POPC   GL165869  33.794  40.818   6.153
10199POPC   GL265870  33.839  40.858   6.153
10199POPC   C1A65871  33.803  40.779   6.453
10199POPC   D2A65872  33.774  40.799   6.753
10199POPC   C3A65873  33.779  40.746   7.053
10199POPC   C4A65874  33.787  40.789   7.353
10199POPC   C1B65875  33.794  40.987   6.453
10199POPC   C2B65876  33.799  41.079   6.753
10199POPC   C3B65877  33.816  40.983   7.053
10199POPC   C4B65878  33.775  41.069   7.353
10200POPC   NC365879  38.441   6.690   5.553
10200POPC   PO465880  38.458   6.624   5.853
10200POPC   GL165881  38.495   6.650   6.153
10200POPC   GL265882  38.563   6.656   6.153
10200POPC   C1A65883  38.431   6.642   6.453
10200POPC   D2A65884  38.425   6.679   6.753
10200POPC   C3A65885  38.501   6.678   7.053
10200POPC   C4A65886  38.450   6.663   7.353
10200POPC   C1B65887  38.693   6.526   6.453
10200POPC   C2B65888  38.733   6.522   6.753
10200POPC   C3B65889  38.725   6.576   7.053
10200POPC   C4B65890  38.662   6.595   7.353
10201POPC   NC365891   1.204  40.046   5.553
10201POPC   PO465892   1.176  39.972   5.853
10201POPC   GL165893   1.219  40.000   6.153
10201POPC   GL265894   1.202  39.864   6.153
10201POPC   C1A65895   1.239  40.016   6.453
10201POPC   D2A65896   1.198  39.996   6.753
10201POPC   C3A65897   1.204  40.037   7.053
10201POPC   C4A65898   1.233  40.004   7.353
10201POPC   C1B65899   1.224  39.746   6.453
10201POPC   C2B65900   1.156  39.752   6.753
10201POPC   C3B65901   1.206  39.791   7.053
10201POPC   C4B65902   1.207  39.807   7.353
10202POPC   NC365903  29.174  24.469   5.553
10202POPC   PO465904  29.157  24.470   5.853
10202POPC   GL165905  29.120  24.514   6.153
10202POPC   GL265906  29.206  24.429   6.153
10202POPC   C1A65907  29.132  24.473   6.453
10202POPC   D2A65908  29.111  24.455   6.753
10202POPC   C3A65909  29.096  24.516   7.053
10202POPC   C4A65910  29.107  24.488   7.353
10202POPC   C1B65911  29.332  24.312   6.453
10202POPC   C2B65912  29.275  24.247   6.753
10202POPC   C3B65913  29.267  24.324   7.053
10202POPC   C4B65914  29.337  24.294   7.353
10203POPC   NC365915  41.532  36.899   5.553
10203POPC   PO465916  41.588  36.892   5.853
10203POPC   GL165917  41.596  36.950   6.153
10203POPC   GL265918  41.427  36.900   6.153
10203POPC   C1A65919  41.564  36.879   6.453
10203POPC   D2A65920  41.563  36.914   6.753
10203POPC   C3A65921  41.514  36.923   7.053
10203POPC   C4A65922  41.603  36.867   7.353
10203POPC   C1B65923  41.358  36.883   6.453
10203POPC   C2B65924  41.331  36.844   6.753
10203POPC   C3B65925  41.354  36.918   7.053
10203POPC   C4B65926  41.319  36.894   7.353
10204POPC   NC365927  20.628  22.203   5.553
10204POPC   PO465928  20.589  22.205   5.853
10204POPC   GL165929  20.591  22.164   6.153
10204POPC   GL265930  20.544  22.035   6.153
10204POPC   C1A65931  20.604  22.181   6.453
10204POPC   D2A65932  20.611  22.148   6.753
10204POPC   C3A65933  20.615  22.154   7.053
10204POPC   C4A65934  20.609  22.149   7.353
10204POPC   C1B65935  20.537  21.882   6.453
10204POPC   C2B65936  20.561  21.965   6.753
10204POPC   C3B65937  20.506  21.923   7.053
10204POPC   C4B65938  20.516  21.929   7.353
10205POPC   NC365939  21.350  40.010   5.553
10205POPC   PO465940  21.385  40.010   5.853
10205POPC   GL165941  21.349  40.054   6.153
10205POPC   GL265942  21.278  40.015   6.153
10205POPC   C1A65943  21.399  39.975   6.453
10205POPC   D2A65944  21.434  40.025   6.753
10205POPC   C3A65945  21.351  40.043   7.053
10205POPC   C4A65946  21.403  39.973   7.353
10205POPC   C1B65947  21.093  40.025   6.453
10205POPC   C2B65948  21.139  39.949   6.753
10205POPC   C3B65949  21.089  39.996   7.053
10205POPC   C4B65950  21.099  39.976   7.353
10206POPC   NC365951  19.061   8.978   5.553
10206POPC   PO465952  19.089   8.972   5.853
10206POPC   GL165953  19.023   8.999   6.153
10206POPC   GL265954  19.094   9.059   6.153
10206POPC   C1A65955  19.044   8.966   6.453
10206POPC   D2A65956  19.107   8.987   6.753
10206POPC   C3A65957  19.048   8.992   7.053
10206POPC   C4A65958  19.012   8.965   7.353
10206POPC   C1B65959  19.159   9.208   6.453
10206POPC   C2B65960  19.206   9.238   6.753
10206POPC   C3B65961  19.161   9.159   7.053
10206POPC   C4B65962  19.138   9.224   7.353
10207POPC   NC365963  36.144  40.024   5.553
10207POPC   PO465964  36.174  40.014   5.853
10207POPC   GL165965  36.105  40.040   6.153
10207POPC   GL265966  36.031  39.856   6.153
10207POPC   C1A65967  36.151  40.034   6.453
10207POPC   D2A65968  36.162  40.016   6.753
10207POPC   C3A65969  36.095  39.963   7.053
10207POPC   C4A65970  36.088  39.998   7.353
10207POPC   C1B65971  36.029  39.776   6.453
10207POPC   C2B65972  36.069  39.770   6.753
10207POPC   C3B65973  36.061  39.773   7.053
10207POPC   C4B65974  36.039  39.760   7.353
10208POPC   NC365975   7.463  12.106   5.553
10208POPC   PO465976   7.458  12.118   5.853
10208POPC   GL165977   7.434  12.114   6.153
10208POPC   GL265978   7.259  12.096   6.153
10208POPC   C1A65979   7.371  12.065   6.453
10208POPC   D2A65980   7.393  12.082   6.753
10208POPC   C3A65981   7.432  12.080   7.053
10208POPC   C4A65982   7.465  12.028   7.353
10208POPC   C1B65983   7.224  12.041   6.453
10208POPC   C2B65984   7.152  11.985   6.753
10208POPC   C3B65985   7.133  12.066   7.053
10208POPC   C4B65986   7.200  12.029   7.353
10209POPC   NC365987  32.290   8.170   5.553
10209POPC   PO465988  32.276   8.150   5.853
10209POPC   GL165989  32.251   8.169   6.153
10209POPC   GL265990  32.257   8.317   6.153
10209POPC   C1A65991  32.208   8.151   6.453
10209POPC   D2A65992  32.216   8.170   6.753
10209POPC   C3A65993  32.240   8.156   7.053
10209POPC   C4A65994  32.238   8.246   7.353
10209POPC   C1B65995  32.228   8.435   6.453
10209POPC   C2B65996  32.265   8.484   6.753
10209POPC   C3B65997  32.288   8.433   7.053
10209POPC   C4B65998  32.280   8.414   7.353
10210POPC   NC365999   0.397  20.571   5.553
10210POPC   PO466000   0.470  20.654   5.853
10210POPC   GL166001   0.446  20.659   6.153
10210POPC   GL266002   0.572  20.500   6.153
10210POPC   C1A66003   0.432  20.603   6.453
10210POPC   D2A66004   0.438  20.583   6.753
10210POPC   C3A66005   0.485  20.659   7.053
10210POPC   C4A66006   0.413  20.623   7.353
10210POPC   C1B66007   0.645  20.449   6.453
10210POPC   C2B66008   0.638  20.429   6.753
10210POPC   C3B66009   0.652  20.438   7.053
10210POPC   C4B66010   0.617  20.442   7.353
10211POPC   NC366011   6.605  33.835   5.553
10211POPC   PO466012   6.677  33.760   5.853
10211POPC   GL166013   6.608  33.751   6.153
10211POPC   GL266014   6.596  33.890   6.153
10211POPC   C1A66015   6.613  33.752   6.453
10211POPC   D2A66016   6.632  33.830   6.753
10211POPC   C3A66017   6.645  33.800   7.053
10211POPC   C4A66018   6.653  33.816   7.353
10211POPC   C1B66019   6.426  33.948   6.453
10211POPC   C2B66020   6.490  34.001   6.753
10211POPC   C3B66021   6.439  33.945   7.053
10211POPC   C4B66022   6.487  33.932   7.353
10212POPC   NC366023  10.511  41.570   5.553
10212POPC   PO466024  10.524  41.590   5.853
10212POPC   GL166025  10.487  41.589   6.153
10212POPC   GL266026  10.627  41.471   6.153
10212POPC   C1A66027  10.501  41.585   6.453
10212POPC   D2A66028  10.504  41.513   6.753
10212POPC   C3A66029  10.475  41.516   7.053
10212POPC   C4A66030  10.548  41.578   7.353
10212POPC   C1B66031  10.706  41.356   6.453
10212POPC   C2B66032  10.638  41.305   6.753
10212POPC   C3B66033  10.676  41.314   7.053
10212POPC   C4B66034  10.639  41.310   7.353
10213POPC   NC366035  24.539  11.255   5.553
10213POPC   PO466036  24.454  11.323   5.853
10213POPC   GL166037  24.458  11.253   6.153
10213POPC   GL266038  24.404  11.427   6.153
10213POPC   C1A66039  24.485  11.312   6.453
10213POPC   D2A66040  24.446  11.273   6.753
10213POPC   C3A66041  24.466  11.291   7.053
10213POPC   C4A66042  24.483  11.290   7.353
10213POPC   C1B66043  24.325  11.447   6.453
10213POPC   C2B66044  24.298  11.491   6.753
10213POPC   C3B66045  24.343  11.496   7.053
10213POPC   C4B66046  24.284  11.477   7.353
10214POPC   NC366047  44.701  41.518   5.553
10214POPC   PO466048  44.686  41.562   5.853
10214POPC   GL166049  44.667  41.521   6.153
10214POPC   GL266050  44.535  41.609   6.153
10214POPC   C1A66051  44.628  41.582   6.453
10214POPC   D2A66052  44.640  41.564   6.753
10214POPC   C3A66053  44.703  41.529   7.053
10214POPC   C4A66054  44.619  41.555   7.353
10214POPC   C1B66055  44.431  41.647   6.453
10214POPC   C2B66056  44.428  41.741   6.753
10214POPC   C3B66057  44.414  41.669   7.053
10214POPC   C4B66058  44.486  41.730   7.353
10215POPC   NC366059  38.462   0.434   5.553
10215POPC   PO466060  38.452   0.416   5.853
10215POPC   GL166061  38.416   0.393   6.153
10215POPC   GL266062  38.567   0.353   6.153
10215POPC   C1A66063  38.432   0.401   6.453
10215POPC   D2A66064  38.481   0.433   6.753
10215POPC   C3A66065  38.434   0.405   7.053
10215POPC   C4A66066  38.416   0.394   7.353
10215POPC   C1B66067  38.715   0.336   6.453
10215POPC   C2B66068  38.714   0.263   6.753
10215POPC   C3B66069  38.646   0.326   7.053
10215POPC   C4B66070  38.718   0.354   7.353
10216POPC   NC366071  25.218   5.845   5.553
10216POPC   PO466072  25.304   5.847   5.853
10216POPC   GL166073  25.282   5.877   6.153
10216POPC   GL266074  25.108   5.900   6.153
10216POPC   C1A66075  25.263   5.912   6.453
10216POPC   D2A66076  25.309   5.832   6.753
10216POPC   C3A66077  25.269   5.890   7.053
10216POPC   C4A66078  25.292   5.829   7.353
10216POPC   C1B66079  25.013   5.976   6.453
10216POPC   C2B66080  24.999   6.002   6.753
10216POPC   C3B66081  25.004   5.978   7.053
10216POPC   C4B66082  25.020   6.028   7.353
10217POPC   NC366083   6.631  13.633   5.553
10217POPC   PO466084   6.654  13.593   5.853
10217POPC   GL166085   6.646  13.665   6.153
10217POPC   GL266086   6.587  13.523   6.153
10217POPC   C1A66087   6.666  13.628   6.453
10217POPC   D2A66088   6.603  13.618   6.753
10217POPC   C3A66089   6.679  13.582   7.053
10217POPC   C4A66090   6.602  13.650   7.353
10217POPC   C1B66091   6.491  13.354   6.453
10217POPC   C2B66092   6.566  13.406   6.753
10217POPC   C3B66093   6.527  13.437   7.053
10217POPC   C4B66094   6.529  13.388   7.353
10218POPC   NC366095  28.360  18.321   5.553
10218POPC   PO466096  28.330  18.311   5.853
10218POPC   GL166097  28.415  18.303   6.153
10218POPC   GL266098  28.353  18.379   6.153
10218POPC   C1A66099  28.365  18.323   6.453
10218POPC   D2A66100  28.338  18.300   6.753
10218POPC   C3A66101  28.332  18.285   7.053
10218POPC   C4A66102  28.364  18.313   7.353
10218POPC   C1B66103  28.321  18.530   6.453
10218POPC   C2B66104  28.327  18.538   6.753
10218POPC   C3B66105  28.283  18.483   7.053
10218POPC   C4B66106  28.325  18.548   7.353
10219POPC   NC366107  37.676   4.301   5.553
10219POPC   PO466108  37.724   4.277   5.853
10219POPC   GL166109  37.683   4.333   6.153
10219POPC   GL266110  37.748   4.159   6.153
10219POPC   C1A66111  37.694   4.304   6.453
10219POPC   D2A66112  37.631   4.339   6.753
10219POPC   C3A66113  37.696   4.325   7.053
10219POPC   C4A66114  37.665   4.304   7.353
10219POPC   C1B66115  37.760   4.047   6.453
10219POPC   C2B66116  37.701   4.122   6.753
10219POPC   C3B66117  37.750   4.118   7.053
10219POPC   C4B66118  37.689   4.102   7.353
10220POPC   NC366119  35.364   0.458   5.553
10220POPC   PO466120  35.334   0.448   5.853
10220POPC   GL166121  35.340   0.427   6.153
10220POPC   GL266122  35.270   0.328   6.153
10220POPC   C1A66123  35.375   0.478   6.453
10220POPC   D2A66124  35.336   0.424   6.753
10220POPC   C3A66125  35.360   0.457   7.053
10220POPC   C4A66126  35.349   0.449   7.353
10220POPC   C1B66127  35.110   0.290   6.453
10220POPC   C2B66128  35.155   0.268   6.753
10220POPC   C3B66129  35.146   0.315   7.053
10220POPC   C4B66130  35.137   0.272   7.353
10221POPC   NC366131  29.874  33.028   5.553
10221POPC   PO466132  29.952  33.037   5.853
10221POPC   GL166133  29.903  33.031   6.153
10221POPC   GL266134  29.868  32.931   6.153
10221POPC   C1A66135  29.903  33.002   6.453
10221POPC   D2A66136  29.915  33.037   6.753
10221POPC   C3A66137  29.882  32.998   7.053
10221POPC   C4A66138  29.873  33.016   7.353
10221POPC   C1B66139  29.835  32.772   6.453
10221POPC   C2B66140  29.859  32.788   6.753
10221POPC   C3B66141  29.784  32.805   7.053
10221POPC   C4B66142  29.866  32.753   7.353
10222POPC   NC366143  28.366  42.349   5.553
10222POPC   PO466144  28.348  42.344   5.853
10222POPC   GL166145  28.321  42.354   6.153
10222POPC   GL266146  28.448  42.445   6.153
10222POPC   C1A66147  28.394  42.329   6.453
10222POPC   D2A66148  28.418  42.291   6.753
10222POPC   C3A66149  28.383  42.312   7.053
10222POPC   C4A66150  28.341  42.330   7.353
10222POPC   C1B66151  28.526  42.559   6.453
10222POPC   C2B66152  28.477  42.537   6.753
10222POPC   C3B66153  28.465  42.495   7.053
10222POPC   C4B66154  28.552  42.510   7.353
10223POPC   NC366155   4.326   1.941   5.553
10223POPC   PO466156   4.323   2.001   5.853
10223POPC   GL166157   4.330   2.006   6.153
10223POPC   GL266158   4.448   1.906   6.153
10223POPC   C1A66159   4.360   2.034   6.453
10223POPC   D2A66160   4.366   2.023   6.753
10223POPC   C3A66161   4.329   2.009   7.053
10223POPC   C4A66162   4.366   1.997   7.353
10223POPC   C1B66163   4.509   1.801   6.453
10223POPC   C2B66164   4.516   1.808   6.753
10223POPC   C3B66165   4.521   1.862   7.053
10223POPC   C4B66166   4.460   1.803   7.353
10224POPC   NC366167  30.698   0.468   5.553
10224POPC   PO466168  30.699   0.457   5.853
10224POPC   GL166169  30.694   0.404   6.153
10224POPC   GL266170  30.583   0.511   6.153
10224POPC   C1A66171  30.740   0.485   6.453
10224POPC   D2A66172  30.690   0.399   6.753
10224POPC   C3A66173  30.715   0.455   7.053
10224POPC   C4A66174  30.697   0.434   7.353
10224POPC   C1B66175  30.491   0.490   6.453
10224POPC   C2B66176  30.421   0.491   6.753
10224POPC   C3B66177  30.469   0.568   7.053
10224POPC   C4B66178  30.488   0.589   7.353
10225POPC   NC366179  16.692   1.980   5.553
10225POPC   PO466180  16.700   2.031   5.853
10225POPC   GL166181  16.700   2.002   6.153
10225POPC   GL266182  16.626   1.848   6.153
10225POPC   C1A66183  16.689   2.027   6.453
10225POPC   D2A66184  16.754   2.035   6.753
10225POPC   C3A66185  16.769   1.943   7.053
10225POPC   C4A66186  16.770   1.987   7.353
10225POPC   C1B66187  16.636   1.809   6.453
10225POPC   C2B66188  16.667   1.723   6.753
10225POPC   C3B66189  16.637   1.756   7.053
10225POPC   C4B66190  16.588   1.758   7.353
10226POPC   NC366191  21.339  19.853   5.553
10226POPC   PO466192  21.350  19.855   5.853
10226POPC   GL166193  21.409  19.814   6.153
10226POPC   GL266194  21.445  19.962   6.153
10226POPC   C1A66195  21.415  19.862   6.453
10226POPC   D2A66196  21.399  19.801   6.753
10226POPC   C3A66197  21.345  19.803   7.053
10226POPC   C4A66198  21.408  19.883   7.353
10226POPC   C1B66199  21.563  20.079   6.453
10226POPC   C2B66200  21.515  20.015   6.753
10226POPC   C3B66201  21.533  20.000   7.053
10226POPC   C4B66202  21.483  20.008   7.353
10227POPC   NC366203   6.604  31.472   5.553
10227POPC   PO466204   6.690  31.432   5.853
10227POPC   GL166205   6.669  31.463   6.153
10227POPC   GL266206   6.576  31.372   6.153
10227POPC   C1A66207   6.677  31.424   6.453
10227POPC   D2A66208   6.643  31.461   6.753
10227POPC   C3A66209   6.647  31.431   7.053
10227POPC   C4A66210   6.603  31.437   7.353
10227POPC   C1B66211   6.481  31.279   6.453
10227POPC   C2B66212   6.411  31.324   6.753
10227POPC   C3B66213   6.401  31.349   7.053
10227POPC   C4B66214   6.461  31.373   7.353
10228POPC   NC366215  33.817   7.394   5.553
10228POPC   PO466216  33.804   7.452   5.853
10228POPC   GL166217  33.821   7.437   6.153
10228POPC   GL266218  33.917   7.503   6.153
10228POPC   C1A66219  33.823   7.448   6.453
10228POPC   D2A66220  33.773   7.444   6.753
10228POPC   C3A66221  33.775   7.439   7.053
10228POPC   C4A66222  33.759   7.406   7.353
10228POPC   C1B66223  34.006   7.545   6.453
10228POPC   C2B66224  34.006   7.564   6.753
10228POPC   C3B66225  34.047   7.520   7.053
10228POPC   C4B66226  34.073   7.532   7.353
10229POPC   NC366227  14.427  37.685   5.553
10229POPC   PO466228  14.427  37.648   5.853
10229POPC   GL166229  14.403  37.712   6.153
10229POPC   GL266230  14.328  37.776   6.153
10229POPC   C1A66231  14.374  37.653   6.453
10229POPC   D2A66232  14.379  37.726   6.753
10229POPC   C3A66233  14.432  37.639   7.053
10229POPC   C4A66234  14.404  37.674   7.353
10229POPC   C1B66235  14.209  37.824   6.453
10229POPC   C2B66236  14.208  37.864   6.753
10229POPC   C3B66237  14.181  37.891   7.053
10229POPC   C4B66238  14.188  37.852   7.353
10230POPC   NC366239  39.277  36.096   5.553
10230POPC   PO466240  39.249  36.139   5.853
10230POPC   GL166241  39.224  36.177   6.153
10230POPC   GL266242  39.161  35.959   6.153
10230POPC   C1A66243  39.233  36.171   6.453
10230POPC   D2A66244  39.215  36.171   6.753
10230POPC   C3A66245  39.196  36.111   7.053
10230POPC   C4A66246  39.227  36.143   7.353
10230POPC   C1B66247  39.162  35.891   6.453
10230POPC   C2B66248  39.175  35.902   6.753
10230POPC   C3B66249  39.168  35.922   7.053
10230POPC   C4B66250  39.137  35.898   7.353
10231POPC   NC366251   6.634  40.749   5.553
10231POPC   PO466252   6.616  40.751   5.853
10231POPC   GL166253   6.627  40.760   6.153
10231POPC   GL266254   6.717  40.718   6.153
10231POPC   C1A66255   6.645  40.746   6.453
10231POPC   D2A66256   6.616  40.760   6.753
10231POPC   C3A66257   6.632  40.755   7.053
10231POPC   C4A66258   6.660  40.766   7.353
10231POPC   C1B66259   6.859  40.646   6.453
10231POPC   C2B66260   6.800  40.569   6.753
10231POPC   C3B66261   6.873  40.645   7.053
10231POPC   C4B66262   6.851  40.655   7.353
10232POPC   NC366263  12.898   3.505   5.553
10232POPC   PO466264  12.879   3.551   5.853
10232POPC   GL166265  12.839   3.493   6.153
10232POPC   GL266266  12.887   3.456   6.153
10232POPC   C1A66267  12.838   3.556   6.453
10232POPC   D2A66268  12.817   3.547   6.753
10232POPC   C3A66269  12.848   3.551   7.053
10232POPC   C4A66270  12.892   3.583   7.353
10232POPC   C1B66271  12.878   3.311   6.453
10232POPC   C2B66272  12.822   3.322   6.753
10232POPC   C3B66273  12.830   3.324   7.053
10232POPC   C4B66274  12.860   3.271   7.353
10233POPC   NC366275  25.285  39.254   5.553
10233POPC   PO466276  25.246  39.210   5.853
10233POPC   GL166277  25.226  39.228   6.153
10233POPC   GL266278  25.384  39.264   6.153
10233POPC   C1A66279  25.301  39.250   6.453
10233POPC   D2A66280  25.227  39.200   6.753
10233POPC   C3A66281  25.280  39.186   7.053
10233POPC   C4A66282  25.252  39.264   7.353
10233POPC   C1B66283  25.543  39.163   6.453
10233POPC   C2B66284  25.522  39.197   6.753
10233POPC   C3B66285  25.539  39.173   7.053
10233POPC   C4B66286  25.487  39.244   7.353
10234POPC   NC366287   8.167  10.514   5.553
10234POPC   PO466288   8.201  10.510   5.853
10234POPC   GL166289   8.222  10.561   6.153
10234POPC   GL266290   8.292  10.415   6.153
10234POPC   C1A66291   8.212  10.513   6.453
10234POPC   D2A66292   8.237  10.554   6.753
10234POPC   C3A66293   8.172  10.508   7.053
10234POPC   C4A66294   8.241  10.522   7.353
10234POPC   C1B66295   8.330  10.368   6.453
10234POPC   C2B66296   8.362  10.347   6.753
10234POPC   C3B66297   8.369  10.283   7.053
10234POPC   C4B66298   8.366  10.372   7.353
10235POPC   NC366299   6.657  12.041   5.553
10235POPC   PO466300   6.604  12.031   5.853
10235POPC   GL166301   6.642  12.035   6.153
10235POPC   GL266302   6.722  11.984   6.153
10235POPC   C1A66303   6.689  12.054   6.453
10235POPC   D2A66304   6.694  12.114   6.753
10235POPC   C3A66305   6.690  12.087   7.053
10235POPC   C4A66306   6.613  12.036   7.353
10235POPC   C1B66307   6.782  11.811   6.453
10235POPC   C2B66308   6.717  11.895   6.753
10235POPC   C3B66309   6.766  11.885   7.053
10235POPC   C4B66310   6.788  11.892   7.353
10236POPC   NC366311  23.698  29.177   5.553
10236POPC   PO466312  23.693  29.121   5.853
10236POPC   GL166313  23.718  29.167   6.153
10236POPC   GL266314  23.628  29.097   6.153
10236POPC   C1A66315  23.739  29.131   6.453
10236POPC   D2A66316  23.665  29.119   6.753
10236POPC   C3A66317  23.757  29.138   7.053
10236POPC   C4A66318  23.734  29.124   7.353
10236POPC   C1B66319  23.462  29.103   6.453
10236POPC   C2B66320  23.491  29.013   6.753
10236POPC   C3B66321  23.443  29.027   7.053
10236POPC   C4B66322  23.511  29.017   7.353
10237POPC   NC366323   0.437  17.462   5.553
10237POPC   PO466324   0.460  17.461   5.853
10237POPC   GL166325   0.415  17.485   6.153
10237POPC   GL266326   0.278  17.488   6.153
10237POPC   C1A66327   0.404  17.534   6.453
10237POPC   D2A66328   0.426  17.548   6.753
10237POPC   C3A66329   0.469  17.555   7.053
10237POPC   C4A66330   0.449  17.550   7.353
10237POPC   C1B66331   0.218  17.525   6.453
10237POPC   C2B66332   0.193  17.569   6.753
10237POPC   C3B66333   0.153  17.587   7.053
10237POPC   C4B66334   0.188  17.541   7.353
10238POPC   NC366335   9.750  42.326   5.553
10238POPC   PO466336   9.710  42.353   5.853
10238POPC   GL166337   9.786  42.305   6.153
10238POPC   GL266338   9.612  42.406   6.153
10238POPC   C1A66339   9.772  42.381   6.453
10238POPC   D2A66340   9.758  42.373   6.753
10238POPC   C3A66341   9.705  42.297   7.053
10238POPC   C4A66342   9.742  42.314   7.353
10238POPC   C1B66343   9.503  42.445   6.453
10238POPC   C2B66344   9.531  42.498   6.753
10238POPC   C3B66345   9.498  42.477   7.053
10238POPC   C4B66346   9.568  42.424   7.353
10239POPC   NC366347   5.913  13.601   5.553
10239POPC   PO466348   5.909  13.657   5.853
10239POPC   GL166349   5.911  13.675   6.153
10239POPC   GL266350   5.908  13.686   6.153
10239POPC   C1A66351   5.842  13.666   6.453
10239POPC   D2A66352   5.875  13.651   6.753
10239POPC   C3A66353   5.851  13.653   7.053
10239POPC   C4A66354   5.898  13.579   7.353
10239POPC   C1B66355   6.044  13.853   6.453
10239POPC   C2B66356   5.995  13.787   6.753
10239POPC   C3B66357   6.030  13.800   7.053
10239POPC   C4B66358   5.980  13.824   7.353
10240POPC   NC366359  42.285  36.109   5.553
10240POPC   PO466360  42.356  36.110   5.853
10240POPC   GL166361  42.314  36.105   6.153
10240POPC   GL266362  42.261  36.145   6.153
10240POPC   C1A66363  42.298  36.146   6.453
10240POPC   D2A66364  42.367  36.080   6.753
10240POPC   C3A66365  42.317  36.125   7.053
10240POPC   C4A66366  42.317  36.135   7.353
10240POPC   C1B66367  42.138  36.152   6.453
10240POPC   C2B66368  42.101  36.156   6.753
10240POPC   C3B66369  42.101  36.180   7.053
10240POPC   C4B66370  42.080  36.126   7.353
10241POPC   NC366371  28.392  15.160   5.553
10241POPC   PO466372  28.373  15.212   5.853
10241POPC   GL166373  28.399  15.167   6.153
10241POPC   GL266374  28.370  15.282   6.153
10241POPC   C1A66375  28.322  15.183   6.453
10241POPC   D2A66376  28.363  15.226   6.753
10241POPC   C3A66377  28.413  15.148   7.053
10241POPC   C4A66378  28.376  15.226   7.353
10241POPC   C1B66379  28.349  15.406   6.453
10241POPC   C2B66380  28.279  15.393   6.753
10241POPC   C3B66381  28.316  15.435   7.053
10241POPC   C4B66382  28.339  15.466   7.353
10242POPC   NC366383   0.448  43.124   5.553
10242POPC   PO466384   0.397  43.144   5.853
10242POPC   GL166385   0.423  43.128   6.153
10242POPC   GL266386   0.546  42.965   6.153
10242POPC   C1A66387   0.481  43.090   6.453
10242POPC   D2A66388   0.415  43.130   6.753
10242POPC   C3A66389   0.453  43.086   7.053
10242POPC   C4A66390   0.481  43.121   7.353
10242POPC   C1B66391   0.540  42.930   6.453
10242POPC   C2B66392   0.566  42.852   6.753
10242POPC   C3B66393   0.586  42.863   7.053
10242POPC   C4B66394   0.528  42.866   7.353
10243POPC   NC366395   8.170   8.224   5.553
10243POPC   PO466396   8.179   8.157   5.853
10243POPC   GL166397   8.192   8.220   6.153
10243POPC   GL266398   8.317   8.167   6.153
10243POPC   C1A66399   8.232   8.245   6.453
10243POPC   D2A66400   8.197   8.203   6.753
10243POPC   C3A66401   8.185   8.158   7.053
10243POPC   C4A66402   8.227   8.210   7.353
10243POPC   C1B66403   8.411   8.117   6.453
10243POPC   C2B66404   8.396   8.114   6.753
10243POPC   C3B66405   8.458   8.128   7.053
10243POPC   C4B66406   8.430   8.137   7.353
10244POPC   NC366407  11.340  14.415   5.553
10244POPC   PO466408  11.321  14.397   5.853
10244POPC   GL166409  11.289  14.392   6.153
10244POPC   GL266410  11.385  14.497   6.153
10244POPC   C1A66411  11.272  14.362   6.453
10244POPC   D2A66412  11.319  14.427   6.753
10244POPC   C3A66413  11.295  14.379   7.053
10244POPC   C4A66414  11.344  14.447   7.353
10244POPC   C1B66415  11.542  14.524   6.453
10244POPC   C2B66416  11.518  14.560   6.753
10244POPC   C3B66417  11.541  14.520   7.053
10244POPC   C4B66418  11.540  14.565   7.353
10245POPC   NC366419  31.493   1.989   5.553
10245POPC   PO466420  31.496   1.976   5.853
10245POPC   GL166421  31.508   1.969   6.153
10245POPC   GL266422  31.419   2.064   6.153
10245POPC   C1A66423  31.460   2.031   6.453
10245POPC   D2A66424  31.492   1.975   6.753
10245POPC   C3A66425  31.433   1.994   7.053
10245POPC   C4A66426  31.485   1.961   7.353
10245POPC   C1B66427  31.336   2.177   6.453
10245POPC   C2B66428  31.378   2.157   6.753
10245POPC   C3B66429  31.362   2.212   7.053
10245POPC   C4B66430  31.299   2.193   7.353
10246POPC   NC366431  15.175  36.882   5.553
10246POPC   PO466432  15.176  36.873   5.853
10246POPC   GL166433  15.208  36.933   6.153
10246POPC   GL266434  15.119  36.730   6.153
10246POPC   C1A66435  15.167  36.909   6.453
10246POPC   D2A66436  15.198  36.949   6.753
10246POPC   C3A66437  15.221  36.911   7.053
10246POPC   C4A66438  15.203  36.863   7.353
10246POPC   C1B66439  15.124  36.625   6.453
10246POPC   C2B66440  15.106  36.630   6.753
10246POPC   C3B66441  15.129  36.616   7.053
10246POPC   C4B66442  15.162  36.623   7.353
10247POPC   NC366443  19.822  43.840   5.553
10247POPC   PO466444  19.870  43.841   5.853
10247POPC   GL166445  19.817  43.848   6.153
10247POPC   GL266446  19.739  43.811   6.153
10247POPC   C1A66447  19.812  43.899   6.453
10247POPC   D2A66448  19.847  43.875   6.753
10247POPC   C3A66449  19.876  43.904   7.053
10247POPC   C4A66450  19.790  43.880   7.353
10247POPC   C1B66451  19.663  43.748   6.453
10247POPC   C2B66452  19.608  43.775   6.753
10247POPC   C3B66453  19.615  43.795   7.053
10247POPC   C4B66454  19.615  43.713   7.353
10248POPC   NC366455  42.345   1.981   5.553
10248POPC   PO466456  42.331   1.994   5.853
10248POPC   GL166457  42.311   1.953   6.153
10248POPC   GL266458  42.297   1.850   6.153
10248POPC   C1A66459  42.374   1.957   6.453
10248POPC   D2A66460  42.374   2.003   6.753
10248POPC   C3A66461  42.348   1.989   7.053
10248POPC   C4A66462  42.331   1.965   7.353
10248POPC   C1B66463  42.155   1.806   6.453
10248POPC   C2B66464  42.198   1.735   6.753
10248POPC   C3B66465  42.183   1.810   7.053
10248POPC   C4B66466  42.225   1.813   7.353
10249POPC   NC366467  36.914   4.281   5.553
10249POPC   PO466468  36.898   4.284   5.853
10249POPC   GL166469  36.906   4.319   6.153
10249POPC   GL266470  36.952   4.152   6.153
10249POPC   C1A66471  36.948   4.315   6.453
10249POPC   D2A66472  36.869   4.344   6.753
10249POPC   C3A66473  36.936   4.348   7.053
10249POPC   C4A66474  36.934   4.288   7.353
10249POPC   C1B66475  36.937   4.081   6.453
10249POPC   C2B66476  36.930   4.074   6.753
10249POPC   C3B66477  36.984   4.119   7.053
10249POPC   C4B66478  36.962   4.117   7.353
10250POPC   NC366479  42.353  28.326   5.553
10250POPC   PO466480  42.362  28.412   5.853
10250POPC   GL166481  42.309  28.400   6.153
10250POPC   GL266482  42.473  28.311   6.153
10250POPC   C1A66483  42.349  28.357   6.453
10250POPC   D2A66484  42.300  28.378   6.753
10250POPC   C3A66485  42.308  28.329   7.053
10250POPC   C4A66486  42.332  28.417   7.353
10250POPC   C1B66487  42.530  28.276   6.453
10250POPC   C2B66488  42.586  28.210   6.753
10250POPC   C3B66489  42.554  28.222   7.053
10250POPC   C4B66490  42.576  28.271   7.353
10251POPC   NC366491  12.066   1.993   5.553
10251POPC   PO466492  12.110   2.007   5.853
10251POPC   GL166493  12.037   2.015   6.153
10251POPC   GL266494  12.181   2.003   6.153
10251POPC   C1A66495  12.099   2.024   6.453
10251POPC   D2A66496  12.067   1.986   6.753
10251POPC   C3A66497  12.111   2.001   7.053
10251POPC   C4A66498  12.075   2.023   7.353
10251POPC   C1B66499  12.302   2.096   6.453
10251POPC   C2B66500  12.274   2.066   6.753
10251POPC   C3B66501  12.348   2.063   7.053
10251POPC   C4B66502  12.328   2.058   7.353
10252POPC   NC366503  42.305   8.966   5.553
10252POPC   PO466504  42.369   8.925   5.853
10252POPC   GL166505  42.320   8.960   6.153
10252POPC   GL266506  42.181   9.024   6.153
10252POPC   C1A66507  42.379   8.924   6.453
10252POPC   D2A66508  42.370   9.020   6.753
10252POPC   C3A66509  42.323   8.927   7.053
10252POPC   C4A66510  42.350   8.992   7.353
10252POPC   C1B66511  42.082   9.082   6.453
10252POPC   C2B66512  42.099   9.022   6.753
10252POPC   C3B66513  42.142   9.047   7.053
10252POPC   C4B66514  42.093   9.090   7.353
10253POPC   NC366515  32.268  19.881   5.553
10253POPC   PO466516  32.287  19.842   5.853
10253POPC   GL166517  32.208  19.798   6.153
10253POPC   GL266518  32.411  19.837   6.153
10253POPC   C1A66519  32.279  19.861   6.453
10253POPC   D2A66520  32.244  19.872   6.753
10253POPC   C3A66521  32.260  19.847   7.053
10253POPC   C4A66522  32.296  19.834   7.353
10253POPC   C1B66523  32.476  19.902   6.453
10253POPC   C2B66524  32.523  19.866   6.753
10253POPC   C3B66525  32.450  19.903   7.053
10253POPC   C4B66526  32.462  19.879   7.353
10254POPC   NC366527  12.830  19.099   5.553
10254POPC   PO466528  12.813  19.072   5.853
10254POPC   GL166529  12.821  19.060   6.153
10254POPC   GL266530  13.015  19.085   6.153
10254POPC   C1A66531  12.901  19.073   6.453
10254POPC   D2A66532  12.897  19.108   6.753
10254POPC   C3A66533  12.813  19.022   7.053
10254POPC   C4A66534  12.868  19.106   7.353
10254POPC   C1B66535  13.052  19.085   6.453
10254POPC   C2B66536  13.116  19.093   6.753
10254POPC   C3B66537  13.077  19.141   7.053
10254POPC   C4B66538  13.130  19.139   7.353
10255POPC   NC366539   0.448  28.361   5.553
10255POPC   PO466540   0.402  28.401   5.853
10255POPC   GL166541   0.459  28.349   6.153
10255POPC   GL266542   0.365  28.221   6.153
10255POPC   C1A66543   0.433  28.370   6.453
10255POPC   D2A66544   0.438  28.343   6.753
10255POPC   C3A66545   0.415  28.399   7.053
10255POPC   C4A66546   0.418  28.363   7.353
10255POPC   C1B66547   0.353  28.172   6.453
10255POPC   C2B66548   0.338  28.127   6.753
10255POPC   C3B66549   0.396  28.139   7.053
10255POPC   C4B66550   0.360  28.155   7.353
10256POPC   NC366551  34.534  20.642   5.553
10256POPC   PO466552  34.529  20.618   5.853
10256POPC   GL166553  34.574  20.654   6.153
10256POPC   GL266554  34.519  20.742   6.153
10256POPC   C1A66555  34.537  20.580   6.453
10256POPC   D2A66556  34.622  20.614   6.753
10256POPC   C3A66557  34.616  20.595   7.053
10256POPC   C4A66558  34.575  20.625   7.353
10256POPC   C1B66559  34.474  20.832   6.453
10256POPC   C2B66560  34.437  20.809   6.753
10256POPC   C3B66561  34.479  20.877   7.053
10256POPC   C4B66562  34.507  20.827   7.353
10257POPC   NC366563  25.235  33.770   5.553
10257POPC   PO466564  25.243  33.844   5.853
10257POPC   GL166565  25.223  33.842   6.153
10257POPC   GL266566  25.366  33.946   6.153
10257POPC   C1A66567  25.289  33.772   6.453
10257POPC   D2A66568  25.269  33.781   6.753
10257POPC   C3A66569  25.236  33.842   7.053
10257POPC   C4A66570  25.297  33.814   7.353
10257POPC   C1B66571  25.389  34.041   6.453
10257POPC   C2B66572  25.376  34.031   6.753
10257POPC   C3B66573  25.364  33.975   7.053
10257POPC   C4B66574  25.342  34.068   7.353
10258POPC   NC366575  16.768   2.768   5.553
10258POPC   PO466576  16.699   2.795   5.853
10258POPC   GL166577  16.698   2.720   6.153
10258POPC   GL266578  16.800   2.846   6.153
10258POPC   C1A66579  16.698   2.751   6.453
10258POPC   D2A66580  16.703   2.778   6.753
10258POPC   C3A66581  16.776   2.780   7.053
10258POPC   C4A66582  16.761   2.731   7.353
10258POPC   C1B66583  16.868   2.934   6.453
10258POPC   C2B66584  16.865   2.915   6.753
10258POPC   C3B66585  16.857   2.971   7.053
10258POPC   C4B66586  16.902   2.905   7.353
10259POPC   NC366587  11.284  39.257   5.553
10259POPC   PO466588  11.270  39.270   5.853
10259POPC   GL166589  11.284  39.187   6.153
10259POPC   GL266590  11.171  39.158   6.153
10259POPC   C1A66591  11.284  39.187   6.453
10259POPC   D2A66592  11.340  39.203   6.753
10259POPC   C3A66593  11.263  39.276   7.053
10259POPC   C4A66594  11.256  39.190   7.353
10259POPC   C1B66595  11.035  39.195   6.453
10259POPC   C2B66596  11.038  39.216   6.753
10259POPC   C3B66597  11.068  39.132   7.053
10259POPC   C4B66598  11.089  39.131   7.353
10260POPC   NC366599  34.626   6.642   5.553
10260POPC   PO466600  34.537   6.686   5.853
10260POPC   GL166601  34.622   6.643   6.153
10260POPC   GL266602  34.475   6.635   6.153
10260POPC   C1A66603  34.547   6.596   6.453
10260POPC   D2A66604  34.598   6.617   6.753
10260POPC   C3A66605  34.578   6.686   7.053
10260POPC   C4A66606  34.625   6.635   7.353
10260POPC   C1B66607  34.303   6.659   6.453
10260POPC   C2B66608  34.315   6.632   6.753
10260POPC   C3B66609  34.319   6.691   7.053
10260POPC   C4B66610  34.326   6.652   7.353
10261POPC   NC366611  23.673  11.262   5.553
10261POPC   PO466612  23.683  11.269   5.853
10261POPC   GL166613  23.669  11.277   6.153
10261POPC   GL266614  23.701  11.177   6.153
10261POPC   C1A66615  23.731  11.262   6.453
10261POPC   D2A66616  23.727  11.296   6.753
10261POPC   C3A66617  23.691  11.302   7.053
10261POPC   C4A66618  23.735  11.328   7.353
10261POPC   C1B66619  23.582  11.037   6.453
10261POPC   C2B66620  23.636  11.109   6.753
10261POPC   C3B66621  23.625  11.064   7.053
10261POPC   C4B66622  23.663  11.039   7.353
10262POPC   NC366623  19.041   4.304   5.553
10262POPC   PO466624  19.040   4.326   5.853
10262POPC   GL166625  19.091   4.350   6.153
10262POPC   GL266626  19.138   4.229   6.153
10262POPC   C1A66627  19.066   4.342   6.453
10262POPC   D2A66628  19.103   4.287   6.753
10262POPC   C3A66629  19.025   4.275   7.053
10262POPC   C4A66630  19.035   4.307   7.353
10262POPC   C1B66631  19.104   4.087   6.453
10262POPC   C2B66632  19.099   4.085   6.753
10262POPC   C3B66633  19.123   4.034   7.053
10262POPC   C4B66634  19.134   4.123   7.353
10263POPC   NC366635  38.495  33.058   5.553
10263POPC   PO466636  38.438  33.072   5.853
10263POPC   GL166637  38.415  33.007   6.153
10263POPC   GL266638  38.379  33.121   6.153
10263POPC   C1A66639  38.418  32.983   6.453
10263POPC   D2A66640  38.474  33.041   6.753
10263POPC   C3A66641  38.451  32.987   7.053
10263POPC   C4A66642  38.407  33.047   7.353
10263POPC   C1B66643  38.370  33.237   6.453
10263POPC   C2B66644  38.308  33.192   6.753
10263POPC   C3B66645  38.323  33.222   7.053
10263POPC   C4B66646  38.349  33.232   7.353
10264POPC   NC366647  35.391  41.554   5.553
10264POPC   PO466648  35.333  41.523   5.853
10264POPC   GL166649  35.321  41.594   6.153
10264POPC   GL266650  35.342  41.425   6.153
10264POPC   C1A66651  35.386  41.599   6.453
10264POPC   D2A66652  35.387  41.578   6.753
10264POPC   C3A66653  35.305  41.602   7.053
10264POPC   C4A66654  35.381  41.526   7.353
10264POPC   C1B66655  35.288  41.317   6.453
10264POPC   C2B66656  35.300  41.300   6.753
10264POPC   C3B66657  35.341  41.344   7.053
10264POPC   C4B66658  35.369  41.341   7.353
10265POPC   NC366659  37.632  14.385   5.553
10265POPC   PO466660  37.708  14.372   5.853
10265POPC   GL166661  37.664  14.451   6.153
10265POPC   GL266662  37.588  14.389   6.153
10265POPC   C1A66663  37.717  14.408   6.453
10265POPC   D2A66664  37.637  14.365   6.753
10265POPC   C3A66665  37.726  14.363   7.053
10265POPC   C4A66666  37.643  14.387   7.353
10265POPC   C1B66667  37.431  14.258   6.453
10265POPC   C2B66668  37.488  14.302   6.753
10265POPC   C3B66669  37.451  14.282   7.053
10265POPC   C4B66670  37.414  14.271   7.353
10266POPC   NC366671  32.199  27.570   5.553
10266POPC   PO466672  32.279  27.640   5.853
10266POPC   GL166673  32.250  27.641   6.153
10266POPC   GL266674  32.343  27.490   6.153
10266POPC   C1A66675  32.285  27.575   6.453
10266POPC   D2A66676  32.208  27.590   6.753
10266POPC   C3A66677  32.229  27.553   7.053
10266POPC   C4A66678  32.288  27.592   7.353
10266POPC   C1B66679  32.397  27.477   6.453
10266POPC   C2B66680  32.418  27.388   6.753
10266POPC   C3B66681  32.439  27.448   7.053
10266POPC   C4B66682  32.489  27.476   7.353
10267POPC   NC366683  36.119  29.147   5.553
10267POPC   PO466684  36.172  29.156   5.853
10267POPC   GL166685  36.126  29.134   6.153
10267POPC   GL266686  36.220  29.250   6.153
10267POPC   C1A66687  36.087  29.145   6.453
10267POPC   D2A66688  36.119  29.139   6.753
10267POPC   C3A66689  36.089  29.188   7.053
10267POPC   C4A66690  36.117  29.103   7.353
10267POPC   C1B66691  36.370  29.278   6.453
10267POPC   C2B66692  36.343  29.303   6.753
10267POPC   C3B66693  36.331  29.263   7.053
10267POPC   C4B66694  36.310  29.282   7.353
10268POPC   NC366695  40.808  30.693   5.553
10268POPC   PO466696  40.737  30.672   5.853
10268POPC   GL166697  40.796  30.691   6.153
10268POPC   GL266698  40.863  30.786   6.153
10268POPC   C1A66699  40.735  30.720   6.453
10268POPC   D2A66700  40.823  30.736   6.753
10268POPC   C3A66701  40.794  30.694   7.053
10268POPC   C4A66702  40.746  30.737   7.353
10268POPC   C1B66703  41.011  30.840   6.453
10268POPC   C2B66704  40.971  30.818   6.753
10268POPC   C3B66705  40.959  30.795   7.053
10268POPC   C4B66706  41.014  30.825   7.353
10269POPC   NC366707  29.114  36.868   5.553
10269POPC   PO466708  29.145  36.946   5.853
10269POPC   GL166709  29.193  36.915   6.153
10269POPC   GL266710  29.051  36.998   6.153
10269POPC   C1A66711  29.106  36.898   6.453
10269POPC   D2A66712  29.149  36.924   6.753
10269POPC   C3A66713  29.148  36.914   7.053
10269POPC   C4A66714  29.184  36.900   7.353
10269POPC   C1B66715  28.900  37.021   6.453
10269POPC   C2B66716  28.875  36.964   6.753
10269POPC   C3B66717  28.892  37.041   7.053
10269POPC   C4B66718  28.911  37.010   7.353
10270POPC   NC366719  20.659  33.778   5.553
10270POPC   PO466720  20.597  33.815   5.853
10270POPC   GL166721  20.636  33.810   6.153
10270POPC   GL266722  20.538  33.882   6.153
10270POPC   C1A66723  20.601  33.827   6.453
10270POPC   D2A66724  20.600  33.840   6.753
10270POPC   C3A66725  20.578  33.823   7.053
10270POPC   C4A66726  20.651  33.795   7.353
10270POPC   C1B66727  20.397  33.855   6.453
10270POPC   C2B66728  20.427  33.884   6.753
10270POPC   C3B66729  20.421  33.894   7.053
10270POPC   C4B66730  20.335  33.917   7.353
10271POPC   NC366731  30.737  34.567   5.553
10271POPC   PO466732  30.712  34.601   5.853
10271POPC   GL166733  30.738  34.594   6.153
10271POPC   GL266734  30.600  34.539   6.153
10271POPC   C1A66735  30.683  34.557   6.453
10271POPC   D2A66736  30.683  34.544   6.753
10271POPC   C3A66737  30.669  34.606   7.053
10271POPC   C4A66738  30.676  34.626   7.353
10271POPC   C1B66739  30.471  34.468   6.453
10271POPC   C2B66740  30.475  34.495   6.753
10271POPC   C3B66741  30.488  34.522   7.053
10271POPC   C4B66742  30.474  34.450   7.353
10272POPC   NC366743   1.220  22.893   5.553
10272POPC   PO466744   1.180  22.966   5.853
10272POPC   GL166745   1.222  22.960   6.153
10272POPC   GL266746   1.285  23.019   6.153
10272POPC   C1A66747   1.240  22.930   6.453
10272POPC   D2A66748   1.257  22.945   6.753
10272POPC   C3A66749   1.191  22.922   7.053
10272POPC   C4A66750   1.213  22.923   7.353
10272POPC   C1B66751   1.291  23.222   6.453
10272POPC   C2B66752   1.314  23.181   6.753
10272POPC   C3B66753   1.302  23.175   7.053
10272POPC   C4B66754   1.276  23.173   7.353
10273POPC   NC366755   4.351   0.425   5.553
10273POPC   PO466756   4.367   0.421   5.853
10273POPC   GL166757   4.355   0.392   6.153
10273POPC   GL266758   4.255   0.511   6.153
10273POPC   C1A66759   4.277   0.424   6.453
10273POPC   D2A66760   4.311   0.484   6.753
10273POPC   C3A66761   4.335   0.455   7.053
10273POPC   C4A66762   4.308   0.434   7.353
10273POPC   C1B66763   4.138   0.576   6.453
10273POPC   C2B66764   4.105   0.656   6.753
10273POPC   C3B66765   4.189   0.578   7.053
10273POPC   C4B66766   4.143   0.663   7.353
10274POPC   NC366767   5.842  23.666   5.553
10274POPC   PO466768   5.885  23.681   5.853
10274POPC   GL166769   5.855  23.680   6.153
10274POPC   GL266770   5.712  23.669   6.153
10274POPC   C1A66771   5.839  23.703   6.453
10274POPC   D2A66772   5.849  23.722   6.753
10274POPC   C3A66773   5.836  23.749   7.053
10274POPC   C4A66774   5.915  23.698   7.353
10274POPC   C1B66775   5.628  23.623   6.453
10274POPC   C2B66776   5.634  23.662   6.753
10274POPC   C3B66777   5.649  23.568   7.053
10274POPC   C4B66778   5.681  23.586   7.353
10275POPC   NC366779  22.155  41.560   5.553
10275POPC   PO466780  22.210  41.593   5.853
10275POPC   GL166781  22.175  41.606   6.153
10275POPC   GL266782  22.190  41.391   6.153
10275POPC   C1A66783  22.196  41.543   6.453
10275POPC   D2A66784  22.205  41.532   6.753
10275POPC   C3A66785  22.113  41.528   7.053
10275POPC   C4A66786  22.157  41.558   7.353
10275POPC   C1B66787  22.176  41.322   6.453
10275POPC   C2B66788  22.201  41.346   6.753
10275POPC   C3B66789  22.143  41.306   7.053
10275POPC   C4B66790  22.201  41.344   7.353
10276POPC   NC366791  40.759  38.430   5.553
10276POPC   PO466792  40.737  38.406   5.853
10276POPC   GL166793  40.753  38.489   6.153
10276POPC   GL266794  40.656  38.385   6.153
10276POPC   C1A66795  40.803  38.418   6.453
10276POPC   D2A66796  40.772  38.437   6.753
10276POPC   C3A66797  40.798  38.436   7.053
10276POPC   C4A66798  40.796  38.424   7.353
10276POPC   C1B66799  40.541  38.422   6.453
10276POPC   C2B66800  40.579  38.356   6.753
10276POPC   C3B66801  40.575  38.372   7.053
10276POPC   C4B66802  40.564  38.406   7.353
10277POPC   NC366803  11.334  16.744   5.553
10277POPC   PO466804  11.272  16.721   5.853
10277POPC   GL166805  11.344  16.713   6.153
10277POPC   GL266806  11.400  16.829   6.153
10277POPC   C1A66807  11.341  16.735   6.453
10277POPC   D2A66808  11.298  16.752   6.753
10277POPC   C3A66809  11.289  16.692   7.053
10277POPC   C4A66810  11.335  16.692   7.353
10277POPC   C1B66811  11.542  16.844   6.453
10277POPC   C2B66812  11.549  16.923   6.753
10277POPC   C3B66813  11.461  16.914   7.053
10277POPC   C4B66814  11.467  16.891   7.353
10278POPC   NC366815  36.900  28.340   5.553
10278POPC   PO466816  36.858  28.382   5.853
10278POPC   GL166817  36.877  28.379   6.153
10278POPC   GL266818  36.872  28.503   6.153
10278POPC   C1A66819  36.952  28.353   6.453
10278POPC   D2A66820  36.940  28.417   6.753
10278POPC   C3A66821  36.916  28.388   7.053
10278POPC   C4A66822  36.878  28.412   7.353
10278POPC   C1B66823  36.804  28.593   6.453
10278POPC   C2B66824  36.827  28.555   6.753
10278POPC   C3B66825  36.836  28.621   7.053
10278POPC   C4B66826  36.773  28.607   7.353
10279POPC   NC366827  15.211   5.825   5.553
10279POPC   PO466828  15.228   5.853   5.853
10279POPC   GL166829  15.200   5.854   6.153
10279POPC   GL266830  15.213   6.014   6.153
10279POPC   C1A66831  15.160   5.867   6.453
10279POPC   D2A66832  15.138   5.878   6.753
10279POPC   C3A66833  15.171   5.858   7.053
10279POPC   C4A66834  15.203   5.864   7.353
10279POPC   C1B66835  15.187   6.149   6.453
10279POPC   C2B66836  15.157   6.116   6.753
10279POPC   C3B66837  15.185   6.104   7.053
10279POPC   C4B66838  15.166   6.105   7.353
10280POPC   NC366839  43.876  27.602   5.553
10280POPC   PO466840  43.927  27.590   5.853
10280POPC   GL166841  43.880  27.554   6.153
10280POPC   GL266842  43.782  27.501   6.153
10280POPC   C1A66843  43.924  27.565   6.453
10280POPC   D2A66844  43.924  27.631   6.753
10280POPC   C3A66845  43.925  27.612   7.053
10280POPC   C4A66846  43.887  27.637   7.353
10280POPC   C1B66847  43.679  27.377   6.453
10280POPC   C2B66848  43.737  27.443   6.753
10280POPC   C3B66849  43.758  27.407   7.053
10280POPC   C4B66850  43.716  27.435   7.353
10281POPC   NC366851   5.106  44.629   5.553
10281POPC   PO466852   5.091  44.677   5.853
10281POPC   GL166853   5.080  44.693   6.153
10281POPC   GL266854   5.087  44.570   6.153
10281POPC   C1A66855   5.139  44.673   6.453
10281POPC   D2A66856   5.121  44.645   6.753
10281POPC   C3A66857   5.117  44.663   7.053
10281POPC   C4A66858   5.068  44.621   7.353
10281POPC   C1B66859   5.006  44.465   6.453
10281POPC   C2B66860   4.968  44.462   6.753
10281POPC   C3B66861   5.049  44.395   7.053
10281POPC   C4B66862   4.984  44.438   7.353
10282POPC   NC366863  18.314  34.551   5.553
10282POPC   PO466864  18.308  34.614   5.853
10282POPC   GL166865  18.282  34.568   6.153
10282POPC   GL266866  18.390  34.498   6.153
10282POPC   C1A66867  18.309  34.612   6.453
10282POPC   D2A66868  18.323  34.555   6.753
10282POPC   C3A66869  18.252  34.624   7.053
10282POPC   C4A66870  18.308  34.550   7.353
10282POPC   C1B66871  18.433  34.371   6.453
10282POPC   C2B66872  18.449  34.338   6.753
10282POPC   C3B66873  18.419  34.411   7.053
10282POPC   C4B66874  18.448  34.353   7.353
10283POPC   NC366875  36.140  28.414   5.553
10283POPC   PO466876  36.101  28.398   5.853
10283POPC   GL166877  36.088  28.366   6.153
10283POPC   GL266878  36.118  28.280   6.153
10283POPC   C1A66879  36.120  28.358   6.453
10283POPC   D2A66880  36.143  28.360   6.753
10283POPC   C3A66881  36.162  28.370   7.053
10283POPC   C4A66882  36.078  28.326   7.353
10283POPC   C1B66883  36.160  28.113   6.453
10283POPC   C2B66884  36.185  28.118   6.753
10283POPC   C3B66885  36.166  28.077   7.053
10283POPC   C4B66886  36.132  28.121   7.353
10284POPC   NC366887  38.491  42.378   5.553
10284POPC   PO466888  38.476  42.303   5.853
10284POPC   GL166889  38.480  42.293   6.153
10284POPC   GL266890  38.456  42.484   6.153
10284POPC   C1A66891  38.452  42.344   6.453
10284POPC   D2A66892  38.447  42.322   6.753
10284POPC   C3A66893  38.437  42.344   7.053
10284POPC   C4A66894  38.431  42.341   7.353
10284POPC   C1B66895  38.389  42.548   6.453
10284POPC   C2B66896  38.378  42.599   6.753
10284POPC   C3B66897  38.424  42.539   7.053
10284POPC   C4B66898  38.370  42.629   7.353
10285POPC   NC366899  32.992  22.163   5.553
10285POPC   PO466900  33.007  22.156   5.853
10285POPC   GL166901  33.070  22.149   6.153
10285POPC   GL266902  32.935  22.320   6.153
10285POPC   C1A66903  33.054  22.179   6.453
10285POPC   D2A66904  33.006  22.178   6.753
10285POPC   C3A66905  32.996  22.167   7.053
10285POPC   C4A66906  32.978  22.193   7.353
10285POPC   C1B66907  32.969  22.389   6.453
10285POPC   C2B66908  32.967  22.373   6.753
10285POPC   C3B66909  32.967  22.381   7.053
10285POPC   C4B66910  32.938  22.356   7.353
10286POPC   NC366911  29.881  20.606   5.553
10286POPC   PO466912  29.915  20.660   5.853
10286POPC   GL166913  29.920  20.565   6.153
10286POPC   GL266914  29.962  20.530   6.153
10286POPC   C1A66915  29.910  20.623   6.453
10286POPC   D2A66916  29.915  20.570   6.753
10286POPC   C3A66917  29.968  20.591   7.053
10286POPC   C4A66918  29.876  20.626   7.353
10286POPC   C1B66919  30.069  20.419   6.453
10286POPC   C2B66920  30.111  20.438   6.753
10286POPC   C3B66921  30.090  20.416   7.053
10286POPC   C4B66922  30.086  20.457   7.353
10287POPC   NC366923  22.185  12.878   5.553
10287POPC   PO466924  22.137  12.902   5.853
10287POPC   GL166925  22.209  12.870   6.153
10287POPC   GL266926  22.158  12.746   6.153
10287POPC   C1A66927  22.170  12.887   6.453
10287POPC   D2A66928  22.136  12.891   6.753
10287POPC   C3A66929  22.122  12.895   7.053
10287POPC   C4A66930  22.176  12.844   7.353
10287POPC   C1B66931  22.057  12.631   6.453
10287POPC   C2B66932  22.083  12.623   6.753
10287POPC   C3B66933  22.080  12.581   7.053
10287POPC   C4B66934  22.108  12.594   7.353
10288POPC   NC366935  22.952  29.111   5.553
10288POPC   PO466936  22.915  29.190   5.853
10288POPC   GL166937  22.908  29.164   6.153
10288POPC   GL266938  22.859  29.096   6.153
10288POPC   C1A66939  22.982  29.171   6.453
10288POPC   D2A66940  22.977  29.180   6.753
10288POPC   C3A66941  22.986  29.152   7.053
10288POPC   C4A66942  22.934  29.148   7.353
10288POPC   C1B66943  22.737  29.147   6.453
10288POPC   C2B66944  22.694  29.151   6.753
10288POPC   C3B66945  22.686  29.092   7.053
10288POPC   C4B66946  22.702  29.158   7.353
10289POPC   NC366947  11.271  10.538   5.553
10289POPC   PO466948  11.281  10.543   5.853
10289POPC   GL166949  11.260  10.507   6.153
10289POPC   GL266950  11.210  10.533   6.153
10289POPC   C1A66951  11.306  10.507   6.453
10289POPC   D2A66952  11.340  10.502   6.753
10289POPC   C3A66953  11.255  10.568   7.053
10289POPC   C4A66954  11.309  10.526   7.353
10289POPC   C1B66955  11.026  10.592   6.453
10289POPC   C2B66956  11.076  10.555   6.753
10289POPC   C3B66957  11.042  10.556   7.053
10289POPC   C4B66958  11.041  10.544   7.353
10290POPC   NC366959  22.905  16.754   5.553
10290POPC   PO466960  22.985  16.772   5.853
10290POPC   GL166961  22.927  16.726   6.153
10290POPC   GL266962  22.955  16.881   6.153
10290POPC   C1A66963  22.889  16.711   6.453
10290POPC   D2A66964  22.929  16.689   6.753
10290POPC   C3A66965  22.888  16.755   7.053
10290POPC   C4A66966  22.922  16.742   7.353
10290POPC   C1B66967  22.980  16.931   6.453
10290POPC   C2B66968  23.005  16.999   6.753
10290POPC   C3B66969  22.981  16.964   7.053
10290POPC   C4B66970  22.979  16.989   7.353
10291POPC   NC366971   2.034  19.074   5.553
10291POPC   PO466972   1.962  19.079   5.853
10291POPC   GL166973   1.956  19.050   6.153
10291POPC   GL266974   1.961  18.966   6.153
10291POPC   C1A66975   2.036  19.023   6.453
10291POPC   D2A66976   1.968  19.107   6.753
10291POPC   C3A66977   1.980  19.089   7.053
10291POPC   C4A66978   1.973  19.037   7.353
10291POPC   C1B66979   1.884  18.788   6.453
10291POPC   C2B66980   1.851  18.852   6.753
10291POPC   C3B66981   1.898  18.837   7.053
10291POPC   C4B66982   1.925  18.826   7.353
10292POPC   NC366983  36.941   3.534   5.553
10292POPC   PO466984  36.907   3.514   5.853
10292POPC   GL166985  36.947   3.527   6.153
10292POPC   GL266986  37.044   3.433   6.153
10292POPC   C1A66987  36.937   3.540   6.453
10292POPC   D2A66988  36.876   3.571   6.753
10292POPC   C3A66989  36.935   3.518   7.053
10292POPC   C4A66990  36.854   3.505   7.353
10292POPC   C1B66991  37.102   3.384   6.453
10292POPC   C2B66992  37.059   3.413   6.753
10292POPC   C3B66993  37.119   3.432   7.053
10292POPC   C4B66994  37.066   3.421   7.353
10293POPC   NC366995  11.330  29.896   5.553
10293POPC   PO466996  11.327  29.936   5.853
10293POPC   GL166997  11.312  29.878   6.153
10293POPC   GL266998  11.330  30.052   6.153
10293POPC   C1A66999  11.328  29.887   6.453
10293POPC   D2A67000  11.293  29.928   6.753
10293POPC   C3A67001  11.318  29.885   7.053
10293POPC   C4A67002  11.332  29.875   7.353
10293POPC   C1B67003  11.348  30.164   6.453
10293POPC   C2B67004  11.338  30.172   6.753
10293POPC   C3B67005  11.352  30.192   7.053
10293POPC   C4B67006  11.352  30.115   7.353
10294POPC   NC367007   7.466  33.059   5.553
10294POPC   PO467008   7.453  33.041   5.853
10294POPC   GL167009   7.393  33.056   6.153
10294POPC   GL267010   7.352  32.965   6.153
10294POPC   C1A67011   7.381  32.987   6.453
10294POPC   D2A67012   7.431  33.062   6.753
10294POPC   C3A67013   7.470  33.063   7.053
10294POPC   C4A67014   7.457  33.042   7.353
10294POPC   C1B67015   7.233  32.813   6.453
10294POPC   C2B67016   7.292  32.826   6.753
10294POPC   C3B67017   7.287  32.860   7.053
10294POPC   C4B67018   7.206  32.848   7.353
10295POPC   NC367019  11.335  26.035   5.553
10295POPC   PO467020  11.284  26.064   5.853
10295POPC   GL167021  11.320  26.039   6.153
10295POPC   GL267022  11.175  26.105   6.153
10295POPC   C1A67023  11.325  26.024   6.453
10295POPC   D2A67024  11.262  25.994   6.753
10295POPC   C3A67025  11.348  25.997   7.053
10295POPC   C4A67026  11.272  26.038   7.353
10295POPC   C1B67027  11.151  26.206   6.453
10295POPC   C2B67028  11.130  26.205   6.753
10295POPC   C3B67029  11.097  26.264   7.053
10295POPC   C4B67030  11.129  26.217   7.353
10296POPC   NC367031   1.238  10.507   5.553
10296POPC   PO467032   1.206  10.524   5.853
10296POPC   GL167033   1.165  10.511   6.153
10296POPC   GL267034   1.356  10.460   6.153
10296POPC   C1A67035   1.223  10.560   6.453
10296POPC   D2A67036   1.225  10.572   6.753
10296POPC   C3A67037   1.177  10.490   7.053
10296POPC   C4A67038   1.214  10.481   7.353
10296POPC   C1B67039   1.459  10.438   6.453
10296POPC   C2B67040   1.476  10.469   6.753
10296POPC   C3B67041   1.444  10.423   7.053
10296POPC   C4B67042   1.438  10.461   7.353
10297POPC   NC367043   5.065  28.356   5.553
10297POPC   PO467044   5.067  28.346   5.853
10297POPC   GL167045   5.044  28.360   6.153
10297POPC   GL267046   5.226  28.385   6.153
10297POPC   C1A67047   5.070  28.407   6.453
10297POPC   D2A67048   5.054  28.370   6.753
10297POPC   C3A67049   5.059  28.378   7.053
10297POPC   C4A67050   5.110  28.327   7.353
10297POPC   C1B67051   5.308  28.479   6.453
10297POPC   C2B67052   5.317  28.511   6.753
10297POPC   C3B67053   5.352  28.491   7.053
10297POPC   C4B67054   5.276  28.505   7.353
10298POPC   NC367055  12.097  21.356   5.553
10298POPC   PO467056  12.040  21.400   5.853
10298POPC   GL167057  12.078  21.399   6.153
10298POPC   GL267058  12.135  21.478   6.153
10298POPC   C1A67059  12.034  21.385   6.453
10298POPC   D2A67060  12.125  21.404   6.753
10298POPC   C3A67061  12.105  21.401   7.053
10298POPC   C4A67062  12.087  21.431   7.353
10298POPC   C1B67063  12.169  21.587   6.453
10298POPC   C2B67064  12.203  21.671   6.753
10298POPC   C3B67065  12.182  21.609   7.053
10298POPC   C4B67066  12.156  21.662   7.353
10299POPC   NC367067  39.252  38.437   5.553
10299POPC   PO467068  39.242  38.489   5.853
10299POPC   GL167069  39.202  38.504   6.153
10299POPC   GL267070  39.199  38.545   6.153
10299POPC   C1A67071  39.268  38.421   6.453
10299POPC   D2A67072  39.243  38.476   6.753
10299POPC   C3A67073  39.244  38.476   7.053
10299POPC   C4A67074  39.194  38.458   7.353
10299POPC   C1B67075  39.162  38.749   6.453
10299POPC   C2B67076  39.228  38.706   6.753
10299POPC   C3B67077  39.218  38.664   7.053
10299POPC   C4B67078  39.163  38.743   7.353
10300POPC   NC367079   5.087  17.504   5.553
10300POPC   PO467080   5.071  17.529   5.853
10300POPC   GL167081   5.110  17.495   6.153
10300POPC   GL267082   4.945  17.533   6.153
10300POPC   C1A67083   5.049  17.546   6.453
10300POPC   D2A67084   5.119  17.523   6.753
10300POPC   C3A67085   5.048  17.482   7.053
10300POPC   C4A67086   5.083  17.516   7.353
10300POPC   C1B67087   4.816  17.568   6.453
10300POPC   C2B67088   4.890  17.545   6.753
10300POPC   C3B67089   4.823  17.540   7.053
10300POPC   C4B67090   4.887  17.566   7.353
10301POPC   NC367091   5.872  16.745   5.553
10301POPC   PO467092   5.910  16.689   5.853
10301POPC   GL167093   5.894  16.738   6.153
10301POPC   GL267094   5.995  16.849   6.153
10301POPC   C1A67095   5.855  16.697   6.453
10301POPC   D2A67096   5.904  16.780   6.753
10301POPC   C3A67097   5.860  16.705   7.053
10301POPC   C4A67098   5.850  16.693   7.353
10301POPC   C1B67099   6.063  16.900   6.453
10301POPC   C2B67100   6.006  16.911   6.753
10301POPC   C3B67101   6.052  16.916   7.053
10301POPC   C4B67102   6.039  16.937   7.353
10302POPC   NC367103  43.913  12.062   5.553
10302POPC   PO467104  43.864  12.047   5.853
10302POPC   GL167105  43.837  12.033   6.153
10302POPC   GL267106  43.976  11.967   6.153
10302POPC   C1A67107  43.914  12.101   6.453
10302POPC   D2A67108  43.902  12.030   6.753
10302POPC   C3A67109  43.874  12.096   7.053
10302POPC   C4A67110  43.922  12.035   7.353
10302POPC   C1B67111  44.033  11.873   6.453
10302POPC   C2B67112  44.071  11.915   6.753
10302POPC   C3B67113  44.001  11.862   7.053
10302POPC   C4B67114  44.009  11.843   7.353
10303POPC   NC367115   2.785  38.405   5.553
10303POPC   PO467116   2.798  38.423   5.853
10303POPC   GL167117   2.777  38.407   6.153
10303POPC   GL267118   2.895  38.436   6.153
10303POPC   C1A67119   2.744  38.464   6.453
10303POPC   D2A67120   2.788  38.452   6.753
10303POPC   C3A67121   2.761  38.493   7.053
10303POPC   C4A67122   2.784  38.409   7.353
10303POPC   C1B67123   3.032  38.396   6.453
10303POPC   C2B67124   3.012  38.430   6.753
10303POPC   C3B67125   2.983  38.453   7.053
10303POPC   C4B67126   2.987  38.409   7.353
10304POPC   NC367127  13.612  37.671   5.553
10304POPC   PO467128  13.636  37.660   5.853
10304POPC   GL167129  13.614  37.687   6.153
10304POPC   GL267130  13.535  37.609   6.153
10304POPC   C1A67131  13.592  37.665   6.453
10304POPC   D2A67132  13.636  37.663   6.753
10304POPC   C3A67133  13.607  37.715   7.053
10304POPC   C4A67134  13.617  37.709   7.353
10304POPC   C1B67135  13.362  37.627   6.453
10304POPC   C2B67136  13.378  37.637   6.753
10304POPC   C3B67137  13.402  37.599   7.053
10304POPC   C4B67138  13.443  37.582   7.353
10305POPC   NC367139  35.338   5.895   5.553
10305POPC   PO467140  35.310   5.875   5.853
10305POPC   GL167141  35.360   5.859   6.153
10305POPC   GL267142  35.229   5.859   6.153
10305POPC   C1A67143  35.362   5.869   6.453
10305POPC   D2A67144  35.313   5.860   6.753
10305POPC   C3A67145  35.367   5.889   7.053
10305POPC   C4A67146  35.348   5.862   7.353
10305POPC   C1B67147  35.093   5.866   6.453
10305POPC   C2B67148  35.141   5.862   6.753
10305POPC   C3B67149  35.073   5.924   7.053
10305POPC   C4B67150  35.081   5.910   7.353
10306POPC   NC367151  11.289  13.590   5.553
10306POPC   PO467152  11.320  13.619   5.853
10306POPC   GL167153  11.328  13.636   6.153
10306POPC   GL267154  11.431  13.731   6.153
10306POPC   C1A67155  11.283  13.649   6.453
10306POPC   D2A67156  11.272  13.677   6.753
10306POPC   C3A67157  11.310  13.625   7.053
10306POPC   C4A67158  11.286  13.650   7.353
10306POPC   C1B67159  11.506  13.801   6.453
10306POPC   C2B67160  11.476  13.748   6.753
10306POPC   C3B67161  11.522  13.786   7.053
10306POPC   C4B67162  11.461  13.736   7.353
10307POPC   NC367163  26.035  41.534   5.553
10307POPC   PO467164  26.084  41.521   5.853
10307POPC   GL167165  26.007  41.513   6.153
10307POPC   GL267166  26.016  41.416   6.153
10307POPC   C1A67167  25.999  41.530   6.453
10307POPC   D2A67168  26.067  41.594   6.753
10307POPC   C3A67169  26.022  41.524   7.053
10307POPC   C4A67170  25.992  41.544   7.353
10307POPC   C1B67171  26.043  41.272   6.453
10307POPC   C2B67172  26.039  41.300   6.753
10307POPC   C3B67173  26.105  41.356   7.053
10307POPC   C4B67174  26.012  41.335   7.353
10308POPC   NC367175  15.906  19.830   5.553
10308POPC   PO467176  15.947  19.798   5.853
10308POPC   GL167177  15.981  19.792   6.153
10308POPC   GL267178  16.107  19.894   6.153
10308POPC   C1A67179  15.947  19.811   6.453
10308POPC   D2A67180  16.003  19.854   6.753
10308POPC   C3A67181  15.954  19.834   7.053
10308POPC   C4A67182  15.991  19.864   7.353
10308POPC   C1B67183  16.192  19.915   6.453
10308POPC   C2B67184  16.226  19.899   6.753
10308POPC   C3B67185  16.173  19.858   7.053
10308POPC   C4B67186  16.231  19.923   7.353
10309POPC   NC367187  29.900  34.604   5.553
10309POPC   PO467188  29.917  34.618   5.853
10309POPC   GL167189  29.931  34.622   6.153
10309POPC   GL267190  29.974  34.677   6.153
10309POPC   C1A67191  29.883  34.579   6.453
10309POPC   D2A67192  29.965  34.616   6.753
10309POPC   C3A67193  29.962  34.569   7.053
10309POPC   C4A67194  29.915  34.561   7.353
10309POPC   C1B67195  30.153  34.767   6.453
10309POPC   C2B67196  30.106  34.678   6.753
10309POPC   C3B67197  30.172  34.707   7.053
10309POPC   C4B67198  30.090  34.718   7.353
10310POPC   NC367199  32.218  19.074   5.553
10310POPC   PO467200  32.226  19.016   5.853
10310POPC   GL167201  32.208  19.080   6.153
10310POPC   GL267202  32.296  18.983   6.153
10310POPC   C1A67203  32.270  19.076   6.453
10310POPC   D2A67204  32.241  19.098   6.753
10310POPC   C3A67205  32.219  19.044   7.053
10310POPC   C4A67206  32.241  19.060   7.353
10310POPC   C1B67207  32.391  18.867   6.453
10310POPC   C2B67208  32.307  18.847   6.753
10310POPC   C3B67209  32.369  18.839   7.053
10310POPC   C4B67210  32.313  18.795   7.353
10311POPC   NC367211  19.042  32.262   5.553
10311POPC   PO467212  19.066  32.281   5.853
10311POPC   GL167213  19.040  32.207   6.153
10311POPC   GL267214  19.010  32.323   6.153
10311POPC   C1A67215  19.042  32.203   6.453
10311POPC   D2A67216  19.091  32.251   6.753
10311POPC   C3A67217  19.055  32.262   7.053
10311POPC   C4A67218  19.033  32.274   7.353
10311POPC   C1B67219  19.043  32.453   6.453
10311POPC   C2B67220  19.071  32.471   6.753
10311POPC   C3B67221  19.065  32.516   7.053
10311POPC   C4B67222  19.014  32.519   7.353
10312POPC   NC367223  41.588  35.329   5.553
10312POPC   PO467224  41.607  35.400   5.853
10312POPC   GL167225  41.514  35.376   6.153
10312POPC   GL267226  41.642  35.479   6.153
10312POPC   C1A67227  41.533  35.360   6.453
10312POPC   D2A67228  41.590  35.364   6.753
10312POPC   C3A67229  41.509  35.353   7.053
10312POPC   C4A67230  41.601  35.348   7.353
10312POPC   C1B67231  41.772  35.563   6.453
10312POPC   C2B67232  41.740  35.524   6.753
10312POPC   C3B67233  41.711  35.532   7.053
10312POPC   C4B67234  41.688  35.551   7.353
10313POPC   NC367235   5.108  14.421   5.553
10313POPC   PO467236   5.048  14.373   5.853
10313POPC   GL167237   5.052  14.410   6.153
10313POPC   GL267238   5.126  14.309   6.153
10313POPC   C1A67239   5.048  14.396   6.453
10313POPC   D2A67240   5.141  14.443   6.753
10313POPC   C3A67241   5.135  14.443   7.053
10313POPC   C4A67242   5.109  14.453   7.353
10313POPC   C1B67243   5.185  14.154   6.453
10313POPC   C2B67244   5.209  14.152   6.753
10313POPC   C3B67245   5.233  14.177   7.053
10313POPC   C4B67246   5.206  14.206   7.353
10314POPC   NC367247   2.745   1.250   5.553
10314POPC   PO467248   2.718   1.217   5.853
10314POPC   GL167249   2.720   1.187   6.153
10314POPC   GL267250   2.610   1.233   6.153
10314POPC   C1A67251   2.778   1.204   6.453
10314POPC   D2A67252   2.717   1.211   6.753
10314POPC   C3A67253   2.809   1.228   7.053
10314POPC   C4A67254   2.788   1.170   7.353
10314POPC   C1B67255   2.512   1.330   6.453
10314POPC   C2B67256   2.508   1.276   6.753
10314POPC   C3B67257   2.501   1.341   7.053
10314POPC   C4B67258   2.506   1.298   7.353
10315POPC   NC367259   2.787  29.123   5.553
10315POPC   PO467260   2.723  29.129   5.853
10315POPC   GL167261   2.755  29.194   6.153
10315POPC   GL267262   2.680  29.216   6.153
10315POPC   C1A67263   2.777  29.095   6.453
10315POPC   D2A67264   2.807  29.184   6.753
10315POPC   C3A67265   2.792  29.112   7.053
10315POPC   C4A67266   2.766  29.144   7.353
10315POPC   C1B67267   2.654  29.341   6.453
10315POPC   C2B67268   2.630  29.359   6.753
10315POPC   C3B67269   2.661  29.379   7.053
10315POPC   C4B67270   2.671  29.369   7.353
10316POPC   NC367271  11.277  35.380   5.553
10316POPC   PO467272  11.258  35.317   5.853
10316POPC   GL167273  11.314  35.401   6.153
10316POPC   GL267274  11.134  35.279   6.153
10316POPC   C1A67275  11.337  35.316   6.453
10316POPC   D2A67276  11.305  35.380   6.753
10316POPC   C3A67277  11.251  35.375   7.053
10316POPC   C4A67278  11.262  35.342   7.353
10316POPC   C1B67279  11.013  35.294   6.453
10316POPC   C2B67280  11.053  35.292   6.753
10316POPC   C3B67281  11.082  35.315   7.053
10316POPC   C4B67282  11.064  35.304   7.353
10317POPC   NC367283  36.869   1.183   5.553
10317POPC   PO467284  36.936   1.258   5.853
10317POPC   GL167285  36.896   1.175   6.153
10317POPC   GL267286  36.994   1.334   6.153
10317POPC   C1A67287  36.864   1.241   6.453
10317POPC   D2A67288  36.916   1.174   6.753
10317POPC   C3A67289  36.870   1.214   7.053
10317POPC   C4A67290  36.883   1.259   7.353
10317POPC   C1B67291  37.113   1.375   6.453
10317POPC   C2B67292  37.042   1.422   6.753
10317POPC   C3B67293  37.104   1.389   7.053
10317POPC   C4B67294  37.044   1.367   7.353
10318POPC   NC367295  33.784  44.625   5.553
10318POPC   PO467296  33.818  44.648   5.853
10318POPC   GL167297  33.775  44.652   6.153
10318POPC   GL267298  33.908  44.708   6.153
10318POPC   C1A67299  33.774  44.626   6.453
10318POPC   D2A67300  33.791  44.711   6.753
10318POPC   C3A67301  33.848  44.699   7.053
10318POPC   C4A67302  33.808  44.658   7.353
10318POPC   C1B67303  34.004  44.741   6.453
10318POPC   C2B67304  34.025  44.762   6.753
10318POPC   C3B67305  34.007  44.707   7.053
10318POPC   C4B67306  34.013  44.711   7.353
10319POPC   NC367307  13.605  16.692   5.553
10319POPC   PO467308  13.636  16.697   5.853
10319POPC   GL167309  13.643  16.718   6.153
10319POPC   GL267310  13.583  16.578   6.153
10319POPC   C1A67311  13.609  16.739   6.453
10319POPC   D2A67312  13.668  16.770   6.753
10319POPC   C3A67313  13.594  16.759   7.053
10319POPC   C4A67314  13.590  16.710   7.353
10319POPC   C1B67315  13.591  16.540   6.453
10319POPC   C2B67316  13.540  16.455   6.753
10319POPC   C3B67317  13.499  16.539   7.053
10319POPC   C4B67318  13.531  16.525   7.353
10320POPC   NC367319  10.559  16.774   5.553
10320POPC   PO467320  10.490  16.695   5.853
10320POPC   GL167321  10.505  16.716   6.153
10320POPC   GL267322  10.427  16.619   6.153
10320POPC   C1A67323  10.559  16.752   6.453
10320POPC   D2A67324  10.483  16.734   6.753
10320POPC   C3A67325  10.545  16.709   7.053
10320POPC   C4A67326  10.520  16.702   7.353
10320POPC   C1B67327  10.330  16.647   6.453
10320POPC   C2B67328  10.305  16.553   6.753
10320POPC   C3B67329  10.308  16.587   7.053
10320POPC   C4B67330  10.270  16.556   7.353
10321POPC   NC367331   5.911  24.481   5.553
10321POPC   PO467332   5.866  24.451   5.853
10321POPC   GL167333   5.861  24.460   6.153
10321POPC   GL267334   5.793  24.572   6.153
10321POPC   C1A67335   5.848  24.495   6.453
10321POPC   D2A67336   5.917  24.473   6.753
10321POPC   C3A67337   5.878  24.459   7.053
10321POPC   C4A67338   5.863  24.467   7.353
10321POPC   C1B67339   5.700  24.611   6.453
10321POPC   C2B67340   5.725  24.616   6.753
10321POPC   C3B67341   5.718  24.651   7.053
10321POPC   C4B67342   5.652  24.678   7.353
10322POPC   NC367343  19.079  15.190   5.553
10322POPC   PO467344  19.058  15.185   5.853
10322POPC   GL167345  19.096  15.186   6.153
10322POPC   GL267346  19.072  15.068   6.153
10322POPC   C1A67347  19.044  15.183   6.453
10322POPC   D2A67348  19.075  15.226   6.753
10322POPC   C3A67349  19.087  15.146   7.053
10322POPC   C4A67350  19.047  15.195   7.353
10322POPC   C1B67351  19.149  14.955   6.453
10322POPC   C2B67352  19.184  14.965   6.753
10322POPC   C3B67353  19.181  14.992   7.053
10322POPC   C4B67354  19.177  14.971   7.353
10323POPC   NC367355  12.811  39.206   5.553
10323POPC   PO467356  12.874  39.210   5.853
10323POPC   GL167357  12.830  39.197   6.153
10323POPC   GL267358  12.911  39.116   6.153
10323POPC   C1A67359  12.813  39.232   6.453
10323POPC   D2A67360  12.810  39.239   6.753
10323POPC   C3A67361  12.834  39.263   7.053
10323POPC   C4A67362  12.873  39.183   7.353
10323POPC   C1B67363  12.913  39.007   6.453
10323POPC   C2B67364  12.920  38.969   6.753
10323POPC   C3B67365  12.841  38.936   7.053
10323POPC   C4B67366  12.924  38.994   7.353
10324POPC   NC367367  18.285   5.866   5.553
10324POPC   PO467368  18.324   5.873   5.853
10324POPC   GL167369  18.304   5.902   6.153
10324POPC   GL267370  18.194   5.872   6.153
10324POPC   C1A67371  18.267   5.844   6.453
10324POPC   D2A67372  18.295   5.819   6.753
10324POPC   C3A67373  18.258   5.833   7.053
10324POPC   C4A67374  18.284   5.835   7.353
10324POPC   C1B67375  18.035   5.981   6.453
10324POPC   C2B67376  18.086   5.905   6.753
10324POPC   C3B67377  18.018   5.978   7.053
10324POPC   C4B67378  18.091   5.906   7.353
10325POPC   NC367379  38.452  31.463   5.553
10325POPC   PO467380  38.447  31.477   5.853
10325POPC   GL167381  38.465  31.487   6.153
10325POPC   GL267382  38.429  31.347   6.153
10325POPC   C1A67383  38.454  31.468   6.453
10325POPC   D2A67384  38.447  31.425   6.753
10325POPC   C3A67385  38.461  31.452   7.053
10325POPC   C4A67386  38.460  31.425   7.353
10325POPC   C1B67387  38.408  31.218   6.453
10325POPC   C2B67388  38.460  31.190   6.753
10325POPC   C3B67389  38.461  31.267   7.053
10325POPC   C4B67390  38.406  31.190   7.353
10326POPC   NC367391   9.772  40.772   5.553
10326POPC   PO467392   9.732  40.763   5.853
10326POPC   GL167393   9.736  40.746   6.153
10326POPC   GL267394   9.750  40.690   6.153
10326POPC   C1A67395   9.712  40.750   6.453
10326POPC   D2A67396   9.754  40.782   6.753
10326POPC   C3A67397   9.714  40.736   7.053
10326POPC   C4A67398   9.711  40.811   7.353
10326POPC   C1B67399   9.847  40.504   6.453
10326POPC   C2B67400   9.846  40.522   6.753
10326POPC   C3B67401   9.825  40.568   7.053
10326POPC   C4B67402   9.813  40.568   7.353
10327POPC   NC367403  31.425   4.359   5.553
10327POPC   PO467404  31.482   4.355   5.853
10327POPC   GL167405  31.451   4.341   6.153
10327POPC   GL267406  31.319   4.358   6.153
10327POPC   C1A67407  31.464   4.344   6.453
10327POPC   D2A67408  31.510   4.284   6.753
10327POPC   C3A67409  31.512   4.297   7.053
10327POPC   C4A67410  31.519   4.357   7.353
10327POPC   C1B67411  31.305   4.457   6.453
10327POPC   C2B67412  31.296   4.423   6.753
10327POPC   C3B67413  31.257   4.436   7.053
10327POPC   C4B67414  31.256   4.429   7.353
10328POPC   NC367415  14.361  20.629   5.553
10328POPC   PO467416  14.404  20.643   5.853
10328POPC   GL167417  14.384  20.635   6.153
10328POPC   GL267418  14.377  20.773   6.153
10328POPC   C1A67419  14.365  20.605   6.453
10328POPC   D2A67420  14.423  20.616   6.753
10328POPC   C3A67421  14.371  20.636   7.053
10328POPC   C4A67422  14.403  20.586   7.353
10328POPC   C1B67423  14.330  20.900   6.453
10328POPC   C2B67424  14.379  20.865   6.753
10328POPC   C3B67425  14.316  20.896   7.053
10328POPC   C4B67426  14.298  20.850   7.353
10329POPC   NC367427  33.822   2.766   5.553
10329POPC   PO467428  33.763   2.774   5.853
10329POPC   GL167429  33.836   2.784   6.153
10329POPC   GL267430  33.626   2.764   6.153
10329POPC   C1A67431  33.816   2.778   6.453
10329POPC   D2A67432  33.758   2.780   6.753
10329POPC   C3A67433  33.754   2.729   7.053
10329POPC   C4A67434  33.783   2.742   7.353
10329POPC   C1B67435  33.581   2.814   6.453
10329POPC   C2B67436  33.562   2.717   6.753
10329POPC   C3B67437  33.501   2.783   7.053
10329POPC   C4B67438  33.550   2.724   7.353
10330POPC   NC367439  19.061  41.529   5.553
10330POPC   PO467440  19.016  41.510   5.853
10330POPC   GL167441  19.014  41.559   6.153
10330POPC   GL267442  18.957  41.514   6.153
10330POPC   C1A67443  19.090  41.559   6.453
10330POPC   D2A67444  19.057  41.594   6.753
10330POPC   C3A67445  19.079  41.521   7.053
10330POPC   C4A67446  19.054  41.552   7.353
10330POPC   C1B67447  18.898  41.430   6.453
10330POPC   C2B67448  18.844  41.437   6.753
10330POPC   C3B67449  18.836  41.363   7.053
10330POPC   C4B67450  18.887  41.407   7.353
10331POPC   NC367451  11.261  22.166   5.553
10331POPC   PO467452  11.295  22.175   5.853
10331POPC   GL167453  11.306  22.147   6.153
10331POPC   GL267454  11.406  22.046   6.153
10331POPC   C1A67455  11.258  22.167   6.453
10331POPC   D2A67456  11.250  22.181   6.753
10331POPC   C3A67457  11.333  22.192   7.053
10331POPC   C4A67458  11.260  22.177   7.353
10331POPC   C1B67459  11.429  21.960   6.453
10331POPC   C2B67460  11.479  21.986   6.753
10331POPC   C3B67461  11.418  22.005   7.053
10331POPC   C4B67462  11.459  21.945   7.353
10332POPC   NC367463   7.444  14.388   5.553
10332POPC   PO467464   7.418  14.380   5.853
10332POPC   GL167465   7.396  14.439   6.153
10332POPC   GL267466   7.297  14.425   6.153
10332POPC   C1A67467   7.428  14.447   6.453
10332POPC   D2A67468   7.430  14.416   6.753
10332POPC   C3A67469   7.402  14.408   7.053
10332POPC   C4A67470   7.444  14.444   7.353
10332POPC   C1B67471   7.198  14.317   6.453
10332POPC   C2B67472   7.169  14.348   6.753
10332POPC   C3B67473   7.215  14.400   7.053
10332POPC   C4B67474   7.187  14.367   7.353
10333POPC   NC367475  38.417  36.893   5.553
10333POPC   PO467476  38.442  36.941   5.853
10333POPC   GL167477  38.459  36.888   6.153
10333POPC   GL267478  38.554  36.763   6.153
10333POPC   C1A67479  38.475  36.872   6.453
10333POPC   D2A67480  38.428  36.854   6.753
10333POPC   C3A67481  38.464  36.950   7.053
10333POPC   C4A67482  38.441  36.873   7.353
10333POPC   C1B67483  38.552  36.640   6.453
10333POPC   C2B67484  38.588  36.703   6.753
10333POPC   C3B67485  38.552  36.688   7.053
10333POPC   C4B67486  38.543  36.683   7.353
10334POPC   NC367487   0.481  33.034   5.553
10334POPC   PO467488   0.390  32.977   5.853
10334POPC   GL167489   0.419  33.008   6.153
10334POPC   GL267490   0.339  33.093   6.153
10334POPC   C1A67491   0.452  33.021   6.453
10334POPC   D2A67492   0.443  32.978   6.753
10334POPC   C3A67493   0.475  33.064   7.053
10334POPC   C4A67494   0.472  33.040   7.353
10334POPC   C1B67495   0.207  33.168   6.453
10334POPC   C2B67496   0.179  33.111   6.753
10334POPC   C3B67497   0.181  33.103   7.053
10334POPC   C4B67498   0.219  33.132   7.353
10335POPC   NC367499  13.614  26.846   5.553
10335POPC   PO467500  13.603  26.831   5.853
10335POPC   GL167501  13.636  26.824   6.153
10335POPC   GL267502  13.771  26.800   6.153
10335POPC   C1A67503  13.631  26.854   6.453
10335POPC   D2A67504  13.579  26.858   6.753
10335POPC   C3A67505  13.611  26.816   7.053
10335POPC   C4A67506  13.651  26.822   7.353
10335POPC   C1B67507  13.895  26.783   6.453
10335POPC   C2B67508  13.895  26.807   6.753
10335POPC   C3B67509  13.923  26.806   7.053
10335POPC   C4B67510  13.900  26.831   7.353
10336POPC   NC367511  27.631  18.291   5.553
10336POPC   PO467512  27.625  18.303   5.853
10336POPC   GL167513  27.639  18.311   6.153
10336POPC   GL267514  27.515  18.270   6.153
10336POPC   C1A67515  27.604  18.313   6.453
10336POPC   D2A67516  27.598  18.247   6.753
10336POPC   C3A67517  27.618  18.270   7.053
10336POPC   C4A67518  27.593  18.321   7.353
10336POPC   C1B67519  27.394  18.270   6.453
10336POPC   C2B67520  27.374  18.257   6.753
10336POPC   C3B67521  27.358  18.220   7.053
10336POPC   C4B67522  27.396  18.196   7.353
10337POPC   NC367523  13.650  24.472   5.553
10337POPC   PO467524  13.642  24.455   5.853
10337POPC   GL167525  13.624  24.533   6.153
10337POPC   GL267526  13.713  24.358   6.153
10337POPC   C1A67527  13.639  24.475   6.453
10337POPC   D2A67528  13.579  24.478   6.753
10337POPC   C3A67529  13.609  24.442   7.053
10337POPC   C4A67530  13.599  24.458   7.353
10337POPC   C1B67531  13.799  24.280   6.453
10337POPC   C2B67532  13.803  24.365   6.753
10337POPC   C3B67533  13.813  24.339   7.053
10337POPC   C4B67534  13.825  24.279   7.353
10338POPC   NC367535   1.996   5.050   5.553
10338POPC   PO467536   1.994   5.122   5.853
10338POPC   GL167537   1.972   5.073   6.153
10338POPC   GL267538   1.891   5.013   6.153
10338POPC   C1A67539   1.964   5.089   6.453
10338POPC   D2A67540   2.003   5.100   6.753
10338POPC   C3A67541   1.983   5.071   7.053
10338POPC   C4A67542   1.943   5.135   7.353
10338POPC   C1B67543   1.788   5.039   6.453
10338POPC   C2B67544   1.755   5.001   6.753
10338POPC   C3B67545   1.800   4.985   7.053
10338POPC   C4B67546   1.783   5.028   7.353
10339POPC   NC367547  13.654  31.474   5.553
10339POPC   PO467548  13.601  31.454   5.853
10339POPC   GL167549  13.635  31.456   6.153
10339POPC   GL267550  13.666  31.401   6.153
10339POPC   C1A67551  13.677  31.477   6.453
10339POPC   D2A67552  13.637  31.448   6.753
10339POPC   C3A67553  13.639  31.462   7.053
10339POPC   C4A67554  13.607  31.491   7.353
10339POPC   C1B67555  13.755  31.255   6.453
10339POPC   C2B67556  13.689  31.278   6.753
10339POPC   C3B67557  13.699  31.206   7.053
10339POPC   C4B67558  13.777  31.296   7.353
10340POPC   NC367559   0.468  32.227   5.553
10340POPC   PO467560   0.416  32.239   5.853
10340POPC   GL167561   0.447  32.234   6.153
10340POPC   GL267562   0.431  32.150   6.153
10340POPC   C1A67563   0.416  32.269   6.453
10340POPC   D2A67564   0.483  32.291   6.753
10340POPC   C3A67565   0.469  32.251   7.053
10340POPC   C4A67566   0.486  32.297   7.353
10340POPC   C1B67567   0.508  31.974   6.453
10340POPC   C2B67568   0.431  32.050   6.753
10340POPC   C3B67569   0.496  32.042   7.053
10340POPC   C4B67570   0.496  31.970   7.353
10341POPC   NC367571  32.277  34.583   5.553
10341POPC   PO467572  32.229  34.559   5.853
10341POPC   GL167573  32.280  34.537   6.153
10341POPC   GL267574  32.103  34.516   6.153
10341POPC   C1A67575  32.205  34.569   6.453
10341POPC   D2A67576  32.218  34.563   6.753
10341POPC   C3A67577  32.198  34.577   7.053
10341POPC   C4A67578  32.217  34.556   7.353
10341POPC   C1B67579  31.970  34.487   6.453
10341POPC   C2B67580  32.042  34.524   6.753
10341POPC   C3B67581  31.983  34.498   7.053
10341POPC   C4B67582  32.039  34.567   7.353
10342POPC   NC367583  19.824  19.873   5.553
10342POPC   PO467584  19.786  19.846   5.853
10342POPC   GL167585  19.836  19.880   6.153
10342POPC   GL267586  19.700  19.903   6.153
10342POPC   C1A67587  19.883  19.825   6.453
10342POPC   D2A67588  19.812  19.789   6.753
10342POPC   C3A67589  19.843  19.853   7.053
10342POPC   C4A67590  19.864  19.834   7.353
10342POPC   C1B67591  19.602  19.894   6.453
10342POPC   C2B67592  19.552  19.932   6.753
10342POPC   C3B67593  19.559  19.891   7.053
10342POPC   C4B67594  19.625  19.956   7.353
10343POPC   NC367595  22.170  24.482   5.553
10343POPC   PO467596  22.184  24.465   5.853
10343POPC   GL167597  22.129  24.453   6.153
10343POPC   GL267598  22.094  24.582   6.153
10343POPC   C1A67599  22.203  24.498   6.453
10343POPC   D2A67600  22.136  24.519   6.753
10343POPC   C3A67601  22.127  24.474   7.053
10343POPC   C4A67602  22.177  24.472   7.353
10343POPC   C1B67603  22.030  24.678   6.453
10343POPC   C2B67604  21.978  24.713   6.753
10343POPC   C3B67605  22.039  24.720   7.053
10343POPC   C4B67606  21.944  24.652   7.353
10344POPC   NC367607  11.262  37.666   5.553
10344POPC   PO467608  11.276  37.682   5.853
10344POPC   GL167609  11.348  37.698   6.153
10344POPC   GL267610  11.275  37.549   6.153
10344POPC   C1A67611  11.279  37.637   6.453
10344POPC   D2A67612  11.260  37.650   6.753
10344POPC   C3A67613  11.324  37.632   7.053
10344POPC   C4A67614  11.277  37.637   7.353
10344POPC   C1B67615  11.163  37.423   6.453
10344POPC   C2B67616  11.192  37.483   6.753
10344POPC   C3B67617  11.195  37.473   7.053
10344POPC   C4B67618  11.171  37.418   7.353
10345POPC   NC367619  14.362  19.059   5.553
10345POPC   PO467620  14.391  19.064   5.853
10345POPC   GL167621  14.369  19.023   6.153
10345POPC   GL267622  14.235  19.099   6.153
10345POPC   C1A67623  14.392  19.036   6.453
10345POPC   D2A67624  14.441  19.009   6.753
10345POPC   C3A67625  14.414  19.086   7.053
10345POPC   C4A67626  14.439  19.069   7.353
10345POPC   C1B67627  14.122  19.157   6.453
10345POPC   C2B67628  14.189  19.137   6.753
10345POPC   C3B67629  14.153  19.124   7.053
10345POPC   C4B67630  14.117  19.177   7.353
10346POPC   NC367631  44.628   1.176   5.553
10346POPC   PO467632  44.644   1.246   5.853
10346POPC   GL167633  44.680   1.179   6.153
10346POPC   GL267634  44.783   1.164   6.153
10346POPC   C1A67635  44.658   1.193   6.453
10346POPC   D2A67636  44.679   1.200   6.753
10346POPC   C3A67637  44.630   1.244   7.053
10346POPC   C4A67638  44.638   1.164   7.353
10346POPC   C1B67639  44.873   1.032   6.453
10346POPC   C2B67640  44.814   1.070   6.753
10346POPC   C3B67641  44.798   0.997   7.053
10346POPC   C4B67642  44.864   1.091   7.353
10347POPC   NC367643  35.313  13.623   5.553
10347POPC   PO467644  35.389  13.635   5.853
10347POPC   GL167645  35.311  13.640   6.153
10347POPC   GL267646  35.318  13.568   6.153
10347POPC   C1A67647  35.312  13.667   6.453
10347POPC   D2A67648  35.377  13.586   6.753
10347POPC   C3A67649  35.392  13.615   7.053
10347POPC   C4A67650  35.307  13.651   7.353
10347POPC   C1B67651  35.177  13.414   6.453
10347POPC   C2B67652  35.184  13.400   6.753
10347POPC   C3B67653  35.227  13.413   7.053
10347POPC   C4B67654  35.227  13.423   7.353
10348POPC   NC367655   9.759   2.804   5.553
10348POPC   PO467656   9.798   2.732   5.853
10348POPC   GL167657   9.793   2.778   6.153
10348POPC   GL267658   9.714   2.840   6.153
10348POPC   C1A67659   9.719   2.780   6.453
10348POPC   D2A67660   9.767   2.815   6.753
10348POPC   C3A67661   9.764   2.717   7.053
10348POPC   C4A67662   9.750   2.806   7.353
10348POPC   C1B67663   9.633   2.962   6.453
10348POPC   C2B67664   9.615   2.923   6.753
10348POPC   C3B67665   9.573   2.957   7.053
10348POPC   C4B67666   9.628   3.022   7.353
10349POPC   NC367667  29.107  22.144   5.553
10349POPC   PO467668  29.108  22.137   5.853
10349POPC   GL167669  29.144  22.170   6.153
10349POPC   GL267670  29.017  22.056   6.153
10349POPC   C1A67671  29.132  22.113   6.453
10349POPC   D2A67672  29.119  22.196   6.753
10349POPC   C3A67673  29.173  22.208   7.053
10349POPC   C4A67674  29.168  22.181   7.353
10349POPC   C1B67675  28.968  22.034   6.453
10349POPC   C2B67676  28.974  22.013   6.753
10349POPC   C3B67677  28.961  21.981   7.053
10349POPC   C4B67678  28.918  21.982   7.353
10350POPC   NC367679   7.413  41.552   5.553
10350POPC   PO467680   7.389  41.597   5.853
10350POPC   GL167681   7.440  41.543   6.153
10350POPC   GL267682   7.341  41.555   6.153
10350POPC   C1A67683   7.382  41.574   6.453
10350POPC   D2A67684   7.406  41.589   6.753
10350POPC   C3A67685   7.400  41.595   7.053
10350POPC   C4A67686   7.435  41.527   7.353
10350POPC   C1B67687   7.172  41.451   6.453
10350POPC   C2B67688   7.219  41.469   6.753
10350POPC   C3B67689   7.221  41.485   7.053
10350POPC   C4B67690   7.140  41.445   7.353
10351POPC   NC367691  37.665  44.669   5.553
10351POPC   PO467692  37.661  44.644   5.853
10351POPC   GL167693  37.657  44.692   6.153
10351POPC   GL267694  37.818  44.616   6.153
10351POPC   C1A67695  37.631  44.621   6.453
10351POPC   D2A67696  37.707  44.658   6.753
10351POPC   C3A67697  37.663  44.705   7.053
10351POPC   C4A67698  37.663  44.698   7.353
10351POPC   C1B67699  37.953  44.630   6.453
10351POPC   C2B67700  37.965  44.539   6.753
10351POPC   C3B67701  37.944  44.633   7.053
10351POPC   C4B67702  37.939  44.537   7.353
10352POPC   NC367703  12.868  14.413   5.553
10352POPC   PO467704  12.848  14.448   5.853
10352POPC   GL167705  12.867  14.372   6.153
10352POPC   GL267706  12.832  14.524   6.153
10352POPC   C1A67707  12.860  14.385   6.453
10352POPC   D2A67708  12.814  14.367   6.753
10352POPC   C3A67709  12.811  14.363   7.053
10352POPC   C4A67710  12.816  14.357   7.353
10352POPC   C1B67711  12.802  14.639   6.453
10352POPC   C2B67712  12.791  14.637   6.753
10352POPC   C3B67713  12.764  14.680   7.053
10352POPC   C4B67714  12.826  14.600   7.353
10353POPC   NC367715  33.062  10.480   5.553
10353POPC   PO467716  32.981  10.511   5.853
10353POPC   GL167717  32.991  10.562   6.153
10353POPC   GL267718  33.115  10.443   6.153
10353POPC   C1A67719  33.050  10.494   6.453
10353POPC   D2A67720  33.000  10.563   6.753
10353POPC   C3A67721  33.024  10.501   7.053
10353POPC   C4A67722  33.009  10.513   7.353
10353POPC   C1B67723  33.160  10.326   6.453
10353POPC   C2B67724  33.094  10.316   6.753
10353POPC   C3B67725  33.112  10.338   7.053
10353POPC   C4B67726  33.160  10.298   7.353
10354POPC   NC367727  11.338   8.177   5.553
10354POPC   PO467728  11.251   8.209   5.853
10354POPC   GL167729  11.303   8.150   6.153
10354POPC   GL267730  11.246   8.100   6.153
10354POPC   C1A67731  11.334   8.219   6.453
10354POPC   D2A67732  11.274   8.171   6.753
10354POPC   C3A67733  11.323   8.225   7.053
10354POPC   C4A67734  11.259   8.166   7.353
10354POPC   C1B67735  11.264   7.991   6.453
10354POPC   C2B67736  11.261   7.929   6.753
10354POPC   C3B67737  11.225   7.967   7.053
10354POPC   C4B67738  11.213   8.004   7.353
10355POPC   NC367739   6.600  11.345   5.553
10355POPC   PO467740   6.635  11.345   5.853
10355POPC   GL167741   6.676  11.338   6.153
10355POPC   GL267742   6.592  11.180   6.153
10355POPC   C1A67743   6.693  11.279   6.453
10355POPC   D2A67744   6.622  11.342   6.753
10355POPC   C3A67745   6.636  11.268   7.053
10355POPC   C4A67746   6.611  11.336   7.353
10355POPC   C1B67747   6.487  11.136   6.453
10355POPC   C2B67748   6.476  11.151   6.753
10355POPC   C3B67749   6.496  11.164   7.053
10355POPC   C4B67750   6.506  11.132   7.353
10356POPC   NC367751  12.884  30.731   5.553
10356POPC   PO467752  12.828  30.720   5.853
10356POPC   GL167753  12.840  30.661   6.153
10356POPC   GL267754  12.866  30.786   6.153
10356POPC   C1A67755  12.866  30.735   6.453
10356POPC   D2A67756  12.832  30.734   6.753
10356POPC   C3A67757  12.830  30.741   7.053
10356POPC   C4A67758  12.862  30.655   7.353
10356POPC   C1B67759  12.833  30.925   6.453
10356POPC   C2B67760  12.836  30.971   6.753
10356POPC   C3B67761  12.866  30.943   7.053
10356POPC   C4B67762  12.872  30.957   7.353
10357POPC   NC367763  35.379  25.270   5.553
10357POPC   PO467764  35.387  25.226   5.853
10357POPC   GL167765  35.379  25.282   6.153
10357POPC   GL267766  35.405  25.164   6.153
10357POPC   C1A67767  35.381  25.279   6.453
10357POPC   D2A67768  35.400  25.277   6.753
10357POPC   C3A67769  35.359  25.216   7.053
10357POPC   C4A67770  35.363  25.231   7.353
10357POPC   C1B67771  35.423  24.976   6.453
10357POPC   C2B67772  35.407  25.011   6.753
10357POPC   C3B67773  35.406  24.995   7.053
10357POPC   C4B67774  35.421  25.003   7.353
10358POPC   NC367775  27.549  34.617   5.553
10358POPC   PO467776  27.543  34.582   5.853
10358POPC   GL167777  27.602  34.569   6.153
10358POPC   GL267778  27.504  34.617   6.153
10358POPC   C1A67779  27.593  34.577   6.453
10358POPC   D2A67780  27.593  34.553   6.753
10358POPC   C3A67781  27.628  34.526   7.053
10358POPC   C4A67782  27.546  34.622   7.353
10358POPC   C1B67783  27.370  34.660   6.453
10358POPC   C2B67784  27.371  34.664   6.753
10358POPC   C3B67785  27.396  34.675   7.053
10358POPC   C4B67786  27.382  34.672   7.353
10359POPC   NC367787  35.306  26.077   5.553
10359POPC   PO467788  35.340  26.016   5.853
10359POPC   GL167789  35.316  26.036   6.153
10359POPC   GL267790  35.199  26.053   6.153
10359POPC   C1A67791  35.364  26.087   6.453
10359POPC   D2A67792  35.400  26.079   6.753
10359POPC   C3A67793  35.374  26.034   7.053
10359POPC   C4A67794  35.302  25.992   7.353
10359POPC   C1B67795  35.096  26.098   6.453
10359POPC   C2B67796  35.143  26.001   6.753
10359POPC   C3B67797  35.090  26.030   7.053
10359POPC   C4B67798  35.143  26.036   7.353
10360POPC   NC367799  37.721  38.491   5.553
10360POPC   PO467800  37.673  38.424   5.853
10360POPC   GL167801  37.686  38.498   6.153
10360POPC   GL267802  37.614  38.314   6.153
10360POPC   C1A67803  37.629  38.473   6.453
10360POPC   D2A67804  37.668  38.428   6.753
10360POPC   C3A67805  37.636  38.486   7.053
10360POPC   C4A67806  37.666  38.493   7.353
10360POPC   C1B67807  37.603  38.182   6.453
10360POPC   C2B67808  37.605  38.259   6.753
10360POPC   C3B67809  37.623  38.197   7.053
10360POPC   C4B67810  37.577  38.265   7.353
10361POPC   NC367811   6.689  35.381   5.553
10361POPC   PO467812   6.611  35.373   5.853
10361POPC   GL167813   6.606  35.324   6.153
10361POPC   GL267814   6.600  35.473   6.153
10361POPC   C1A67815   6.640  35.335   6.453
10361POPC   D2A67816   6.645  35.314   6.753
10361POPC   C3A67817   6.600  35.307   7.053
10361POPC   C4A67818   6.691  35.327   7.353
10361POPC   C1B67819   6.649  35.617   6.453
10361POPC   C2B67820   6.604  35.572   6.753
10361POPC   C3B67821   6.605  35.552   7.053
10361POPC   C4B67822   6.580  35.650   7.353
10362POPC   NC367823  40.049  28.407   5.553
10362POPC   PO467824  40.047  28.341   5.853
10362POPC   GL167825  40.006  28.386   6.153
10362POPC   GL267826  40.105  28.296   6.153
10362POPC   C1A67827  39.960  28.372   6.453
10362POPC   D2A67828  39.970  28.349   6.753
10362POPC   C3A67829  39.980  28.356   7.053
10362POPC   C4A67830  39.983  28.397   7.353
10362POPC   C1B67831  40.211  28.249   6.453
10362POPC   C2B67832  40.196  28.250   6.753
10362POPC   C3B67833  40.257  28.263   7.053
10362POPC   C4B67834  40.266  28.224   7.353
10363POPC   NC367835  32.215   5.052   5.553
10363POPC   PO467836  32.236   5.109   5.853
10363POPC   GL167837  32.212   5.116   6.153
10363POPC   GL267838  32.229   4.986   6.153
10363POPC   C1A67839  32.267   5.096   6.453
10363POPC   D2A67840  32.275   5.053   6.753
10363POPC   C3A67841  32.248   5.114   7.053
10363POPC   C4A67842  32.260   5.102   7.353
10363POPC   C1B67843  32.127   4.923   6.453
10363POPC   C2B67844  32.080   4.909   6.753
10363POPC   C3B67845  32.121   4.843   7.053
10363POPC   C4B67846  32.160   4.878   7.353
10364POPC   NC367847  15.985  43.096   5.553
10364POPC   PO467848  15.931  43.134   5.853
10364POPC   GL167849  15.929  43.072   6.153
10364POPC   GL267850  16.016  43.071   6.153
10364POPC   C1A67851  15.919  43.063   6.453
10364POPC   D2A67852  15.994  43.065   6.753
10364POPC   C3A67853  15.962  43.066   7.053
10364POPC   C4A67854  15.936  43.078   7.353
10364POPC   C1B67855  16.170  42.957   6.453
10364POPC   C2B67856  16.105  42.903   6.753
10364POPC   C3B67857  16.186  42.954   7.053
10364POPC   C4B67858  16.146  42.932   7.353
10365POPC   NC367859   6.643  14.435   5.553
10365POPC   PO467860   6.673  14.442   5.853
10365POPC   GL167861   6.612  14.367   6.153
10365POPC   GL267862   6.502  14.374   6.153
10365POPC   C1A67863   6.632  14.376   6.453
10365POPC   D2A67864   6.660  14.445   6.753
10365POPC   C3A67865   6.615  14.442   7.053
10365POPC   C4A67866   6.677  14.424   7.353
10365POPC   C1B67867   6.381  14.442   6.453
10365POPC   C2B67868   6.355  14.417   6.753
10365POPC   C3B67869   6.398  14.441   7.053
10365POPC   C4B67870   6.381  14.424   7.353
10366POPC   NC367871  17.483  12.054   5.553
10366POPC   PO467872  17.518  12.102   5.853
10366POPC   GL167873  17.512  12.110   6.153
10366POPC   GL267874  17.429  12.149   6.153
10366POPC   C1A67875  17.457  12.106   6.453
10366POPC   D2A67876  17.471  12.028   6.753
10366POPC   C3A67877  17.519  12.067   7.053
10366POPC   C4A67878  17.470  12.034   7.353
10366POPC   C1B67879  17.289  12.137   6.453
10366POPC   C2B67880  17.248  12.147   6.753
10366POPC   C3B67881  17.286  12.134   7.053
10366POPC   C4B67882  17.262  12.146   7.353
10367POPC   NC367883  31.507  32.291   5.553
10367POPC   PO467884  31.500  32.224   5.853
10367POPC   GL167885  31.492  32.242   6.153
10367POPC   GL267886  31.541  32.361   6.153
10367POPC   C1A67887  31.489  32.292   6.453
10367POPC   D2A67888  31.522  32.234   6.753
10367POPC   C3A67889  31.455  32.278   7.053
10367POPC   C4A67890  31.447  32.221   7.353
10367POPC   C1B67891  31.587  32.427   6.453
10367POPC   C2B67892  31.599  32.475   6.753
10367POPC   C3B67893  31.624  32.442   7.053
10367POPC   C4B67894  31.609  32.436   7.353
10368POPC   NC367895   9.721  19.870   5.553
10368POPC   PO467896   9.728  19.877   5.853
10368POPC   GL167897   9.735  19.819   6.153
10368POPC   GL267898   9.881  19.945   6.153
10368POPC   C1A67899   9.785  19.831   6.453
10368POPC   D2A67900   9.793  19.838   6.753
10368POPC   C3A67901   9.757  19.808   7.053
10368POPC   C4A67902   9.750  19.818   7.353
10368POPC   C1B67903   9.912  20.045   6.453
10368POPC   C2B67904   9.912  19.972   6.753
10368POPC   C3B67905   9.886  20.027   7.053
10368POPC   C4B67906   9.975  20.016   7.353
10369POPC   NC367907  38.428   7.382   5.553
10369POPC   PO467908  38.448   7.417   5.853
10369POPC   GL167909  38.430   7.371   6.153
10369POPC   GL267910  38.534   7.501   6.153
10369POPC   C1A67911  38.478   7.437   6.453
10369POPC   D2A67912  38.456   7.433   6.753
10369POPC   C3A67913  38.488   7.432   7.053
10369POPC   C4A67914  38.461   7.429   7.353
10369POPC   C1B67915  38.684   7.567   6.453
10369POPC   C2B67916  38.715   7.563   6.753
10369POPC   C3B67917  38.664   7.590   7.053
10369POPC   C4B67918  38.711   7.548   7.353
10370POPC   NC367919  10.539  10.547   5.553
10370POPC   PO467920  10.527  10.494   5.853
10370POPC   GL167921  10.512  10.484   6.153
10370POPC   GL267922  10.622  10.677   6.153
10370POPC   C1A67923  10.527  10.491   6.453
10370POPC   D2A67924  10.501  10.506   6.753
10370POPC   C3A67925  10.514  10.549   7.053
10370POPC   C4A67926  10.538  10.497   7.353
10370POPC   C1B67927  10.681  10.780   6.453
10370POPC   C2B67928  10.591  10.762   6.753
10370POPC   C3B67929  10.628  10.704   7.053
10370POPC   C4B67930  10.642  10.711   7.353
10371POPC   NC367931  20.627  19.100   5.553
10371POPC   PO467932  20.645  19.075   5.853
10371POPC   GL167933  20.629  19.061   6.153
10371POPC   GL267934  20.645  19.155   6.153
10371POPC   C1A67935  20.561  19.084   6.453
10371POPC   D2A67936  20.632  19.033   6.753
10371POPC   C3A67937  20.592  19.029   7.053
10371POPC   C4A67938  20.614  19.067   7.353
10371POPC   C1B67939  20.606  19.358   6.453
10371POPC   C2B67940  20.587  19.348   6.753
10371POPC   C3B67941  20.649  19.313   7.053
10371POPC   C4B67942  20.623  19.331   7.353
10372POPC   NC367943  37.703  28.418   5.553
10372POPC   PO467944  37.653  28.412   5.853
10372POPC   GL167945  37.685  28.339   6.153
10372POPC   GL267946  37.701  28.471   6.153
10372POPC   C1A67947  37.635  28.344   6.453
10372POPC   D2A67948  37.688  28.342   6.753
10372POPC   C3A67949  37.646  28.378   7.053
10372POPC   C4A67950  37.650  28.388   7.353
10372POPC   C1B67951  37.722  28.651   6.453
10372POPC   C2B67952  37.712  28.609   6.753
10372POPC   C3B67953  37.697  28.653   7.053
10372POPC   C4B67954  37.776  28.653   7.353
10373POPC   NC367955  39.990   1.175   5.553
10373POPC   PO467956  40.019   1.241   5.853
10373POPC   GL167957  39.975   1.221   6.153
10373POPC   GL267958  39.899   1.247   6.153
10373POPC   C1A67959  39.997   1.229   6.453
10373POPC   D2A67960  39.997   1.251   6.753
10373POPC   C3A67961  39.979   1.249   7.053
10373POPC   C4A67962  40.002   1.180   7.353
10373POPC   C1B67963  39.735   1.205   6.453
10373POPC   C2B67964  39.713   1.163   6.753
10373POPC   C3B67965  39.726   1.250   7.053
10373POPC   C4B67966  39.763   1.204   7.353
10374POPC   NC367967  36.116  34.545   5.553
10374POPC   PO467968  36.153  34.586   5.853
10374POPC   GL167969  36.080  34.604   6.153
10374POPC   GL267970  36.103  34.490   6.153
10374POPC   C1A67971  36.131  34.551   6.453
10374POPC   D2A67972  36.107  34.572   6.753
10374POPC   C3A67973  36.171  34.583   7.053
10374POPC   C4A67974  36.114  34.568   7.353
10374POPC   C1B67975  36.097  34.340   6.453
10374POPC   C2B67976  36.078  34.368   6.753
10374POPC   C3B67977  36.091  34.364   7.053
10374POPC   C4B67978  36.109  34.320   7.353
10375POPC   NC367979   1.194  43.926   5.553
10375POPC   PO467980   1.194  43.899   5.853
10375POPC   GL167981   1.214  43.889   6.153
10375POPC   GL267982   1.083  43.912   6.153
10375POPC   C1A67983   1.264  43.890   6.453
10375POPC   D2A67984   1.252  43.846   6.753
10375POPC   C3A67985   1.197  43.862   7.053
10375POPC   C4A67986   1.223  43.849   7.353
10375POPC   C1B67987   0.959  43.986   6.453
10375POPC   C2B67988   0.997  43.997   6.753
10375POPC   C3B67989   0.974  44.011   7.053
10375POPC   C4B67990   1.005  44.014   7.353
10376POPC   NC367991  43.882  25.273   5.553
10376POPC   PO467992  43.873  25.258   5.853
10376POPC   GL167993  43.921  25.260   6.153
10376POPC   GL267994  43.969  25.394   6.153
10376POPC   C1A67995  43.915  25.311   6.453
10376POPC   D2A67996  43.919  25.293   6.753
10376POPC   C3A67997  43.871  25.289   7.053
10376POPC   C4A67998  43.916  25.257   7.353
10376POPC   C1B67999  43.968  25.495   6.453
10376POPC   C2B68000  43.990  25.461   6.753
10376POPC   C3B68001  43.954  25.527   7.053
10376POPC   C4B68002  43.978  25.507   7.353
10377POPC   NC368003  42.297  24.465   5.553
10377POPC   PO468004  42.365  24.519   5.853
10377POPC   GL168005  42.338  24.497   6.153
10377POPC   GL268006  42.251  24.647   6.153
10377POPC   C1A68007  42.377  24.493   6.453
10377POPC   D2A68008  42.332  24.523   6.753
10377POPC   C3A68009  42.370  24.496   7.053
10377POPC   C4A68010  42.319  24.510   7.353
10377POPC   C1B68011  42.261  24.767   6.453
10377POPC   C2B68012  42.257  24.762   6.753
10377POPC   C3B68013  42.273  24.739   7.053
10377POPC   C4B68014  42.219  24.721   7.353
10378POPC   NC368015  10.544   0.464   5.553
10378POPC   PO468016  10.552   0.426   5.853
10378POPC   GL168017  10.480   0.485   6.153
10378POPC   GL268018  10.527   0.331   6.153
10378POPC   C1A68019  10.528   0.396   6.453
10378POPC   D2A68020  10.535   0.428   6.753
10378POPC   C3A68021  10.495   0.458   7.053
10378POPC   C4A68022  10.519   0.457   7.353
10378POPC   C1B68023  10.621   0.206   6.453
10378POPC   C2B68024  10.618   0.145   6.753
10378POPC   C3B68025  10.617   0.198   7.053
10378POPC   C4B68026  10.613   0.162   7.353
10379POPC   NC368027   0.462   2.757   5.553
10379POPC   PO468028   0.433   2.767   5.853
10379POPC   GL168029   0.422   2.726   6.153
10379POPC   GL268030   0.372   2.644   6.153
10379POPC   C1A68031   0.487   2.801   6.453
10379POPC   D2A68032   0.402   2.769   6.753
10379POPC   C3A68033   0.402   2.785   7.053
10379POPC   C4A68034   0.480   2.785   7.353
10379POPC   C1B68035   0.277   2.583   6.453
10379POPC   C2B68036   0.312   2.597   6.753
10379POPC   C3B68037   0.289   2.524   7.053
10379POPC   C4B68038   0.320   2.520   7.353
10380POPC   NC368039   7.390   2.011   5.553
10380POPC   PO468040   7.445   2.023   5.853
10380POPC   GL168041   7.439   1.974   6.153
10380POPC   GL268042   7.565   1.977   6.153
10380POPC   C1A68043   7.407   1.987   6.453
10380POPC   D2A68044   7.446   2.025   6.753
10380POPC   C3A68045   7.446   1.970   7.053
10380POPC   C4A68046   7.384   1.981   7.353
10380POPC   C1B68047   7.691   2.068   6.453
10380POPC   C2B68048   7.685   2.096   6.753
10380POPC   C3B68049   7.689   2.092   7.053
10380POPC   C4B68050   7.673   2.015   7.353
10381POPC   NC368051  32.251  22.956   5.553
10381POPC   PO468052  32.199  22.962   5.853
10381POPC   GL168053  32.278  22.889   6.153
10381POPC   GL268054  32.103  22.864   6.153
10381POPC   C1A68055  32.216  22.913   6.453
10381POPC   D2A68056  32.245  22.931   6.753
10381POPC   C3A68057  32.272  22.913   7.053
10381POPC   C4A68058  32.220  22.946   7.353
10381POPC   C1B68059  32.063  22.832   6.453
10381POPC   C2B68060  32.053  22.867   6.753
10381POPC   C3B68061  32.063  22.821   7.053
10381POPC   C4B68062  32.028  22.869   7.353
10382POPC   NC368063   5.916  31.515   5.553
10382POPC   PO468064   5.821  31.518   5.853
10382POPC   GL168065   5.832  31.519   6.153
10382POPC   GL268066   5.792  31.613   6.153
10382POPC   C1A68067   5.884  31.450   6.453
10382POPC   D2A68068   5.908  31.522   6.753
10382POPC   C3A68069   5.842  31.465   7.053
10382POPC   C4A68070   5.904  31.460   7.353
10382POPC   C1B68071   5.788  31.740   6.453
10382POPC   C2B68072   5.791  31.755   6.753
10382POPC   C3B68073   5.767  31.665   7.053
10382POPC   C4B68074   5.799  31.726   7.353
10383POPC   NC368075   1.209   9.710   5.553
10383POPC   PO468076   1.179   9.796   5.853
10383POPC   GL168077   1.245   9.781   6.153
10383POPC   GL268078   1.318   9.800   6.153
10383POPC   C1A68079   1.254   9.736   6.453
10383POPC   D2A68080   1.176   9.699   6.753
10383POPC   C3A68081   1.252   9.715   7.053
10383POPC   C4A68082   1.174   9.788   7.353
10383POPC   C1B68083   1.426   9.873   6.453
10383POPC   C2B68084   1.388   9.918   6.753
10383POPC   C3B68085   1.412   9.867   7.053
10383POPC   C4B68086   1.429   9.929   7.353
10384POPC   NC368087  33.777  19.027   5.553
10384POPC   PO468088  33.823  19.102   5.853
10384POPC   GL168089  33.823  19.070   6.153
10384POPC   GL268090  33.728  18.985   6.153
10384POPC   C1A68091  33.849  19.084   6.453
10384POPC   D2A68092  33.755  19.085   6.753
10384POPC   C3A68093  33.816  19.011   7.053
10384POPC   C4A68094  33.777  19.035   7.353
10384POPC   C1B68095  33.551  18.915   6.453
10384POPC   C2B68096  33.551  18.893   6.753
10384POPC   C3B68097  33.600  18.925   7.053
10384POPC   C4B68098  33.542  18.986   7.353
10385POPC   NC368099   2.751  40.809   5.553
10385POPC   PO468100   2.733  40.753   5.853
10385POPC   GL168101   2.778  40.748   6.153
10385POPC   GL268102   2.814  40.941   6.153
10385POPC   C1A68103   2.724  40.798   6.453
10385POPC   D2A68104   2.754  40.775   6.753
10385POPC   C3A68105   2.784  40.822   7.053
10385POPC   C4A68106   2.799  40.743   7.353
10385POPC   C1B68107   2.823  41.053   6.453
10385POPC   C2B68108   2.851  41.019   6.753
10385POPC   C3B68109   2.910  41.018   7.053
10385POPC   C4B68110   2.843  40.982   7.353
10386POPC   NC368111  13.639   2.813   5.553
10386POPC   PO468112  13.614   2.728   5.853
10386POPC   GL168113  13.604   2.740   6.153
10386POPC   GL268114  13.631   2.603   6.153
10386POPC   C1A68115  13.631   2.748   6.453
10386POPC   D2A68116  13.581   2.761   6.753
10386POPC   C3A68117  13.651   2.780   7.053
10386POPC   C4A68118  13.662   2.808   7.353
10386POPC   C1B68119  13.569   2.563   6.453
10386POPC   C2B68120  13.561   2.481   6.753
10386POPC   C3B68121  13.594   2.569   7.053
10386POPC   C4B68122  13.545   2.497   7.353
10387POPC   NC368123  37.719  22.176   5.553
10387POPC   PO468124  37.717  22.171   5.853
10387POPC   GL168125  37.637  22.141   6.153
10387POPC   GL268126  37.674  22.002   6.153
10387POPC   C1A68127  37.696  22.154   6.453
10387POPC   D2A68128  37.670  22.178   6.753
10387POPC   C3A68129  37.666  22.151   7.053
10387POPC   C4A68130  37.703  22.158   7.353
10387POPC   C1B68131  37.580  21.954   6.453
10387POPC   C2B68132  37.543  21.956   6.753
10387POPC   C3B68133  37.607  21.891   7.053
10387POPC   C4B68134  37.584  21.914   7.353
10388POPC   NC368135   2.011   1.251   5.553
10388POPC   PO468136   2.001   1.185   5.853
10388POPC   GL168137   2.005   1.255   6.153
10388POPC   GL268138   1.825   1.266   6.153
10388POPC   C1A68139   1.992   1.170   6.453
10388POPC   D2A68140   1.972   1.188   6.753
10388POPC   C3A68141   2.012   1.252   7.053
10388POPC   C4A68142   2.009   1.181   7.353
10388POPC   C1B68143   1.765   1.231   6.453
10388POPC   C2B68144   1.712   1.208   6.753
10388POPC   C3B68145   1.696   1.240   7.053
10388POPC   C4B68146   1.790   1.223   7.353
10389POPC   NC368147  20.585  12.055   5.553
10389POPC   PO468148  20.581  12.119   5.853
10389POPC   GL168149  20.579  12.046   6.153
10389POPC   GL268150  20.531  12.231   6.153
10389POPC   C1A68151  20.590  12.054   6.453
10389POPC   D2A68152  20.595  12.104   6.753
10389POPC   C3A68153  20.592  12.041   7.053
10389POPC   C4A68154  20.658  12.126   7.353
10389POPC   C1B68155  20.512  12.265   6.453
10389POPC   C2B68156  20.563  12.324   6.753
10389POPC   C3B68157  20.527  12.325   7.053
10389POPC   C4B68158  20.503  12.304   7.353
10390POPC   NC368159  17.539  24.457   5.553
10390POPC   PO468160  17.503  24.447   5.853
10390POPC   GL168161  17.550  24.477   6.153
10390POPC   GL268162  17.365  24.565   6.153
10390POPC   C1A68163  17.479  24.448   6.453
10390POPC   D2A68164  17.488  24.454   6.753
10390POPC   C3A68165  17.507  24.449   7.053
10390POPC   C4A68166  17.463  24.501   7.353
10390POPC   C1B68167  17.289  24.512   6.453
10390POPC   C2B68168  17.251  24.536   6.753
10390POPC   C3B68169  17.273  24.500   7.053
10390POPC   C4B68170  17.241  24.528   7.353
10391POPC   NC368171  43.873  20.602   5.553
10391POPC   PO468172  43.908  20.568   5.853
10391POPC   GL168173  43.899  20.633   6.153
10391POPC   GL268174  44.028  20.604   6.153
10391POPC   C1A68175  43.855  20.651   6.453
10391POPC   D2A68176  43.891  20.592   6.753
10391POPC   C3A68177  43.916  20.629   7.053
10391POPC   C4A68178  43.922  20.583   7.353
10391POPC   C1B68179  44.161  20.551   6.453
10391POPC   C2B68180  44.155  20.628   6.753
10391POPC   C3B68181  44.140  20.634   7.053
10391POPC   C4B68182  44.183  20.557   7.353
10392POPC   NC368183  21.370  12.088   5.553
10392POPC   PO468184  21.357  12.058   5.853
10392POPC   GL168185  21.431  12.116   6.153
10392POPC   GL268186  21.433  12.216   6.153
10392POPC   C1A68187  21.350  12.121   6.453
10392POPC   D2A68188  21.397  12.100   6.753
10392POPC   C3A68189  21.399  12.027   7.053
10392POPC   C4A68190  21.353  12.066   7.353
10392POPC   C1B68191  21.422  12.316   6.453
10392POPC   C2B68192  21.393  12.276   6.753
10392POPC   C3B68193  21.449  12.289   7.053
10392POPC   C4B68194  21.406  12.336   7.353
10393POPC   NC368195  15.152   9.790   5.553
10393POPC   PO468196  15.147   9.782   5.853
10393POPC   GL168197  15.180   9.758   6.153
10393POPC   GL268198  15.254   9.604   6.153
10393POPC   C1A68199  15.191   9.727   6.453
10393POPC   D2A68200  15.194   9.707   6.753
10393POPC   C3A68201  15.196   9.699   7.053
10393POPC   C4A68202  15.149   9.783   7.353
10393POPC   C1B68203  15.274   9.490   6.453
10393POPC   C2B68204  15.223   9.531   6.753
10393POPC   C3B68205  15.300   9.461   7.053
10393POPC   C4B68206  15.296   9.557   7.353
10394POPC   NC368207   5.100  11.314   5.553
10394POPC   PO468208   5.102  11.252   5.853
10394POPC   GL168209   5.104  11.311   6.153
10394POPC   GL268210   4.975  11.441   6.153
10394POPC   C1A68211   5.054  11.300   6.453
10394POPC   D2A68212   5.104  11.266   6.753
10394POPC   C3A68213   5.096  11.270   7.053
10394POPC   C4A68214   5.135  11.294   7.353
10394POPC   C1B68215   4.924  11.486   6.453
10394POPC   C2B68216   4.951  11.522   6.753
10394POPC   C3B68217   4.916  11.509   7.053
10394POPC   C4B68218   4.943  11.442   7.353
10395POPC   NC368219  10.508  34.551   5.553
10395POPC   PO468220  10.513  34.582   5.853
10395POPC   GL168221  10.526  34.613   6.153
10395POPC   GL268222  10.666  34.530   6.153
10395POPC   C1A68223  10.534  34.547   6.453
10395POPC   D2A68224  10.541  34.603   6.753
10395POPC   C3A68225  10.483  34.550   7.053
10395POPC   C4A68226  10.521  34.586   7.353
10395POPC   C1B68227  10.715  34.421   6.453
10395POPC   C2B68228  10.707  34.459   6.753
10395POPC   C3B68229  10.741  34.383   7.053
10395POPC   C4B68230  10.687  34.428   7.353
10396POPC   NC368231  17.482   0.482   5.553
10396POPC   PO468232  17.533   0.415   5.853
10396POPC   GL168233  17.493   0.405   6.153
10396POPC   GL268234  17.415   0.509   6.153
10396POPC   C1A68235  17.530   0.485   6.453
10396POPC   D2A68236  17.514   0.478   6.753
10396POPC   C3A68237  17.504   0.453   7.053
10396POPC   C4A68238  17.499   0.481   7.353
10396POPC   C1B68239  17.398   0.715   6.453
10396POPC   C2B68240  17.443   0.704   6.753
10396POPC   C3B68241  17.405   0.678   7.053
10396POPC   C4B68242  17.388   0.625   7.353
10397POPC   NC368243   2.020  18.270   5.553
10397POPC   PO468244   1.992  18.286   5.853
10397POPC   GL168245   2.031  18.240   6.153
10397POPC   GL268246   1.964  18.211   6.153
10397POPC   C1A68247   1.947  18.268   6.453
10397POPC   D2A68248   1.991  18.291   6.753
10397POPC   C3A68249   1.982  18.240   7.053
10397POPC   C4A68250   2.003  18.319   7.353
10397POPC   C1B68251   1.888  18.071   6.453
10397POPC   C2B68252   1.864  18.005   6.753
10397POPC   C3B68253   1.908  18.065   7.053
10397POPC   C4B68254   1.931  18.075   7.353
10398POPC   NC368255  10.544  24.479   5.553
10398POPC   PO468256  10.491  24.508   5.853
10398POPC   GL168257  10.479  24.500   6.153
10398POPC   GL268258  10.503  24.613   6.153
10398POPC   C1A68259  10.508  24.456   6.453
10398POPC   D2A68260  10.549  24.522   6.753
10398POPC   C3A68261  10.569  24.515   7.053
10398POPC   C4A68262  10.512  24.483   7.353
10398POPC   C1B68263  10.438  24.655   6.453
10398POPC   C2B68264  10.439  24.706   6.753
10398POPC   C3B68265  10.396  24.716   7.053
10398POPC   C4B68266  10.348  24.663   7.353
10399POPC   NC368267  23.726  21.418   5.553
10399POPC   PO468268  23.699  21.402   5.853
10399POPC   GL168269  23.700  21.435   6.153
10399POPC   GL268270  23.811  21.312   6.153
10399POPC   C1A68271  23.670  21.376   6.453
10399POPC   D2A68272  23.699  21.395   6.753
10399POPC   C3A68273  23.728  21.396   7.053
10399POPC   C4A68274  23.715  21.340   7.353
10399POPC   C1B68275  23.934  21.163   6.453
10399POPC   C2B68276  23.915  21.187   6.753
10399POPC   C3B68277  23.904  21.194   7.053
10399POPC   C4B68278  23.903  21.239   7.353
10400POPC   NC368279  44.689  37.630   5.553
10400POPC   PO468280  44.685  37.709   5.853
10400POPC   GL168281  44.631  37.709   6.153
10400POPC   GL268282  44.700  37.570   6.153
10400POPC   C1A68283  44.667  37.703   6.453
10400POPC   D2A68284  44.655  37.676   6.753
10400POPC   C3A68285  44.614  37.689   7.053
10400POPC   C4A68286  44.694  37.678   7.353
10400POPC   C1B68287  44.663  37.446   6.453
10400POPC   C2B68288  44.664  37.414   6.753
10400POPC   C3B68289  44.726  37.407   7.053
10400POPC   C4B68290  44.684  37.395   7.353
10401POPC   NC368291   0.403  14.385   5.553
10401POPC   PO468292   0.473  14.354   5.853
10401POPC   GL168293   0.425  14.423   6.153
10401POPC   GL268294   0.381  14.322   6.153
10401POPC   C1A68295   0.487  14.364   6.453
10401POPC   D2A68296   0.399  14.440   6.753
10401POPC   C3A68297   0.476  14.378   7.053
10401POPC   C4A68298   0.435  14.440   7.353
10401POPC   C1B68299   0.204  14.252   6.453
10401POPC   C2B68300   0.238  14.268   6.753
10401POPC   C3B68301   0.261  14.221   7.053
10401POPC   C4B68302   0.280  14.204   7.353
10402POPC   NC368303   8.960  37.637   5.553
10402POPC   PO468304   8.993  37.703   5.853
10402POPC   GL168305   9.008  37.646   6.153
10402POPC   GL268306   8.840  37.725   6.153
10402POPC   C1A68307   8.986  37.640   6.453
10402POPC   D2A68308   8.952  37.719   6.753
10402POPC   C3A68309   8.951  37.705   7.053
10402POPC   C4A68310   8.969  37.649   7.353
10402POPC   C1B68311   8.722  37.804   6.453
10402POPC   C2B68312   8.770  37.734   6.753
10402POPC   C3B68313   8.779  37.737   7.053
10402POPC   C4B68314   8.775  37.753   7.353
10403POPC   NC368315  33.023  37.632   5.553
10403POPC   PO468316  33.051  37.629   5.853
10403POPC   GL168317  32.987  37.669   6.153
10403POPC   GL268318  32.967  37.566   6.153
10403POPC   C1A68319  33.061  37.693   6.453
10403POPC   D2A68320  33.050  37.705   6.753
10403POPC   C3A68321  33.043  37.649   7.053
10403POPC   C4A68322  32.994  37.720   7.353
10403POPC   C1B68323  32.845  37.563   6.453
10403POPC   C2B68324  32.834  37.487   6.753
10403POPC   C3B68325  32.813  37.563   7.053
10403POPC   C4B68326  32.775  37.499   7.353
10404POPC   NC368327  12.830   9.795   5.553
10404POPC   PO468328  12.864   9.738   5.853
10404POPC   GL168329  12.875   9.735   6.153
10404POPC   GL268330  12.937   9.759   6.153
10404POPC   C1A68331  12.893   9.733   6.453
10404POPC   D2A68332  12.855   9.736   6.753
10404POPC   C3A68333  12.855   9.745   7.053
10404POPC   C4A68334  12.861   9.712   7.353
10404POPC   C1B68335  13.055   9.821   6.453
10404POPC   C2B68336  13.064   9.876   6.753
10404POPC   C3B68337  13.092   9.797   7.053
10404POPC   C4B68338  13.113   9.870   7.353
10405POPC   NC368339  39.218  35.327   5.553
10405POPC   PO468340  39.244  35.304   5.853
10405POPC   GL168341  39.189  35.338   6.153
10405POPC   GL268342  39.179  35.203   6.153
10405POPC   C1A68343  39.280  35.377   6.453
10405POPC   D2A68344  39.191  35.330   6.753
10405POPC   C3A68345  39.251  35.392   7.053
10405POPC   C4A68346  39.211  35.399   7.353
10405POPC   C1B68347  39.150  35.080   6.453
10405POPC   C2B68348  39.190  35.096   6.753
10405POPC   C3B68349  39.099  35.078   7.053
10405POPC   C4B68350  39.100  35.086   7.353
10406POPC   NC368351   6.664   0.391   5.553
10406POPC   PO468352   6.675   0.485   5.853
10406POPC   GL168353   6.690   0.442   6.153
10406POPC   GL268354   6.494   0.435   6.153
10406POPC   C1A68355   6.660   0.394   6.453
10406POPC   D2A68356   6.643   0.397   6.753
10406POPC   C3A68357   6.610   0.398   7.053
10406POPC   C4A68358   6.692   0.474   7.353
10406POPC   C1B68359   6.351   0.470   6.453
10406POPC   C2B68360   6.377   0.445   6.753
10406POPC   C3B68361   6.418   0.426   7.053
10406POPC   C4B68362   6.417   0.484   7.353
10407POPC   NC368363   7.393  32.223   5.553
10407POPC   PO468364   7.371  32.236   5.853
10407POPC   GL168365   7.440  32.291   6.153
10407POPC   GL268366   7.328  32.153   6.153
10407POPC   C1A68367   7.408  32.263   6.453
10407POPC   D2A68368   7.444  32.199   6.753
10407POPC   C3A68369   7.411  32.207   7.053
10407POPC   C4A68370   7.381  32.253   7.353
10407POPC   C1B68371   7.188  32.185   6.453
10407POPC   C2B68372   7.242  32.112   6.753
10407POPC   C3B68373   7.154  32.180   7.053
10407POPC   C4B68374   7.233  32.165   7.353
10408POPC   NC368375  25.255  24.473   5.553
10408POPC   PO468376  25.220  24.452   5.853
10408POPC   GL168377  25.302  24.498   6.153
10408POPC   GL268378  25.157  24.376   6.153
10408POPC   C1A68379  25.310  24.500   6.453
10408POPC   D2A68380  25.248  24.521   6.753
10408POPC   C3A68381  25.285  24.464   7.053
10408POPC   C4A68382  25.272  24.511   7.353
10408POPC   C1B68383  25.177  24.239   6.453
10408POPC   C2B68384  25.103  24.302   6.753
10408POPC   C3B68385  25.097  24.311   7.053
10408POPC   C4B68386  25.095  24.321   7.353
10409POPC   NC368387  24.467  20.621   5.553
10409POPC   PO468388  24.450  20.578   5.853
10409POPC   GL168389  24.458  20.578   6.153
10409POPC   GL268390  24.483  20.496   6.153
10409POPC   C1A68391  24.499  20.603   6.453
10409POPC   D2A68392  24.528  20.587   6.753
10409POPC   C3A68393  24.502  20.585   7.053
10409POPC   C4A68394  24.444  20.583   7.353
10409POPC   C1B68395  24.428  20.405   6.453
10409POPC   C2B68396  24.441  20.385   6.753
10409POPC   C3B68397  24.505  20.393   7.053
10409POPC   C4B68398  24.458  20.400   7.353
10410POPC   NC368399   9.712  35.387   5.553
10410POPC   PO468400   9.771  35.334   5.853
10410POPC   GL168401   9.747  35.346   6.153
10410POPC   GL268402   9.686  35.442   6.153
10410POPC   C1A68403   9.778  35.385   6.453
10410POPC   D2A68404   9.772  35.380   6.753
10410POPC   C3A68405   9.709  35.352   7.053
10410POPC   C4A68406   9.699  35.370   7.353
10410POPC   C1B68407   9.626  35.500   6.453
10410POPC   C2B68408   9.605  35.513   6.753
10410POPC   C3B68409   9.576  35.547   7.053
10410POPC   C4B68410   9.543  35.514   7.353
10411POPC   NC368411   4.318  43.087   5.553
10411POPC   PO468412   4.337  43.075   5.853
10411POPC   GL168413   4.277  43.104   6.153
10411POPC   GL268414   4.381  42.968   6.153
10411POPC   C1A68415   4.363  43.138   6.453
10411POPC   D2A68416   4.298  43.133   6.753
10411POPC   C3A68417   4.319  43.158   7.053
10411POPC   C4A68418   4.292  43.069   7.353
10411POPC   C1B68419   4.322  42.886   6.453
10411POPC   C2B68420   4.314  42.885   6.753
10411POPC   C3B68421   4.364  42.820   7.053
10411POPC   C4B68422   4.370  42.830   7.353
10412POPC   NC368423   8.958  43.887   5.553
10412POPC   PO468424   8.930  43.846   5.853
10412POPC   GL168425   9.022  43.895   6.153
10412POPC   GL268426   9.037  43.786   6.153
10412POPC   C1A68427   8.935  43.870   6.453
10412POPC   D2A68428   9.019  43.914   6.753
10412POPC   C3A68429   8.983  43.933   7.053
10412POPC   C4A68430   9.008  43.885   7.353
10412POPC   C1B68431   9.187  43.804   6.453
10412POPC   C2B68432   9.171  43.812   6.753
10412POPC   C3B68433   9.159  43.744   7.053
10412POPC   C4B68434   9.202  43.769   7.353
10413POPC   NC368435   7.464  21.426   5.553
10413POPC   PO468436   7.425  21.341   5.853
10413POPC   GL168437   7.438  21.342   6.153
10413POPC   GL268438   7.314  21.325   6.153
10413POPC   C1A68439   7.451  21.409   6.453
10413POPC   D2A68440   7.413  21.412   6.753
10413POPC   C3A68441   7.420  21.336   7.053
10413POPC   C4A68442   7.453  21.375   7.353
10413POPC   C1B68443   7.218  21.387   6.453
10413POPC   C2B68444   7.158  21.400   6.753
10413POPC   C3B68445   7.127  21.390   7.053
10413POPC   C4B68446   7.129  21.352   7.353
10414POPC   NC368447  19.876  39.967   5.553
10414POPC   PO468448  19.843  40.045   5.853
10414POPC   GL168449  19.790  39.999   6.153
10414POPC   GL268450  19.950  40.055   6.153
10414POPC   C1A68451  19.872  40.007   6.453
10414POPC   D2A68452  19.785  40.005   6.753
10414POPC   C3A68453  19.837  39.969   7.053
10414POPC   C4A68454  19.845  40.003   7.353
10414POPC   C1B68455  20.025  40.150   6.453
10414POPC   C2B68456  20.003  40.163   6.753
10414POPC   C3B68457  20.035  40.176   7.053
10414POPC   C4B68458  20.059  40.170   7.353
10415POPC   NC368459  22.972  33.002   5.553
10415POPC   PO468460  22.922  33.069   5.853
10415POPC   GL168461  22.963  33.069   6.153
10415POPC   GL268462  22.975  32.954   6.153
10415POPC   C1A68463  22.954  32.977   6.453
10415POPC   D2A68464  22.966  33.009   6.753
10415POPC   C3A68465  22.888  33.038   7.053
10415POPC   C4A68466  22.898  33.055   7.353
10415POPC   C1B68467  23.122  32.790   6.453
10415POPC   C2B68468  23.077  32.870   6.753
10415POPC   C3B68469  23.128  32.783   7.053
10415POPC   C4B68470  23.041  32.791   7.353
10416POPC   NC368471  28.334  31.440   5.553
10416POPC   PO468472  28.414  31.433   5.853
10416POPC   GL168473  28.382  31.486   6.153
10416POPC   GL268474  28.289  31.405   6.153
10416POPC   C1A68475  28.341  31.483   6.453
10416POPC   D2A68476  28.354  31.491   6.753
10416POPC   C3A68477  28.331  31.468   7.053
10416POPC   C4A68478  28.403  31.501   7.353
10416POPC   C1B68479  28.172  31.278   6.453
10416POPC   C2B68480  28.213  31.322   6.753
10416POPC   C3B68481  28.204  31.347   7.053
10416POPC   C4B68482  28.150  31.287   7.353
10417POPC   NC368483  29.928  22.892   5.553
10417POPC   PO468484  29.890  22.911   5.853
10417POPC   GL168485  29.915  22.951   6.153
10417POPC   GL268486  29.843  22.890   6.153
10417POPC   C1A68487  29.938  22.935   6.453
10417POPC   D2A68488  29.970  22.961   6.753
10417POPC   C3A68489  29.929  22.987   7.053
10417POPC   C4A68490  29.908  22.981   7.353
10417POPC   C1B68491  29.654  22.889   6.453
10417POPC   C2B68492  29.657  22.818   6.753
10417POPC   C3B68493  29.722  22.895   7.053
10417POPC   C4B68494  29.715  22.861   7.353
10418POPC   NC368495  15.172  25.267   5.553
10418POPC   PO468496  15.135  25.266   5.853
10418POPC   GL168497  15.211  25.288   6.153
10418POPC   GL268498  15.150  25.369   6.153
10418POPC   C1A68499  15.171  25.230   6.453
10418POPC   D2A68500  15.187  25.237   6.753
10418POPC   C3A68501  15.192  25.286   7.053
10418POPC   C4A68502  15.149  25.302   7.353
10418POPC   C1B68503  15.095  25.496   6.453
10418POPC   C2B68504  15.114  25.483   6.753
10418POPC   C3B68505  15.046  25.454   7.053
10418POPC   C4B68506  15.044  25.444   7.353
10419POPC   NC368507   5.064  43.933   5.553
10419POPC   PO468508   5.085  43.842   5.853
10419POPC   GL168509   5.104  43.876   6.153
10419POPC   GL268510   4.991  43.864   6.153
10419POPC   C1A68511   5.055  43.893   6.453
10419POPC   D2A68512   5.140  43.917   6.753
10419POPC   C3A68513   5.108  43.921   7.053
10419POPC   C4A68514   5.046  43.928   7.353
10419POPC   C1B68515   4.832  43.800   6.453
10419POPC   C2B68516   4.841  43.741   6.753
10419POPC   C3B68517   4.881  43.761   7.053
10419POPC   C4B68518   4.907  43.763   7.353
10420POPC   NC368519   1.185  19.082   5.553
10420POPC   PO468520   1.176  19.037   5.853
10420POPC   GL168521   1.173  19.100   6.153
10420POPC   GL268522   1.096  19.027   6.153
10420POPC   C1A68523   1.200  19.027   6.453
10420POPC   D2A68524   1.216  19.035   6.753
10420POPC   C3A68525   1.199  19.014   7.053
10420POPC   C4A68526   1.188  19.034   7.353
10420POPC   C1B68527   1.036  18.922   6.453
10420POPC   C2B68528   1.016  18.927   6.753
10420POPC   C3B68529   1.007  18.954   7.053
10420POPC   C4B68530   1.014  18.952   7.353
10421POPC   NC368531  29.101  15.200   5.553
10421POPC   PO468532  29.130  15.187   5.853
10421POPC   GL168533  29.138  15.209   6.153
10421POPC   GL268534  28.989  15.105   6.153
10421POPC   C1A68535  29.190  15.210   6.453
10421POPC   D2A68536  29.167  15.205   6.753
10421POPC   C3A68537  29.194  15.180   7.053
10421POPC   C4A68538  29.097  15.152   7.353
10421POPC   C1B68539  28.969  15.023   6.453
10421POPC   C2B68540  28.948  15.057   6.753
10421POPC   C3B68541  28.976  15.040   7.053
10421POPC   C4B68542  28.899  15.063   7.353
10422POPC   NC368543  36.910   6.596   5.553
10422POPC   PO468544  36.950   6.618   5.853
10422POPC   GL168545  36.873   6.672   6.153
10422POPC   GL268546  37.037   6.557   6.153
10422POPC   C1A68547  36.935   6.655   6.453
10422POPC   D2A68548  36.913   6.669   6.753
10422POPC   C3A68549  36.872   6.629   7.053
10422POPC   C4A68550  36.892   6.654   7.353
10422POPC   C1B68551  37.115   6.487   6.453
10422POPC   C2B68552  37.036   6.450   6.753
10422POPC   C3B68553  37.111   6.489   7.053
10422POPC   C4B68554  37.052   6.464   7.353
10423POPC   NC368555  13.638  20.658   5.553
10423POPC   PO468556  13.651  20.651   5.853
10423POPC   GL168557  13.588  20.607   6.153
10423POPC   GL268558  13.542  20.528   6.153
10423POPC   C1A68559  13.642  20.618   6.453
10423POPC   D2A68560  13.654  20.616   6.753
10423POPC   C3A68561  13.634  20.658   7.053
10423POPC   C4A68562  13.585  20.635   7.353
10423POPC   C1B68563  13.439  20.493   6.453
10423POPC   C2B68564  13.383  20.477   6.753
10423POPC   C3B68565  13.423  20.474   7.053
10423POPC   C4B68566  13.363  20.470   7.353
10424POPC   NC368567   4.338  28.412   5.553
10424POPC   PO468568   4.335  28.368   5.853
10424POPC   GL168569   4.349  28.369   6.153
10424POPC   GL268570   4.199  28.356   6.153
10424POPC   C1A68571   4.288  28.334   6.453
10424POPC   D2A68572   4.330  28.341   6.753
10424POPC   C3A68573   4.320  28.406   7.053
10424POPC   C4A68574   4.342  28.401   7.353
10424POPC   C1B68575   4.050  28.374   6.453
10424POPC   C2B68576   4.027  28.379   6.753
10424POPC   C3B68577   4.106  28.364   7.053
10424POPC   C4B68578   4.114  28.385   7.353
10425POPC   NC368579  27.621  16.728   5.553
10425POPC   PO468580  27.613  16.692   5.853
10425POPC   GL168581  27.548  16.750   6.153
10425POPC   GL268582  27.513  16.719   6.153
10425POPC   C1A68583  27.594  16.687   6.453
10425POPC   D2A68584  27.625  16.739   6.753
10425POPC   C3A68585  27.604  16.737   7.053
10425POPC   C4A68586  27.597  16.728   7.353
10425POPC   C1B68587  27.362  16.701   6.453
10425POPC   C2B68588  27.333  16.665   6.753
10425POPC   C3B68589  27.373  16.621   7.053
10425POPC   C4B68590  27.364  16.657   7.353
10426POPC   NC368591  36.897  11.335   5.553
10426POPC   PO468592  36.943  11.261   5.853
10426POPC   GL168593  36.953  11.319   6.153
10426POPC   GL268594  36.808  11.326   6.153
10426POPC   C1A68595  36.876  11.317   6.453
10426POPC   D2A68596  36.911  11.254   6.753
10426POPC   C3A68597  36.872  11.305   7.053
10426POPC   C4A68598  36.916  11.253   7.353
10426POPC   C1B68599  36.666  11.263   6.453
10426POPC   C2B68600  36.609  11.320   6.753
10426POPC   C3B68601  36.687  11.275   7.053
10426POPC   C4B68602  36.668  11.276   7.353
10427POPC   NC368603  41.574  33.053   5.553
10427POPC   PO468604  41.547  33.073   5.853
10427POPC   GL168605  41.589  33.035   6.153
10427POPC   GL268606  41.646  33.155   6.153
10427POPC   C1A68607  41.575  33.030   6.453
10427POPC   D2A68608  41.572  33.072   6.753
10427POPC   C3A68609  41.537  33.042   7.053
10427POPC   C4A68610  41.599  33.029   7.353
10427POPC   C1B68611  41.629  33.255   6.453
10427POPC   C2B68612  41.710  33.203   6.753
10427POPC   C3B68613  41.654  33.219   7.053
10427POPC   C4B68614  41.709  33.215   7.353
10428POPC   NC368615   0.454  36.946   5.553
10428POPC   PO468616   0.470  36.876   5.853
10428POPC   GL168617   0.460  36.914   6.153
10428POPC   GL268618   0.367  36.755   6.153
10428POPC   C1A68619   0.423  36.927   6.453
10428POPC   D2A68620   0.435  36.899   6.753
10428POPC   C3A68621   0.408  36.863   7.053
10428POPC   C4A68622   0.409  36.879   7.353
10428POPC   C1B68623   0.355  36.697   6.453
10428POPC   C2B68624   0.358  36.700   6.753
10428POPC   C3B68625   0.333  36.685   7.053
10428POPC   C4B68626   0.285  36.681   7.353
10429POPC   NC368627  18.257   8.193   5.553
10429POPC   PO468628  18.300   8.236   5.853
10429POPC   GL168629  18.308   8.170   6.153
10429POPC   GL268630  18.331   8.087   6.153
10429POPC   C1A68631  18.288   8.201   6.453
10429POPC   D2A68632  18.242   8.180   6.753
10429POPC   C3A68633  18.294   8.201   7.053
10429POPC   C4A68634  18.251   8.238   7.353
10429POPC   C1B68635  18.374   7.990   6.453
10429POPC   C2B68636  18.449   7.981   6.753
10429POPC   C3B68637  18.447   7.997   7.053
10429POPC   C4B68638  18.371   7.945   7.353
10430POPC   NC368639  19.835  12.861   5.553
10430POPC   PO468640  19.863  12.898   5.853
10430POPC   GL168641  19.862  12.833   6.153
10430POPC   GL268642  19.674  12.829   6.153
10430POPC   C1A68643  19.847  12.846   6.453
10430POPC   D2A68644  19.825  12.898   6.753
10430POPC   C3A68645  19.863  12.803   7.053
10430POPC   C4A68646  19.882  12.805   7.353
10430POPC   C1B68647  19.575  12.827   6.453
10430POPC   C2B68648  19.546  12.875   6.753
10430POPC   C3B68649  19.539  12.799   7.053
10430POPC   C4B68650  19.579  12.837   7.353
10431POPC   NC368651  36.123  20.630   5.553
10431POPC   PO468652  36.156  20.596   5.853
10431POPC   GL168653  36.152  20.621   6.153
10431POPC   GL268654  36.169  20.474   6.153
10431POPC   C1A68655  36.102  20.654   6.453
10431POPC   D2A68656  36.159  20.567   6.753
10431POPC   C3A68657  36.078  20.568   7.053
10431POPC   C4A68658  36.146  20.569   7.353
10431POPC   C1B68659  36.195  20.407   6.453
10431POPC   C2B68660  36.244  20.358   6.753
10431POPC   C3B68661  36.169  20.341   7.053
10431POPC   C4B68662  36.215  20.382   7.353
10432POPC   NC368663  15.152  10.494   5.553
10432POPC   PO468664  15.131  10.562   5.853
10432POPC   GL168665  15.171  10.480   6.153
10432POPC   GL268666  15.175  10.606   6.153
10432POPC   C1A68667  15.228  10.486   6.453
10432POPC   D2A68668  15.189  10.557   6.753
10432POPC   C3A68669  15.134  10.484   7.053
10432POPC   C4A68670  15.201  10.522   7.353
10432POPC   C1B68671  15.267  10.728   6.453
10432POPC   C2B68672  15.184  10.808   6.753
10432POPC   C3B68673  15.182  10.740   7.053
10432POPC   C4B68674  15.193  10.789   7.353
10433POPC   NC368675  22.121  17.461   5.553
10433POPC   PO468676  22.196  17.536   5.853
10433POPC   GL168677  22.160  17.483   6.153
10433POPC   GL268678  22.156  17.420   6.153
10433POPC   C1A68679  22.153  17.530   6.453
10433POPC   D2A68680  22.163  17.552   6.753
10433POPC   C3A68681  22.198  17.485   7.053
10433POPC   C4A68682  22.191  17.495   7.353
10433POPC   C1B68683  22.145  17.275   6.453
10433POPC   C2B68684  22.127  17.208   6.753
10433POPC   C3B68685  22.153  17.257   7.053
10433POPC   C4B68686  22.098  17.255   7.353
10434POPC   NC368687   2.815  22.140   5.553
10434POPC   PO468688   2.814  22.126   5.853
10434POPC   GL168689   2.777  22.114   6.153
10434POPC   GL268690   2.712  22.085   6.153
10434POPC   C1A68691   2.765  22.202   6.453
10434POPC   D2A68692   2.806  22.143   6.753
10434POPC   C3A68693   2.772  22.117   7.053
10434POPC   C4A68694   2.784  22.120   7.353
10434POPC   C1B68695   2.691  21.886   6.453
10434POPC   C2B68696   2.680  21.959   6.753
10434POPC   C3B68697   2.670  21.965   7.053
10434POPC   C4B68698   2.679  21.943   7.353
10435POPC   NC368699  41.568  43.081   5.553
10435POPC   PO468700  41.606  43.089   5.853
10435POPC   GL168701  41.607  43.066   6.153
10435POPC   GL268702  41.455  43.024   6.153
10435POPC   C1A68703  41.593  43.127   6.453
10435POPC   D2A68704  41.553  43.143   6.753
10435POPC   C3A68705  41.568  43.060   7.053
10435POPC   C4A68706  41.521  43.104   7.353
10435POPC   C1B68707  41.400  42.844   6.453
10435POPC   C2B68708  41.455  42.931   6.753
10435POPC   C3B68709  41.416  42.868   7.053
10435POPC   C4B68710  41.459  42.923   7.353
10436POPC   NC368711  25.253  32.981   5.553
10436POPC   PO468712  25.231  33.031   5.853
10436POPC   GL168713  25.259  33.061   6.153
10436POPC   GL268714  25.188  33.088   6.153
10436POPC   C1A68715  25.312  33.026   6.453
10436POPC   D2A68716  25.218  33.012   6.753
10436POPC   C3A68717  25.227  33.036   7.053
10436POPC   C4A68718  25.231  33.043   7.353
10436POPC   C1B68719  25.083  33.191   6.453
10436POPC   C2B68720  25.099  33.151   6.753
10436POPC   C3B68721  25.085  33.185   7.053
10436POPC   C4B68722  25.053  33.148   7.353
10437POPC   NC368723  22.918  40.798   5.553
10437POPC   PO468724  22.904  40.736   5.853
10437POPC   GL168725  22.921  40.781   6.153
10437POPC   GL268726  23.042  40.843   6.153
10437POPC   C1A68727  22.892  40.738   6.453
10437POPC   D2A68728  22.921  40.761   6.753
10437POPC   C3A68729  22.951  40.791   7.053
10437POPC   C4A68730  22.944  40.744   7.353
10437POPC   C1B68731  23.054  40.991   6.453
10437POPC   C2B68732  23.101  40.966   6.753
10437POPC   C3B68733  23.062  40.946   7.053
10437POPC   C4B68734  23.122  41.026   7.353
10438POPC   NC368735  26.023  40.810   5.553
10438POPC   PO468736  26.085  40.819   5.853
10438POPC   GL168737  26.084  40.816   6.153
10438POPC   GL268738  25.904  40.878   6.153
10438POPC   C1A68739  25.995  40.801   6.453
10438POPC   D2A68740  26.043  40.819   6.753
10438POPC   C3A68741  26.005  40.769   7.053
10438POPC   C4A68742  26.027  40.745   7.353
10438POPC   C1B68743  25.802  40.893   6.453
10438POPC   C2B68744  25.829  40.902   6.753
10438POPC   C3B68745  25.788  40.959   7.053
10438POPC   C4B68746  25.854  40.957   7.353
10439POPC   NC368747  12.821  10.517   5.553
10439POPC   PO468748  12.857  10.480   5.853
10439POPC   GL168749  12.866  10.538   6.153
10439POPC   GL268750  12.787  10.589   6.153
10439POPC   C1A68751  12.866  10.518   6.453
10439POPC   D2A68752  12.846  10.508   6.753
10439POPC   C3A68753  12.869  10.570   7.053
10439POPC   C4A68754  12.870  10.505   7.353
10439POPC   C1B68755  12.645  10.699   6.453
10439POPC   C2B68756  12.655  10.722   6.753
10439POPC   C3B68757  12.691  10.680   7.053
10439POPC   C4B68758  12.699  10.696   7.353
10440POPC   NC368759  33.051  28.333   5.553
10440POPC   PO468760  33.069  28.338   5.853
10440POPC   GL168761  33.006  28.339   6.153
10440POPC   GL268762  32.945  28.300   6.153
10440POPC   C1A68763  33.026  28.383   6.453
10440POPC   D2A68764  33.046  28.383   6.753
10440POPC   C3A68765  33.008  28.358   7.053
10440POPC   C4A68766  32.987  28.342   7.353
10440POPC   C1B68767  32.915  28.174   6.453
10440POPC   C2B68768  32.884  28.125   6.753
10440POPC   C3B68769  32.865  28.131   7.053
10440POPC   C4B68770  32.893  28.207   7.353
10441POPC   NC368771  35.318  10.480   5.553
10441POPC   PO468772  35.304  10.493   5.853
10441POPC   GL168773  35.371  10.510   6.153
10441POPC   GL268774  35.228  10.601   6.153
10441POPC   C1A68775  35.316  10.529   6.453
10441POPC   D2A68776  35.329  10.551   6.753
10441POPC   C3A68777  35.336  10.517   7.053
10441POPC   C4A68778  35.339  10.486   7.353
10441POPC   C1B68779  35.113  10.596   6.453
10441POPC   C2B68780  35.126  10.641   6.753
10441POPC   C3B68781  35.122  10.637   7.053
10441POPC   C4B68782  35.086  10.618   7.353
10442POPC   NC368783  18.285  12.037   5.553
10442POPC   PO468784  18.263  12.087   5.853
10442POPC   GL168785  18.250  12.115   6.153
10442POPC   GL268786  18.332  12.191   6.153
10442POPC   C1A68787  18.327  12.055   6.453
10442POPC   D2A68788  18.314  12.070   6.753
10442POPC   C3A68789  18.294  12.052   7.053
10442POPC   C4A68790  18.278  12.067   7.353
10442POPC   C1B68791  18.366  12.339   6.453
10442POPC   C2B68792  18.316  12.274   6.753
10442POPC   C3B68793  18.385  12.357   7.053
10442POPC   C4B68794  18.387  12.277   7.353
10443POPC   NC368795   2.795  29.967   5.553
10443POPC   PO468796   2.729  29.916   5.853
10443POPC   GL168797   2.736  29.885   6.153
10443POPC   GL268798   2.714  29.980   6.153
10443POPC   C1A68799   2.735  29.886   6.453
10443POPC   D2A68800   2.758  29.928   6.753
10443POPC   C3A68801   2.794  29.901   7.053
10443POPC   C4A68802   2.815  29.934   7.353
10443POPC   C1B68803   2.596  30.095   6.453
10443POPC   C2B68804   2.604  30.104   6.753
10443POPC   C3B68805   2.619  30.093   7.053
10443POPC   C4B68806   2.623  30.097   7.353
10444POPC   NC368807   1.957  39.245   5.553
10444POPC   PO468808   1.962  39.195   5.853
10444POPC   GL168809   1.973  39.191   6.153
10444POPC   GL268810   2.145  39.306   6.153
10444POPC   C1A68811   1.957  39.205   6.453
10444POPC   D2A68812   1.987  39.231   6.753
10444POPC   C3A68813   1.997  39.225   7.053
10444POPC   C4A68814   2.033  39.242   7.353
10444POPC   C1B68815   2.261  39.258   6.453
10444POPC   C2B68816   2.264  39.271   6.753
10444POPC   C3B68817   2.252  39.299   7.053
10444POPC   C4B68818   2.265  39.297   7.353
10445POPC   NC368819  33.769   8.164   5.553
10445POPC   PO468820  33.819   8.169   5.853
10445POPC   GL168821  33.779   8.154   6.153
10445POPC   GL268822  33.725   8.300   6.153
10445POPC   C1A68823  33.783   8.209   6.453
10445POPC   D2A68824  33.804   8.224   6.753
10445POPC   C3A68825  33.820   8.157   7.053
10445POPC   C4A68826  33.833   8.225   7.353
10445POPC   C1B68827  33.745   8.407   6.453
10445POPC   C2B68828  33.685   8.457   6.753
10445POPC   C3B68829  33.714   8.399   7.053
10445POPC   C4B68830  33.650   8.466   7.353
10446POPC   NC368831  27.610  32.243   5.553
10446POPC   PO468832  27.596  32.220   5.853
10446POPC   GL168833  27.561  32.287   6.153
10446POPC   GL268834  27.611  32.080   6.153
10446POPC   C1A68835  27.640  32.260   6.453
10446POPC   D2A68836  27.632  32.258   6.753
10446POPC   C3A68837  27.557  32.244   7.053
10446POPC   C4A68838  27.555  32.281   7.353
10446POPC   C1B68839  27.533  32.000   6.453
10446POPC   C2B68840  27.562  31.985   6.753
10446POPC   C3B68841  27.518  32.012   7.053
10446POPC   C4B68842  27.580  31.965   7.353
10447POPC   NC368843  15.214  26.830   5.553
10447POPC   PO468844  15.184  26.840   5.853
10447POPC   GL168845  15.164  26.793   6.153
10447POPC   GL268846  15.172  26.982   6.153
10447POPC   C1A68847  15.203  26.833   6.453
10447POPC   D2A68848  15.189  26.802   6.753
10447POPC   C3A68849  15.169  26.862   7.053
10447POPC   C4A68850  15.151  26.801   7.353
10447POPC   C1B68851  15.148  27.113   6.453
10447POPC   C2B68852  15.176  27.041   6.753
10447POPC   C3B68853  15.171  27.065   7.053
10447POPC   C4B68854  15.190  27.041   7.353
10448POPC   NC368855  23.733  35.397   5.553
10448POPC   PO468856  23.742  35.363   5.853
10448POPC   GL168857  23.747  35.397   6.153
10448POPC   GL268858  23.807  35.236   6.153
10448POPC   C1A68859  23.763  35.335   6.453
10448POPC   D2A68860  23.672  35.381   6.753
10448POPC   C3A68861  23.721  35.393   7.053
10448POPC   C4A68862  23.753  35.397   7.353
10448POPC   C1B68863  23.882  35.170   6.453
10448POPC   C2B68864  23.898  35.109   6.753
10448POPC   C3B68865  23.810  35.173   7.053
10448POPC   C4B68866  23.820  35.143   7.353
10449POPC   NC368867   4.299  13.673   5.553
10449POPC   PO468868   4.347  13.621   5.853
10449POPC   GL168869   4.303  13.609   6.153
10449POPC   GL268870   4.255  13.532   6.153
10449POPC   C1A68871   4.330  13.651   6.453
10449POPC   D2A68872   4.329  13.602   6.753
10449POPC   C3A68873   4.287  13.609   7.053
10449POPC   C4A68874   4.321  13.662   7.353
10449POPC   C1B68875   4.058  13.530   6.453
10449POPC   C2B68876   4.146  13.492   6.753
10449POPC   C3B68877   4.116  13.503   7.053
10449POPC   C4B68878   4.082  13.507   7.353
10450POPC   NC368879  43.061  28.322   5.553
10450POPC   PO468880  43.151  28.354   5.853
10450POPC   GL168881  43.156  28.415   6.153
10450POPC   GL268882  43.178  28.441   6.153
10450POPC   C1A68883  43.078  28.347   6.453
10450POPC   D2A68884  43.104  28.397   6.753
10450POPC   C3A68885  43.106  28.375   7.053
10450POPC   C4A68886  43.139  28.409   7.353
10450POPC   C1B68887  43.237  28.628   6.453
10450POPC   C2B68888  43.146  28.620   6.753
10450POPC   C3B68889  43.148  28.616   7.053
10450POPC   C4B68890  43.188  28.632   7.353
10451POPC   NC368891  12.840  12.050   5.553
10451POPC   PO468892  12.825  12.092   5.853
10451POPC   GL168893  12.802  12.106   6.153
10451POPC   GL268894  12.927  11.962   6.153
10451POPC   C1A68895  12.814  12.033   6.453
10451POPC   D2A68896  12.848  12.031   6.753
10451POPC   C3A68897  12.844  12.109   7.053
10451POPC   C4A68898  12.857  12.043   7.353
10451POPC   C1B68899  13.050  11.913   6.453
10451POPC   C2B68900  13.048  11.961   6.753
10451POPC   C3B68901  13.001  11.936   7.053
10451POPC   C4B68902  13.004  11.967   7.353
10452POPC   NC368903  26.827   8.148   5.553
10452POPC   PO468904  26.817   8.212   5.853
10452POPC   GL168905  26.797   8.241   6.153
10452POPC   GL268906  26.771   8.313   6.153
10452POPC   C1A68907  26.804   8.238   6.453
10452POPC   D2A68908  26.782   8.156   6.753
10452POPC   C3A68909  26.831   8.230   7.053
10452POPC   C4A68910  26.812   8.213   7.353
10452POPC   C1B68911  26.614   8.339   6.453
10452POPC   C2B68912  26.619   8.378   6.753
10452POPC   C3B68913  26.662   8.388   7.053
10452POPC   C4B68914  26.601   8.341   7.353
10453POPC   NC368915  30.737   8.237   5.553
10453POPC   PO468916  30.731   8.185   5.853
10453POPC   GL168917  30.653   8.197   6.153
10453POPC   GL268918  30.563   8.100   6.153
10453POPC   C1A68919  30.718   8.156   6.453
10453POPC   D2A68920  30.686   8.212   6.753
10453POPC   C3A68921  30.722   8.228   7.053
10453POPC   C4A68922  30.727   8.228   7.353
10453POPC   C1B68923  30.492   8.010   6.453
10453POPC   C2B68924  30.545   7.997   6.753
10453POPC   C3B68925  30.473   8.027   7.053
10453POPC   C4B68926  30.533   8.058   7.353
10454POPC   NC368927  29.949   5.906   5.553
10454POPC   PO468928  29.889   5.917   5.853
10454POPC   GL168929  29.923   5.894   6.153
10454POPC   GL268930  29.855   5.918   6.153
10454POPC   C1A68931  29.968   5.900   6.453
10454POPC   D2A68932  29.907   5.831   6.753
10454POPC   C3A68933  29.871   5.890   7.053
10454POPC   C4A68934  29.872   5.876   7.353
10454POPC   C1B68935  29.742   6.028   6.453
10454POPC   C2B68936  29.745   6.037   6.753
10454POPC   C3B68937  29.788   6.053   7.053
10454POPC   C4B68938  29.713   6.094   7.353
10455POPC   NC368939  15.137  29.938   5.553
10455POPC   PO468940  15.223  29.875   5.853
10455POPC   GL168941  15.134  29.923   6.153
10455POPC   GL268942  15.115  29.817   6.153
10455POPC   C1A68943  15.191  29.956   6.453
10455POPC   D2A68944  15.162  29.948   6.753
10455POPC   C3A68945  15.149  29.880   7.053
10455POPC   C4A68946  15.211  29.954   7.353
10455POPC   C1B68947  14.965  29.771   6.453
10455POPC   C2B68948  14.981  29.801   6.753
10455POPC   C3B68949  14.958  29.799   7.053
10455POPC   C4B68950  14.995  29.777   7.353
10456POPC   NC368951  34.567  25.244   5.553
10456POPC   PO468952  34.594  25.241   5.853
10456POPC   GL168953  34.586  25.240   6.153
10456POPC   GL268954  34.720  25.314   6.153
10456POPC   C1A68955  34.583  25.263   6.453
10456POPC   D2A68956  34.533  25.235   6.753
10456POPC   C3A68957  34.598  25.291   7.053
10456POPC   C4A68958  34.548  25.306   7.353
10456POPC   C1B68959  34.824  25.438   6.453
10456POPC   C2B68960  34.832  25.373   6.753
10456POPC   C3B68961  34.777  25.409   7.053
10456POPC   C4B68962  34.737  25.445   7.353
10457POPC   NC368963  30.666  33.759   5.553
10457POPC   PO468964  30.669  33.805   5.853
10457POPC   GL168965  30.669  33.799   6.153
10457POPC   GL268966  30.653  33.706   6.153
10457POPC   C1A68967  30.726  33.770   6.453
10457POPC   D2A68968  30.695  33.780   6.753
10457POPC   C3A68969  30.722  33.808   7.053
10457POPC   C4A68970  30.728  33.821   7.353
10457POPC   C1B68971  30.628  33.555   6.453
10457POPC   C2B68972  30.651  33.554   6.753
10457POPC   C3B68973  30.590  33.529   7.053
10457POPC   C4B68974  30.608  33.521   7.353
10458POPC   NC368975  12.065  34.594   5.553
10458POPC   PO468976  12.107  34.618   5.853
10458POPC   GL168977  12.085  34.557   6.153
10458POPC   GL268978  11.976  34.608   6.153
10458POPC   C1A68979  12.123  34.555   6.453
10458POPC   D2A68980  12.057  34.559   6.753
10458POPC   C3A68981  12.054  34.597   7.053
10458POPC   C4A68982  12.088  34.570   7.353
10458POPC   C1B68983  11.834  34.615   6.453
10458POPC   C2B68984  11.797  34.619   6.753
10458POPC   C3B68985  11.875  34.642   7.053
10458POPC   C4B68986  11.832  34.639   7.353
10459POPC   NC368987  15.924   2.763   5.553
10459POPC   PO468988  15.998   2.729   5.853
10459POPC   GL168989  15.984   2.732   6.153
10459POPC   GL268990  16.040   2.739   6.153
10459POPC   C1A68991  15.912   2.724   6.453
10459POPC   D2A68992  15.992   2.798   6.753
10459POPC   C3A68993  15.985   2.786   7.053
10459POPC   C4A68994  15.942   2.736   7.353
10459POPC   C1B68995  16.193   2.774   6.453
10459POPC   C2B68996  16.160   2.791   6.753
10459POPC   C3B68997  16.169   2.813   7.053
10459POPC   C4B68998  16.203   2.779   7.353
10460POPC   NC368999   9.724  32.245   5.553
10460POPC   PO469000   9.705  32.277   5.853
10460POPC   GL169001   9.782  32.275   6.153
10460POPC   GL269002   9.704  32.131   6.153
10460POPC   C1A69003   9.792  32.285   6.453
10460POPC   D2A69004   9.784  32.288   6.753
10460POPC   C3A69005   9.793  32.268   7.053
10460POPC   C4A69006   9.718  32.268   7.353
10460POPC   C1B69007   9.709  31.975   6.453
10460POPC   C2B69008   9.727  32.000   6.753
10460POPC   C3B69009   9.714  32.012   7.053
10460POPC   C4B69010   9.724  31.994   7.353
10461POPC   NC369011  18.238  21.378   5.553
10461POPC   PO469012  18.266  21.414   5.853
10461POPC   GL169013  18.325  21.370   6.153
10461POPC   GL269014  18.224  21.314   6.153
10461POPC   C1A69015  18.287  21.366   6.453
10461POPC   D2A69016  18.293  21.401   6.753
10461POPC   C3A69017  18.282  21.433   7.053
10461POPC   C4A69018  18.261  21.423   7.353
10461POPC   C1B69019  18.183  21.174   6.453
10461POPC   C2B69020  18.227  21.099   6.753
10461POPC   C3B69021  18.248  21.151   7.053
10461POPC   C4B69022  18.212  21.174   7.353
10462POPC   NC369023  19.827  11.253   5.553
10462POPC   PO469024  19.789  11.333   5.853
10462POPC   GL169025  19.801  11.275   6.153
10462POPC   GL269026  19.732  11.332   6.153
10462POPC   C1A69027  19.874  11.327   6.453
10462POPC   D2A69028  19.859  11.342   6.753
10462POPC   C3A69029  19.863  11.335   7.053
10462POPC   C4A69030  19.840  11.291   7.353
10462POPC   C1B69031  19.621  11.491   6.453
10462POPC   C2B69032  19.617  11.456   6.753
10462POPC   C3B69033  19.669  11.489   7.053
10462POPC   C4B69034  19.597  11.419   7.353
10463POPC   NC369035  33.767   1.213   5.553
10463POPC   PO469036  33.847   1.211   5.853
10463POPC   GL169037  33.824   1.251   6.153
10463POPC   GL269038  33.727   1.306   6.153
10463POPC   C1A69039  33.787   1.232   6.453
10463POPC   D2A69040  33.812   1.257   6.753
10463POPC   C3A69041  33.831   1.262   7.053
10463POPC   C4A69042  33.842   1.253   7.353
10463POPC   C1B69043  33.708   1.393   6.453
10463POPC   C2B69044  33.655   1.473   6.753
10463POPC   C3B69045  33.679   1.424   7.053
10463POPC   C4B69046  33.720   1.403   7.353
10464POPC   NC369047  27.631  29.879   5.553
10464POPC   PO469048  27.585  29.888   5.853
10464POPC   GL169049  27.566  29.961   6.153
10464POPC   GL269050  27.730  29.854   6.153
10464POPC   C1A69051  27.641  29.910   6.453
10464POPC   D2A69052  27.571  29.964   6.753
10464POPC   C3A69053  27.621  29.873   7.053
10464POPC   C4A69054  27.570  29.950   7.353
10464POPC   C1B69055  27.838  29.924   6.453
10464POPC   C2B69056  27.877  29.874   6.753
10464POPC   C3B69057  27.836  29.923   7.053
10464POPC   C4B69058  27.882  29.909   7.353
10465POPC   NC369059  33.838  16.004   5.553
10465POPC   PO469060  33.755  15.982   5.853
10465POPC   GL169061  33.766  15.958   6.153
10465POPC   GL269062  33.915  15.958   6.153
10465POPC   C1A69063  33.806  15.915   6.453
10465POPC   D2A69064  33.814  15.923   6.753
10465POPC   C3A69065  33.831  15.964   7.053
10465POPC   C4A69066  33.821  15.917   7.353
10465POPC   C1B69067  34.094  15.934   6.453
10465POPC   C2B69068  34.077  15.891   6.753
10465POPC   C3B69069  34.045  15.936   7.053
10465POPC   C4B69070  34.038  15.879   7.353
10466POPC   NC369071   8.962   5.865   5.553
10466POPC   PO469072   9.004   5.878   5.853
10466POPC   GL169073   8.939   5.845   6.153
10466POPC   GL269074   9.079   5.971   6.153
10466POPC   C1A69075   8.945   5.863   6.453
10466POPC   D2A69076   8.978   5.873   6.753
10466POPC   C3A69077   8.979   5.865   7.053
10466POPC   C4A69078   9.021   5.820   7.353
10466POPC   C1B69079   9.159   6.004   6.453
10466POPC   C2B69080   9.193   6.044   6.753
10466POPC   C3B69081   9.189   5.998   7.053
10466POPC   C4B69082   9.166   6.039   7.353
10467POPC   NC369083  19.086  13.666   5.553
10467POPC   PO469084  19.062  13.587   5.853
10467POPC   GL169085  19.090  13.596   6.153
10467POPC   GL269086  18.983  13.758   6.153
10467POPC   C1A69087  19.047  13.578   6.453
10467POPC   D2A69088  19.076  13.648   6.753
10467POPC   C3A69089  19.079  13.603   7.053
10467POPC   C4A69090  19.103  13.625   7.353
10467POPC   C1B69091  18.896  13.771   6.453
10467POPC   C2B69092  18.911  13.803   6.753
10467POPC   C3B69093  18.932  13.850   7.053
10467POPC   C4B69094  18.841  13.779   7.353
10468POPC   NC369095   4.322  31.479   5.553
10468POPC   PO469096   4.279  31.489   5.853
10468POPC   GL169097   4.359  31.455   6.153
10468POPC   GL269098   4.365  31.554   6.153
10468POPC   C1A69099   4.325  31.490   6.453
10468POPC   D2A69100   4.293  31.459   6.753
10468POPC   C3A69101   4.353  31.519   7.053
10468POPC   C4A69102   4.347  31.464   7.353
10468POPC   C1B69103   4.439  31.657   6.453
10468POPC   C2B69104   4.409  31.699   6.753
10468POPC   C3B69105   4.443  31.715   7.053
10468POPC   C4B69106   4.466  31.635   7.353
10469POPC   NC369107  10.516  29.107   5.553
10469POPC   PO469108  10.488  29.129   5.853
10469POPC   GL169109  10.521  29.134   6.153
10469POPC   GL269110  10.436  29.129   6.153
10469POPC   C1A69111  10.500  29.156   6.453
10469POPC   D2A69112  10.494  29.138   6.753
10469POPC   C3A69113  10.554  29.182   7.053
10469POPC   C4A69114  10.535  29.152   7.353
10469POPC   C1B69115  10.331  29.041   6.453
10469POPC   C2B69116  10.255  29.062   6.753
10469POPC   C3B69117  10.308  29.045   7.053
10469POPC   C4B69118  10.261  29.025   7.353
10470POPC   NC369119  20.609  16.761   5.553
10470POPC   PO469120  20.635  16.695   5.853
10470POPC   GL169121  20.614  16.753   6.153
10470POPC   GL269122  20.551  16.590   6.153
10470POPC   C1A69123  20.628  16.692   6.453
10470POPC   D2A69124  20.633  16.778   6.753
10470POPC   C3A69125  20.572  16.705   7.053
10470POPC   C4A69126  20.645  16.777   7.353
10470POPC   C1B69127  20.630  16.434   6.453
10470POPC   C2B69128  20.602  16.482   6.753
10470POPC   C3B69129  20.625  16.442   7.053
10470POPC   C4B69130  20.607  16.457   7.353
10471POPC   NC369131  42.292  14.357   5.553
10471POPC   PO469132  42.352  14.395   5.853
10471POPC   GL169133  42.296  14.445   6.153
10471POPC   GL269134  42.291  14.526   6.153
10471POPC   C1A69135  42.291  14.422   6.453
10471POPC   D2A69136  42.382  14.393   6.753
10471POPC   C3A69137  42.333  14.403   7.053
10471POPC   C4A69138  42.360  14.430   7.353
10471POPC   C1B69139  42.328  14.695   6.453
10471POPC   C2B69140  42.304  14.693   6.753
10471POPC   C3B69141  42.333  14.673   7.053
10471POPC   C4B69142  42.374  14.694   7.353
10472POPC   NC369143  17.463  30.650   5.553
10472POPC   PO469144  17.479  30.672   5.853
10472POPC   GL169145  17.499  30.653   6.153
10472POPC   GL269146  17.638  30.791   6.153
10472POPC   C1A69147  17.478  30.673   6.453
10472POPC   D2A69148  17.467  30.746   6.753
10472POPC   C3A69149  17.556  30.678   7.053
10472POPC   C4A69150  17.513  30.648   7.353
10472POPC   C1B69151  17.714  30.823   6.453
10472POPC   C2B69152  17.673  30.835   6.753
10472POPC   C3B69153  17.673  30.804   7.053
10472POPC   C4B69154  17.750  30.842   7.353
10473POPC   NC369155  12.083  12.037   5.553
10473POPC   PO469156  12.058  12.087   5.853
10473POPC   GL169157  12.071  12.029   6.153
10473POPC   GL269158  12.017  12.165   6.153
10473POPC   C1A69159  12.037  12.107   6.453
10473POPC   D2A69160  12.072  12.099   6.753
10473POPC   C3A69161  12.050  12.097   7.053
10473POPC   C4A69162  12.121  12.059   7.353
10473POPC   C1B69163  11.962  12.268   6.453
10473POPC   C2B69164  12.035  12.311   6.753
10473POPC   C3B69165  11.979  12.279   7.053
10473POPC   C4B69166  12.016  12.303   7.353
10474POPC   NC369167  16.715  38.447   5.553
10474POPC   PO469168  16.762  38.489   5.853
10474POPC   GL169169  16.701  38.473   6.153
10474POPC   GL269170  16.813  38.473   6.153
10474POPC   C1A69171  16.708  38.482   6.453
10474POPC   D2A69172  16.695  38.442   6.753
10474POPC   C3A69173  16.748  38.448   7.053
10474POPC   C4A69174  16.759  38.473   7.353
10474POPC   C1B69175  16.991  38.511   6.453
10474POPC   C2B69176  16.939  38.443   6.753
10474POPC   C3B69177  17.009  38.425   7.053
10474POPC   C4B69178  16.944  38.507   7.353
10475POPC   NC369179  28.394  33.771   5.553
10475POPC   PO469180  28.388  33.814   5.853
10475POPC   GL169181  28.370  33.773   6.153
10475POPC   GL269182  28.277  33.811   6.153
10475POPC   C1A69183  28.399  33.755   6.453
10475POPC   D2A69184  28.416  33.835   6.753
10475POPC   C3A69185  28.368  33.845   7.053
10475POPC   C4A69186  28.392  33.813   7.353
10475POPC   C1B69187  28.101  33.694   6.453
10475POPC   C2B69188  28.138  33.695   6.753
10475POPC   C3B69189  28.151  33.735   7.053
10475POPC   C4B69190  28.131  33.683   7.353
10476POPC   NC369191  12.859  23.760   5.553
10476POPC   PO469192  12.853  23.689   5.853
10476POPC   GL169193  12.815  23.754   6.153
10476POPC   GL269194  12.896  23.551   6.153
10476POPC   C1A69195  12.815  23.758   6.453
10476POPC   D2A69196  12.838  23.759   6.753
10476POPC   C3A69197  12.857  23.731   7.053
10476POPC   C4A69198  12.828  23.752   7.353
10476POPC   C1B69199  12.850  23.455   6.453
10476POPC   C2B69200  12.896  23.488   6.753
10476POPC   C3B69201  12.931  23.457   7.053
10476POPC   C4B69202  12.917  23.468   7.353
10477POPC   NC369203   8.245  22.925   5.553
10477POPC   PO469204   8.194  22.954   5.853
10477POPC   GL169205   8.226  22.902   6.153
10477POPC   GL269206   8.209  23.060   6.153
10477POPC   C1A69207   8.236  22.935   6.453
10477POPC   D2A69208   8.221  22.986   6.753
10477POPC   C3A69209   8.236  22.939   7.053
10477POPC   C4A69210   8.235  22.892   7.353
10477POPC   C1B69211   8.265  23.121   6.453
10477POPC   C2B69212   8.314  23.120   6.753
10477POPC   C3B69213   8.331  23.174   7.053
10477POPC   C4B69214   8.254  23.204   7.353
10478POPC   NC369215  24.508  33.061   5.553
10478POPC   PO469216  24.494  33.007   5.853
10478POPC   GL169217  24.475  33.038   6.153
10478POPC   GL269218  24.644  33.052   6.153
10478POPC   C1A69219  24.479  33.058   6.453
10478POPC   D2A69220  24.534  32.995   6.753
10478POPC   C3A69221  24.476  33.045   7.053
10478POPC   C4A69222  24.481  33.036   7.353
10478POPC   C1B69223  24.734  33.036   6.453
10478POPC   C2B69224  24.739  33.088   6.753
10478POPC   C3B69225  24.764  33.032   7.053
10478POPC   C4B69226  24.723  33.020   7.353
10479POPC   NC369227  11.350  44.624   5.553
10479POPC   PO469228  11.254  44.615   5.853
10479POPC   GL169229  11.291  44.682   6.153
10479POPC   GL269230  11.250  44.599   6.153
10479POPC   C1A69231  11.324  44.665   6.453
10479POPC   D2A69232  11.265  44.628   6.753
10479POPC   C3A69233  11.331  44.678   7.053
10479POPC   C4A69234  11.329  44.671   7.353
10479POPC   C1B69235  11.085  44.504   6.453
10479POPC   C2B69236  11.134  44.556   6.753
10479POPC   C3B69237  11.146  44.522   7.053
10479POPC   C4B69238  11.119  44.468   7.353
10480POPC   NC369239   5.103   2.760   5.553
10480POPC   PO469240   5.123   2.768   5.853
10480POPC   GL169241   5.112   2.756   6.153
10480POPC   GL269242   4.976   2.837   6.153
10480POPC   C1A69243   5.058   2.733   6.453
10480POPC   D2A69244   5.059   2.756   6.753
10480POPC   C3A69245   5.101   2.803   7.053
10480POPC   C4A69246   5.104   2.779   7.353
10480POPC   C1B69247   4.904   2.926   6.453
10480POPC   C2B69248   4.829   2.869   6.753
10480POPC   C3B69249   4.837   2.914   7.053
10480POPC   C4B69250   4.892   2.926   7.353
10481POPC   NC369251  38.437  43.858   5.553
10481POPC   PO469252  38.413  43.885   5.853
10481POPC   GL169253  38.488  43.919   6.153
10481POPC   GL269254  38.400  43.985   6.153
10481POPC   C1A69255  38.432  43.870   6.453
10481POPC   D2A69256  38.476  43.898   6.753
10481POPC   C3A69257  38.429  43.894   7.053
10481POPC   C4A69258  38.466  43.858   7.353
10481POPC   C1B69259  38.315  44.110   6.453
10481POPC   C2B69260  38.361  44.082   6.753
10481POPC   C3B69261  38.278  44.141   7.053
10481POPC   C4B69262  38.371  44.146   7.353
10482POPC   NC369263  23.685  29.946   5.553
10482POPC   PO469264  23.737  29.884   5.853
10482POPC   GL169265  23.673  29.907   6.153
10482POPC   GL269266  23.738  29.831   6.153
10482POPC   C1A69267  23.704  29.967   6.453
10482POPC   D2A69268  23.677  29.891   6.753
10482POPC   C3A69269  23.679  29.872   7.053
10482POPC   C4A69270  23.692  29.897   7.353
10482POPC   C1B69271  23.759  29.641   6.453
10482POPC   C2B69272  23.741  29.673   6.753
10482POPC   C3B69273  23.721  29.645   7.053
10482POPC   C4B69274  23.735  29.669   7.353
10483POPC   NC369275   2.805  20.601   5.553
10483POPC   PO469276   2.796  20.616   5.853
10483POPC   GL169277   2.752  20.563   6.153
10483POPC   GL269278   2.743  20.446   6.153
10483POPC   C1A69279   2.760  20.639   6.453
10483POPC   D2A69280   2.796  20.622   6.753
10483POPC   C3A69281   2.806  20.595   7.053
10483POPC   C4A69282   2.772  20.606   7.353
10483POPC   C1B69283   2.740  20.339   6.453
10483POPC   C2B69284   2.699  20.372   6.753
10483POPC   C3B69285   2.781  20.336   7.053
10483POPC   C4B69286   2.740  20.328   7.353
10484POPC   NC369287  10.539  13.586   5.553
10484POPC   PO469288  10.540  13.601   5.853
10484POPC   GL169289  10.494  13.658   6.153
10484POPC   GL269290  10.677  13.643   6.153
10484POPC   C1A69291  10.516  13.604   6.453
10484POPC   D2A69292  10.546  13.644   6.753
10484POPC   C3A69293  10.571  13.658   7.053
10484POPC   C4A69294  10.525  13.624   7.353
10484POPC   C1B69295  10.768  13.712   6.453
10484POPC   C2B69296  10.731  13.761   6.753
10484POPC   C3B69297  10.775  13.798   7.053
10484POPC   C4B69298  10.762  13.721   7.353
10485POPC   NC369299  10.528  18.284   5.553
10485POPC   PO469300  10.507  18.282   5.853
10485POPC   GL169301  10.573  18.330   6.153
10485POPC   GL269302  10.419  18.378   6.153
10485POPC   C1A69303  10.559  18.326   6.453
10485POPC   D2A69304  10.503  18.236   6.753
10485POPC   C3A69305  10.491  18.284   7.053
10485POPC   C4A69306  10.531  18.298   7.353
10485POPC   C1B69307  10.288  18.352   6.453
10485POPC   C2B69308  10.269  18.402   6.753
10485POPC   C3B69309  10.296  18.380   7.053
10485POPC   C4B69310  10.331  18.412   7.353
10486POPC   NC369311  33.754  19.847   5.553
10486POPC   PO469312  33.844  19.880   5.853
10486POPC   GL169313  33.841  19.835   6.153
10486POPC   GL269314  33.744  19.737   6.153
10486POPC   C1A69315  33.825  19.856   6.453
10486POPC   D2A69316  33.825  19.797   6.753
10486POPC   C3A69317  33.792  19.821   7.053
10486POPC   C4A69318  33.765  19.839   7.353
10486POPC   C1B69319  33.705  19.632   6.453
10486POPC   C2B69320  33.757  19.551   6.753
10486POPC   C3B69321  33.752  19.540   7.053
10486POPC   C4B69322  33.703  19.573   7.353
10487POPC   NC369323  27.611  26.788   5.553
10487POPC   PO469324  27.577  26.851   5.853
10487POPC   GL169325  27.571  26.850   6.153
10487POPC   GL269326  27.689  26.853   6.153
10487POPC   C1A69327  27.623  26.786   6.453
10487POPC   D2A69328  27.550  26.775   6.753
10487POPC   C3A69329  27.632  26.820   7.053
10487POPC   C4A69330  27.630  26.797   7.353
10487POPC   C1B69331  27.812  26.816   6.453
10487POPC   C2B69332  27.888  26.905   6.753
10487POPC   C3B69333  27.879  26.852   7.053
10487POPC   C4B69334  27.855  26.833   7.353
10488POPC   NC369335  12.098  44.695   5.553
10488POPC   PO469336  12.028  44.619   5.853
10488POPC   GL169337  12.079  44.709   6.153
10488POPC   GL269338  12.020  44.747   6.153
10488POPC   C1A69339  12.036  44.619   6.453
10488POPC   D2A69340  12.031  44.694   6.753
10488POPC   C3A69341  12.062  44.666   7.053
10488POPC   C4A69342  12.053  44.703   7.353
10488POPC   C1B69343  11.911  44.827   6.453
10488POPC   C2B69344  11.875  44.805   6.753
10488POPC   C3B69345  11.861  44.812   7.053
10488POPC   C4B69346  11.906  44.833   7.353
10489POPC   NC369347  11.323  22.962   5.553
10489POPC   PO469348  11.264  22.969   5.853
10489POPC   GL169349  11.280  22.964   6.153
10489POPC   GL269350  11.262  22.790   6.153
10489POPC   C1A69351  11.298  22.890   6.453
10489POPC   D2A69352  11.290  22.960   6.753
10489POPC   C3A69353  11.303  22.954   7.053
10489POPC   C4A69354  11.269  22.929   7.353
10489POPC   C1B69355  11.245  22.707   6.453
10489POPC   C2B69356  11.268  22.723   6.753
10489POPC   C3B69357  11.245  22.702   7.053
10489POPC   C4B69358  11.306  22.677   7.353
10490POPC   NC369359  12.088  16.721   5.553
10490POPC   PO469360  12.088  16.695   5.853
10490POPC   GL169361  12.123  16.724   6.153
10490POPC   GL269362  11.977  16.757   6.153
10490POPC   C1A69363  12.123  16.769   6.453
10490POPC   D2A69364  12.064  16.716   6.753
10490POPC   C3A69365  12.082  16.770   7.053
10490POPC   C4A69366  12.122  16.684   7.353
10490POPC   C1B69367  11.808  16.773   6.453
10490POPC   C2B69368  11.885  16.853   6.753
10490POPC   C3B69369  11.797  16.868   7.053
10490POPC   C4B69370  11.882  16.828   7.353
10491POPC   NC369371   5.851  32.230   5.553
10491POPC   PO469372   5.919  32.256   5.853
10491POPC   GL169373   5.872  32.249   6.153
10491POPC   GL269374   5.784  32.176   6.153
10491POPC   C1A69375   5.838  32.249   6.453
10491POPC   D2A69376   5.820  32.266   6.753
10491POPC   C3A69377   5.852  32.206   7.053
10491POPC   C4A69378   5.896  32.232   7.353
10491POPC   C1B69379   5.628  32.153   6.453
10491POPC   C2B69380   5.674  32.140   6.753
10491POPC   C3B69381   5.639  32.164   7.053
10491POPC   C4B69382   5.641  32.176   7.353
10492POPC   NC369383  40.778   8.158   5.553
10492POPC   PO469384  40.792   8.170   5.853
10492POPC   GL169385  40.824   8.181   6.153
10492POPC   GL269386  40.888   8.144   6.153
10492POPC   C1A69387  40.741   8.163   6.453
10492POPC   D2A69388  40.781   8.199   6.753
10492POPC   C3A69389  40.740   8.208   7.053
10492POPC   C4A69390  40.762   8.167   7.353
10492POPC   C1B69391  40.978   8.027   6.453
10492POPC   C2B69392  40.973   8.121   6.753
10492POPC   C3B69393  41.044   8.089   7.053
10492POPC   C4B69394  40.974   8.109   7.353
10493POPC   NC369395   5.057   7.373   5.553
10493POPC   PO469396   5.116   7.425   5.853
10493POPC   GL169397   5.101   7.434   6.153
10493POPC   GL269398   5.070   7.255   6.153
10493POPC   C1A69399   5.062   7.397   6.453
10493POPC   D2A69400   5.067   7.413   6.753
10493POPC   C3A69401   5.139   7.411   7.053
10493POPC   C4A69402   5.133   7.414   7.353
10493POPC   C1B69403   5.022   7.229   6.453
10493POPC   C2B69404   5.019   7.213   6.753
10493POPC   C3B69405   5.007   7.199   7.053
10493POPC   C4B69406   5.013   7.191   7.353
10494POPC   NC369407  41.542  41.525   5.553
10494POPC   PO469408  41.596  41.564   5.853
10494POPC   GL169409  41.533  41.594   6.153
10494POPC   GL269410  41.408  41.544   6.153
10494POPC   C1A69411  41.511  41.583   6.453
10494POPC   D2A69412  41.541  41.532   6.753
10494POPC   C3A69413  41.593  41.526   7.053
10494POPC   C4A69414  41.599  41.534   7.353
10494POPC   C1B69415  41.283  41.579   6.453
10494POPC   C2B69416  41.332  41.622   6.753
10494POPC   C3B69417  41.281  41.621   7.053
10494POPC   C4B69418  41.268  41.645   7.353
10495POPC   NC369419  36.111  16.729   5.553
10495POPC   PO469420  36.151  16.751   5.853
10495POPC   GL169421  36.096  16.739   6.153
10495POPC   GL269422  36.027  16.614   6.153
10495POPC   C1A69423  36.141  16.755   6.453
10495POPC   D2A69424  36.132  16.741   6.753
10495POPC   C3A69425  36.119  16.759   7.053
10495POPC   C4A69426  36.140  16.780   7.353
10495POPC   C1B69427  35.971  16.609   6.453
10495POPC   C2B69428  35.963  16.586   6.753
10495POPC   C3B69429  35.976  16.628   7.053
10495POPC   C4B69430  35.973  16.558   7.353
10496POPC   NC369431  22.159  16.764   5.553
10496POPC   PO469432  22.166  16.771   5.853
10496POPC   GL169433  22.122  16.729   6.153
10496POPC   GL269434  22.314  16.670   6.153
10496POPC   C1A69435  22.188  16.682   6.453
10496POPC   D2A69436  22.132  16.763   6.753
10496POPC   C3A69437  22.125  16.781   7.053
10496POPC   C4A69438  22.178  16.731   7.353
10496POPC   C1B69439  22.367  16.574   6.453
10496POPC   C2B69440  22.361  16.664   6.753
10496POPC   C3B69441  22.349  16.624   7.053
10496POPC   C4B69442  22.357  16.620   7.353
10497POPC   NC369443  13.599  11.294   5.553
10497POPC   PO469444  13.673  11.315   5.853
10497POPC   GL169445  13.645  11.314   6.153
10497POPC   GL269446  13.687  11.324   6.153
10497POPC   C1A69447  13.611  11.301   6.453
10497POPC   D2A69448  13.604  11.290   6.753
10497POPC   C3A69449  13.674  11.350   7.053
10497POPC   C4A69450  13.605  11.287   7.353
10497POPC   C1B69451  13.818  11.447   6.453
10497POPC   C2B69452  13.807  11.445   6.753
10497POPC   C3B69453  13.805  11.455   7.053
10497POPC   C4B69454  13.801  11.427   7.353
10498POPC   NC369455  10.488  19.070   5.553
10498POPC   PO469456  10.553  19.025   5.853
10498POPC   GL169457  10.511  19.087   6.153
10498POPC   GL269458  10.454  19.010   6.153
10498POPC   C1A69459  10.507  19.054   6.453
10498POPC   D2A69460  10.502  19.070   6.753
10498POPC   C3A69461  10.559  19.065   7.053
10498POPC   C4A69462  10.513  19.075   7.353
10498POPC   C1B69463  10.367  18.890   6.453
10498POPC   C2B69464  10.296  18.890   6.753
10498POPC   C3B69465  10.355  18.895   7.053
10498POPC   C4B69466  10.365  18.867   7.353
10499POPC   NC369467  22.168  36.890   5.553
10499POPC   PO469468  22.124  36.875   5.853
10499POPC   GL169469  22.184  36.917   6.153
10499POPC   GL269470  22.208  37.011   6.153
10499POPC   C1A69471  22.201  36.935   6.453
10499POPC   D2A69472  22.210  36.918   6.753
10499POPC   C3A69473  22.135  36.899   7.053
10499POPC   C4A69474  22.207  36.870   7.353
10499POPC   C1B69475  22.234  37.111   6.453
10499POPC   C2B69476  22.248  37.155   6.753
10499POPC   C3B69477  22.242  37.168   7.053
10499POPC   C4B69478  22.216  37.101   7.353
10500POPC   NC369479  11.256  32.284   5.553
10500POPC   PO469480  11.308  32.239   5.853
10500POPC   GL169481  11.317  32.275   6.153
10500POPC   GL269482  11.316  32.388   6.153
10500POPC   C1A69483  11.256  32.218   6.453
10500POPC   D2A69484  11.293  32.275   6.753
10500POPC   C3A69485  11.306  32.268   7.053
10500POPC   C4A69486  11.299  32.255   7.353
10500POPC   C1B69487  11.292  32.527   6.453
10500POPC   C2B69488  11.278  32.543   6.753
10500POPC   C3B69489  11.271  32.478   7.053
10500POPC   C4B69490  11.306  32.542   7.353
10501POPC   NC369491   1.258  19.870   5.553
10501POPC   PO469492   1.187  19.789   5.853
10501POPC   GL169493   1.165  19.826   6.153
10501POPC   GL269494   1.215  19.998   6.153
10501POPC   C1A69495   1.251  19.827   6.453
10501POPC   D2A69496   1.216  19.870   6.753
10501POPC   C3A69497   1.217  19.812   7.053
10501POPC   C4A69498   1.263  19.854   7.353
10501POPC   C1B69499   1.186  20.132   6.453
10501POPC   C2B69500   1.193  20.074   6.753
10501POPC   C3B69501   1.267  20.103   7.053
10501POPC   C4B69502   1.263  20.082   7.353
10502POPC   NC369503   7.439  17.535   5.553
10502POPC   PO469504   7.415  17.539   5.853
10502POPC   GL169505   7.407  17.522   6.153
10502POPC   GL269506   7.299  17.561   6.153
10502POPC   C1A69507   7.422  17.463   6.453
10502POPC   D2A69508   7.400  17.461   6.753
10502POPC   C3A69509   7.414  17.490   7.053
10502POPC   C4A69510   7.452  17.513   7.353
10502POPC   C1B69511   7.232  17.670   6.453
10502POPC   C2B69512   7.177  17.650   6.753
10502POPC   C3B69513   7.218  17.595   7.053
10502POPC   C4B69514   7.211  17.595   7.353
10503POPC   NC369515  23.671  25.245   5.553
10503POPC   PO469516  23.678  25.269   5.853
10503POPC   GL169517  23.702  25.310   6.153
10503POPC   GL269518  23.769  25.189   6.153
10503POPC   C1A69519  23.744  25.216   6.453
10503POPC   D2A69520  23.743  25.306   6.753
10503POPC   C3A69521  23.759  25.227   7.053
10503POPC   C4A69522  23.704  25.248   7.353
10503POPC   C1B69523  23.752  25.019   6.453
10503POPC   C2B69524  23.793  24.979   6.753
10503POPC   C3B69525  23.760  25.023   7.053
10503POPC   C4B69526  23.792  25.042   7.353
10504POPC   NC369527  26.087  20.614   5.553
10504POPC   PO469528  26.078  20.611   5.853
10504POPC   GL169529  26.081  20.635   6.153
10504POPC   GL269530  25.983  20.712   6.153
10504POPC   C1A69531  25.998  20.613   6.453
10504POPC   D2A69532  26.075  20.654   6.753
10504POPC   C3A69533  26.042  20.582   7.053
10504POPC   C4A69534  26.014  20.637   7.353
10504POPC   C1B69535  25.838  20.765   6.453
10504POPC   C2B69536  25.858  20.742   6.753
10504POPC   C3B69537  25.885  20.757   7.053
10504POPC   C4B69538  25.891  20.803   7.353
10505POPC   NC369539  19.097   0.429   5.553
10505POPC   PO469540  19.031   0.449   5.853
10505POPC   GL169541  19.105   0.481   6.153
10505POPC   GL269542  19.231   0.482   6.153
10505POPC   C1A69543  19.027   0.431   6.453
10505POPC   D2A69544  19.063   0.444   6.753
10505POPC   C3A69545  19.070   0.400   7.053
10505POPC   C4A69546  19.026   0.480   7.353
10505POPC   C1B69547  19.283   0.478   6.453
10505POPC   C2B69548  19.328   0.501   6.753
10505POPC   C3B69549  19.350   0.416   7.053
10505POPC   C4B69550  19.287   0.483   7.353
10506POPC   NC369551  22.141  34.580   5.553
10506POPC   PO469552  22.125  34.574   5.853
10506POPC   GL169553  22.209  34.601   6.153
10506POPC   GL269554  22.139  34.661   6.153
10506POPC   C1A69555  22.152  34.538   6.453
10506POPC   D2A69556  22.173  34.565   6.753
10506POPC   C3A69557  22.129  34.609   7.053
10506POPC   C4A69558  22.156  34.605   7.353
10506POPC   C1B69559  22.060  34.779   6.453
10506POPC   C2B69560  22.149  34.866   6.753
10506POPC   C3B69561  22.116  34.805   7.053
10506POPC   C4B69562  22.134  34.844   7.353
10507POPC   NC369563   3.525  37.683   5.553
10507POPC   PO469564   3.537  37.632   5.853
10507POPC   GL169565   3.554  37.714   6.153
10507POPC   GL269566   3.471  37.545   6.153
10507POPC   C1A69567   3.589  37.703   6.453
10507POPC   D2A69568   3.499  37.680   6.753
10507POPC   C3A69569   3.507  37.720   7.053
10507POPC   C4A69570   3.521  37.699   7.353
10507POPC   C1B69571   3.421  37.466   6.453
10507POPC   C2B69572   3.396  37.447   6.753
10507POPC   C3B69573   3.390  37.447   7.053
10507POPC   C4B69574   3.389  37.439   7.353
10508POPC   NC369575  19.880  29.910   5.553
10508POPC   PO469576  19.840  29.964   5.853
10508POPC   GL169577  19.834  29.916   6.153
10508POPC   GL269578  19.909  29.789   6.153
10508POPC   C1A69579  19.808  29.883   6.453
10508POPC   D2A69580  19.802  29.958   6.753
10508POPC   C3A69581  19.858  29.942   7.053
10508POPC   C4A69582  19.792  29.945   7.353
10508POPC   C1B69583  19.917  29.700   6.453
10508POPC   C2B69584  20.016  29.660   6.753
10508POPC   C3B69585  20.008  29.666   7.053
10508POPC   C4B69586  19.973  29.670   7.353
10509POPC   NC369587  41.517   0.464   5.553
10509POPC   PO469588  41.530   0.483   5.853
10509POPC   GL169589  41.572   0.441   6.153
10509POPC   GL269590  41.635   0.509   6.153
10509POPC   C1A69591  41.538   0.445   6.453
10509POPC   D2A69592  41.597   0.427   6.753
10509POPC   C3A69593  41.580   0.441   7.053
10509POPC   C4A69594  41.546   0.439   7.353
10509POPC   C1B69595  41.709   0.679   6.453
10509POPC   C2B69596  41.644   0.645   6.753
10509POPC   C3B69597  41.668   0.665   7.053
10509POPC   C4B69598  41.651   0.644   7.353
10510POPC   NC369599  22.923  38.453   5.553
10510POPC   PO469600  22.964  38.409   5.853
10510POPC   GL169601  22.916  38.438   6.153
10510POPC   GL269602  22.845  38.312   6.153
10510POPC   C1A69603  22.961  38.489   6.453
10510POPC   D2A69604  22.913  38.417   6.753
10510POPC   C3A69605  22.916  38.467   7.053
10510POPC   C4A69606  22.941  38.448   7.353
10510POPC   C1B69607  22.788  38.293   6.453
10510POPC   C2B69608  22.767  38.245   6.753
10510POPC   C3B69609  22.789  38.261   7.053
10510POPC   C4B69610  22.760  38.229   7.353
10511POPC   NC369611   5.898  19.792   5.553
10511POPC   PO469612   5.864  19.806   5.853
10511POPC   GL169613   5.868  19.795   6.153
10511POPC   GL269614   5.747  19.951   6.153
10511POPC   C1A69615   5.848  19.841   6.453
10511POPC   D2A69616   5.855  19.813   6.753
10511POPC   C3A69617   5.846  19.788   7.053
10511POPC   C4A69618   5.892  19.798   7.353
10511POPC   C1B69619   5.621  19.963   6.453
10511POPC   C2B69620   5.668  19.977   6.753
10511POPC   C3B69621   5.633  19.961   7.053
10511POPC   C4B69622   5.671  19.963   7.353
10512POPC   NC369623  24.495  22.142   5.553
10512POPC   PO469624  24.463  22.127   5.853
10512POPC   GL169625  24.451  22.146   6.153
10512POPC   GL269626  24.565  22.124   6.153
10512POPC   C1A69627  24.532  22.121   6.453
10512POPC   D2A69628  24.539  22.175   6.753
10512POPC   C3A69629  24.495  22.150   7.053
10512POPC   C4A69630  24.538  22.145   7.353
10512POPC   C1B69631  24.764  22.174   6.453
10512POPC   C2B69632  24.728  22.169   6.753
10512POPC   C3B69633  24.776  22.155   7.053
10512POPC   C4B69634  24.765  22.165   7.353
10513POPC   NC369635  16.682  39.273   5.553
10513POPC   PO469636  16.750  39.245   5.853
10513POPC   GL169637  16.781  39.275   6.153
10513POPC   GL269638  16.787  39.317   6.153
10513POPC   C1A69639  16.756  39.243   6.453
10513POPC   D2A69640  16.758  39.269   6.753
10513POPC   C3A69641  16.685  39.194   7.053
10513POPC   C4A69642  16.728  39.191   7.353
10513POPC   C1B69643  16.725  39.467   6.453
10513POPC   C2B69644  16.752  39.520   6.753
10513POPC   C3B69645  16.739  39.507   7.053
10513POPC   C4B69646  16.725  39.450   7.353
10514POPC   NC369647   9.736  36.108   5.553
10514POPC   PO469648   9.744  36.139   5.853
10514POPC   GL169649   9.729  36.152   6.153
10514POPC   GL269650   9.654  36.165   6.153
10514POPC   C1A69651   9.735  36.083   6.453
10514POPC   D2A69652   9.766  36.121   6.753
10514POPC   C3A69653   9.730  36.111   7.053
10514POPC   C4A69654   9.701  36.088   7.353
10514POPC   C1B69655   9.539  36.181   6.453
10514POPC   C2B69656   9.517  36.186   6.753
10514POPC   C3B69657   9.514  36.216   7.053
10514POPC   C4B69658   9.538  36.229   7.353
10515POPC   NC369659  24.519   6.635   5.553
10515POPC   PO469660  24.457   6.651   5.853
10515POPC   GL169661  24.452   6.677   6.153
10515POPC   GL269662  24.448   6.532   6.153
10515POPC   C1A69663  24.449   6.659   6.453
10515POPC   D2A69664  24.466   6.690   6.753
10515POPC   C3A69665  24.441   6.685   7.053
10515POPC   C4A69666  24.445   6.612   7.353
10515POPC   C1B69667  24.310   6.432   6.453
10515POPC   C2B69668  24.320   6.487   6.753
10515POPC   C3B69669  24.346   6.400   7.053
10515POPC   C4B69670  24.335   6.410   7.353
10516POPC   NC369671  10.513  36.899   5.553
10516POPC   PO469672  10.486  36.915   5.853
10516POPC   GL169673  10.572  36.934   6.153
10516POPC   GL269674  10.581  36.796   6.153
10516POPC   C1A69675  10.514  36.870   6.453
10516POPC   D2A69676  10.486  36.929   6.753
10516POPC   C3A69677  10.539  36.865   7.053
10516POPC   C4A69678  10.501  36.870   7.353
10516POPC   C1B69679  10.697  36.780   6.453
10516POPC   C2B69680  10.690  36.777   6.753
10516POPC   C3B69681  10.714  36.745   7.053
10516POPC   C4B69682  10.721  36.775   7.353
10517POPC   NC369683  32.289  12.083   5.553
10517POPC   PO469684  32.224  12.082   5.853
10517POPC   GL169685  32.222  12.103   6.153
10517POPC   GL269686  32.359  12.088   6.153
10517POPC   C1A69687  32.283  12.035   6.453
10517POPC   D2A69688  32.199  12.065   6.753
10517POPC   C3A69689  32.260  12.051   7.053
10517POPC   C4A69690  32.242  12.092   7.353
10517POPC   C1B69691  32.511  12.168   6.453
10517POPC   C2B69692  32.501  12.176   6.753
10517POPC   C3B69693  32.443  12.176   7.053
10517POPC   C4B69694  32.493  12.200   7.353
10518POPC   NC369695   8.976  15.999   5.553
10518POPC   PO469696   9.017  15.910   5.853
10518POPC   GL169697   9.005  15.974   6.153
10518POPC   GL269698   9.082  16.016   6.153
10518POPC   C1A69699   9.014  15.926   6.453
10518POPC   D2A69700   8.956  15.982   6.753
10518POPC   C3A69701   8.941  15.984   7.053
10518POPC   C4A69702   8.970  15.937   7.353
10518POPC   C1B69703   9.112  16.149   6.453
10518POPC   C2B69704   9.131  16.163   6.753
10518POPC   C3B69705   9.155  16.174   7.053
10518POPC   C4B69706   9.154  16.192   7.353
10519POPC   NC369707  28.329   5.082   5.553
10519POPC   PO469708  28.332   5.126   5.853
10519POPC   GL169709  28.400   5.081   6.153
10519POPC   GL269710  28.413   4.974   6.153
10519POPC   C1A69711  28.320   5.139   6.453
10519POPC   D2A69712  28.376   5.089   6.753
10519POPC   C3A69713  28.389   5.054   7.053
10519POPC   C4A69714  28.418   5.140   7.353
10519POPC   C1B69715  28.461   4.818   6.453
10519POPC   C2B69716  28.433   4.862   6.753
10519POPC   C3B69717  28.415   4.847   7.053
10519POPC   C4B69718  28.445   4.853   7.353
10520POPC   NC369719  12.874  17.551   5.553
10520POPC   PO469720  12.861  17.522   5.853
10520POPC   GL169721  12.812  17.461   6.153
10520POPC   GL269722  12.915  17.552   6.153
10520POPC   C1A69723  12.808  17.536   6.453
10520POPC   D2A69724  12.846  17.470   6.753
10520POPC   C3A69725  12.847  17.500   7.053
10520POPC   C4A69726  12.827  17.543   7.353
10520POPC   C1B69727  13.018  17.680   6.453
10520POPC   C2B69728  13.071  17.687   6.753
10520POPC   C3B69729  12.989  17.679   7.053
10520POPC   C4B69730  13.072  17.727   7.353
10521POPC   NC369731  16.708  30.717   5.553
10521POPC   PO469732  16.703  30.704   5.853
10521POPC   GL169733  16.723  30.690   6.153
10521POPC   GL269734  16.633  30.764   6.153
10521POPC   C1A69735  16.772  30.677   6.453
10521POPC   D2A69736  16.694  30.720   6.753
10521POPC   C3A69737  16.710  30.744   7.053
10521POPC   C4A69738  16.760  30.676   7.353
10521POPC   C1B69739  16.512  30.750   6.453
10521POPC   C2B69740  16.446  30.800   6.753
10521POPC   C3B69741  16.447  30.731   7.053
10521POPC   C4B69742  16.461  30.716   7.353
10522POPC   NC369743  41.533  44.691   5.553
10522POPC   PO469744  41.513  44.643   5.853
10522POPC   GL169745  41.542  44.662   6.153
10522POPC   GL269746  41.658  44.518   6.153
10522POPC   C1A69747  41.569  44.657   6.453
10522POPC   D2A69748  41.527  44.710   6.753
10522POPC   C3A69749  41.602  44.709   7.053
10522POPC   C4A69750  41.520  44.673   7.353
10522POPC   C1B69751  41.660  44.428   6.453
10522POPC   C2B69752  41.684  44.470   6.753
10522POPC   C3B69753  41.717  44.432   7.053
10522POPC   C4B69754  41.679  44.392   7.353
10523POPC   NC369755  23.751  24.484   5.553
10523POPC   PO469756  23.692  24.441   5.853
10523POPC   GL169757  23.740  24.447   6.153
10523POPC   GL269758  23.860  24.517   6.153
10523POPC   C1A69759  23.725  24.481   6.453
10523POPC   D2A69760  23.735  24.537   6.753
10523POPC   C3A69761  23.722  24.538   7.053
10523POPC   C4A69762  23.700  24.526   7.353
10523POPC   C1B69763  23.971  24.507   6.453
10523POPC   C2B69764  23.960  24.560   6.753
10523POPC   C3B69765  23.997  24.508   7.053
10523POPC   C4B69766  23.947  24.508   7.353
10524POPC   NC369767  39.961  34.574   5.553
10524POPC   PO469768  40.021  34.625   5.853
10524POPC   GL169769  40.039  34.541   6.153
10524POPC   GL269770  39.962  34.735   6.153
10524POPC   C1A69771  40.010  34.598   6.453
10524POPC   D2A69772  39.975  34.553   6.753
10524POPC   C3A69773  39.996  34.577   7.053
10524POPC   C4A69774  40.006  34.560   7.353
10524POPC   C1B69775  39.954  34.854   6.453
10524POPC   C2B69776  39.961  34.779   6.753
10524POPC   C3B69777  39.929  34.804   7.053
10524POPC   C4B69778  39.952  34.773   7.353
10525POPC   NC369779  14.434   7.416   5.553
10525POPC   PO469780  14.369   7.388   5.853
10525POPC   GL169781  14.361   7.393   6.153
10525POPC   GL269782  14.266   7.391   6.153
10525POPC   C1A69783  14.416   7.415   6.453
10525POPC   D2A69784  14.383   7.451   6.753
10525POPC   C3A69785  14.371   7.442   7.053
10525POPC   C4A69786  14.359   7.407   7.353
10525POPC   C1B69787  14.193   7.401   6.453
10525POPC   C2B69788  14.108   7.394   6.753
10525POPC   C3B69789  14.127   7.377   7.053
10525POPC   C4B69790  14.191   7.378   7.353
10526POPC   NC369791  20.568  24.510   5.553
10526POPC   PO469792  20.609  24.498   5.853
10526POPC   GL169793  20.587  24.465   6.153
10526POPC   GL269794  20.566  24.641   6.153
10526POPC   C1A69795  20.658  24.484   6.453
10526POPC   D2A69796  20.575  24.499   6.753
10526POPC   C3A69797  20.567  24.525   7.053
10526POPC   C4A69798  20.644  24.507   7.353
10526POPC   C1B69799  20.552  24.717   6.453
10526POPC   C2B69800  20.522  24.746   6.753
10526POPC   C3B69801  20.477  24.729   7.053
10526POPC   C4B69802  20.499  24.679   7.353
10527POPC   NC369803   5.897  26.038   5.553
10527POPC   PO469804   5.893  26.024   5.853
10527POPC   GL169805   5.830  26.036   6.153
10527POPC   GL269806   5.920  25.909   6.153
10527POPC   C1A69807   5.912  26.003   6.453
10527POPC   D2A69808   5.847  26.085   6.753
10527POPC   C3A69809   5.860  26.039   7.053
10527POPC   C4A69810   5.860  26.006   7.353
10527POPC   C1B69811   6.033  25.873   6.453
10527POPC   C2B69812   5.992  25.823   6.753
10527POPC   C3B69813   5.988  25.862   7.053
10527POPC   C4B69814   6.014  25.831   7.353
10528POPC   NC369815  18.312   6.662   5.553
10528POPC   PO469816  18.300   6.628   5.853
10528POPC   GL169817  18.294   6.669   6.153
10528POPC   GL269818  18.147   6.538   6.153
10528POPC   C1A69819  18.308   6.634   6.453
10528POPC   D2A69820  18.302   6.648   6.753
10528POPC   C3A69821  18.259   6.673   7.053
10528POPC   C4A69822  18.251   6.690   7.353
10528POPC   C1B69823  18.028   6.515   6.453
10528POPC   C2B69824  18.037   6.539   6.753
10528POPC   C3B69825  18.031   6.471   7.053
10528POPC   C4B69826  18.110   6.499   7.353
10529POPC   NC369827  19.846  43.157   5.553
10529POPC   PO469828  19.878  43.141   5.853
10529POPC   GL169829  19.804  43.118   6.153
10529POPC   GL269830  19.931  43.003   6.153
10529POPC   C1A69831  19.879  43.103   6.453
10529POPC   D2A69832  19.814  43.150   6.753
10529POPC   C3A69833  19.855  43.107   7.053
10529POPC   C4A69834  19.799  43.076   7.353
10529POPC   C1B69835  20.078  42.968   6.453
10529POPC   C2B69836  20.034  42.936   6.753
10529POPC   C3B69837  20.086  42.976   7.053
10529POPC   C4B69838  20.043  42.934   7.353
10530POPC   NC369839   3.501  32.210   5.553
10530POPC   PO469840   3.550  32.206   5.853
10530POPC   GL169841   3.584  32.276   6.153
10530POPC   GL269842   3.452  32.148   6.153
10530POPC   C1A69843   3.578  32.255   6.453
10530POPC   D2A69844   3.565  32.250   6.753
10530POPC   C3A69845   3.564  32.203   7.053
10530POPC   C4A69846   3.556  32.215   7.353
10530POPC   C1B69847   3.397  32.072   6.453
10530POPC   C2B69848   3.351  32.054   6.753
10530POPC   C3B69849   3.353  32.055   7.053
10530POPC   C4B69850   3.339  32.082   7.353
10531POPC   NC369851  40.757  34.570   5.553
10531POPC   PO469852  40.758  34.528   5.853
10531POPC   GL169853  40.812  34.540   6.153
10531POPC   GL269854  40.667  34.632   6.153
10531POPC   C1A69855  40.764  34.579   6.453
10531POPC   D2A69856  40.778  34.565   6.753
10531POPC   C3A69857  40.811  34.527   7.053
10531POPC   C4A69858  40.833  34.539   7.353
10531POPC   C1B69859  40.656  34.832   6.453
10531POPC   C2B69860  40.610  34.834   6.753
10531POPC   C3B69861  40.627  34.745   7.053
10531POPC   C4B69862  40.661  34.821   7.353
10532POPC   NC369863  32.238  15.214   5.553
10532POPC   PO469864  32.286  15.172   5.853
10532POPC   GL169865  32.246  15.191   6.153
10532POPC   GL269866  32.394  15.153   6.153
10532POPC   C1A69867  32.285  15.144   6.453
10532POPC   D2A69868  32.281  15.167   6.753
10532POPC   C3A69869  32.272  15.155   7.053
10532POPC   C4A69870  32.210  15.167   7.353
10532POPC   C1B69871  32.462  15.086   6.453
10532POPC   C2B69872  32.446  15.056   6.753
10532POPC   C3B69873  32.433  15.093   7.053
10532POPC   C4B69874  32.458  15.043   7.353
10533POPC   NC369875   2.813  37.692   5.553
10533POPC   PO469876   2.755  37.697   5.853
10533POPC   GL169877   2.719  37.689   6.153
10533POPC   GL269878   2.848  37.563   6.153
10533POPC   C1A69879   2.802  37.661   6.453
10533POPC   D2A69880   2.738  37.705   6.753
10533POPC   C3A69881   2.725  37.707   7.053
10533POPC   C4A69882   2.801  37.728   7.353
10533POPC   C1B69883   2.998  37.494   6.453
10533POPC   C2B69884   2.935  37.549   6.753
10533POPC   C3B69885   2.914  37.480   7.053
10533POPC   C4B69886   2.970  37.482   7.353
10534POPC   NC369887  41.548  10.550   5.553
10534POPC   PO469888  41.544  10.556   5.853
10534POPC   GL169889  41.554  10.563   6.153
10534POPC   GL269890  41.464  10.683   6.153
10534POPC   C1A69891  41.520  10.518   6.453
10534POPC   D2A69892  41.543  10.510   6.753
10534POPC   C3A69893  41.605  10.484   7.053
10534POPC   C4A69894  41.543  10.513   7.353
10534POPC   C1B69895  41.424  10.730   6.453
10534POPC   C2B69896  41.450  10.718   6.753
10534POPC   C3B69897  41.476  10.738   7.053
10534POPC   C4B69898  41.455  10.725   7.353
10535POPC   NC369899  19.836   1.957   5.553
10535POPC   PO469900  19.787   1.980   5.853
10535POPC   GL169901  19.826   2.027   6.153
10535POPC   GL269902  19.857   1.882   6.153
10535POPC   C1A69903  19.847   1.943   6.453
10535POPC   D2A69904  19.793   1.979   6.753
10535POPC   C3A69905  19.839   2.033   7.053
10535POPC   C4A69906  19.866   2.004   7.353
10535POPC   C1B69907  19.942   1.744   6.453
10535POPC   C2B69908  19.950   1.794   6.753
10535POPC   C3B69909  19.899   1.739   7.053
10535POPC   C4B69910  19.888   1.767   7.353
10536POPC   NC369911  26.804  34.548   5.553
10536POPC   PO469912  26.839  34.568   5.853
10536POPC   GL169913  26.805  34.555   6.153
10536POPC   GL269914  26.826  34.501   6.153
10536POPC   C1A69915  26.820  34.527   6.453
10536POPC   D2A69916  26.859  34.526   6.753
10536POPC   C3A69917  26.774  34.613   7.053
10536POPC   C4A69918  26.779  34.624   7.353
10536POPC   C1B69919  26.747  34.353   6.453
10536POPC   C2B69920  26.751  34.310   6.753
10536POPC   C3B69921  26.767  34.307   7.053
10536POPC   C4B69922  26.778  34.341   7.353
10537POPC   NC369923  44.690  15.968   5.553
10537POPC   PO469924  44.675  15.972   5.853
10537POPC   GL169925  44.678  15.970   6.153
10537POPC   GL269926  44.741  15.853   6.153
10537POPC   C1A69927  44.685  15.954   6.453
10537POPC   D2A69928  44.679  15.911   6.753
10537POPC   C3A69929  44.665  15.974   7.053
10537POPC   C4A69930  44.644  15.946   7.353
10537POPC   C1B69931  44.785  15.783   6.453
10537POPC   C2B69932  44.750  15.744   6.753
10537POPC   C3B69933  44.844  15.753   7.053
10537POPC   C4B69934  44.754  15.756   7.353
10538POPC   NC369935  40.778  43.157   5.553
10538POPC   PO469936  40.734  43.151   5.853
10538POPC   GL169937  40.748  43.099   6.153
10538POPC   GL269938  40.798  43.196   6.153
10538POPC   C1A69939  40.784  43.100   6.453
10538POPC   D2A69940  40.814  43.085   6.753
10538POPC   C3A69941  40.748  43.120   7.053
10538POPC   C4A69942  40.775  43.136   7.353
10538POPC   C1B69943  40.778  43.351   6.453
10538POPC   C2B69944  40.685  43.318   6.753
10538POPC   C3B69945  40.762  43.361   7.053
10538POPC   C4B69946  40.752  43.344   7.353
10539POPC   NC369947   8.236  29.932   5.553
10539POPC   PO469948   8.245  29.956   5.853
10539POPC   GL169949   8.150  29.949   6.153
10539POPC   GL269950   8.094  30.039   6.153
10539POPC   C1A69951   8.166  29.944   6.453
10539POPC   D2A69952   8.209  29.917   6.753
10539POPC   C3A69953   8.245  29.960   7.053
10539POPC   C4A69954   8.175  29.903   7.353
10539POPC   C1B69955   8.088  30.150   6.453
10539POPC   C2B69956   8.033  30.143   6.753
10539POPC   C3B69957   8.082  30.152   7.053
10539POPC   C4B69958   8.066  30.156   7.353
10540POPC   NC369959   5.128  36.885   5.553
10540POPC   PO469960   5.076  36.940   5.853
10540POPC   GL169961   5.127  36.920   6.153
10540POPC   GL269962   5.134  36.793   6.153
10540POPC   C1A69963   5.097  36.881   6.453
10540POPC   D2A69964   5.098  36.911   6.753
10540POPC   C3A69965   5.096  36.875   7.053
10540POPC   C4A69966   5.097  36.883   7.353
10540POPC   C1B69967   5.226  36.698   6.453
10540POPC   C2B69968   5.252  36.713   6.753
10540POPC   C3B69969   5.258  36.653   7.053
10540POPC   C4B69970   5.207  36.685   7.353
10541POPC   NC369971  16.694   3.532   5.553
10541POPC   PO469972  16.739   3.512   5.853
10541POPC   GL169973  16.732   3.583   6.153
10541POPC   GL269974  16.631   3.444   6.153
10541POPC   C1A69975  16.690   3.569   6.453
10541POPC   D2A69976  16.707   3.568   6.753
10541POPC   C3A69977  16.763   3.574   7.053
10541POPC   C4A69978  16.688   3.526   7.353
10541POPC   C1B69979  16.476   3.404   6.453
10541POPC   C2B69980  16.544   3.396   6.753
10541POPC   C3B69981  16.547   3.405   7.053
10541POPC   C4B69982  16.503   3.468   7.353
10542POPC   NC369983  24.517   5.127   5.553
10542POPC   PO469984  24.494   5.128   5.853
10542POPC   GL169985  24.445   5.120   6.153
10542POPC   GL269986  24.438   5.184   6.153
10542POPC   C1A69987  24.507   5.105   6.453
10542POPC   D2A69988  24.461   5.122   6.753
10542POPC   C3A69989  24.464   5.090   7.053
10542POPC   C4A69990  24.441   5.061   7.353
10542POPC   C1B69991  24.301   5.205   6.453
10542POPC   C2B69992  24.340   5.281   6.753
10542POPC   C3B69993  24.325   5.286   7.053
10542POPC   C4B69994  24.323   5.212   7.353
10543POPC   NC369995  26.050  11.317   5.553
10543POPC   PO469996  26.070  11.320   5.853
10543POPC   GL169997  25.993  11.332   6.153
10543POPC   GL269998  25.972  11.371   6.153
10543POPC   C1A69999  26.042  11.326   6.453
10543POPC   D2A70000  26.009  11.277   6.753
10543POPC   C3A70001  26.072  11.337   7.053
10543POPC   C4A70002  26.062  11.262   7.353
10543POPC   C1B70003  25.820  11.369   6.453
10543POPC   C2B70004  25.780  11.361   6.753
10543POPC   C3B70005  25.771  11.382   7.053
10543POPC   C4B70006  25.824  11.410   7.353
10544POPC   NC370007   9.760   5.898   5.553
10544POPC   PO470008   9.797   5.882   5.853
10544POPC   GL170009   9.767   5.917   6.153
10544POPC   GL270010   9.829   5.957   6.153
10544POPC   C1A70011   9.723   5.843   6.453
10544POPC   D2A70012   9.729   5.879   6.753
10544POPC   C3A70013   9.741   5.845   7.053
10544POPC   C4A70014   9.753   5.912   7.353
10544POPC   C1B70015   9.887   6.017   6.453
10544POPC   C2B70016   9.874   6.095   6.753
10544POPC   C3B70017   9.908   6.061   7.053
10544POPC   C4B70018   9.934   6.064   7.353
10545POPC   NC370019  22.975  26.828   5.553
10545POPC   PO470020  22.948  26.843   5.853
10545POPC   GL170021  22.932  26.787   6.153
10545POPC   GL270022  22.815  26.709   6.153
10545POPC   C1A70023  22.897  26.806   6.453
10545POPC   D2A70024  22.923  26.836   6.753
10545POPC   C3A70025  22.952  26.858   7.053
10545POPC   C4A70026  22.888  26.824   7.353
10545POPC   C1B70027  22.750  26.688   6.453
10545POPC   C2B70028  22.702  26.672   6.753
10545POPC   C3B70029  22.764  26.657   7.053
10545POPC   C4B70030  22.680  26.639   7.353
10546POPC   NC370031   6.667  39.252   5.553
10546POPC   PO470032   6.641  39.242   5.853
10546POPC   GL170033   6.669  39.254   6.153
10546POPC   GL270034   6.616  39.385   6.153
10546POPC   C1A70035   6.620  39.274   6.453
10546POPC   D2A70036   6.598  39.266   6.753
10546POPC   C3A70037   6.639  39.206   7.053
10546POPC   C4A70038   6.620  39.189   7.353
10546POPC   C1B70039   6.624  39.486   6.453
10546POPC   C2B70040   6.631  39.464   6.753
10546POPC   C3B70041   6.675  39.471   7.053
10546POPC   C4B70042   6.614  39.468   7.353
10547POPC   NC370043  22.982  36.909   5.553
10547POPC   PO470044  22.932  36.942   5.853
10547POPC   GL170045  22.922  36.893   6.153
10547POPC   GL270046  23.004  36.813   6.153
10547POPC   C1A70047  22.911  36.925   6.453
10547POPC   D2A70048  22.936  36.893   6.753
10547POPC   C3A70049  22.938  36.855   7.053
10547POPC   C4A70050  22.939  36.873   7.353
10547POPC   C1B70051  23.023  36.650   6.453
10547POPC   C2B70052  23.033  36.734   6.753
10547POPC   C3B70053  23.063  36.654   7.053
10547POPC   C4B70054  23.043  36.671   7.353
10548POPC   NC370055  10.499   1.175   5.553
10548POPC   PO470056  10.507   1.186   5.853
10548POPC   GL170057  10.484   1.223   6.153
10548POPC   GL270058  10.595   1.104   6.153
10548POPC   C1A70059  10.527   1.234   6.453
10548POPC   D2A70060  10.505   1.169   6.753
10548POPC   C3A70061  10.488   1.188   7.053
10548POPC   C4A70062  10.548   1.182   7.353
10548POPC   C1B70063  10.613   0.975   6.453
10548POPC   C2B70064  10.637   0.984   6.753
10548POPC   C3B70065  10.639   0.995   7.053
10548POPC   C4B70066  10.547   0.946   7.353
10549POPC   NC370067  34.587  23.714   5.553
10549POPC   PO470068  34.593  23.752   5.853
10549POPC   GL170069  34.567  23.745   6.153
10549POPC   GL270070  34.652  23.625   6.153
10549POPC   C1A70071  34.597  23.702   6.453
10549POPC   D2A70072  34.603  23.696   6.753
10549POPC   C3A70073  34.616  23.689   7.053
10549POPC   C4A70074  34.609  23.746   7.353
10549POPC   C1B70075  34.594  23.497   6.453
10549POPC   C2B70076  34.628  23.489   6.753
10549POPC   C3B70077  34.591  23.431   7.053
10549POPC   C4B70078  34.626  23.521   7.353
10550POPC   NC370079  21.348  20.623   5.553
10550POPC   PO470080  21.340  20.562   5.853
10550POPC   GL170081  21.427  20.623   6.153
10550POPC   GL270082  21.541  20.565   6.153
10550POPC   C1A70083  21.399  20.598   6.453
10550POPC   D2A70084  21.342  20.639   6.753
10550POPC   C3A70085  21.399  20.614   7.053
10550POPC   C4A70086  21.400  20.579   7.353
10550POPC   C1B70087  21.624  20.503   6.453
10550POPC   C2B70088  21.575  20.503   6.753
10550POPC   C3B70089  21.574  20.478   7.053
10550POPC   C4B70090  21.581  20.489   7.353
10551POPC   NC370091  43.114  32.217   5.553
10551POPC   PO470092  43.081  32.270   5.853
10551POPC   GL170093  43.131  32.277   6.153
10551POPC   GL270094  43.218  32.294   6.153
10551POPC   C1A70095  43.115  32.214   6.453
10551POPC   D2A70096  43.158  32.205   6.753
10551POPC   C3A70097  43.125  32.205   7.053
10551POPC   C4A70098  43.068  32.249   7.353
10551POPC   C1B70099  43.313  32.384   6.453
10551POPC   C2B70100  43.317  32.435   6.753
10551POPC   C3B70101  43.329  32.397   7.053
10551POPC   C4B70102  43.300  32.436   7.353
10552POPC   NC370103  39.964  31.459   5.553
10552POPC   PO470104  40.035  31.429   5.853
10552POPC   GL170105  39.960  31.466   6.153
10552POPC   GL270106  40.103  31.585   6.153
10552POPC   C1A70107  40.016  31.481   6.453
10552POPC   D2A70108  40.030  31.457   6.753
10552POPC   C3A70109  40.000  31.522   7.053
10552POPC   C4A70110  40.055  31.438   7.353
10552POPC   C1B70111  40.158  31.648   6.453
10552POPC   C2B70112  40.153  31.706   6.753
10552POPC   C3B70113  40.176  31.660   7.053
10552POPC   C4B70114  40.176  31.618   7.353
10553POPC   NC370115   5.089  38.459   5.553
10553POPC   PO470116   5.056  38.473   5.853
10553POPC   GL170117   5.120  38.496   6.153
10553POPC   GL270118   5.191  38.587   6.153
10553POPC   C1A70119   5.085  38.421   6.453
10553POPC   D2A70120   5.097  38.480   6.753
10553POPC   C3A70121   5.073  38.406   7.053
10553POPC   C4A70122   5.082  38.410   7.353
10553POPC   C1B70123   5.190  38.659   6.453
10553POPC   C2B70124   5.224  38.676   6.753
10553POPC   C3B70125   5.223  38.705   7.053
10553POPC   C4B70126   5.181  38.709   7.353
10554POPC   NC370127  19.022  14.387   5.553
10554POPC   PO470128  19.081  14.392   5.853
10554POPC   GL170129  19.093  14.446   6.153
10554POPC   GL270130  18.904  14.345   6.153
10554POPC   C1A70131  19.026  14.427   6.453
10554POPC   D2A70132  19.022  14.392   6.753
10554POPC   C3A70133  19.025  14.389   7.053
10554POPC   C4A70134  19.066  14.447   7.353
10554POPC   C1B70135  18.851  14.278   6.453
10554POPC   C2B70136  18.788  14.337   6.753
10554POPC   C3B70137  18.785  14.329   7.053
10554POPC   C4B70138  18.808  14.313   7.353
10555POPC   NC370139   6.638   8.183   5.553
10555POPC   PO470140   6.618   8.228   5.853
10555POPC   GL170141   6.625   8.163   6.153
10555POPC   GL270142   6.752   8.243   6.153
10555POPC   C1A70143   6.657   8.241   6.453
10555POPC   D2A70144   6.611   8.182   6.753
10555POPC   C3A70145   6.621   8.237   7.053
10555POPC   C4A70146   6.625   8.201   7.353
10555POPC   C1B70147   6.938   8.162   6.453
10555POPC   C2B70148   6.850   8.231   6.753
10555POPC   C3B70149   6.862   8.169   7.053
10555POPC   C4B70150   6.894   8.172   7.353
10556POPC   NC370151  32.989  32.230   5.553
10556POPC   PO470152  33.051  32.214   5.853
10556POPC   GL170153  33.053  32.227   6.153
10556POPC   GL270154  32.916  32.124   6.153
10556POPC   C1A70155  33.025  32.251   6.453
10556POPC   D2A70156  33.067  32.277   6.753
10556POPC   C3A70157  33.024  32.226   7.053
10556POPC   C4A70158  33.037  32.203   7.353
10556POPC   C1B70159  32.836  32.035   6.453
10556POPC   C2B70160  32.817  32.053   6.753
10556POPC   C3B70161  32.889  32.091   7.053
10556POPC   C4B70162  32.880  32.098   7.353
10557POPC   NC370163   6.613  41.596   5.553
10557POPC   PO470164   6.658  41.513   5.853
10557POPC   GL170165   6.616  41.530   6.153
10557POPC   GL270166   6.756  41.451   6.153
10557POPC   C1A70167   6.680  41.607   6.453
10557POPC   D2A70168   6.684  41.528   6.753
10557POPC   C3A70169   6.690  41.520   7.053
10557POPC   C4A70170   6.619  41.563   7.353
10557POPC   C1B70171   6.885  41.451   6.453
10557POPC   C2B70172   6.889  41.410   6.753
10557POPC   C3B70173   6.886  41.450   7.053
10557POPC   C4B70174   6.873  41.444   7.353
10558POPC   NC370175  12.860  33.043   5.553
10558POPC   PO470176  12.875  32.983   5.853
10558POPC   GL170177  12.835  33.052   6.153
10558POPC   GL270178  12.921  32.940   6.153
10558POPC   C1A70179  12.888  33.048   6.453
10558POPC   D2A70180  12.840  32.975   6.753
10558POPC   C3A70181  12.837  33.034   7.053
10558POPC   C4A70182  12.816  32.994   7.353
10558POPC   C1B70183  12.931  32.764   6.453
10558POPC   C2B70184  12.942  32.762   6.753
10558POPC   C3B70185  12.930  32.765   7.053
10558POPC   C4B70186  12.962  32.832   7.353
10559POPC   NC370187  38.481  29.967   5.553
10559POPC   PO470188  38.477  29.877   5.853
10559POPC   GL170189  38.455  29.879   6.153
10559POPC   GL270190  38.315  29.885   6.153
10559POPC   C1A70191  38.422  29.893   6.453
10559POPC   D2A70192  38.468  29.953   6.753
10559POPC   C3A70193  38.479  29.958   7.053
10559POPC   C4A70194  38.498  29.968   7.353
10559POPC   C1B70195  38.175  29.902   6.453
10559POPC   C2B70196  38.198  29.950   6.753
10559POPC   C3B70197  38.222  29.891   7.053
10559POPC   C4B70198  38.243  29.951   7.353
10560POPC   NC370199  12.831  20.610   5.553
10560POPC   PO470200  12.867  20.628   5.853
10560POPC   GL170201  12.820  20.590   6.153
10560POPC   GL270202  12.910  20.661   6.153
10560POPC   C1A70203  12.840  20.626   6.453
10560POPC   D2A70204  12.810  20.562   6.753
10560POPC   C3A70205  12.821  20.656   7.053
10560POPC   C4A70206  12.862  20.582   7.353
10560POPC   C1B70207  13.018  20.741   6.453
10560POPC   C2B70208  13.050  20.801   6.753
10560POPC   C3B70209  13.000  20.778   7.053
10560POPC   C4B70210  13.082  20.719   7.353
10561POPC   NC370211  20.579   2.784   5.553
10561POPC   PO470212  20.626   2.805   5.853
10561POPC   GL170213  20.580   2.805   6.153
10561POPC   GL270214  20.689   2.854   6.153
10561POPC   C1A70215  20.598   2.746   6.453
10561POPC   D2A70216  20.618   2.783   6.753
10561POPC   C3A70217  20.621   2.720   7.053
10561POPC   C4A70218  20.653   2.748   7.353
10561POPC   C1B70219  20.717   2.937   6.453
10561POPC   C2B70220  20.736   2.980   6.753
10561POPC   C3B70221  20.738   3.019   7.053
10561POPC   C4B70222  20.713   3.008   7.353
10562POPC   NC370223   7.376   1.240   5.553
10562POPC   PO470224   7.426   1.208   5.853
10562POPC   GL170225   7.432   1.242   6.153
10562POPC   GL270226   7.438   1.124   6.153
10562POPC   C1A70227   7.469   1.264   6.453
10562POPC   D2A70228   7.403   1.189   6.753
10562POPC   C3A70229   7.448   1.198   7.053
10562POPC   C4A70230   7.440   1.198   7.353
10562POPC   C1B70231   7.533   0.964   6.453
10562POPC   C2B70232   7.561   0.983   6.753
10562POPC   C3B70233   7.582   1.021   7.053
10562POPC   C4B70234   7.559   0.960   7.353
10563POPC   NC370235  41.559  26.801   5.553
10563POPC   PO470236  41.578  26.841   5.853
10563POPC   GL170237  41.545  26.804   6.153
10563POPC   GL270238  41.602  26.749   6.153
10563POPC   C1A70239  41.601  26.828   6.453
10563POPC   D2A70240  41.545  26.824   6.753
10563POPC   C3A70241  41.594  26.794   7.053
10563POPC   C4A70242  41.597  26.839   7.353
10563POPC   C1B70243  41.661  26.601   6.453
10563POPC   C2B70244  41.625  26.592   6.753
10563POPC   C3B70245  41.647  26.628   7.053
10563POPC   C4B70246  41.696  26.549   7.353
10564POPC   NC370247  11.258  36.129   5.553
10564POPC   PO470248  11.322  36.120   5.853
10564POPC   GL170249  11.255  36.093   6.153
10564POPC   GL270250  11.425  36.066   6.153
10564POPC   C1A70251  11.348  36.147   6.453
10564POPC   D2A70252  11.276  36.088   6.753
10564POPC   C3A70253  11.251  36.157   7.053
10564POPC   C4A70254  11.330  36.158   7.353
10564POPC   C1B70255  11.533  35.979   6.453
10564POPC   C2B70256  11.456  35.949   6.753
10564POPC   C3B70257  11.441  35.948   7.053
10564POPC   C4B70258  11.490  36.002   7.353
10565POPC   NC370259   8.167  21.378   5.553
10565POPC   PO470260   8.221  21.399   5.853
10565POPC   GL170261   8.209  21.337   6.153
10565POPC   GL270262   8.141  21.270   6.153
10565POPC   C1A70263   8.198  21.394   6.453
10565POPC   D2A70264   8.245  21.377   6.753
10565POPC   C3A70265   8.173  21.412   7.053
10565POPC   C4A70266   8.228  21.420   7.353
10565POPC   C1B70267   8.065  21.193   6.453
10565POPC   C2B70268   8.077  21.108   6.753
10565POPC   C3B70269   8.119  21.153   7.053
10565POPC   C4B70270   8.099  21.177   7.353
10566POPC   NC370271  40.047  35.330   5.553
10566POPC   PO470272  39.964  35.340   5.853
10566POPC   GL170273  39.971  35.337   6.153
10566POPC   GL270274  39.954  35.244   6.153
10566POPC   C1A70275  39.974  35.380   6.453
10566POPC   D2A70276  39.994  35.317   6.753
10566POPC   C3A70277  40.030  35.376   7.053
10566POPC   C4A70278  40.037  35.372   7.353
10566POPC   C1B70279  39.818  35.230   6.453
10566POPC   C2B70280  39.791  35.166   6.753
10566POPC   C3B70281  39.846  35.196   7.053
10566POPC   C4B70282  39.850  35.212   7.353
10567POPC   NC370283  15.171  22.137   5.553
10567POPC   PO470284  15.135  22.165   5.853
10567POPC   GL170285  15.224  22.148   6.153
10567POPC   GL270286  15.342  22.202   6.153
10567POPC   C1A70287  15.208  22.123   6.453
10567POPC   D2A70288  15.144  22.115   6.753
10567POPC   C3A70289  15.178  22.173   7.053
10567POPC   C4A70290  15.193  22.121   7.353
10567POPC   C1B70291  15.413  22.193   6.453
10567POPC   C2B70292  15.458  22.207   6.753
10567POPC   C3B70293  15.374  22.221   7.053
10567POPC   C4B70294  15.410  22.237   7.353
10568POPC   NC370295  15.229  37.643   5.553
10568POPC   PO470296  15.133  37.661   5.853
10568POPC   GL170297  15.161  37.667   6.153
10568POPC   GL270298  15.269  37.809   6.153
10568POPC   C1A70299  15.223  37.663   6.453
10568POPC   D2A70300  15.219  37.717   6.753
10568POPC   C3A70301  15.140  37.645   7.053
10568POPC   C4A70302  15.224  37.635   7.353
10568POPC   C1B70303  15.383  37.819   6.453
10568POPC   C2B70304  15.395  37.825   6.753
10568POPC   C3B70305  15.373  37.831   7.053
10568POPC   C4B70306  15.381  37.810   7.353
10569POPC   NC370307  32.232  17.504   5.553
10569POPC   PO470308  32.210  17.499   5.853
10569POPC   GL170309  32.268  17.461   6.153
10569POPC   GL270310  32.160  17.427   6.153
10569POPC   C1A70311  32.260  17.473   6.453
10569POPC   D2A70312  32.284  17.493   6.753
10569POPC   C3A70313  32.270  17.486   7.053
10569POPC   C4A70314  32.297  17.539   7.353
10569POPC   C1B70315  32.068  17.410   6.453
10569POPC   C2B70316  32.023  17.415   6.753
10569POPC   C3B70317  32.016  17.398   7.053
10569POPC   C4B70318  32.028  17.370   7.353
10570POPC   NC370319  12.034  38.466   5.553
10570POPC   PO470320  12.034  38.434   5.853
10570POPC   GL170321  12.120  38.505   6.153
10570POPC   GL270322  11.993  38.389   6.153
10570POPC   C1A70323  12.059  38.500   6.453
10570POPC   D2A70324  12.065  38.483   6.753
10570POPC   C3A70325  12.107  38.503   7.053
10570POPC   C4A70326  12.044  38.426   7.353
10570POPC   C1B70327  11.936  38.278   6.453
10570POPC   C2B70328  12.004  38.188   6.753
10570POPC   C3B70329  11.932  38.265   7.053
10570POPC   C4B70330  11.948  38.271   7.353
10571POPC   NC370331   5.131  26.075   5.553
10571POPC   PO470332   5.110  26.012   5.853
10571POPC   GL170333   5.122  26.018   6.153
10571POPC   GL270334   5.072  26.205   6.153
10571POPC   C1A70335   5.139  26.063   6.453
10571POPC   D2A70336   5.131  26.046   6.753
10571POPC   C3A70337   5.055  26.020   7.053
10571POPC   C4A70338   5.099  26.060   7.353
10571POPC   C1B70339   5.150  26.310   6.453
10571POPC   C2B70340   5.165  26.308   6.753
10571POPC   C3B70341   5.114  26.284   7.053
10571POPC   C4B70342   5.130  26.272   7.353
10572POPC   NC370343  31.470   9.006   5.553
10572POPC   PO470344  31.465   8.995   5.853
10572POPC   GL170345  31.453   8.973   6.153
10572POPC   GL270346  31.466   8.872   6.153
10572POPC   C1A70347  31.491   9.021   6.453
10572POPC   D2A70348  31.458   8.965   6.753
10572POPC   C3A70349  31.447   8.983   7.053
10572POPC   C4A70350  31.435   8.981   7.353
10572POPC   C1B70351  31.550   8.713   6.453
10572POPC   C2B70352  31.501   8.749   6.753
10572POPC   C3B70353  31.554   8.781   7.053
10572POPC   C4B70354  31.517   8.728   7.353
10573POPC   NC370355  29.877   3.494   5.553
10573POPC   PO470356  29.968   3.550   5.853
10573POPC   GL170357  29.963   3.498   6.153
10573POPC   GL270358  29.806   3.456   6.153
10573POPC   C1A70359  29.939   3.570   6.453
10573POPC   D2A70360  29.901   3.579   6.753
10573POPC   C3A70361  29.922   3.543   7.053
10573POPC   C4A70362  29.941   3.531   7.353
10573POPC   C1B70363  29.775   3.352   6.453
10573POPC   C2B70364  29.757   3.369   6.753
10573POPC   C3B70365  29.755   3.357   7.053
10573POPC   C4B70366  29.731   3.383   7.353
10574POPC   NC370367  41.589  15.955   5.553
10574POPC   PO470368  41.604  15.913   5.853
10574POPC   GL170369  41.600  15.951   6.153
10574POPC   GL270370  41.445  16.009   6.153
10574POPC   C1A70371  41.518  15.912   6.453
10574POPC   D2A70372  41.544  15.934   6.753
10574POPC   C3A70373  41.534  15.945   7.053
10574POPC   C4A70374  41.574  15.949   7.353
10574POPC   C1B70375  41.337  15.996   6.453
10574POPC   C2B70376  41.358  15.939   6.753
10574POPC   C3B70377  41.332  16.009   7.053
10574POPC   C4B70378  41.305  15.941   7.353
10575POPC   NC370379  39.204  40.776   5.553
10575POPC   PO470380  39.255  40.804   5.853
10575POPC   GL170381  39.248  40.754   6.153
10575POPC   GL270382  39.315  40.678   6.153
10575POPC   C1A70383  39.269  40.802   6.453
10575POPC   D2A70384  39.229  40.803   6.753
10575POPC   C3A70385  39.234  40.825   7.053
10575POPC   C4A70386  39.271  40.832   7.353
10575POPC   C1B70387  39.283  40.590   6.453
10575POPC   C2B70388  39.276  40.535   6.753
10575POPC   C3B70389  39.282  40.592   7.053
10575POPC   C4B70390  39.370  40.517   7.353
10576POPC   NC370391  37.691  26.007   5.553
10576POPC   PO470392  37.716  26.076   5.853
10576POPC   GL170393  37.707  26.002   6.153
10576POPC   GL270394  37.573  25.967   6.153
10576POPC   C1A70395  37.679  26.010   6.453
10576POPC   D2A70396  37.633  26.051   6.753
10576POPC   C3A70397  37.686  26.048   7.053
10576POPC   C4A70398  37.696  26.003   7.353
10576POPC   C1B70399  37.463  25.923   6.453
10576POPC   C2B70400  37.475  25.870   6.753
10576POPC   C3B70401  37.488  25.835   7.053
10576POPC   C4B70402  37.519  25.863   7.353
10577POPC   NC370403  26.768   3.581   5.553
10577POPC   PO470404  26.773   3.560   5.853
10577POPC   GL170405  26.838   3.538   6.153
10577POPC   GL270406  26.652   3.612   6.153
10577POPC   C1A70407  26.787   3.582   6.453
10577POPC   D2A70408  26.851   3.577   6.753
10577POPC   C3A70409  26.803   3.585   7.053
10577POPC   C4A70410  26.864   3.531   7.353
10577POPC   C1B70411  26.579   3.591   6.453
10577POPC   C2B70412  26.545   3.617   6.753
10577POPC   C3B70413  26.595   3.614   7.053
10577POPC   C4B70414  26.585   3.637   7.353
10578POPC   NC370415   1.250   8.218   5.553
10578POPC   PO470416   1.177   8.196   5.853
10578POPC   GL170417   1.179   8.150   6.153
10578POPC   GL270418   1.363   8.119   6.153
10578POPC   C1A70419   1.224   8.236   6.453
10578POPC   D2A70420   1.224   8.216   6.753
10578POPC   C3A70421   1.243   8.239   7.053
10578POPC   C4A70422   1.181   8.199   7.353
10578POPC   C1B70423   1.465   8.116   6.453
10578POPC   C2B70424   1.417   8.098   6.753
10578POPC   C3B70425   1.404   8.117   7.053
10578POPC   C4B70426   1.429   8.063   7.353
10579POPC   NC370427  36.908  43.889   5.553
10579POPC   PO470428  36.875  43.889   5.853
10579POPC   GL170429  36.907  43.917   6.153
10579POPC   GL270430  36.837  43.806   6.153
10579POPC   C1A70431  36.904  43.872   6.453
10579POPC   D2A70432  36.914  43.881   6.753
10579POPC   C3A70433  36.863  43.931   7.053
10579POPC   C4A70434  36.931  43.924   7.353
10579POPC   C1B70435  36.774  43.674   6.453
10579POPC   C2B70436  36.804  43.725   6.753
10579POPC   C3B70437  36.723  43.689   7.053
10579POPC   C4B70438  36.762  43.675   7.353
10580POPC   NC370439  18.264  18.296   5.553
10580POPC   PO470440  18.260  18.313   5.853
10580POPC   GL170441  18.251  18.247   6.153
10580POPC   GL270442  18.373  18.315   6.153
10580POPC   C1A70443  18.254  18.258   6.453
10580POPC   D2A70444  18.314  18.271   6.753
10580POPC   C3A70445  18.325  18.265   7.053
10580POPC   C4A70446  18.313  18.311   7.353
10580POPC   C1B70447  18.493  18.367   6.453
10580POPC   C2B70448  18.481  18.324   6.753
10580POPC   C3B70449  18.496  18.308   7.053
10580POPC   C4B70450  18.573  18.328   7.353
10581POPC   NC370451  20.656  40.740   5.553
10581POPC   PO470452  20.615  40.779   5.853
10581POPC   GL170453  20.628  40.767   6.153
10581POPC   GL270454  20.612  40.896   6.153
10581POPC   C1A70455  20.625  40.784   6.453
10581POPC   D2A70456  20.636  40.819   6.753
10581POPC   C3A70457  20.610  40.746   7.053
10581POPC   C4A70458  20.618  40.802   7.353
10581POPC   C1B70459  20.634  40.983   6.453
10581POPC   C2B70460  20.593  41.063   6.753
10581POPC   C3B70461  20.623  41.026   7.053
10581POPC   C4B70462  20.614  41.043   7.353
10582POPC   NC370463  13.605  10.552   5.553
10582POPC   PO470464  13.664  10.528   5.853
10582POPC   GL170465  13.644  10.492   6.153
10582POPC   GL270466  13.554  10.605   6.153
10582POPC   C1A70467  13.642  10.501   6.453
10582POPC   D2A70468  13.585  10.528   6.753
10582POPC   C3A70469  13.631  10.566   7.053
10582POPC   C4A70470  13.650  10.479   7.353
10582POPC   C1B70471  13.578  10.767   6.453
10582POPC   C2B70472  13.587  10.802   6.753
10582POPC   C3B70473  13.566  10.759   7.053
10582POPC   C4B70474  13.524  10.774   7.353
10583POPC   NC370475  32.997  29.922   5.553
10583POPC   PO470476  32.977  29.879   5.853
10583POPC   GL170477  33.063  29.886   6.153
10583POPC   GL270478  33.068  29.797   6.153
10583POPC   C1A70479  33.013  29.948   6.453
10583POPC   D2A70480  33.021  29.922   6.753
10583POPC   C3A70481  33.067  29.920   7.053
10583POPC   C4A70482  33.056  29.965   7.353
10583POPC   C1B70483  33.140  29.660   6.453
10583POPC   C2B70484  33.085  29.696   6.753
10583POPC   C3B70485  33.148  29.732   7.053
10583POPC   C4B70486  33.155  29.704   7.353
10584POPC   NC370487  12.867   0.409   5.553
10584POPC   PO470488  12.871   0.410   5.853
10584POPC   GL170489  12.812   0.395   6.153
10584POPC   GL270490  12.936   0.495   6.153
10584POPC   C1A70491  12.810   0.452   6.453
10584POPC   D2A70492  12.851   0.433   6.753
10584POPC   C3A70493  12.863   0.452   7.053
10584POPC   C4A70494  12.882   0.461   7.353
10584POPC   C1B70495  12.972   0.626   6.453
10584POPC   C2B70496  13.051   0.592   6.753
10584POPC   C3B70497  13.055   0.636   7.053
10584POPC   C4B70498  13.051   0.584   7.353
10585POPC   NC370499  12.047  20.601   5.553
10585POPC   PO470500  12.102  20.627   5.853
10585POPC   GL170501  12.070  20.611   6.153
10585POPC   GL270502  12.069  20.705   6.153
10585POPC   C1A70503  12.040  20.609   6.453
10585POPC   D2A70504  12.041  20.629   6.753
10585POPC   C3A70505  12.104  20.590   7.053
10585POPC   C4A70506  12.032  20.620   7.353
10585POPC   C1B70507  12.059  20.886   6.453
10585POPC   C2B70508  12.026  20.819   6.753
10585POPC   C3B70509  12.008  20.876   7.053
10585POPC   C4B70510  12.057  20.877   7.353
10586POPC   NC370511  32.986  31.499   5.553
10586POPC   PO470512  33.002  31.441   5.853
10586POPC   GL170513  32.975  31.431   6.153
10586POPC   GL270514  32.946  31.536   6.153
10586POPC   C1A70515  32.991  31.443   6.453
10586POPC   D2A70516  32.975  31.481   6.753
10586POPC   C3A70517  33.022  31.483   7.053
10586POPC   C4A70518  33.036  31.517   7.353
10586POPC   C1B70519  32.871  31.690   6.453
10586POPC   C2B70520  32.925  31.653   6.753
10586POPC   C3B70521  32.936  31.720   7.053
10586POPC   C4B70522  32.946  31.721   7.353
10587POPC   NC370523  40.833  23.666   5.553
10587POPC   PO470524  40.787  23.711   5.853
10587POPC   GL170525  40.752  23.727   6.153
10587POPC   GL270526  40.711  23.767   6.153
10587POPC   C1A70527  40.760  23.694   6.453
10587POPC   D2A70528  40.769  23.671   6.753
10587POPC   C3A70529  40.824  23.739   7.053
10587POPC   C4A70530  40.775  23.692   7.353
10587POPC   C1B70531  40.621  23.918   6.453
10587POPC   C2B70532  40.571  23.938   6.753
10587POPC   C3B70533  40.578  23.926   7.053
10587POPC   C4B70534  40.578  23.880   7.353
10588POPC   NC370535   1.197  20.603   5.553
10588POPC   PO470536   1.175  20.612   5.853
10588POPC   GL170537   1.258  20.634   6.153
10588POPC   GL270538   1.355  20.686   6.153
10588POPC   C1A70539   1.170  20.621   6.453
10588POPC   D2A70540   1.216  20.576   6.753
10588POPC   C3A70541   1.228  20.602   7.053
10588POPC   C4A70542   1.227  20.652   7.353
10588POPC   C1B70543   1.382  20.760   6.453
10588POPC   C2B70544   1.452  20.818   6.753
10588POPC   C3B70545   1.407  20.770   7.053
10588POPC   C4B70546   1.388  20.768   7.353
10589POPC   NC370547  42.351  42.341   5.553
10589POPC   PO470548  42.320  42.336   5.853
10589POPC   GL170549  42.328  42.323   6.153
10589POPC   GL270550  42.368  42.233   6.153
10589POPC   C1A70551  42.292  42.313   6.453
10589POPC   D2A70552  42.356  42.363   6.753
10589POPC   C3A70553  42.368  42.286   7.053
10589POPC   C4A70554  42.312  42.364   7.353
10589POPC   C1B70555  42.351  42.073   6.453
10589POPC   C2B70556  42.278  42.045   6.753
10589POPC   C3B70557  42.347  42.052   7.053
10589POPC   C4B70558  42.328  42.127   7.353
10590POPC   NC370559  44.629   1.975   5.553
10590POPC   PO470560  44.672   1.992   5.853
10590POPC   GL170561  44.638   1.968   6.153
10590POPC   GL270562  44.756   1.909   6.153
10590POPC   C1A70563  44.691   2.013   6.453
10590POPC   D2A70564  44.649   1.967   6.753
10590POPC   C3A70565  44.698   1.978   7.053
10590POPC   C4A70566  44.678   2.014   7.353
10590POPC   C1B70567  44.922   1.880   6.453
10590POPC   C2B70568  44.895   1.944   6.753
10590POPC   C3B70569  44.896   1.884   7.053
10590POPC   C4B70570  44.849   1.934   7.353
10591POPC   NC370571   4.330  40.036   5.553
10591POPC   PO470572   4.364  40.037   5.853
10591POPC   GL170573   4.335  39.962   6.153
10591POPC   GL270574   4.260  39.861   6.153
10591POPC   C1A70575   4.353  39.957   6.453
10591POPC   D2A70576   4.285  39.998   6.753
10591POPC   C3A70577   4.286  40.045   7.053
10591POPC   C4A70578   4.309  40.000   7.353
10591POPC   C1B70579   4.224  39.747   6.453
10591POPC   C2B70580   4.262  39.798   6.753
10591POPC   C3B70581   4.300  39.727   7.053
10591POPC   C4B70582   4.264  39.747   7.353
10592POPC   NC370583  38.455  21.358   5.553
10592POPC   PO470584  38.459  21.355   5.853
10592POPC   GL170585  38.496  21.434   6.153
10592POPC   GL270586  38.314  21.325   6.153
10592POPC   C1A70587  38.451  21.414   6.453
10592POPC   D2A70588  38.471  21.427   6.753
10592POPC   C3A70589  38.494  21.341   7.053
10592POPC   C4A70590  38.498  21.340   7.353
10592POPC   C1B70591  38.250  21.179   6.453
10592POPC   C2B70592  38.273  21.199   6.753
10592POPC   C3B70593  38.302  21.180   7.053
10592POPC   C4B70594  38.272  21.221   7.353
10593POPC   NC370595  28.323   2.021   5.553
10593POPC   PO470596  28.389   2.032   5.853
10593POPC   GL170597  28.346   2.002   6.153
10593POPC   GL270598  28.351   2.084   6.153
10593POPC   C1A70599  28.341   1.991   6.453
10593POPC   D2A70600  28.381   2.009   6.753
10593POPC   C3A70601  28.358   2.032   7.053
10593POPC   C4A70602  28.328   1.958   7.353
10593POPC   C1B70603  28.378   2.278   6.453
10593POPC   C2B70604  28.371   2.269   6.753
10593POPC   C3B70605  28.370   2.205   7.053
10593POPC   C4B70606  28.331   2.259   7.353
10594POPC   NC370607   5.084   4.310   5.553
10594POPC   PO470608   5.119   4.268   5.853
10594POPC   GL170609   5.080   4.348   6.153
10594POPC   GL270610   5.005   4.395   6.153
10594POPC   C1A70611   5.049   4.347   6.453
10594POPC   D2A70612   5.074   4.359   6.753
10594POPC   C3A70613   5.047   4.310   7.053
10594POPC   C4A70614   5.085   4.366   7.353
10594POPC   C1B70615   4.850   4.333   6.453
10594POPC   C2B70616   4.888   4.366   6.753
10594POPC   C3B70617   4.838   4.370   7.053
10594POPC   C4B70618   4.855   4.375   7.353
10595POPC   NC370619  11.325  15.988   5.553
10595POPC   PO470620  11.339  16.003   5.853
10595POPC   GL170621  11.294  15.969   6.153
10595POPC   GL270622  11.386  15.963   6.153
10595POPC   C1A70623  11.321  15.925   6.453
10595POPC   D2A70624  11.264  15.937   6.753
10595POPC   C3A70625  11.316  15.939   7.053
10595POPC   C4A70626  11.303  15.917   7.353
10595POPC   C1B70627  11.488  15.829   6.453
10595POPC   C2B70628  11.561  15.851   6.753
10595POPC   C3B70629  11.556  15.869   7.053
10595POPC   C4B70630  11.498  15.863   7.353
10596POPC   NC370631  44.656  36.880   5.553
10596POPC   PO470632  44.698  36.889   5.853
10596POPC   GL170633  44.624  36.913   6.153
10596POPC   GL270634  44.553  36.803   6.153
10596POPC   C1A70635  44.663  36.940   6.453
10596POPC   D2A70636  44.694  36.921   6.753
10596POPC   C3A70637  44.683  36.864   7.053
10596POPC   C4A70638  44.626  36.943   7.353
10596POPC   C1B70639  44.486  36.756   6.453
10596POPC   C2B70640  44.498  36.729   6.753
10596POPC   C3B70641  44.485  36.756   7.053
10596POPC   C4B70642  44.432  36.810   7.353
10597POPC   NC370643   2.019   0.428   5.553
10597POPC   PO470644   1.959   0.434   5.853
10597POPC   GL170645   1.952   0.417   6.153
10597POPC   GL270646   1.992   0.581   6.153
10597POPC   C1A70647   1.952   0.487   6.453
10597POPC   D2A70648   1.981   0.483   6.753
10597POPC   C3A70649   1.949   0.391   7.053
10597POPC   C4A70650   2.037   0.468   7.353
10597POPC   C1B70651   1.930   0.725   6.453
10597POPC   C2B70652   1.931   0.640   6.753
10597POPC   C3B70653   1.961   0.700   7.053
10597POPC   C4B70654   1.959   0.716   7.353
10598POPC   NC370655   7.391  26.014   5.553
10598POPC   PO470656   7.431  26.047   5.853
10598POPC   GL170657   7.463  26.061   6.153
10598POPC   GL270658   7.354  26.165   6.153
10598POPC   C1A70659   7.459  26.039   6.453
10598POPC   D2A70660   7.442  26.032   6.753
10598POPC   C3A70661   7.394  26.027   7.053
10598POPC   C4A70662   7.428  26.005   7.353
10598POPC   C1B70663   7.315  26.322   6.453
10598POPC   C2B70664   7.297  26.266   6.753
10598POPC   C3B70665   7.305  26.294   7.053
10598POPC   C4B70666   7.315  26.284   7.353
10599POPC   NC370667  17.473   4.291   5.553
10599POPC   PO470668  17.497   4.304   5.853
10599POPC   GL170669  17.460   4.367   6.153
10599POPC   GL270670  17.666   4.394   6.153
10599POPC   C1A70671  17.466   4.344   6.453
10599POPC   D2A70672  17.548   4.286   6.753
10599POPC   C3A70673  17.507   4.338   7.053
10599POPC   C4A70674  17.486   4.285   7.353
10599POPC   C1B70675  17.772   4.461   6.453
10599POPC   C2B70676  17.762   4.389   6.753
10599POPC   C3B70677  17.738   4.382   7.053
10599POPC   C4B70678  17.696   4.392   7.353
10600POPC   NC370679  36.912  41.562   5.553
10600POPC   PO470680  36.939  41.518   5.853
10600POPC   GL170681  36.919  41.591   6.153
10600POPC   GL270682  36.829  41.646   6.153
10600POPC   C1A70683  36.872  41.568   6.453
10600POPC   D2A70684  36.922  41.562   6.753
10600POPC   C3A70685  36.857  41.594   7.053
10600POPC   C4A70686  36.879  41.577   7.353
10600POPC   C1B70687  36.731  41.807   6.453
10600POPC   C2B70688  36.754  41.757   6.753
10600POPC   C3B70689  36.739  41.735   7.053
10600POPC   C4B70690  36.759  41.763   7.353
10601POPC   NC370691  19.789  22.928   5.553
10601POPC   PO470692  19.863  22.968   5.853
10601POPC   GL170693  19.837  22.890   6.153
10601POPC   GL270694  19.855  23.057   6.153
10601POPC   C1A70695  19.884  22.957   6.453
10601POPC   D2A70696  19.842  22.928   6.753
10601POPC   C3A70697  19.836  22.922   7.053
10601POPC   C4A70698  19.868  22.958   7.353
10601POPC   C1B70699  19.790  23.147   6.453
10601POPC   C2B70700  19.740  23.185   6.753
10601POPC   C3B70701  19.771  23.141   7.053
10601POPC   C4B70702  19.831  23.213   7.353
10602POPC   NC370703  18.329  14.433   5.553
10602POPC   PO470704  18.301  14.401   5.853
10602POPC   GL170705  18.284  14.414   6.153
10602POPC   GL270706  18.312  14.475   6.153
10602POPC   C1A70707  18.320  14.451   6.453
10602POPC   D2A70708  18.273  14.398   6.753
10602POPC   C3A70709  18.294  14.422   7.053
10602POPC   C4A70710  18.279  14.435   7.353
10602POPC   C1B70711  18.366  14.580   6.453
10602POPC   C2B70712  18.446  14.584   6.753
10602POPC   C3B70713  18.407  14.648   7.053
10602POPC   C4B70714  18.433  14.587   7.353
10603POPC   NC370715  36.867  19.032   5.553
10603POPC   PO470716  36.904  19.096   5.853
10603POPC   GL170717  36.921  19.084   6.153
10603POPC   GL270718  36.862  19.143   6.153
10603POPC   C1A70719  36.863  19.104   6.453
10603POPC   D2A70720  36.891  19.060   6.753
10603POPC   C3A70721  36.878  19.040   7.053
10603POPC   C4A70722  36.895  19.081   7.353
10603POPC   C1B70723  36.808  19.254   6.453
10603POPC   C2B70724  36.796  19.257   6.753
10603POPC   C3B70725  36.784  19.218   7.053
10603POPC   C4B70726  36.716  19.253   7.353
10604POPC   NC370727   0.459  38.473   5.553
10604POPC   PO470728   0.390  38.443   5.853
10604POPC   GL170729   0.488  38.452   6.153
10604POPC   GL270730   0.451  38.336   6.153
10604POPC   C1A70731   0.429  38.503   6.453
10604POPC   D2A70732   0.484  38.420   6.753
10604POPC   C3A70733   0.431  38.405   7.053
10604POPC   C4A70734   0.482  38.494   7.353
10604POPC   C1B70735   0.506  38.247   6.453
10604POPC   C2B70736   0.512  38.227   6.753
10604POPC   C3B70737   0.509  38.219   7.053
10604POPC   C4B70738   0.525  38.263   7.353
10605POPC   NC370739  40.799  29.111   5.553
10605POPC   PO470740  40.776  29.184   5.853
10605POPC   GL170741  40.750  29.193   6.153
10605POPC   GL270742  40.869  29.004   6.153
10605POPC   C1A70743  40.803  29.184   6.453
10605POPC   D2A70744  40.750  29.166   6.753
10605POPC   C3A70745  40.799  29.175   7.053
10605POPC   C4A70746  40.742  29.145   7.353
10605POPC   C1B70747  40.880  28.940   6.453
10605POPC   C2B70748  40.865  28.890   6.753
10605POPC   C3B70749  40.871  28.921   7.053
10605POPC   C4B70750  40.811  28.888   7.353
10606POPC   NC370751  22.142  38.455   5.553
10606POPC   PO470752  22.147  38.474   5.853
10606POPC   GL170753  22.171  38.410   6.153
10606POPC   GL270754  22.184  38.359   6.153
10606POPC   C1A70755  22.132  38.426   6.453
10606POPC   D2A70756  22.183  38.408   6.753
10606POPC   C3A70757  22.181  38.405   7.053
10606POPC   C4A70758  22.178  38.434   7.353
10606POPC   C1B70759  22.168  38.249   6.453
10606POPC   C2B70760  22.131  38.238   6.753
10606POPC   C3B70761  22.095  38.248   7.053
10606POPC   C4B70762  22.168  38.196   7.353
10607POPC   NC370763  37.717  29.158   5.553
10607POPC   PO470764  37.714  29.183   5.853
10607POPC   GL170765  37.714  29.181   6.153
10607POPC   GL270766  37.780  29.102   6.153
10607POPC   C1A70767  37.704  29.134   6.453
10607POPC   D2A70768  37.633  29.149   6.753
10607POPC   C3A70769  37.633  29.163   7.053
10607POPC   C4A70770  37.718  29.181   7.353
10607POPC   C1B70771  37.959  29.035   6.453
10607POPC   C2B70772  37.907  29.069   6.753
10607POPC   C3B70773  37.921  29.027   7.053
10607POPC   C4B70774  37.870  29.121   7.353
10608POPC   NC370775  33.004   9.785   5.553
10608POPC   PO470776  32.985   9.750   5.853
10608POPC   GL170777  32.986   9.769   6.153
10608POPC   GL270778  32.974   9.813   6.153
10608POPC   C1A70779  33.046   9.763   6.453
10608POPC   D2A70780  33.046   9.795   6.753
10608POPC   C3A70781  33.042   9.779   7.053
10608POPC   C4A70782  33.027   9.709   7.353
10608POPC   C1B70783  32.878   9.898   6.453
10608POPC   C2B70784  32.838   9.891   6.753
10608POPC   C3B70785  32.810   9.896   7.053
10608POPC   C4B70786  32.803   9.913   7.353
10609POPC   NC370787  41.606  13.609   5.553
10609POPC   PO470788  41.528  13.586   5.853
10609POPC   GL170789  41.605  13.622   6.153
10609POPC   GL270790  41.592  13.540   6.153
10609POPC   C1A70791  41.580  13.654   6.453
10609POPC   D2A70792  41.581  13.639   6.753
10609POPC   C3A70793  41.514  13.592   7.053
10609POPC   C4A70794  41.558  13.609   7.353
10609POPC   C1B70795  41.583  13.365   6.453
10609POPC   C2B70796  41.672  13.418   6.753
10609POPC   C3B70797  41.599  13.399   7.053
10609POPC   C4B70798  41.670  13.375   7.353
10610POPC   NC370799   1.971  38.498   5.553
10610POPC   PO470800   2.005  38.504   5.853
10610POPC   GL170801   2.039  38.493   6.153
10610POPC   GL270802   2.030  38.324   6.153
10610POPC   C1A70803   1.994  38.459   6.453
10610POPC   D2A70804   1.975  38.460   6.753
10610POPC   C3A70805   1.942  38.504   7.053
10610POPC   C4A70806   1.943  38.492   7.353
10610POPC   C1B70807   2.136  38.256   6.453
10610POPC   C2B70808   2.122  38.283   6.753
10610POPC   C3B70809   2.169  38.204   7.053
10610POPC   C4B70810   2.094  38.239   7.353
10611POPC   NC370811   8.157  13.665   5.553
10611POPC   PO470812   8.226  13.647   5.853
10611POPC   GL170813   8.168  13.636   6.153
10611POPC   GL270814   8.106  13.639   6.153
10611POPC   C1A70815   8.194  13.666   6.453
10611POPC   D2A70816   8.170  13.675   6.753
10611POPC   C3A70817   8.153  13.670   7.053
10611POPC   C4A70818   8.169  13.619   7.353
10611POPC   C1B70819   7.901  13.649   6.453
10611POPC   C2B70820   7.962  13.685   6.753
10611POPC   C3B70821   7.928  13.617   7.053
10611POPC   C4B70822   7.963  13.696   7.353
10612POPC   NC370823  15.973   8.224   5.553
10612POPC   PO470824  15.968   8.192   5.853
10612POPC   GL170825  15.937   8.160   6.153
10612POPC   GL270826  15.885   8.244   6.153
10612POPC   C1A70827  15.913   8.154   6.453
10612POPC   D2A70828  15.972   8.198   6.753
10612POPC   C3A70829  15.950   8.220   7.053
10612POPC   C4A70830  15.935   8.230   7.353
10612POPC   C1B70831  15.769   8.364   6.453
10612POPC   C2B70832  15.748   8.394   6.753
10612POPC   C3B70833  15.786   8.358   7.053
10612POPC   C4B70834  15.803   8.359   7.353
10613POPC   NC370835  36.090  40.825   5.553
10613POPC   PO470836  36.138  40.812   5.853
10613POPC   GL170837  36.160  40.742   6.153
10613POPC   GL270838  36.173  40.642   6.153
10613POPC   C1A70839  36.141  40.807   6.453
10613POPC   D2A70840  36.105  40.774   6.753
10613POPC   C3A70841  36.106  40.740   7.053
10613POPC   C4A70842  36.136  40.815   7.353
10613POPC   C1B70843  36.172  40.518   6.453
10613POPC   C2B70844  36.173  40.533   6.753
10613POPC   C3B70845  36.150  40.489   7.053
10613POPC   C4B70846  36.174  40.523   7.353
10614POPC   NC370847  20.584  42.285   5.553
10614POPC   PO470848  20.629  42.358   5.853
10614POPC   GL170849  20.613  42.368   6.153
10614POPC   GL270850  20.459  42.369   6.153
10614POPC   C1A70851  20.609  42.346   6.453
10614POPC   D2A70852  20.597  42.294   6.753
10614POPC   C3A70853  20.582  42.342   7.053
10614POPC   C4A70854  20.580  42.348   7.353
10614POPC   C1B70855  20.395  42.497   6.453
10614POPC   C2B70856  20.433  42.429   6.753
10614POPC   C3B70857  20.418  42.460   7.053
10614POPC   C4B70858  20.386  42.450   7.353
10615POPC   NC370859  44.684  27.634   5.553
10615POPC   PO470860  44.649  27.582   5.853
10615POPC   GL170861  44.705  27.604   6.153
10615POPC   GL270862  44.610  27.496   6.153
10615POPC   C1A70863  44.643  27.543   6.453
10615POPC   D2A70864  44.640  27.564   6.753
10615POPC   C3A70865  44.666  27.639   7.053
10615POPC   C4A70866  44.661  27.634   7.353
10615POPC   C1B70867  44.565  27.348   6.453
10615POPC   C2B70868  44.613  27.408   6.753
10615POPC   C3B70869  44.572  27.346   7.053
10615POPC   C4B70870  44.590  27.337   7.353
10616POPC   NC370871  39.987  37.712   5.553
10616POPC   PO470872  40.029  37.706   5.853
10616POPC   GL170873  40.037  37.723   6.153
10616POPC   GL270874  40.160  37.654   6.153
10616POPC   C1A70875  40.032  37.650   6.453
10616POPC   D2A70876  40.003  37.673   6.753
10616POPC   C3A70877  40.048  37.711   7.053
10616POPC   C4A70878  39.974  37.669   7.353
10616POPC   C1B70879  40.224  37.506   6.453
10616POPC   C2B70880  40.223  37.549   6.753
10616POPC   C3B70881  40.215  37.525   7.053
10616POPC   C4B70882  40.166  37.588   7.353
10617POPC   NC370883  14.378  24.521   5.553
10617POPC   PO470884  14.370  24.470   5.853
10617POPC   GL170885  14.425  24.452   6.153
10617POPC   GL270886  14.308  24.456   6.153
10617POPC   C1A70887  14.382  24.478   6.453
10617POPC   D2A70888  14.395  24.442   6.753
10617POPC   C3A70889  14.409  24.502   7.053
10617POPC   C4A70890  14.359  24.448   7.353
10617POPC   C1B70891  14.128  24.404   6.453
10617POPC   C2B70892  14.209  24.421   6.753
10617POPC   C3B70893  14.157  24.371   7.053
10617POPC   C4B70894  14.132  24.404   7.353
10618POPC   NC370895   0.420   1.243   5.553
10618POPC   PO470896   0.413   1.213   5.853
10618POPC   GL170897   0.421   1.194   6.153
10618POPC   GL270898   0.576   1.257   6.153
10618POPC   C1A70899   0.427   1.169   6.453
10618POPC   D2A70900   0.433   1.213   6.753
10618POPC   C3A70901   0.404   1.209   7.053
10618POPC   C4A70902   0.456   1.206   7.353
10618POPC   C1B70903   0.632   1.417   6.453
10618POPC   C2B70904   0.646   1.348   6.753
10618POPC   C3B70905   0.657   1.410   7.053
10618POPC   C4B70906   0.618   1.326   7.353
10619POPC   NC370907  16.718  43.920   5.553
10619POPC   PO470908  16.745  43.902   5.853
10619POPC   GL170909  16.774  43.854   6.153
10619POPC   GL270910  16.570  43.871   6.153
10619POPC   C1A70911  16.743  43.901   6.453
10619POPC   D2A70912  16.759  43.860   6.753
10619POPC   C3A70913  16.779  43.867   7.053
10619POPC   C4A70914  16.732  43.913   7.353
10619POPC   C1B70915  16.474  43.787   6.453
10619POPC   C2B70916  16.517  43.796   6.753
10619POPC   C3B70917  16.540  43.801   7.053
10619POPC   C4B70918  16.522  43.753   7.353
10620POPC   NC370919  20.627  39.276   5.553
10620POPC   PO470920  20.629  39.204   5.853
10620POPC   GL170921  20.566  39.252   6.153
10620POPC   GL270922  20.741  39.146   6.153
10620POPC   C1A70923  20.658  39.182   6.453
10620POPC   D2A70924  20.585  39.201   6.753
10620POPC   C3A70925  20.589  39.185   7.053
10620POPC   C4A70926  20.575  39.214   7.353
10620POPC   C1B70927  20.773  39.076   6.453
10620POPC   C2B70928  20.848  39.107   6.753
10620POPC   C3B70929  20.836  39.071   7.053
10620POPC   C4B70930  20.810  39.030   7.353
10621POPC   NC370931   5.058  26.867   5.553
10621POPC   PO470932   5.125  26.832   5.853
10621POPC   GL170933   5.072  26.845   6.153
10621POPC   GL270934   4.968  26.900   6.153
10621POPC   C1A70935   5.056  26.828   6.453
10621POPC   D2A70936   5.096  26.800   6.753
10621POPC   C3A70937   5.099  26.829   7.053
10621POPC   C4A70938   5.070  26.818   7.353
10621POPC   C1B70939   4.877  26.870   6.453
10621POPC   C2B70940   4.871  26.960   6.753
10621POPC   C3B70941   4.842  26.952   7.053
10621POPC   C4B70942   4.840  26.909   7.353
10622POPC   NC370943  18.280   9.705   5.553
10622POPC   PO470944  18.287   9.790   5.853
10622POPC   GL170945  18.302   9.785   6.153
10622POPC   GL270946  18.207   9.841   6.153
10622POPC   C1A70947  18.310   9.765   6.453
10622POPC   D2A70948  18.295   9.752   6.753
10622POPC   C3A70949  18.329   9.744   7.053
10622POPC   C4A70950  18.301   9.780   7.353
10622POPC   C1B70951  18.101   9.960   6.453
10622POPC   C2B70952  18.098   9.891   6.753
10622POPC   C3B70953  18.132   9.907   7.053
10622POPC   C4B70954  18.111   9.927   7.353
10623POPC   NC370955  43.867  22.193   5.553
10623POPC   PO470956  43.923  22.180   5.853
10623POPC   GL170957  43.876  22.143   6.153
10623POPC   GL270958  43.834  22.211   6.153
10623POPC   C1A70959  43.859  22.119   6.453
10623POPC   D2A70960  43.898  22.188   6.753
10623POPC   C3A70961  43.878  22.154   7.053
10623POPC   C4A70962  43.867  22.132   7.353
10623POPC   C1B70963  43.775  22.382   6.453
10623POPC   C2B70964  43.711  22.321   6.753
10623POPC   C3B70965  43.700  22.387   7.053
10623POPC   C4B70966  43.733  22.325   7.353
10624POPC   NC370967  23.760  40.002   5.553
10624POPC   PO470968  23.732  39.975   5.853
10624POPC   GL170969  23.711  40.023   6.153
10624POPC   GL270970  23.582  40.088   6.153
10624POPC   C1A70971  23.729  40.008   6.453
10624POPC   D2A70972  23.756  40.033   6.753
10624POPC   C3A70973  23.684  40.027   7.053
10624POPC   C4A70974  23.752  40.018   7.353
10624POPC   C1B70975  23.502  40.128   6.453
10624POPC   C2B70976  23.469  40.119   6.753
10624POPC   C3B70977  23.530  40.167   7.053
10624POPC   C4B70978  23.492  40.137   7.353
10625POPC   NC370979  43.093  15.952   5.553
10625POPC   PO470980  43.155  15.994   5.853
10625POPC   GL170981  43.099  15.931   6.153
10625POPC   GL270982  43.093  16.049   6.153
10625POPC   C1A70983  43.124  15.983   6.453
10625POPC   D2A70984  43.115  15.930   6.753
10625POPC   C3A70985  43.089  15.994   7.053
10625POPC   C4A70986  43.141  15.930   7.353
10625POPC   C1B70987  43.134  16.170   6.453
10625POPC   C2B70988  43.171  16.207   6.753
10625POPC   C3B70989  43.127  16.222   7.053
10625POPC   C4B70990  43.099  16.250   7.353
10626POPC   NC370991  33.053  11.285   5.553
10626POPC   PO470992  33.047  11.268   5.853
10626POPC   GL170993  33.032  11.295   6.153
10626POPC   GL270994  33.114  11.363   6.153
10626POPC   C1A70995  32.979  11.287   6.453
10626POPC   D2A70996  33.063  11.327   6.753
10626POPC   C3A70997  33.021  11.296   7.053
10626POPC   C4A70998  33.074  11.310   7.353
10626POPC   C1B70999  33.112  11.526   6.453
10626POPC   C2B71000  33.162  11.558   6.753
10626POPC   C3B71001  33.145  11.524   7.053
10626POPC   C4B71002  33.122  11.565   7.353
10627POPC   NC371003  25.237  20.584   5.553
10627POPC   PO471004  25.219  20.606   5.853
10627POPC   GL171005  25.277  20.592   6.153
10627POPC   GL271006  25.187  20.686   6.153
10627POPC   C1A71007  25.287  20.647   6.453
10627POPC   D2A71008  25.250  20.605   6.753
10627POPC   C3A71009  25.227  20.562   7.053
10627POPC   C4A71010  25.292  20.620   7.353
10627POPC   C1B71011  25.205  20.820   6.453
10627POPC   C2B71012  25.228  20.862   6.753
10627POPC   C3B71013  25.140  20.868   7.053
10627POPC   C4B71014  25.177  20.856   7.353
10628POPC   NC371015   5.095  16.755   5.553
10628POPC   PO471016   5.083  16.697   5.853
10628POPC   GL171017   5.074  16.746   6.153
10628POPC   GL271018   5.050  16.645   6.153
10628POPC   C1A71019   5.143  16.725   6.453
10628POPC   D2A71020   5.110  16.740   6.753
10628POPC   C3A71021   5.051  16.699   7.053
10628POPC   C4A71022   5.109  16.767   7.353
10628POPC   C1B71023   5.027  16.510   6.453
10628POPC   C2B71024   5.109  16.504   6.753
10628POPC   C3B71025   5.110  16.467   7.053
10628POPC   C4B71026   5.028  16.446   7.353
10629POPC   NC371027   1.248  25.999   5.553
10629POPC   PO471028   1.231  26.052   5.853
10629POPC   GL171029   1.172  26.017   6.153
10629POPC   GL271030   1.075  26.079   6.153
10629POPC   C1A71031   1.257  26.009   6.453
10629POPC   D2A71032   1.225  26.051   6.753
10629POPC   C3A71033   1.233  26.055   7.053
10629POPC   C4A71034   1.208  26.075   7.353
10629POPC   C1B71035   0.947  26.044   6.453
10629POPC   C2B71036   0.921  26.037   6.753
10629POPC   C3B71037   0.983  26.035   7.053
10629POPC   C4B71038   0.934  26.039   7.353
10630POPC   NC371039  36.864  20.637   5.553
10630POPC   PO471040  36.951  20.573   5.853
10630POPC   GL171041  36.894  20.621   6.153
10630POPC   GL271042  36.962  20.503   6.153
10630POPC   C1A71043  36.896  20.649   6.453
10630POPC   D2A71044  36.899  20.637   6.753
10630POPC   C3A71045  36.888  20.653   7.053
10630POPC   C4A71046  36.946  20.606   7.353
10630POPC   C1B71047  36.968  20.358   6.453
10630POPC   C2B71048  36.910  20.373   6.753
10630POPC   C3B71049  36.966  20.336   7.053
10630POPC   C4B71050  36.890  20.341   7.353
10631POPC   NC371051   0.394   6.656   5.553
10631POPC   PO471052   0.441   6.648   5.853
10631POPC   GL171053   0.388   6.632   6.153
10631POPC   GL271054   0.575   6.750   6.153
10631POPC   C1A71055   0.452   6.618   6.453
10631POPC   D2A71056   0.393   6.611   6.753
10631POPC   C3A71057   0.484   6.650   7.053
10631POPC   C4A71058   0.404   6.693   7.353
10631POPC   C1B71059   0.627   6.756   6.453
10631POPC   C2B71060   0.599   6.753   6.753
10631POPC   C3B71061   0.633   6.796   7.053
10631POPC   C4B71062   0.672   6.808   7.353
10632POPC   NC371063   5.083  19.826   5.553
10632POPC   PO471064   5.073  19.796   5.853
10632POPC   GL171065   5.132  19.875   6.153
10632POPC   GL271066   4.999  19.874   6.153
10632POPC   C1A71067   5.142  19.827   6.453
10632POPC   D2A71068   5.131  19.810   6.753
10632POPC   C3A71069   5.129  19.867   7.053
10632POPC   C4A71070   5.082  19.860   7.353
10632POPC   C1B71071   4.840  19.862   6.453
10632POPC   C2B71072   4.890  19.809   6.753
10632POPC   C3B71073   4.845  19.797   7.053
10632POPC   C4B71074   4.801  19.829   7.353
10633POPC   NC371075  33.847   4.366   5.553
10633POPC   PO471076  33.830   4.359   5.853
10633POPC   GL171077  33.760   4.285   6.153
10633POPC   GL271078  33.808   4.147   6.153
10633POPC   C1A71079  33.818   4.299   6.453
10633POPC   D2A71080  33.797   4.316   6.753
10633POPC   C3A71081  33.825   4.271   7.053
10633POPC   C4A71082  33.754   4.314   7.353
10633POPC   C1B71083  33.747   4.079   6.453
10633POPC   C2B71084  33.780   4.053   6.753
10633POPC   C3B71085  33.781   4.083   7.053
10633POPC   C4B71086  33.745   4.110   7.353
10634POPC   NC371087  16.695   7.373   5.553
10634POPC   PO471088  16.777   7.430   5.853
10634POPC   GL171089  16.702   7.434   6.153
10634POPC   GL271090  16.798   7.495   6.153
10634POPC   C1A71091  16.704   7.408   6.453
10634POPC   D2A71092  16.722   7.397   6.753
10634POPC   C3A71093  16.735   7.460   7.053
10634POPC   C4A71094  16.696   7.463   7.353
10634POPC   C1B71095  16.788   7.701   6.453
10634POPC   C2B71096  16.821   7.610   6.753
10634POPC   C3B71097  16.842   7.624   7.053
10634POPC   C4B71098  16.809   7.697   7.353
10635POPC   NC371099  33.813  32.263   5.553
10635POPC   PO471100  33.759  32.252   5.853
10635POPC   GL171101  33.782  32.226   6.153
10635POPC   GL271102  33.740  32.122   6.153
10635POPC   C1A71103  33.795  32.267   6.453
10635POPC   D2A71104  33.795  32.285   6.753
10635POPC   C3A71105  33.836  32.270   7.053
10635POPC   C4A71106  33.801  32.226   7.353
10635POPC   C1B71107  33.660  32.006   6.453
10635POPC   C2B71108  33.624  32.057   6.753
10635POPC   C3B71109  33.677  32.065   7.053
10635POPC   C4B71110  33.717  32.071   7.353
10636POPC   NC371111  28.368   7.389   5.553
10636POPC   PO471112  28.385   7.448   5.853
10636POPC   GL171113  28.347   7.375   6.153
10636POPC   GL271114  28.265   7.348   6.153
10636POPC   C1A71115  28.384   7.393   6.453
10636POPC   D2A71116  28.375   7.464   6.753
10636POPC   C3A71117  28.326   7.404   7.053
10636POPC   C4A71118  28.358   7.395   7.353
10636POPC   C1B71119  28.232   7.279   6.453
10636POPC   C2B71120  28.192   7.229   6.753
10636POPC   C3B71121  28.145   7.237   7.053
10636POPC   C4B71122  28.177   7.258   7.353
10637POPC   NC371123   5.834  29.948   5.553
10637POPC   PO471124   5.914  29.907   5.853
10637POPC   GL171125   5.829  29.924   6.153
10637POPC   GL271126   5.777  29.947   6.153
10637POPC   C1A71127   5.852  29.934   6.453
10637POPC   D2A71128   5.901  29.873   6.753
10637POPC   C3A71129   5.911  29.957   7.053
10637POPC   C4A71130   5.835  29.904   7.353
10637POPC   C1B71131   5.699  30.023   6.453
10637POPC   C2B71132   5.641  30.016   6.753
10637POPC   C3B71133   5.624  30.069   7.053
10637POPC   C4B71134   5.699  30.014   7.353
10638POPC   NC371135  28.342  29.147   5.553
10638POPC   PO471136  28.384  29.127   5.853
10638POPC   GL171137  28.404  29.104   6.153
10638POPC   GL271138  28.386  29.052   6.153
10638POPC   C1A71139  28.333  29.160   6.453
10638POPC   D2A71140  28.412  29.147   6.753
10638POPC   C3A71141  28.327  29.163   7.053
10638POPC   C4A71142  28.376  29.120   7.353
10638POPC   C1B71143  28.404  28.929   6.453
10638POPC   C2B71144  28.489  28.938   6.753
10638POPC   C3B71145  28.445  28.884   7.053
10638POPC   C4B71146  28.431  28.892   7.353
10639POPC   NC371147  37.719   1.225   5.553
10639POPC   PO471148  37.680   1.220   5.853
10639POPC   GL171149  37.636   1.229   6.153
10639POPC   GL271150  37.826   1.285   6.153
10639POPC   C1A71151  37.695   1.211   6.453
10639POPC   D2A71152  37.651   1.184   6.753
10639POPC   C3A71153  37.639   1.185   7.053
10639POPC   C4A71154  37.665   1.245   7.353
10639POPC   C1B71155  37.902   1.291   6.453
10639POPC   C2B71156  37.943   1.341   6.753
10639POPC   C3B71157  37.936   1.282   7.053
10639POPC   C4B71158  37.937   1.288   7.353
10640POPC   NC371159  12.070   8.233   5.553
10640POPC   PO471160  12.124   8.216   5.853
10640POPC   GL171161  12.052   8.204   6.153
10640POPC   GL271162  11.928   8.205   6.153
10640POPC   C1A71163  12.075   8.177   6.453
10640POPC   D2A71164  12.072   8.163   6.753
10640POPC   C3A71165  12.106   8.242   7.053
10640POPC   C4A71166  12.027   8.234   7.353
10640POPC   C1B71167  11.809   8.126   6.453
10640POPC   C2B71168  11.798   8.116   6.753
10640POPC   C3B71169  11.810   8.120   7.053
10640POPC   C4B71170  11.783   8.109   7.353
10641POPC   NC371171  37.707  17.513   5.553
10641POPC   PO471172  37.645  17.486   5.853
10641POPC   GL171173  37.712  17.465   6.153
10641POPC   GL271174  37.586  17.464   6.153
10641POPC   C1A71175  37.712  17.481   6.453
10641POPC   D2A71176  37.719  17.467   6.753
10641POPC   C3A71177  37.711  17.515   7.053
10641POPC   C4A71178  37.667  17.547   7.353
10641POPC   C1B71179  37.462  17.345   6.453
10641POPC   C2B71180  37.463  17.431   6.753
10641POPC   C3B71181  37.443  17.366   7.053
10641POPC   C4B71182  37.501  17.411   7.353
10642POPC   NC371183  38.426  10.501   5.553
10642POPC   PO471184  38.459  10.527   5.853
10642POPC   GL171185  38.481  10.520   6.153
10642POPC   GL271186  38.530  10.433   6.153
10642POPC   C1A71187  38.479  10.572   6.453
10642POPC   D2A71188  38.456  10.483   6.753
10642POPC   C3A71189  38.447  10.552   7.053
10642POPC   C4A71190  38.438  10.480   7.353
10642POPC   C1B71191  38.559  10.282   6.453
10642POPC   C2B71192  38.558  10.257   6.753
10642POPC   C3B71193  38.534  10.264   7.053
10642POPC   C4B71194  38.613  10.328   7.353
10643POPC   NC371195  26.017  13.625   5.553
10643POPC   PO471196  26.001  13.643   5.853
10643POPC   GL171197  26.051  13.617   6.153
10643POPC   GL271198  26.122  13.704   6.153
10643POPC   C1A71199  26.049  13.635   6.453
10643POPC   D2A71200  26.055  13.604   6.753
10643POPC   C3A71201  26.058  13.603   7.053
10643POPC   C4A71202  26.073  13.626   7.353
10643POPC   C1B71203  26.243  13.779   6.453
10643POPC   C2B71204  26.231  13.772   6.753
10643POPC   C3B71205  26.211  13.757   7.053
10643POPC   C4B71206  26.174  13.806   7.353
10644POPC   NC371207  29.887  18.310   5.553
10644POPC   PO471208  29.951  18.291   5.853
10644POPC   GL171209  29.888  18.294   6.153
10644POPC   GL271210  29.836  18.239   6.153
10644POPC   C1A71211  29.945  18.240   6.453
10644POPC   D2A71212  29.932  18.246   6.753
10644POPC   C3A71213  29.892  18.288   7.053
10644POPC   C4A71214  29.895  18.234   7.353
10644POPC   C1B71215  29.712  18.201   6.453
10644POPC   C2B71216  29.631  18.182   6.753
10644POPC   C3B71217  29.677  18.274   7.053
10644POPC   C4B71218  29.716  18.237   7.353
10645POPC   NC371219  21.399  29.167   5.553
10645POPC   PO471220  21.365  29.140   5.853
10645POPC   GL171221  21.424  29.108   6.153
10645POPC   GL271222  21.503  29.192   6.153
10645POPC   C1A71223  21.388  29.103   6.453
10645POPC   D2A71224  21.351  29.164   6.753
10645POPC   C3A71225  21.413  29.134   7.053
10645POPC   C4A71226  21.354  29.188   7.353
10645POPC   C1B71227  21.620  29.340   6.453
10645POPC   C2B71228  21.535  29.341   6.753
10645POPC   C3B71229  21.546  29.348   7.053
10645POPC   C4B71230  21.628  29.252   7.353
10646POPC   NC371231   4.272   8.955   5.553
10646POPC   PO471232   4.292   8.970   5.853
10646POPC   GL171233   4.314   9.015   6.153
10646POPC   GL271234   4.362   8.828   6.153
10646POPC   C1A71235   4.311   8.976   6.453
10646POPC   D2A71236   4.345   8.977   6.753
10646POPC   C3A71237   4.287   8.985   7.053
10646POPC   C4A71238   4.324   9.016   7.353
10646POPC   C1B71239   4.370   8.746   6.453
10646POPC   C2B71240   4.365   8.701   6.753
10646POPC   C3B71241   4.314   8.727   7.053
10646POPC   C4B71242   4.398   8.753   7.353
10647POPC   NC371243  15.954   5.139   5.553
10647POPC   PO471244  15.978   5.088   5.853
10647POPC   GL171245  15.986   5.120   6.153
10647POPC   GL271246  15.990   4.940   6.153
10647POPC   C1A71247  15.999   5.052   6.453
10647POPC   D2A71248  15.962   5.080   6.753
10647POPC   C3A71249  15.990   5.121   7.053
10647POPC   C4A71250  15.968   5.129   7.353
10647POPC   C1B71251  16.022   4.807   6.453
10647POPC   C2B71252  15.954   4.858   6.753
10647POPC   C3B71253  15.993   4.869   7.053
10647POPC   C4B71254  15.987   4.876   7.353
10648POPC   NC371255   5.122  37.724   5.553
10648POPC   PO471256   5.066  37.669   5.853
10648POPC   GL171257   5.050  37.679   6.153
10648POPC   GL271258   5.016  37.573   6.153
10648POPC   C1A71259   5.068  37.693   6.453
10648POPC   D2A71260   5.065  37.686   6.753
10648POPC   C3A71261   5.061  37.657   7.053
10648POPC   C4A71262   5.070  37.676   7.353
10648POPC   C1B71263   4.895  37.561   6.453
10648POPC   C2B71264   4.924  37.482   6.753
10648POPC   C3B71265   4.901  37.538   7.053
10648POPC   C4B71266   4.902  37.573   7.353
10649POPC   NC371267  26.783  28.347   5.553
10649POPC   PO471268  26.848  28.409   5.853
10649POPC   GL171269  26.780  28.350   6.153
10649POPC   GL271270  26.880  28.434   6.153
10649POPC   C1A71271  26.859  28.391   6.453
10649POPC   D2A71272  26.802  28.409   6.753
10649POPC   C3A71273  26.834  28.400   7.053
10649POPC   C4A71274  26.781  28.351   7.353
10649POPC   C1B71275  26.949  28.590   6.453
10649POPC   C2B71276  26.972  28.523   6.753
10649POPC   C3B71277  26.963  28.591   7.053
10649POPC   C4B71278  26.980  28.536   7.353
10650POPC   NC371279  27.561  22.203   5.553
10650POPC   PO471280  27.597  22.162   5.853
10650POPC   GL171281  27.566  22.199   6.153
10650POPC   GL271282  27.589  22.298   6.153
10650POPC   C1A71283  27.623  22.162   6.453
10650POPC   D2A71284  27.572  22.122   6.753
10650POPC   C3A71285  27.609  22.124   7.053
10650POPC   C4A71286  27.567  22.156   7.353
10650POPC   C1B71287  27.567  22.367   6.453
10650POPC   C2B71288  27.619  22.406   6.753
10650POPC   C3B71289  27.560  22.437   7.053
10650POPC   C4B71290  27.579  22.427   7.353
10651POPC   NC371291   9.706   4.326   5.553
10651POPC   PO471292   9.709   4.315   5.853
10651POPC   GL171293   9.763   4.278   6.153
10651POPC   GL271294   9.862   4.275   6.153
10651POPC   C1A71295   9.787   4.337   6.453
10651POPC   D2A71296   9.753   4.353   6.753
10651POPC   C3A71297   9.785   4.335   7.053
10651POPC   C4A71298   9.731   4.286   7.353
10651POPC   C1B71299  10.024   4.285   6.453
10651POPC   C2B71300  10.047   4.282   6.753
10651POPC   C3B71301   9.953   4.298   7.053
10651POPC   C4B71302   9.972   4.284   7.353
10652POPC   NC371303  23.686  14.447   5.553
10652POPC   PO471304  23.685  14.390   5.853
10652POPC   GL171305  23.702  14.437   6.153
10652POPC   GL271306  23.863  14.387   6.153
10652POPC   C1A71307  23.680  14.416   6.453
10652POPC   D2A71308  23.748  14.449   6.753
10652POPC   C3A71309  23.699  14.437   7.053
10652POPC   C4A71310  23.749  14.368   7.353
10652POPC   C1B71311  23.955  14.299   6.453
10652POPC   C2B71312  23.929  14.308   6.753
10652POPC   C3B71313  23.907  14.300   7.053
10652POPC   C4B71314  23.984  14.330   7.353
10653POPC   NC371315  10.487  33.015   5.553
10653POPC   PO471316  10.537  33.028   5.853
10653POPC   GL171317  10.536  33.067   6.153
10653POPC   GL271318  10.422  33.025   6.153
10653POPC   C1A71319  10.557  33.061   6.453
10653POPC   D2A71320  10.540  33.043   6.753
10653POPC   C3A71321  10.504  32.993   7.053
10653POPC   C4A71322  10.518  33.008   7.353
10653POPC   C1B71323  10.335  33.070   6.453
10653POPC   C2B71324  10.310  33.154   6.753
10653POPC   C3B71325  10.305  33.136   7.053
10653POPC   C4B71326  10.247  33.153   7.353
10654POPC   NC371327  26.035   5.087   5.553
10654POPC   PO471328  26.015   5.085   5.853
10654POPC   GL171329  26.050   5.127   6.153
10654POPC   GL271330  26.185   5.100   6.153
10654POPC   C1A71331  26.056   5.102   6.453
10654POPC   D2A71332  26.073   5.067   6.753
10654POPC   C3A71333  26.044   5.080   7.053
10654POPC   C4A71334  26.008   5.044   7.353
10654POPC   C1B71335  26.249   5.130   6.453
10654POPC   C2B71336  26.273   5.100   6.753
10654POPC   C3B71337  26.295   5.114   7.053
10654POPC   C4B71338  26.305   5.072   7.353
10655POPC   NC371339  26.812   2.761   5.553
10655POPC   PO471340  26.827   2.814   5.853
10655POPC   GL171341  26.816   2.777   6.153
10655POPC   GL271342  26.913   2.761   6.153
10655POPC   C1A71343  26.828   2.739   6.453
10655POPC   D2A71344  26.793   2.805   6.753
10655POPC   C3A71345  26.831   2.746   7.053
10655POPC   C4A71346  26.835   2.721   7.353
10655POPC   C1B71347  27.070   2.868   6.453
10655POPC   C2B71348  27.014   2.837   6.753
10655POPC   C3B71349  27.091   2.812   7.053
10655POPC   C4B71350  27.035   2.861   7.353
10656POPC   NC371351  26.806  43.931   5.553
10656POPC   PO471352  26.837  43.904   5.853
10656POPC   GL171353  26.853  43.859   6.153
10656POPC   GL271354  26.718  44.041   6.153
10656POPC   C1A71355  26.830  43.837   6.453
10656POPC   D2A71356  26.819  43.869   6.753
10656POPC   C3A71357  26.787  43.859   7.053
10656POPC   C4A71358  26.846  43.884   7.353
10656POPC   C1B71359  26.714  44.108   6.453
10656POPC   C2B71360  26.663  44.127   6.753
10656POPC   C3B71361  26.733  44.126   7.053
10656POPC   C4B71362  26.752  44.134   7.353
10657POPC   NC371363  44.663   6.682   5.553
10657POPC   PO471364  44.666   6.651   5.853
10657POPC   GL171365  44.653   6.644   6.153
10657POPC   GL271366  44.584   6.653   6.153
10657POPC   C1A71367  44.653   6.621   6.453
10657POPC   D2A71368  44.639   6.664   6.753
10657POPC   C3A71369  44.632   6.660   7.053
10657POPC   C4A71370  44.630   6.690   7.353
10657POPC   C1B71371  44.416   6.581   6.453
10657POPC   C2B71372  44.450   6.613   6.753
10657POPC   C3B71373  44.389   6.614   7.053
10657POPC   C4B71374  44.399   6.533   7.353
10658POPC   NC371375  38.500  18.325   5.553
10658POPC   PO471376  38.452  18.252   5.853
10658POPC   GL171377  38.467  18.328   6.153
10658POPC   GL271378  38.583  18.311   6.153
10658POPC   C1A71379  38.475  18.328   6.453
10658POPC   D2A71380  38.452  18.324   6.753
10658POPC   C3A71381  38.414  18.295   7.053
10658POPC   C4A71382  38.420  18.240   7.353
10658POPC   C1B71383  38.699  18.408   6.453
10658POPC   C2B71384  38.722  18.383   6.753
10658POPC   C3B71385  38.715  18.440   7.053
10658POPC   C4B71386  38.665  18.361   7.353
10659POPC   NC371387  26.830   4.294   5.553
10659POPC   PO471388  26.825   4.342   5.853
10659POPC   GL171389  26.837   4.325   6.153
10659POPC   GL271390  26.759   4.287   6.153
10659POPC   C1A71391  26.844   4.336   6.453
10659POPC   D2A71392  26.777   4.269   6.753
10659POPC   C3A71393  26.837   4.323   7.053
10659POPC   C4A71394  26.803   4.342   7.353
10659POPC   C1B71395  26.620   4.163   6.453
10659POPC   C2B71396  26.630   4.139   6.753
10659POPC   C3B71397  26.559   4.222   7.053
10659POPC   C4B71398  26.645   4.161   7.353
10660POPC   NC371399  40.816  40.791   5.553
10660POPC   PO471400  40.813  40.752   5.853
10660POPC   GL171401  40.826  40.748   6.153
10660POPC   GL271402  40.815  40.686   6.153
10660POPC   C1A71403  40.799  40.773   6.453
10660POPC   D2A71404  40.830  40.803   6.753
10660POPC   C3A71405  40.804  40.768   7.053
10660POPC   C4A71406  40.781  40.801   7.353
10660POPC   C1B71407  40.900  40.571   6.453
10660POPC   C2B71408  40.882  40.592   6.753
10660POPC   C3B71409  40.830  40.587   7.053
10660POPC   C4B71410  40.896  40.588   7.353
10661POPC   NC371411  27.620   2.782   5.553
10661POPC   PO471412  27.579   2.755   5.853
10661POPC   GL171413  27.581   2.815   6.153
10661POPC   GL271414  27.587   2.692   6.153
10661POPC   C1A71415  27.578   2.776   6.453
10661POPC   D2A71416  27.606   2.804   6.753
10661POPC   C3A71417  27.569   2.784   7.053
10661POPC   C4A71418  27.597   2.809   7.353
10661POPC   C1B71419  27.532   2.508   6.453
10661POPC   C2B71420  27.583   2.557   6.753
10661POPC   C3B71421  27.538   2.549   7.053
10661POPC   C4B71422  27.523   2.481   7.353
10662POPC   NC371423  20.599  36.930   5.553
10662POPC   PO471424  20.631  36.863   5.853
10662POPC   GL171425  20.598  36.904   6.153
10662POPC   GL271426  20.731  36.763   6.153
10662POPC   C1A71427  20.581  36.856   6.453
10662POPC   D2A71428  20.652  36.949   6.753
10662POPC   C3A71429  20.575  36.904   7.053
10662POPC   C4A71430  20.627  36.886   7.353
10662POPC   C1B71431  20.756  36.654   6.453
10662POPC   C2B71432  20.736  36.742   6.753
10662POPC   C3B71433  20.740  36.726   7.053
10662POPC   C4B71434  20.783  36.695   7.353
10663POPC   NC371435  33.798  13.583   5.553
10663POPC   PO471436  33.799  13.649   5.853
10663POPC   GL171437  33.753  13.662   6.153
10663POPC   GL271438  33.871  13.681   6.153
10663POPC   C1A71439  33.769  13.649   6.453
10663POPC   D2A71440  33.826  13.620   6.753
10663POPC   C3A71441  33.827  13.635   7.053
10663POPC   C4A71442  33.800  13.588   7.353
10663POPC   C1B71443  34.004  13.791   6.453
10663POPC   C2B71444  33.987  13.755   6.753
10663POPC   C3B71445  33.953  13.800   7.053
10663POPC   C4B71446  33.991  13.753   7.353
10664POPC   NC371447   8.993  40.754   5.553
10664POPC   PO471448   9.016  40.792   5.853
10664POPC   GL171449   8.982  40.783   6.153
10664POPC   GL271450   8.858  40.765   6.153
10664POPC   C1A71451   8.934  40.796   6.453
10664POPC   D2A71452   8.941  40.795   6.753
10664POPC   C3A71453   8.982  40.811   7.053
10664POPC   C4A71454   9.001  40.748   7.353
10664POPC   C1B71455   8.756  40.831   6.453
10664POPC   C2B71456   8.734  40.797   6.753
10664POPC   C3B71457   8.727  40.871   7.053
10664POPC   C4B71458   8.730  40.835   7.353
10665POPC   NC371459  26.826  17.536   5.553
10665POPC   PO471460  26.846  17.551   5.853
10665POPC   GL171461  26.825  17.492   6.153
10665POPC   GL271462  26.703  17.486   6.153
10665POPC   C1A71463  26.785  17.549   6.453
10665POPC   D2A71464  26.865  17.530   6.753
10665POPC   C3A71465  26.863  17.483   7.053
10665POPC   C4A71466  26.780  17.474   7.353
10665POPC   C1B71467  26.546  17.594   6.453
10665POPC   C2B71468  26.548  17.529   6.753
10665POPC   C3B71469  26.533  17.543   7.053
10665POPC   C4B71470  26.581  17.549   7.353
10666POPC   NC371471   9.725  26.018   5.553
10666POPC   PO471472   9.759  26.030   5.853
10666POPC   GL171473   9.763  26.005   6.153
10666POPC   GL271474   9.837  26.184   6.153
10666POPC   C1A71475   9.753  26.075   6.453
10666POPC   D2A71476   9.776  25.998   6.753
10666POPC   C3A71477   9.711  26.068   7.053
10666POPC   C4A71478   9.752  26.059   7.353
10666POPC   C1B71479   9.898  26.270   6.453
10666POPC   C2B71480   9.844  26.288   6.753
10666POPC   C3B71481   9.891  26.254   7.053
10666POPC   C4B71482   9.898  26.230   7.353
10667POPC   NC371483  29.108   8.960   5.553
10667POPC   PO471484  29.157   8.972   5.853
10667POPC   GL171485  29.109   8.973   6.153
10667POPC   GL271486  29.263   8.876   6.153
10667POPC   C1A71487  29.134   8.950   6.453
10667POPC   D2A71488  29.136   8.994   6.753
10667POPC   C3A71489  29.169   9.005   7.053
10667POPC   C4A71490  29.137   8.949   7.353
10667POPC   C1B71491  29.321   8.829   6.453
10667POPC   C2B71492  29.303   8.819   6.753
10667POPC   C3B71493  29.330   8.830   7.053
10667POPC   C4B71494  29.376   8.798   7.353
10668POPC   NC371495  36.927  35.343   5.553
10668POPC   PO471496  36.913  35.366   5.853
10668POPC   GL171497  36.883  35.318   6.153
10668POPC   GL271498  36.912  35.498   6.153
10668POPC   C1A71499  36.922  35.375   6.453
10668POPC   D2A71500  36.924  35.378   6.753
10668POPC   C3A71501  36.878  35.391   7.053
10668POPC   C4A71502  36.888  35.352   7.353
10668POPC   C1B71503  36.880  35.567   6.453
10668POPC   C2B71504  36.798  35.609   6.753
10668POPC   C3B71505  36.852  35.567   7.053
10668POPC   C4B71506  36.846  35.595   7.353
10669POPC   NC371507  31.516  27.615   5.553
10669POPC   PO471508  31.516  27.609   5.853
10669POPC   GL171509  31.515  27.593   6.153
10669POPC   GL271510  31.488  27.716   6.153
10669POPC   C1A71511  31.444  27.555   6.453
10669POPC   D2A71512  31.487  27.613   6.753
10669POPC   C3A71513  31.499  27.546   7.053
10669POPC   C4A71514  31.520  27.579   7.353
10669POPC   C1B71515  31.376  27.878   6.453
10669POPC   C2B71516  31.415  27.877   6.753
10669POPC   C3B71517  31.448  27.784   7.053
10669POPC   C4B71518  31.420  27.823   7.353
10670POPC   NC371519  21.351  12.824   5.553
10670POPC   PO471520  21.384  12.881   5.853
10670POPC   GL171521  21.336  12.858   6.153
10670POPC   GL271522  21.320  12.884   6.153
10670POPC   C1A71523  21.365  12.886   6.453
10670POPC   D2A71524  21.347  12.875   6.753
10670POPC   C3A71525  21.341  12.825   7.053
10670POPC   C4A71526  21.372  12.838   7.353
10670POPC   C1B71527  21.166  12.936   6.453
10670POPC   C2B71528  21.188  12.963   6.753
10670POPC   C3B71529  21.124  12.918   7.053
10670POPC   C4B71530  21.132  12.991   7.353
10671POPC   NC371531  17.518   5.121   5.553
10671POPC   PO471532  17.556   5.098   5.853
10671POPC   GL171533  17.507   5.048   6.153
10671POPC   GL271534  17.516   4.937   6.153
10671POPC   C1A71535  17.487   5.081   6.453
10671POPC   D2A71536  17.474   5.135   6.753
10671POPC   C3A71537  17.483   5.096   7.053
10671POPC   C4A71538  17.504   5.138   7.353
10671POPC   C1B71539  17.466   4.854   6.453
10671POPC   C2B71540  17.381   4.820   6.753
10671POPC   C3B71541  17.431   4.823   7.053
10671POPC   C4B71542  17.460   4.821   7.353
10672POPC   NC371543  20.624  31.425   5.553
10672POPC   PO471544  20.632  31.522   5.853
10672POPC   GL171545  20.629  31.434   6.153
10672POPC   GL271546  20.526  31.319   6.153
10672POPC   C1A71547  20.618  31.514   6.453
10672POPC   D2A71548  20.608  31.464   6.753
10672POPC   C3A71549  20.581  31.522   7.053
10672POPC   C4A71550  20.584  31.477   7.353
10672POPC   C1B71551  20.441  31.295   6.453
10672POPC   C2B71552  20.506  31.295   6.753
10672POPC   C3B71553  20.456  31.254   7.053
10672POPC   C4B71554  20.506  31.299   7.353
10673POPC   NC371555  13.661  26.043   5.553
10673POPC   PO471556  13.661  26.021   5.853
10673POPC   GL171557  13.613  26.083   6.153
10673POPC   GL271558  13.633  26.162   6.153
10673POPC   C1A71559  13.584  26.081   6.453
10673POPC   D2A71560  13.630  26.074   6.753
10673POPC   C3A71561  13.591  26.017   7.053
10673POPC   C4A71562  13.593  26.037   7.353
10673POPC   C1B71563  13.611  26.245   6.453
10673POPC   C2B71564  13.662  26.319   6.753
10673POPC   C3B71565  13.636  26.337   7.053
10673POPC   C4B71566  13.697  26.248   7.353
10674POPC   NC371567  35.321  43.867   5.553
10674POPC   PO471568  35.348  43.903   5.853
10674POPC   GL171569  35.327  43.882   6.153
10674POPC   GL271570  35.307  43.765   6.153
10674POPC   C1A71571  35.342  43.928   6.453
10674POPC   D2A71572  35.345  43.916   6.753
10674POPC   C3A71573  35.377  43.873   7.053
10674POPC   C4A71574  35.398  43.858   7.353
10674POPC   C1B71575  35.303  43.630   6.453
10674POPC   C2B71576  35.247  43.615   6.753
10674POPC   C3B71577  35.295  43.610   7.053
10674POPC   C4B71578  35.274  43.604   7.353
10675POPC   NC371579  32.270   8.995   5.553
10675POPC   PO471580  32.231   8.982   5.853
10675POPC   GL171581  32.291   9.009   6.153
10675POPC   GL271582  32.230   9.129   6.153
10675POPC   C1A71583  32.225   9.011   6.453
10675POPC   D2A71584  32.264   8.967   6.753
10675POPC   C3A71585  32.252   8.929   7.053
10675POPC   C4A71586  32.274   8.986   7.353
10675POPC   C1B71587  32.175   9.164   6.453
10675POPC   C2B71588  32.115   9.145   6.753
10675POPC   C3B71589  32.085   9.224   7.053
10675POPC   C4B71590  32.127   9.197   7.353
10676POPC   NC371591  19.082  34.616   5.553
10676POPC   PO471592  19.052  34.619   5.853
10676POPC   GL171593  19.022  34.606   6.153
10676POPC   GL271594  18.963  34.724   6.153
10676POPC   C1A71595  19.010  34.600   6.453
10676POPC   D2A71596  19.022  34.529   6.753
10676POPC   C3A71597  19.069  34.536   7.053
10676POPC   C4A71598  19.013  34.588   7.353
10676POPC   C1B71599  18.914  34.805   6.453
10676POPC   C2B71600  18.894  34.773   6.753
10676POPC   C3B71601  18.962  34.747   7.053
10676POPC   C4B71602  18.872  34.783   7.353
10677POPC   NC371603  26.810   5.900   5.553
10677POPC   PO471604  26.845   5.881   5.853
10677POPC   GL171605  26.777   5.906   6.153
10677POPC   GL271606  26.830   5.753   6.153
10677POPC   C1A71607  26.833   5.849   6.453
10677POPC   D2A71608  26.838   5.881   6.753
10677POPC   C3A71609  26.775   5.823   7.053
10677POPC   C4A71610  26.825   5.848   7.353
10677POPC   C1B71611  26.836   5.587   6.453
10677POPC   C2B71612  26.860   5.608   6.753
10677POPC   C3B71613  26.793   5.621   7.053
10677POPC   C4B71614  26.860   5.578   7.353
10678POPC   NC371615  15.179  23.694   5.553
10678POPC   PO471616  15.203  23.749   5.853
10678POPC   GL171617  15.167  23.716   6.153
10678POPC   GL271618  15.068  23.713   6.153
10678POPC   C1A71619  15.170  23.738   6.453
10678POPC   D2A71620  15.218  23.749   6.753
10678POPC   C3A71621  15.177  23.686   7.053
10678POPC   C4A71622  15.145  23.697   7.353
10678POPC   C1B71623  14.943  23.672   6.453
10678POPC   C2B71624  14.925  23.637   6.753
10678POPC   C3B71625  14.954  23.662   7.053
10678POPC   C4B71626  14.975  23.716   7.353
10679POPC   NC371627   1.941   8.931   5.553
10679POPC   PO471628   1.972   8.951   5.853
10679POPC   GL171629   1.960   8.952   6.153
10679POPC   GL271630   2.072   8.858   6.153
10679POPC   C1A71631   1.977   8.938   6.453
10679POPC   D2A71632   2.036   8.942   6.753
10679POPC   C3A71633   2.032   8.929   7.053
10679POPC   C4A71634   1.989   9.021   7.353
10679POPC   C1B71635   2.038   8.735   6.453
10679POPC   C2B71636   2.109   8.728   6.753
10679POPC   C3B71637   2.049   8.752   7.053
10679POPC   C4B71638   2.029   8.687   7.353
10680POPC   NC371639  36.898  31.522   5.553
10680POPC   PO471640  36.949  31.503   5.853
10680POPC   GL171641  36.949  31.493   6.153
10680POPC   GL271642  36.912  31.637   6.153
10680POPC   C1A71643  36.868  31.429   6.453
10680POPC   D2A71644  36.930  31.425   6.753
10680POPC   C3A71645  36.929  31.512   7.053
10680POPC   C4A71646  36.867  31.467   7.353
10680POPC   C1B71647  36.894  31.757   6.453
10680POPC   C2B71648  36.859  31.688   6.753
10680POPC   C3B71649  36.903  31.676   7.053
10680POPC   C4B71650  36.872  31.721   7.353
10681POPC   NC371651   4.333  36.928   5.553
10681POPC   PO471652   4.297  36.881   5.853
10681POPC   GL171653   4.296  36.931   6.153
10681POPC   GL271654   4.170  36.841   6.153
10681POPC   C1A71655   4.336  36.864   6.453
10681POPC   D2A71656   4.345  36.913   6.753
10681POPC   C3A71657   4.278  36.907   7.053
10681POPC   C4A71658   4.267  36.945   7.353
10681POPC   C1B71659   4.077  36.836   6.453
10681POPC   C2B71660   4.075  36.872   6.753
10681POPC   C3B71661   4.037  36.868   7.053
10681POPC   C4B71662   4.091  36.858   7.353
10682POPC   NC371663  44.628  39.248   5.553
10682POPC   PO471664  44.616  39.224   5.853
10682POPC   GL171665  44.681  39.208   6.153
10682POPC   GL271666  44.577  39.290   6.153
10682POPC   C1A71667  44.628  39.193   6.453
10682POPC   D2A71668  44.682  39.218   6.753
10682POPC   C3A71669  44.614  39.221   7.053
10682POPC   C4A71670  44.638  39.223   7.353
10682POPC   C1B71671  44.460  39.411   6.453
10682POPC   C2B71672  44.446  39.349   6.753
10682POPC   C3B71673  44.511  39.368   7.053
10682POPC   C4B71674  44.435  39.363   7.353
10683POPC   NC371675  26.060  14.429   5.553
10683POPC   PO471676  26.072  14.390   5.853
10683POPC   GL171677  26.012  14.356   6.153
10683POPC   GL271678  26.120  14.489   6.153
10683POPC   C1A71679  26.086  14.416   6.453
10683POPC   D2A71680  26.051  14.393   6.753
10683POPC   C3A71681  26.056  14.427   7.053
10683POPC   C4A71682  26.037  14.365   7.353
10683POPC   C1B71683  26.177  14.652   6.453
10683POPC   C2B71684  26.153  14.666   6.753
10683POPC   C3B71685  26.152  14.593   7.053
10683POPC   C4B71686  26.181  14.666   7.353
10684POPC   NC371687  25.229  36.942   5.553
10684POPC   PO471688  25.233  36.859   5.853
10684POPC   GL171689  25.247  36.861   6.153
10684POPC   GL271690  25.165  36.880   6.153
10684POPC   C1A71691  25.297  36.941   6.453
10684POPC   D2A71692  25.236  36.890   6.753
10684POPC   C3A71693  25.239  36.874   7.053
10684POPC   C4A71694  25.217  36.929   7.353
10684POPC   C1B71695  25.086  36.731   6.453
10684POPC   C2B71696  25.084  36.743   6.753
10684POPC   C3B71697  25.058  36.716   7.053
10684POPC   C4B71698  25.031  36.803   7.353
10685POPC   NC371699  12.887   5.116   5.553
10685POPC   PO471700  12.890   5.138   5.853
10685POPC   GL171701  12.825   5.125   6.153
10685POPC   GL271702  12.948   4.956   6.153
10685POPC   C1A71703  12.856   5.097   6.453
10685POPC   D2A71704  12.864   5.077   6.753
10685POPC   C3A71705  12.862   5.130   7.053
10685POPC   C4A71706  12.852   5.093   7.353
10685POPC   C1B71707  13.007   4.930   6.453
10685POPC   C2B71708  13.067   4.876   6.753
10685POPC   C3B71709  13.051   4.872   7.053
10685POPC   C4B71710  13.053   4.960   7.353
10686POPC   NC371711  17.487   2.753   5.553
10686POPC   PO471712  17.548   2.808   5.853
10686POPC   GL171713  17.541   2.786   6.153
10686POPC   GL271714  17.474   2.922   6.153
10686POPC   C1A71715  17.521   2.746   6.453
10686POPC   D2A71716  17.530   2.724   6.753
10686POPC   C3A71717  17.489   2.812   7.053
10686POPC   C4A71718  17.491   2.726   7.353
10686POPC   C1B71719  17.510   3.028   6.453
10686POPC   C2B71720  17.519   3.008   6.753
10686POPC   C3B71721  17.567   3.015   7.053
10686POPC   C4B71722  17.506   2.985   7.353
10687POPC   NC371723  23.706  43.151   5.553
10687POPC   PO471724  23.683  43.123   5.853
10687POPC   GL171725  23.707  43.137   6.153
10687POPC   GL271726  23.809  43.156   6.153
10687POPC   C1A71727  23.750  43.068   6.453
10687POPC   D2A71728  23.698  43.129   6.753
10687POPC   C3A71729  23.672  43.119   7.053
10687POPC   C4A71730  23.712  43.123   7.353
10687POPC   C1B71731  23.877  43.250   6.453
10687POPC   C2B71732  23.915  43.236   6.753
10687POPC   C3B71733  23.936  43.272   7.053
10687POPC   C4B71734  23.905  43.304   7.353
10688POPC   NC371735  19.026  11.250   5.553
10688POPC   PO471736  19.085  11.338   5.853
10688POPC   GL171737  19.033  11.322   6.153
10688POPC   GL271738  19.054  11.135   6.153
10688POPC   C1A71739  19.093  11.269   6.453
10688POPC   D2A71740  19.028  11.349   6.753
10688POPC   C3A71741  19.104  11.273   7.053
10688POPC   C4A71742  19.033  11.332   7.353
10688POPC   C1B71743  18.990  11.076   6.453
10688POPC   C2B71744  19.049  11.021   6.753
10688POPC   C3B71745  19.038  11.057   7.053
10688POPC   C4B71746  19.054  11.094   7.353
10689POPC   NC371747   0.440  39.243   5.553
10689POPC   PO471748   0.413  39.247   5.853
10689POPC   GL171749   0.430  39.238   6.153
10689POPC   GL271750   0.544  39.161   6.153
10689POPC   C1A71751   0.419  39.258   6.453
10689POPC   D2A71752   0.479  39.256   6.753
10689POPC   C3A71753   0.458  39.263   7.053
10689POPC   C4A71754   0.454  39.254   7.353
10689POPC   C1B71755   0.585  39.091   6.453
10689POPC   C2B71756   0.583  39.053   6.753
10689POPC   C3B71757   0.619  39.031   7.053
10689POPC   C4B71758   0.589  39.114   7.353
10690POPC   NC371759  40.808  42.298   5.553
10690POPC   PO471760  40.785  42.335   5.853
10690POPC   GL171761  40.742  42.376   6.153
10690POPC   GL271762  40.704  42.426   6.153
10690POPC   C1A71763  40.825  42.356   6.453
10690POPC   D2A71764  40.794  42.289   6.753
10690POPC   C3A71765  40.798  42.295   7.053
10690POPC   C4A71766  40.778  42.308   7.353
10690POPC   C1B71767  40.692  42.559   6.453
10690POPC   C2B71768  40.701  42.579   6.753
10690POPC   C3B71769  40.714  42.515   7.053
10690POPC   C4B71770  40.670  42.565   7.353
10691POPC   NC371771  29.155  44.705   5.553
10691POPC   PO471772  29.098  44.657   5.853
10691POPC   GL171773  29.115  44.646   6.153
10691POPC   GL271774  29.075  44.720   6.153
10691POPC   C1A71775  29.175  44.616   6.453
10691POPC   D2A71776  29.152  44.677   6.753
10691POPC   C3A71777  29.139  44.658   7.053
10691POPC   C4A71778  29.124  44.703   7.353
10691POPC   C1B71779  28.957  44.725   6.453
10691POPC   C2B71780  28.918  44.708   6.753
10691POPC   C3B71781  28.906  44.768   7.053
10691POPC   C4B71782  28.945  44.705   7.353
10692POPC   NC371783  23.751  32.997   5.553
10692POPC   PO471784  23.745  33.048   5.853
10692POPC   GL171785  23.703  33.004   6.153
10692POPC   GL271786  23.635  32.975   6.153
10692POPC   C1A71787  23.727  32.999   6.453
10692POPC   D2A71788  23.696  32.983   6.753
10692POPC   C3A71789  23.729  32.977   7.053
10692POPC   C4A71790  23.727  33.047   7.353
10692POPC   C1B71791  23.468  33.013   6.453
10692POPC   C2B71792  23.423  32.977   6.753
10692POPC   C3B71793  23.460  33.000   7.053
10692POPC   C4B71794  23.423  33.007   7.353
10693POPC   NC371795   0.488  29.959   5.553
10693POPC   PO471796   0.407  29.951   5.853
10693POPC   GL171797   0.424  29.959   6.153
10693POPC   GL271798   0.399  30.079   6.153
10693POPC   C1A71799   0.437  29.882   6.453
10693POPC   D2A71800   0.469  29.884   6.753
10693POPC   C3A71801   0.479  29.937   7.053
10693POPC   C4A71802   0.464  29.886   7.353
10693POPC   C1B71803   0.366  30.161   6.453
10693POPC   C2B71804   0.284  30.110   6.753
10693POPC   C3B71805   0.310  30.135   7.053
10693POPC   C4B71806   0.286  30.157   7.353
10694POPC   NC371807  36.953  23.677   5.553
10694POPC   PO471808  36.925  23.754   5.853
10694POPC   GL171809  36.897  23.760   6.153
10694POPC   GL271810  36.950  23.648   6.153
10694POPC   C1A71811  36.901  23.750   6.453
10694POPC   D2A71812  36.872  23.717   6.753
10694POPC   C3A71813  36.917  23.722   7.053
10694POPC   C4A71814  36.901  23.732   7.353
10694POPC   C1B71815  37.067  23.531   6.453
10694POPC   C2B71816  37.042  23.509   6.753
10694POPC   C3B71817  37.114  23.496   7.053
10694POPC   C4B71818  37.085  23.533   7.353
10695POPC   NC371819  31.445  29.957   5.553
10695POPC   PO471820  31.436  29.935   5.853
10695POPC   GL171821  31.436  29.902   6.153
10695POPC   GL271822  31.577  29.797   6.153
10695POPC   C1A71823  31.441  29.881   6.453
10695POPC   D2A71824  31.468  29.898   6.753
10695POPC   C3A71825  31.484  29.928   7.053
10695POPC   C4A71826  31.429  29.932   7.353
10695POPC   C1B71827  31.676  29.709   6.453
10695POPC   C2B71828  31.639  29.773   6.753
10695POPC   C3B71829  31.670  29.774   7.053
10695POPC   C4B71830  31.683  29.757   7.353
10696POPC   NC371831  17.525  22.948   5.553
10696POPC   PO471832  17.495  22.915   5.853
10696POPC   GL171833  17.507  22.951   6.153
10696POPC   GL271834  17.374  22.985   6.153
10696POPC   C1A71835  17.490  22.948   6.453
10696POPC   D2A71836  17.469  22.977   6.753
10696POPC   C3A71837  17.515  22.971   7.053
10696POPC   C4A71838  17.557  22.939   7.353
10696POPC   C1B71839  17.326  23.074   6.453
10696POPC   C2B71840  17.315  23.150   6.753
10696POPC   C3B71841  17.281  23.088   7.053
10696POPC   C4B71842  17.313  23.105   7.353
10697POPC   NC371843  22.198  33.834   5.553
10697POPC   PO471844  22.166  33.768   5.853
10697POPC   GL171845  22.152  33.770   6.153
10697POPC   GL271846  22.222  33.831   6.153
10697POPC   C1A71847  22.176  33.753   6.453
10697POPC   D2A71848  22.191  33.762   6.753
10697POPC   C3A71849  22.130  33.774   7.053
10697POPC   C4A71850  22.138  33.772   7.353
10697POPC   C1B71851  22.355  33.904   6.453
10697POPC   C2B71852  22.407  33.954   6.753
10697POPC   C3B71853  22.354  33.978   7.053
10697POPC   C4B71854  22.358  33.907   7.353
10698POPC   NC371855  20.639   9.702   5.553
10698POPC   PO471856  20.602   9.725   5.853
10698POPC   GL171857  20.623   9.764   6.153
10698POPC   GL271858  20.648   9.883   6.153
10698POPC   C1A71859  20.625   9.765   6.453
10698POPC   D2A71860  20.609   9.713   6.753
10698POPC   C3A71861  20.573   9.738   7.053
10698POPC   C4A71862  20.569   9.773   7.353
10698POPC   C1B71863  20.807   9.942   6.453
10698POPC   C2B71864  20.742   9.932   6.753
10698POPC   C3B71865  20.740   9.922   7.053
10698POPC   C4B71866  20.779   9.957   7.353
10699POPC   NC371867  39.221  10.552   5.553
10699POPC   PO471868  39.255  10.527   5.853
10699POPC   GL171869  39.202  10.514   6.153
10699POPC   GL271870  39.086  10.583   6.153
10699POPC   C1A71871  39.261  10.559   6.453
10699POPC   D2A71872  39.229  10.537   6.753
10699POPC   C3A71873  39.250  10.550   7.053
10699POPC   C4A71874  39.278  10.503   7.353
10699POPC   C1B71875  39.016  10.557   6.453
10699POPC   C2B71876  39.022  10.630   6.753
10699POPC   C3B71877  38.965  10.581   7.053
10699POPC   C4B71878  38.994  10.562   7.353
10700POPC   NC371879  13.619  23.679   5.553
10700POPC   PO471880  13.649  23.726   5.853
10700POPC   GL171881  13.581  23.761   6.153
10700POPC   GL271882  13.799  23.769   6.153
10700POPC   C1A71883  13.670  23.708   6.453
10700POPC   D2A71884  13.667  23.748   6.753
10700POPC   C3A71885  13.637  23.748   7.053
10700POPC   C4A71886  13.610  23.732   7.353
10700POPC   C1B71887  13.921  23.773   6.453
10700POPC   C2B71888  13.895  23.773   6.753
10700POPC   C3B71889  13.834  23.739   7.053
10700POPC   C4B71890  13.892  23.706   7.353
10701POPC   NC371891  41.598  36.143   5.553
10701POPC   PO471892  41.587  36.161   5.853
10701POPC   GL171893  41.571  36.133   6.153
10701POPC   GL271894  41.691  36.191   6.153
10701POPC   C1A71895  41.576  36.150   6.453
10701POPC   D2A71896  41.585  36.158   6.753
10701POPC   C3A71897  41.584  36.078   7.053
10701POPC   C4A71898  41.558  36.113   7.353
10701POPC   C1B71899  41.742  36.237   6.453
10701POPC   C2B71900  41.736  36.194   6.753
10701POPC   C3B71901  41.808  36.212   7.053
10701POPC   C4B71902  41.833  36.196   7.353
10702POPC   NC371903  41.527  14.358   5.553
10702POPC   PO471904  41.558  14.378   5.853
10702POPC   GL171905  41.553  14.354   6.153
10702POPC   GL271906  41.438  14.469   6.153
10702POPC   C1A71907  41.551  14.398   6.453
10702POPC   D2A71908  41.557  14.419   6.753
10702POPC   C3A71909  41.598  14.417   7.053
10702POPC   C4A71910  41.558  14.402   7.353
10702POPC   C1B71911  41.372  14.591   6.453
10702POPC   C2B71912  41.385  14.607   6.753
10702POPC   C3B71913  41.426  14.623   7.053
10702POPC   C4B71914  41.368  14.609   7.353
10703POPC   NC371915  35.355   8.222   5.553
10703POPC   PO471916  35.363   8.224   5.853
10703POPC   GL171917  35.345   8.171   6.153
10703POPC   GL271918  35.262   8.301   6.153
10703POPC   C1A71919  35.326   8.152   6.453
10703POPC   D2A71920  35.367   8.203   6.753
10703POPC   C3A71921  35.321   8.222   7.053
10703POPC   C4A71922  35.367   8.148   7.353
10703POPC   C1B71923  35.178   8.306   6.453
10703POPC   C2B71924  35.154   8.380   6.753
10703POPC   C3B71925  35.171   8.378   7.053
10703POPC   C4B71926  35.114   8.326   7.353
10704POPC   NC371927   6.665  43.888   5.553
10704POPC   PO471928   6.675  43.881   5.853
10704POPC   GL171929   6.659  43.863   6.153
10704POPC   GL271930   6.726  43.848   6.153
10704POPC   C1A71931   6.620  43.846   6.453
10704POPC   D2A71932   6.614  43.909   6.753
10704POPC   C3A71933   6.639  43.928   7.053
10704POPC   C4A71934   6.641  43.913   7.353
10704POPC   C1B71935   6.889  43.903   6.453
10704POPC   C2B71936   6.853  43.826   6.753
10704POPC   C3B71937   6.886  43.896   7.053
10704POPC   C4B71938   6.861  43.842   7.353
10705POPC   NC371939  39.215  22.928   5.553
10705POPC   PO471940  39.192  22.933   5.853
10705POPC   GL171941  39.276  22.943   6.153
10705POPC   GL271942  39.333  22.871   6.153
10705POPC   C1A71943  39.218  22.986   6.453
10705POPC   D2A71944  39.233  22.913   6.753
10705POPC   C3A71945  39.199  22.895   7.053
10705POPC   C4A71946  39.227  22.983   7.353
10705POPC   C1B71947  39.475  22.802   6.453
10705POPC   C2B71948  39.432  22.771   6.753
10705POPC   C3B71949  39.430  22.785   7.053
10705POPC   C4B71950  39.494  22.794   7.353
10706POPC   NC371951   6.637  24.519   5.553
10706POPC   PO471952   6.630  24.457   5.853
10706POPC   GL171953   6.597  24.512   6.153
10706POPC   GL271954   6.686  24.384   6.153
10706POPC   C1A71955   6.659  24.516   6.453
10706POPC   D2A71956   6.659  24.532   6.753
10706POPC   C3A71957   6.663  24.502   7.053
10706POPC   C4A71958   6.682  24.507   7.353
10706POPC   C1B71959   6.751  24.201   6.453
10706POPC   C2B71960   6.749  24.295   6.753
10706POPC   C3B71961   6.727  24.236   7.053
10706POPC   C4B71962   6.696  24.295   7.353
10707POPC   NC371963  43.101  36.137   5.553
10707POPC   PO471964  43.095  36.109   5.853
10707POPC   GL171965  43.137  36.173   6.153
10707POPC   GL271966  43.071  36.034   6.153
10707POPC   C1A71967  43.104  36.135   6.453
10707POPC   D2A71968  43.104  36.103   6.753
10707POPC   C3A71969  43.146  36.104   7.053
10707POPC   C4A71970  43.084  36.138   7.353
10707POPC   C1B71971  42.974  35.988   6.453
10707POPC   C2B71972  42.948  35.969   6.753
10707POPC   C3B71973  42.924  35.928   7.053
10707POPC   C4B71974  42.956  35.960   7.353
10708POPC   NC371975  15.911  38.437   5.553
10708POPC   PO471976  15.928  38.421   5.853
10708POPC   GL171977  15.963  38.487   6.153
10708POPC   GL271978  16.042  38.570   6.153
10708POPC   C1A71979  15.951  38.451   6.453
10708POPC   D2A71980  15.985  38.452   6.753
10708POPC   C3A71981  15.972  38.457   7.053
10708POPC   C4A71982  15.919  38.477   7.353
10708POPC   C1B71983  16.105  38.708   6.453
10708POPC   C2B71984  16.074  38.625   6.753
10708POPC   C3B71985  16.125  38.708   7.053
10708POPC   C4B71986  16.109  38.670   7.353
10709POPC   NC371987  11.341   3.495   5.553
10709POPC   PO471988  11.327   3.506   5.853
10709POPC   GL171989  11.345   3.563   6.153
10709POPC   GL271990  11.445   3.600   6.153
10709POPC   C1A71991  11.268   3.512   6.453
10709POPC   D2A71992  11.266   3.573   6.753
10709POPC   C3A71993  11.285   3.526   7.053
10709POPC   C4A71994  11.311   3.521   7.353
10709POPC   C1B71995  11.503   3.608   6.453
10709POPC   C2B71996  11.591   3.616   6.753
10709POPC   C3B71997  11.549   3.537   7.053
10709POPC   C4B71998  11.588   3.606   7.353
10710POPC   NC371999  13.591   6.620   5.553
10710POPC   PO472000  13.598   6.669   5.853
10710POPC   GL172001  13.658   6.614   6.153
10710POPC   GL272002  13.679   6.579   6.153
10710POPC   C1A72003  13.601   6.609   6.453
10710POPC   D2A72004  13.609   6.621   6.753
10710POPC   C3A72005  13.625   6.633   7.053
10710POPC   C4A72006  13.652   6.675   7.353
10710POPC   C1B72007  13.829   6.500   6.453
10710POPC   C2B72008  13.838   6.460   6.753
10710POPC   C3B72009  13.802   6.424   7.053
10710POPC   C4B72010  13.799   6.426   7.353
10711POPC   NC372011  22.175  13.664   5.553
10711POPC   PO472012  22.180  13.586   5.853
10711POPC   GL172013  22.145  13.588   6.153
10711POPC   GL272014  22.189  13.560   6.153
10711POPC   C1A72015  22.208  13.665   6.453
10711POPC   D2A72016  22.159  13.599   6.753
10711POPC   C3A72017  22.124  13.661   7.053
10711POPC   C4A72018  22.142  13.578   7.353
10711POPC   C1B72019  22.276  13.422   6.453
10711POPC   C2B72020  22.259  13.347   6.753
10711POPC   C3B72021  22.265  13.404   7.053
10711POPC   C4B72022  22.299  13.372   7.353
10712POPC   NC372023   5.852  22.906   5.553
10712POPC   PO472024   5.877  22.894   5.853
10712POPC   GL172025   5.823  22.935   6.153
10712POPC   GL272026   5.710  23.002   6.153
10712POPC   C1A72027   5.912  22.948   6.453
10712POPC   D2A72028   5.901  22.980   6.753
10712POPC   C3A72029   5.909  22.949   7.053
10712POPC   C4A72030   5.908  22.971   7.353
10712POPC   C1B72031   5.638  22.955   6.453
10712POPC   C2B72032   5.585  22.924   6.753
10712POPC   C3B72033   5.655  23.020   7.053
10712POPC   C4B72034   5.659  23.022   7.353
10713POPC   NC372035  35.346  17.523   5.553
10713POPC   PO472036  35.355  17.463   5.853
10713POPC   GL172037  35.367  17.468   6.153
10713POPC   GL272038  35.380  17.339   6.153
10713POPC   C1A72039  35.374  17.498   6.453
10713POPC   D2A72040  35.387  17.517   6.753
10713POPC   C3A72041  35.392  17.464   7.053
10713POPC   C4A72042  35.363  17.458   7.353
10713POPC   C1B72043  35.388  17.272   6.453
10713POPC   C2B72044  35.334  17.281   6.753
10713POPC   C3B72045  35.357  17.219   7.053
10713POPC   C4B72046  35.374  17.240   7.353
10714POPC   NC372047  30.662  25.287   5.553
10714POPC   PO472048  30.667  25.303   5.853
10714POPC   GL172049  30.737  25.288   6.153
10714POPC   GL272050  30.658  25.382   6.153
10714POPC   C1A72051  30.734  25.266   6.453
10714POPC   D2A72052  30.744  25.310   6.753
10714POPC   C3A72053  30.680  25.286   7.053
10714POPC   C4A72054  30.710  25.283   7.353
10714POPC   C1B72055  30.541  25.472   6.453
10714POPC   C2B72056  30.565  25.465   6.753
10714POPC   C3B72057  30.560  25.447   7.053
10714POPC   C4B72058  30.530  25.481   7.353
10715POPC   NC372059  36.145   9.763   5.553
10715POPC   PO472060  36.177   9.774   5.853
10715POPC   GL172061  36.078   9.771   6.153
10715POPC   GL272062  36.011   9.639   6.153
10715POPC   C1A72063  36.152   9.797   6.453
10715POPC   D2A72064  36.128   9.773   6.753
10715POPC   C3A72065  36.081   9.768   7.053
10715POPC   C4A72066  36.146   9.776   7.353
10715POPC   C1B72067  35.908   9.574   6.453
10715POPC   C2B72068  35.891   9.604   6.753
10715POPC   C3B72069  35.898   9.595   7.053
10715POPC   C4B72070  35.916   9.577   7.353
10716POPC   NC372071  25.999  33.031   5.553
10716POPC   PO472072  26.058  33.031   5.853
10716POPC   GL172073  26.067  33.030   6.153
10716POPC   GL272074  26.074  32.935   6.153
10716POPC   C1A72075  26.015  33.053   6.453
10716POPC   D2A72076  26.013  33.036   6.753
10716POPC   C3A72077  26.006  33.033   7.053
10716POPC   C4A72078  26.056  32.988   7.353
10716POPC   C1B72079  26.098  32.742   6.453
10716POPC   C2B72080  26.043  32.790   6.753
10716POPC   C3B72081  26.060  32.788   7.053
10716POPC   C4B72082  26.076  32.821   7.353
10717POPC   NC372083  12.113  22.970   5.553
10717POPC   PO472084  12.038  22.946   5.853
10717POPC   GL172085  12.041  22.987   6.153
10717POPC   GL272086  12.008  23.007   6.153
10717POPC   C1A72087  12.033  22.959   6.453
10717POPC   D2A72088  12.081  22.967   6.753
10717POPC   C3A72089  12.100  22.921   7.053
10717POPC   C4A72090  12.061  22.894   7.353
10717POPC   C1B72091  12.017  23.169   6.453
10717POPC   C2B72092  11.979  23.140   6.753
10717POPC   C3B72093  11.967  23.128   7.053
10717POPC   C4B72094  11.948  23.179   7.353
10718POPC   NC372095  35.374  19.043   5.553
10718POPC   PO472096  35.356  19.045   5.853
10718POPC   GL172097  35.315  19.056   6.153
10718POPC   GL272098  35.407  19.159   6.153
10718POPC   C1A72099  35.320  19.018   6.453
10718POPC   D2A72100  35.319  19.096   6.753
10718POPC   C3A72101  35.327  19.092   7.053
10718POPC   C4A72102  35.341  19.032   7.353
10718POPC   C1B72103  35.522  19.310   6.453
10718POPC   C2B72104  35.506  19.237   6.753
10718POPC   C3B72105  35.447  19.289   7.053
10718POPC   C4B72106  35.437  19.306   7.353
10719POPC   NC372107   4.292  11.263   5.553
10719POPC   PO472108   4.285  11.252   5.853
10719POPC   GL172109   4.296  11.294   6.153
10719POPC   GL272110   4.297  11.183   6.153
10719POPC   C1A72111   4.355  11.270   6.453
10719POPC   D2A72112   4.352  11.311   6.753
10719POPC   C3A72113   4.293  11.341   7.053
10719POPC   C4A72114   4.350  11.327   7.353
10719POPC   C1B72115   4.335  11.023   6.453
10719POPC   C2B72116   4.329  11.054   6.753
10719POPC   C3B72117   4.331  11.026   7.053
10719POPC   C4B72118   4.290  11.085   7.353
10720POPC   NC372119  21.396  29.880   5.553
10720POPC   PO472120  21.360  29.892   5.853
10720POPC   GL172121  21.387  29.969   6.153
10720POPC   GL272122  21.531  29.944   6.153
10720POPC   C1A72123  21.411  29.960   6.453
10720POPC   D2A72124  21.395  29.945   6.753
10720POPC   C3A72125  21.416  29.905   7.053
10720POPC   C4A72126  21.353  29.896   7.353
10720POPC   C1B72127  21.635  29.960   6.453
10720POPC   C2B72128  21.579  29.992   6.753
10720POPC   C3B72129  21.575  30.046   7.053
10720POPC   C4B72130  21.626  29.972   7.353
10721POPC   NC372131  38.489   3.498   5.553
10721POPC   PO472132  38.497   3.494   5.853
10721POPC   GL172133  38.406   3.560   6.153
10721POPC   GL272134  38.595   3.450   6.153
10721POPC   C1A72135  38.481   3.512   6.453
10721POPC   D2A72136  38.500   3.538   6.753
10721POPC   C3A72137  38.473   3.550   7.053
10721POPC   C4A72138  38.489   3.576   7.353
10721POPC   C1B72139  38.680   3.377   6.453
10721POPC   C2B72140  38.635   3.375   6.753
10721POPC   C3B72141  38.609   3.329   7.053
10721POPC   C4B72142  38.591   3.338   7.353
10722POPC   NC372143  24.529  35.348   5.553
10722POPC   PO472144  24.492  35.373   5.853
10722POPC   GL172145  24.443  35.396   6.153
10722POPC   GL272146  24.411  35.230   6.153
10722POPC   C1A72147  24.465  35.393   6.453
10722POPC   D2A72148  24.526  35.367   6.753
10722POPC   C3A72149  24.445  35.364   7.053
10722POPC   C4A72150  24.485  35.314   7.353
10722POPC   C1B72151  24.348  35.158   6.453
10722POPC   C2B72152  24.310  35.155   6.753
10722POPC   C3B72153  24.386  35.121   7.053
10722POPC   C4B72154  24.369  35.121   7.353
10723POPC   NC372155  42.379   0.465   5.553
10723POPC   PO472156  42.368   0.418   5.853
10723POPC   GL172157  42.294   0.427   6.153
10723POPC   GL272158  42.495   0.462   6.153
10723POPC   C1A72159  42.326   0.420   6.453
10723POPC   D2A72160  42.371   0.389   6.753
10723POPC   C3A72161  42.332   0.425   7.053
10723POPC   C4A72162  42.375   0.418   7.353
10723POPC   C1B72163  42.557   0.402   6.453
10723POPC   C2B72164  42.568   0.383   6.753
10723POPC   C3B72165  42.596   0.467   7.053
10723POPC   C4B72166  42.607   0.430   7.353
10724POPC   NC372167  28.341   8.231   5.553
10724POPC   PO472168  28.352   8.167   5.853
10724POPC   GL172169  28.344   8.210   6.153
10724POPC   GL272170  28.201   8.164   6.153
10724POPC   C1A72171  28.330   8.242   6.453
10724POPC   D2A72172  28.337   8.177   6.753
10724POPC   C3A72173  28.393   8.172   7.053
10724POPC   C4A72174  28.350   8.222   7.353
10724POPC   C1B72175  28.139   8.125   6.453
10724POPC   C2B72176  28.131   8.150   6.753
10724POPC   C3B72177  28.105   8.166   7.053
10724POPC   C4B72178  28.103   8.107   7.353
10725POPC   NC372179  31.476   0.423   5.553
10725POPC   PO472180  31.499   0.468   5.853
10725POPC   GL172181  31.438   0.432   6.153
10725POPC   GL272182  31.356   0.529   6.153
10725POPC   C1A72183  31.475   0.393   6.453
10725POPC   D2A72184  31.489   0.456   6.753
10725POPC   C3A72185  31.466   0.478   7.053
10725POPC   C4A72186  31.455   0.471   7.353
10725POPC   C1B72187  31.297   0.670   6.453
10725POPC   C2B72188  31.302   0.661   6.753
10725POPC   C3B72189  31.276   0.622   7.053
10725POPC   C4B72190  31.299   0.668   7.353
10726POPC   NC372191  15.961  26.814   5.553
10726POPC   PO472192  15.942  26.778   5.853
10726POPC   GL172193  15.936  26.840   6.153
10726POPC   GL272194  16.027  26.912   6.153
10726POPC   C1A72195  15.915  26.799   6.453
10726POPC   D2A72196  15.939  26.808   6.753
10726POPC   C3A72197  15.913  26.811   7.053
10726POPC   C4A72198  15.996  26.839   7.353
10726POPC   C1B72199  16.149  27.003   6.453
10726POPC   C2B72200  16.135  26.993   6.753
10726POPC   C3B72201  16.142  26.934   7.053
10726POPC   C4B72202  16.111  26.936   7.353
10727POPC   NC372203  11.268  33.055   5.553
10727POPC   PO472204  11.309  33.049   5.853
10727POPC   GL172205  11.281  33.046   6.153
10727POPC   GL272206  11.314  33.117   6.153
10727POPC   C1A72207  11.293  32.995   6.453
10727POPC   D2A72208  11.268  32.979   6.753
10727POPC   C3A72209  11.326  33.003   7.053
10727POPC   C4A72210  11.292  33.065   7.353
10727POPC   C1B72211  11.403  33.212   6.453
10727POPC   C2B72212  11.429  33.309   6.753
10727POPC   C3B72213  11.408  33.277   7.053
10727POPC   C4B72214  11.404  33.261   7.353
10728POPC   NC372215  29.161  36.113   5.553
10728POPC   PO472216  29.095  36.137   5.853
10728POPC   GL172217  29.145  36.154   6.153
10728POPC   GL272218  29.296  36.033   6.153
10728POPC   C1A72219  29.131  36.081   6.453
10728POPC   D2A72220  29.115  36.142   6.753
10728POPC   C3A72221  29.167  36.099   7.053
10728POPC   C4A72222  29.188  36.107   7.353
10728POPC   C1B72223  29.330  36.058   6.453
10728POPC   C2B72224  29.382  36.003   6.753
10728POPC   C3B72225  29.370  36.046   7.053
10728POPC   C4B72226  29.407  36.053   7.353
10729POPC   NC372227   8.235  44.697   5.553
10729POPC   PO472228   8.209  44.693   5.853
10729POPC   GL172229   8.169  44.668   6.153
10729POPC   GL272230   8.283  44.770   6.153
10729POPC   C1A72231   8.218  44.697   6.453
10729POPC   D2A72232   8.160  44.680   6.753
10729POPC   C3A72233   8.243  44.634   7.053
10729POPC   C4A72234   8.243  44.636   7.353
10729POPC   C1B72235   8.341  44.818   6.453
10729POPC   C2B72236   8.404  44.829   6.753
10729POPC   C3B72237   8.417  44.796   7.053
10729POPC   C4B72238   8.349  44.804   7.353
10730POPC   NC372239   9.716   5.058   5.553
10730POPC   PO472240   9.725   5.141   5.853
10730POPC   GL172241   9.722   5.134   6.153
10730POPC   GL272242   9.732   5.175   6.153
10730POPC   C1A72243   9.775   5.124   6.453
10730POPC   D2A72244   9.724   5.127   6.753
10730POPC   C3A72245   9.751   5.139   7.053
10730POPC   C4A72246   9.705   5.126   7.353
10730POPC   C1B72247   9.727   5.383   6.453
10730POPC   C2B72248   9.634   5.383   6.753
10730POPC   C3B72249   9.695   5.310   7.053
10730POPC   C4B72250   9.679   5.384   7.353
10731POPC   NC372251  29.912   2.040   5.553
10731POPC   PO472252  29.944   2.020   5.853
10731POPC   GL172253  29.942   2.008   6.153
10731POPC   GL272254  29.825   2.065   6.153
10731POPC   C1A72255  29.970   1.947   6.453
10731POPC   D2A72256  29.917   1.978   6.753
10731POPC   C3A72257  29.878   1.970   7.053
10731POPC   C4A72258  29.899   1.948   7.353
10731POPC   C1B72259  29.676   2.122   6.453
10731POPC   C2B72260  29.703   2.134   6.753
10731POPC   C3B72261  29.716   2.147   7.053
10731POPC   C4B72262  29.688   2.114   7.353
10732POPC   NC372263  38.431  19.881   5.553
10732POPC   PO472264  38.436  19.805   5.853
10732POPC   GL172265  38.435  19.850   6.153
10732POPC   GL272266  38.484  19.781   6.153
10732POPC   C1A72267  38.482  19.802   6.453
10732POPC   D2A72268  38.430  19.882   6.753
10732POPC   C3A72269  38.460  19.798   7.053
10732POPC   C4A72270  38.465  19.810   7.353
10732POPC   C1B72271  38.644  19.634   6.453
10732POPC   C2B72272  38.580  19.630   6.753
10732POPC   C3B72273  38.567  19.650   7.053
10732POPC   C4B72274  38.560  19.651   7.353
10733POPC   NC372275  30.703  24.531   5.553
10733POPC   PO472276  30.724  24.482   5.853
10733POPC   GL172277  30.680  24.502   6.153
10733POPC   GL272278  30.722  24.379   6.153
10733POPC   C1A72279  30.695  24.443   6.453
10733POPC   D2A72280  30.737  24.473   6.753
10733POPC   C3A72281  30.732  24.463   7.053
10733POPC   C4A72282  30.650  24.491   7.353
10733POPC   C1B72283  30.697  24.226   6.453
10733POPC   C2B72284  30.691  24.214   6.753
10733POPC   C3B72285  30.685  24.230   7.053
10733POPC   C4B72286  30.736  24.217   7.353
10734POPC   NC372287  18.260  19.832   5.553
10734POPC   PO472288  18.277  19.790   5.853
10734POPC   GL172289  18.329  19.805   6.153
10734POPC   GL272290  18.297  19.695   6.153
10734POPC   C1A72291  18.299  19.872   6.453
10734POPC   D2A72292  18.281  19.881   6.753
10734POPC   C3A72293  18.276  19.794   7.053
10734POPC   C4A72294  18.287  19.824   7.353
10734POPC   C1B72295  18.419  19.634   6.453
10734POPC   C2B72296  18.380  19.606   6.753
10734POPC   C3B72297  18.448  19.646   7.053
10734POPC   C4B72298  18.386  19.634   7.353
10735POPC   NC372299  41.557   8.192   5.553
10735POPC   PO472300  41.598   8.236   5.853
10735POPC   GL172301  41.527   8.182   6.153
10735POPC   GL272302  41.726   8.235   6.153
10735POPC   C1A72303  41.594   8.233   6.453
10735POPC   D2A72304  41.574   8.164   6.753
10735POPC   C3A72305  41.587   8.147   7.053
10735POPC   C4A72306  41.545   8.175   7.353
10735POPC   C1B72307  41.816   8.196   6.453
10735POPC   C2B72308  41.822   8.279   6.753
10735POPC   C3B72309  41.757   8.207   7.053
10735POPC   C4B72310  41.758   8.209   7.353
10736POPC   NC372311   5.109  18.312   5.553
10736POPC   PO472312   5.093  18.253   5.853
10736POPC   GL172313   5.087  18.271   6.153
10736POPC   GL272314   5.035  18.166   6.153
10736POPC   C1A72315   5.050  18.281   6.453
10736POPC   D2A72316   5.141  18.240   6.753
10736POPC   C3A72317   5.134  18.297   7.053
10736POPC   C4A72318   5.054  18.238   7.353
10736POPC   C1B72319   4.968  18.046   6.453
10736POPC   C2B72320   4.883  18.062   6.753
10736POPC   C3B72321   4.969  18.044   7.053
10736POPC   C4B72322   4.887  18.080   7.353
10737POPC   NC372323  29.163   7.388   5.553
10737POPC   PO472324  29.120   7.441   5.853
10737POPC   GL172325  29.194   7.455   6.153
10737POPC   GL272326  29.278   7.466   6.153
10737POPC   C1A72327  29.162   7.454   6.453
10737POPC   D2A72328  29.106   7.406   6.753
10737POPC   C3A72329  29.186   7.410   7.053
10737POPC   C4A72330  29.110   7.457   7.353
10737POPC   C1B72331  29.337   7.591   6.453
10737POPC   C2B72332  29.331   7.553   6.753
10737POPC   C3B72333  29.362   7.559   7.053
10737POPC   C4B72334  29.304   7.581   7.353
10738POPC   NC372335  35.399  18.301   5.553
10738POPC   PO472336  35.398  18.317   5.853
10738POPC   GL172337  35.398  18.320   6.153
10738POPC   GL272338  35.263  18.182   6.153
10738POPC   C1A72339  35.320  18.242   6.453
10738POPC   D2A72340  35.352  18.263   6.753
10738POPC   C3A72341  35.305  18.319   7.053
10738POPC   C4A72342  35.361  18.295   7.353
10738POPC   C1B72343  35.195  18.053   6.453
10738POPC   C2B72344  35.279  18.102   6.753
10738POPC   C3B72345  35.225  18.015   7.053
10738POPC   C4B72346  35.221  18.016   7.353
10739POPC   NC372347  33.021   7.444   5.553
10739POPC   PO472348  33.062   7.447   5.853
10739POPC   GL172349  33.040   7.452   6.153
10739POPC   GL272350  33.153   7.449   6.153
10739POPC   C1A72351  33.071   7.384   6.453
10739POPC   D2A72352  32.983   7.466   6.753
10739POPC   C3A72353  33.053   7.440   7.053
10739POPC   C4A72354  33.001   7.416   7.353
10739POPC   C1B72355  33.256   7.459   6.453
10739POPC   C2B72356  33.286   7.487   6.753
10739POPC   C3B72357  33.300   7.463   7.053
10739POPC   C4B72358  33.273   7.517   7.353
10740POPC   NC372359  39.241   1.166   5.553
10740POPC   PO472360  39.240   1.206   5.853
10740POPC   GL172361  39.183   1.250   6.153
10740POPC   GL272362  39.173   1.365   6.153
10740POPC   C1A72363  39.241   1.257   6.453
10740POPC   D2A72364  39.275   1.178   6.753
10740POPC   C3A72365  39.224   1.187   7.053
10740POPC   C4A72366  39.193   1.259   7.353
10740POPC   C1B72367  39.139   1.471   6.453
10740POPC   C2B72368  39.204   1.508   6.753
10740POPC   C3B72369  39.160   1.436   7.053
10740POPC   C4B72370  39.176   1.489   7.353
10741POPC   NC372371  30.700  28.351   5.553
10741POPC   PO472372  30.653  28.354   5.853
10741POPC   GL172373  30.716  28.368   6.153
10741POPC   GL272374  30.835  28.312   6.153
10741POPC   C1A72375  30.655  28.364   6.453
10741POPC   D2A72376  30.721  28.336   6.753
10741POPC   C3A72377  30.654  28.365   7.053
10741POPC   C4A72378  30.733  28.344   7.353
10741POPC   C1B72379  30.934  28.274   6.453
10741POPC   C2B72380  30.908  28.350   6.753
10741POPC   C3B72381  30.947  28.283   7.053
10741POPC   C4B72382  30.906  28.275   7.353
10742POPC   NC372383   9.743  19.102   5.553
10742POPC   PO472384   9.760  19.018   5.853
10742POPC   GL172385   9.745  19.068   6.153
10742POPC   GL272386   9.820  19.147   6.153
10742POPC   C1A72387   9.768  19.090   6.453
10742POPC   D2A72388   9.717  19.059   6.753
10742POPC   C3A72389   9.770  19.052   7.053
10742POPC   C4A72390   9.714  19.044   7.353
10742POPC   C1B72391  10.021  19.212   6.453
10742POPC   C2B72392  10.021  19.119   6.753
10742POPC   C3B72393   9.946  19.170   7.053
10742POPC   C4B72394  10.018  19.185   7.353
10743POPC   NC372395  37.717  34.566   5.553
10743POPC   PO472396  37.698  34.569   5.853
10743POPC   GL172397  37.729  34.616   6.153
10743POPC   GL272398  37.675  34.736   6.153
10743POPC   C1A72399  37.656  34.565   6.453
10743POPC   D2A72400  37.709  34.559   6.753
10743POPC   C3A72401  37.708  34.607   7.053
10743POPC   C4A72402  37.696  34.570   7.353
10743POPC   C1B72403  37.667  34.778   6.453
10743POPC   C2B72404  37.652  34.805   6.753
10743POPC   C3B72405  37.652  34.791   7.053
10743POPC   C4B72406  37.631  34.843   7.353
10744POPC   NC372407  35.310  21.415   5.553
10744POPC   PO472408  35.302  21.388   5.853
10744POPC   GL172409  35.392  21.435   6.153
10744POPC   GL272410  35.494  21.316   6.153
10744POPC   C1A72411  35.369  21.413   6.453
10744POPC   D2A72412  35.399  21.404   6.753
10744POPC   C3A72413  35.356  21.423   7.053
10744POPC   C4A72414  35.314  21.375   7.353
10744POPC   C1B72415  35.574  21.238   6.453
10744POPC   C2B72416  35.548  21.280   6.753
10744POPC   C3B72417  35.582  21.224   7.053
10744POPC   C4B72418  35.539  21.205   7.353
10745POPC   NC372419  35.340  40.771   5.553
10745POPC   PO472420  35.333  40.804   5.853
10745POPC   GL172421  35.390  40.771   6.153
10745POPC   GL272422  35.290  40.807   6.153
10745POPC   C1A72423  35.347  40.767   6.453
10745POPC   D2A72424  35.337  40.763   6.753
10745POPC   C3A72425  35.303  40.772   7.053
10745POPC   C4A72426  35.334  40.798   7.353
10745POPC   C1B72427  35.142  40.862   6.453
10745POPC   C2B72428  35.164  40.959   6.753
10745POPC   C3B72429  35.182  40.949   7.053
10745POPC   C4B72430  35.101  40.902   7.353
10746POPC   NC372431   7.414  27.602   5.553
10746POPC   PO472432   7.457  27.617   5.853
10746POPC   GL172433   7.461  27.585   6.153
10746POPC   GL272434   7.412  27.762   6.153
10746POPC   C1A72435   7.375  27.631   6.453
10746POPC   D2A72436   7.455  27.639   6.753
10746POPC   C3A72437   7.391  27.563   7.053
10746POPC   C4A72438   7.466  27.630   7.353
10746POPC   C1B72439   7.478  27.824   6.453
10746POPC   C2B72440   7.439  27.823   6.753
10746POPC   C3B72441   7.455  27.827   7.053
10746POPC   C4B72442   7.497  27.810   7.353
10747POPC   NC372443   8.972  23.734   5.553
10747POPC   PO472444   8.979  23.741   5.853
10747POPC   GL172445   8.937  23.728   6.153
10747POPC   GL272446   8.864  23.775   6.153
10747POPC   C1A72447   8.964  23.711   6.453
10747POPC   D2A72448   9.003  23.716   6.753
10747POPC   C3A72449   9.007  23.719   7.053
10747POPC   C4A72450   8.950  23.706   7.353
10747POPC   C1B72451   8.734  23.730   6.453
10747POPC   C2B72452   8.735  23.803   6.753
10747POPC   C3B72453   8.677  23.719   7.053
10747POPC   C4B72454   8.743  23.739   7.353
10748POPC   NC372455   6.646  26.840   5.553
10748POPC   PO472456   6.640  26.795   5.853
10748POPC   GL172457   6.679  26.829   6.153
10748POPC   GL272458   6.670  26.669   6.153
10748POPC   C1A72459   6.602  26.789   6.453
10748POPC   D2A72460   6.678  26.838   6.753
10748POPC   C3A72461   6.676  26.804   7.053
10748POPC   C4A72462   6.656  26.806   7.353
10748POPC   C1B72463   6.766  26.563   6.453
10748POPC   C2B72464   6.822  26.567   6.753
10748POPC   C3B72465   6.820  26.610   7.053
10748POPC   C4B72466   6.790  26.602   7.353
10749POPC   NC372467   9.777   1.221   5.553
10749POPC   PO472468   9.734   1.196   5.853
10749POPC   GL172469   9.712   1.181   6.153
10749POPC   GL272470   9.648   1.221   6.153
10749POPC   C1A72471   9.797   1.251   6.453
10749POPC   D2A72472   9.731   1.198   6.753
10749POPC   C3A72473   9.772   1.166   7.053
10749POPC   C4A72474   9.748   1.187   7.353
10749POPC   C1B72475   9.527   1.319   6.453
10749POPC   C2B72476   9.556   1.313   6.753
10749POPC   C3B72477   9.473   1.336   7.053
10749POPC   C4B72478   9.490   1.356   7.353
10750POPC   NC372479  32.263   3.518   5.553
10750POPC   PO472480  32.270   3.583   5.853
10750POPC   GL172481  32.239   3.551   6.153
10750POPC   GL272482  32.263   3.393   6.153
10750POPC   C1A72483  32.235   3.501   6.453
10750POPC   D2A72484  32.272   3.530   6.753
10750POPC   C3A72485  32.254   3.534   7.053
10750POPC   C4A72486  32.241   3.566   7.353
10750POPC   C1B72487  32.309   3.337   6.453
10750POPC   C2B72488  32.279   3.246   6.753
10750POPC   C3B72489  32.277   3.337   7.053
10750POPC   C4B72490  32.295   3.254   7.353
10751POPC   NC372491  26.807   9.732   5.553
10751POPC   PO472492  26.812   9.704   5.853
10751POPC   GL172493  26.786   9.703   6.153
10751POPC   GL272494  26.961   9.751   6.153
10751POPC   C1A72495  26.802   9.721   6.453
10751POPC   D2A72496  26.836   9.784   6.753
10751POPC   C3A72497  26.853   9.724   7.053
10751POPC   C4A72498  26.826   9.780   7.353
10751POPC   C1B72499  27.018   9.659   6.453
10751POPC   C2B72500  27.052   9.743   6.753
10751POPC   C3B72501  27.040   9.713   7.053
10751POPC   C4B72502  27.028   9.678   7.353
10752POPC   NC372503  19.105  19.040   5.553
10752POPC   PO472504  19.022  19.059   5.853
10752POPC   GL172505  19.070  19.093   6.153
10752POPC   GL272506  18.950  19.017   6.153
10752POPC   C1A72507  19.094  19.011   6.453
10752POPC   D2A72508  19.096  19.102   6.753
10752POPC   C3A72509  19.018  19.108   7.053
10752POPC   C4A72510  19.074  19.020   7.353
10752POPC   C1B72511  18.880  18.941   6.453
10752POPC   C2B72512  18.815  18.910   6.753
10752POPC   C3B72513  18.823  18.949   7.053
10752POPC   C4B72514  18.868  18.970   7.353
10753POPC   NC372515  30.672  29.124   5.553
10753POPC   PO472516  30.654  29.177   5.853
10753POPC   GL172517  30.655  29.171   6.153
10753POPC   GL272518  30.535  29.149   6.153
10753POPC   C1A72519  30.657  29.096   6.453
10753POPC   D2A72520  30.647  29.130   6.753
10753POPC   C3A72521  30.665  29.099   7.053
10753POPC   C4A72522  30.663  29.125   7.353
10753POPC   C1B72523  30.399  29.175   6.453
10753POPC   C2B72524  30.459  29.117   6.753
10753POPC   C3B72525  30.405  29.116   7.053
10753POPC   C4B72526  30.453  29.152   7.353
10754POPC   NC372527  43.075  26.016   5.553
10754POPC   PO472528  43.067  26.033   5.853
10754POPC   GL172529  43.071  26.070   6.153
10754POPC   GL272530  43.252  26.140   6.153
10754POPC   C1A72531  43.152  26.051   6.453
10754POPC   D2A72532  43.127  26.013   6.753
10754POPC   C3A72533  43.087  26.023   7.053
10754POPC   C4A72534  43.112  26.020   7.353
10754POPC   C1B72535  43.327  26.212   6.453
10754POPC   C2B72536  43.301  26.156   6.753
10754POPC   C3B72537  43.296  26.228   7.053
10754POPC   C4B72538  43.341  26.251   7.353
10755POPC   NC372539  23.742  31.470   5.553
10755POPC   PO472540  23.679  31.462   5.853
10755POPC   GL172541  23.714  31.454   6.153
10755POPC   GL272542  23.827  31.432   6.153
10755POPC   C1A72543  23.763  31.471   6.453
10755POPC   D2A72544  23.689  31.507   6.753
10755POPC   C3A72545  23.695  31.495   7.053
10755POPC   C4A72546  23.686  31.506   7.353
10755POPC   C1B72547  23.904  31.322   6.453
10755POPC   C2B72548  23.892  31.284   6.753
10755POPC   C3B72549  23.863  31.351   7.053
10755POPC   C4B72550  23.917  31.340   7.353
10756POPC   NC372551  43.876  15.218   5.553
10756POPC   PO472552  43.853  15.141   5.853
10756POPC   GL172553  43.908  15.209   6.153
10756POPC   GL272554  43.926  15.071   6.153
10756POPC   C1A72555  43.902  15.169   6.453
10756POPC   D2A72556  43.870  15.192   6.753
10756POPC   C3A72557  43.907  15.215   7.053
10756POPC   C4A72558  43.904  15.204   7.353
10756POPC   C1B72559  43.943  14.944   6.453
10756POPC   C2B72560  43.956  14.971   6.753
10756POPC   C3B72561  43.989  14.945   7.053
10756POPC   C4B72562  43.936  14.886   7.353
10757POPC   NC372563  19.105  20.608   5.553
10757POPC   PO472564  19.014  20.603   5.853
10757POPC   GL172565  19.087  20.577   6.153
10757POPC   GL272566  18.969  20.650   6.153
10757POPC   C1A72567  19.030  20.627   6.453
10757POPC   D2A72568  19.102  20.573   6.753
10757POPC   C3A72569  19.041  20.628   7.053
10757POPC   C4A72570  19.058  20.583   7.353
10757POPC   C1B72571  18.862  20.796   6.453
10757POPC   C2B72572  18.871  20.787   6.753
10757POPC   C3B72573  18.891  20.753   7.053
10757POPC   C4B72574  18.891  20.800   7.353
10758POPC   NC372575  28.370  14.446   5.553
10758POPC   PO472576  28.367  14.410   5.853
10758POPC   GL172577  28.367  14.380   6.153
10758POPC   GL272578  28.322  14.466   6.153
10758POPC   C1A72579  28.385  14.424   6.453
10758POPC   D2A72580  28.331  14.420   6.753
10758POPC   C3A72581  28.402  14.424   7.053
10758POPC   C4A72582  28.379  14.363   7.353
10758POPC   C1B72583  28.263  14.629   6.453
10758POPC   C2B72584  28.232  14.598   6.753
10758POPC   C3B72585  28.194  14.589   7.053
10758POPC   C4B72586  28.275  14.662   7.353
10759POPC   NC372587  37.649  33.039   5.553
10759POPC   PO472588  37.686  33.044   5.853
10759POPC   GL172589  37.661  33.049   6.153
10759POPC   GL272590  37.547  33.097   6.153
10759POPC   C1A72591  37.727  33.060   6.453
10759POPC   D2A72592  37.649  33.046   6.753
10759POPC   C3A72593  37.640  33.021   7.053
10759POPC   C4A72594  37.651  33.056   7.353
10759POPC   C1B72595  37.515  33.151   6.453
10759POPC   C2B72596  37.544  33.197   6.753
10759POPC   C3B72597  37.547  33.246   7.053
10759POPC   C4B72598  37.547  33.180   7.353
10760POPC   NC372599  18.309  37.709   5.553
10760POPC   PO472600  18.286  37.661   5.853
10760POPC   GL172601  18.290  37.687   6.153
10760POPC   GL272602  18.241  37.813   6.153
10760POPC   C1A72603  18.312  37.687   6.453
10760POPC   D2A72604  18.330  37.637   6.753
10760POPC   C3A72605  18.315  37.728   7.053
10760POPC   C4A72606  18.333  37.721   7.353
10760POPC   C1B72607  18.145  37.895   6.453
10760POPC   C2B72608  18.239  37.913   6.753
10760POPC   C3B72609  18.186  37.877   7.053
10760POPC   C4B72610  18.162  37.942   7.353
10761POPC   NC372611  37.712   6.636   5.553
10761POPC   PO472612  37.681   6.677   5.853
10761POPC   GL172613  37.696   6.661   6.153
10761POPC   GL272614  37.651   6.801   6.153
10761POPC   C1A72615  37.659   6.646   6.453
10761POPC   D2A72616  37.690   6.621   6.753
10761POPC   C3A72617  37.696   6.632   7.053
10761POPC   C4A72618  37.709   6.612   7.353
10761POPC   C1B72619  37.655   6.845   6.453
10761POPC   C2B72620  37.581   6.927   6.753
10761POPC   C3B72621  37.619   6.931   7.053
10761POPC   C4B72622  37.648   6.924   7.353
10762POPC   NC372623   1.227  42.324   5.553
10762POPC   PO472624   1.228  42.315   5.853
10762POPC   GL172625   1.217  42.300   6.153
10762POPC   GL272626   1.134  42.254   6.153
10762POPC   C1A72627   1.245  42.349   6.453
10762POPC   D2A72628   1.220  42.286   6.753
10762POPC   C3A72629   1.256  42.316   7.053
10762POPC   C4A72630   1.257  42.379   7.353
10762POPC   C1B72631   1.173  42.052   6.453
10762POPC   C2B72632   1.123  42.065   6.753
10762POPC   C3B72633   1.156  42.117   7.053
10762POPC   C4B72634   1.151  42.046   7.353
10763POPC   NC372635   1.187  27.637   5.553
10763POPC   PO472636   1.165  27.544   5.853
10763POPC   GL172637   1.262  27.559   6.153
10763POPC   GL272638   1.254  27.737   6.153
10763POPC   C1A72639   1.233  27.628   6.453
10763POPC   D2A72640   1.247  27.619   6.753
10763POPC   C3A72641   1.247  27.634   7.053
10763POPC   C4A72642   1.259  27.620   7.353
10763POPC   C1B72643   1.294  27.822   6.453
10763POPC   C2B72644   1.299  27.850   6.753
10763POPC   C3B72645   1.312  27.830   7.053
10763POPC   C4B72646   1.349  27.768   7.353
10764POPC   NC372647  14.394  10.494   5.553
10764POPC   PO472648  14.419  10.484   5.853
10764POPC   GL172649  14.406  10.476   6.153
10764POPC   GL272650  14.325  10.397   6.153
10764POPC   C1A72651  14.440  10.505   6.453
10764POPC   D2A72652  14.387  10.542   6.753
10764POPC   C3A72653  14.436  10.521   7.053
10764POPC   C4A72654  14.411  10.483   7.353
10764POPC   C1B72655  14.310  10.265   6.453
10764POPC   C2B72656  14.286  10.332   6.753
10764POPC   C3B72657  14.302  10.321   7.053
10764POPC   C4B72658  14.326  10.278   7.353
10765POPC   NC372659   1.216  28.377   5.553
10765POPC   PO472660   1.202  28.398   5.853
10765POPC   GL172661   1.235  28.361   6.153
10765POPC   GL272662   1.345  28.431   6.153
10765POPC   C1A72663   1.230  28.416   6.453
10765POPC   D2A72664   1.224  28.365   6.753
10765POPC   C3A72665   1.232  28.357   7.053
10765POPC   C4A72666   1.192  28.323   7.353
10765POPC   C1B72667   1.439  28.507   6.453
10765POPC   C2B72668   1.371  28.541   6.753
10765POPC   C3B72669   1.436  28.478   7.053
10765POPC   C4B72670   1.416  28.485   7.353
10766POPC   NC372671  32.286  18.260   5.553
10766POPC   PO472672  32.281  18.307   5.853
10766POPC   GL172673  32.264  18.272   6.153
10766POPC   GL272674  32.110  18.221   6.153
10766POPC   C1A72675  32.218  18.288   6.453
10766POPC   D2A72676  32.246  18.321   6.753
10766POPC   C3A72677  32.204  18.303   7.053
10766POPC   C4A72678  32.238  18.320   7.353
10766POPC   C1B72679  32.025  18.198   6.453
10766POPC   C2B72680  32.032  18.152   6.753
10766POPC   C3B72681  31.971  18.218   7.053
10766POPC   C4B72682  32.015  18.209   7.353
10767POPC   NC372683   5.096  23.725   5.553
10767POPC   PO472684   5.064  23.669   5.853
10767POPC   GL172685   5.083  23.744   6.153
10767POPC   GL272686   5.188  23.616   6.153
10767POPC   C1A72687   5.044  23.685   6.453
10767POPC   D2A72688   5.055  23.696   6.753
10767POPC   C3A72689   5.046  23.757   7.053
10767POPC   C4A72690   5.109  23.710   7.353
10767POPC   C1B72691   5.255  23.454   6.453
10767POPC   C2B72692   5.182  23.455   6.753
10767POPC   C3B72693   5.257  23.456   7.053
10767POPC   C4B72694   5.182  23.497   7.353
10768POPC   NC372695   3.558   7.455   5.553
10768POPC   PO472696   3.557   7.375   5.853
10768POPC   GL172697   3.504   7.429   6.153
10768POPC   GL272698   3.678   7.461   6.153
10768POPC   C1A72699   3.492   7.417   6.453
10768POPC   D2A72700   3.493   7.445   6.753
10768POPC   C3A72701   3.520   7.390   7.053
10768POPC   C4A72702   3.499   7.416   7.353
10768POPC   C1B72703   3.762   7.563   6.453
10768POPC   C2B72704   3.753   7.531   6.753
10768POPC   C3B72705   3.805   7.519   7.053
10768POPC   C4B72706   3.729   7.523   7.353
10769POPC   NC372707   0.404  11.278   5.553
10769POPC   PO472708   0.468  11.304   5.853
10769POPC   GL172709   0.464  11.252   6.153
10769POPC   GL272710   0.509  11.323   6.153
10769POPC   C1A72711   0.433  11.293   6.453
10769POPC   D2A72712   0.397  11.347   6.753
10769POPC   C3A72713   0.469  11.342   7.053
10769POPC   C4A72714   0.419  11.341   7.353
10769POPC   C1B72715   0.683  11.444   6.453
10769POPC   C2B72716   0.675  11.398   6.753
10769POPC   C3B72717   0.667  11.458   7.053
10769POPC   C4B72718   0.625  11.452   7.353
10770POPC   NC372719  43.894   9.719   5.553
10770POPC   PO472720  43.928   9.777   5.853
10770POPC   GL172721  43.870   9.791   6.153
10770POPC   GL272722  43.871   9.893   6.153
10770POPC   C1A72723  43.867   9.792   6.453
10770POPC   D2A72724  43.865   9.738   6.753
10770POPC   C3A72725  43.930   9.754   7.053
10770POPC   C4A72726  43.880   9.728   7.353
10770POPC   C1B72727  43.885  10.030   6.453
10770POPC   C2B72728  43.916   9.951   6.753
10770POPC   C3B72729  43.850  10.031   7.053
10770POPC   C4B72730  43.918  10.038   7.353
10771POPC   NC372731  39.241  30.654   5.553
10771POPC   PO472732  39.195  30.723   5.853
10771POPC   GL172733  39.227  30.707   6.153
10771POPC   GL272734  39.149  30.634   6.153
10771POPC   C1A72735  39.227  30.696   6.453
10771POPC   D2A72736  39.185  30.726   6.753
10771POPC   C3A72737  39.203  30.738   7.053
10771POPC   C4A72738  39.230  30.732   7.353
10771POPC   C1B72739  39.030  30.465   6.453
10771POPC   C2B72740  39.071  30.531   6.753
10771POPC   C3B72741  39.100  30.457   7.053
10771POPC   C4B72742  39.070  30.502   7.353
10772POPC   NC372743   6.600   9.699   5.553
10772POPC   PO472744   6.682   9.740   5.853
10772POPC   GL172745   6.639   9.793   6.153
10772POPC   GL272746   6.574   9.844   6.153
10772POPC   C1A72747   6.672   9.773   6.453
10772POPC   D2A72748   6.660   9.749   6.753
10772POPC   C3A72749   6.662   9.741   7.053
10772POPC   C4A72750   6.678   9.764   7.353
10772POPC   C1B72751   6.493   9.966   6.453
10772POPC   C2B72752   6.525   9.925   6.753
10772POPC   C3B72753   6.548   9.942   7.053
10772POPC   C4B72754   6.511  10.004   7.353
10773POPC   NC372755  43.115  25.242   5.553
10773POPC   PO472756  43.118  25.263   5.853
10773POPC   GL172757  43.114  25.304   6.153
10773POPC   GL272758  43.033  25.385   6.153
10773POPC   C1A72759  43.102  25.306   6.453
10773POPC   D2A72760  43.088  25.269   6.753
10773POPC   C3A72761  43.072  25.282   7.053
10773POPC   C4A72762  43.121  25.235   7.353
10773POPC   C1B72763  42.922  25.462   6.453
10773POPC   C2B72764  42.998  25.443   6.753
10773POPC   C3B72765  42.947  25.472   7.053
10773POPC   C4B72766  42.996  25.520   7.353
10774POPC   NC372767  28.328  13.594   5.553
10774POPC   PO472768  28.386  13.603   5.853
10774POPC   GL172769  28.339  13.602   6.153
10774POPC   GL272770  28.466  13.692   6.153
10774POPC   C1A72771  28.378  13.614   6.453
10774POPC   D2A72772  28.407  13.579   6.753
10774POPC   C3A72773  28.358  13.651   7.053
10774POPC   C4A72774  28.398  13.674   7.353
10774POPC   C1B72775  28.641  13.726   6.453
10774POPC   C2B72776  28.598  13.716   6.753
10774POPC   C3B72777  28.604  13.701   7.053
10774POPC   C4B72778  28.636  13.767   7.353
10775POPC   NC372779  35.360  27.550   5.553
10775POPC   PO472780  35.319  27.626   5.853
10775POPC   GL172781  35.312  27.634   6.153
10775POPC   GL272782  35.429  27.744   6.153
10775POPC   C1A72783  35.377  27.629   6.453
10775POPC   D2A72784  35.386  27.625   6.753
10775POPC   C3A72785  35.370  27.589   7.053
10775POPC   C4A72786  35.399  27.577   7.353
10775POPC   C1B72787  35.450  27.851   6.453
10775POPC   C2B72788  35.440  27.808   6.753
10775POPC   C3B72789  35.429  27.829   7.053
10775POPC   C4B72790  35.396  27.836   7.353
10776POPC   NC372791  13.642  32.976   5.553
10776POPC   PO472792  13.583  33.030   5.853
10776POPC   GL172793  13.634  33.053   6.153
10776POPC   GL272794  13.496  32.979   6.153
10776POPC   C1A72795  13.602  33.043   6.453
10776POPC   D2A72796  13.598  33.072   6.753
10776POPC   C3A72797  13.677  32.986   7.053
10776POPC   C4A72798  13.616  32.994   7.353
10776POPC   C1B72799  13.406  32.923   6.453
10776POPC   C2B72800  13.404  32.924   6.753
10776POPC   C3B72801  13.427  32.946   7.053
10776POPC   C4B72802  13.448  32.876   7.353
10777POPC   NC372803   2.741  15.209   5.553
10777POPC   PO472804   2.719  15.185   5.853
10777POPC   GL172805   2.773  15.227   6.153
10777POPC   GL272806   2.700  15.294   6.153
10777POPC   C1A72807   2.743  15.177   6.453
10777POPC   D2A72808   2.803  15.141   6.753
10777POPC   C3A72809   2.807  15.215   7.053
10777POPC   C4A72810   2.789  15.228   7.353
10777POPC   C1B72811   2.656  15.373   6.453
10777POPC   C2B72812   2.636  15.366   6.753
10777POPC   C3B72813   2.706  15.419   7.053
10777POPC   C4B72814   2.726  15.406   7.353
10778POPC   NC372815   5.876  26.768   5.553
10778POPC   PO472816   5.866  26.840   5.853
10778POPC   GL172817   5.890  26.861   6.153
10778POPC   GL272818   6.014  26.717   6.153
10778POPC   C1A72819   5.821  26.778   6.453
10778POPC   D2A72820   5.863  26.812   6.753
10778POPC   C3A72821   5.908  26.838   7.053
10778POPC   C4A72822   5.867  26.861   7.353
10778POPC   C1B72823   6.109  26.649   6.453
10778POPC   C2B72824   6.065  26.717   6.753
10778POPC   C3B72825   6.127  26.659   7.053
10778POPC   C4B72826   6.063  26.665   7.353
10779POPC   NC372827  12.825   4.297   5.553
10779POPC   PO472828  12.863   4.351   5.853
10779POPC   GL172829  12.828   4.333   6.153
10779POPC   GL272830  12.802   4.387   6.153
10779POPC   C1A72831  12.834   4.337   6.453
10779POPC   D2A72832  12.899   4.276   6.753
10779POPC   C3A72833  12.900   4.302   7.053
10779POPC   C4A72834  12.845   4.277   7.353
10779POPC   C1B72835  12.742   4.560   6.453
10779POPC   C2B72836  12.764   4.584   6.753
10779POPC   C3B72837  12.736   4.508   7.053
10779POPC   C4B72838  12.780   4.513   7.353
10780POPC   NC372839  16.746  19.031   5.553
10780POPC   PO472840  16.768  19.083   5.853
10780POPC   GL172841  16.697  19.054   6.153
10780POPC   GL272842  16.756  19.181   6.153
10780POPC   C1A72843  16.780  19.028   6.453
10780POPC   D2A72844  16.739  19.060   6.753
10780POPC   C3A72845  16.766  19.106   7.053
10780POPC   C4A72846  16.696  19.071   7.353
10780POPC   C1B72847  16.784  19.292   6.453
10780POPC   C2B72848  16.772  19.297   6.753
10780POPC   C3B72849  16.778  19.297   7.053
10780POPC   C4B72850  16.824  19.269   7.353
10781POPC   NC372851   8.938  33.001   5.553
10781POPC   PO472852   8.989  33.041   5.853
10781POPC   GL172853   9.001  33.072   6.153
10781POPC   GL272854   9.066  33.011   6.153
10781POPC   C1A72855   9.002  33.027   6.453
10781POPC   D2A72856   8.928  33.012   6.753
10781POPC   C3A72857   9.005  33.001   7.053
10781POPC   C4A72858   9.017  33.064   7.353
10781POPC   C1B72859   9.199  32.978   6.453
10781POPC   C2B72860   9.210  32.959   6.753
10781POPC   C3B72861   9.193  32.987   7.053
10781POPC   C4B72862   9.236  32.974   7.353
10782POPC   NC372863  35.350  38.460   5.553
10782POPC   PO472864  35.400  38.480   5.853
10782POPC   GL172865  35.380  38.461   6.153
10782POPC   GL272866  35.310  38.513   6.153
10782POPC   C1A72867  35.375  38.411   6.453
10782POPC   D2A72868  35.345  38.413   6.753
10782POPC   C3A72869  35.397  38.432   7.053
10782POPC   C4A72870  35.320  38.450   7.353
10782POPC   C1B72871  35.236  38.657   6.453
10782POPC   C2B72872  35.160  38.655   6.753
10782POPC   C3B72873  35.199  38.620   7.053
10782POPC   C4B72874  35.149  38.619   7.353
10783POPC   NC372875  33.016  33.033   5.553
10783POPC   PO472876  32.979  32.993   5.853
10783POPC   GL172877  33.062  32.999   6.153
10783POPC   GL272878  33.150  32.951   6.153
10783POPC   C1A72879  32.989  33.028   6.453
10783POPC   D2A72880  33.018  33.003   6.753
10783POPC   C3A72881  33.026  32.977   7.053
10783POPC   C4A72882  33.004  32.988   7.353
10783POPC   C1B72883  33.294  32.955   6.453
10783POPC   C2B72884  33.300  32.959   6.753
10783POPC   C3B72885  33.253  32.956   7.053
10783POPC   C4B72886  33.298  32.954   7.353
10784POPC   NC372887  29.150   6.613   5.553
10784POPC   PO472888  29.172   6.683   5.853
10784POPC   GL172889  29.101   6.607   6.153
10784POPC   GL272890  29.156   6.502   6.153
10784POPC   C1A72891  29.101   6.615   6.453
10784POPC   D2A72892  29.118   6.664   6.753
10784POPC   C3A72893  29.178   6.638   7.053
10784POPC   C4A72894  29.136   6.645   7.353
10784POPC   C1B72895  29.104   6.425   6.453
10784POPC   C2B72896  29.053   6.429   6.753
10784POPC   C3B72897  29.104   6.420   7.053
10784POPC   C4B72898  29.046   6.393   7.353
10785POPC   NC372899   1.238  26.797   5.553
10785POPC   PO472900   1.179  26.836   5.853
10785POPC   GL172901   1.201  26.772   6.153
10785POPC   GL272902   1.294  26.755   6.153
10785POPC   C1A72903   1.214  26.800   6.453
10785POPC   D2A72904   1.195  26.850   6.753
10785POPC   C3A72905   1.208  26.866   7.053
10785POPC   C4A72906   1.191  26.781   7.353
10785POPC   C1B72907   1.422  26.684   6.453
10785POPC   C2B72908   1.398  26.651   6.753
10785POPC   C3B72909   1.401  26.626   7.053
10785POPC   C4B72910   1.455  26.628   7.353
10786POPC   NC372911   9.700  41.595   5.553
10786POPC   PO472912   9.793  41.523   5.853
10786POPC   GL172913   9.727  41.602   6.153
10786POPC   GL272914   9.656  41.640   6.153
10786POPC   C1A72915   9.750  41.529   6.453
10786POPC   D2A72916   9.718  41.583   6.753
10786POPC   C3A72917   9.765  41.537   7.053
10786POPC   C4A72918   9.702  41.527   7.353
10786POPC   C1B72919   9.549  41.664   6.453
10786POPC   C2B72920   9.534  41.665   6.753
10786POPC   C3B72921   9.501  41.681   7.053
10786POPC   C4B72922   9.542  41.600   7.353
10787POPC   NC372923  43.919   8.944   5.553
10787POPC   PO472924  43.912   8.979   5.853
10787POPC   GL172925  43.840   8.937   6.153
10787POPC   GL272926  43.919   9.064   6.153
10787POPC   C1A72927  43.879   8.980   6.453
10787POPC   D2A72928  43.859   9.019   6.753
10787POPC   C3A72929  43.884   8.935   7.053
10787POPC   C4A72930  43.925   8.942   7.353
10787POPC   C1B72931  43.950   9.238   6.453
10787POPC   C2B72932  43.974   9.149   6.753
10787POPC   C3B72933  44.033   9.157   7.053
10787POPC   C4B72934  43.971   9.243   7.353
10788POPC   NC372935  20.575  20.654   5.553
10788POPC   PO472936  20.574  20.607   5.853
10788POPC   GL172937  20.562  20.625   6.153
10788POPC   GL272938  20.715  20.653   6.153
10788POPC   C1A72939  20.577  20.624   6.453
10788POPC   D2A72940  20.568  20.640   6.753
10788POPC   C3A72941  20.616  20.625   7.053
10788POPC   C4A72942  20.614  20.645   7.353
10788POPC   C1B72943  20.871  20.681   6.453
10788POPC   C2B72944  20.897  20.656   6.753
10788POPC   C3B72945  20.896  20.676   7.053
10788POPC   C4B72946  20.822  20.631   7.353
10789POPC   NC372947  36.855  36.908   5.553
10789POPC   PO472948  36.904  36.899   5.853
10789POPC   GL172949  36.917  36.891   6.153
10789POPC   GL272950  36.817  36.807   6.153
10789POPC   C1A72951  36.908  36.911   6.453
10789POPC   D2A72952  36.894  36.893   6.753
10789POPC   C3A72953  36.945  36.951   7.053
10789POPC   C4A72954  36.884  36.901   7.353
10789POPC   C1B72955  36.674  36.800   6.453
10789POPC   C2B72956  36.683  36.764   6.753
10789POPC   C3B72957  36.668  36.747   7.053
10789POPC   C4B72958  36.670  36.732   7.353
10790POPC   NC372959  19.082  33.000   5.553
10790POPC   PO472960  19.048  33.019   5.853
10790POPC   GL172961  19.101  33.027   6.153
10790POPC   GL272962  18.982  33.155   6.153
10790POPC   C1A72963  19.061  33.007   6.453
10790POPC   D2A72964  19.042  33.026   6.753
10790POPC   C3A72965  19.038  33.002   7.053
10790POPC   C4A72966  19.051  33.058   7.353
10790POPC   C1B72967  18.893  33.280   6.453
10790POPC   C2B72968  18.937  33.252   6.753
10790POPC   C3B72969  18.972  33.270   7.053
10790POPC   C4B72970  18.978  33.274   7.353
10791POPC   NC372971  11.350  31.472   5.553
10791POPC   PO472972  11.310  31.464   5.853
10791POPC   GL172973  11.323  31.453   6.153
10791POPC   GL272974  11.406  31.519   6.153
10791POPC   C1A72975  11.303  31.491   6.453
10791POPC   D2A72976  11.254  31.437   6.753
10791POPC   C3A72977  11.331  31.441   7.053
10791POPC   C4A72978  11.265  31.454   7.353
10791POPC   C1B72979  11.580  31.525   6.453
10791POPC   C2B72980  11.529  31.476   6.753
10791POPC   C3B72981  11.584  31.441   7.053
10791POPC   C4B72982  11.536  31.521   7.353
10792POPC   NC372983   1.969  29.116   5.553
10792POPC   PO472984   1.943  29.108   5.853
10792POPC   GL172985   2.023  29.126   6.153
10792POPC   GL272986   1.879  29.274   6.153
10792POPC   C1A72987   1.994  29.174   6.453
10792POPC   D2A72988   1.977  29.182   6.753
10792POPC   C3A72989   1.992  29.125   7.053
10792POPC   C4A72990   2.011  29.099   7.353
10792POPC   C1B72991   1.843  29.352   6.453
10792POPC   C2B72992   1.808  29.297   6.753
10792POPC   C3B72993   1.849  29.336   7.053
10792POPC   C4B72994   1.810  29.352   7.353
10793POPC   NC372995  34.609  44.626   5.553
10793POPC   PO472996  34.529  44.620   5.853
10793POPC   GL172997  34.551  44.647   6.153
10793POPC   GL272998  34.483  44.619   6.153
10793POPC   C1A72999  34.567  44.622   6.453
10793POPC   D2A73000  34.574  44.686   6.753
10793POPC   C3A73001  34.536  44.673   7.053
10793POPC   C4A73002  34.530  44.650   7.353
10793POPC   C1B73003  34.284  44.651   6.453
10793POPC   C2B73004  34.318  44.609   6.753
10793POPC   C3B73005  34.377  44.671   7.053
10793POPC   C4B73006  34.338  44.606   7.353
10794POPC   NC373007  34.569  18.278   5.553
10794POPC   PO473008  34.534  18.315   5.853
10794POPC   GL173009  34.604  18.276   6.153
10794POPC   GL273010  34.529  18.223   6.153
10794POPC   C1A73011  34.591  18.268   6.453
10794POPC   D2A73012  34.548  18.272   6.753
10794POPC   C3A73013  34.622  18.316   7.053
10794POPC   C4A73014  34.615  18.258   7.353
10794POPC   C1B73015  34.453  18.064   6.453
10794POPC   C2B73016  34.456  18.047   6.753
10794POPC   C3B73017  34.419  18.072   7.053
10794POPC   C4B73018  34.398  18.046   7.353
10795POPC   NC373019  32.200  43.900   5.553
10795POPC   PO473020  32.232  43.860   5.853
10795POPC   GL173021  32.214  43.889   6.153
10795POPC   GL273022  32.306  43.985   6.153
10795POPC   C1A73023  32.204  43.907   6.453
10795POPC   D2A73024  32.227  43.906   6.753
10795POPC   C3A73025  32.223  43.877   7.053
10795POPC   C4A73026  32.285  43.917   7.353
10795POPC   C1B73027  32.376  44.061   6.453
10795POPC   C2B73028  32.375  44.079   6.753
10795POPC   C3B73029  32.427  44.077   7.053
10795POPC   C4B73030  32.444  44.037   7.353
10796POPC   NC373031  43.081  43.154   5.553
10796POPC   PO473032  43.129  43.092   5.853
10796POPC   GL173033  43.126  43.064   6.153
10796POPC   GL273034  43.118  43.194   6.153
10796POPC   C1A73035  43.126  43.157   6.453
10796POPC   D2A73036  43.116  43.136   6.753
10796POPC   C3A73037  43.128  43.101   7.053
10796POPC   C4A73038  43.132  43.143   7.353
10796POPC   C1B73039  43.192  43.390   6.453
10796POPC   C2B73040  43.171  43.362   6.753
10796POPC   C3B73041  43.168  43.313   7.053
10796POPC   C4B73042  43.134  43.366   7.353
10797POPC   NC373043   2.021  31.470   5.553
10797POPC   PO473044   1.962  31.522   5.853
10797POPC   GL173045   1.985  31.462   6.153
10797POPC   GL273046   1.829  31.454   6.153
10797POPC   C1A73047   1.949  31.437   6.453
10797POPC   D2A73048   1.992  31.483   6.753
10797POPC   C3A73049   1.950  31.486   7.053
10797POPC   C4A73050   2.025  31.506   7.353
10797POPC   C1B73051   1.736  31.415   6.453
10797POPC   C2B73052   1.724  31.458   6.753
10797POPC   C3B73053   1.730  31.477   7.053
10797POPC   C4B73054   1.732  31.449   7.353
10798POPC   NC373055  26.846  23.697   5.553
10798POPC   PO473056  26.816  23.713   5.853
10798POPC   GL173057  26.787  23.666   6.153
10798POPC   GL273058  26.947  23.657   6.153
10798POPC   C1A73059  26.848  23.757   6.453
10798POPC   D2A73060  26.820  23.710   6.753
10798POPC   C3A73061  26.803  23.698   7.053
10798POPC   C4A73062  26.810  23.665   7.353
10798POPC   C1B73063  27.022  23.728   6.453
10798POPC   C2B73064  27.110  23.716   6.753
10798POPC   C3B73065  27.090  23.681   7.053
10798POPC   C4B73066  27.112  23.667   7.353
10799POPC   NC373067   8.977  32.217   5.553
10799POPC   PO473068   8.935  32.220   5.853
10799POPC   GL173069   8.974  32.241   6.153
10799POPC   GL273070   9.005  32.184   6.153
10799POPC   C1A73071   8.971  32.276   6.453
10799POPC   D2A73072   8.929  32.260   6.753
10799POPC   C3A73073   8.977  32.228   7.053
10799POPC   C4A73074   9.011  32.202   7.353
10799POPC   C1B73075   9.082  32.035   6.453
10799POPC   C2B73076   9.147  32.077   6.753
10799POPC   C3B73077   9.078  32.029   7.053
10799POPC   C4B73078   9.062  32.083   7.353
10800POPC   NC373079   5.824   8.152   5.553
10800POPC   PO473080   5.899   8.167   5.853
10800POPC   GL173081   5.877   8.180   6.153
10800POPC   GL273082   5.896   8.115   6.153
10800POPC   C1A73083   5.886   8.229   6.453
10800POPC   D2A73084   5.870   8.210   6.753
10800POPC   C3A73085   5.855   8.154   7.053
10800POPC   C4A73086   5.823   8.227   7.353
10800POPC   C1B73087   5.953   7.963   6.453
10800POPC   C2B73088   5.953   7.994   6.753
10800POPC   C3B73089   5.992   7.994   7.053
10800POPC   C4B73090   5.997   7.945   7.353
10801POPC   NC373091  23.667  42.290   5.553
10801POPC   PO473092  23.667  42.339   5.853
10801POPC   GL173093  23.753  42.308   6.153
10801POPC   GL273094  23.685  42.422   6.153
10801POPC   C1A73095  23.723  42.334   6.453
10801POPC   D2A73096  23.711  42.384   6.753
10801POPC   C3A73097  23.738  42.339   7.053
10801POPC   C4A73098  23.722  42.340   7.353
10801POPC   C1B73099  23.712  42.567   6.453
10801POPC   C2B73100  23.655  42.602   6.753
10801POPC   C3B73101  23.686  42.574   7.053
10801POPC   C4B73102  23.700  42.626   7.353
10802POPC   NC373103  37.710  13.676   5.553
10802POPC   PO473104  37.650  13.647   5.853
10802POPC   GL173105  37.669  13.617   6.153
10802POPC   GL273106  37.811  13.666   6.153
10802POPC   C1A73107  37.729  13.632   6.453
10802POPC   D2A73108  37.671  13.641   6.753
10802POPC   C3A73109  37.694  13.581   7.053
10802POPC   C4A73110  37.705  13.674   7.353
10802POPC   C1B73111  37.869  13.771   6.453
10802POPC   C2B73112  37.950  13.687   6.753
10802POPC   C3B73113  37.899  13.744   7.053
10802POPC   C4B73114  37.891  13.727   7.353
10803POPC   NC373115  26.792  37.695   5.553
10803POPC   PO473116  26.855  37.652   5.853
10803POPC   GL173117  26.821  37.708   6.153
10803POPC   GL273118  26.775  37.564   6.153
10803POPC   C1A73119  26.795  37.706   6.453
10803POPC   D2A73120  26.802  37.698   6.753
10803POPC   C3A73121  26.784  37.729   7.053
10803POPC   C4A73122  26.837  37.675   7.353
10803POPC   C1B73123  26.763  37.421   6.453
10803POPC   C2B73124  26.806  37.404   6.753
10803POPC   C3B73125  26.745  37.460   7.053
10803POPC   C4B73126  26.806  37.451   7.353
10804POPC   NC373127  25.253  42.368   5.553
10804POPC   PO473128  25.255  42.293   5.853
10804POPC   GL173129  25.231  42.329   6.153
10804POPC   GL273130  25.394  42.323   6.153
10804POPC   C1A73131  25.308  42.381   6.453
10804POPC   D2A73132  25.227  42.305   6.753
10804POPC   C3A73133  25.303  42.372   7.053
10804POPC   C4A73134  25.303  42.344   7.353
10804POPC   C1B73135  25.548  42.270   6.453
10804POPC   C2B73136  25.494  42.253   6.753
10804POPC   C3B73137  25.469  42.244   7.053
10804POPC   C4B73138  25.532  42.232   7.353
10805POPC   NC373139  22.137  19.097   5.553
10805POPC   PO473140  22.126  19.101   5.853
10805POPC   GL173141  22.128  19.042   6.153
10805POPC   GL273142  22.253  19.094   6.153
10805POPC   C1A73143  22.117  19.046   6.453
10805POPC   D2A73144  22.143  19.013   6.753
10805POPC   C3A73145  22.182  19.072   7.053
10805POPC   C4A73146  22.177  19.015   7.353
10805POPC   C1B73147  22.369  19.159   6.453
10805POPC   C2B73148  22.331  19.177   6.753
10805POPC   C3B73149  22.345  19.198   7.053
10805POPC   C4B73150  22.370  19.231   7.353
10806POPC   NC373151   1.224   4.361   5.553
10806POPC   PO473152   1.172   4.353   5.853
10806POPC   GL173153   1.253   4.353   6.153
10806POPC   GL273154   1.138   4.250   6.153
10806POPC   C1A73155   1.173   4.361   6.453
10806POPC   D2A73156   1.214   4.306   6.753
10806POPC   C3A73157   1.253   4.331   7.053
10806POPC   C4A73158   1.171   4.352   7.353
10806POPC   C1B73159   1.084   4.130   6.453
10806POPC   C2B73160   1.085   4.084   6.753
10806POPC   C3B73161   1.098   4.138   7.053
10806POPC   C4B73162   1.105   4.128   7.353
10807POPC   NC373163  10.568  38.469   5.553
10807POPC   PO473164  10.519  38.412   5.853
10807POPC   GL173165  10.503  38.493   6.153
10807POPC   GL273166  10.412  38.552   6.153
10807POPC   C1A73167  10.538  38.457   6.453
10807POPC   D2A73168  10.563  38.418   6.753
10807POPC   C3A73169  10.526  38.407   7.053
10807POPC   C4A73170  10.495  38.448   7.353
10807POPC   C1B73171  10.387  38.644   6.453
10807POPC   C2B73172  10.322  38.604   6.753
10807POPC   C3B73173  10.337  38.654   7.053
10807POPC   C4B73174  10.324  38.616   7.353
10808POPC   NC373175  11.265  15.140   5.553
10808POPC   PO473176  11.303  15.134   5.853
10808POPC   GL173177  11.324  15.145   6.153
10808POPC   GL273178  11.215  15.136   6.153
10808POPC   C1A73179  11.342  15.154   6.453
10808POPC   D2A73180  11.257  15.160   6.753
10808POPC   C3A73181  11.267  15.171   7.053
10808POPC   C4A73182  11.267  15.188   7.353
10808POPC   C1B73183  11.128  14.995   6.453
10808POPC   C2B73184  11.093  15.009   6.753
10808POPC   C3B73185  11.116  14.966   7.053
10808POPC   C4B73186  11.092  15.057   7.353
10809POPC   NC373187   3.562  16.738   5.553
10809POPC   PO473188   3.525  16.706   5.853
10809POPC   GL173189   3.569  16.769   6.153
10809POPC   GL273190   3.459  16.630   6.153
10809POPC   C1A73191   3.532  16.710   6.453
10809POPC   D2A73192   3.591  16.695   6.753
10809POPC   C3A73193   3.564  16.726   7.053
10809POPC   C4A73194   3.556  16.773   7.353
10809POPC   C1B73195   3.326  16.521   6.453
10809POPC   C2B73196   3.350  16.601   6.753
10809POPC   C3B73197   3.409  16.524   7.053
10809POPC   C4B73198   3.320  16.579   7.353
10810POPC   NC373199  36.118  15.963   5.553
10810POPC   PO473200  36.096  15.995   5.853
10810POPC   GL173201  36.117  15.993   6.153
10810POPC   GL273202  36.168  16.092   6.153
10810POPC   C1A73203  36.104  15.945   6.453
10810POPC   D2A73204  36.109  15.963   6.753
10810POPC   C3A73205  36.144  15.926   7.053
10810POPC   C4A73206  36.105  16.005   7.353
10810POPC   C1B73207  36.178  16.184   6.453
10810POPC   C2B73208  36.176  16.232   6.753
10810POPC   C3B73209  36.203  16.204   7.053
10810POPC   C4B73210  36.174  16.177   7.353
10811POPC   NC373211  32.252  13.584   5.553
10811POPC   PO473212  32.273  13.649   5.853
10811POPC   GL173213  32.276  13.585   6.153
10811POPC   GL273214  32.178  13.486   6.153
10811POPC   C1A73215  32.250  13.670   6.453
10811POPC   D2A73216  32.260  13.627   6.753
10811POPC   C3A73217  32.292  13.616   7.053
10811POPC   C4A73218  32.288  13.674   7.353
10811POPC   C1B73219  32.174  13.361   6.453
10811POPC   C2B73220  32.163  13.447   6.753
10811POPC   C3B73221  32.133  13.376   7.053
10811POPC   C4B73222  32.124  13.392   7.353
10812POPC   NC373223  27.585  35.321   5.553
10812POPC   PO473224  27.563  35.394   5.853
10812POPC   GL173225  27.614  35.304   6.153
10812POPC   GL273226  27.508  35.386   6.153
10812POPC   C1A73227  27.589  35.368   6.453
10812POPC   D2A73228  27.548  35.315   6.753
10812POPC   C3A73229  27.544  35.359   7.053
10812POPC   C4A73230  27.621  35.386   7.353
10812POPC   C1B73231  27.296  35.376   6.453
10812POPC   C2B73232  27.360  35.340   6.753
10812POPC   C3B73233  27.367  35.406   7.053
10812POPC   C4B73234  27.347  35.407   7.353
10813POPC   NC373235  40.044  14.362   5.553
10813POPC   PO473236  40.025  14.372   5.853
10813POPC   GL173237  39.957  14.418   6.153
10813POPC   GL273238  39.875  14.439   6.153
10813POPC   C1A73239  40.046  14.436   6.453
10813POPC   D2A73240  39.983  14.440   6.753
10813POPC   C3A73241  40.015  14.450   7.053
10813POPC   C4A73242  40.022  14.423   7.353
10813POPC   C1B73243  39.780  14.416   6.453
10813POPC   C2B73244  39.785  14.398   6.753
10813POPC   C3B73245  39.715  14.381   7.053
10813POPC   C4B73246  39.732  14.392   7.353
10814POPC   NC373247  34.564  33.001   5.553
10814POPC   PO473248  34.576  32.978   5.853
10814POPC   GL173249  34.559  33.056   6.153
10814POPC   GL273250  34.456  33.002   6.153
10814POPC   C1A73251  34.553  33.031   6.453
10814POPC   D2A73252  34.609  32.981   6.753
10814POPC   C3A73253  34.531  33.062   7.053
10814POPC   C4A73254  34.611  33.043   7.353
10814POPC   C1B73255  34.313  33.083   6.453
10814POPC   C2B73256  34.355  33.082   6.753
10814POPC   C3B73257  34.362  33.099   7.053
10814POPC   C4B73258  34.339  33.112   7.353
10815POPC   NC373259  14.389   1.190   5.553
10815POPC   PO473260  14.437   1.255   5.853
10815POPC   GL173261  14.399   1.217   6.153
10815POPC   GL273262  14.231   1.250   6.153
10815POPC   C1A73263  14.401   1.234   6.453
10815POPC   D2A73264  14.421   1.203   6.753
10815POPC   C3A73265  14.377   1.182   7.053
10815POPC   C4A73266  14.388   1.230   7.353
10815POPC   C1B73267  14.151   1.253   6.453
10815POPC   C2B73268  14.130   1.199   6.753
10815POPC   C3B73269  14.157   1.275   7.053
10815POPC   C4B73270  14.112   1.281   7.353
10816POPC   NC373271  11.308  29.170   5.553
10816POPC   PO473272  11.314  29.124   5.853
10816POPC   GL173273  11.348  29.161   6.153
10816POPC   GL273274  11.212  29.045   6.153
10816POPC   C1A73275  11.336  29.189   6.453
10816POPC   D2A73276  11.312  29.113   6.753
10816POPC   C3A73277  11.279  29.164   7.053
10816POPC   C4A73278  11.297  29.185   7.353
10816POPC   C1B73279  11.112  28.957   6.453
10816POPC   C2B73280  11.066  28.996   6.753
10816POPC   C3B73281  11.055  28.981   7.053
10816POPC   C4B73282  11.054  29.028   7.353
10817POPC   NC373283   1.254  25.287   5.553
10817POPC   PO473284   1.164  25.304   5.853
10817POPC   GL173285   1.204  25.222   6.153
10817POPC   GL273286   1.307  25.254   6.153
10817POPC   C1A73287   1.257  25.248   6.453
10817POPC   D2A73288   1.248  25.219   6.753
10817POPC   C3A73289   1.233  25.303   7.053
10817POPC   C4A73290   1.244  25.229   7.353
10817POPC   C1B73291   1.403  25.142   6.453
10817POPC   C2B73292   1.431  25.102   6.753
10817POPC   C3B73293   1.386  25.137   7.053
10817POPC   C4B73294   1.397  25.135   7.353
10818POPC   NC373295  42.314  12.027   5.553
10818POPC   PO473296  42.347  12.103   5.853
10818POPC   GL173297  42.380  12.043   6.153
10818POPC   GL273298  42.386  12.171   6.153
10818POPC   C1A73299  42.379  12.079   6.453
10818POPC   D2A73300  42.325  12.107   6.753
10818POPC   C3A73301  42.286  12.046   7.053
10818POPC   C4A73302  42.327  12.124   7.353
10818POPC   C1B73303  42.380  12.319   6.453
10818POPC   C2B73304  42.367  12.357   6.753
10818POPC   C3B73305  42.390  12.296   7.053
10818POPC   C4B73306  42.401  12.279   7.353
10819POPC   NC373307  11.265  11.318   5.553
10819POPC   PO473308  11.322  11.339   5.853
10819POPC   GL173309  11.331  11.276   6.153
10819POPC   GL273310  11.270  11.233   6.153
10819POPC   C1A73311  11.299  11.341   6.453
10819POPC   D2A73312  11.337  11.294   6.753
10819POPC   C3A73313  11.314  11.274   7.053
10819POPC   C4A73314  11.323  11.342   7.353
10819POPC   C1B73315  11.238  11.039   6.453
10819POPC   C2B73316  11.189  11.093   6.753
10819POPC   C3B73317  11.235  11.036   7.053
10819POPC   C4B73318  11.227  11.066   7.353
10820POPC   NC373319  18.237   7.396   5.553
10820POPC   PO473320  18.298   7.390   5.853
10820POPC   GL173321  18.261   7.469   6.153
10820POPC   GL273322  18.177   7.446   6.153
10820POPC   C1A73323  18.285   7.397   6.453
10820POPC   D2A73324  18.264   7.409   6.753
10820POPC   C3A73325  18.260   7.409   7.053
10820POPC   C4A73326  18.285   7.442   7.353
10820POPC   C1B73327  17.998   7.427   6.453
10820POPC   C2B73328  18.049   7.474   6.753
10820POPC   C3B73329  18.020   7.483   7.053
10820POPC   C4B73330  18.035   7.424   7.353
10821POPC   NC373331  35.362  28.406   5.553
10821POPC   PO473332  35.363  28.413   5.853
10821POPC   GL173333  35.352  28.321   6.153
10821POPC   GL273334  35.207  28.360   6.153
10821POPC   C1A73335  35.363  28.333   6.453
10821POPC   D2A73336  35.398  28.360   6.753
10821POPC   C3A73337  35.395  28.374   7.053
10821POPC   C4A73338  35.348  28.395   7.353
10821POPC   C1B73339  35.106  28.380   6.453
10821POPC   C2B73340  35.115  28.335   6.753
10821POPC   C3B73341  35.124  28.341   7.053
10821POPC   C4B73342  35.113  28.420   7.353
10822POPC   NC373343  34.582  31.458   5.553
10822POPC   PO473344  34.575  31.519   5.853
10822POPC   GL173345  34.616  31.435   6.153
10822POPC   GL273346  34.499  31.622   6.153
10822POPC   C1A73347  34.533  31.505   6.453
10822POPC   D2A73348  34.557  31.519   6.753
10822POPC   C3A73349  34.623  31.451   7.053
10822POPC   C4A73350  34.582  31.489   7.353
10822POPC   C1B73351  34.417  31.726   6.453
10822POPC   C2B73352  34.496  31.720   6.753
10822POPC   C3B73353  34.453  31.658   7.053
10822POPC   C4B73354  34.482  31.640   7.353
10823POPC   NC373355   1.194  11.250   5.553
10823POPC   PO473356   1.198  11.331   5.853
10823POPC   GL173357   1.202  11.315   6.153
10823POPC   GL273358   1.254  11.422   6.153
10823POPC   C1A73359   1.244  11.308   6.453
10823POPC   D2A73360   1.227  11.252   6.753
10823POPC   C3A73361   1.205  11.299   7.053
10823POPC   C4A73362   1.241  11.310   7.353
10823POPC   C1B73363   1.235  11.542   6.453
10823POPC   C2B73364   1.283  11.549   6.753
10823POPC   C3B73365   1.239  11.572   7.053
10823POPC   C4B73366   1.212  11.588   7.353
10824POPC   NC373367  18.235  31.442   5.553
10824POPC   PO473368  18.313  31.447   5.853
10824POPC   GL173369  18.237  31.438   6.153
10824POPC   GL273370  18.243  31.592   6.153
10824POPC   C1A73371  18.240  31.435   6.453
10824POPC   D2A73372  18.235  31.436   6.753
10824POPC   C3A73373  18.308  31.471   7.053
10824POPC   C4A73374  18.297  31.442   7.353
10824POPC   C1B73375  18.199  31.707   6.453
10824POPC   C2B73376  18.220  31.698   6.753
10824POPC   C3B73377  18.180  31.726   7.053
10824POPC   C4B73378  18.163  31.740   7.353
10825POPC   NC373379  12.093  23.665   5.553
10825POPC   PO473380  12.109  23.688   5.853
10825POPC   GL173381  12.124  23.762   6.153
10825POPC   GL273382  12.057  23.832   6.153
10825POPC   C1A73383  12.109  23.754   6.453
10825POPC   D2A73384  12.073  23.759   6.753
10825POPC   C3A73385  12.077  23.723   7.053
10825POPC   C4A73386  12.050  23.694   7.353
10825POPC   C1B73387  12.101  23.998   6.453
10825POPC   C2B73388  12.051  23.952   6.753
10825POPC   C3B73389  12.096  23.999   7.053
10825POPC   C4B73390  12.075  24.006   7.353
10826POPC   NC373391   7.414   2.742   5.553
10826POPC   PO473392   7.444   2.756   5.853
10826POPC   GL173393   7.408   2.802   6.153
10826POPC   GL273394   7.406   2.833   6.153
10826POPC   C1A73395   7.425   2.729   6.453
10826POPC   D2A73396   7.390   2.808   6.753
10826POPC   C3A73397   7.439   2.785   7.053
10826POPC   C4A73398   7.404   2.797   7.353
10826POPC   C1B73399   7.334   3.032   6.453
10826POPC   C2B73400   7.254   2.949   6.753
10826POPC   C3B73401   7.281   2.953   7.053
10826POPC   C4B73402   7.301   3.005   7.353
10827POPC   NC373403  33.843  10.548   5.553
10827POPC   PO473404  33.850  10.547   5.853
10827POPC   GL173405  33.835  10.558   6.153
10827POPC   GL273406  33.839  10.611   6.153
10827POPC   C1A73407  33.767  10.557   6.453
10827POPC   D2A73408  33.832  10.532   6.753
10827POPC   C3A73409  33.788  10.536   7.053
10827POPC   C4A73410  33.817  10.553   7.353
10827POPC   C1B73411  33.849  10.754   6.453
10827POPC   C2B73412  33.875  10.774   6.753
10827POPC   C3B73413  33.870  10.742   7.053
10827POPC   C4B73414  33.823  10.774   7.353
10828POPC   NC373415  29.894   7.444   5.553
10828POPC   PO473416  29.881   7.444   5.853
10828POPC   GL173417  29.928   7.460   6.153
10828POPC   GL273418  29.960   7.354   6.153
10828POPC   C1A73419  29.896   7.398   6.453
10828POPC   D2A73420  29.945   7.410   6.753
10828POPC   C3A73421  29.903   7.408   7.053
10828POPC   C4A73422  29.912   7.424   7.353
10828POPC   C1B73423  30.072   7.154   6.453
10828POPC   C2B73424  29.994   7.173   6.753
10828POPC   C3B73425  30.074   7.209   7.053
10828POPC   C4B73426  30.044   7.193   7.353
10829POPC   NC373427  10.572   4.283   5.553
10829POPC   PO473428  10.569   4.316   5.853
10829POPC   GL173429  10.487   4.358   6.153
10829POPC   GL273430  10.648   4.241   6.153
10829POPC   C1A73431  10.486   4.304   6.453
10829POPC   D2A73432  10.552   4.361   6.753
10829POPC   C3A73433  10.556   4.292   7.053
10829POPC   C4A73434  10.479   4.315   7.353
10829POPC   C1B73435  10.727   4.275   6.453
10829POPC   C2B73436  10.815   4.284   6.753
10829POPC   C3B73437  10.730   4.302   7.053
10829POPC   C4B73438  10.768   4.276   7.353
10830POPC   NC373439  41.585  27.586   5.553
10830POPC   PO473440  41.517  27.562   5.853
10830POPC   GL173441  41.596  27.626   6.153
10830POPC   GL273442  41.644  27.503   6.153
10830POPC   C1A73443  41.534  27.563   6.453
10830POPC   D2A73444  41.537  27.588   6.753
10830POPC   C3A73445  41.522  27.553   7.053
10830POPC   C4A73446  41.567  27.564   7.353
10830POPC   C1B73447  41.767  27.447   6.453
10830POPC   C2B73448  41.765  27.384   6.753
10830POPC   C3B73449  41.703  27.356   7.053
10830POPC   C4B73450  41.760  27.400   7.353
10831POPC   NC373451  28.370  32.281   5.553
10831POPC   PO473452  28.418  32.207   5.853
10831POPC   GL173453  28.384  32.274   6.153
10831POPC   GL273454  28.307  32.144   6.153
10831POPC   C1A73455  28.330  32.203   6.453
10831POPC   D2A73456  28.356  32.267   6.753
10831POPC   C3A73457  28.407  32.262   7.053
10831POPC   C4A73458  28.322  32.211   7.353
10831POPC   C1B73459  28.331  32.049   6.453
10831POPC   C2B73460  28.284  31.998   6.753
10831POPC   C3B73461  28.343  31.996   7.053
10831POPC   C4B73462  28.285  32.028   7.353
10832POPC   NC373463  29.890  33.799   5.553
10832POPC   PO473464  29.941  33.808   5.853
10832POPC   GL173465  29.936  33.832   6.153
10832POPC   GL273466  29.999  33.790   6.153
10832POPC   C1A73467  29.881  33.829   6.453
10832POPC   D2A73468  29.903  33.824   6.753
10832POPC   C3A73469  29.917  33.823   7.053
10832POPC   C4A73470  29.904  33.807   7.353
10832POPC   C1B73471  30.164  33.854   6.453
10832POPC   C2B73472  30.173  33.807   6.753
10832POPC   C3B73473  30.131  33.809   7.053
10832POPC   C4B73474  30.140  33.817   7.353
10833POPC   NC373475  26.046  30.742   5.553
10833POPC   PO473476  26.051  30.736   5.853
10833POPC   GL173477  26.053  30.684   6.153
10833POPC   GL273478  26.135  30.595   6.153
10833POPC   C1A73479  26.081  30.660   6.453
10833POPC   D2A73480  26.072  30.717   6.753
10833POPC   C3A73481  26.031  30.685   7.053
10833POPC   C4A73482  26.008  30.717   7.353
10833POPC   C1B73483  26.131  30.511   6.453
10833POPC   C2B73484  26.175  30.507   6.753
10833POPC   C3B73485  26.172  30.477   7.053
10833POPC   C4B73486  26.144  30.509   7.353
10834POPC   NC373487  13.677  15.995   5.553
10834POPC   PO473488  13.624  15.997   5.853
10834POPC   GL173489  13.596  15.952   6.153
10834POPC   GL273490  13.543  15.866   6.153
10834POPC   C1A73491  13.609  15.930   6.453
10834POPC   D2A73492  13.676  15.935   6.753
10834POPC   C3A73493  13.636  15.921   7.053
10834POPC   C4A73494  13.641  15.924   7.353
10834POPC   C1B73495  13.463  15.783   6.453
10834POPC   C2B73496  13.464  15.760   6.753
10834POPC   C3B73497  13.419  15.812   7.053
10834POPC   C4B73498  13.385  15.829   7.353
10835POPC   NC373499   8.954   0.433   5.553
10835POPC   PO473500   8.978   0.426   5.853
10835POPC   GL173501   8.976   0.451   6.153
10835POPC   GL273502   8.838   0.401   6.153
10835POPC   C1A73503   8.978   0.469   6.453
10835POPC   D2A73504   9.014   0.407   6.753
10835POPC   C3A73505   8.935   0.389   7.053
10835POPC   C4A73506   9.021   0.487   7.353
10835POPC   C1B73507   8.718   0.409   6.453
10835POPC   C2B73508   8.754   0.405   6.753
10835POPC   C3B73509   8.701   0.387   7.053
10835POPC   C4B73510   8.709   0.386   7.353
10836POPC   NC373511  21.355  14.370   5.553
10836POPC   PO473512  21.418  14.432   5.853
10836POPC   GL173513  21.382  14.433   6.153
10836POPC   GL273514  21.559  14.390   6.153
10836POPC   C1A73515  21.352  14.392   6.453
10836POPC   D2A73516  21.388  14.405   6.753
10836POPC   C3A73517  21.396  14.412   7.053
10836POPC   C4A73518  21.386  14.413   7.353
10836POPC   C1B73519  21.685  14.351   6.453
10836POPC   C2B73520  21.598  14.433   6.753
10836POPC   C3B73521  21.646  14.419   7.053
10836POPC   C4B73522  21.667  14.438   7.353
10837POPC   NC373523  44.700  28.363   5.553
10837POPC   PO473524  44.635  28.385   5.853
10837POPC   GL173525  44.626  28.327   6.153
10837POPC   GL273526  44.690  28.285   6.153
10837POPC   C1A73527  44.695  28.401   6.453
10837POPC   D2A73528  44.710  28.371   6.753
10837POPC   C3A73529  44.631  28.337   7.053
10837POPC   C4A73530  44.655  28.410   7.353
10837POPC   C1B73531  44.644  28.142   6.453
10837POPC   C2B73532  44.651  28.128   6.753
10837POPC   C3B73533  44.643  28.128   7.053
10837POPC   C4B73534  44.610  28.131   7.353
10838POPC   NC373535  43.906   1.975   5.553
10838POPC   PO473536  43.848   1.973   5.853
10838POPC   GL173537  43.852   1.944   6.153
10838POPC   GL273538  43.996   2.065   6.153
10838POPC   C1A73539  43.868   1.975   6.453
10838POPC   D2A73540  43.908   2.037   6.753
10838POPC   C3A73541  43.904   2.006   7.053
10838POPC   C4A73542  43.871   1.953   7.353
10838POPC   C1B73543  44.083   2.131   6.453
10838POPC   C2B73544  44.135   2.096   6.753
10838POPC   C3B73545  44.116   2.085   7.053
10838POPC   C4B73546  44.123   2.047   7.353
10839POPC   NC373547  25.312  21.432   5.553
10839POPC   PO473548  25.240  21.393   5.853
10839POPC   GL173549  25.266  21.393   6.153
10839POPC   GL273550  25.122  21.443   6.153
10839POPC   C1A73551  25.313  21.345   6.453
10839POPC   D2A73552  25.234  21.415   6.753
10839POPC   C3A73553  25.277  21.415   7.053
10839POPC   C4A73554  25.248  21.375   7.353
10839POPC   C1B73555  25.065  21.569   6.453
10839POPC   C2B73556  25.078  21.555   6.753
10839POPC   C3B73557  25.024  21.492   7.053
10839POPC   C4B73558  25.063  21.577   7.353
10840POPC   NC373559   1.231  29.875   5.553
10840POPC   PO473560   1.167  29.871   5.853
10840POPC   GL173561   1.180  29.886   6.153
10840POPC   GL273562   1.339  29.918   6.153
10840POPC   C1A73563   1.220  29.871   6.453
10840POPC   D2A73564   1.255  29.955   6.753
10840POPC   C3A73565   1.219  29.931   7.053
10840POPC   C4A73566   1.165  29.936   7.353
10840POPC   C1B73567   1.414  29.893   6.453
10840POPC   C2B73568   1.452  29.873   6.753
10840POPC   C3B73569   1.493  29.819   7.053
10840POPC   C4B73570   1.498  29.904   7.353
10841POPC   NC373571  33.068  39.989   5.553
10841POPC   PO473572  33.065  40.009   5.853
10841POPC   GL173573  33.067  40.018   6.153
10841POPC   GL273574  32.934  39.905   6.153
10841POPC   C1A73575  33.014  40.028   6.453
10841POPC   D2A73576  33.053  40.009   6.753
10841POPC   C3A73577  33.012  40.024   7.053
10841POPC   C4A73578  32.981  40.030   7.353
10841POPC   C1B73579  32.788  39.855   6.453
10841POPC   C2B73580  32.831  39.914   6.753
10841POPC   C3B73581  32.774  39.838   7.053
10841POPC   C4B73582  32.767  39.906   7.353
10842POPC   NC373583  26.025   2.749   5.553
10842POPC   PO473584  26.091   2.798   5.853
10842POPC   GL173585  26.013   2.728   6.153
10842POPC   GL273586  25.933   2.806   6.153
10842POPC   C1A73587  26.016   2.781   6.453
10842POPC   D2A73588  26.031   2.768   6.753
10842POPC   C3A73589  26.079   2.811   7.053
10842POPC   C4A73590  26.056   2.777   7.353
10842POPC   C1B73591  25.799   2.747   6.453
10842POPC   C2B73592  25.809   2.739   6.753
10842POPC   C3B73593  25.838   2.795   7.053
10842POPC   C4B73594  25.761   2.783   7.353
10843POPC   NC373595  36.142  43.160   5.553
10843POPC   PO473596  36.116  43.150   5.853
10843POPC   GL173597  36.127  43.130   6.153
10843POPC   GL273598  36.212  43.217   6.153
10843POPC   C1A73599  36.108  43.066   6.453
10843POPC   D2A73600  36.145  43.081   6.753
10843POPC   C3A73601  36.155  43.090   7.053
10843POPC   C4A73602  36.119  43.099   7.353
10843POPC   C1B73603  36.270  43.274   6.453
10843POPC   C2B73604  36.246  43.346   6.753
10843POPC   C3B73605  36.278  43.330   7.053
10843POPC   C4B73606  36.305  43.343   7.353
10844POPC   NC373607  12.120   7.423   5.553
10844POPC   PO473608  12.114   7.390   5.853
10844POPC   GL173609  12.049   7.432   6.153
10844POPC   GL273610  12.000   7.488   6.153
10844POPC   C1A73611  12.081   7.459   6.453
10844POPC   D2A73612  12.065   7.396   6.753
10844POPC   C3A73613  12.115   7.381   7.053
10844POPC   C4A73614  12.082   7.407   7.353
10844POPC   C1B73615  11.818   7.485   6.453
10844POPC   C2B73616  11.876   7.467   6.753
10844POPC   C3B73617  11.838   7.437   7.053
10844POPC   C4B73618  11.834   7.437   7.353
10845POPC   NC373619   2.789   0.394   5.553
10845POPC   PO473620   2.757   0.474   5.853
10845POPC   GL173621   2.789   0.470   6.153
10845POPC   GL273622   2.790   0.364   6.153
10845POPC   C1A73623   2.755   0.415   6.453
10845POPC   D2A73624   2.777   0.475   6.753
10845POPC   C3A73625   2.798   0.462   7.053
10845POPC   C4A73626   2.718   0.428   7.353
10845POPC   C1B73627   2.834   0.170   6.453
10845POPC   C2B73628   2.769   0.206   6.753
10845POPC   C3B73629   2.774   0.157   7.053
10845POPC   C4B73630   2.829   0.211   7.353
10846POPC   NC373631  13.660  22.975   5.553
10846POPC   PO473632  13.627  22.973   5.853
10846POPC   GL173633  13.661  22.961   6.153
10846POPC   GL273634  13.627  23.013   6.153
10846POPC   C1A73635  13.641  22.969   6.453
10846POPC   D2A73636  13.677  22.965   6.753
10846POPC   C3A73637  13.593  22.918   7.053
10846POPC   C4A73638  13.617  22.935   7.353
10846POPC   C1B73639  13.619  23.227   6.453
10846POPC   C2B73640  13.584  23.196   6.753
10846POPC   C3B73641  13.647  23.224   7.053
10846POPC   C4B73642  13.615  23.181   7.353
10847POPC   NC373643   8.185  26.793   5.553
10847POPC   PO473644   8.149  26.811   5.853
10847POPC   GL173645   8.176  26.864   6.153
10847POPC   GL273646   8.153  26.945   6.153
10847POPC   C1A73647   8.188  26.797   6.453
10847POPC   D2A73648   8.168  26.796   6.753
10847POPC   C3A73649   8.240  26.834   7.053
10847POPC   C4A73650   8.187  26.815   7.353
10847POPC   C1B73651   8.098  27.073   6.453
10847POPC   C2B73652   8.085  27.082   6.753
10847POPC   C3B73653   8.115  27.077   7.053
10847POPC   C4B73654   8.110  27.068   7.353
10848POPC   NC373655   7.462  28.388   5.553
10848POPC   PO473656   7.454  28.369   5.853
10848POPC   GL173657   7.431  28.339   6.153
10848POPC   GL273658   7.317  28.317   6.153
10848POPC   C1A73659   7.442  28.386   6.453
10848POPC   D2A73660   7.443  28.348   6.753
10848POPC   C3A73661   7.465  28.332   7.053
10848POPC   C4A73662   7.471  28.333   7.353
10848POPC   C1B73663   7.224  28.229   6.453
10848POPC   C2B73664   7.215  28.305   6.753
10848POPC   C3B73665   7.199  28.220   7.053
10848POPC   C4B73666   7.246  28.308   7.353
10849POPC   NC373667  43.882  23.695   5.553
10849POPC   PO473668  43.877  23.728   5.853
10849POPC   GL173669  43.846  23.753   6.153
10849POPC   GL273670  43.812  23.807   6.153
10849POPC   C1A73671  43.849  23.690   6.453
10849POPC   D2A73672  43.891  23.750   6.753
10849POPC   C3A73673  43.886  23.682   7.053
10849POPC   C4A73674  43.837  23.722   7.353
10849POPC   C1B73675  43.780  23.879   6.453
10849POPC   C2B73676  43.705  23.912   6.753
10849POPC   C3B73677  43.755  23.951   7.053
10849POPC   C4B73678  43.755  23.969   7.353
10850POPC   NC373679   8.971  34.570   5.553
10850POPC   PO473680   8.946  34.617   5.853
10850POPC   GL173681   9.009  34.540   6.153
10850POPC   GL273682   9.016  34.631   6.153
10850POPC   C1A73683   8.972  34.541   6.453
10850POPC   D2A73684   8.992  34.567   6.753
10850POPC   C3A73685   9.014  34.579   7.053
10850POPC   C4A73686   8.986  34.614   7.353
10850POPC   C1B73687   9.147  34.810   6.453
10850POPC   C2B73688   9.172  34.812   6.753
10850POPC   C3B73689   9.123  34.737   7.053
10850POPC   C4B73690   9.126  34.741   7.353
10851POPC   NC373691  44.655   7.386   5.553
10851POPC   PO473692  44.647   7.417   5.853
10851POPC   GL173693  44.669   7.433   6.153
10851POPC   GL273694  44.738   7.385   6.153
10851POPC   C1A73695  44.671   7.462   6.453
10851POPC   D2A73696  44.624   7.390   6.753
10851POPC   C3A73697  44.622   7.418   7.053
10851POPC   C4A73698  44.638   7.390   7.353
10851POPC   C1B73699  44.883   7.332   6.453
10851POPC   C2B73700  44.846   7.342   6.753
10851POPC   C3B73701  44.909   7.261   7.053
10851POPC   C4B73702  44.861   7.303   7.353
10852POPC   NC373703   3.529   3.559   5.553
10852POPC   PO473704   3.525   3.554   5.853
10852POPC   GL173705   3.564   3.580   6.153
10852POPC   GL273706   3.461   3.581   6.153
10852POPC   C1A73707   3.510   3.524   6.453
10852POPC   D2A73708   3.492   3.502   6.753
10852POPC   C3A73709   3.568   3.523   7.053
10852POPC   C4A73710   3.532   3.546   7.353
10852POPC   C1B73711   3.344   3.591   6.453
10852POPC   C2B73712   3.276   3.653   6.753
10852POPC   C3B73713   3.298   3.617   7.053
10852POPC   C4B73714   3.318   3.650   7.353
10853POPC   NC373715  42.384  22.911   5.553
10853POPC   PO473716  42.347  22.910   5.853
10853POPC   GL173717  42.366  22.984   6.153
10853POPC   GL273718  42.388  22.984   6.153
10853POPC   C1A73719  42.338  22.986   6.453
10853POPC   D2A73720  42.382  22.953   6.753
10853POPC   C3A73721  42.325  22.979   7.053
10853POPC   C4A73722  42.334  22.902   7.353
10853POPC   C1B73723  42.522  23.159   6.453
10853POPC   C2B73724  42.532  23.152   6.753
10853POPC   C3B73725  42.482  23.128   7.053
10853POPC   C4B73726  42.517  23.163   7.353
10854POPC   NC373727  35.308  22.916   5.553
10854POPC   PO473728  35.393  22.968   5.853
10854POPC   GL173729  35.397  22.946   6.153
10854POPC   GL273730  35.412  23.015   6.153
10854POPC   C1A73731  35.337  22.969   6.453
10854POPC   D2A73732  35.366  22.982   6.753
10854POPC   C3A73733  35.325  22.983   7.053
10854POPC   C4A73734  35.342  22.897   7.353
10854POPC   C1B73735  35.448  23.142   6.453
10854POPC   C2B73736  35.478  23.198   6.753
10854POPC   C3B73737  35.438  23.122   7.053
10854POPC   C4B73738  35.519  23.203   7.353
10855POPC   NC373739  31.516  14.423   5.553
10855POPC   PO473740  31.433  14.395   5.853
10855POPC   GL173741  31.474  14.433   6.153
10855POPC   GL273742  31.574  14.500   6.153
10855POPC   C1A73743  31.515  14.361   6.453
10855POPC   D2A73744  31.476  14.414   6.753
10855POPC   C3A73745  31.514  14.397   7.053
10855POPC   C4A73746  31.489  14.386   7.353
10855POPC   C1B73747  31.674  14.596   6.453
10855POPC   C2B73748  31.626  14.530   6.753
10855POPC   C3B73749  31.722  14.574   7.053
10855POPC   C4B73750  31.653  14.556   7.353
10856POPC   NC373751  31.516  37.642   5.553
10856POPC   PO473752  31.480  37.724   5.853
10856POPC   GL173753  31.504  37.697   6.153
10856POPC   GL273754  31.355  37.631   6.153
10856POPC   C1A73755  31.513  37.664   6.453
10856POPC   D2A73756  31.470  37.647   6.753
10856POPC   C3A73757  31.474  37.671   7.053
10856POPC   C4A73758  31.497  37.665   7.353
10856POPC   C1B73759  31.351  37.508   6.453
10856POPC   C2B73760  31.357  37.451   6.753
10856POPC   C3B73761  31.286  37.455   7.053
10856POPC   C4B73762  31.267  37.454   7.353
10857POPC   NC373763  31.445  44.706   5.553
10857POPC   PO473764  31.461  44.631   5.853
10857POPC   GL173765  31.505  44.650   6.153
10857POPC   GL273766  31.607  44.665   6.153
10857POPC   C1A73767  31.443  44.621   6.453
10857POPC   D2A73768  31.501  44.674   6.753
10857POPC   C3A73769  31.479  44.635   7.053
10857POPC   C4A73770  31.484  44.709   7.353
10857POPC   C1B73771  31.758  44.683   6.453
10857POPC   C2B73772  31.763  44.732   6.753
10857POPC   C3B73773  31.688  44.710   7.053
10857POPC   C4B73774  31.665  44.702   7.353
10858POPC   NC373775  29.943  21.418   5.553
10858POPC   PO473776  29.925  21.374   5.853
10858POPC   GL173777  29.954  21.388   6.153
10858POPC   GL273778  29.757  21.426   6.153
10858POPC   C1A73779  29.955  21.429   6.453
10858POPC   D2A73780  29.942  21.399   6.753
10858POPC   C3A73781  29.884  21.400   7.053
10858POPC   C4A73782  29.914  21.410   7.353
10858POPC   C1B73783  29.697  21.449   6.453
10858POPC   C2B73784  29.718  21.415   6.753
10858POPC   C3B73785  29.722  21.478   7.053
10858POPC   C4B73786  29.633  21.469   7.353
10859POPC   NC373787  42.308  30.682   5.553
10859POPC   PO473788  42.294  30.676   5.853
10859POPC   GL173789  42.327  30.676   6.153
10859POPC   GL273790  42.364  30.526   6.153
10859POPC   C1A73791  42.363  30.647   6.453
10859POPC   D2A73792  42.301  30.730   6.753
10859POPC   C3A73793  42.375  30.676   7.053
10859POPC   C4A73794  42.369  30.663   7.353
10859POPC   C1B73795  42.318  30.413   6.453
10859POPC   C2B73796  42.349  30.449   6.753
10859POPC   C3B73797  42.328  30.446   7.053
10859POPC   C4B73798  42.361  30.442   7.353
10860POPC   NC373799   8.161  25.297   5.553
10860POPC   PO473800   8.213  25.264   5.853
10860POPC   GL173801   8.200  25.241   6.153
10860POPC   GL273802   8.256  25.129   6.153
10860POPC   C1A73803   8.214  25.315   6.453
10860POPC   D2A73804   8.220  25.275   6.753
10860POPC   C3A73805   8.225  25.311   7.053
10860POPC   C4A73806   8.176  25.255   7.353
10860POPC   C1B73807   8.326  25.046   6.453
10860POPC   C2B73808   8.331  24.993   6.753
10860POPC   C3B73809   8.258  25.010   7.053
10860POPC   C4B73810   8.302  25.043   7.353
10861POPC   NC373811  33.000  15.159   5.553
10861POPC   PO473812  33.023  15.175   5.853
10861POPC   GL173813  32.984  15.130   6.153
10861POPC   GL273814  33.000  15.287   6.153
10861POPC   C1A73815  33.067  15.138   6.453
10861POPC   D2A73816  33.048  15.160   6.753
10861POPC   C3A73817  33.037  15.206   7.053
10861POPC   C4A73818  33.072  15.153   7.353
10861POPC   C1B73819  33.040  15.426   6.453
10861POPC   C2B73820  33.117  15.448   6.753
10861POPC   C3B73821  33.117  15.464   7.053
10861POPC   C4B73822  33.084  15.464   7.353
10862POPC   NC373823  18.240  44.638   5.553
10862POPC   PO473824  18.293  44.674   5.853
10862POPC   GL173825  18.247  44.704   6.153
10862POPC   GL273826  18.248  44.565   6.153
10862POPC   C1A73827  18.302  44.645   6.453
10862POPC   D2A73828  18.293  44.623   6.753
10862POPC   C3A73829  18.309  44.660   7.053
10862POPC   C4A73830  18.313  44.656   7.353
10862POPC   C1B73831  18.113  44.518   6.453
10862POPC   C2B73832  18.115  44.469   6.753
10862POPC   C3B73833  18.088  44.454   7.053
10862POPC   C4B73834  18.148  44.460   7.353
10863POPC   NC373835  33.040  20.585   5.553
10863POPC   PO473836  33.047  20.564   5.853
10863POPC   GL173837  33.029  20.646   6.153
10863POPC   GL273838  33.056  20.497   6.153
10863POPC   C1A73839  32.974  20.612   6.453
10863POPC   D2A73840  33.060  20.650   6.753
10863POPC   C3A73841  33.020  20.574   7.053
10863POPC   C4A73842  33.024  20.651   7.353
10863POPC   C1B73843  33.158  20.386   6.453
10863POPC   C2B73844  33.169  20.358   6.753
10863POPC   C3B73845  33.132  20.374   7.053
10863POPC   C4B73846  33.148  20.345   7.353
10864POPC   NC373847  36.095  39.189   5.553
10864POPC   PO473848  36.112  39.272   5.853
10864POPC   GL173849  36.079  39.254   6.153
10864POPC   GL273850  36.222  39.244   6.153
10864POPC   C1A73851  36.084  39.222   6.453
10864POPC   D2A73852  36.171  39.200   6.753
10864POPC   C3A73853  36.148  39.276   7.053
10864POPC   C4A73854  36.170  39.197   7.353
10864POPC   C1B73855  36.386  39.364   6.453
10864POPC   C2B73856  36.359  39.327   6.753
10864POPC   C3B73857  36.379  39.313   7.053
10864POPC   C4B73858  36.304  39.342   7.353
10865POPC   NC373859  36.086  24.457   5.553
10865POPC   PO473860  36.109  24.475   5.853
10865POPC   GL173861  36.157  24.485   6.153
10865POPC   GL273862  36.186  24.597   6.153
10865POPC   C1A73863  36.144  24.512   6.453
10865POPC   D2A73864  36.126  24.494   6.753
10865POPC   C3A73865  36.114  24.514   7.053
10865POPC   C4A73866  36.141  24.515   7.353
10865POPC   C1B73867  36.321  24.624   6.453
10865POPC   C2B73868  36.375  24.638   6.753
10865POPC   C3B73869  36.359  24.609   7.053
10865POPC   C4B73870  36.292  24.654   7.353
10866POPC   NC373871   2.766  43.885   5.553
10866POPC   PO473872   2.771  43.900   5.853
10866POPC   GL173873   2.811  43.916   6.153
10866POPC   GL273874   2.614  43.971   6.153
10866POPC   C1A73875   2.756  43.911   6.453
10866POPC   D2A73876   2.727  43.933   6.753
10866POPC   C3A73877   2.781  43.853   7.053
10866POPC   C4A73878   2.774  43.930   7.353
10866POPC   C1B73879   2.561  44.000   6.453
10866POPC   C2B73880   2.582  44.045   6.753
10866POPC   C3B73881   2.576  44.006   7.053
10866POPC   C4B73882   2.536  43.996   7.353
10867POPC   NC373883   9.734  15.133   5.553
10867POPC   PO473884   9.798  15.207   5.853
10867POPC   GL173885   9.709  15.145   6.153
10867POPC   GL273886   9.670  15.247   6.153
10867POPC   C1A73887   9.706  15.187   6.453
10867POPC   D2A73888   9.775  15.202   6.753
10867POPC   C3A73889   9.721  15.215   7.053
10867POPC   C4A73890   9.712  15.213   7.353
10867POPC   C1B73891   9.628  15.362   6.453
10867POPC   C2B73892   9.593  15.334   6.753
10867POPC   C3B73893   9.548  15.337   7.053
10867POPC   C4B73894   9.613  15.335   7.353
10868POPC   NC373895  22.896  19.071   5.553
10868POPC   PO473896  22.982  19.049   5.853
10868POPC   GL173897  22.908  19.063   6.153
10868POPC   GL273898  23.098  19.152   6.153
10868POPC   C1A73899  22.961  19.057   6.453
10868POPC   D2A73900  22.941  19.090   6.753
10868POPC   C3A73901  22.958  19.061   7.053
10868POPC   C4A73902  22.947  19.080   7.353
10868POPC   C1B73903  23.201  19.167   6.453
10868POPC   C2B73904  23.178  19.168   6.753
10868POPC   C3B73905  23.206  19.141   7.053
10868POPC   C4B73906  23.130  19.140   7.353
10869POPC   NC373907  36.893  18.234   5.553
10869POPC   PO473908  36.860  18.240   5.853
10869POPC   GL173909  36.918  18.300   6.153
10869POPC   GL273910  37.044  18.320   6.153
10869POPC   C1A73911  36.908  18.233   6.453
10869POPC   D2A73912  36.906  18.301   6.753
10869POPC   C3A73913  36.925  18.253   7.053
10869POPC   C4A73914  36.916  18.252   7.353
10869POPC   C1B73915  37.161  18.398   6.453
10869POPC   C2B73916  37.076  18.411   6.753
10869POPC   C3B73917  37.134  18.443   7.053
10869POPC   C4B73918  37.077  18.417   7.353
10870POPC   NC373919  25.240  38.496   5.553
10870POPC   PO473920  25.247  38.421   5.853
10870POPC   GL173921  25.266  38.501   6.153
10870POPC   GL273922  25.182  38.359   6.153
10870POPC   C1A73923  25.246  38.467   6.453
10870POPC   D2A73924  25.240  38.442   6.753
10870POPC   C3A73925  25.224  38.432   7.053
10870POPC   C4A73926  25.224  38.475   7.353
10870POPC   C1B73927  24.989  38.380   6.453
10870POPC   C2B73928  25.047  38.323   6.753
10870POPC   C3B73929  25.023  38.387   7.053
10870POPC   C4B73930  25.067  38.334   7.353
10871POPC   NC373931  30.699  21.368   5.553
10871POPC   PO473932  30.719  21.385   5.853
10871POPC   GL173933  30.664  21.391   6.153
10871POPC   GL273934  30.803  21.493   6.153
10871POPC   C1A73935  30.719  21.433   6.453
10871POPC   D2A73936  30.698  21.387   6.753
10871POPC   C3A73937  30.692  21.400   7.053
10871POPC   C4A73938  30.673  21.369   7.353
10871POPC   C1B73939  30.875  21.514   6.453
10871POPC   C2B73940  30.924  21.555   6.753
10871POPC   C3B73941  30.874  21.594   7.053
10871POPC   C4B73942  30.875  21.585   7.353
10872POPC   NC373943  11.252  21.420   5.553
10872POPC   PO473944  11.326  21.359   5.853
10872POPC   GL173945  11.312  21.376   6.153
10872POPC   GL273946  11.263  21.266   6.153
10872POPC   C1A73947  11.331  21.373   6.453
10872POPC   D2A73948  11.252  21.403   6.753
10872POPC   C3A73949  11.280  21.413   7.053
10872POPC   C4A73950  11.314  21.424   7.353
10872POPC   C1B73951  11.250  21.121   6.453
10872POPC   C2B73952  11.301  21.117   6.753
10872POPC   C3B73953  11.260  21.108   7.053
10872POPC   C4B73954  11.288  21.098   7.353
10873POPC   NC373955   1.948  11.342   5.553
10873POPC   PO473956   1.988  11.300   5.853
10873POPC   GL173957   2.002  11.295   6.153
10873POPC   GL273958   1.866  11.294   6.153
10873POPC   C1A73959   2.015  11.263   6.453
10873POPC   D2A73960   1.997  11.319   6.753
10873POPC   C3A73961   1.967  11.264   7.053
10873POPC   C4A73962   1.978  11.304   7.353
10873POPC   C1B73963   1.751  11.326   6.453
10873POPC   C2B73964   1.697  11.251   6.753
10873POPC   C3B73965   1.728  11.250   7.053
10873POPC   C4B73966   1.719  11.323   7.353
10874POPC   NC373967  32.291   7.416   5.553
10874POPC   PO473968  32.224   7.380   5.853
10874POPC   GL173969  32.260   7.380   6.153
10874POPC   GL273970  32.092   7.433   6.153
10874POPC   C1A73971  32.289   7.468   6.453
10874POPC   D2A73972  32.240   7.443   6.753
10874POPC   C3A73973  32.203   7.428   7.053
10874POPC   C4A73974  32.295   7.454   7.353
10874POPC   C1B73975  32.046   7.417   6.453
10874POPC   C2B73976  32.020   7.402   6.753
10874POPC   C3B73977  31.979   7.397   7.053
10874POPC   C4B73978  31.982   7.468   7.353
10875POPC   NC373979  26.771  11.251   5.553
10875POPC   PO473980  26.831  11.276   5.853
10875POPC   GL173981  26.787  11.304   6.153
10875POPC   GL273982  26.820  11.203   6.153
10875POPC   C1A73983  26.771  11.273   6.453
10875POPC   D2A73984  26.771  11.264   6.753
10875POPC   C3A73985  26.847  11.254   7.053
10875POPC   C4A73986  26.788  11.331   7.353
10875POPC   C1B73987  26.821  11.080   6.453
10875POPC   C2B73988  26.821  11.053   6.753
10875POPC   C3B73989  26.865  11.019   7.053
10875POPC   C4B73990  26.869  11.050   7.353
10876POPC   NC373991  33.759  30.660   5.553
10876POPC   PO473992  33.795  30.727   5.853
10876POPC   GL173993  33.845  30.686   6.153
10876POPC   GL273994  33.711  30.740   6.153
10876POPC   C1A73995  33.802  30.700   6.453
10876POPC   D2A73996  33.780  30.743   6.753
10876POPC   C3A73997  33.845  30.699   7.053
10876POPC   C4A73998  33.794  30.704   7.353
10876POPC   C1B73999  33.606  30.824   6.453
10876POPC   C2B74000  33.559  30.843   6.753
10876POPC   C3B74001  33.547  30.867   7.053
10876POPC   C4B74002  33.541  30.821   7.353
10877POPC   NC374003  43.869  40.736   5.553
10877POPC   PO474004  43.928  40.832   5.853
10877POPC   GL174005  43.918  40.828   6.153
10877POPC   GL274006  43.987  40.844   6.153
10877POPC   C1A74007  43.904  40.821   6.453
10877POPC   D2A74008  43.875  40.784   6.753
10877POPC   C3A74009  43.842  40.736   7.053
10877POPC   C4A74010  43.908  40.804   7.353
10877POPC   C1B74011  44.075  40.900   6.453
10877POPC   C2B74012  44.124  40.886   6.753
10877POPC   C3B74013  44.167  40.826   7.053
10877POPC   C4B74014  44.132  40.870   7.353
10878POPC   NC374015   2.029  27.564   5.553
10878POPC   PO474016   1.994  27.605   5.853
10878POPC   GL174017   2.024  27.548   6.153
10878POPC   GL274018   1.921  27.542   6.153
10878POPC   C1A74019   2.020  27.623   6.453
10878POPC   D2A74020   2.039  27.622   6.753
10878POPC   C3A74021   2.018  27.618   7.053
10878POPC   C4A74022   1.955  27.622   7.353
10878POPC   C1B74023   1.748  27.426   6.453
10878POPC   C2B74024   1.819  27.451   6.753
10878POPC   C3B74025   1.733  27.458   7.053
10878POPC   C4B74026   1.808  27.415   7.353
10879POPC   NC374027  26.077   7.395   5.553
10879POPC   PO474028  26.018   7.461   5.853
10879POPC   GL174029  26.072   7.460   6.153
10879POPC   GL274030  25.894   7.423   6.153
10879POPC   C1A74031  26.060   7.391   6.453
10879POPC   D2A74032  26.067   7.425   6.753
10879POPC   C3A74033  26.075   7.451   7.053
10879POPC   C4A74034  26.079   7.402   7.353
10879POPC   C1B74035  25.822   7.335   6.453
10879POPC   C2B74036  25.833   7.369   6.753
10879POPC   C3B74037  25.752   7.341   7.053
10879POPC   C4B74038  25.781   7.387   7.353
10880POPC   NC374039  38.445   1.972   5.553
10880POPC   PO474040  38.415   2.019   5.853
10880POPC   GL174041  38.450   1.968   6.153
10880POPC   GL274042  38.429   2.108   6.153
10880POPC   C1A74043  38.464   2.037   6.453
10880POPC   D2A74044  38.437   2.012   6.753
10880POPC   C3A74045  38.426   2.023   7.053
10880POPC   C4A74046  38.462   2.020   7.353
10880POPC   C1B74047  38.485   2.191   6.453
10880POPC   C2B74048  38.464   2.221   6.753
10880POPC   C3B74049  38.514   2.208   7.053
10880POPC   C4B74050  38.434   2.273   7.353
10881POPC   NC374051  27.603  36.138   5.553
10881POPC   PO474052  27.557  36.119   5.853
10881POPC   GL174053  27.557  36.175   6.153
10881POPC   GL274054  27.528  36.227   6.153
10881POPC   C1A74055  27.559  36.123   6.453
10881POPC   D2A74056  27.545  36.128   6.753
10881POPC   C3A74057  27.553  36.082   7.053
10881POPC   C4A74058  27.631  36.095   7.353
10881POPC   C1B74059  27.472  36.281   6.453
10881POPC   C2B74060  27.410  36.326   6.753
10881POPC   C3B74061  27.411  36.310   7.053
10881POPC   C4B74062  27.492  36.279   7.353
10882POPC   NC374063  30.664  15.908   5.553
10882POPC   PO474064  30.649  15.981   5.853
10882POPC   GL174065  30.724  15.939   6.153
10882POPC   GL274066  30.727  16.060   6.153
10882POPC   C1A74067  30.658  15.987   6.453
10882POPC   D2A74068  30.668  15.932   6.753
10882POPC   C3A74069  30.652  15.968   7.053
10882POPC   C4A74070  30.671  15.908   7.353
10882POPC   C1B74071  30.767  16.196   6.453
10882POPC   C2B74072  30.802  16.190   6.753
10882POPC   C3B74073  30.757  16.193   7.053
10882POPC   C4B74074  30.799  16.177   7.353
10883POPC   NC374075  19.850  34.576   5.553
10883POPC   PO474076  19.791  34.600   5.853
10883POPC   GL174077  19.851  34.618   6.153
10883POPC   GL274078  19.735  34.596   6.153
10883POPC   C1A74079  19.789  34.587   6.453
10883POPC   D2A74080  19.801  34.536   6.753
10883POPC   C3A74081  19.849  34.580   7.053
10883POPC   C4A74082  19.872  34.530   7.353
10883POPC   C1B74083  19.570  34.652   6.453
10883POPC   C2B74084  19.652  34.735   6.753
10883POPC   C3B74085  19.599  34.709   7.053
10883POPC   C4B74086  19.594  34.660   7.353
10884POPC   NC374087  23.719  34.546   5.553
10884POPC   PO474088  23.690  34.586   5.853
10884POPC   GL174089  23.742  34.559   6.153
10884POPC   GL274090  23.749  34.697   6.153
10884POPC   C1A74091  23.747  34.554   6.453
10884POPC   D2A74092  23.707  34.614   6.753
10884POPC   C3A74093  23.676  34.606   7.053
10884POPC   C4A74094  23.683  34.532   7.353
10884POPC   C1B74095  23.893  34.769   6.453
10884POPC   C2B74096  23.900  34.794   6.753
10884POPC   C3B74097  23.840  34.717   7.053
10884POPC   C4B74098  23.867  34.794   7.353
10885POPC   NC374099  17.531  29.158   5.553
10885POPC   PO474100  17.550  29.162   5.853
10885POPC   GL174101  17.524  29.160   6.153
10885POPC   GL274102  17.354  29.165   6.153
10885POPC   C1A74103  17.550  29.187   6.453
10885POPC   D2A74104  17.533  29.164   6.753
10885POPC   C3A74105  17.496  29.101   7.053
10885POPC   C4A74106  17.510  29.128   7.353
10885POPC   C1B74107  17.293  29.106   6.453
10885POPC   C2B74108  17.219  29.063   6.753
10885POPC   C3B74109  17.281  29.063   7.053
10885POPC   C4B74110  17.283  29.160   7.353
10886POPC   NC374111   0.481  24.463   5.553
10886POPC   PO474112   0.436  24.452   5.853
10886POPC   GL174113   0.475  24.476   6.153
10886POPC   GL274114   0.414  24.585   6.153
10886POPC   C1A74115   0.397  24.492   6.453
10886POPC   D2A74116   0.421  24.481   6.753
10886POPC   C3A74117   0.482  24.448   7.053
10886POPC   C4A74118   0.477  24.519   7.353
10886POPC   C1B74119   0.412  24.707   6.453
10886POPC   C2B74120   0.366  24.752   6.753
10886POPC   C3B74121   0.385  24.714   7.053
10886POPC   C4B74122   0.365  24.710   7.353
10887POPC   NC374123   8.242   2.731   5.553
10887POPC   PO474124   8.180   2.810   5.853
10887POPC   GL174125   8.197   2.767   6.153
10887POPC   GL274126   8.274   2.862   6.153
10887POPC   C1A74127   8.165   2.726   6.453
10887POPC   D2A74128   8.148   2.775   6.753
10887POPC   C3A74129   8.203   2.723   7.053
10887POPC   C4A74130   8.181   2.757   7.353
10887POPC   C1B74131   8.443   2.830   6.453
10887POPC   C2B74132   8.408   2.886   6.753
10887POPC   C3B74133   8.386   2.874   7.053
10887POPC   C4B74134   8.434   2.912   7.353
10888POPC   NC374135  36.080  19.052   5.553
10888POPC   PO474136  36.153  19.043   5.853
10888POPC   GL174137  36.170  19.100   6.153
10888POPC   GL274138  36.015  19.152   6.153
10888POPC   C1A74139  36.137  19.023   6.453
10888POPC   D2A74140  36.093  19.104   6.753
10888POPC   C3A74141  36.107  19.027   7.053
10888POPC   C4A74142  36.165  19.028   7.353
10888POPC   C1B74143  36.037  19.273   6.453
10888POPC   C2B74144  35.964  19.255   6.753
10888POPC   C3B74145  35.980  19.267   7.053
10888POPC   C4B74146  36.018  19.282   7.353
10889POPC   NC374147  29.903   9.757   5.553
10889POPC   PO474148  29.924   9.704   5.853
10889POPC   GL174149  29.935   9.787   6.153
10889POPC   GL274150  29.967   9.622   6.153
10889POPC   C1A74151  29.952   9.730   6.453
10889POPC   D2A74152  29.970   9.736   6.753
10889POPC   C3A74153  29.873   9.769   7.053
10889POPC   C4A74154  29.896   9.713   7.353
10889POPC   C1B74155  30.079   9.560   6.453
10889POPC   C2B74156  30.110   9.537   6.753
10889POPC   C3B74157  30.089   9.553   7.053
10889POPC   C4B74158  30.129   9.614   7.353
10890POPC   NC374159  33.766   5.138   5.553
10890POPC   PO474160  33.770   5.141   5.853
10890POPC   GL174161  33.803   5.044   6.153
10890POPC   GL274162  33.869   5.114   6.153
10890POPC   C1A74163  33.837   5.100   6.453
10890POPC   D2A74164  33.761   5.076   6.753
10890POPC   C3A74165  33.816   5.057   7.053
10890POPC   C4A74166  33.797   5.125   7.353
10890POPC   C1B74167  33.967   5.265   6.453
10890POPC   C2B74168  34.048   5.188   6.753
10890POPC   C3B74169  33.978   5.196   7.053
10890POPC   C4B74170  34.029   5.234   7.353
10891POPC   NC374171  13.635   9.764   5.553
10891POPC   PO474172  13.667   9.718   5.853
10891POPC   GL174173  13.663   9.729   6.153
10891POPC   GL274174  13.726   9.845   6.153
10891POPC   C1A74175  13.627   9.755   6.453
10891POPC   D2A74176  13.667   9.741   6.753
10891POPC   C3A74177  13.591   9.790   7.053
10891POPC   C4A74178  13.629   9.718   7.353
10891POPC   C1B74179  13.780   9.872   6.453
10891POPC   C2B74180  13.840   9.889   6.753
10891POPC   C3B74181  13.801   9.857   7.053
10891POPC   C4B74182  13.830   9.871   7.353
10892POPC   NC374183  14.407  30.717   5.553
10892POPC   PO474184  14.414  30.731   5.853
10892POPC   GL174185  14.369  30.720   6.153
10892POPC   GL274186  14.274  30.673   6.153
10892POPC   C1A74187  14.384  30.648   6.453
10892POPC   D2A74188  14.395  30.742   6.753
10892POPC   C3A74189  14.392  30.660   7.053
10892POPC   C4A74190  14.382  30.745   7.353
10892POPC   C1B74191  14.201  30.666   6.453
10892POPC   C2B74192  14.156  30.699   6.753
10892POPC   C3B74193  14.133  30.673   7.053
10892POPC   C4B74194  14.141  30.662   7.353
10893POPC   NC374195   5.064  22.964   5.553
10893POPC   PO474196   5.097  22.926   5.853
10893POPC   GL174197   5.137  22.958   6.153
10893POPC   GL274198   4.968  23.065   6.153
10893POPC   C1A74199   5.087  22.922   6.453
10893POPC   D2A74200   5.112  22.926   6.753
10893POPC   C3A74201   5.097  22.958   7.053
10893POPC   C4A74202   5.053  22.975   7.353
10893POPC   C1B74203   4.948  23.094   6.453
10893POPC   C2B74204   4.904  23.142   6.753
10893POPC   C3B74205   4.954  23.127   7.053
10893POPC   C4B74206   4.922  23.070   7.353
10894POPC   NC374207  37.658  11.297   5.553
10894POPC   PO474208  37.654  11.281   5.853
10894POPC   GL174209  37.634  11.301   6.153
10894POPC   GL274210  37.663  11.137   6.153
10894POPC   C1A74211  37.647  11.251   6.453
10894POPC   D2A74212  37.632  11.287   6.753
10894POPC   C3A74213  37.695  11.309   7.053
10894POPC   C4A74214  37.651  11.328   7.353
10894POPC   C1B74215  37.744  11.097   6.453
10894POPC   C2B74216  37.693  11.014   6.753
10894POPC   C3B74217  37.683  11.067   7.053
10894POPC   C4B74218  37.746  11.064   7.353
10895POPC   NC374219  15.166  18.235   5.553
10895POPC   PO474220  15.182  18.315   5.853
10895POPC   GL174221  15.177  18.260   6.153
10895POPC   GL274222  15.283  18.380   6.153
10895POPC   C1A74223  15.204  18.240   6.453
10895POPC   D2A74224  15.190  18.303   6.753
10895POPC   C3A74225  15.227  18.260   7.053
10895POPC   C4A74226  15.142  18.317   7.353
10895POPC   C1B74227  15.284  18.512   6.453
10895POPC   C2B74228  15.274  18.472   6.753
10895POPC   C3B74229  15.347  18.466   7.053
10895POPC   C4B74230  15.263  18.517   7.353
10896POPC   NC374231  25.298  36.142   5.553
10896POPC   PO474232  25.273  36.169   5.853
10896POPC   GL174233  25.280  36.084   6.153
10896POPC   GL274234  25.396  36.225   6.153
10896POPC   C1A74235  25.289  36.175   6.453
10896POPC   D2A74236  25.310  36.136   6.753
10896POPC   C3A74237  25.307  36.177   7.053
10896POPC   C4A74238  25.293  36.152   7.353
10896POPC   C1B74239  25.482  36.290   6.453
10896POPC   C2B74240  25.424  36.244   6.753
10896POPC   C3B74241  25.427  36.273   7.053
10896POPC   C4B74242  25.435  36.306   7.353
10897POPC   NC374243  37.727  41.580   5.553
10897POPC   PO474244  37.653  41.550   5.853
10897POPC   GL174245  37.671  41.604   6.153
10897POPC   GL274246  37.767  41.598   6.153
10897POPC   C1A74247  37.682  41.578   6.453
10897POPC   D2A74248  37.637  41.593   6.753
10897POPC   C3A74249  37.630  41.547   7.053
10897POPC   C4A74250  37.710  41.510   7.353
10897POPC   C1B74251  37.970  41.532   6.453
10897POPC   C2B74252  37.959  41.584   6.753
10897POPC   C3B74253  37.949  41.598   7.053
10897POPC   C4B74254  37.945  41.552   7.353
10898POPC   NC374255  21.402  35.310   5.553
10898POPC   PO474256  21.365  35.317   5.853
10898POPC   GL174257  21.432  35.307   6.153
10898POPC   GL274258  21.482  35.242   6.153
10898POPC   C1A74259  21.352  35.400   6.453
10898POPC   D2A74260  21.431  35.344   6.753
10898POPC   C3A74261  21.400  35.360   7.053
10898POPC   C4A74262  21.420  35.318   7.353
10898POPC   C1B74263  21.480  35.180   6.453
10898POPC   C2B74264  21.547  35.123   6.753
10898POPC   C3B74265  21.496  35.171   7.053
10898POPC   C4B74266  21.531  35.115   7.353
10899POPC   NC374267  31.439  33.061   5.553
10899POPC   PO474268  31.463  33.011   5.853
10899POPC   GL174269  31.519  33.030   6.153
10899POPC   GL274270  31.410  33.110   6.153
10899POPC   C1A74271  31.505  33.062   6.453
10899POPC   D2A74272  31.441  33.004   6.753
10899POPC   C3A74273  31.511  33.038   7.053
10899POPC   C4A74274  31.501  33.015   7.353
10899POPC   C1B74275  31.271  33.208   6.453
10899POPC   C2B74276  31.304  33.156   6.753
10899POPC   C3B74277  31.234  33.155   7.053
10899POPC   C4B74278  31.252  33.217   7.353
10900POPC   NC374279   5.906  21.392   5.553
10900POPC   PO474280   5.915  21.364   5.853
10900POPC   GL174281   5.873  21.359   6.153
10900POPC   GL274282   5.772  21.275   6.153
10900POPC   C1A74283   5.884  21.362   6.453
10900POPC   D2A74284   5.913  21.406   6.753
10900POPC   C3A74285   5.855  21.436   7.053
10900POPC   C4A74286   5.910  21.403   7.353
10900POPC   C1B74287   5.665  21.235   6.453
10900POPC   C2B74288   5.658  21.294   6.753
10900POPC   C3B74289   5.632  21.224   7.053
10900POPC   C4B74290   5.648  21.298   7.353
10901POPC   NC374291   9.749  25.247   5.553
10901POPC   PO474292   9.744  25.229   5.853
10901POPC   GL174293   9.786  25.283   6.153
10901POPC   GL274294   9.635  25.237   6.153
10901POPC   C1A74295   9.792  25.255   6.453
10901POPC   D2A74296   9.711  25.224   6.753
10901POPC   C3A74297   9.768  25.263   7.053
10901POPC   C4A74298   9.783  25.227   7.353
10901POPC   C1B74299   9.508  25.131   6.453
10901POPC   C2B74300   9.570  25.072   6.753
10901POPC   C3B74301   9.505  25.109   7.053
10901POPC   C4B74302   9.547  25.068   7.353
10902POPC   NC374303  41.555  23.744   5.553
10902POPC   PO474304  41.571  23.668   5.853
10902POPC   GL174305  41.589  23.667   6.153
10902POPC   GL274306  41.451  23.759   6.153
10902POPC   C1A74307  41.546  23.688   6.453
10902POPC   D2A74308  41.541  23.723   6.753
10902POPC   C3A74309  41.522  23.668   7.053
10902POPC   C4A74310  41.519  23.673   7.353
10902POPC   C1B74311  41.302  23.699   6.453
10902POPC   C2B74312  41.260  23.701   6.753
10902POPC   C3B74313  41.339  23.762   7.053
10902POPC   C4B74314  41.318  23.782   7.353
10903POPC   NC374315   4.332   5.861   5.553
10903POPC   PO474316   4.358   5.853   5.853
10903POPC   GL174317   4.339   5.877   6.153
10903POPC   GL274318   4.249   5.772   6.153
10903POPC   C1A74319   4.303   5.853   6.453
10903POPC   D2A74320   4.296   5.883   6.753
10903POPC   C3A74321   4.337   5.886   7.053
10903POPC   C4A74322   4.310   5.836   7.353
10903POPC   C1B74323   4.140   5.759   6.453
10903POPC   C2B74324   4.124   5.755   6.753
10903POPC   C3B74325   4.096   5.708   7.053
10903POPC   C4B74326   4.090   5.672   7.353
10904POPC   NC374327  40.810  26.843   5.553
10904POPC   PO474328  40.795  26.859   5.853
10904POPC   GL174329  40.764  26.824   6.153
10904POPC   GL274330  40.825  26.950   6.153
10904POPC   C1A74331  40.773  26.867   6.453
10904POPC   D2A74332  40.767  26.780   6.753
10904POPC   C3A74333  40.768  26.776   7.053
10904POPC   C4A74334  40.774  26.789   7.353
10904POPC   C1B74335  40.740  27.088   6.453
10904POPC   C2B74336  40.814  27.117   6.753
10904POPC   C3B74337  40.821  27.025   7.053
10904POPC   C4B74338  40.774  27.098   7.353
10905POPC   NC374339  14.403   4.313   5.553
10905POPC   PO474340  14.430   4.340   5.853
10905POPC   GL174341  14.442   4.274   6.153
10905POPC   GL274342  14.545   4.320   6.153
10905POPC   C1A74343  14.391   4.296   6.453
10905POPC   D2A74344  14.453   4.341   6.753
10905POPC   C3A74345  14.436   4.302   7.053
10905POPC   C4A74346  14.384   4.318   7.353
10905POPC   C1B74347  14.616   4.370   6.453
10905POPC   C2B74348  14.652   4.360   6.753
10905POPC   C3B74349  14.626   4.293   7.053
10905POPC   C4B74350  14.606   4.364   7.353
10906POPC   NC374351   5.864  39.963   5.553
10906POPC   PO474352   5.835  40.020   5.853
10906POPC   GL174353   5.897  40.002   6.153
10906POPC   GL274354   5.914  39.908   6.153
10906POPC   C1A74355   5.894  40.004   6.453
10906POPC   D2A74356   5.847  39.971   6.753
10906POPC   C3A74357   5.901  39.976   7.053
10906POPC   C4A74358   5.857  40.048   7.353
10906POPC   C1B74359   6.036  39.855   6.453
10906POPC   C2B74360   6.049  39.839   6.753
10906POPC   C3B74361   6.018  39.800   7.053
10906POPC   C4B74362   6.001  39.857   7.353
10907POPC   NC374363   7.459  38.432   5.553
10907POPC   PO474364   7.398  38.431   5.853
10907POPC   GL174365   7.381  38.412   6.153
10907POPC   GL274366   7.440  38.351   6.153
10907POPC   C1A74367   7.406  38.442   6.453
10907POPC   D2A74368   7.373  38.443   6.753
10907POPC   C3A74369   7.399  38.448   7.053
10907POPC   C4A74370   7.408  38.408   7.353
10907POPC   C1B74371   7.404  38.232   6.453
10907POPC   C2B74372   7.458  38.188   6.753
10907POPC   C3B74373   7.441  38.174   7.053
10907POPC   C4B74374   7.403  38.194   7.353
10908POPC   NC374375  27.605  23.732   5.553
10908POPC   PO474376  27.626  23.704   5.853
10908POPC   GL174377  27.610  23.760   6.153
10908POPC   GL274378  27.474  23.731   6.153
10908POPC   C1A74379  27.544  23.677   6.453
10908POPC   D2A74380  27.605  23.695   6.753
10908POPC   C3A74381  27.613  23.759   7.053
10908POPC   C4A74382  27.607  23.740   7.353
10908POPC   C1B74383  27.309  23.673   6.453
10908POPC   C2B74384  27.296  23.733   6.753
10908POPC   C3B74385  27.309  23.714   7.053
10908POPC   C4B74386  27.355  23.689   7.353
10909POPC   NC374387  35.322  14.380   5.553
10909POPC   PO474388  35.366  14.419   5.853
10909POPC   GL174389  35.322  14.362   6.153
10909POPC   GL274390  35.298  14.316   6.153
10909POPC   C1A74391  35.379  14.354   6.453
10909POPC   D2A74392  35.320  14.403   6.753
10909POPC   C3A74393  35.338  14.435   7.053
10909POPC   C4A74394  35.374  14.423   7.353
10909POPC   C1B74395  35.195  14.136   6.453
10909POPC   C2B74396  35.249  14.172   6.753
10909POPC   C3B74397  35.250  14.140   7.053
10909POPC   C4B74398  35.215  14.169   7.353
10910POPC   NC374399  39.959  29.185   5.553
10910POPC   PO474400  39.978  29.127   5.853
10910POPC   GL174401  40.029  29.126   6.153
10910POPC   GL274402  39.929  29.165   6.153
10910POPC   C1A74403  39.991  29.127   6.453
10910POPC   D2A74404  40.035  29.131   6.753
10910POPC   C3A74405  39.982  29.173   7.053
10910POPC   C4A74406  39.975  29.151   7.353
10910POPC   C1B74407  39.805  29.107   6.453
10910POPC   C2B74408  39.745  29.083   6.753
10910POPC   C3B74409  39.716  29.144   7.053
10910POPC   C4B74410  39.762  29.094   7.353
10911POPC   NC374411   8.942  41.607   5.553
10911POPC   PO474412   8.970  41.533   5.853
10911POPC   GL174413   8.940  41.599   6.153
10911POPC   GL274414   8.907  41.442   6.153
10911POPC   C1A74415   8.926  41.551   6.453
10911POPC   D2A74416   8.944  41.518   6.753
10911POPC   C3A74417   9.017  41.510   7.053
10911POPC   C4A74418   9.013  41.556   7.353
10911POPC   C1B74419   8.875  41.332   6.453
10911POPC   C2B74420   8.863  41.392   6.753
10911POPC   C3B74421   8.843  41.318   7.053
10911POPC   C4B74422   8.817  41.308   7.353
10912POPC   NC374423  11.333   5.823   5.553
10912POPC   PO474424  11.264   5.847   5.853
10912POPC   GL174425  11.280   5.914   6.153
10912POPC   GL274426  11.183   5.920   6.153
10912POPC   C1A74427  11.262   5.856   6.453
10912POPC   D2A74428  11.262   5.895   6.753
10912POPC   C3A74429  11.289   5.915   7.053
10912POPC   C4A74430  11.265   5.883   7.353
10912POPC   C1B74431  11.087   6.079   6.453
10912POPC   C2B74432  11.138   6.002   6.753
10912POPC   C3B74433  11.066   6.076   7.053
10912POPC   C4B74434  11.154   6.054   7.353
10913POPC   NC374435   9.731  44.680   5.553
10913POPC   PO474436   9.721  44.653   5.853
10913POPC   GL174437   9.705  44.623   6.153
10913POPC   GL274438   9.672  44.573   6.153
10913POPC   C1A74439   9.704  44.630   6.453
10913POPC   D2A74440   9.750  44.633   6.753
10913POPC   C3A74441   9.797  44.639   7.053
10913POPC   C4A74442   9.760  44.701   7.353
10913POPC   C1B74443   9.479  44.525   6.453
10913POPC   C2B74444   9.562  44.580   6.753
10913POPC   C3B74445   9.471  44.554   7.053
10913POPC   C4B74446   9.475  44.525   7.353
10914POPC   NC374447   1.207  14.407   5.553
10914POPC   PO474448   1.191  14.446   5.853
10914POPC   GL174449   1.168  14.383   6.153
10914POPC   GL274450   1.184  14.481   6.153
10914POPC   C1A74451   1.203  14.395   6.453
10914POPC   D2A74452   1.199  14.408   6.753
10914POPC   C3A74453   1.201  14.354   7.053
10914POPC   C4A74454   1.165  14.423   7.353
10914POPC   C1B74455   1.132  14.646   6.453
10914POPC   C2B74456   1.153  14.647   6.753
10914POPC   C3B74457   1.116  14.680   7.053
10914POPC   C4B74458   1.130  14.654   7.353
10915POPC   NC374459  39.277   8.977   5.553
10915POPC   PO474460  39.269   8.989   5.853
10915POPC   GL174461  39.244   8.971   6.153
10915POPC   GL274462  39.308   8.862   6.153
10915POPC   C1A74463  39.191   8.945   6.453
10915POPC   D2A74464  39.220   8.926   6.753
10915POPC   C3A74465  39.238   9.019   7.053
10915POPC   C4A74466  39.195   8.935   7.353
10915POPC   C1B74467  39.400   8.798   6.453
10915POPC   C2B74468  39.393   8.828   6.753
10915POPC   C3B74469  39.374   8.825   7.053
10915POPC   C4B74470  39.412   8.830   7.353
10916POPC   NC374471  34.577  14.448   5.553
10916POPC   PO474472  34.527  14.440   5.853
10916POPC   GL174473  34.602  14.442   6.153
10916POPC   GL274474  34.659  14.369   6.153
10916POPC   C1A74475  34.567  14.450   6.453
10916POPC   D2A74476  34.548  14.374   6.753
10916POPC   C3A74477  34.542  14.363   7.053
10916POPC   C4A74478  34.586  14.452   7.353
10916POPC   C1B74479  34.829  14.321   6.453
10916POPC   C2B74480  34.743  14.282   6.753
10916POPC   C3B74481  34.746  14.273   7.053
10916POPC   C4B74482  34.752  14.228   7.353
10917POPC   NC374483  33.074  27.595   5.553
10917POPC   PO474484  33.019  27.628   5.853
10917POPC   GL174485  33.066  27.614   6.153
10917POPC   GL274486  33.051  27.478   6.153
10917POPC   C1A74487  33.060  27.605   6.453
10917POPC   D2A74488  33.039  27.637   6.753
10917POPC   C3A74489  32.993  27.630   7.053
10917POPC   C4A74490  33.037  27.556   7.353
10917POPC   C1B74491  33.109  27.392   6.453
10917POPC   C2B74492  33.084  27.357   6.753
10917POPC   C3B74493  33.021  27.305   7.053
10917POPC   C4B74494  33.098  27.305   7.353
10918POPC   NC374495  43.895   0.402   5.553
10918POPC   PO474496  43.923   0.450   5.853
10918POPC   GL174497  43.880   0.483   6.153
10918POPC   GL274498  43.972   0.546   6.153
10918POPC   C1A74499  43.895   0.459   6.453
10918POPC   D2A74500  43.864   0.464   6.753
10918POPC   C3A74501  43.931   0.400   7.053
10918POPC   C4A74502  43.873   0.470   7.353
10918POPC   C1B74503  44.024   0.585   6.453
10918POPC   C2B74504  44.061   0.577   6.753
10918POPC   C3B74505  44.104   0.669   7.053
10918POPC   C4B74506  44.023   0.625   7.353
10919POPC   NC374507   9.793   9.759   5.553
10919POPC   PO474508   9.730   9.700   5.853
10919POPC   GL174509   9.772   9.776   6.153
10919POPC   GL274510   9.890   9.838   6.153
10919POPC   C1A74511   9.794   9.704   6.453
10919POPC   D2A74512   9.704   9.754   6.753
10919POPC   C3A74513   9.742   9.788   7.053
10919POPC   C4A74514   9.724   9.760   7.353
10919POPC   C1B74515   9.955   9.817   6.453
10919POPC   C2B74516   9.974   9.881   6.753
10919POPC   C3B74517   9.935   9.834   7.053
10919POPC   C4B74518  10.028   9.830   7.353
10920POPC   NC374519  40.030  24.475   5.553
10920POPC   PO474520  39.964  24.521   5.853
10920POPC   GL174521  40.007  24.518   6.153
10920POPC   GL274522  40.101  24.445   6.153
10920POPC   C1A74523  39.975  24.494   6.453
10920POPC   D2A74524  40.034  24.445   6.753
10920POPC   C3A74525  39.996  24.529   7.053
10920POPC   C4A74526  40.034  24.460   7.353
10920POPC   C1B74527  40.227  24.507   6.453
10920POPC   C2B74528  40.223  24.524   6.753
10920POPC   C3B74529  40.256  24.525   7.053
10920POPC   C4B74530  40.285  24.476   7.353
10921POPC   NC374531  36.910  12.074   5.553
10921POPC   PO474532  36.898  12.054   5.853
10921POPC   GL174533  36.862  12.117   6.153
10921POPC   GL274534  37.003  12.190   6.153
10921POPC   C1A74535  36.941  12.120   6.453
10921POPC   D2A74536  36.911  12.084   6.753
10921POPC   C3A74537  36.892  12.063   7.053
10921POPC   C4A74538  36.925  12.114   7.353
10921POPC   C1B74539  37.099  12.201   6.453
10921POPC   C2B74540  37.098  12.240   6.753
10921POPC   C3B74541  37.139  12.179   7.053
10921POPC   C4B74542  37.150  12.239   7.353
10922POPC   NC374543  40.747  26.067   5.553
10922POPC   PO474544  40.826  26.019   5.853
10922POPC   GL174545  40.760  26.064   6.153
10922POPC   GL274546  40.681  26.077   6.153
10922POPC   C1A74547  40.777  25.994   6.453
10922POPC   D2A74548  40.777  25.996   6.753
10922POPC   C3A74549  40.795  26.066   7.053
10922POPC   C4A74550  40.736  25.993   7.353
10922POPC   C1B74551  40.550  26.183   6.453
10922POPC   C2B74552  40.560  26.189   6.753
10922POPC   C3B74553  40.539  26.194   7.053
10922POPC   C4B74554  40.581  26.130   7.353
10923POPC   NC374555   8.950  10.548   5.553
10923POPC   PO474556   9.019  10.531   5.853
10923POPC   GL174557   9.021  10.524   6.153
10923POPC   GL274558   9.017  10.378   6.153
10923POPC   C1A74559   8.952  10.531   6.453
10923POPC   D2A74560   9.009  10.573   6.753
10923POPC   C3A74561   8.933  10.572   7.053
10923POPC   C4A74562   8.969  10.478   7.353
10923POPC   C1B74563   9.106  10.290   6.453
10923POPC   C2B74564   9.110  10.276   6.753
10923POPC   C3B74565   9.069  10.292   7.053
10923POPC   C4B74566   9.087  10.258   7.353
10924POPC   NC374567  22.981  26.091   5.553
10924POPC   PO474568  22.888  26.027   5.853
10924POPC   GL174569  22.935  26.084   6.153
10924POPC   GL274570  23.107  26.113   6.153
10924POPC   C1A74571  22.894  26.081   6.453
10924POPC   D2A74572  22.983  26.018   6.753
10924POPC   C3A74573  22.968  26.091   7.053
10924POPC   C4A74574  22.922  26.086   7.353
10924POPC   C1B74575  23.173  26.070   6.453
10924POPC   C2B74576  23.177  26.100   6.753
10924POPC   C3B74577  23.191  26.073   7.053
10924POPC   C4B74578  23.201  26.153   7.353
10925POPC   NC374579  33.796  15.189   5.553
10925POPC   PO474580  33.771  15.132   5.853
10925POPC   GL174581  33.757  15.181   6.153
10925POPC   GL274582  33.874  15.288   6.153
10925POPC   C1A74583  33.800  15.195   6.453
10925POPC   D2A74584  33.814  15.190   6.753
10925POPC   C3A74585  33.812  15.149   7.053
10925POPC   C4A74586  33.775  15.136   7.353
10925POPC   C1B74587  33.866  15.392   6.453
10925POPC   C2B74588  33.868  15.426   6.753
10925POPC   C3B74589  33.897  15.443   7.053
10925POPC   C4B74590  33.900  15.451   7.353
10926POPC   NC374591  33.044   8.221   5.553
10926POPC   PO474592  33.032   8.148   5.853
10926POPC   GL174593  32.977   8.212   6.153
10926POPC   GL274594  33.158   8.178   6.153
10926POPC   C1A74595  33.000   8.219   6.453
10926POPC   D2A74596  32.983   8.201   6.753
10926POPC   C3A74597  33.065   8.190   7.053
10926POPC   C4A74598  33.060   8.157   7.353
10926POPC   C1B74599  33.308   8.127   6.453
10926POPC   C2B74600  33.286   8.185   6.753
10926POPC   C3B74601  33.240   8.188   7.053
10926POPC   C4B74602  33.268   8.121   7.353
10927POPC   NC374603  15.982  28.319   5.553
10927POPC   PO474604  15.942  28.403   5.853
10927POPC   GL174605  15.930  28.330   6.153
10927POPC   GL274606  15.927  28.494   6.153
10927POPC   C1A74607  15.917  28.368   6.453
10927POPC   D2A74608  15.975  28.398   6.753
10927POPC   C3A74609  15.933  28.368   7.053
10927POPC   C4A74610  15.982  28.395   7.353
10927POPC   C1B74611  15.902  28.618   6.453
10927POPC   C2B74612  15.981  28.575   6.753
10927POPC   C3B74613  15.961  28.666   7.053
10927POPC   C4B74614  15.933  28.644   7.353
10928POPC   NC374615   4.303  15.906   5.553
10928POPC   PO474616   4.344  15.958   5.853
10928POPC   GL174617   4.349  15.938   6.153
10928POPC   GL274618   4.326  15.848   6.153
10928POPC   C1A74619   4.269  16.002   6.453
10928POPC   D2A74620   4.308  15.932   6.753
10928POPC   C3A74621   4.348  15.928   7.053
10928POPC   C4A74622   4.328  15.971   7.353
10928POPC   C1B74623   4.377  15.713   6.453
10928POPC   C2B74624   4.445  15.767   6.753
10928POPC   C3B74625   4.465  15.779   7.053
10928POPC   C4B74626   4.414  15.766   7.353
10929POPC   NC374627   9.005   2.765   5.553
10929POPC   PO474628   8.968   2.780   5.853
10929POPC   GL174629   8.997   2.730   6.153
10929POPC   GL274630   8.927   2.879   6.153
10929POPC   C1A74631   8.941   2.796   6.453
10929POPC   D2A74632   9.010   2.814   6.753
10929POPC   C3A74633   8.939   2.807   7.053
10929POPC   C4A74634   8.987   2.773   7.353
10929POPC   C1B74635   8.938   2.956   6.453
10929POPC   C2B74636   8.873   3.008   6.753
10929POPC   C3B74637   8.862   2.971   7.053
10929POPC   C4B74638   8.913   3.028   7.353
10930POPC   NC374639  36.133   0.460   5.553
10930POPC   PO474640  36.094   0.409   5.853
10930POPC   GL174641  36.086   0.451   6.153
10930POPC   GL274642  36.117   0.331   6.153
10930POPC   C1A74643  36.137   0.474   6.453
10930POPC   D2A74644  36.140   0.425   6.753
10930POPC   C3A74645  36.133   0.407   7.053
10930POPC   C4A74646  36.125   0.466   7.353
10930POPC   C1B74647  36.052   0.210   6.453
10930POPC   C2B74648  36.049   0.218   6.753
10930POPC   C3B74649  36.025   0.240   7.053
10930POPC   C4B74650  36.083   0.231   7.353
10931POPC   NC374651   7.436  22.896   5.553
10931POPC   PO474652   7.468  22.967   5.853
10931POPC   GL174653   7.407  22.980   6.153
10931POPC   GL274654   7.401  22.835   6.153
10931POPC   C1A74655   7.442  22.960   6.453
10931POPC   D2A74656   7.388  22.925   6.753
10931POPC   C3A74657   7.402  22.911   7.053
10931POPC   C4A74658   7.436  22.966   7.353
10931POPC   C1B74659   7.457  22.709   6.453
10931POPC   C2B74660   7.477  22.653   6.753
10931POPC   C3B74661   7.444  22.698   7.053
10931POPC   C4B74662   7.490  22.657   7.353
10932POPC   NC374663  18.307  29.188   5.553
10932POPC   PO474664  18.237  29.156   5.853
10932POPC   GL174665  18.245  29.154   6.153
10932POPC   GL274666  18.396  29.015   6.153
10932POPC   C1A74667  18.263  29.109   6.453
10932POPC   D2A74668  18.273  29.166   6.753
10932POPC   C3A74669  18.273  29.105   7.053
10932POPC   C4A74670  18.282  29.167   7.353
10932POPC   C1B74671  18.436  29.014   6.453
10932POPC   C2B74672  18.419  28.957   6.753
10932POPC   C3B74673  18.469  28.982   7.053
10932POPC   C4B74674  18.484  28.983   7.353
10933POPC   NC374675  10.490  22.112   5.553
10933POPC   PO474676  10.539  22.156   5.853
10933POPC   GL174677  10.553  22.159   6.153
10933POPC   GL274678  10.634  22.163   6.153
10933POPC   C1A74679  10.526  22.161   6.453
10933POPC   D2A74680  10.492  22.133   6.753
10933POPC   C3A74681  10.536  22.202   7.053
10933POPC   C4A74682  10.563  22.157   7.353
10933POPC   C1B74683  10.745  22.130   6.453
10933POPC   C2B74684  10.774  22.162   6.753
10933POPC   C3B74685  10.761  22.120   7.053
10933POPC   C4B74686  10.727  22.152   7.353
10934POPC   NC374687  15.229   6.674   5.553
10934POPC   PO474688  15.197   6.620   5.853
10934POPC   GL174689  15.200   6.666   6.153
10934POPC   GL274690  15.247   6.636   6.153
10934POPC   C1A74691  15.201   6.642   6.453
10934POPC   D2A74692  15.208   6.667   6.753
10934POPC   C3A74693  15.156   6.677   7.053
10934POPC   C4A74694  15.157   6.609   7.353
10934POPC   C1B74695  15.418   6.503   6.453
10934POPC   C2B74696  15.369   6.546   6.753
10934POPC   C3B74697  15.434   6.493   7.053
10934POPC   C4B74698  15.386   6.563   7.353
10935POPC   NC374699  31.476  34.611   5.553
10935POPC   PO474700  31.508  34.561   5.853
10935POPC   GL174701  31.452  34.606   6.153
10935POPC   GL274702  31.621  34.684   6.153
10935POPC   C1A74703  31.517  34.564   6.453
10935POPC   D2A74704  31.484  34.591   6.753
10935POPC   C3A74705  31.486  34.536   7.053
10935POPC   C4A74706  31.452  34.585   7.353
10935POPC   C1B74707  31.712  34.693   6.453
10935POPC   C2B74708  31.714  34.670   6.753
10935POPC   C3B74709  31.713  34.685   7.053
10935POPC   C4B74710  31.659  34.696   7.353
10936POPC   NC374711  44.613  17.533   5.553
10936POPC   PO474712  44.674  17.469   5.853
10936POPC   GL174713  44.668  17.483   6.153
10936POPC   GL274714  44.535  17.625   6.153
10936POPC   C1A74715  44.634  17.504   6.453
10936POPC   D2A74716  44.705  17.507   6.753
10936POPC   C3A74717  44.669  17.527   7.053
10936POPC   C4A74718  44.706  17.464   7.353
10936POPC   C1B74719  44.453  17.671   6.453
10936POPC   C2B74720  44.460  17.714   6.753
10936POPC   C3B74721  44.426  17.669   7.053
10936POPC   C4B74722  44.467  17.655   7.353
10937POPC   NC374723   4.305  20.618   5.553
10937POPC   PO474724   4.351  20.659   5.853
10937POPC   GL174725   4.349  20.631   6.153
10937POPC   GL274726   4.334  20.693   6.153
10937POPC   C1A74727   4.293  20.605   6.453
10937POPC   D2A74728   4.359  20.586   6.753
10937POPC   C3A74729   4.356  20.593   7.053
10937POPC   C4A74730   4.319  20.658   7.353
10937POPC   C1B74731   4.446  20.818   6.453
10937POPC   C2B74732   4.459  20.815   6.753
10937POPC   C3B74733   4.445  20.783   7.053
10937POPC   C4B74734   4.413  20.787   7.353
10938POPC   NC374735   9.784  22.923   5.553
10938POPC   PO474736   9.775  22.960   5.853
10938POPC   GL174737   9.764  22.952   6.153
10938POPC   GL274738   9.670  23.012   6.153
10938POPC   C1A74739   9.713  22.919   6.453
10938POPC   D2A74740   9.754  22.936   6.753
10938POPC   C3A74741   9.749  22.974   7.053
10938POPC   C4A74742   9.788  22.914   7.353
10938POPC   C1B74743   9.543  23.022   6.453
10938POPC   C2B74744   9.536  22.958   6.753
10938POPC   C3B74745   9.476  22.985   7.053
10938POPC   C4B74746   9.539  23.036   7.353
10939POPC   NC374747  21.398  23.716   5.553
10939POPC   PO474748  21.350  23.712   5.853
10939POPC   GL174749  21.357  23.687   6.153
10939POPC   GL274750  21.306  23.823   6.153
10939POPC   C1A74751  21.427  23.759   6.453
10939POPC   D2A74752  21.426  23.680   6.753
10939POPC   C3A74753  21.351  23.685   7.053
10939POPC   C4A74754  21.395  23.686   7.353
10939POPC   C1B74755  21.228  23.819   6.453
10939POPC   C2B74756  21.186  23.870   6.753
10939POPC   C3B74757  21.181  23.897   7.053
10939POPC   C4B74758  21.230  23.888   7.353
10940POPC   NC374759  43.079  12.027   5.553
10940POPC   PO474760  43.155  12.031   5.853
10940POPC   GL174761  43.153  12.124   6.153
10940POPC   GL274762  43.280  12.071   6.153
10940POPC   C1A74763  43.141  12.050   6.453
10940POPC   D2A74764  43.098  12.100   6.753
10940POPC   C3A74765  43.078  12.099   7.053
10940POPC   C4A74766  43.082  12.087   7.353
10940POPC   C1B74767  43.314  12.155   6.453
10940POPC   C2B74768  43.353  12.122   6.753
10940POPC   C3B74769  43.357  12.125   7.053
10940POPC   C4B74770  43.328  12.124   7.353
10941POPC   NC374771  43.884  26.778   5.553
10941POPC   PO474772  43.879  26.820   5.853
10941POPC   GL174773  43.931  26.773   6.153
10941POPC   GL274774  43.836  26.718   6.153
10941POPC   C1A74775  43.860  26.850   6.453
10941POPC   D2A74776  43.836  26.770   6.753
10941POPC   C3A74777  43.884  26.835   7.053
10941POPC   C4A74778  43.902  26.803   7.353
10941POPC   C1B74779  43.821  26.541   6.453
10941POPC   C2B74780  43.797  26.575   6.753
10941POPC   C3B74781  43.854  26.577   7.053
10941POPC   C4B74782  43.764  26.555   7.353
10942POPC   NC374783  35.366  26.801   5.553
10942POPC   PO474784  35.346  26.825   5.853
10942POPC   GL174785  35.367  26.776   6.153
10942POPC   GL274786  35.255  26.671   6.153
10942POPC   C1A74787  35.382  26.854   6.453
10942POPC   D2A74788  35.388  26.861   6.753
10942POPC   C3A74789  35.382  26.826   7.053
10942POPC   C4A74790  35.394  26.863   7.353
10942POPC   C1B74791  35.240  26.610   6.453
10942POPC   C2B74792  35.214  26.600   6.753
10942POPC   C3B74793  35.219  26.645   7.053
10942POPC   C4B74794  35.210  26.579   7.353
10943POPC   NC374795  28.362   3.542   5.553
10943POPC   PO474796  28.349   3.533   5.853
10943POPC   GL174797  28.339   3.559   6.153
10943POPC   GL274798  28.346   3.463   6.153
10943POPC   C1A74799  28.391   3.576   6.453
10943POPC   D2A74800  28.346   3.527   6.753
10943POPC   C3A74801  28.335   3.553   7.053
10943POPC   C4A74802  28.364   3.498   7.353
10943POPC   C1B74803  28.326   3.295   6.453
10943POPC   C2B74804  28.340   3.267   6.753
10943POPC   C3B74805  28.377   3.279   7.053
10943POPC   C4B74806  28.339   3.271   7.353
10944POPC   NC374807  28.331  15.924   5.553
10944POPC   PO474808  28.354  15.949   5.853
10944POPC   GL174809  28.388  15.926   6.153
10944POPC   GL274810  28.448  15.901   6.153
10944POPC   C1A74811  28.375  15.914   6.453
10944POPC   D2A74812  28.368  15.925   6.753
10944POPC   C3A74813  28.417  15.930   7.053
10944POPC   C4A74814  28.335  15.979   7.353
10944POPC   C1B74815  28.639  15.969   6.453
10944POPC   C2B74816  28.581  15.969   6.753
10944POPC   C3B74817  28.611  15.882   7.053
10944POPC   C4B74818  28.610  15.896   7.353
10945POPC   NC374819   8.947  13.674   5.553
10945POPC   PO474820   9.014  13.652   5.853
10945POPC   GL174821   8.967  13.641   6.153
10945POPC   GL274822   8.961  13.762   6.153
10945POPC   C1A74823   8.956  13.594   6.453
10945POPC   D2A74824   9.003  13.614   6.753
10945POPC   C3A74825   9.016  13.668   7.053
10945POPC   C4A74826   8.989  13.642   7.353
10945POPC   C1B74827   9.077  13.860   6.453
10945POPC   C2B74828   9.025  13.818   6.753
10945POPC   C3B74829   9.016  13.866   7.053
10945POPC   C4B74830   9.059  13.828   7.353
10946POPC   NC374831  30.735   4.280   5.553
10946POPC   PO474832  30.670   4.325   5.853
10946POPC   GL174833  30.714   4.361   6.153
10946POPC   GL274834  30.744   4.189   6.153
10946POPC   C1A74835  30.655   4.290   6.453
10946POPC   D2A74836  30.744   4.337   6.753
10946POPC   C3A74837  30.701   4.308   7.053
10946POPC   C4A74838  30.662   4.273   7.353
10946POPC   C1B74839  30.758   4.124   6.453
10946POPC   C2B74840  30.758   4.084   6.753
10946POPC   C3B74841  30.768   4.080   7.053
10946POPC   C4B74842  30.759   4.115   7.353
10947POPC   NC374843  36.896  40.769   5.553
10947POPC   PO474844  36.888  40.801   5.853
10947POPC   GL174845  36.927  40.809   6.153
10947POPC   GL274846  36.868  40.933   6.153
10947POPC   C1A74847  36.872  40.799   6.453
10947POPC   D2A74848  36.912  40.749   6.753
10947POPC   C3A74849  36.951  40.769   7.053
10947POPC   C4A74850  36.922  40.781   7.353
10947POPC   C1B74851  36.827  41.015   6.453
10947POPC   C2B74852  36.798  41.051   6.753
10947POPC   C3B74853  36.819  41.033   7.053
10947POPC   C4B74854  36.843  41.011   7.353
10948POPC   NC374855   5.896  18.273   5.553
10948POPC   PO474856   5.873  18.272   5.853
10948POPC   GL174857   5.833  18.272   6.153
10948POPC   GL274858   5.758  18.155   6.153
10948POPC   C1A74859   5.846  18.287   6.453
10948POPC   D2A74860   5.864  18.277   6.753
10948POPC   C3A74861   5.887  18.310   7.053
10948POPC   C4A74862   5.828  18.252   7.353
10948POPC   C1B74863   5.765  18.040   6.453
10948POPC   C2B74864   5.735  18.078   6.753
10948POPC   C3B74865   5.708  18.047   7.053
10948POPC   C4B74866   5.756  18.090   7.353
10949POPC   NC374867  10.534  33.795   5.553
10949POPC   PO474868  10.555  33.834   5.853
10949POPC   GL174869  10.479  33.798   6.153
10949POPC   GL274870  10.537  33.929   6.153
10949POPC   C1A74871  10.501  33.829   6.453
10949POPC   D2A74872  10.498  33.844   6.753
10949POPC   C3A74873  10.475  33.792   7.053
10949POPC   C4A74874  10.491  33.811   7.353
10949POPC   C1B74875  10.466  33.997   6.453
10949POPC   C2B74876  10.479  34.019   6.753
10949POPC   C3B74877  10.455  34.074   7.053
10949POPC   C4B74878  10.492  34.043   7.353
10950POPC   NC374879  36.938  37.675   5.553
10950POPC   PO474880  36.867  37.647   5.853
10950POPC   GL174881  36.868  37.676   6.153
10950POPC   GL274882  36.957  37.596   6.153
10950POPC   C1A74883  36.914  37.712   6.453
10950POPC   D2A74884  36.861  37.713   6.753
10950POPC   C3A74885  36.877  37.643   7.053
10950POPC   C4A74886  36.874  37.689   7.353
10950POPC   C1B74887  37.041  37.466   6.453
10950POPC   C2B74888  37.048  37.461   6.753
10950POPC   C3B74889  37.012  37.450   7.053
10950POPC   C4B74890  37.042  37.433   7.353
10951POPC   NC374891  12.057  16.002   5.553
10951POPC   PO474892  12.125  15.948   5.853
10951POPC   GL174893  12.099  15.984   6.153
10951POPC   GL274894  12.197  15.890   6.153
10951POPC   C1A74895  12.041  15.977   6.453
10951POPC   D2A74896  12.052  15.969   6.753
10951POPC   C3A74897  12.060  15.929   7.053
10951POPC   C4A74898  12.058  15.971   7.353
10951POPC   C1B74899  12.210  15.815   6.453
10951POPC   C2B74900  12.212  15.790   6.753
10951POPC   C3B74901  12.275  15.803   7.053
10951POPC   C4B74902  12.222  15.767   7.353
10952POPC   NC374903  16.740  16.754   5.553
10952POPC   PO474904  16.700  16.727   5.853
10952POPC   GL174905  16.780  16.741   6.153
10952POPC   GL274906  16.810  16.699   6.153
10952POPC   C1A74907  16.735  16.698   6.453
10952POPC   D2A74908  16.740  16.758   6.753
10952POPC   C3A74909  16.773  16.744   7.053
10952POPC   C4A74910  16.682  16.706   7.353
10952POPC   C1B74911  16.971  16.614   6.453
10952POPC   C2B74912  16.961  16.619   6.753
10952POPC   C3B74913  16.974  16.591   7.053
10952POPC   C4B74914  16.901  16.589   7.353
10953POPC   NC374915   9.018   2.033   5.553
10953POPC   PO474916   8.949   1.954   5.853
10953POPC   GL174917   8.974   1.959   6.153
10953POPC   GL274918   9.123   2.013   6.153
10953POPC   C1A74919   9.013   2.007   6.453
10953POPC   D2A74920   8.943   1.944   6.753
10953POPC   C3A74921   8.977   1.970   7.053
10953POPC   C4A74922   9.001   1.946   7.353
10953POPC   C1B74923   9.236   1.922   6.453
10953POPC   C2B74924   9.206   1.992   6.753
10953POPC   C3B74925   9.179   1.980   7.053
10953POPC   C4B74926   9.241   2.000   7.353
10954POPC   NC374927  36.865  21.392   5.553
10954POPC   PO474928  36.878  21.405   5.853
10954POPC   GL174929  36.870  21.370   6.153
10954POPC   GL274930  36.852  21.463   6.153
10954POPC   C1A74931  36.874  21.409   6.453
10954POPC   D2A74932  36.953  21.383   6.753
10954POPC   C3A74933  36.890  21.386   7.053
10954POPC   C4A74934  36.905  21.413   7.353
10954POPC   C1B74935  36.782  21.528   6.453
10954POPC   C2B74936  36.715  21.535   6.753
10954POPC   C3B74937  36.748  21.566   7.053
10954POPC   C4B74938  36.687  21.572   7.353
10955POPC   NC374939  40.818  36.167   5.553
10955POPC   PO474940  40.747  36.177   5.853
10955POPC   GL174941  40.815  36.128   6.153
10955POPC   GL274942  40.813  36.260   6.153
10955POPC   C1A74943  40.760  36.099   6.453
10955POPC   D2A74944  40.796  36.082   6.753
10955POPC   C3A74945  40.792  36.110   7.053
10955POPC   C4A74946  40.757  36.163   7.353
10955POPC   C1B74947  40.900  36.344   6.453
10955POPC   C2B74948  40.902  36.322   6.753
10955POPC   C3B74949  40.941  36.300   7.053
10955POPC   C4B74950  40.953  36.382   7.353
10956POPC   NC374951  38.468  39.271   5.553
10956POPC   PO474952  38.504  39.239   5.853
10956POPC   GL174953  38.461  39.242   6.153
10956POPC   GL274954  38.294  39.287   6.153
10956POPC   C1A74955  38.487  39.273   6.453
10956POPC   D2A74956  38.441  39.230   6.753
10956POPC   C3A74957  38.413  39.215   7.053
10956POPC   C4A74958  38.458  39.242   7.353
10956POPC   C1B74959  38.182  39.213   6.453
10956POPC   C2B74960  38.195  39.245   6.753
10956POPC   C3B74961  38.205  39.296   7.053
10956POPC   C4B74962  38.253  39.258   7.353
10957POPC   NC374963   7.447  18.306   5.553
10957POPC   PO474964   7.450  18.307   5.853
10957POPC   GL174965   7.382  18.322   6.153
10957POPC   GL274966   7.517  18.211   6.153
10957POPC   C1A74967   7.453  18.319   6.453
10957POPC   D2A74968   7.440  18.277   6.753
10957POPC   C3A74969   7.450  18.315   7.053
10957POPC   C4A74970   7.387  18.321   7.353
10957POPC   C1B74971   7.662  18.241   6.453
10957POPC   C2B74972   7.649  18.170   6.753
10957POPC   C3B74973   7.640  18.222   7.053
10957POPC   C4B74974   7.702  18.192   7.353
10958POPC   NC374975  38.429   9.718   5.553
10958POPC   PO474976  38.498   9.700   5.853
10958POPC   GL174977  38.412   9.713   6.153
10958POPC   GL274978  38.485   9.875   6.153
10958POPC   C1A74979  38.451   9.784   6.453
10958POPC   D2A74980  38.445   9.793   6.753
10958POPC   C3A74981  38.496   9.764   7.053
10958POPC   C4A74982  38.413   9.717   7.353
10958POPC   C1B74983  38.533   9.971   6.453
10958POPC   C2B74984  38.559   9.945   6.753
10958POPC   C3B74985  38.549  10.011   7.053
10958POPC   C4B74986  38.536   9.947   7.353
10959POPC   NC374987  24.490  32.212   5.553
10959POPC   PO474988  24.534  32.206   5.853
10959POPC   GL174989  24.499  32.241   6.153
10959POPC   GL274990  24.544  32.184   6.153
10959POPC   C1A74991  24.515  32.282   6.453
10959POPC   D2A74992  24.469  32.236   6.753
10959POPC   C3A74993  24.490  32.266   7.053
10959POPC   C4A74994  24.500  32.268   7.353
10959POPC   C1B74995  24.622  32.064   6.453
10959POPC   C2B74996  24.647  32.018   6.753
10959POPC   C3B74997  24.669  32.082   7.053
10959POPC   C4B74998  24.587  32.022   7.353
10960POPC   NC374999  33.785   9.016   5.553
10960POPC   PO475000  33.829   8.938   5.853
10960POPC   GL175001  33.751   8.999   6.153
10960POPC   GL275002  33.715   9.021   6.153
10960POPC   C1A75003  33.846   9.001   6.453
10960POPC   D2A75004  33.755   8.937   6.753
10960POPC   C3A75005  33.822   8.983   7.053
10960POPC   C4A75006  33.799   8.933   7.353
10960POPC   C1B75007  33.654   9.181   6.453
10960POPC   C2B75008  33.666   9.128   6.753
10960POPC   C3B75009  33.639   9.192   7.053
10960POPC   C4B75010  33.637   9.189   7.353
10961POPC   NC375011  29.159  31.445   5.553
10961POPC   PO475012  29.193  31.473   5.853
10961POPC   GL175013  29.147  31.447   6.153
10961POPC   GL275014  29.252  31.460   6.153
10961POPC   C1A75015  29.178  31.478   6.453
10961POPC   D2A75016  29.110  31.517   6.753
10961POPC   C3A75017  29.144  31.464   7.053
10961POPC   C4A75018  29.095  31.451   7.353
10961POPC   C1B75019  29.371  31.535   6.453
10961POPC   C2B75020  29.410  31.505   6.753
10961POPC   C3B75021  29.380  31.506   7.053
10961POPC   C4B75022  29.382  31.572   7.353
10962POPC   NC375023   6.666  15.217   5.553
10962POPC   PO475024   6.626  15.210   5.853
10962POPC   GL175025   6.604  15.192   6.153
10962POPC   GL275026   6.568  15.238   6.153
10962POPC   C1A75027   6.678  15.139   6.453
10962POPC   D2A75028   6.687  15.146   6.753
10962POPC   C3A75029   6.623  15.207   7.053
10962POPC   C4A75030   6.649  15.146   7.353
10962POPC   C1B75031   6.439  15.326   6.453
10962POPC   C2B75032   6.437  15.331   6.753
10962POPC   C3B75033   6.409  15.363   7.053
10962POPC   C4B75034   6.461  15.350   7.353
10963POPC   NC375035  42.348  22.145   5.553
10963POPC   PO475036  42.346  22.171   5.853
10963POPC   GL175037  42.336  22.200   6.153
10963POPC   GL275038  42.301  22.011   6.153
10963POPC   C1A75039  42.364  22.123   6.453
10963POPC   D2A75040  42.348  22.199   6.753
10963POPC   C3A75041  42.358  22.179   7.053
10963POPC   C4A75042  42.295  22.118   7.353
10963POPC   C1B75043  42.212  21.927   6.453
10963POPC   C2B75044  42.169  21.906   6.753
10963POPC   C3B75045  42.211  21.935   7.053
10963POPC   C4B75046  42.147  22.000   7.353
10964POPC   NC375047  24.480  16.689   5.553
10964POPC   PO475048  24.513  16.711   5.853
10964POPC   GL175049  24.528  16.733   6.153
10964POPC   GL275050  24.395  16.808   6.153
10964POPC   C1A75051  24.500  16.770   6.453
10964POPC   D2A75052  24.535  16.704   6.753
10964POPC   C3A75053  24.469  16.744   7.053
10964POPC   C4A75054  24.452  16.765   7.353
10964POPC   C1B75055  24.436  16.979   6.453
10964POPC   C2B75056  24.353  16.977   6.753
10964POPC   C3B75057  24.403  16.978   7.053
10964POPC   C4B75058  24.370  16.923   7.353
10965POPC   NC375059  20.630  11.331   5.553
10965POPC   PO475060  20.576  11.332   5.853
10965POPC   GL175061  20.633  11.304   6.153
10965POPC   GL275062  20.749  11.394   6.153
10965POPC   C1A75063  20.631  11.254   6.453
10965POPC   D2A75064  20.619  11.308   6.753
10965POPC   C3A75065  20.593  11.344   7.053
10965POPC   C4A75066  20.568  11.253   7.353
10965POPC   C1B75067  20.799  11.378   6.453
10965POPC   C2B75068  20.815  11.470   6.753
10965POPC   C3B75069  20.875  11.428   7.053
10965POPC   C4B75070  20.817  11.375   7.353
10966POPC   NC375071  31.456  19.815   5.553
10966POPC   PO475072  31.521  19.790   5.853
10966POPC   GL175073  31.427  19.824   6.153
10966POPC   GL275074  31.349  19.793   6.153
10966POPC   C1A75075  31.501  19.819   6.453
10966POPC   D2A75076  31.505  19.818   6.753
10966POPC   C3A75077  31.518  19.882   7.053
10966POPC   C4A75078  31.522  19.810   7.353
10966POPC   C1B75079  31.267  19.725   6.453
10966POPC   C2B75080  31.307  19.688   6.753
10966POPC   C3B75081  31.264  19.708   7.053
10966POPC   C4B75082  31.253  19.676   7.353
10967POPC   NC375083  36.086   5.051   5.553
10967POPC   PO475084  36.146   5.134   5.853
10967POPC   GL175085  36.112   5.123   6.153
10967POPC   GL275086  36.246   5.156   6.153
10967POPC   C1A75087  36.098   5.138   6.453
10967POPC   D2A75088  36.085   5.044   6.753
10967POPC   C3A75089  36.092   5.137   7.053
10967POPC   C4A75090  36.163   5.134   7.353
10967POPC   C1B75091  36.307   5.315   6.453
10967POPC   C2B75092  36.303   5.276   6.753
10967POPC   C3B75093  36.294   5.331   7.053
10967POPC   C4B75094  36.325   5.316   7.353
10968POPC   NC375095  29.129  42.316   5.553
10968POPC   PO475096  29.150  42.305   5.853
10968POPC   GL175097  29.167  42.307   6.153
10968POPC   GL275098  29.018  42.323   6.153
10968POPC   C1A75099  29.170  42.338   6.453
10968POPC   D2A75100  29.098  42.298   6.753
10968POPC   C3A75101  29.101  42.301   7.053
10968POPC   C4A75102  29.119  42.291   7.353
10968POPC   C1B75103  28.860  42.416   6.453
10968POPC   C2B75104  28.903  42.356   6.753
10968POPC   C3B75105  28.863  42.436   7.053
10968POPC   C4B75106  28.946  42.450   7.353
10969POPC   NC375107  34.600  29.954   5.553
10969POPC   PO475108  34.574  29.900   5.853
10969POPC   GL175109  34.538  29.919   6.153
10969POPC   GL275110  34.557  29.791   6.153
10969POPC   C1A75111  34.530  29.888   6.453
10969POPC   D2A75112  34.571  29.910   6.753
10969POPC   C3A75113  34.599  29.880   7.053
10969POPC   C4A75114  34.561  29.944   7.353
10969POPC   C1B75115  34.498  29.726   6.453
10969POPC   C2B75116  34.510  29.698   6.753
10969POPC   C3B75117  34.468  29.686   7.053
10969POPC   C4B75118  34.444  29.694   7.353
10970POPC   NC375119  28.370   5.902   5.553
10970POPC   PO475120  28.401   5.823   5.853
10970POPC   GL175121  28.376   5.856   6.153
10970POPC   GL275122  28.372   6.017   6.153
10970POPC   C1A75123  28.409   5.845   6.453
10970POPC   D2A75124  28.387   5.871   6.753
10970POPC   C3A75125  28.344   5.862   7.053
10970POPC   C4A75126  28.383   5.900   7.353
10970POPC   C1B75127  28.391   6.087   6.453
10970POPC   C2B75128  28.349   6.127   6.753
10970POPC   C3B75129  28.347   6.145   7.053
10970POPC   C4B75130  28.337   6.088   7.353
10971POPC   NC375131  29.115  23.667   5.553
10971POPC   PO475132  29.182  23.752   5.853
10971POPC   GL175133  29.106  23.693   6.153
10971POPC   GL275134  29.027  23.822   6.153
10971POPC   C1A75135  29.103  23.681   6.453
10971POPC   D2A75136  29.174  23.706   6.753
10971POPC   C3A75137  29.100  23.690   7.053
10971POPC   C4A75138  29.133  23.733   7.353
10971POPC   C1B75139  28.974  23.898   6.453
10971POPC   C2B75140  29.052  23.916   6.753
10971POPC   C3B75141  29.005  23.954   7.053
10971POPC   C4B75142  29.021  23.961   7.353
10972POPC   NC375143  10.515  26.819   5.553
10972POPC   PO475144  10.570  26.848   5.853
10972POPC   GL175145  10.559  26.788   6.153
10972POPC   GL275146  10.615  26.779   6.153
10972POPC   C1A75147  10.512  26.827   6.453
10972POPC   D2A75148  10.490  26.849   6.753
10972POPC   C3A75149  10.564  26.828   7.053
10972POPC   C4A75150  10.561  26.792   7.353
10972POPC   C1B75151  10.805  26.775   6.453
10972POPC   C2B75152  10.758  26.723   6.753
10972POPC   C3B75153  10.780  26.757   7.053
10972POPC   C4B75154  10.803  26.725   7.353
10973POPC   NC375155  15.909   0.423   5.553
10973POPC   PO475156  15.921   0.424   5.853
10973POPC   GL175157  15.978   0.446   6.153
10973POPC   GL275158  15.847   0.538   6.153
10973POPC   C1A75159  16.001   0.427   6.453
10973POPC   D2A75160  15.943   0.486   6.753
10973POPC   C3A75161  15.946   0.461   7.053
10973POPC   C4A75162  15.928   0.431   7.353
10973POPC   C1B75163  15.793   0.691   6.453
10973POPC   C2B75164  15.784   0.648   6.753
10973POPC   C3B75165  15.862   0.611   7.053
10973POPC   C4B75166  15.813   0.615   7.353
10974POPC   NC375167  26.796   1.963   5.553
10974POPC   PO475168  26.781   1.973   5.853
10974POPC   GL175169  26.814   1.976   6.153
10974POPC   GL275170  26.701   2.037   6.153
10974POPC   C1A75171  26.822   1.991   6.453
10974POPC   D2A75172  26.840   1.994   6.753
10974POPC   C3A75173  26.793   1.997   7.053
10974POPC   C4A75174  26.853   1.959   7.353
10974POPC   C1B75175  26.597   2.035   6.453
10974POPC   C2B75176  26.622   2.108   6.753
10974POPC   C3B75177  26.586   2.111   7.053
10974POPC   C4B75178  26.563   2.071   7.353
10975POPC   NC375179   8.226  33.764   5.553
10975POPC   PO475180   8.229  33.833   5.853
10975POPC   GL175181   8.240  33.754   6.153
10975POPC   GL275182   8.331  33.889   6.153
10975POPC   C1A75183   8.178  33.818   6.453
10975POPC   D2A75184   8.183  33.751   6.753
10975POPC   C3A75185   8.244  33.845   7.053
10975POPC   C4A75186   8.229  33.814   7.353
10975POPC   C1B75187   8.387  33.930   6.453
10975POPC   C2B75188   8.408  33.886   6.753
10975POPC   C3B75189   8.407  33.888   7.053
10975POPC   C4B75190   8.380  33.898   7.353
10976POPC   NC375191   9.733   3.548   5.553
10976POPC   PO475192   9.747   3.557   5.853
10976POPC   GL175193   9.744   3.587   6.153
10976POPC   GL275194   9.603   3.471   6.153
10976POPC   C1A75195   9.785   3.568   6.453
10976POPC   D2A75196   9.747   3.534   6.753
10976POPC   C3A75197   9.777   3.549   7.053
10976POPC   C4A75198   9.700   3.585   7.353
10976POPC   C1B75199   9.475   3.433   6.453
10976POPC   C2B75200   9.549   3.441   6.753
10976POPC   C3B75201   9.470   3.419   7.053
10976POPC   C4B75202   9.549   3.493   7.353
10977POPC   NC375203   3.588  39.267   5.553
10977POPC   PO475204   3.561  39.270   5.853
10977POPC   GL175205   3.564  39.240   6.153
10977POPC   GL275206   3.680  39.249   6.153
10977POPC   C1A75207   3.537  39.237   6.453
10977POPC   D2A75208   3.526  39.196   6.753
10977POPC   C3A75209   3.514  39.188   7.053
10977POPC   C4A75210   3.556  39.271   7.353
10977POPC   C1B75211   3.768  39.312   6.453
10977POPC   C2B75212   3.779  39.272   6.753
10977POPC   C3B75213   3.783  39.288   7.053
10977POPC   C4B75214   3.795  39.252   7.353
10978POPC   NC375215  26.819  40.042   5.553
10978POPC   PO475216  26.802  39.971   5.853
10978POPC   GL175217  26.776  40.010   6.153
10978POPC   GL275218  26.899  39.881   6.153
10978POPC   C1A75219  26.830  39.997   6.453
10978POPC   D2A75220  26.854  40.024   6.753
10978POPC   C3A75221  26.833  39.978   7.053
10978POPC   C4A75222  26.814  39.971   7.353
10978POPC   C1B75223  26.996  39.817   6.453
10978POPC   C2B75224  26.993  39.824   6.753
10978POPC   C3B75225  27.057  39.807   7.053
10978POPC   C4B75226  26.982  39.844   7.353
10979POPC   NC375227  33.831   9.722   5.553
10979POPC   PO475228  33.761   9.757   5.853
10979POPC   GL175229  33.786   9.735   6.153
10979POPC   GL275230  33.855   9.620   6.153
10979POPC   C1A75231  33.753   9.779   6.453
10979POPC   D2A75232  33.780   9.781   6.753
10979POPC   C3A75233  33.823   9.789   7.053
10979POPC   C4A75234  33.836   9.793   7.353
10979POPC   C1B75235  33.919   9.558   6.453
10979POPC   C2B75236  33.996   9.542   6.753
10979POPC   C3B75237  33.937   9.600   7.053
10979POPC   C4B75238  33.910   9.535   7.353
10980POPC   NC375239  41.598  34.619   5.553
10980POPC   PO475240  41.558  34.605   5.853
10980POPC   GL175241  41.605  34.620   6.153
10980POPC   GL275242  41.498  34.660   6.153
10980POPC   C1A75243  41.576  34.533   6.453
10980POPC   D2A75244  41.509  34.580   6.753
10980POPC   C3A75245  41.566  34.540   7.053
10980POPC   C4A75246  41.510  34.591   7.353
10980POPC   C1B75247  41.503  34.801   6.453
10980POPC   C2B75248  41.480  34.845   6.753
10980POPC   C3B75249  41.440  34.817   7.053
10980POPC   C4B75250  41.474  34.808   7.353
10981POPC   NC375251  37.689  12.126   5.553
10981POPC   PO475252  37.652  12.053   5.853
10981POPC   GL175253  37.633  12.060   6.153
10981POPC   GL275254  37.628  11.975   6.153
10981POPC   C1A75255  37.693  12.097   6.453
10981POPC   D2A75256  37.696  12.119   6.753
10981POPC   C3A75257  37.716  12.053   7.053
10981POPC   C4A75258  37.664  12.036   7.353
10981POPC   C1B75259  37.662  11.852   6.453
10981POPC   C2B75260  37.594  11.864   6.753
10981POPC   C3B75261  37.617  11.814   7.053
10981POPC   C4B75262  37.612  11.872   7.353
10982POPC   NC375263  16.713   8.193   5.553
10982POPC   PO475264  16.709   8.217   5.853
10982POPC   GL175265  16.761   8.167   6.153
10982POPC   GL275266  16.615   8.330   6.153
10982POPC   C1A75267  16.744   8.194   6.453
10982POPC   D2A75268  16.705   8.210   6.753
10982POPC   C3A75269  16.698   8.184   7.053
10982POPC   C4A75270  16.772   8.212   7.353
10982POPC   C1B75271  16.610   8.358   6.453
10982POPC   C2B75272  16.556   8.425   6.753
10982POPC   C3B75273  16.580   8.402   7.053
10982POPC   C4B75274  16.563   8.368   7.353
10983POPC   NC375275   7.384  15.196   5.553
10983POPC   PO475276   7.470  15.179   5.853
10983POPC   GL175277   7.417  15.175   6.153
10983POPC   GL275278   7.356  15.251   6.153
10983POPC   C1A75279   7.444  15.204   6.453
10983POPC   D2A75280   7.381  15.201   6.753
10983POPC   C3A75281   7.464  15.174   7.053
10983POPC   C4A75282   7.412  15.145   7.353
10983POPC   C1B75283   7.253  15.369   6.453
10983POPC   C2B75284   7.218  15.354   6.753
10983POPC   C3B75285   7.228  15.340   7.053
10983POPC   C4B75286   7.179  15.285   7.353
10984POPC   NC375287  12.109  19.087   5.553
10984POPC   PO475288  12.104  19.076   5.853
10984POPC   GL175289  12.125  19.015   6.153
10984POPC   GL275290  12.003  19.146   6.153
10984POPC   C1A75291  12.098  19.013   6.453
10984POPC   D2A75292  12.090  19.025   6.753
10984POPC   C3A75293  12.114  19.046   7.053
10984POPC   C4A75294  12.055  19.060   7.353
10984POPC   C1B75295  11.904  19.254   6.453
10984POPC   C2B75296  11.954  19.215   6.753
10984POPC   C3B75297  11.908  19.277   7.053
10984POPC   C4B75298  11.941  19.226   7.353
10985POPC   NC375299  29.189  12.123   5.553
10985POPC   PO475300  29.161  12.043   5.853
10985POPC   GL175301  29.193  12.101   6.153
10985POPC   GL275302  29.043  12.008   6.153
10985POPC   C1A75303  29.149  12.044   6.453
10985POPC   D2A75304  29.107  12.124   6.753
10985POPC   C3A75305  29.130  12.107   7.053
10985POPC   C4A75306  29.133  12.059   7.353
10985POPC   C1B75307  29.068  11.877   6.453
10985POPC   C2B75308  29.031  11.844   6.753
10985POPC   C3B75309  29.049  11.855   7.053
10985POPC   C4B75310  29.007  11.877   7.353
10986POPC   NC375311   6.623  29.944   5.553
10986POPC   PO475312   6.598  29.919   5.853
10986POPC   GL175313   6.632  29.908   6.153
10986POPC   GL275314   6.589  29.802   6.153
10986POPC   C1A75315   6.670  29.887   6.453
10986POPC   D2A75316   6.631  29.887   6.753
10986POPC   C3A75317   6.681  29.915   7.053
10986POPC   C4A75318   6.637  29.936   7.353
10986POPC   C1B75319   6.586  29.732   6.453
10986POPC   C2B75320   6.575  29.663   6.753
10986POPC   C3B75321   6.492  29.665   7.053
10986POPC   C4B75322   6.494  29.697   7.353
10987POPC   NC375323  33.009   2.800   5.553
10987POPC   PO475324  33.044   2.786   5.853
10987POPC   GL175325  33.002   2.798   6.153
10987POPC   GL275326  33.180   2.688   6.153
10987POPC   C1A75327  33.074   2.730   6.453
10987POPC   D2A75328  33.062   2.740   6.753
10987POPC   C3A75329  32.975   2.812   7.053
10987POPC   C4A75330  33.065   2.790   7.353
10987POPC   C1B75331  33.237   2.652   6.453
10987POPC   C2B75332  33.287   2.707   6.753
10987POPC   C3B75333  33.263   2.681   7.053
10987POPC   C4B75334  33.204   2.651   7.353
10988POPC   NC375335  22.925   9.752   5.553
10988POPC   PO475336  22.916   9.764   5.853
10988POPC   GL175337  22.889   9.751   6.153
10988POPC   GL275338  22.866   9.688   6.153
10988POPC   C1A75339  22.930   9.732   6.453
10988POPC   D2A75340  22.959   9.780   6.753
10988POPC   C3A75341  22.981   9.770   7.053
10988POPC   C4A75342  22.986   9.743   7.353
10988POPC   C1B75343  22.771   9.537   6.453
10988POPC   C2B75344  22.744   9.600   6.753
10988POPC   C3B75345  22.756   9.557   7.053
10988POPC   C4B75346  22.780   9.567   7.353
10989POPC   NC375347  21.402   2.748   5.553
10989POPC   PO475348  21.370   2.762   5.853
10989POPC   GL175349  21.372   2.795   6.153
10989POPC   GL275350  21.537   2.757   6.153
10989POPC   C1A75351  21.407   2.773   6.453
10989POPC   D2A75352  21.420   2.787   6.753
10989POPC   C3A75353  21.416   2.737   7.053
10989POPC   C4A75354  21.387   2.789   7.353
10989POPC   C1B75355  21.648   2.782   6.453
10989POPC   C2B75356  21.680   2.774   6.753
10989POPC   C3B75357  21.679   2.741   7.053
10989POPC   C4B75358  21.663   2.769   7.353
10990POPC   NC375359  29.934  29.887   5.553
10990POPC   PO475360  29.894  29.920   5.853
10990POPC   GL175361  29.954  29.887   6.153
10990POPC   GL275362  29.917  30.034   6.153
10990POPC   C1A75363  29.952  29.899   6.453
10990POPC   D2A75364  29.964  29.900   6.753
10990POPC   C3A75365  29.965  29.892   7.053
10990POPC   C4A75366  29.955  29.946   7.353
10990POPC   C1B75367  29.849  30.139   6.453
10990POPC   C2B75368  29.839  30.125   6.753
10990POPC   C3B75369  29.793  30.134   7.053
10990POPC   C4B75370  29.834  30.153   7.353
10991POPC   NC375371  39.964  27.629   5.553
10991POPC   PO475372  40.017  27.596   5.853
10991POPC   GL175373  39.967  27.547   6.153
10991POPC   GL275374  40.131  27.566   6.153
10991POPC   C1A75375  39.970  27.611   6.453
10991POPC   D2A75376  40.041  27.610   6.753
10991POPC   C3A75377  40.040  27.611   7.053
10991POPC   C4A75378  40.010  27.600   7.353
10991POPC   C1B75379  40.236  27.434   6.453
10991POPC   C2B75380  40.237  27.457   6.753
10991POPC   C3B75381  40.183  27.476   7.053
10991POPC   C4B75382  40.211  27.426   7.353
10992POPC   NC375383  16.716  26.779   5.553
10992POPC   PO475384  16.717  26.772   5.853
10992POPC   GL175385  16.688  26.810   6.153
10992POPC   GL275386  16.596  26.744   6.153
10992POPC   C1A75387  16.726  26.797   6.453
10992POPC   D2A75388  16.715  26.848   6.753
10992POPC   C3A75389  16.750  26.850   7.053
10992POPC   C4A75390  16.775  26.858   7.353
10992POPC   C1B75391  16.550  26.692   6.453
10992POPC   C2B75392  16.480  26.712   6.753
10992POPC   C3B75393  16.474  26.715   7.053
10992POPC   C4B75394  16.508  26.723   7.353
10993POPC   NC375395  24.507  25.238   5.553
10993POPC   PO475396  24.510  25.242   5.853
10993POPC   GL175397  24.507  25.273   6.153
10993POPC   GL275398  24.457  25.388   6.153
10993POPC   C1A75399  24.508  25.274   6.453
10993POPC   D2A75400  24.470  25.225   6.753
10993POPC   C3A75401  24.451  25.218   7.053
10993POPC   C4A75402  24.538  25.228   7.353
10993POPC   C1B75403  24.360  25.513   6.453
10993POPC   C2B75404  24.375  25.544   6.753
10993POPC   C3B75405  24.398  25.534   7.053
10993POPC   C4B75406  24.419  25.544   7.353
10994POPC   NC375407  23.674  17.539   5.553
10994POPC   PO475408  23.689  17.521   5.853
10994POPC   GL175409  23.679  17.525   6.153
10994POPC   GL275410  23.615  17.503   6.153
10994POPC   C1A75411  23.743  17.531   6.453
10994POPC   D2A75412  23.704  17.471   6.753
10994POPC   C3A75413  23.676  17.507   7.053
10994POPC   C4A75414  23.695  17.478   7.353
10994POPC   C1B75415  23.466  17.396   6.453
10994POPC   C2B75416  23.498  17.373   6.753
10994POPC   C3B75417  23.474  17.390   7.053
10994POPC   C4B75418  23.453  17.418   7.353
10995POPC   NC375419  10.496   6.598   5.553
10995POPC   PO475420  10.544   6.646   5.853
10995POPC   GL175421  10.547   6.597   6.153
10995POPC   GL275422  10.650   6.643   6.153
10995POPC   C1A75423  10.485   6.606   6.453
10995POPC   D2A75424  10.572   6.616   6.753
10995POPC   C3A75425  10.569   6.644   7.053
10995POPC   C4A75426  10.483   6.667   7.353
10995POPC   C1B75427  10.724   6.566   6.453
10995POPC   C2B75428  10.743   6.565   6.753
10995POPC   C3B75429  10.753   6.578   7.053
10995POPC   C4B75430  10.782   6.554   7.353
10996POPC   NC375431  15.197  19.855   5.553
10996POPC   PO475432  15.224  19.841   5.853
10996POPC   GL175433  15.155  19.874   6.153
10996POPC   GL275434  15.261  19.710   6.153
10996POPC   C1A75435  15.191  19.884   6.453
10996POPC   D2A75436  15.194  19.847   6.753
10996POPC   C3A75437  15.159  19.809   7.053
10996POPC   C4A75438  15.207  19.798   7.353
10996POPC   C1B75439  15.293  19.648   6.453
10996POPC   C2B75440  15.298  19.611   6.753
10996POPC   C3B75441  15.232  19.623   7.053
10996POPC   C4B75442  15.315  19.608   7.353
10997POPC   NC375443  26.016   6.628   5.553
10997POPC   PO475444  26.056   6.681   5.853
10997POPC   GL175445  25.999   6.624   6.153
10997POPC   GL275446  25.938   6.533   6.153
10997POPC   C1A75447  26.026   6.633   6.453
10997POPC   D2A75448  26.021   6.682   6.753
10997POPC   C3A75449  26.004   6.643   7.053
10997POPC   C4A75450  26.085   6.662   7.353
10997POPC   C1B75451  25.879   6.515   6.453
10997POPC   C2B75452  25.870   6.527   6.753
10997POPC   C3B75453  25.871   6.559   7.053
10997POPC   C4B75454  25.813   6.524   7.353
10998POPC   NC375455   0.419   8.978   5.553
10998POPC   PO475456   0.432   8.998   5.853
10998POPC   GL175457   0.485   9.002   6.153
10998POPC   GL275458   0.411   8.895   6.153
10998POPC   C1A75459   0.440   9.021   6.453
10998POPC   D2A75460   0.401   9.003   6.753
10998POPC   C3A75461   0.414   9.011   7.053
10998POPC   C4A75462   0.452   9.002   7.353
10998POPC   C1B75463   0.376   8.749   6.453
10998POPC   C2B75464   0.406   8.700   6.753
10998POPC   C3B75465   0.333   8.723   7.053
10998POPC   C4B75466   0.359   8.717   7.353
10999POPC   NC375467  29.103   2.784   5.553
10999POPC   PO475468  29.174   2.791   5.853
10999POPC   GL175469  29.111   2.718   6.153
10999POPC   GL275470  29.069   2.676   6.153
10999POPC   C1A75471  29.135   2.791   6.453
10999POPC   D2A75472  29.138   2.736   6.753
10999POPC   C3A75473  29.145   2.753   7.053
10999POPC   C4A75474  29.119   2.729   7.353
10999POPC   C1B75475  28.938   2.611   6.453
10999POPC   C2B75476  28.909   2.639   6.753
10999POPC   C3B75477  28.910   2.643   7.053
10999POPC   C4B75478  28.888   2.632   7.353
11000POPC   NC375479  41.573   1.212   5.553
11000POPC   PO475480  41.577   1.252   5.853
11000POPC   GL175481  41.550   1.241   6.153
11000POPC   GL275482  41.657   1.285   6.153
11000POPC   C1A75483  41.579   1.260   6.453
11000POPC   D2A75484  41.533   1.203   6.753
11000POPC   C3A75485  41.602   1.256   7.053
11000POPC   C4A75486  41.511   1.206   7.353
11000POPC   C1B75487  41.746   1.423   6.453
11000POPC   C2B75488  41.709   1.421   6.753
11000POPC   C3B75489  41.785   1.335   7.053
11000POPC   C4B75490  41.774   1.345   7.353
11001POPC   NC375491  12.873  18.326   5.553
11001POPC   PO475492  12.866  18.256   5.853
11001POPC   GL175493  12.830  18.294   6.153
11001POPC   GL275494  12.768  18.144   6.153
11001POPC   C1A75495  12.815  18.286   6.453
11001POPC   D2A75496  12.825  18.324   6.753
11001POPC   C3A75497  12.866  18.300   7.053
11001POPC   C4A75498  12.827  18.287   7.353
11001POPC   C1B75499  12.712  18.033   6.453
11001POPC   C2B75500  12.720  18.072   6.753
11001POPC   C3B75501  12.762  18.067   7.053
11001POPC   C4B75502  12.792  18.046   7.353
11002POPC   NC375503  30.731  17.483   5.553
11002POPC   PO475504  30.704  17.537   5.853
11002POPC   GL175505  30.739  17.526   6.153
11002POPC   GL275506  30.624  17.568   6.153
11002POPC   C1A75507  30.695  17.480   6.453
11002POPC   D2A75508  30.654  17.531   6.753
11002POPC   C3A75509  30.677  17.458   7.053
11002POPC   C4A75510  30.663  17.493   7.353
11002POPC   C1B75511  30.459  17.584   6.453
11002POPC   C2B75512  30.458  17.592   6.753
11002POPC   C3B75513  30.444  17.518   7.053
11002POPC   C4B75514  30.410  17.571   7.353
11003POPC   NC375515   2.717  36.898   5.553
11003POPC   PO475516   2.797  36.896   5.853
11003POPC   GL175517   2.803  36.902   6.153
11003POPC   GL275518   2.837  36.833   6.153
11003POPC   C1A75519   2.760  36.945   6.453
11003POPC   D2A75520   2.799  36.855   6.753
11003POPC   C3A75521   2.765  36.914   7.053
11003POPC   C4A75522   2.774  36.881   7.353
11003POPC   C1B75523   2.922  36.711   6.453
11003POPC   C2B75524   2.859  36.659   6.753
11003POPC   C3B75525   2.950  36.744   7.053
11003POPC   C4B75526   2.909  36.666   7.353
11004POPC   NC375527  27.595  16.001   5.553
11004POPC   PO475528  27.638  15.985   5.853
11004POPC   GL175529  27.641  15.959   6.153
11004POPC   GL275530  27.488  16.011   6.153
11004POPC   C1A75531  27.637  15.930   6.453
11004POPC   D2A75532  27.580  15.922   6.753
11004POPC   C3A75533  27.633  15.910   7.053
11004POPC   C4A75534  27.560  15.996   7.353
11004POPC   C1B75535  27.310  15.997   6.453
11004POPC   C2B75536  27.395  15.980   6.753
11004POPC   C3B75537  27.316  15.986   7.053
11004POPC   C4B75538  27.360  16.021   7.353
11005POPC   NC375539  44.654  32.208   5.553
11005POPC   PO475540  44.698  32.266   5.853
11005POPC   GL175541  44.642  32.282   6.153
11005POPC   GL275542  44.553  32.279   6.153
11005POPC   C1A75543  44.630  32.249   6.453
11005POPC   D2A75544  44.667  32.232   6.753
11005POPC   C3A75545  44.709  32.251   7.053
11005POPC   C4A75546  44.681  32.286   7.353
11005POPC   C1B75547  44.405  32.347   6.453
11005POPC   C2B75548  44.422  32.296   6.753
11005POPC   C3B75549  44.475  32.315   7.053
11005POPC   C4B75550  44.444  32.307   7.353
11006POPC   NC375551  39.197  36.883   5.553
11006POPC   PO475552  39.197  36.943   5.853
11006POPC   GL175553  39.271  36.889   6.153
11006POPC   GL275554  39.331  36.782   6.153
11006POPC   C1A75555  39.209  36.908   6.453
11006POPC   D2A75556  39.252  36.893   6.753
11006POPC   C3A75557  39.275  36.908   7.053
11006POPC   C4A75558  39.189  36.870   7.353
11006POPC   C1B75559  39.431  36.764   6.453
11006POPC   C2B75560  39.368  36.754   6.753
11006POPC   C3B75561  39.439  36.749   7.053
11006POPC   C4B75562  39.367  36.709   7.353
11007POPC   NC375563  41.600  16.722   5.553
11007POPC   PO475564  41.544  16.757   5.853
11007POPC   GL175565  41.564  16.704   6.153
11007POPC   GL275566  41.553  16.827   6.153
11007POPC   C1A75567  41.519  16.777   6.453
11007POPC   D2A75568  41.582  16.698   6.753
11007POPC   C3A75569  41.554  16.708   7.053
11007POPC   C4A75570  41.566  16.764   7.353
11007POPC   C1B75571  41.620  16.929   6.453
11007POPC   C2B75572  41.640  16.935   6.753
11007POPC   C3B75573  41.636  16.981   7.053
11007POPC   C4B75574  41.664  16.995   7.353
11008POPC   NC375575  22.978  40.042   5.553
11008POPC   PO475576  22.946  40.020   5.853
11008POPC   GL175577  22.954  39.962   6.153
11008POPC   GL275578  22.908  40.142   6.153
11008POPC   C1A75579  22.927  40.050   6.453
11008POPC   D2A75580  22.914  39.967   6.753
11008POPC   C3A75581  22.914  39.996   7.053
11008POPC   C4A75582  22.966  40.034   7.353
11008POPC   C1B75583  22.908  40.209   6.453
11008POPC   C2B75584  22.989  40.275   6.753
11008POPC   C3B75585  22.908  40.228   7.053
11008POPC   C4B75586  22.987  40.241   7.353
11009POPC   NC375587   1.972  26.856   5.553
11009POPC   PO475588   1.993  26.810   5.853
11009POPC   GL175589   1.997  26.866   6.153
11009POPC   GL275590   2.115  26.864   6.153
11009POPC   C1A75591   1.980  26.844   6.453
11009POPC   D2A75592   1.980  26.809   6.753
11009POPC   C3A75593   2.004  26.843   7.053
11009POPC   C4A75594   2.002  26.774   7.353
11009POPC   C1B75595   2.284  26.798   6.453
11009POPC   C2B75596   2.203  26.867   6.753
11009POPC   C3B75597   2.285  26.827   7.053
11009POPC   C4B75598   2.256  26.892   7.353
11010POPC   NC375599  14.432   9.793   5.553
11010POPC   PO475600  14.398   9.776   5.853
11010POPC   GL175601  14.390   9.796   6.153
11010POPC   GL275602  14.410   9.641   6.153
11010POPC   C1A75603  14.408   9.751   6.453
11010POPC   D2A75604  14.416   9.722   6.753
11010POPC   C3A75605  14.388   9.716   7.053
11010POPC   C4A75606  14.426   9.728   7.353
11010POPC   C1B75607  14.443   9.518   6.453
11010POPC   C2B75608  14.455   9.529   6.753
11010POPC   C3B75609  14.447   9.467   7.053
11010POPC   C4B75610  14.394   9.544   7.353
11011POPC   NC375611   5.881  22.155   5.553
11011POPC   PO475612   5.840  22.175   5.853
11011POPC   GL175613   5.885  22.120   6.153
11011POPC   GL275614   5.808  22.030   6.153
11011POPC   C1A75615   5.913  22.173   6.453
11011POPC   D2A75616   5.884  22.164   6.753
11011POPC   C3A75617   5.840  22.163   7.053
11011POPC   C4A75618   5.903  22.188   7.353
11011POPC   C1B75619   5.713  21.896   6.453
11011POPC   C2B75620   5.771  21.922   6.753
11011POPC   C3B75621   5.738  21.950   7.053
11011POPC   C4B75622   5.737  21.951   7.353
11012POPC   NC375623  15.983  39.974   5.553
11012POPC   PO475624  15.997  40.004   5.853
11012POPC   GL175625  15.941  40.018   6.153
11012POPC   GL275626  16.003  39.887   6.153
11012POPC   C1A75627  15.999  40.012   6.453
11012POPC   D2A75628  15.923  40.021   6.753
11012POPC   C3A75629  15.946  40.049   7.053
11012POPC   C4A75630  15.936  40.037   7.353
11012POPC   C1B75631  16.077  39.739   6.453
11012POPC   C2B75632  16.081  39.759   6.753
11012POPC   C3B75633  16.101  39.785   7.053
11012POPC   C4B75634  16.096  39.823   7.353
11013POPC   NC375635  43.926  35.303   5.553
11013POPC   PO475636  43.935  35.304   5.853
11013POPC   GL175637  43.905  35.337   6.153
11013POPC   GL275638  43.721  35.364   6.153
11013POPC   C1A75639  43.930  35.323   6.453
11013POPC   D2A75640  43.908  35.383   6.753
11013POPC   C3A75641  43.854  35.316   7.053
11013POPC   C4A75642  43.901  35.350   7.353
11013POPC   C1B75643  43.611  35.365   6.453
11013POPC   C2B75644  43.611  35.360   6.753
11013POPC   C3B75645  43.657  35.423   7.053
11013POPC   C4B75646  43.677  35.409   7.353
11014POPC   NC375647  36.919  44.659   5.553
11014POPC   PO475648  36.917  44.700   5.853
11014POPC   GL175649  36.878  44.669   6.153
11014POPC   GL275650  36.845  44.549   6.153
11014POPC   C1A75651  36.858  44.643   6.453
11014POPC   D2A75652  36.880  44.635   6.753
11014POPC   C3A75653  36.909  44.698   7.053
11014POPC   C4A75654  36.949  44.662   7.353
11014POPC   C1B75655  36.719  44.521   6.453
11014POPC   C2B75656  36.702  44.529   6.753
11014POPC   C3B75657  36.779  44.468   7.053
11014POPC   C4B75658  36.760  44.475   7.353
11015POPC   NC375659   1.952  10.480   5.553
11015POPC   PO475660   1.996  10.485   5.853
11015POPC   GL175661   1.948  10.507   6.153
11015POPC   GL275662   2.129  10.607   6.153
11015POPC   C1A75663   2.008  10.544   6.453
11015POPC   D2A75664   1.983  10.560   6.753
11015POPC   C3A75665   1.979  10.524   7.053
11015POPC   C4A75666   1.971  10.556   7.353
11015POPC   C1B75667   2.153  10.708   6.453
11015POPC   C2B75668   2.208  10.686   6.753
11015POPC   C3B75669   2.138  10.746   7.053
11015POPC   C4B75670   2.149  10.728   7.353
11016POPC   NC375671  13.640  32.298   5.553
11016POPC   PO475672  13.623  32.264   5.853
11016POPC   GL175673  13.653  32.244   6.153
11016POPC   GL275674  13.609  32.120   6.153
11016POPC   C1A75675  13.641  32.258   6.453
11016POPC   D2A75676  13.617  32.267   6.753
11016POPC   C3A75677  13.580  32.290   7.053
11016POPC   C4A75678  13.653  32.236   7.353
11016POPC   C1B75679  13.549  31.996   6.453
11016POPC   C2B75680  13.607  31.966   6.753
11016POPC   C3B75681  13.580  32.017   7.053
11016POPC   C4B75682  13.616  31.987   7.353
11017POPC   NC375683  43.104  35.390   5.553
11017POPC   PO475684  43.091  35.309   5.853
11017POPC   GL175685  43.076  35.378   6.153
11017POPC   GL275686  43.234  35.385   6.153
11017POPC   C1A75687  43.107  35.375   6.453
11017POPC   D2A75688  43.146  35.381   6.753
11017POPC   C3A75689  43.064  35.376   7.053
11017POPC   C4A75690  43.110  35.377   7.353
11017POPC   C1B75691  43.356  35.375   6.453
11017POPC   C2B75692  43.354  35.444   6.753
11017POPC   C3B75693  43.310  35.407   7.053
11017POPC   C4B75694  43.379  35.387   7.353
11018POPC   NC375695   1.260  31.493   5.553
11018POPC   PO475696   1.200  31.425   5.853
11018POPC   GL175697   1.164  31.522   6.153
11018POPC   GL275698   1.368  31.484   6.153
11018POPC   C1A75699   1.218  31.434   6.453
11018POPC   D2A75700   1.226  31.448   6.753
11018POPC   C3A75701   1.216  31.478   7.053
11018POPC   C4A75702   1.187  31.440   7.353
11018POPC   C1B75703   1.398  31.631   6.453
11018POPC   C2B75704   1.428  31.550   6.753
11018POPC   C3B75705   1.390  31.623   7.053
11018POPC   C4B75706   1.454  31.639   7.353
11019POPC   NC375707  25.308  14.390   5.553
11019POPC   PO475708  25.254  14.421   5.853
11019POPC   GL175709  25.218  14.423   6.153
11019POPC   GL275710  25.371  14.453   6.153
11019POPC   C1A75711  25.306  14.391   6.453
11019POPC   D2A75712  25.274  14.403   6.753
11019POPC   C3A75713  25.232  14.373   7.053
11019POPC   C4A75714  25.270  14.400   7.353
11019POPC   C1B75715  25.414  14.599   6.453
11019POPC   C2B75716  25.462  14.612   6.753
11019POPC   C3B75717  25.462  14.579   7.053
11019POPC   C4B75718  25.384  14.561   7.353
11020POPC   NC375719  24.456  30.716   5.553
11020POPC   PO475720  24.495  30.730   5.853
11020POPC   GL175721  24.466  30.647   6.153
11020POPC   GL275722  24.414  30.788   6.153
11020POPC   C1A75723  24.475  30.739   6.453
11020POPC   D2A75724  24.517  30.672   6.753
11020POPC   C3A75725  24.472  30.699   7.053
11020POPC   C4A75726  24.472  30.707   7.353
11020POPC   C1B75727  24.430  30.963   6.453
11020POPC   C2B75728  24.375  30.968   6.753
11020POPC   C3B75729  24.370  30.936   7.053
11020POPC   C4B75730  24.390  30.906   7.353
11021POPC   NC375731  32.271  21.397   5.553
11021POPC   PO475732  32.259  21.357   5.853
11021POPC   GL175733  32.207  21.347   6.153
11021POPC   GL275734  32.117  21.475   6.153
11021POPC   C1A75735  32.265  21.391   6.453
11021POPC   D2A75736  32.284  21.350   6.753
11021POPC   C3A75737  32.272  21.421   7.053
11021POPC   C4A75738  32.221  21.384   7.353
11021POPC   C1B75739  32.002  21.549   6.453
11021POPC   C2B75740  32.059  21.499   6.753
11021POPC   C3B75741  31.997  21.476   7.053
11021POPC   C4B75742  32.020  21.551   7.353
11022POPC   NC375743  26.005  42.323   5.553
11022POPC   PO475744  26.056  42.346   5.853
11022POPC   GL175745  26.025  42.297   6.153
11022POPC   GL275746  26.136  42.208   6.153
11022POPC   C1A75747  26.006  42.378   6.453
11022POPC   D2A75748  26.039  42.326   6.753
11022POPC   C3A75749  26.052  42.313   7.053
11022POPC   C4A75750  26.091  42.302   7.353
11022POPC   C1B75751  26.145  42.127   6.453
11022POPC   C2B75752  26.171  42.086   6.753
11022POPC   C3B75753  26.139  42.140   7.053
11022POPC   C4B75754  26.158  42.158   7.353
11023POPC   NC375755  25.242  27.600   5.553
11023POPC   PO475756  25.223  27.643   5.853
11023POPC   GL175757  25.249  27.634   6.153
11023POPC   GL275758  25.414  27.534   6.153
11023POPC   C1A75759  25.292  27.625   6.453
11023POPC   D2A75760  25.309  27.569   6.753
11023POPC   C3A75761  25.258  27.598   7.053
11023POPC   C4A75762  25.237  27.586   7.353
11023POPC   C1B75763  25.449  27.475   6.453
11023POPC   C2B75764  25.470  27.538   6.753
11023POPC   C3B75765  25.511  27.508   7.053
11023POPC   C4B75766  25.510  27.539   7.353
11024POPC   NC375767  21.361  15.939   5.553
11024POPC   PO475768  21.348  15.925   5.853
11024POPC   GL175769  21.357  15.945   6.153
11024POPC   GL275770  21.315  15.972   6.153
11024POPC   C1A75771  21.348  15.972   6.453
11024POPC   D2A75772  21.410  15.909   6.753
11024POPC   C3A75773  21.415  15.906   7.053
11024POPC   C4A75774  21.400  15.951   7.353
11024POPC   C1B75775  21.151  16.129   6.453
11024POPC   C2B75776  21.186  16.113   6.753
11024POPC   C3B75777  21.170  16.116   7.053
11024POPC   C4B75778  21.148  16.075   7.353
11025POPC   NC375779  12.028  26.849   5.553
11025POPC   PO475780  12.033  26.772   5.853
11025POPC   GL175781  12.089  26.814   6.153
11025POPC   GL275782  12.089  26.927   6.153
11025POPC   C1A75783  12.082  26.837   6.453
11025POPC   D2A75784  12.040  26.818   6.753
11025POPC   C3A75785  12.048  26.849   7.053
11025POPC   C4A75786  12.031  26.804   7.353
11025POPC   C1B75787  11.988  27.096   6.453
11025POPC   C2B75788  12.069  27.063   6.753
11025POPC   C3B75789  12.059  27.035   7.053
11025POPC   C4B75790  12.056  27.045   7.353
11026POPC   NC375791  29.894  26.065   5.553
11026POPC   PO475792  29.930  26.087   5.853
11026POPC   GL175793  29.893  26.081   6.153
11026POPC   GL275794  30.009  26.081   6.153
11026POPC   C1A75795  29.882  26.033   6.453
11026POPC   D2A75796  29.958  26.036   6.753
11026POPC   C3A75797  29.901  26.000   7.053
11026POPC   C4A75798  29.963  26.011   7.353
11026POPC   C1B75799  30.185  25.996   6.453
11026POPC   C2B75800  30.173  26.016   6.753
11026POPC   C3B75801  30.148  26.030   7.053
11026POPC   C4B75802  30.206  26.005   7.353
11027POPC   NC375803  39.979  33.756   5.553
11027POPC   PO475804  40.007  33.781   5.853
11027POPC   GL175805  40.004  33.799   6.153
11027POPC   GL275806  39.920  33.871   6.153
11027POPC   C1A75807  39.969  33.795   6.453
11027POPC   D2A75808  39.991  33.801   6.753
11027POPC   C3A75809  39.974  33.760   7.053
11027POPC   C4A75810  39.990  33.754   7.353
11027POPC   C1B75811  39.904  34.059   6.453
11027POPC   C2B75812  39.908  34.058   6.753
11027POPC   C3B75813  39.863  34.049   7.053
11027POPC   C4B75814  39.857  34.068   7.353
11028POPC   NC375815   1.225   2.720   5.553
11028POPC   PO475816   1.264   2.814   5.853
11028POPC   GL175817   1.240   2.814   6.153
11028POPC   GL275818   1.069   2.747   6.153
11028POPC   C1A75819   1.246   2.749   6.453
11028POPC   D2A75820   1.177   2.765   6.753
11028POPC   C3A75821   1.219   2.758   7.053
11028POPC   C4A75822   1.194   2.753   7.353
11028POPC   C1B75823   0.983   2.741   6.453
11028POPC   C2B75824   0.977   2.747   6.753
11028POPC   C3B75825   0.931   2.753   7.053
11028POPC   C4B75826   0.984   2.810   7.353
11029POPC   NC375827  36.854  24.532   5.553
11029POPC   PO475828  36.898  24.524   5.853
11029POPC   GL175829  36.948  24.526   6.153
11029POPC   GL275830  36.897  24.383   6.153
11029POPC   C1A75831  36.877  24.486   6.453
11029POPC   D2A75832  36.904  24.461   6.753
11029POPC   C3A75833  36.900  24.461   7.053
11029POPC   C4A75834  36.896  24.504   7.353
11029POPC   C1B75835  37.009  24.238   6.453
11029POPC   C2B75836  36.926  24.218   6.753
11029POPC   C3B75837  36.926  24.244   7.053
11029POPC   C4B75838  37.012  24.260   7.353
11030POPC   NC375839  17.490  38.441   5.553
11030POPC   PO475840  17.458  38.458   5.853
11030POPC   GL175841  17.512  38.478   6.153
11030POPC   GL275842  17.614  38.571   6.153
11030POPC   C1A75843  17.458  38.418   6.453
11030POPC   D2A75844  17.539  38.484   6.753
11030POPC   C3A75845  17.510  38.491   7.053
11030POPC   C4A75846  17.525  38.436   7.353
11030POPC   C1B75847  17.705  38.608   6.453
11030POPC   C2B75848  17.746  38.657   6.753
11030POPC   C3B75849  17.703  38.636   7.053
11030POPC   C4B75850  17.660  38.642   7.353
11031POPC   NC375851  26.042  24.502   5.553
11031POPC   PO475852  26.088  24.465   5.853
11031POPC   GL175853  26.025  24.510   6.153
11031POPC   GL275854  26.065  24.364   6.153
11031POPC   C1A75855  26.073  24.482   6.453
11031POPC   D2A75856  25.999  24.504   6.753
11031POPC   C3A75857  25.998  24.466   7.053
11031POPC   C4A75858  26.032  24.479   7.353
11031POPC   C1B75859  26.017  24.231   6.453
11031POPC   C2B75860  26.000  24.249   6.753
11031POPC   C3B75861  25.991  24.244   7.053
11031POPC   C4B75862  25.994  24.287   7.353
11032POPC   NC375863  17.534   8.195   5.553
11032POPC   PO475864  17.464   8.184   5.853
11032POPC   GL175865  17.478   8.161   6.153
11032POPC   GL275866  17.498   8.118   6.153
11032POPC   C1A75867  17.501   8.230   6.453
11032POPC   D2A75868  17.524   8.222   6.753
11032POPC   C3A75869  17.548   8.218   7.053
11032POPC   C4A75870  17.496   8.241   7.353
11032POPC   C1B75871  17.558   7.963   6.453
11032POPC   C2B75872  17.600   7.932   6.753
11032POPC   C3B75873  17.622   7.952   7.053
11032POPC   C4B75874  17.622   7.917   7.353
11033POPC   NC375875   8.243  31.431   5.553
11033POPC   PO475876   8.227  31.447   5.853
11033POPC   GL175877   8.168  31.504   6.153
11033POPC   GL275878   8.138  31.583   6.153
11033POPC   C1A75879   8.154  31.468   6.453
11033POPC   D2A75880   8.244  31.483   6.753
11033POPC   C3A75881   8.197  31.504   7.053
11033POPC   C4A75882   8.222  31.488   7.353
11033POPC   C1B75883   8.071  31.725   6.453
11033POPC   C2B75884   8.083  31.734   6.753
11033POPC   C3B75885   8.070  31.681   7.053
11033POPC   C4B75886   8.061  31.653   7.353
11034POPC   NC375887  22.203  42.367   5.553
11034POPC   PO475888  22.155  42.315   5.853
11034POPC   GL175889  22.120  42.349   6.153
11034POPC   GL275890  22.218  42.431   6.153
11034POPC   C1A75891  22.148  42.332   6.453
11034POPC   D2A75892  22.126  42.306   6.753
11034POPC   C3A75893  22.135  42.379   7.053
11034POPC   C4A75894  22.179  42.321   7.353
11034POPC   C1B75895  22.305  42.472   6.453
11034POPC   C2B75896  22.364  42.565   6.753
11034POPC   C3B75897  22.372  42.523   7.053
11034POPC   C4B75898  22.305  42.523   7.353
11035POPC   NC375899  39.243  23.750   5.553
11035POPC   PO475900  39.243  23.709   5.853
11035POPC   GL175901  39.182  23.752   6.153
11035POPC   GL275902  39.338  23.652   6.153
11035POPC   C1A75903  39.187  23.754   6.453
11035POPC   D2A75904  39.250  23.755   6.753
11035POPC   C3A75905  39.236  23.752   7.053
11035POPC   C4A75906  39.183  23.701   7.353
11035POPC   C1B75907  39.459  23.643   6.453
11035POPC   C2B75908  39.439  23.611   6.753
11035POPC   C3B75909  39.424  23.611   7.053
11035POPC   C4B75910  39.428  23.587   7.353
11036POPC   NC375911  26.775  20.608   5.553
11036POPC   PO475912  26.853  20.621   5.853
11036POPC   GL175913  26.805  20.619   6.153
11036POPC   GL275914  26.936  20.661   6.153
11036POPC   C1A75915  26.845  20.616   6.453
11036POPC   D2A75916  26.833  20.590   6.753
11036POPC   C3A75917  26.774  20.605   7.053
11036POPC   C4A75918  26.771  20.649   7.353
11036POPC   C1B75919  27.091  20.648   6.453
11036POPC   C2B75920  27.084  20.681   6.753
11036POPC   C3B75921  27.062  20.695   7.053
11036POPC   C4B75922  27.016  20.662   7.353
11037POPC   NC375923  35.349  36.913   5.553
11037POPC   PO475924  35.372  36.946   5.853
11037POPC   GL175925  35.351  36.949   6.153
11037POPC   GL275926  35.242  37.039   6.153
11037POPC   C1A75927  35.348  36.898   6.453
11037POPC   D2A75928  35.311  36.859   6.753
11037POPC   C3A75929  35.357  36.952   7.053
11037POPC   C4A75930  35.399  36.929   7.353
11037POPC   C1B75931  35.171  37.127   6.453
11037POPC   C2B75932  35.163  37.071   6.753
11037POPC   C3B75933  35.201  37.079   7.053
11037POPC   C4B75934  35.237  37.066   7.353
11038POPC   NC375935  33.005  34.538   5.553
11038POPC   PO475936  33.009  34.533   5.853
11038POPC   GL175937  33.065  34.580   6.153
11038POPC   GL275938  33.181  34.577   6.153
11038POPC   C1A75939  32.982  34.566   6.453
11038POPC   D2A75940  33.039  34.562   6.753
11038POPC   C3A75941  33.032  34.529   7.053
11038POPC   C4A75942  33.055  34.527   7.353
11038POPC   C1B75943  33.290  34.517   6.453
11038POPC   C2B75944  33.313  34.517   6.753
11038POPC   C3B75945  33.292  34.569   7.053
11038POPC   C4B75946  33.306  34.604   7.353
11039POPC   NC375947  34.560  36.937   5.553
11039POPC   PO475948  34.550  36.953   5.853
11039POPC   GL175949  34.607  36.910   6.153
11039POPC   GL275950  34.494  36.913   6.153
11039POPC   C1A75951  34.591  36.863   6.453
11039POPC   D2A75952  34.593  36.949   6.753
11039POPC   C3A75953  34.611  36.916   7.053
11039POPC   C4A75954  34.543  36.915   7.353
11039POPC   C1B75955  34.345  36.995   6.453
11039POPC   C2B75956  34.356  36.954   6.753
11039POPC   C3B75957  34.303  36.998   7.053
11039POPC   C4B75958  34.393  36.995   7.353
11040POPC   NC375959  36.113  12.823   5.553
11040POPC   PO475960  36.157  12.901   5.853
11040POPC   GL175961  36.171  12.829   6.153
11040POPC   GL275962  36.044  12.797   6.153
11040POPC   C1A75963  36.091  12.823   6.453
11040POPC   D2A75964  36.082  12.802   6.753
11040POPC   C3A75965  36.089  12.871   7.053
11040POPC   C4A75966  36.106  12.889   7.353
11040POPC   C1B75967  35.941  12.649   6.453
11040POPC   C2B75968  35.898  12.641   6.753
11040POPC   C3B75969  35.982  12.696   7.053
11040POPC   C4B75970  35.910  12.701   7.353
11041POPC   NC375971  21.428  18.300   5.553
11041POPC   PO475972  21.352  18.263   5.853
11041POPC   GL175973  21.394  18.304   6.153
11041POPC   GL275974  21.322  18.225   6.153
11041POPC   C1A75975  21.394  18.300   6.453
11041POPC   D2A75976  21.395  18.260   6.753
11041POPC   C3A75977  21.387  18.240   7.053
11041POPC   C4A75978  21.369  18.331   7.353
11041POPC   C1B75979  21.244  18.169   6.453
11041POPC   C2B75980  21.184  18.168   6.753
11041POPC   C3B75981  21.190  18.154   7.053
11041POPC   C4B75982  21.208  18.110   7.353
11042POPC   NC375983  31.446   3.495   5.553
11042POPC   PO475984  31.480   3.528   5.853
11042POPC   GL175985  31.520   3.566   6.153
11042POPC   GL275986  31.540   3.483   6.153
11042POPC   C1A75987  31.504   3.584   6.453
11042POPC   D2A75988  31.486   3.510   6.753
11042POPC   C3A75989  31.430   3.554   7.053
11042POPC   C4A75990  31.481   3.564   7.353
11042POPC   C1B75991  31.750   3.444   6.453
11042POPC   C2B75992  31.716   3.436   6.753
11042POPC   C3B75993  31.655   3.487   7.053
11042POPC   C4B75994  31.746   3.417   7.353
11043POPC   NC375995   4.296   4.351   5.553
11043POPC   PO475996   4.302   4.305   5.853
11043POPC   GL175997   4.338   4.281   6.153
11043POPC   GL275998   4.458   4.337   6.153
11043POPC   C1A75999   4.311   4.287   6.453
11043POPC   D2A76000   4.352   4.286   6.753
11043POPC   C3A76001   4.364   4.309   7.053
11043POPC   C4A76002   4.330   4.315   7.353
11043POPC   C1B76003   4.550   4.370   6.453
11043POPC   C2B76004   4.594   4.438   6.753
11043POPC   C3B76005   4.566   4.438   7.053
11043POPC   C4B76006   4.527   4.366   7.353
11044POPC   NC376007  27.595  39.246   5.553
11044POPC   PO476008  27.613  39.231   5.853
11044POPC   GL176009  27.578  39.241   6.153
11044POPC   GL276010  27.567  39.328   6.153
11044POPC   C1A76011  27.586  39.267   6.453
11044POPC   D2A76012  27.559  39.252   6.753
11044POPC   C3A76013  27.590  39.238   7.053
11044POPC   C4A76014  27.575  39.192   7.353
11044POPC   C1B76015  27.454  39.428   6.453
11044POPC   C2B76016  27.443  39.458   6.753
11044POPC   C3B76017  27.447  39.409   7.053
11044POPC   C4B76018  27.453  39.502   7.353
11045POPC   NC376019  33.016  43.111   5.553
11045POPC   PO476020  32.980  43.088   5.853
11045POPC   GL176021  33.014  43.150   6.153
11045POPC   GL276022  33.125  43.223   6.153
11045POPC   C1A76023  32.985  43.097   6.453
11045POPC   D2A76024  33.015  43.155   6.753
11045POPC   C3A76025  33.068  43.112   7.053
11045POPC   C4A76026  33.009  43.099   7.353
11045POPC   C1B76027  33.199  43.279   6.453
11045POPC   C2B76028  33.248  43.214   6.753
11045POPC   C3B76029  33.283  43.207   7.053
11045POPC   C4B76030  33.202  43.278   7.353
11046POPC   NC376031  19.040  22.157   5.553
11046POPC   PO476032  19.099  22.154   5.853
11046POPC   GL176033  19.055  22.207   6.153
11046POPC   GL276034  18.955  22.182   6.153
11046POPC   C1A76035  19.088  22.158   6.453
11046POPC   D2A76036  19.096  22.207   6.753
11046POPC   C3A76037  19.053  22.113   7.053
11046POPC   C4A76038  19.042  22.196   7.353
11046POPC   C1B76039  18.828  22.136   6.453
11046POPC   C2B76040  18.829  22.105   6.753
11046POPC   C3B76041  18.798  22.123   7.053
11046POPC   C4B76042  18.852  22.139   7.353
11047POPC   NC376043  34.588  42.340   5.553
11047POPC   PO476044  34.528  42.316   5.853
11047POPC   GL176045  34.557  42.349   6.153
11047POPC   GL276046  34.616  42.176   6.153
11047POPC   C1A76047  34.621  42.325   6.453
11047POPC   D2A76048  34.565  42.343   6.753
11047POPC   C3A76049  34.573  42.366   7.053
11047POPC   C4A76050  34.611  42.315   7.353
11047POPC   C1B76051  34.691  42.065   6.453
11047POPC   C2B76052  34.662  42.074   6.753
11047POPC   C3B76053  34.648  42.096   7.053
11047POPC   C4B76054  34.662  42.134   7.353
11048POPC   NC376055  30.663  15.184   5.553
11048POPC   PO476056  30.740  15.153   5.853
11048POPC   GL176057  30.680  15.150   6.153
11048POPC   GL276058  30.710  15.047   6.153
11048POPC   C1A76059  30.743  15.209   6.453
11048POPC   D2A76060  30.649  15.222   6.753
11048POPC   C3A76061  30.714  15.148   7.053
11048POPC   C4A76062  30.722  15.178   7.353
11048POPC   C1B76063  30.749  14.909   6.453
11048POPC   C2B76064  30.701  14.931   6.753
11048POPC   C3B76065  30.712  14.918   7.053
11048POPC   C4B76066  30.702  14.958   7.353
11049POPC   NC376067   9.776  43.872   5.553
11049POPC   PO476068   9.725  43.868   5.853
11049POPC   GL176069   9.711  43.849   6.153
11049POPC   GL276070   9.787  43.735   6.153
11049POPC   C1A76071   9.780  43.918   6.453
11049POPC   D2A76072   9.725  43.909   6.753
11049POPC   C3A76073   9.742  43.883   7.053
11049POPC   C4A76074   9.793  43.856   7.353
11049POPC   C1B76075   9.868  43.626   6.453
11049POPC   C2B76076   9.878  43.644   6.753
11049POPC   C3B76077   9.813  43.695   7.053
11049POPC   C4B76078   9.829  43.649   7.353
11050POPC   NC376079  17.526  20.588   5.553
11050POPC   PO476080  17.509  20.618   5.853
11050POPC   GL176081  17.523  20.619   6.153
11050POPC   GL276082  17.402  20.490   6.153
11050POPC   C1A76083  17.555  20.592   6.453
11050POPC   D2A76084  17.483  20.611   6.753
11050POPC   C3A76085  17.497  20.561   7.053
11050POPC   C4A76086  17.483  20.564   7.353
11050POPC   C1B76087  17.303  20.461   6.453
11050POPC   C2B76088  17.349  20.416   6.753
11050POPC   C3B76089  17.311  20.440   7.053
11050POPC   C4B76090  17.320  20.462   7.353
11051POPC   NC376091  38.498  28.351   5.553
11051POPC   PO476092  38.470  28.392   5.853
11051POPC   GL176093  38.468  28.418   6.153
11051POPC   GL276094  38.467  28.522   6.153
11051POPC   C1A76095  38.488  28.350   6.453
11051POPC   D2A76096  38.461  28.391   6.753
11051POPC   C3A76097  38.453  28.361   7.053
11051POPC   C4A76098  38.424  28.368   7.353
11051POPC   C1B76099  38.484  28.615   6.453
11051POPC   C2B76100  38.428  28.569   6.753
11051POPC   C3B76101  38.427  28.573   7.053
11051POPC   C4B76102  38.441  28.592   7.353
11052POPC   NC376103  10.484  40.023   5.553
11052POPC   PO476104  10.513  39.976   5.853
11052POPC   GL176105  10.528  39.984   6.153
11052POPC   GL276106  10.377  40.103   6.153
11052POPC   C1A76107  10.523  40.021   6.453
11052POPC   D2A76108  10.478  40.003   6.753
11052POPC   C3A76109  10.514  40.031   7.053
11052POPC   C4A76110  10.572  40.050   7.353
11052POPC   C1B76111  10.338  40.111   6.453
11052POPC   C2B76112  10.350  40.168   6.753
11052POPC   C3B76113  10.338  40.128   7.053
11052POPC   C4B76114  10.324  40.169   7.353
11053POPC   NC376115  14.396  16.719   5.553
11053POPC   PO476116  14.373  16.772   5.853
11053POPC   GL176117  14.378  16.766   6.153
11053POPC   GL276118  14.450  16.603   6.153
11053POPC   C1A76119  14.404  16.739   6.453
11053POPC   D2A76120  14.409  16.689   6.753
11053POPC   C3A76121  14.411  16.761   7.053
11053POPC   C4A76122  14.359  16.728   7.353
11053POPC   C1B76123  14.445  16.510   6.453
11053POPC   C2B76124  14.525  16.451   6.753
11053POPC   C3B76125  14.476  16.543   7.053
11053POPC   C4B76126  14.443  16.519   7.353
11054POPC   NC376127   5.880  10.568   5.553
11054POPC   PO476128   5.872  10.533   5.853
11054POPC   GL176129   5.904  10.565   6.153
11054POPC   GL276130   5.817  10.696   6.153
11054POPC   C1A76131   5.867  10.548   6.453
11054POPC   D2A76132   5.884  10.523   6.753
11054POPC   C3A76133   5.897  10.531   7.053
11054POPC   C4A76134   5.838  10.570   7.353
11054POPC   C1B76135   5.790  10.797   6.453
11054POPC   C2B76136   5.799  10.801   6.753
11054POPC   C3B76137   5.836  10.798   7.053
11054POPC   C4B76138   5.800  10.759   7.353
11055POPC   NC376139   8.231  19.081   5.553
11055POPC   PO476140   8.229  19.045   5.853
11055POPC   GL176141   8.204  19.015   6.153
11055POPC   GL276142   8.343  19.068   6.153
11055POPC   C1A76143   8.195  19.083   6.453
11055POPC   D2A76144   8.218  19.103   6.753
11055POPC   C3A76145   8.241  19.013   7.053
11055POPC   C4A76146   8.237  19.028   7.353
11055POPC   C1B76147   8.473  19.132   6.453
11055POPC   C2B76148   8.449  19.060   6.753
11055POPC   C3B76149   8.440  19.085   7.053
11055POPC   C4B76150   8.465  19.117   7.353
11056POPC   NC376151  16.760  10.536   5.553
11056POPC   PO476152  16.699  10.497   5.853
11056POPC   GL176153  16.731  10.553   6.153
11056POPC   GL276154  16.659  10.576   6.153
11056POPC   C1A76155  16.694  10.524   6.453
11056POPC   D2A76156  16.778  10.487   6.753
11056POPC   C3A76157  16.778  10.520   7.053
11056POPC   C4A76158  16.685  10.563   7.353
11056POPC   C1B76159  16.483  10.683   6.453
11056POPC   C2B76160  16.565  10.720   6.753
11056POPC   C3B76161  16.504  10.717   7.053
11056POPC   C4B76162  16.497  10.700   7.353
11057POPC   NC376163  39.984  30.684   5.553
11057POPC   PO476164  40.027  30.657   5.853
11057POPC   GL176165  40.010  30.656   6.153
11057POPC   GL276166  39.867  30.728   6.153
11057POPC   C1A76167  40.037  30.691   6.453
11057POPC   D2A76168  39.972  30.712   6.753
11057POPC   C3A76169  39.973  30.694   7.053
11057POPC   C4A76170  40.020  30.656   7.353
11057POPC   C1B76171  39.793  30.676   6.453
11057POPC   C2B76172  39.755  30.676   6.753
11057POPC   C3B76173  39.725  30.737   7.053
11057POPC   C4B76174  39.773  30.652   7.353
11058POPC   NC376175  34.555  15.218   5.553
11058POPC   PO476176  34.576  15.157   5.853
11058POPC   GL176177  34.609  15.210   6.153
11058POPC   GL276178  34.699  15.198   6.153
11058POPC   C1A76179  34.553  15.168   6.453
11058POPC   D2A76180  34.526  15.177   6.753
11058POPC   C3A76181  34.529  15.207   7.053
11058POPC   C4A76182  34.625  15.131   7.353
11058POPC   C1B76183  34.862  15.165   6.453
11058POPC   C2B76184  34.867  15.182   6.753
11058POPC   C3B76185  34.816  15.169   7.053
11058POPC   C4B76186  34.867  15.176   7.353
11059POPC   NC376187   1.964  42.373   5.553
11059POPC   PO476188   1.982  42.358   5.853
11059POPC   GL176189   2.031  42.286   6.153
11059POPC   GL276190   1.922  42.219   6.153
11059POPC   C1A76191   1.994  42.368   6.453
11059POPC   D2A76192   1.964  42.358   6.753
11059POPC   C3A76193   1.976  42.342   7.053
11059POPC   C4A76194   1.969  42.346   7.353
11059POPC   C1B76195   1.892  42.136   6.453
11059POPC   C2B76196   1.919  42.126   6.753
11059POPC   C3B76197   1.915  42.081   7.053
11059POPC   C4B76198   1.970  42.054   7.353
11060POPC   NC376199  28.330  23.740   5.553
11060POPC   PO476200  28.328  23.749   5.853
11060POPC   GL176201  28.402  23.733   6.153
11060POPC   GL276202  28.332  23.845   6.153
11060POPC   C1A76203  28.336  23.709   6.453
11060POPC   D2A76204  28.372  23.731   6.753
11060POPC   C3A76205  28.419  23.676   7.053
11060POPC   C4A76206  28.342  23.697   7.353
11060POPC   C1B76207  28.303  23.946   6.453
11060POPC   C2B76208  28.245  23.933   6.753
11060POPC   C3B76209  28.285  23.926   7.053
11060POPC   C4B76210  28.256  23.901   7.353
11061POPC   NC376211  30.702  26.812   5.553
11061POPC   PO476212  30.719  26.781   5.853
11061POPC   GL176213  30.696  26.810   6.153
11061POPC   GL276214  30.827  26.953   6.153
11061POPC   C1A76215  30.699  26.798   6.453
11061POPC   D2A76216  30.719  26.817   6.753
11061POPC   C3A76217  30.708  26.800   7.053
11061POPC   C4A76218  30.729  26.841   7.353
11061POPC   C1B76219  30.830  26.964   6.453
11061POPC   C2B76220  30.840  27.032   6.753
11061POPC   C3B76221  30.861  27.010   7.053
11061POPC   C4B76222  30.874  26.959   7.353
11062POPC   NC376223  21.356  41.605   5.553
11062POPC   PO476224  21.392  41.604   5.853
11062POPC   GL176225  21.355  41.525   6.153
11062POPC   GL276226  21.413  41.664   6.153
11062POPC   C1A76227  21.373  41.551   6.453
11062POPC   D2A76228  21.432  41.520   6.753
11062POPC   C3A76229  21.427  41.567   7.053
11062POPC   C4A76230  21.386  41.534   7.353
11062POPC   C1B76231  21.495  41.836   6.453
11062POPC   C2B76232  21.468  41.833   6.753
11062POPC   C3B76233  21.485  41.843   7.053
11062POPC   C4B76234  21.452  41.790   7.353
11063POPC   NC376235   9.798   0.436   5.553
11063POPC   PO476236   9.791   0.427   5.853
11063POPC   GL176237   9.790   0.437   6.153
11063POPC   GL276238   9.909   0.504   6.153
11063POPC   C1A76239   9.797   0.442   6.453
11063POPC   D2A76240   9.797   0.466   6.753
11063POPC   C3A76241   9.708   0.403   7.053
11063POPC   C4A76242   9.727   0.439   7.353
11063POPC   C1B76243   9.957   0.577   6.453
11063POPC   C2B76244   9.926   0.531   6.753
11063POPC   C3B76245  10.023   0.550   7.053
11063POPC   C4B76246   9.978   0.507   7.353
11064POPC   NC376247  44.699  31.442   5.553
11064POPC   PO476248  44.697  31.429   5.853
11064POPC   GL176249  44.619  31.459   6.153
11064POPC   GL276250  44.513  31.456   6.153
11064POPC   C1A76251  44.690  31.498   6.453
11064POPC   D2A76252  44.625  31.440   6.753
11064POPC   C3A76253  44.632  31.517   7.053
11064POPC   C4A76254  44.653  31.432   7.353
11064POPC   C1B76255  44.372  31.470   6.453
11064POPC   C2B76256  44.435  31.404   6.753
11064POPC   C3B76257  44.427  31.396   7.053
11064POPC   C4B76258  44.399  31.407   7.353
11065POPC   NC376259  43.911  36.865   5.553
11065POPC   PO476260  43.855  36.886   5.853
11065POPC   GL176261  43.871  36.934   6.153
11065POPC   GL276262  43.995  36.770   6.153
11065POPC   C1A76263  43.895  36.866   6.453
11065POPC   D2A76264  43.915  36.914   6.753
11065POPC   C3A76265  43.866  36.920   7.053
11065POPC   C4A76266  43.856  36.944   7.353
11065POPC   C1B76267  44.048  36.741   6.453
11065POPC   C2B76268  44.001  36.751   6.753
11065POPC   C3B76269  44.061  36.698   7.053
11065POPC   C4B76270  44.054  36.755   7.353
11066POPC   NC376271  10.515  20.600   5.553
11066POPC   PO476272  10.513  20.658   5.853
11066POPC   GL176273  10.538  20.575   6.153
11066POPC   GL276274  10.682  20.577   6.153
11066POPC   C1A76275  10.548  20.604   6.453
11066POPC   D2A76276  10.483  20.586   6.753
11066POPC   C3A76277  10.537  20.628   7.053
11066POPC   C4A76278  10.517  20.602   7.353
11066POPC   C1B76279  10.711  20.474   6.453
11066POPC   C2B76280  10.757  20.518   6.753
11066POPC   C3B76281  10.716  20.517   7.053
11066POPC   C4B76282  10.777  20.473   7.353
11067POPC   NC376283  26.854  22.156   5.553
11067POPC   PO476284  26.800  22.126   5.853
11067POPC   GL176285  26.828  22.202   6.153
11067POPC   GL276286  26.720  22.159   6.153
11067POPC   C1A76287  26.801  22.170   6.453
11067POPC   D2A76288  26.816  22.196   6.753
11067POPC   C3A76289  26.781  22.153   7.053
11067POPC   C4A76290  26.832  22.184   7.353
11067POPC   C1B76291  26.611  22.227   6.453
11067POPC   C2B76292  26.537  22.180   6.753
11067POPC   C3B76293  26.578  22.243   7.053
11067POPC   C4B76294  26.545  22.177   7.353
11068POPC   NC376295  38.463  23.702   5.553
11068POPC   PO476296  38.488  23.678   5.853
11068POPC   GL176297  38.421  23.732   6.153
11068POPC   GL276298  38.335  23.718   6.153
11068POPC   C1A76299  38.438  23.732   6.453
11068POPC   D2A76300  38.410  23.676   6.753
11068POPC   C3A76301  38.476  23.760   7.053
11068POPC   C4A76302  38.448  23.697   7.353
11068POPC   C1B76303  38.176  23.828   6.453
11068POPC   C2B76304  38.215  23.813   6.753
11068POPC   C3B76305  38.254  23.767   7.053
11068POPC   C4B76306  38.194  23.800   7.353
11069POPC   NC376307  42.285   2.785   5.553
11069POPC   PO476308  42.351   2.791   5.853
11069POPC   GL176309  42.363   2.752   6.153
11069POPC   GL276310  42.300   2.914   6.153
11069POPC   C1A76311  42.299   2.777   6.453
11069POPC   D2A76312  42.318   2.726   6.753
11069POPC   C3A76313  42.346   2.809   7.053
11069POPC   C4A76314  42.287   2.779   7.353
11069POPC   C1B76315  42.314   3.016   6.453
11069POPC   C2B76316  42.326   3.056   6.753
11069POPC   C3B76317  42.287   3.010   7.053
11069POPC   C4B76318  42.292   3.011   7.353
11070POPC   NC376319   4.321  14.438   5.553
11070POPC   PO476320   4.357  14.427   5.853
11070POPC   GL176321   4.280  14.396   6.153
11070POPC   GL276322   4.257  14.279   6.153
11070POPC   C1A76323   4.291  14.443   6.453
11070POPC   D2A76324   4.309  14.376   6.753
11070POPC   C3A76325   4.329  14.400   7.053
11070POPC   C4A76326   4.274  14.389   7.353
11070POPC   C1B76327   4.230  14.140   6.453
11070POPC   C2B76328   4.226  14.218   6.753
11070POPC   C3B76329   4.231  14.169   7.053
11070POPC   C4B76330   4.217  14.173   7.353
11071POPC   NC376331  30.662   7.384   5.553
11071POPC   PO476332  30.734   7.461   5.853
11071POPC   GL176333  30.745   7.392   6.153
11071POPC   GL276334  30.613   7.555   6.153
11071POPC   C1A76335  30.706   7.437   6.453
11071POPC   D2A76336  30.742   7.414   6.753
11071POPC   C3A76337  30.685   7.427   7.053
11071POPC   C4A76338  30.711   7.458   7.353
11071POPC   C1B76339  30.552   7.677   6.453
11071POPC   C2B76340  30.560   7.629   6.753
11071POPC   C3B76341  30.566   7.692   7.053
11071POPC   C4B76342  30.590   7.668   7.353
11072POPC   NC376343  39.976   8.187   5.553
11072POPC   PO476344  39.966   8.159   5.853
11072POPC   GL176345  39.969   8.194   6.153
11072POPC   GL276346  39.905   8.248   6.153
11072POPC   C1A76347  40.053   8.177   6.453
11072POPC   D2A76348  39.959   8.228   6.753
11072POPC   C3A76349  40.024   8.209   7.053
11072POPC   C4A76350  40.053   8.237   7.353
11072POPC   C1B76351  39.738   8.276   6.453
11072POPC   C2B76352  39.739   8.313   6.753
11072POPC   C3B76353  39.816   8.327   7.053
11072POPC   C4B76354  39.823   8.267   7.353
11073POPC   NC376355  19.011  24.470   5.553
11073POPC   PO476356  19.016  24.489   5.853
11073POPC   GL176357  19.050  24.443   6.153
11073POPC   GL276358  19.135  24.364   6.153
11073POPC   C1A76359  19.105  24.522   6.453
11073POPC   D2A76360  19.054  24.497   6.753
11073POPC   C3A76361  19.044  24.472   7.053
11073POPC   C4A76362  19.108  24.513   7.353
11073POPC   C1B76363  19.288  24.322   6.453
11073POPC   C2B76364  19.259  24.370   6.753
11073POPC   C3B76365  19.201  24.309   7.053
11073POPC   C4B76366  19.258  24.365   7.353
11074POPC   NC376367  34.543  27.596   5.553
11074POPC   PO476368  34.597  27.567   5.853
11074POPC   GL176369  34.542  27.631   6.153
11074POPC   GL276370  34.498  27.461   6.153
11074POPC   C1A76371  34.552  27.577   6.453
11074POPC   D2A76372  34.546  27.560   6.753
11074POPC   C3A76373  34.590  27.639   7.053
11074POPC   C4A76374  34.591  27.631   7.353
11074POPC   C1B76375  34.395  27.432   6.453
11074POPC   C2B76376  34.387  27.459   6.753
11074POPC   C3B76377  34.350  27.432   7.053
11074POPC   C4B76378  34.422  27.474   7.353
11075POPC   NC376379  18.314  43.130   5.553
11075POPC   PO476380  18.261  43.124   5.853
11075POPC   GL176381  18.276  43.109   6.153
11075POPC   GL276382  18.180  43.053   6.153
11075POPC   C1A76383  18.260  43.112   6.453
11075POPC   D2A76384  18.290  43.086   6.753
11075POPC   C3A76385  18.290  43.088   7.053
11075POPC   C4A76386  18.244  43.130   7.353
11075POPC   C1B76387  18.013  43.054   6.453
11075POPC   C2B76388  18.071  43.085   6.753
11075POPC   C3B76389  18.039  43.067   7.053
11075POPC   C4B76390  18.060  43.021   7.353
11076POPC   NC376391  32.240  29.969   5.553
11076POPC   PO476392  32.252  29.937   5.853
11076POPC   GL176393  32.210  29.963   6.153
11076POPC   GL276394  32.375  29.910   6.153
11076POPC   C1A76395  32.251  29.937   6.453
11076POPC   D2A76396  32.224  29.874   6.753
11076POPC   C3A76397  32.284  29.933   7.053
11076POPC   C4A76398  32.215  29.945   7.353
11076POPC   C1B76399  32.469  29.785   6.453
11076POPC   C2B76400  32.466  29.868   6.753
11076POPC   C3B76401  32.469  29.780   7.053
11076POPC   C4B76402  32.500  29.776   7.353
11077POPC   NC376403  27.638   5.081   5.553
11077POPC   PO476404  27.550   5.100   5.853
11077POPC   GL176405  27.573   5.046   6.153
11077POPC   GL276406  27.480   5.180   6.153
11077POPC   C1A76407  27.611   5.078   6.453
11077POPC   D2A76408  27.580   5.086   6.753
11077POPC   C3A76409  27.580   5.060   7.053
11077POPC   C4A76410  27.609   5.076   7.353
11077POPC   C1B76411  27.456   5.304   6.453
11077POPC   C2B76412  27.391   5.302   6.753
11077POPC   C3B76413  27.434   5.267   7.053
11077POPC   C4B76414  27.422   5.279   7.353
11078POPC   NC376415  33.778  33.799   5.553
11078POPC   PO476416  33.784  33.845   5.853
11078POPC   GL176417  33.835  33.806   6.153
11078POPC   GL276418  33.877  33.650   6.153
11078POPC   C1A76419  33.841  33.823   6.453
11078POPC   D2A76420  33.788  33.760   6.753
11078POPC   C3A76421  33.845  33.759   7.053
11078POPC   C4A76422  33.842  33.760   7.353
11078POPC   C1B76423  33.894  33.554   6.453
11078POPC   C2B76424  33.850  33.523   6.753
11078POPC   C3B76425  33.933  33.562   7.053
11078POPC   C4B76426  33.923  33.584   7.353
11079POPC   NC376427  36.885  27.551   5.553
11079POPC   PO476428  36.888  27.548   5.853
11079POPC   GL176429  36.947  27.577   6.153
11079POPC   GL276430  36.806  27.503   6.153
11079POPC   C1A76431  36.907  27.584   6.453
11079POPC   D2A76432  36.902  27.544   6.753
11079POPC   C3A76433  36.879  27.626   7.053
11079POPC   C4A76434  36.944  27.616   7.353
11079POPC   C1B76435  36.644  27.480   6.453
11079POPC   C2B76436  36.689  27.542   6.753
11079POPC   C3B76437  36.720  27.519   7.053
11079POPC   C4B76438  36.639  27.528   7.353
11080POPC   NC376439  39.246   0.477   5.553
11080POPC   PO476440  39.181   0.415   5.853
11080POPC   GL176441  39.185   0.486   6.153
11080POPC   GL276442  39.383   0.372   6.153
11080POPC   C1A76443  39.244   0.416   6.453
11080POPC   D2A76444  39.280   0.397   6.753
11080POPC   C3A76445  39.235   0.475   7.053
11080POPC   C4A76446  39.279   0.453   7.353
11080POPC   C1B76447  39.433   0.408   6.453
11080POPC   C2B76448  39.523   0.398   6.753
11080POPC   C3B76449  39.517   0.359   7.053
11080POPC   C4B76450  39.506   0.365   7.353
11081POPC   NC376451   1.951  15.213   5.553
11081POPC   PO476452   1.959  15.143   5.853
11081POPC   GL176453   1.975  15.194   6.153
11081POPC   GL276454   1.880  15.080   6.153
11081POPC   C1A76455   2.001  15.227   6.453
11081POPC   D2A76456   1.989  15.163   6.753
11081POPC   C3A76457   2.036  15.220   7.053
11081POPC   C4A76458   1.987  15.130   7.353
11081POPC   C1B76459   1.792  15.007   6.453
11081POPC   C2B76460   1.811  15.025   6.753
11081POPC   C3B76461   1.811  15.013   7.053
11081POPC   C4B76462   1.742  15.066   7.353
11082POPC   NC376463  21.349   6.660   5.553
11082POPC   PO476464  21.414   6.670   5.853
11082POPC   GL176465  21.357   6.680   6.153
11082POPC   GL276466  21.439   6.739   6.153
11082POPC   C1A76467  21.423   6.671   6.453
11082POPC   D2A76468  21.355   6.684   6.753
11082POPC   C3A76469  21.421   6.663   7.053
11082POPC   C4A76470  21.362   6.610   7.353
11082POPC   C1B76471  21.522   6.883   6.453
11082POPC   C2B76472  21.508   6.906   6.753
11082POPC   C3B76473  21.426   6.863   7.053
11082POPC   C4B76474  21.509   6.852   7.353
11083POPC   NC376475   3.588  18.299   5.553
11083POPC   PO476476   3.505  18.251   5.853
11083POPC   GL176477   3.541  18.299   6.153
11083POPC   GL276478   3.690  18.299   6.153
11083POPC   C1A76479   3.533  18.261   6.453
11083POPC   D2A76480   3.550  18.301   6.753
11083POPC   C3A76481   3.503  18.266   7.053
11083POPC   C4A76482   3.531  18.236   7.353
11083POPC   C1B76483   3.748  18.383   6.453
11083POPC   C2B76484   3.817  18.385   6.753
11083POPC   C3B76485   3.778  18.388   7.053
11083POPC   C4B76486   3.733  18.412   7.353
11084POPC   NC376487  26.040  21.429   5.553
11084POPC   PO476488  26.011  21.356   5.853
11084POPC   GL176489  25.992  21.432   6.153
11084POPC   GL276490  26.169  21.374   6.153
11084POPC   C1A76491  26.026  21.369   6.453
11084POPC   D2A76492  26.013  21.402   6.753
11084POPC   C3A76493  26.032  21.390   7.053
11084POPC   C4A76494  26.066  21.369   7.353
11084POPC   C1B76495  26.260  21.461   6.453
11084POPC   C2B76496  26.312  21.434   6.753
11084POPC   C3B76497  26.306  21.420   7.053
11084POPC   C4B76498  26.305  21.461   7.353
11085POPC   NC376499  30.702  36.162   5.553
11085POPC   PO476500  30.734  36.170   5.853
11085POPC   GL176501  30.745  36.079   6.153
11085POPC   GL276502  30.558  36.206   6.153
11085POPC   C1A76503  30.743  36.162   6.453
11085POPC   D2A76504  30.656  36.140   6.753
11085POPC   C3A76505  30.693  36.095   7.053
11085POPC   C4A76506  30.723  36.152   7.353
11085POPC   C1B76507  30.493  36.241   6.453
11085POPC   C2B76508  30.516  36.207   6.753
11085POPC   C3B76509  30.481  36.278   7.053
11085POPC   C4B76510  30.448  36.235   7.353
11086POPC   NC376511   2.723  11.319   5.553
11086POPC   PO476512   2.767  11.317   5.853
11086POPC   GL176513   2.740  11.306   6.153
11086POPC   GL276514   2.816  11.144   6.153
11086POPC   C1A76515   2.781  11.262   6.453
11086POPC   D2A76516   2.758  11.252   6.753
11086POPC   C3A76517   2.781  11.321   7.053
11086POPC   C4A76518   2.808  11.350   7.353
11086POPC   C1B76519   2.934  11.081   6.453
11086POPC   C2B76520   2.935  11.100   6.753
11086POPC   C3B76521   2.865  11.077   7.053
11086POPC   C4B76522   2.875  11.095   7.353
11087POPC   NC376523   8.947   9.011   5.553
11087POPC   PO476524   8.970   8.960   5.853
11087POPC   GL176525   8.942   8.953   6.153
11087POPC   GL276526   8.976   8.840   6.153
11087POPC   C1A76527   8.938   8.979   6.453
11087POPC   D2A76528   9.017   8.953   6.753
11087POPC   C3A76529   8.923   8.994   7.053
11087POPC   C4A76530   8.945   8.985   7.353
11087POPC   C1B76531   9.033   8.736   6.453
11087POPC   C2B76532   9.019   8.684   6.753
11087POPC   C3B76533   9.027   8.764   7.053
11087POPC   C4B76534   9.026   8.694   7.353
11088POPC   NC376535  36.097  27.603   5.553
11088POPC   PO476536  36.139  27.561   5.853
11088POPC   GL176537  36.085  27.563   6.153
11088POPC   GL276538  35.968  27.601   6.153
11088POPC   C1A76539  36.148  27.552   6.453
11088POPC   D2A76540  36.139  27.593   6.753
11088POPC   C3A76541  36.108  27.608   7.053
11088POPC   C4A76542  36.144  27.556   7.353
11088POPC   C1B76543  35.929  27.719   6.453
11088POPC   C2B76544  35.878  27.709   6.753
11088POPC   C3B76545  35.881  27.629   7.053
11088POPC   C4B76546  35.896  27.685   7.353
11089POPC   NC376547  29.160  19.099   5.553
11089POPC   PO476548  29.117  19.059   5.853
11089POPC   GL176549  29.136  19.084   6.153
11089POPC   GL276550  29.079  19.151   6.153
11089POPC   C1A76551  29.145  19.102   6.453
11089POPC   D2A76552  29.167  19.023   6.753
11089POPC   C3A76553  29.154  19.091   7.053
11089POPC   C4A76554  29.124  19.016   7.353
11089POPC   C1B76555  29.064  19.351   6.453
11089POPC   C2B76556  29.077  19.304   6.753
11089POPC   C3B76557  29.122  19.283   7.053
11089POPC   C4B76558  29.126  19.352   7.353
11090POPC   NC376559  12.057   2.726   5.553
11090POPC   PO476560  12.101   2.765   5.853
11090POPC   GL176561  12.117   2.789   6.153
11090POPC   GL276562  12.150   2.935   6.153
11090POPC   C1A76563  12.082   2.729   6.453
11090POPC   D2A76564  12.077   2.783   6.753
11090POPC   C3A76565  12.027   2.779   7.053
11090POPC   C4A76566  12.055   2.815   7.353
11090POPC   C1B76567  12.089   3.041   6.453
11090POPC   C2B76568  12.160   3.042   6.753
11090POPC   C3B76569  12.167   3.025   7.053
11090POPC   C4B76570  12.108   3.053   7.353
11091W        W76571  33.579  28.101   2.742
11092W        W76572  42.521  17.146   1.890
11093W        W76573  44.380  17.240   2.800
11094W        W76574   5.839   5.435  12.455
11095W        W76575  39.507  23.095   4.638
11096W        W76576  11.252  41.381  12.978
11097W        W76577  16.205  11.301  12.988
11098W        W76578  23.042   0.798   0.903
11099W        W76579  21.542  39.977   3.665
11100W        W76580  28.972  29.549   1.283
11101W        W76581   3.375  15.783   2.669
11102W        W76582   9.853   1.390  14.350
11103W        W76583  25.114   1.465  13.963
11104W        W76584   6.734  37.382   5.173
11105W        W76585   4.791  33.380  13.509
11106W        W76586  30.122  14.331  13.311
11107W        W76587  17.143   7.310   2.864
11108W        W76588   6.846  14.788   2.318
11109W        W76589  39.881  32.560  11.473
11110W        W76590   9.742  30.043  10.917
11111W        W76591  26.172  11.225  14.992
11112W        W76592  41.035   7.857   3.277
11113W        W76593   8.657  30.525   0.452
11114W        W76594  11.777  16.617  13.992
11115W        W76595  33.994  42.875  10.586
11116W        W76596  14.673  21.220  13.979
11117W        W76597  33.946  37.408  10.023
11118W        W76598  41.377  42.506   0.244
11119W        W76599  24.592  20.600   4.733
11120W        W76600  27.951   8.350  12.490
11121W        W76601  39.363  35.377   3.637
11122W        W76602  35.059  27.528   4.263
11123W        W76603  23.042  20.742   0.324
11124W        W76604  41.945   3.409   1.703
11125W        W76605  17.768  13.827  11.388
11126W        W76606   0.329   1.737   1.258
11127W        W76607  42.989   5.271   1.315
11128W        W76608  28.019  10.352  10.438
11129W        W76609  39.064  42.976  11.392
11130W        W76610  19.082  38.904  12.978
11131W        W76611   3.269   6.208   5.144
11132W        W76612   4.320   3.314  12.853
11133W        W76613  23.577  35.017  12.384
11134W        W76614  43.335  30.101   0.312
11135W        W76615  27.457  11.824   2.675
11136W        W76616  11.631  12.639   4.757
11137W        W76617  44.434  41.312  10.576
11138W        W76618  27.659  25.674  14.876
11139W        W76619  27.027   1.333   4.760
11140W        W76620  13.293  26.650  13.421
11141W        W76621  11.837   0.861   2.806
11142W        W76622  25.580   7.312   4.117
11143W        W76623  34.577  36.478  14.889
11144W        W76624  36.432  34.415   4.298
11145W        W76625  37.423  33.905  14.831
11146W        W76626   6.357  21.753  14.886
11147W        W76627   4.914  13.139   0.855
11148W        W76628  42.951  41.468   3.680
11149W        W76629  20.598  23.126  13.336
11150W        W76630  22.104   0.472  13.059
11151W        W76631   3.392  35.508   1.862
11152W        W76632  35.961  12.303  11.048
11153W        W76633  34.573  14.119  13.007
11154W        W76634  23.014   9.880  11.917
11155W        W76635  44.863  19.647   1.696
11156W        W76636  19.138  22.083  10.469
11157W        W76637  16.670  36.384  12.853
11158W        W76638  21.254  20.653  10.541
11159W        W76639  15.765  25.174  13.436
11160W        W76640  41.484  19.680   3.731
11161W        W76641  19.263  10.356  10.414
11162W        W76642  24.663  22.131   1.329
11163W        W76643  36.938  11.198   4.242
11164W        W76644  43.007  33.571   1.376
11165W        W76645  30.631  30.010   3.679
11166W        W76646  10.212  34.469   0.381
11167W        W76647  18.785   4.915   0.823
11168W        W76648   6.856  10.231  13.033
11169W        W76649  24.509   6.749  11.592
11170W        W76650  33.953   2.835   2.838
11171W        W76651   4.885  14.270   0.853
11172W        W76652  19.138   0.469   1.767
11173W        W76653  32.933  12.723   1.415
11174W        W76654  10.655  34.428  12.854
11175W        W76655   9.293  39.327  13.870
11176W        W76656  30.630  25.173   4.128
11177W        W76657  27.509  13.215   1.288
11178W        W76658   1.931  27.652   0.793
11179W        W76659  19.652  34.517  12.415
11180W        W76660  42.456   2.426  11.106
11181W        W76661  26.467   6.765   4.155
11182W        W76662  27.488  39.922   3.858
11183W        W76663   0.390  32.947   1.727
11184W        W76664  12.638  18.206  11.073
11185W        W76665  43.493  43.777  12.023
11186W        W76666  18.116  28.036   3.166
11187W        W76667   7.881  24.618  10.425
11188W        W76668  18.711  33.910  10.453
11189W        W76669  38.500  30.637  10.579
11190W        W76670  31.609  25.098   1.775
11191W        W76671  16.725  42.354  12.888
11192W        W76672  44.883  28.185   2.877
11193W        W76673  28.505   8.836  14.316
11194W        W76674  38.936  28.177   5.121
11195W        W76675  34.946  10.328   2.224
11196W        W76676  10.182  37.842   4.687
11197W        W76677  14.200  44.271   3.645
11198W        W76678   6.364  31.632   4.229
11199W        W76679  36.503  20.230  11.892
11200W        W76680  23.715   7.387   3.211
11201W        W76681   5.856  42.385  11.941
11202W        W76682  11.211  15.097  14.422
11203W        W76683   4.301  12.215   3.632
11204W        W76684  13.202  44.779   3.793
11205W        W76685   6.775  43.981  10.623
11206W        W76686   7.779   1.802  13.497
11207W        W76687  15.250  10.362   0.246
11208W        W76688  32.897  13.693  10.633
11209W        W76689  44.468  29.036   3.182
11210W        W76690   4.807  39.431  12.951
11211W        W76691   1.244  16.599   3.216
11212W        W76692  43.933  25.560  11.112
11213W        W76693  15.718  32.498   9.997
11214W        W76694  35.949   4.295   3.277
11215W        W76695   1.246  33.911   0.961
11216W        W76696   3.732  22.143  14.290
11217W        W76697  13.667  26.621  14.966
11218W        W76698  37.343  23.721   0.774
11219W        W76699  41.955  37.008   1.751
11220W        W76700  16.796  11.764   3.166
11221W        W76701  43.947   5.743  13.374
11222W        W76702  30.975  12.339  13.445
11223W        W76703  42.921  39.469  11.880
11224W        W76704  23.490  41.498   2.197
11225W        W76705  19.679   8.173  12.080
11226W        W76706  41.483  28.085   4.297
11227W        W76707  30.589  10.827   4.295
11228W        W76708  43.304  42.932   4.751
11229W        W76709  22.171  14.180   0.314
11230W        W76710  30.164   2.415  13.513
11231W        W76711  27.524   5.715   4.662
11232W        W76712  32.616  17.080   0.314
11233W        W76713  24.555  10.872   5.269
11234W        W76714  42.982  18.674   0.809
11235W        W76715   1.750  42.926   3.860
11236W        W76716  44.766  19.618   1.438
11237W        W76717   2.272  30.116  14.775
11238W        W76718  34.040  23.569  11.904
11239W        W76719  39.889  22.220  12.001
11240W        W76720  28.978  10.161   2.871
11241W        W76721   9.332  25.103  14.380
11242W        W76722   2.835  30.490  10.999
11243W        W76723  39.438  13.138   3.248
11244W        W76724  15.682   7.676  13.041
11245W        W76725  34.570  10.359  11.939
11246W        W76726   5.762   0.746  10.900
11247W        W76727  31.046   7.861  10.573
11248W        W76728  34.474  38.527   0.254
11249W        W76729  32.090  20.766   3.265
11250W        W76730   8.366  14.659  14.011
11251W        W76731   0.443  11.756   2.180
11252W        W76732  15.182   0.866   1.902
11253W        W76733  15.600   2.788   2.382
11254W        W76734  42.997  20.194  14.357
11255W        W76735  37.064  35.947  14.007
11256W        W76736  15.700  21.233  12.341
11257W        W76737  14.761  23.066   3.728
11258W        W76738   6.184   9.313   1.249
11259W        W76739  33.969  38.840   1.728
11260W        W76740   6.794  21.614  11.603
11261W        W76741   6.384  14.146  12.971
11262W        W76742  21.070  39.952   3.359
11263W        W76743  20.040  44.494  11.467
11264W        W76744  10.738  22.162  11.407
11265W        W76745  11.354  21.599  14.006
11266W        W76746  13.811  21.176  11.003
11267W        W76747  26.191  23.163  13.791
11268W        W76748  33.004   8.168  11.112
11269W        W76749  26.607  28.524   2.847
11270W        W76750  14.319  38.021  12.430
11271W        W76751  14.281  33.510  14.978
11272W        W76752  11.213  24.482   3.280
11273W        W76753   9.866  31.435  11.945
11274W        W76754  21.020   7.206   3.387
11275W        W76755  15.686  42.462   2.183
11276W        W76756  35.007  11.286   1.230
11277W        W76757  41.843   7.216   1.342
11278W        W76758  25.038   2.454   0.283
11279W        W76759  31.059  37.976  11.548
11280W        W76760  31.628  43.932  13.495
11281W        W76761   6.279  22.137   4.154
11282W        W76762  30.496  27.078   0.357
11283W        W76763  27.044  21.605  12.402
11284W        W76764  15.261   5.891  14.893
11285W        W76765  32.012   2.315  12.829
11286W        W76766  24.034  32.009  10.421
11287W        W76767  13.252  33.481   3.801
11288W        W76768  23.013  27.097   0.729
11289W        W76769  21.667  21.600   4.189
11290W        W76770   8.662  41.467   2.287
11291W        W76771   3.441  20.609  10.990
11292W        W76772  35.983  19.209  14.498
11293W        W76773  25.005   9.365   2.827
11294W        W76774  38.950  14.194  10.048
11295W        W76775  31.582  14.316  11.480
11296W        W76776  41.908  34.598   1.790
11297W        W76777   2.952  31.117  11.371
11298W        W76778   6.343  26.663   4.246
11299W        W76779  19.717  13.255   1.391
11300W        W76780  44.311   7.760   1.708
11301W        W76781  22.189   5.719  12.368
11302W        W76782   0.947  12.214   3.372
11303W        W76783  32.537  30.023   0.882
11304W        W76784   6.749  11.358   4.827
11305W        W76785   1.459   8.350   0.827
11306W        W76786   6.316  28.046   0.460
11307W        W76787  31.643   5.858   0.422
11308W        W76788  35.393   2.760  12.547
11309W        W76789  15.200  20.228  11.560
11310W        W76790  25.134   8.687  14.944
11311W        W76791  44.877  36.506   3.147
11312W        W76792  35.863  29.145   3.308
11313W        W76793   7.719   5.438   2.240
11314W        W76794  15.206  16.718  11.080
11315W        W76795  26.103   8.877   0.466
11316W        W76796  37.019  19.594   2.260
11317W        W76797  44.996  15.091  12.957
11318W        W76798   0.782  30.907   2.735
11319W        W76799  22.996  23.116   2.237
11320W        W76800  11.659  37.858   1.385
11321W        W76801  26.555  29.026  13.499
11322W        W76802  35.005  36.845  12.524
11323W        W76803  36.020  21.634  12.040
11324W        W76804  44.004  28.480   1.850
11325W        W76805   6.304  27.614  10.939
11326W        W76806  13.188  12.715   2.324
11327W        W76807  12.707  13.744   1.827
11328W        W76808  26.149  31.141  12.936
11329W        W76809  37.420  27.662  12.548
11330W        W76810  29.170  28.001   3.650
11331W        W76811  44.860  44.399  14.789
11332W        W76812  28.957  24.614   3.295
11333W        W76813  16.258  23.640   4.801
11334W        W76814   7.827  28.573  11.393
11335W        W76815  14.811  14.749  14.865
11336W        W76816  23.991  40.954   0.268
11337W        W76817  26.595  33.889   0.947
11338W        W76818   9.789  30.019  12.390
11339W        W76819   8.364  26.115   4.144
11340W        W76820  36.587  35.496   0.319
11341W        W76821  21.135  39.816   1.366
11342W        W76822  22.220  34.905   4.259
11343W        W76823   2.773   7.668  10.590
11344W        W76824  37.453  37.956   1.746
11345W        W76825  32.069   3.942   0.828
11346W        W76826  16.227  40.046   4.299
11347W        W76827  33.073   6.681   0.856
11348W        W76828  44.335  14.803   4.197
11349W        W76829  13.756  16.633  13.534
11350W        W76830  15.143  25.043   4.737
11351W        W76831  37.929  18.626  14.953
11352W        W76832  40.841  43.835   1.715
11353W        W76833  36.471  28.041  14.314
11354W        W76834  35.445  27.146   3.176
11355W        W76835   3.435   2.258   3.303
11356W        W76836  11.794  23.054   4.733
11357W        W76837   7.282  37.501  14.450
11358W        W76838  22.192  40.939  11.931
11359W        W76839   5.862  33.546  10.455
11360W        W76840  35.074  13.214  13.478
11361W        W76841   8.883  20.101  11.440
11362W        W76842  15.594  44.272  14.767
11363W        W76843  22.502  21.092   2.807
11364W        W76844   9.381   1.253  10.937
11365W        W76845  13.606  34.588   4.154
11366W        W76846  16.232   7.217   0.750
11367W        W76847  44.268  14.240  11.024
11368W        W76848   6.344  30.417   3.767
11369W        W76849  44.433  32.579   0.300
11370W        W76850  14.306  25.536   2.302
11371W        W76851   2.240   2.311  14.908
11372W        W76852  32.629  16.727   0.244
11373W        W76853  40.394  26.591   4.662
11374W        W76854  38.862   4.252  11.122
11375W        W76855  10.742  38.519  12.385
11376W        W76856  35.358  22.716   0.328
11377W        W76857  28.961  17.641   1.898
11378W        W76858  20.689  23.182   0.846
11379W        W76859   2.746  13.718  14.818
11380W        W76860   7.812  11.853   3.836
11381W        W76861  25.145  11.361  12.455
11382W        W76862  18.152  40.053   3.286
11383W        W76863  14.177  29.509  13.445
11384W        W76864  35.508  23.508  14.010
11385W        W76865  15.319   1.936  13.973
11386W        W76866  39.019   3.329  10.130
11387W        W76867   6.421   6.203  13.817
11388W        W76868  30.530  32.985   2.891
11389W        W76869  25.975   3.850  14.290
11390W        W76870   1.861  39.814   2.865
11391W        W76871  42.845  18.709  14.503
11392W        W76872  36.468  15.247  14.827
11393W        W76873  23.633   7.296  11.985
11394W        W76874  30.113  43.362   3.281
11395W        W76875   2.764  42.339   0.407
11396W        W76876  12.752  43.442   3.334
11397W        W76877  25.202  22.637  14.992
11398W        W76878   4.827  34.386   3.351
11399W        W76879   9.198  23.689  12.496
11400W        W76880  44.849  10.214  11.596
11401W        W76881   6.383  16.622  12.348
11402W        W76882  43.452  11.301   2.290
11403W        W76883  28.654   3.912  14.302
11404W        W76884  25.069   0.276   3.708
11405W        W76885  15.195  39.509   3.765
11406W        W76886   1.324  44.833   2.392
11407W        W76887   8.821   1.936  14.850
11408W        W76888  30.054  40.827  13.840
11409W        W76889   7.265  19.559  11.031
11410W        W76890   4.349   4.737   3.223
11411W        W76891  38.017  44.439   0.269
11412W        W76892  38.464  37.574   0.292
11413W        W76893  35.386  26.699  11.383
11414W        W76894   3.254   7.227  14.351
11415W        W76895  37.869  15.761  12.506
11416W        W76896  40.324  33.610   5.125
11417W        W76897  11.755  43.964  10.465
11418W        W76898   4.800  39.994  14.454
11419W        W76899  27.122  40.409  13.397
11420W        W76900  35.893  20.525   2.736
11421W        W76901  37.040  18.753  14.397
11422W        W76902  31.945   1.264  11.017
11423W        W76903  13.811  33.439   2.208
11424W        W76904  16.777  24.488   3.308
11425W        W76905  42.419  25.113  15.000
11426W        W76906   8.230  42.377   2.727
11427W        W76907  26.692  29.588   4.165
11428W        W76908  32.485  23.667   1.412
11429W        W76909   5.755  38.052   2.724
11430W        W76910  17.288  30.638   2.898
11431W        W76911  21.095  13.115  13.425
11432W        W76912  23.992  34.526  10.034
11433W        W76913  44.781  37.983   1.322
11434W        W76914  40.012   3.226   3.829
11435W        W76915   9.701  27.063  14.763
11436W        W76916  29.636  25.203  12.972
11437W        W76917  27.508   3.846  13.018
11438W        W76918  42.791  24.683   2.397
11439W        W76919  25.109  34.015  12.944
11440W        W76920  20.652  44.826   1.830
11441W        W76921  26.484  20.114  14.966
11442W        W76922  24.671  16.631  10.997
11443W        W76923  10.224   8.698  13.372
11444W        W76924  37.377   3.819   0.468
11445W        W76925   4.417  15.149   3.237
11446W        W76926  28.960  32.049  12.050
11447W        W76927  29.957  14.272  14.984
11448W        W76928  13.248  23.126   1.279
11449W        W76929   6.750   3.382  13.462
11450W        W76930   2.791  28.106  12.385
11451W        W76931  17.778  32.425   0.772
11452W        W76932  24.148  15.229  12.410
11453W        W76933  26.125  36.974  11.486
11454W        W76934   8.278  38.417   3.671
11455W        W76935  15.811  20.722   3.736
11456W        W76936  34.408  36.417  10.923
11457W        W76937  32.957   5.918   4.729
11458W        W76938  33.419  40.052   2.368
11459W        W76939  26.636  42.996  14.322
11460W        W76940  36.916   7.850   1.349
11461W        W76941  34.598  36.491   4.329
11462W        W76942   2.424  41.787  12.935
11463W        W76943  18.700  23.580  10.955
11464W        W76944  28.049  39.811   0.731
11465W        W76945  36.522  19.200  14.922
11466W        W76946   1.887  28.958  13.537
11467W        W76947  42.285   5.334   3.159
11468W        W76948  42.330   9.389  11.552
11469W        W76949  18.614   0.809  11.947
11470W        W76950   8.284  39.385  13.342
11471W        W76951  14.654  14.326  13.898
11472W        W76952   0.460  32.930   4.695
11473W        W76953   2.785  24.678  14.449
11474W        W76954  30.022   3.931  11.528
11475W        W76955  16.102   3.802   2.231
11476W        W76956  28.637  42.303   1.702
11477W        W76957  40.499  42.426  12.385
11478W        W76958   9.867   4.389   3.335
11479W        W76959  44.966   0.467   2.667
11480W        W76960  32.919  40.905  13.483
11481W        W76961  34.930  11.858   3.667
11482W        W76962  16.671  33.059   1.903
11483W        W76963   4.228   9.342   3.308
11484W        W76964   2.452  27.110  12.459
11485W        W76965  18.682  32.551   2.237
11486W        W76966  13.293  38.451   4.260
11487W        W76967  25.475  12.229  14.323
11488W        W76968  14.612   0.829   1.764
11489W        W76969   6.268  35.537  14.949
11490W        W76970   6.705  17.768   0.456
11491W        W76971  19.630  40.439  12.939
11492W        W76972  40.531   0.905  12.420
11493W        W76973  42.460  40.917   3.294
11494W        W76974   5.257  41.435  10.897
11495W        W76975   7.813  17.198   1.930
11496W        W76976  19.703  33.068   1.331
11497W        W76977  29.527  22.717  14.895
11498W        W76978  19.553  23.083  13.968
11499W        W76979  25.092  12.742  13.528
11500W        W76980  43.338  30.019  14.497
11501W        W76981  11.355   3.319  11.546
11502W        W76982  19.225  24.715  11.904
11503W        W76983  41.926   7.206  14.304
11504W        W76984  18.671  18.202   0.742
11505W        W76985  40.356  16.122   0.429
11506W        W76986  36.079   3.251   3.722
11507W        W76987   1.893  31.407   3.636
11508W        W76988   2.361  11.273  12.836
11509W        W76989  29.120   5.737  13.039
11510W        W76990  32.536  26.522  13.947
11511W        W76991  44.464  39.458  13.520
11512W        W76992  40.995  33.380  12.844
11513W        W76993  18.627  32.464   1.732
11514W        W76994  39.931  27.590   3.652
11515W        W76995  44.498  42.431   0.466
11516W        W76996  20.767  27.668   0.373
11517W        W76997  10.817  25.649  14.839
11518W        W76998  22.665  41.360   2.841
11519W        W76999  17.690  43.366   4.780
11520W        W77000  29.111  33.504   2.297
11521W        W77001  17.268   5.195  10.906
11522W        W77002   6.214  26.625   1.810
11523W        W77003  17.130  40.446  11.859
11524W        W77004   0.336  33.007  11.531
11525W        W77005  13.833  36.035   3.767
11526W        W77006  43.325  14.636   2.816
11527W        W77007  30.970  38.888   1.257
11528W        W77008  13.267   7.901   4.285
11529W        W77009  26.650  34.049   3.693
11530W        W77010  35.969  41.952  12.389
11531W        W77011  22.230  44.376   1.841
11532W        W77012  16.127   8.769  12.504
11533W        W77013  29.451  20.235   0.779
11534W        W77014  10.638  26.662  13.879
11535W        W77015  26.645  32.474   0.950
11536W        W77016  12.850   4.824  10.424
11537W        W77017  23.500  12.340   1.245
11538W        W77018  14.105  40.307  14.289
11539W        W77019  35.359   8.792  10.066
11540W        W77020  25.581   4.902  13.507
11541W        W77021  44.850   1.323   3.765
11542W        W77022  36.544  13.181  13.024
11543W        W77023  26.017  31.409   4.289
11544W        W77024  25.572  20.197  14.283
11545W        W77025   6.878   8.793   3.243
11546W        W77026  27.067  17.190  13.426
11547W        W77027  14.296  22.153   4.221
11548W        W77028   4.415  13.345   1.773
11549W        W77029  26.159  31.929   1.373
11550W        W77030  13.196  19.132   2.736
11551W        W77031   4.923  11.834   0.803
11552W        W77032  42.424  19.775   0.421
11553W        W77033   2.900  18.279   4.306
11554W        W77034  16.128  37.983  10.417
11555W        W77035  15.316  28.058  14.839
11556W        W77036  43.358  35.892  14.788
11557W        W77037  25.532  28.114  12.339
11558W        W77038  42.304  22.640   2.807
11559W        W77039  11.853  10.735   3.768
11560W        W77040  19.694  36.878  14.456
11561W        W77041  16.730  21.239   4.162
11562W        W77042  28.027  39.983  12.090
11563W        W77043   8.874  18.082  14.880
11564W        W77044   8.772  20.236   2.864
11565W        W77045  35.062  43.511  13.999
11566W        W77046  25.493   6.869   2.791
11567W        W77047  22.570  23.548   4.800
11568W        W77048  26.133  16.667  13.504
11569W        W77049  36.878  23.669   3.848
11570W        W77050  22.040   5.872  11.045
11571W        W77051  11.630  30.006   2.315
11572W        W77052   6.834  11.223  14.871
11573W        W77053  10.283  10.687   3.842
11574W        W77054   5.804  39.875  13.309
11575W        W77055  28.109  38.062  11.389
11576W        W77056  17.112  26.028   3.318
11577W        W77057  34.887  42.869   3.321
11578W        W77058  14.204   6.700   2.301
11579W        W77059  18.703  34.370  12.426
11580W        W77060  38.869  13.701  13.982
11581W        W77061  23.654  19.689   0.468
11582W        W77062   5.764   4.901  13.520
11583W        W77063  13.690  33.079  13.039
11584W        W77064  13.767  25.655  13.514
11585W        W77065   5.820   9.187   2.386
11586W        W77066  27.122  38.998  11.391
11587W        W77067  24.555  31.015  10.558
11588W        W77068  41.865  15.289  10.960
11589W        W77069  10.724  44.786  11.020
11590W        W77070  18.731  43.957  10.554
11591W        W77071  44.489   0.456   2.292
11592W        W77072  43.270  20.562   2.283
11593W        W77073  22.723   4.229  12.957
11594W        W77074  15.319   1.897   1.773
11595W        W77075  40.814  27.179  14.508
11596W        W77076  36.891  29.064   2.837
11597W        W77077  11.699  42.389  13.851
11598W        W77078   4.316  33.990  14.891
11599W        W77079  31.146   0.364  13.907
11600W        W77080  34.409  38.901  14.455
11601W        W77081  29.487  21.039   3.734
11602W        W77082  27.461   3.915  10.962
11603W        W77083   1.316  23.197   2.371
11604W        W77084   8.862  30.941   4.828
11605W        W77085   9.869  35.955   2.294
11606W        W77086  37.061  26.080  11.861
11607W        W77087  13.132  39.049   4.143
11608W        W77088  24.678  30.115  10.507
11609W        W77089  41.814  31.533  11.109
11610W        W77090  36.519  25.487  14.390
11611W        W77091  13.335  41.922  13.370
11612W        W77092  22.640  40.387  11.002
11613W        W77093  21.524  43.959   9.498
11614W        W77094  40.431  37.339   0.268
11615W        W77095  35.967  15.661   2.340
11616W        W77096   5.393  27.646   1.769
11617W        W77097   9.336   4.888  12.053
11618W        W77098   5.825  12.135   2.881
11619W        W77099  26.119  27.184  13.964
11620W        W77100  42.965   0.779  12.846
11621W        W77101   6.724   0.336  12.399
11622W        W77102  43.995  25.027  13.003
11623W        W77103  29.964  20.664  14.391
11624W        W77104   1.403   6.249  11.578
11625W        W77105  33.528  43.373  13.005
11626W        W77106  25.536  33.019  11.922
11627W        W77107  38.012   8.395  14.005
11628W        W77108   4.860   0.300   4.237
11629W        W77109  25.063  24.643   2.358
11630W        W77110  30.938  32.957   1.294
11631W        W77111   5.247   4.914  12.459
11632W        W77112  19.252  13.747   3.777
11633W        W77113  21.555  41.898   4.149
11634W        W77114  25.559  25.581   2.236
11635W        W77115  28.482   8.697   2.754
11636W        W77116  17.213  13.780   0.730
11637W        W77117   3.921  36.941  14.940
11638W        W77118  28.993  21.580  10.940
11639W        W77119  17.274  42.778  10.948
11640W        W77120  23.043  38.379   2.230
11641W        W77121  29.604  26.586   0.860
11642W        W77122  28.495  33.032  11.908
11643W        W77123  24.021  34.949   0.800
11644W        W77124  44.999  17.779   1.927
11645W        W77125  36.021  35.504   3.706
11646W        W77126  12.735   3.328  11.043
11647W        W77127  31.900  15.623   4.193
11648W        W77128  31.619   6.767   1.851
11649W        W77129  19.089  39.526   0.273
11650W        W77130  41.018  17.575   4.833
11651W        W77131  36.387  44.302   3.294
11652W        W77132  15.596   8.821  12.482
11653W        W77133  16.721  15.719   2.347
11654W        W77134  44.992   7.394   0.368
11655W        W77135   6.316  20.201  11.003
11656W        W77136  13.740  10.867   1.916
11657W        W77137   0.484  30.469   1.303
11658W        W77138  41.418   7.218  13.380
11659W        W77139   0.860  38.064  12.484
11660W        W77140  21.636  29.571   0.963
11661W        W77141  17.672  36.548  11.953
11662W        W77142   6.712  13.182   2.303
11663W        W77143  19.169  17.589  10.569
11664W        W77144  12.793  15.306  13.835
11665W        W77145  12.686  34.057  13.051
11666W        W77146  33.500  27.681   1.304
11667W        W77147  41.973   9.807   4.210
11668W        W77148  14.662  24.126  11.904
11669W        W77149  20.663  37.890   1.860
11670W        W77150  11.861  12.673   4.270
11671W        W77151  28.983  22.643   1.772
11672W        W77152  40.941   3.871   9.986
11673W        W77153  36.065  43.470  14.003
11674W        W77154  21.742   8.174   3.653
11675W        W77155   9.373  32.917  14.799
11676W        W77156   5.205   6.232   0.290
11677W        W77157  44.349  17.180  10.555
11678W        W77158  33.512  36.026   3.261
11679W        W77159  36.547  44.757  11.044
11680W        W77160  37.073  36.921   1.863
11681W        W77161  36.544   7.232   1.779
11682W        W77162   6.402   7.822  12.386
11683W        W77163   4.805  36.407  10.899
11684W        W77164  16.212  25.520   2.242
11685W        W77165  34.988   2.848  10.986
11686W        W77166  32.613  28.053  14.835
11687W        W77167  30.532  44.907  11.442
11688W        W77168  33.394   7.892  12.037
11689W        W77169  43.362  12.148  12.457
11690W        W77170   3.216   5.244  11.007
11691W        W77171  43.813  20.136   2.196
11692W        W77172  26.007  37.437  13.508
11693W        W77173  21.753  43.368   2.221
11694W        W77174  31.955  17.157   2.360
11695W        W77175  31.057  17.634  12.869
11696W        W77176  39.353  19.251   3.245
11697W        W77177  22.737  42.835   4.665
11698W        W77178   2.233   8.173  12.987
11699W        W77179  25.121   0.435  14.773
11700W        W77180  35.572   7.821  11.449
11701W        W77181  16.232  10.225   0.893
11702W        W77182  10.858  38.038  12.011
11703W        W77183  26.152  11.194  12.838
11704W        W77184   5.828  12.211   4.315
11705W        W77185  44.931   7.308  12.007
11706W        W77186  12.265  33.107   2.882
11707W        W77187  16.310   5.779  11.024
11708W        W77188  24.068  42.485  13.351
11709W        W77189  40.383  26.069   4.177
11710W        W77190  20.706   7.903   3.735
11711W        W77191  43.789  26.532  11.859
11712W        W77192  33.100   1.468   4.226
11713W        W77193   1.847   1.939   1.402
11714W        W77194  43.778   8.316   4.598
11715W        W77195  36.026  36.475   1.316
11716W        W77196  19.616  35.558   1.916
11717W        W77197   6.835  24.631  13.797
11718W        W77198   2.319  39.338   4.623
11719W        W77199  23.705   0.960  11.432
11720W        W77200  41.383   8.660  14.942
11721W        W77201   5.287  34.903  14.443
11722W        W77202  42.891  11.859  13.031
11723W        W77203   6.248  20.101   3.758
11724W        W77204  14.233  38.561   3.845
11725W        W77205  25.602  28.533   4.239
11726W        W77206  20.207  18.172  14.775
11727W        W77207  10.143  15.133  11.117
11728W        W77208   6.323  15.637   0.816
11729W        W77209  17.155  31.972   5.129
11730W        W77210  31.064  42.363  10.006
11731W        W77211  32.101   5.376  14.871
11732W        W77212  32.937   3.271  10.912
11733W        W77213  42.876  13.732  11.416
11734W        W77214   7.865  36.922  11.986
11735W        W77215  30.004   6.849  13.435
11736W        W77216  23.004  34.407   1.811
11737W        W77217  17.616   0.397   4.283
11738W        W77218  17.762  28.134   3.295
11739W        W77219  33.535  24.041  10.497
11740W        W77220  23.698   3.435   1.847
11741W        W77221  12.137   2.867  13.426
11742W        W77222  26.458  15.635   0.480
11743W        W77223   5.421  26.638  12.440
11744W        W77224  34.028  13.209  13.054
11745W        W77225  26.184  32.545   4.698
11746W        W77226  15.814  20.223   4.248
11747W        W77227  30.453  26.479  11.005
11748W        W77228  43.277  27.145   4.214
11749W        W77229  36.969  34.923  11.063
11750W        W77230  38.870  10.187   2.870
11751W        W77231  38.388  25.656  10.924
11752W        W77232   7.322  20.061  12.017
11753W        W77233  10.209   2.341  14.437
11754W        W77234  18.117  10.283  13.829
11755W        W77235  31.979   6.276  12.451
11756W        W77236  41.302  25.674  12.913
11757W        W77237  11.170  38.438  13.412
11758W        W77238  40.929  24.203  14.785
11759W        W77239  29.467  32.951  13.440
11760W        W77240   7.873  37.931  11.463
11761W        W77241  43.822   9.862   3.704
11762W        W77242  39.329   3.367  12.492
11763W        W77243  18.220   2.317  13.801
11764W        W77244  30.110   2.925   2.211
11765W        W77245  10.676  23.660  12.913
11766W        W77246  32.507  11.720  14.028
11767W        W77247   2.922  10.207  10.480
11768W        W77248  16.789  37.485  14.792
11769W        W77249  16.594  11.262  13.423
11770W        W77250  20.156  16.236  14.785
11771W        W77251  15.235  12.621   3.345
11772W        W77252  17.605  32.051   2.367
11773W        W77253  25.656  39.335  11.120
11774W        W77254  44.974  10.144   0.273
11775W        W77255  43.280  26.050   0.894
11776W        W77256  18.668  19.062  11.406
11777W        W77257   0.964   0.933  13.888
11778W        W77258  37.437  38.385  11.958
11779W        W77259  20.705   5.284  10.626
11780W        W77260  30.985  42.376  11.971
11781W        W77261  39.460  20.625   3.219
11782W        W77262  25.599  28.159   3.372
11783W        W77263  18.057  24.565  10.990
11784W        W77264  18.785  41.919   0.909
11785W        W77265   0.911  19.073   0.362
11786W        W77266   7.291  18.608  14.399
11787W        W77267  44.431  24.624   4.785
11788W        W77268  23.205  35.454  11.928
11789W        W77269  41.882  22.101   0.435
11790W        W77270   4.936   2.345  11.003
11791W        W77271  37.580   6.900   4.193
11792W        W77272  30.062  32.500   0.781
11793W        W77273  23.086   3.445  14.370
11794W        W77274  28.621   9.205  11.500
11795W        W77275  25.043  16.242   1.801
11796W        W77276  20.530  41.933   1.852
11797W        W77277  33.566  27.172  10.033
11798W        W77278  23.543   3.265  12.347
11799W        W77279   9.352   5.824   3.212
11800W        W77280  26.031   1.401  11.868
11801W        W77281  30.953   4.761   0.331
11802W        W77282  26.605  23.703  12.448
11803W        W77283   9.699  32.923  11.562
11804W        W77284  24.479  40.013   2.245
11805W        W77285  40.989  30.120  13.464
11806W        W77286  26.127  27.653   1.230
11807W        W77287  30.590  10.843  11.439
11808W        W77288  27.022  31.406   3.350
11809W        W77289   3.445   9.848   1.871
11810W        W77290  15.766  20.550   1.433
11811W        W77291  13.169  14.674  14.022
11812W        W77292  27.181  31.618  14.335
11813W        W77293  26.585  14.198  12.991
11814W        W77294  34.575  38.463  14.924
11815W        W77295  12.249  20.221   3.735
11816W        W77296  15.802  17.761  14.773
11817W        W77297  14.609  20.128  14.452
11818W        W77298  28.184   8.377   0.472
11819W        W77299   0.874  42.486   2.391
11820W        W77300  15.655  14.781   0.459
11821W        W77301  39.344  10.735  14.503
11822W        W77302  42.927  35.029   5.246
11823W        W77303  32.531  30.101  11.598
11824W        W77304  43.017   0.936   5.124
11825W        W77305  15.676  32.948  12.523
11826W        W77306  24.041   7.324  11.501
11827W        W77307   5.692  40.509  12.475
11828W        W77308   1.888  15.584  12.957
11829W        W77309  36.079  17.181  13.498
11830W        W77310   5.416  27.183   4.171
11831W        W77311  43.357  21.118   0.787
11832W        W77312  17.796  13.110   2.328
11833W        W77313  38.366  41.410  12.508
11834W        W77314  28.088  43.890   2.825
11835W        W77315  21.519  33.590  10.571
11836W        W77316  33.929  24.580   3.846
11837W        W77317  31.933  24.011  11.492
11838W        W77318  31.442   5.428  14.894
11839W        W77319   4.873  44.945   4.736
11840W        W77320  32.965  31.102   2.814
11841W        W77321  15.112  16.250   1.801
11842W        W77322  18.625  23.654  14.374
11843W        W77323  14.119  24.667   0.753
11844W        W77324   3.293  15.277  10.636
11845W        W77325  22.629  38.514   3.341
11846W        W77326  11.256  26.572  14.514
11847W        W77327  25.586  42.952   4.703
11848W        W77328  17.665  26.169  11.948
11849W        W77329  39.462  22.564   1.276
11850W        W77330  40.342  19.205   3.169
11851W        W77331  40.911  27.682  10.480
11852W        W77332  31.636  34.906  14.007
11853W        W77333   4.934   2.458  11.963
11854W        W77334  26.624  41.294   2.702
11855W        W77335   1.770  37.945   2.230
11856W        W77336   1.957  32.960   2.222
11857W        W77337  11.792  22.549  14.844
11858W        W77338   2.806  19.672  10.895
11859W        W77339  15.124  12.185  11.090
11860W        W77340  27.451  23.091  13.040
11861W        W77341  20.239   5.352   1.277
11862W        W77342  13.300  24.046  13.037
11863W        W77343  28.515   4.218   0.439
11864W        W77344   8.830  18.127   1.321
11865W        W77345   5.345  22.219   2.866
11866W        W77346   9.220  39.872  10.905
11867W        W77347  20.624  21.158  11.592
11868W        W77348  21.071  27.496   0.898
11869W        W77349   7.811  43.875  13.483
11870W        W77350  13.343  32.134   4.285
11871W        W77351  18.711  11.726   3.829
11872W        W77352  27.566   1.466   2.246
11873W        W77353  23.639  14.802   1.855
11874W        W77354  35.961  40.517  14.836
11875W        W77355  22.131  44.970  14.953
11876W        W77356   7.182  19.148   3.159
11877W        W77357  10.283   5.895  12.458
11878W        W77358  32.588  16.740   3.843
11879W        W77359  15.193   3.416   0.350
11880W        W77360  31.067   4.213   3.670
11881W        W77361  10.282   1.930  12.398
11882W        W77362  42.493  28.596  10.512
11883W        W77363  33.980  41.512   3.848
11884W        W77364   0.917  31.025  13.519
11885W        W77365   1.798  42.439  11.413
11886W        W77366  34.935  23.720   4.328
11887W        W77367   1.265  29.047  13.003
11888W        W77368  11.694  15.266   2.689
11889W        W77369  39.984  26.589   0.850
11890W        W77370  24.990   1.851  13.322
11891W        W77371   5.348  16.244  14.506
11892W        W77372  28.036  20.215  13.967
11893W        W77373  27.525  21.730   3.216
11894W        W77374  11.300  24.591  12.355
11895W        W77375  40.460  20.565  10.036
11896W        W77376  13.255  32.403   2.193
11897W        W77377  22.067  10.366   0.258
11898W        W77378  22.094  41.955  10.567
11899W        W77379   7.206  44.312   3.666
11900W        W77380  15.295  23.609  14.021
11901W        W77381   7.403   7.229   2.186
11902W        W77382  29.484  17.292   3.370
11903W        W77383  43.270  44.342  14.417
11904W        W77384   2.872  25.668   1.735
11905W        W77385   1.444  19.570  13.047
11906W        W77386  40.870  37.430   5.170
11907W        W77387   9.314   7.330  10.629
11908W        W77388  36.937  30.033  11.389
11909W        W77389   9.343  11.162   1.703
11910W        W77390  14.221   6.283  11.003
11911W        W77391  12.153  22.161  10.638
11912W        W77392  17.644  40.427   3.798
11913W        W77393  24.597  14.603   0.945
11914W        W77394  32.013  23.142  13.521
11915W        W77395  31.474  30.531   1.802
11916W        W77396  31.581  20.216  12.352
11917W        W77397  35.902  44.997   2.218
11918W        W77398  33.945  35.506   3.283
11919W        W77399  39.415  13.350  10.442
11920W        W77400  42.397  26.194  13.796
11921W        W77401  23.140  13.694  12.090
11922W        W77402  31.044  40.404  12.906
11923W        W77403  13.760  38.343  14.894
11924W        W77404  38.389  21.573  11.960
11925W        W77405  41.436   8.211  11.922
11926W        W77406   0.291   1.757   2.765
11927W        W77407   8.726  34.924  12.029
11928W        W77408  18.156  14.608  12.389
11929W        W77409  14.746  23.156  13.500
11930W        W77410   8.842   2.954  10.888
11931W        W77411  22.238  29.562  14.929
11932W        W77412  18.685  14.665   0.732
11933W        W77413  16.808  42.494   1.759
11934W        W77414  38.976  15.796   2.188
11935W        W77415  19.695  39.486  13.445
11936W        W77416   4.433  42.335   3.697
11937W        W77417  32.958  41.844   0.890
11938W        W77418   1.409  22.505   2.343
11939W        W77419  43.423  28.548  13.406
11940W        W77420  32.596  15.234  11.052
11941W        W77421  10.256   9.157  13.318
11942W        W77422  11.142   1.763  14.773
11943W        W77423  36.416  14.270   2.834
11944W        W77424  39.911  28.945  10.591
11945W        W77425  31.631  10.634  11.931
11946W        W77426   5.921  29.942   3.764
11947W        W77427  42.871  18.554   1.814
11948W        W77428  35.532  30.993  14.290
11949W        W77429  25.125  35.966   3.187
11950W        W77430  31.454  26.068   3.201
11951W        W77431   1.263   9.751   0.726
11952W        W77432  12.346   4.716  11.405
11953W        W77433   1.747  37.968  12.071
11954W        W77434  28.037   6.302  10.515
11955W        W77435  16.680  26.147  13.816
11956W        W77436  37.859  44.907  10.632
11957W        W77437  44.320  38.553  14.906
11958W        W77438  42.005  44.934   1.278
11959W        W77439   4.767  22.586   1.847
11960W        W77440  20.763  42.936   4.636
11961W        W77441  26.661  25.683   1.302
11962W        W77442   9.286  10.217  10.915
11963W        W77443   4.706  42.396  10.421
11964W        W77444   6.354  24.710   4.227
11965W        W77445  21.534  16.179  14.370
11966W        W77446   8.700  24.065  14.911
11967W        W77447   2.742  11.352   1.853
11968W        W77448   7.665  39.019   2.307
11969W        W77449   0.260   5.891  13.799
11970W        W77450  29.091  15.322   3.866
11971W        W77451  22.082  17.703   3.674
11972W        W77452  30.649  28.672   3.696
11973W        W77453  22.554  26.512   3.253
11974W        W77454  12.829  40.972   2.881
11975W        W77455  16.272  34.532  10.468
11976W        W77456   2.452  40.820   2.239
11977W        W77457  24.202  27.550   4.168
11978W        W77458  28.622  26.053   3.682
11979W        W77459  17.628  40.964  13.381
11980W        W77460  32.460  23.092   1.763
11981W        W77461  42.477  42.320  14.012
11982W        W77462  19.715  25.025   0.451
11983W        W77463  27.531   6.325   4.621
11984W        W77464   1.358  27.578  13.923
11985W        W77465   7.200  28.533  12.899
11986W        W77466  10.843  39.042  10.409
11987W        W77467  17.231  17.069  11.517
11988W        W77468   7.372   3.391  13.510
11989W        W77469   2.300  15.192  14.380
11990W        W77470  37.979  28.449   0.787
11991W        W77471  39.499  17.570   4.137
11992W        W77472   7.751  14.154   0.264
11993W        W77473  35.070   7.912  12.018
11994W        W77474   7.359  39.007  11.043
11995W        W77475  27.060   4.414  11.014
11996W        W77476  32.577  24.177  11.897
11997W        W77477  21.126   8.878  12.349
11998W        W77478  20.617  13.301   0.462
11999W        W77479   3.244  33.041  10.421
12000W        W77480  11.855  33.918  14.840
12001W        W77481  30.015  12.855  12.511
12002W        W77482   7.188  19.558  14.498
12003W        W77483  10.139   3.402  13.394
12004W        W77484   9.826  22.120   3.758
12005W        W77485  31.153  22.723  12.843
12006W        W77486  16.215  23.705  12.558
12007W        W77487  38.019  28.492  13.380
12008W        W77488  34.530  31.521   4.241
12009W        W77489  42.873  11.211  11.040
12010W        W77490  23.648  15.312   3.860
12011W        W77491  11.269   7.365  14.358
12012W        W77492  40.050  23.156  11.025
12013W        W77493  13.726  27.019   3.235
12014W        W77494  13.159  14.299  12.483
12015W        W77495  44.362  38.340   3.175
12016W        W77496  38.074   2.869   4.242
12017W        W77497  17.721   2.284   1.911
12018W        W77498  28.950   7.382   2.703
12019W        W77499  31.952  32.892   2.879
12020W        W77500   2.853  44.420   4.317
12021W        W77501  10.793  10.867  11.551
12022W        W77502  16.753  26.580  13.365
12023W        W77503  28.180   0.804  12.861
12024W        W77504  43.880  37.552   0.278
12025W        W77505  43.883  17.740  11.549
12026W        W77506   1.379  17.124   1.341
12027W        W77507  35.503  27.040  11.456
12028W        W77508   2.394  36.437   2.292
12029W        W77509  14.216  34.419  12.941
12030W        W77510  24.148  16.778   1.285
12031W        W77511  26.468  25.493  12.413
12032W        W77512   9.339   8.369   0.395
12033W        W77513   2.413   3.738  10.937
12034W        W77514  25.707  34.095   2.391
12035W        W77515  41.953   2.250   0.798
12036W        W77516  27.153  44.329   4.760
12037W        W77517   8.257  11.186  10.604
12038W        W77518  41.037   1.957   0.906
12039W        W77519  26.526   1.352  14.515
12040W        W77520  24.984  20.756  12.048
12041W        W77521  30.620  17.572  13.372
12042W        W77522  41.991  29.664   0.364
12043W        W77523  28.506   6.897  12.500
12044W        W77524  34.490   9.714   4.818
12045W        W77525   1.436  31.556  13.371
12046W        W77526   9.645  14.270  14.492
12047W        W77527  12.705   8.241  10.961
12048W        W77528   8.347  42.473   3.642
12049W        W77529  32.607  42.382   1.281
12050W        W77530  11.316   5.200   0.749
12051W        W77531  25.709  34.384   1.390
12052W        W77532  20.206   1.326  14.908
12053W        W77533  18.297  39.000   1.932
12054W        W77534   9.208  39.493  14.400
12055W        W77535  10.356  35.914   0.316
12056W        W77536  34.081  43.382  11.605
12057W        W77537   2.399  25.986  11.377
12058W        W77538  37.390  10.879  10.515
12059W        W77539  19.067  41.798  11.611
12060W        W77540   4.274  43.966   4.284
12061W        W77541  17.591  19.535  13.820
12062W        W77542  13.837   5.362  12.881
12063W        W77543  36.051  41.842   0.933
12064W        W77544  34.553  16.181   4.760
12065W        W77545  11.338  33.494  14.986
12066W        W77546   3.744  13.270   2.200
12067W        W77547  18.731  17.204  13.487
12068W        W77548  31.980  39.016  11.063
12069W        W77549  29.517  30.600  10.590
12070W        W77550  26.035   4.359   0.385
12071W        W77551  43.960  42.470  13.373
12072W        W77552  37.361  14.640  11.085
12073W        W77553   9.302  13.689  11.409
12074W        W77554  10.219  38.571   9.930
12075W        W77555  12.164  16.290   4.802
12076W        W77556  43.285   1.953  11.986
12077W        W77557   8.345  16.771  10.626
12078W        W77558  37.058   8.235   4.676
12079W        W77559   5.834   7.246  10.626
12080W        W77560   4.282  17.283  10.440
12081W        W77561  35.076  14.170  13.887
12082W        W77562  38.037   4.231  11.434
12083W        W77563  25.632  44.340  11.052
12084W        W77564  19.672   7.701   3.288
12085W        W77565  38.454  41.529   1.386
12086W        W77566   4.781  26.652  12.937
12087W        W77567   7.219  44.823   2.878
12088W        W77568  21.725  39.034   0.320
12089W        W77569  39.046  40.011  11.949
12090W        W77570   6.684  43.856   2.847
12091W        W77571  29.490  19.727  11.057
12092W        W77572  19.717  43.971  12.363
12093W        W77573  39.055  12.613   4.116
12094W        W77574  38.443  19.612   2.749
12095W        W77575   4.341   9.203  13.020
12096W        W77576  44.307  37.555   2.675
12097W        W77577  28.047  19.086  12.939
12098W        W77578  14.314  27.610   3.858
12099W        W77579   1.402  42.998   5.097
12100W        W77580  25.661  24.056  11.898
12101W        W77581  32.071  37.069   0.403
12102W        W77582  19.063  21.700  13.874
12103W        W77583   2.313   9.651  14.427
12104W        W77584  35.384  29.927  11.461
12105W        W77585   1.341   5.741   3.285
12106W        W77586  18.282   8.845  11.559
12107W        W77587  43.897   1.964  13.825
12108W        W77588  39.973   1.302   2.183
12109W        W77589   4.920  34.567   2.816
12110W        W77590  22.112  27.077   0.894
12111W        W77591   6.209   5.218   4.171
12112W        W77592  13.780  33.400  11.493
12113W        W77593  39.018  42.848  11.890
12114W        W77594  30.986   3.452   4.185
12115W        W77595  22.100  34.553   3.758
12116W        W77596  23.538  40.811  11.056
12117W        W77597  36.455  10.724  12.495
12118W        W77598   7.367  30.460  11.425
12119W        W77599  27.135  16.215   1.421
12120W        W77600  36.914  43.393   3.761
12121W        W77601  42.493  22.031   1.307
12122W        W77602  21.198  29.525   1.762
12123W        W77603   3.908  43.984   2.890
12124W        W77604  43.902   3.388   2.227
12125W        W77605  29.991  32.522  11.502
12126W        W77606  11.835  16.776   4.774
12127W        W77607  27.969  20.182  11.955
12128W        W77608  40.871   5.331   2.295
12129W        W77609  36.996  42.484  10.527
12130W        W77610  28.034  35.912  14.387
12131W        W77611  40.327  25.593  10.504
12132W        W77612  32.908  18.127   3.338
12133W        W77613  23.152  27.628  10.416
12134W        W77614  34.997  10.331   4.763
12135W        W77615  37.360  14.313   3.220
12136W        W77616  23.521  35.987  12.045
12137W        W77617   9.881  38.907   3.810
12138W        W77618  23.036  15.258  13.965
12139W        W77619  21.741  21.050   4.188
12140W        W77620   3.938   8.844  11.464
12141W        W77621  41.361   4.842  13.820
12142W        W77622  33.464   6.234  14.816
12143W        W77623  20.657  20.716  12.069
12144W        W77624  26.025  40.495   0.260
12145W        W77625  13.305  34.536   0.931
12146W        W77626  25.024  20.140   2.871
12147W        W77627  16.294  35.438   1.781
12148W        W77628  18.287  17.792  13.866
12149W        W77629  34.893  37.581   0.816
12150W        W77630  31.006  19.249  11.866
12151W        W77631  15.699  25.159   0.808
12152W        W77632   3.935  29.502  11.462
12153W        W77633   4.397  15.801   3.703
12154W        W77634  24.557  36.511   1.700
12155W        W77635  24.011   5.860  14.414
12156W        W77636  39.314  27.131  12.478
12157W        W77637  28.082  20.250   4.806
12158W        W77638   7.756   1.765  11.026
12159W        W77639  35.000  12.352   3.823
12160W        W77640   4.338  25.190  13.024
12161W        W77641  32.080  24.682   2.376
12162W        W77642   0.355  24.017  14.809
12163W        W77643  28.062  30.934  12.896
12164W        W77644  43.846  38.538  13.999
12165W        W77645  39.441  17.115  11.601
12166W        W77646   0.783  15.792  14.283
12167W        W77647  27.162  35.400   4.239
12168W        W77648  30.494  38.829  12.435
12169W        W77649   6.416  17.215  13.833
12170W        W77650  30.520   1.808   1.246
12171W        W77651  10.330   5.796  13.968
12172W        W77652  28.495   2.785   0.854
12173W        W77653   9.265  42.426  14.950
12174W        W77654  10.281  15.761  13.323
12175W        W77655   8.371  40.043   1.864
12176W        W77656  33.559   7.714   1.416
12177W        W77657  22.124   3.735   0.900
12178W        W77658   3.872   2.966   0.834
12179W        W77659  14.322  31.484  11.936
12180W        W77660  32.479  10.876   4.187
12181W        W77661   9.205  26.605  14.978
12182W        W77662  44.291  36.466   2.362
12183W        W77663  25.651   0.435   5.112
12184W        W77664  31.558  12.118  10.567
12185W        W77665  33.122   1.480   2.685
12186W        W77666  20.032   9.849  11.047
12187W        W77667  31.410   1.408   1.324
12188W        W77668  10.287   6.696  13.877
12189W        W77669  21.732  28.679  14.888
12190W        W77670  12.285  19.576   4.760
12191W        W77671   7.769   1.400   0.322
12192W        W77672  37.928  33.955   3.364
12193W        W77673  41.794   9.796  10.591
12194W        W77674  44.437  41.529  13.013
12195W        W77675   2.315  10.704   2.880
12196W        W77676  14.262  37.456   3.837
12197W        W77677   4.879   8.177   1.439
12198W        W77678  24.662  39.398  10.507
12199W        W77679  23.627   3.801   0.826
12200W        W77680   9.208  38.980   2.710
12201W        W77681  28.639  20.143   3.319
12202W        W77682  16.778   7.205   3.370
12203W        W77683  35.952  11.841   3.166
12204W        W77684  39.441  20.765  12.088
12205W        W77685   3.456   4.343  12.489
12206W        W77686  24.192  39.862  10.101
12207W        W77687  16.256   7.682  14.840
12208W        W77688  31.952  16.580   3.641
12209W        W77689  25.178  11.731  11.030
12210W        W77690  33.966  39.486   5.655
12211W        W77691   9.173  23.142   4.720
12212W        W77692  27.948  34.918   5.320
12213W        W77693  30.122  28.149  14.485
12214W        W77694  29.957  40.837   2.186
12215W        W77695  21.042  28.121   0.911
12216W        W77696   9.203  12.644   1.368
12217W        W77697  30.426   8.703  14.842
12218W        W77698   0.743  42.849   2.289
12219W        W77699  10.290  16.788   5.290
12220W        W77700  36.844  38.364  12.508
12221W        W77701   8.715  30.147   1.833
12222W        W77702  37.469   8.343   1.927
12223W        W77703  24.146  17.229   2.193
12224W        W77704  32.603  14.720  14.900
12225W        W77705  30.572  29.975  11.952
12226W        W77706   4.703  33.954   0.837
12227W        W77707   7.321  32.060  12.989
12228W        W77708  35.569  13.146  14.955
12229W        W77709  22.572   1.438  10.619
12230W        W77710  34.478  22.659  10.594
12231W        W77711  21.616  17.243   2.328
12232W        W77712  33.449  26.031  13.005
12233W        W77713   0.292  18.676  14.337
12234W        W77714  32.464  20.590  11.118
12235W        W77715   4.428   6.296   2.225
12236W        W77716  24.507   8.304   2.834
12237W        W77717   8.170   6.289   0.337
12238W        W77718  23.016   6.276  12.076
12239W        W77719  40.445  25.186  11.059
12240W        W77720  27.492  34.101   3.791
12241W        W77721  24.621  21.612  11.128
12242W        W77722  21.605   8.697  13.979
12243W        W77723  34.380   3.245  12.980
12244W        W77724   1.823  19.550  12.951
12245W        W77725  23.098  24.696   4.247
12246W        W77726  21.602  21.701   1.822
12247W        W77727  10.201   4.314   2.179
12248W        W77728  39.434  23.114   3.846
12249W        W77729  43.882  43.912   0.347
12250W        W77730   2.918  31.585   0.940
12251W        W77731  16.122  32.923   0.744
12252W        W77732   3.370  44.312  11.042
12253W        W77733  12.843  43.975   2.861
12254W        W77734  18.134   5.691   1.267
12255W        W77735  23.108  26.104  13.476
12256W        W77736  11.675  24.220  13.492
12257W        W77737  30.130   9.273  10.473
12258W        W77738  41.330  31.981   4.604
12259W        W77739  29.931  26.618   2.761
12260W        W77740  21.643   3.824  13.807
12261W        W77741  25.983  14.602  13.055
12262W        W77742  29.628  40.821   5.233
12263W        W77743  42.014  25.178  11.044
12264W        W77744  26.040  25.126   2.891
12265W        W77745   4.360  26.977   4.241
12266W        W77746   1.733  25.009   1.426
12267W        W77747  27.108  34.573  11.106
12268W        W77748  41.873  42.511  14.772
12269W        W77749  14.167  24.973   1.763
12270W        W77750  19.212  40.373   3.196
12271W        W77751  43.861  36.054  12.838
12272W        W77752  36.385  27.587  14.970
12273W        W77753  28.953  30.002  14.824
12274W        W77754   3.790  36.560   1.430
12275W        W77755  35.430  18.103   2.792
12276W        W77756  35.513  33.502   0.351
12277W        W77757  38.968  31.607  13.537
12278W        W77758  39.395  15.733   3.366
12279W        W77759  22.609  35.028   3.198
12280W        W77760  17.098  33.514  12.037
12281W        W77761   0.836  35.977   3.790
12282W        W77762   5.281  15.653  12.025
12283W        W77763   3.233   2.882  10.469
12284W        W77764  18.720  25.521   1.245
12285W        W77765  36.384   3.433   4.170
12286W        W77766  28.091  44.463  10.892
12287W        W77767  11.317  30.431  13.942
12288W        W77768  18.603  19.165  10.938
12289W        W77769   2.879  43.824   1.755
12290W        W77770  20.079  23.584   3.297
12291W        W77771  31.111  33.904  13.817
12292W        W77772   7.285  10.240  10.603
12293W        W77773  26.632   6.258  12.933
12294W        W77774  21.568   5.393  14.301
12295W        W77775  38.035  28.948   1.243
12296W        W77776  30.465   0.470  10.566
12297W        W77777   3.252  34.036   4.330
12298W        W77778  13.837   8.706   3.658
12299W        W77779  10.752  21.547   2.226
12300W        W77780  20.654  14.285   4.275
12301W        W77781  12.309   7.304  14.325
12302W        W77782   8.745  29.473   2.890
12303W        W77783  28.593  18.297   0.450
12304W        W77784   7.877   4.287  14.415
12305W        W77785  44.967   8.767  14.919
12306W        W77786   9.782   6.196  10.593
12307W        W77787  11.823  25.193  14.952
12308W        W77788  31.489  10.180  14.983
12309W        W77789  33.552   2.743   0.429
12310W        W77790  37.025   5.827  11.082
12311W        W77791  35.489  10.821  13.887
12312W        W77792  22.121  38.845   0.749
12313W        W77793  16.583   5.386  12.457
12314W        W77794   3.429  23.192   1.843
12315W        W77795  27.064  30.049  14.788
12316W        W77796  23.064   4.899   4.267
12317W        W77797  43.471  24.221  12.082
12318W        W77798  15.778  25.128   2.282
12319W        W77799  44.423  25.589   2.276
12320W        W77800  30.537  43.430  14.487
12321W        W77801  43.492  27.540  11.928
12322W        W77802  37.504  26.579   1.773
12323W        W77803  13.237  27.687   1.792
12324W        W77804  15.773  25.691   1.316
12325W        W77805  35.406   5.913   1.850
12326W        W77806  27.053  25.048   3.865
12327W        W77807  37.842  13.656   2.412
12328W        W77808   7.731  36.567  10.613
12329W        W77809  34.031  34.945   2.209
12330W        W77810   2.282  31.091   2.682
12331W        W77811  16.613  41.033   4.240
12332W        W77812  37.950   1.471  12.354
12333W        W77813  11.153  32.610   0.421
12334W        W77814  27.995   6.348   0.398
12335W        W77815  19.718  11.777   1.223
12336W        W77816  37.902  44.377   1.260
12337W        W77817  25.665   5.297  11.376
12338W        W77818  21.614  40.807   1.844
12339W        W77819  35.001  28.969  11.451
12340W        W77820  29.041  17.677  13.466
12341W        W77821  36.534  41.435   0.303
12342W        W77822   6.324  38.547  14.019
12343W        W77823  35.470   2.275   4.668
12344W        W77824   9.229  31.898   4.711
12345W        W77825  32.066   7.899  13.057
12346W        W77826  13.731  13.174   2.288
12347W        W77827   4.730   7.762   3.198
12348W        W77828   5.323  32.528  12.378
12349W        W77829  17.800  44.341   0.401
12350W        W77830   7.350  42.996  10.945
12351W        W77831  32.054  18.222   4.690
12352W        W77832  40.976  40.826  13.963
12353W        W77833  20.651  38.528  12.957
12354W        W77834  15.784  18.200   1.313
12355W        W77835  25.485  39.481   2.394
12356W        W77836   4.232  37.944   2.890
12357W        W77837  32.100   4.719   3.226
12358W        W77838  44.986  31.060  11.124
12359W        W77839  27.619  20.524  14.767
12360W        W77840   7.780  25.971   1.793
12361W        W77841   8.779  20.136   3.209
12362W        W77842  33.897  31.578  12.447
12363W        W77843   6.419  39.895   1.752
12364W        W77844  40.331  33.052  11.035
12365W        W77845   9.801  35.097  10.441
12366W        W77846  25.493  21.738  11.608
12367W        W77847  38.018  27.684  12.072
12368W        W77848  26.536  38.550  13.894
12369W        W77849  17.769  35.376   0.951
12370W        W77850   7.362  16.627  10.940
12371W        W77851  12.678  36.088  11.108
12372W        W77852   8.655   4.206  13.888
12373W        W77853   1.937  18.287  14.918
12374W        W77854  13.155   6.331  14.977
12375W        W77855   4.266   0.969  13.909
12376W        W77856  30.120  37.861   0.302
12377W        W77857   1.768   6.797  13.403
12378W        W77858  24.488  31.571  11.923
12379W        W77859  41.532  39.444  14.961
12380W        W77860  42.933  28.015  14.514
12381W        W77861  26.058   4.707   4.144
12382W        W77862  19.691  26.546   0.889
12383W        W77863  14.285  11.636   3.646
12384W        W77864  15.264  30.970  12.446
12385W        W77865  22.034  17.306  10.432
12386W        W77866  32.079  35.575   0.778
12387W        W77867  32.090  14.588   1.343
12388W        W77868   8.256  19.096   4.681
12389W        W77869  22.590  37.077   2.860
12390W        W77870  11.725  16.611  11.586
12391W        W77871  28.593  12.684  11.028
12392W        W77872  15.606  44.409   3.732
12393W        W77873  19.039  10.288  11.560
12394W        W77874  32.913   3.319   3.696
12395W        W77875  10.324   5.778   1.769
12396W        W77876   3.343  29.610  12.466
12397W        W77877  23.674  37.502  14.781
12398W        W77878   7.667  42.834   5.220
12399W        W77879  30.130   3.784   2.663
12400W        W77880  25.567  30.485   0.835
12401W        W77881  29.536   9.149   4.719
12402W        W77882  43.496   2.396  12.022
12403W        W77883  28.021  36.947   0.383
12404W        W77884  43.846  19.211  11.001
12405W        W77885  14.670  39.018  10.403
12406W        W77886  22.068  32.530   1.796
12407W        W77887  27.081  22.120   4.792
12408W        W77888   2.372   2.946  13.337
12409W        W77889  33.095  15.301  12.906
12410W        W77890  35.061   9.389  14.774
12411W        W77891   3.741   4.750   0.816
12412W        W77892  28.666  18.225  10.429
12413W        W77893  37.952   0.263   4.723
12414W        W77894   2.379  32.489   0.408
12415W        W77895   7.837  13.663  13.358
12416W        W77896   7.375  17.161  10.467
12417W        W77897  11.660  29.010   3.372
12418W        W77898  11.158  28.081   2.419
12419W        W77899   6.371  13.760  13.909
12420W        W77900  42.353  16.604  10.434
12421W        W77901  17.086  35.460   5.575
12422W        W77902   3.748   5.752  11.058
12423W        W77903  18.191   0.928   3.176
12424W        W77904  18.616  22.653  10.971
12425W        W77905  19.592  35.484  13.373
12426W        W77906  19.757  35.023   1.847
12427W        W77907  42.367  43.951   1.751
12428W        W77908  43.911  19.598   5.318
12429W        W77909  31.919   3.428  13.516
12430W        W77910   4.846   2.824  12.973
12431W        W77911  37.075  42.393   3.236
12432W        W77912  17.646  19.722   2.322
12433W        W77913  43.903  12.224   1.282
12434W        W77914  13.841  35.486  13.918
12435W        W77915   9.382  29.511  12.032
12436W        W77916  25.544  13.288   4.785
12437W        W77917  10.765  42.988   1.864
12438W        W77918  26.204  21.203   4.754
12439W        W77919  18.258  39.059  10.605
12440W        W77920  11.200  22.572  11.463
12441W        W77921  32.419   0.977   4.212
12442W        W77922  16.218  38.358   0.743
12443W        W77923  41.825  20.760  11.431
12444W        W77924  25.069  37.964   1.220
12445W        W77925  19.635  28.181   5.291
12446W        W77926  30.631  28.000   1.450
12447W        W77927   7.197  12.330   4.788
12448W        W77928  39.862   7.834   3.835
12449W        W77929  22.573  12.146   2.897
12450W        W77930  30.632   5.246  10.631
12451W        W77931  36.548  36.009  13.947
12452W        W77932  33.131  38.489   1.897
12453W        W77933  18.203  11.135  14.918
12454W        W77934  28.141  14.729  11.468
12455W        W77935  42.303   8.371  12.512
12456W        W77936  14.264  36.367  11.527
12457W        W77937  17.188  23.173   1.439
12458W        W77938  24.568   6.238   3.245
12459W        W77939  33.596  13.799  14.435
12460W        W77940  12.727  25.011  14.488
12461W        W77941  33.573  36.585  12.014
12462W        W77942   1.909  44.385  13.940
12463W        W77943   5.700  31.980  14.010
12464W        W77944  35.552  21.633  12.369
12465W        W77945   2.866  31.920  10.453
12466W        W77946  32.957   6.266   0.402
12467W        W77947  36.377  23.029  12.544
12468W        W77948  38.936   2.731  11.857
12469W        W77949  26.608  15.732   0.911
12470W        W77950  26.168  12.150  12.519
12471W        W77951  43.387   2.355  12.428
12472W        W77952   7.346  14.619  11.078
12473W        W77953  44.952   7.272   3.229
12474W        W77954  23.618  27.618   0.398
12475W        W77955  26.612  36.845  13.442
12476W        W77956  10.190  21.101   1.226
12477W        W77957   1.947   6.700   0.868
12478W        W77958   5.320  37.993  13.003
12479W        W77959  25.619  14.252  11.886
12480W        W77960   3.940  16.649   3.708
12481W        W77961  31.957  31.029  11.433
12482W        W77962   3.807  37.083  13.985
12483W        W77963  12.676  14.742   1.746
12484W        W77964  30.087  10.664   1.232
12485W        W77965  16.294  42.434   2.849
12486W        W77966   8.314  18.279  10.986
12487W        W77967  30.911  43.879   0.736
12488W        W77968  32.021   0.334  13.062
12489W        W77969  12.776  28.044  14.936
12490W        W77970  10.754   7.329  10.524
12491W        W77971  15.083   6.858   0.848
12492W        W77972  20.734  16.264   2.309
12493W        W77973  31.509  12.359   2.242
12494W        W77974  36.534  13.766   4.318
12495W        W77975  26.182  41.426  14.355
12496W        W77976  43.844  43.410  10.479
12497W        W77977  24.059   5.778   4.654
12498W        W77978  25.694  21.172  13.479
12499W        W77979  42.353  27.509  13.030
12500W        W77980  13.670  41.980  14.318
12501W        W77981  30.994   2.258  10.975
12502W        W77982  33.124  16.808  12.840
12503W        W77983  42.508  22.031   3.634
12504W        W77984   8.161  13.335  13.045
12505W        W77985  14.635  11.135  11.933
12506W        W77986  23.053  25.650  14.875
12507W        W77987  25.522   6.794  13.947
12508W        W77988   6.284  11.690   0.351
12509W        W77989   4.870  43.346   4.785
12510W        W77990  16.650   8.184  11.428
12511W        W77991  20.214  17.123   0.450
12512W        W77992  31.002   5.371   1.402
12513W        W77993  16.180  17.111   0.729
12514W        W77994  38.433   0.371  11.859
12515W        W77995  42.368  27.015   2.807
12516W        W77996   4.772  15.131   0.278
12517W        W77997   4.855  18.661  11.011
12518W        W77998   6.732  43.278  13.005
12519W        W77999  40.445   3.225  14.921
12520W        W78000  27.670   1.957  12.373
12521W        W78001  21.693  32.999   1.317
12522W        W78002   4.381  39.057   1.311
12523W        W78003  29.638  39.415  14.801
12524W        W78004  14.159  31.568  14.353
12525W        W78005  40.804  44.364  14.945
12526W        W78006  32.635  21.719  11.940
12527W        W78007  33.948  40.480  11.418
12528W        W78008   5.371  44.336   2.783
12529W        W78009   2.849  29.168  13.944
12530W        W78010  11.310   2.353   4.185
12531W        W78011  30.648   0.981  11.449
12532W        W78012  36.485  44.798  11.517
12533W        W78013   8.169  37.939   4.285
12534W        W78014  43.989  38.534  12.417
12535W        W78015  31.601  37.449   1.844
12536W        W78016  32.944  43.480   4.722
12537W        W78017   3.863  37.414  10.007
12538W        W78018  19.539  11.667  11.861
12539W        W78019   4.940  15.309   4.745
12540W        W78020  19.628  19.083   3.164
12541W        W78021  44.359  22.572   0.799
12542W        W78022  37.840  39.358   3.316
12543W        W78023  26.460  11.675  12.993
12544W        W78024  23.166  12.690   0.285
12545W        W78025  41.933  10.322   0.863
12546W        W78026  26.198   2.370   4.761
12547W        W78027  44.267  15.669   1.749
12548W        W78028  22.591  29.426   2.367
12549W        W78029  14.620  27.531   1.271
12550W        W78030  42.008  11.326   1.411
12551W        W78031  14.199  16.728  11.096
12552W        W78032  43.881   1.753   4.607
12553W        W78033  14.210   1.903   2.369
12554W        W78034   6.315  34.019   4.798
12555W        W78035  35.594  34.526  10.464
12556W        W78036  36.907  28.666  14.871
12557W        W78037  28.621   7.879  11.396
12558W        W78038  13.668  34.466  13.810
12559W        W78039  36.949  34.459  13.860
12560W        W78040  12.820  10.355  14.497
12561W        W78041   7.325  40.988   2.359
12562W        W78042  36.413  15.097  11.905
12563W        W78043   3.299  13.632   4.623
12564W        W78044  13.289  37.348   0.434
12565W        W78045   2.271  12.169  14.862
12566W        W78046  26.048  23.222  14.894
12567W        W78047  20.664   2.331   1.796
12568W        W78048  16.585  21.196  12.430
12569W        W78049  34.074  34.520  11.129
12570W        W78050   2.271  25.163   3.197
12571W        W78051  35.103  22.095   2.372
12572W        W78052   6.189  33.934  14.811
12573W        W78053  33.061  35.426  14.280
12574W        W78054  37.910  25.473  13.506
12575W        W78055  10.146  20.664   3.316
12576W        W78056   3.297  16.154  12.889
12577W        W78057  16.235  11.143   1.819
12578W        W78058   3.744  27.162   0.448
12579W        W78059  20.105  26.204   4.206
12580W        W78060  28.117  28.086   9.976
12581W        W78061  14.625   5.354  13.062
12582W        W78062  27.678   7.175  11.109
12583W        W78063  17.108  36.361   0.343
12584W        W78064  19.182  42.406  11.881
12585W        W78065  39.914   3.795  11.603
12586W        W78066  36.040  33.583   0.822
12587W        W78067  41.383  29.430  10.532
12588W        W78068  26.637  14.229  10.093
12589W        W78069  39.411  44.335  14.876
12590W        W78070  24.564   4.847  14.896
12591W        W78071  26.192  21.215  12.831
12592W        W78072  10.181   5.212   3.250
12593W        W78073   2.806  10.803   0.372
12594W        W78074  28.566   2.289   3.787
12595W        W78075  23.520   0.371  14.988
12596W        W78076  27.078  39.964  14.990
12597W        W78077   1.436  31.595  12.474
12598W        W78078  25.495   8.283  14.795
12599W        W78079  43.386  41.292   2.232
12600W        W78080  33.562  30.535   3.334
12601W        W78081   7.848  40.045   0.318
12602W        W78082   8.710   6.849   4.240
12603W        W78083  11.734  28.111   9.997
12604W        W78084   0.942  14.274   2.825
12605W        W78085  30.607  22.159  14.334
12606W        W78086  24.632   8.847  12.455
12607W        W78087  21.093  25.004  11.129
12608W        W78088  43.288   9.790   0.842
12609W        W78089  27.078  33.008   1.335
12610W        W78090  32.523  33.513  13.427
12611W        W78091   8.741  38.994  12.444
12612W        W78092  22.530  42.002  14.310
12613W        W78093  38.360  28.930  14.792
12614W        W78094  18.637   5.819   3.281
12615W        W78095   0.776  20.665  13.383
12616W        W78096   3.273  35.003   1.310
12617W        W78097  29.508  29.964  12.520
12618W        W78098  33.391   1.839  12.429
12619W        W78099  43.485  40.371   3.317
12620W        W78100  13.752  38.879  10.593
12621W        W78101  12.782  40.901   1.715
12622W        W78102  31.524  25.147   2.353
12623W        W78103  28.480  26.608   4.771
12624W        W78104   9.365  43.844   3.723
12625W        W78105   5.911  18.750   3.854
12626W        W78106   0.346  20.687  11.460
12627W        W78107  17.622  21.108  12.526
12628W        W78108   9.289  20.567   3.375
12629W        W78109  18.207  17.299   0.428
12630W        W78110  19.226   8.737   4.274
12631W        W78111  32.589  37.065   2.722
12632W        W78112  13.790  12.324  10.445
12633W        W78113  14.660   9.152   3.806
12634W        W78114   5.761   8.774   3.726
12635W        W78115  10.739  42.001   3.661
12636W        W78116  24.096  26.097   1.269
12637W        W78117  23.499  12.170  11.473
12638W        W78118  40.019  29.009   1.327
12639W        W78119   5.278   1.388  11.032
12640W        W78120   7.816  13.713   2.681
12641W        W78121   7.359  38.483   2.298
12642W        W78122   9.750  23.615   3.226
12643W        W78123  17.251   1.475  12.028
12644W        W78124  21.068  27.182   3.184
12645W        W78125   2.400  28.936  13.377
12646W        W78126   3.423  38.047  11.413
12647W        W78127  33.594  28.596  14.787
12648W        W78128   9.220  28.673   3.164
12649W        W78129  21.175  16.731  11.982
12650W        W78130  30.993   3.307   3.205
12651W        W78131   9.346  27.542  12.575
12652W        W78132  25.191  10.677   3.850
12653W        W78133  19.105  35.083   0.309
12654W        W78134  33.394  28.529   3.299
12655W        W78135  15.666  14.143  14.287
12656W        W78136  44.935  17.723  12.904
12657W        W78137  44.989  16.778   3.318
12658W        W78138  25.116  18.745  10.895
12659W        W78139  40.863  12.649  11.098
12660W        W78140  39.351  26.048   3.858
12661W        W78141  34.543   2.446  14.955
12662W        W78142  26.596  25.705   0.466
12663W        W78143  32.460  44.430  10.598
12664W        W78144  39.932   0.290  10.992
12665W        W78145  26.192  20.561   1.244
12666W        W78146  31.577  24.199   3.779
12667W        W78147  23.239  26.195   3.816
12668W        W78148   7.354  40.477  10.556
12669W        W78149  40.387  23.061   3.233
12670W        W78150  11.326  11.138   4.805
12671W        W78151  32.496  38.419  13.360
12672W        W78152  23.124  18.085   3.166
12673W        W78153  38.559   9.268  10.444
12674W        W78154   0.898  10.678   3.818
12675W        W78155   9.395  21.141  11.380
12676W        W78156  35.527  18.197  10.583
12677W        W78157   5.335   0.827   1.933
12678W        W78158  28.167  14.622   4.262
12679W        W78159   9.288  15.768  13.847
12680W        W78160  42.002  37.461  12.052
12681W        W78161  16.795  34.059   3.843
12682W        W78162  38.456  44.802   3.691
12683W        W78163  10.764  24.575   1.920
12684W        W78164  28.136  26.528  14.278
12685W        W78165  17.775  15.813  11.391
12686W        W78166   5.333  26.582   2.802
12687W        W78167  30.914  18.619  10.951
12688W        W78168  26.029  10.303   2.687
12689W        W78169  40.870  25.186   3.296
12690W        W78170  44.313  19.594  12.980
12691W        W78171  10.234  12.315   3.708
12692W        W78172  39.508  44.467  10.445
12693W        W78173   4.406  15.244  14.935
12694W        W78174  27.121  37.517   9.979
12695W        W78175  10.376  27.960  14.439
12696W        W78176  41.514  23.215   3.362
12697W        W78177   2.423  26.969   1.888
12698W        W78178   0.968  16.139   0.889
12699W        W78179   1.976  30.552   1.262
12700W        W78180  30.063  24.037   1.448
12701W        W78181  18.274  13.814  11.094
12702W        W78182  25.568  26.636  13.872
12703W        W78183  34.524  17.277   0.885
12704W        W78184  16.657  11.271  12.865
12705W        W78185  15.275   2.949  12.557
12706W        W78186  15.251  33.512   4.621
12707W        W78187  43.826  15.088  11.396
12708W        W78188   6.388  16.666  13.326
12709W        W78189  14.323  17.266  13.965
12710W        W78190  44.788  32.957   2.407
12711W        W78191  41.301  22.143  11.413
12712W        W78192  11.271   7.273  12.948
12713W        W78193  23.010  39.510   1.797
12714W        W78194  23.586   4.747   1.836
12715W        W78195   3.311  36.481  10.584
12716W        W78196  42.990   4.706  11.048
12717W        W78197  11.725  38.886   0.864
12718W        W78198  37.078  33.614  14.822
12719W        W78199  17.228  31.575  12.095
12720W        W78200  34.961  43.974   4.147
12721W        W78201   1.962  17.250  10.602
12722W        W78202  40.963  28.572  14.803
12723W        W78203   2.742  12.263  12.463
12724W        W78204  42.328  32.552  10.987
12725W        W78205   1.361   9.790   4.200
12726W        W78206  20.674  38.431   1.375
12727W        W78207   3.338  16.581  13.918
12728W        W78208  20.535  24.065   1.820
12729W        W78209  19.098  13.184  12.440
12730W        W78210  39.516  38.060  12.359
12731W        W78211  30.541   1.439   0.907
12732W        W78212  40.855  21.150  12.439
12733W        W78213  33.094   1.355  12.449
12734W        W78214  13.116  34.904   4.307
12735W        W78215  22.708  21.672  10.534
12736W        W78216  20.532  28.447  11.965
12737W        W78217  22.714   3.794   0.301
12738W        W78218  10.185  21.239  12.933
12739W        W78219   8.892  21.061  14.903
12740W        W78220  41.370   1.756   2.842
12741W        W78221  15.119   1.370   1.246
12742W        W78222  28.142  41.828   0.411
12743W        W78223  21.252  42.455  14.465
12744W        W78224  15.327  33.012   2.201
12745W        W78225  42.972  31.498  11.472
12746W        W78226  22.618   2.453  12.061
12747W        W78227  42.439  28.651   3.283
12748W        W78228  14.149  33.888   4.274
12749W        W78229   8.393   8.674   3.313
12750W        W78230   1.346  13.599  13.470
12751W        W78231  29.440   3.314   3.252
12752W        W78232  42.413  26.108   2.308
12753W        W78233  26.534  44.896  11.397
12754W        W78234  27.086  17.198  11.521
12755W        W78235  14.834   8.755  13.539
12756W        W78236   5.770  23.539  13.818
12757W        W78237  22.194  38.325  14.844
12758W        W78238  17.734  19.706   2.838
12759W        W78239   2.328  28.151  13.929
12760W        W78240  34.971  43.813   4.665
12761W        W78241  37.981   5.381  12.515
12762W        W78242  27.024  37.368  14.819
12763W        W78243  32.409  10.860  12.991
12764W        W78244  27.950   2.326   0.945
12765W        W78245  26.063  27.529  13.952
12766W        W78246  37.971  19.047  12.058
12767W        W78247  34.607  23.622  13.986
12768W        W78248  12.640  10.706   4.136
12769W        W78249  36.976  28.025   0.850
12770W        W78250  40.980  10.682   4.263
12771W        W78251  42.499  28.044   3.339
12772W        W78252  11.324  19.760   0.278
12773W        W78253  19.696   6.762  14.759
12774W        W78254  18.281  18.223  12.919
12775W        W78255  34.943  33.469  12.532
12776W        W78256  38.425  19.775   3.846
12777W        W78257  18.788  30.428  13.820
12778W        W78258  29.481  10.333  12.868
12779W        W78259  35.064  13.659   2.708
12780W        W78260   9.392   4.803  10.475
12781W        W78261   1.381  35.858   0.889
12782W        W78262  10.322   5.370   0.297
12783W        W78263  17.283  34.114  13.038
12784W        W78264  38.891  10.211  14.878
12785W        W78265  33.090  26.552  10.947
12786W        W78266  11.744  28.586   2.343
12787W        W78267  29.101   1.930  11.513
12788W        W78268  36.373  17.160  13.544
12789W        W78269  29.486  25.591  13.036
12790W        W78270  30.099  27.162   0.832
12791W        W78271   2.902  12.118   2.700
12792W        W78272  15.133  41.948  12.378
12793W        W78273  25.659  13.684  11.979
12794W        W78274   4.757  11.678   5.235
12795W        W78275  29.499  27.141   3.723
12796W        W78276   6.728  16.679   1.313
12797W        W78277   7.858  28.975   0.965
12798W        W78278  31.610   5.226   4.317
12799W        W78279   0.836   6.760  12.480
12800W        W78280  41.824   7.331   0.315
12801W        W78281   7.250  21.071  13.477
12802W        W78282  42.480   4.710   3.360
12803W        W78283   0.397   6.307   4.614
12804W        W78284  37.987  43.011  14.310
12805W        W78285  37.454   8.202  12.473
12806W        W78286  27.987  23.169  14.515
12807W        W78287  31.416  41.830  14.491
12808W        W78288  38.839  26.512   1.254
12809W        W78289  27.065  43.480   0.283
12810W        W78290  23.664  41.795  13.848
12811W        W78291   2.445  26.671  12.055
12812W        W78292  38.013  29.052  10.468
12813W        W78293  28.537  11.309   4.186
12814W        W78294  18.276  13.330   3.215
12815W        W78295  18.642  23.997  13.451
12816W        W78296  31.943   6.758   3.649
12817W        W78297  31.007  18.215   2.813
12818W        W78298   2.898  31.137   2.195
12819W        W78299   1.772  32.139  10.930
12820W        W78300  12.336  15.163  13.308
12821W        W78301   1.423   0.917   3.240
12822W        W78302  23.085  36.368   2.703
12823W        W78303   5.249   2.310  14.909
12824W        W78304  33.626  38.555   4.237
12825W        W78305  28.561  17.247  11.491
12826W        W78306  16.309   7.274   2.834
12827W        W78307  31.560  13.344  10.409
12828W        W78308  22.090  32.586   0.856
12829W        W78309  24.074  40.492   3.384
12830W        W78310  26.548  23.188  10.967
12831W        W78311  31.576  32.461  13.959
12832W        W78312   3.828  23.102  10.431
12833W        W78313  31.063   0.936   3.215
12834W        W78314  30.129  40.377  13.538
12835W        W78315  21.675   2.359  12.538
12836W        W78316   8.776  25.090   1.840
12837W        W78317  40.802  30.115  10.924
12838W        W78318  39.469  37.028  13.479
12839W        W78319  22.128  36.588  13.440
12840W        W78320  14.816   4.430  11.378
12841W        W78321  16.748  16.591  10.445
12842W        W78322  33.515   5.933   0.876
12843W        W78323  35.400  10.731  11.012
12844W        W78324  37.954  36.036  13.973
12845W        W78325  22.583  32.544  14.514
12846W        W78326  27.148  10.685  12.455
12847W        W78327  25.566   2.404   1.902
12848W        W78328  40.012  29.164  14.341
12849W        W78329  29.124  43.887   1.884
12850W        W78330  40.033  19.131  11.542
12851W        W78331  29.559   9.813   0.342
12852W        W78332  44.261  39.957   3.635
12853W        W78333  27.672  19.738   4.185
12854W        W78334  16.733  27.174  13.501
12855W        W78335  16.611  38.381   0.833
12856W        W78336  17.696  29.635   1.730
12857W        W78337  43.398  20.553   3.737
12858W        W78338  24.222  11.163  13.377
12859W        W78339  11.830   6.759   4.836
12860W        W78340   4.739  15.166  11.963
12861W        W78341  21.558  41.788  12.941
12862W        W78342  40.943  22.568   4.817
12863W        W78343  34.440   2.907   3.323
12864W        W78344  21.199  20.671   0.814
12865W        W78345  21.032   0.828  11.478
12866W        W78346  35.469  28.031  13.845
12867W        W78347  43.932  28.948   3.812
12868W        W78348  17.096  17.689  10.938
12869W        W78349  22.201  37.378   0.868
12870W        W78350  11.287   4.336  14.988
12871W        W78351  32.084   5.414   2.261
12872W        W78352  42.500  21.595   3.698
12873W        W78353   8.213  20.098  14.022
12874W        W78354  26.993  23.581   4.649
12875W        W78355  11.701  16.231  12.994
12876W        W78356  20.589  36.940  14.982
12877W        W78357   3.956  34.008  13.942
12878W        W78358  27.541  24.996   0.389
12879W        W78359  31.948   7.706   2.715
12880W        W78360   2.229  17.120   0.483
12881W        W78361  28.155   4.880   1.873
12882W        W78362  31.137  23.623   4.286
12883W        W78363  43.330  25.190   1.727
12884W        W78364  20.126  24.217   2.209
12885W        W78365   3.943  39.052   1.785
12886W        W78366  12.854  22.057   4.791
12887W        W78367  29.533   1.760   5.174
12888W        W78368  19.626  27.191   1.303
12889W        W78369   4.388   8.839  14.992
12890W        W78370   1.732  18.189  13.524
12891W        W78371   1.861  38.001   3.856
12892W        W78372  10.731  39.477   3.693
12893W        W78373  30.038  23.123   1.803
12894W        W78374  39.836  14.267   2.362
12895W        W78375  17.098   4.938  13.890
12896W        W78376  34.608  31.439  13.416
12897W        W78377  20.245  28.653   2.726
12898W        W78378  25.476  41.018  11.928
12899W        W78379  18.055  24.678  14.350
12900W        W78380  26.480  42.969  10.949
12901W        W78381  43.283  31.967  13.970
12902W        W78382  15.103  25.120   3.850
12903W        W78383  41.371   3.766  12.896
12904W        W78384  32.027  27.081   1.320
12905W        W78385  17.774  28.491   3.178
12906W        W78386  10.637  19.561  13.047
12907W        W78387  22.597  31.918  11.591
12908W        W78388  40.996   3.289   3.710
12909W        W78389  11.237   5.375   4.626
12910W        W78390  14.260  31.013   3.192
12911W        W78391  43.807  16.117  12.465
12912W        W78392  30.554  31.931  10.047
12913W        W78393  36.490  36.981  13.363
12914W        W78394   9.390  26.146  11.461
12915W        W78395  38.835   7.192  11.079
12916W        W78396  22.251   6.212  14.833
12917W        W78397  12.645  42.998  14.997
12918W        W78398  32.454  25.668  11.956
12919W        W78399  30.907  22.045  12.856
12920W        W78400  17.661  40.427   1.722
12921W        W78401  25.512   8.241   2.702
12922W        W78402   6.787  40.954  12.857
12923W        W78403   4.829  41.930  11.393
12924W        W78404  12.661  31.899  10.515
12925W        W78405  23.082  27.032  13.519
12926W        W78406  28.090  11.332  13.981
12927W        W78407  18.181  41.006  14.507
12928W        W78408  39.854   4.796   1.785
12929W        W78409  36.882   6.378  13.885
12930W        W78410   9.672  29.492  14.322
12931W        W78411  11.151   5.787   1.746
12932W        W78412   5.849  20.212   0.462
12933W        W78413  28.176  37.561   2.674
12934W        W78414  21.655  24.184   3.199
12935W        W78415  36.944  24.611  10.474
12936W        W78416  11.310  15.121   1.875
12937W        W78417  21.718  44.390   2.846
12938W        W78418  16.648  37.830  11.868
12939W        W78419  19.159  19.664   3.366
12940W        W78420  10.156  20.585   1.745
12941W        W78421  16.118   3.223  11.580
12942W        W78422  44.371   8.870  13.921
12943W        W78423   1.802  28.113   1.721
12944W        W78424   5.342   3.276   0.774
12945W        W78425  34.110   1.973  11.612
12946W        W78426  22.186   0.841   2.380
12947W        W78427   2.458  16.584   0.404
12948W        W78428  32.051  39.364   4.252
12949W        W78429  37.566   9.651  14.817
12950W        W78430   4.415  31.052  10.414
12951W        W78431   1.814  30.073   1.795
12952W        W78432  19.719  30.924   4.278
12953W        W78433  22.167  36.366  12.025
12954W        W78434  21.074  16.575  10.950
12955W        W78435  13.270   5.798  12.064
12956W        W78436   2.231   8.306   4.819
12957W        W78437  14.263  29.506   2.360
12958W        W78438  24.509  36.072  10.514
12959W        W78439  28.039  10.848  11.377
12960W        W78440  21.582  39.558   4.792
12961W        W78441  31.519  29.488   1.281
12962W        W78442  13.133  35.077   4.647
12963W        W78443  23.095  42.941  12.431
12964W        W78444  24.030  20.758  13.967
12965W        W78445  14.771  24.588   0.410
12966W        W78446  29.146  24.087   2.867
12967W        W78447   2.235  28.609  12.409
12968W        W78448  43.366  27.453   2.418
12969W        W78449  36.894  16.219  14.893
12970W        W78450  21.046  13.636   2.418
12971W        W78451  30.047  19.674   0.898
12972W        W78452  32.527   3.877   4.248
12973W        W78453  18.125  35.934   3.333
12974W        W78454  24.487  34.412   0.311
12975W        W78455  33.396  23.728   1.440
12976W        W78456  42.875  40.000   2.228
12977W        W78457  40.955   2.244   2.846
12978W        W78458  34.927  11.856  11.414
12979W        W78459  23.663   0.368   1.380
12980W        W78460   2.828  23.026   4.759
12981W        W78461  29.042  28.530  11.899
12982W        W78462  13.632  37.060   0.338
12983W        W78463  27.545  18.661   2.208
12984W        W78464  12.167  11.629   1.860
12985W        W78465  27.132   3.767   2.382
12986W        W78466  18.695  32.049  11.535
12987W        W78467  12.642  36.591   0.735
12988W        W78468  24.984   5.803  14.011
12989W        W78469  21.710  35.954  10.524
12990W        W78470  31.455  32.525   2.715
12991W        W78471   5.265  13.719   0.276
12992W        W78472   4.714  43.784  12.939
12993W        W78473  30.557  11.742   4.193
12994W        W78474  41.026  20.201   0.260
12995W        W78475  11.214  40.418   0.396
12996W        W78476  42.483  44.761   2.326
12997W        W78477   4.897  16.716  14.792
12998W        W78478  39.908  44.407   4.639
12999W        W78479  33.046  17.743  10.430
13000W        W78480  27.122  34.416   2.403
13001W        W78481  39.350  10.655   2.312
13002W        W78482  43.338   9.316  13.482
13003W        W78483  35.507  12.248  14.423
13004W        W78484   1.928  38.973   3.270
13005W        W78485   7.839   1.442   3.290
13006W        W78486   9.151  17.066   0.377
13007W        W78487  21.115   0.911   1.743
13008W        W78488  44.920  42.320  11.905
13009W        W78489  15.101  13.113   3.823
13010W        W78490  13.290  19.693   2.779
13011W        W78491   7.672  29.081   5.285
13012W        W78492  22.058  21.726  14.489
13013W        W78493  32.988   6.406  11.051
13014W        W78494  41.388   0.897   1.412
13015W        W78495   0.415  21.121  11.375
13016W        W78496  17.688  41.881  14.882
13017W        W78497  18.189  38.477  11.980
13018W        W78498   3.273  28.026   0.759
13019W        W78499  43.294   0.781   0.435
13020W        W78500  10.659  34.923   0.419
13021W        W78501  30.926  28.467  11.537
13022W        W78502  30.472  27.672   2.358
13023W        W78503  39.475  37.992  11.958
13024W        W78504  34.480  30.645  11.393
13025W        W78505  10.201  41.510   3.815
13026W        W78506  18.293  39.930  12.842
13027W        W78507  38.003  37.905  13.480
13028W        W78508   7.771  10.247  10.027
13029W        W78509  37.019  30.590  14.308
13030W        W78510  38.338  16.192  14.429
13031W        W78511  28.000  22.728  13.949
13032W        W78512  41.806   4.710   1.225
13033W        W78513   1.839  26.205  12.016
13034W        W78514  26.184  15.318  10.576
13035W        W78515  19.099   1.865  14.836
13036W        W78516  43.386  37.985   0.290
13037W        W78517  23.529  15.250  13.946
13038W        W78518  26.493  29.173  14.831
13039W        W78519  35.046  34.411   2.400
13040W        W78520   1.733   7.740   2.845
13041W        W78521  28.043  12.264   2.769
13042W        W78522  24.197  42.282   4.708
13043W        W78523  32.967  11.678   3.260
13044W        W78524  23.127  26.554   3.261
13045W        W78525  17.782  30.988  13.832
13046W        W78526  14.131  44.801  12.871
13047W        W78527  32.913  42.517   1.310
13048W        W78528  28.096  10.753  13.015
13049W        W78529   0.826  28.942   4.802
13050W        W78530   6.905  27.961   3.212
13051W        W78531   5.816  14.743   1.921
13052W        W78532  28.438  22.231  13.849
13053W        W78533  30.594   8.180  12.038
13054W        W78534   4.806  39.549  13.934
13055W        W78535   0.803  19.153  13.949
13056W        W78536  19.087  15.174  12.574
13057W        W78537  14.113  24.650   3.312
13058W        W78538  16.104  35.409  12.020
13059W        W78539  42.880  29.119   4.631
13060W        W78540   8.397  11.315  13.465
13061W        W78541  32.987   8.852   3.241
13062W        W78542  27.468  21.581  13.477
13063W        W78543  10.141  22.631   2.265
13064W        W78544  43.285  37.859   3.334
13065W        W78545  36.982   0.295  12.386
13066W        W78546  25.992  18.640   3.847
13067W        W78547  27.490  26.046   4.816
13068W        W78548  36.494  16.614   3.703
13069W        W78549  39.933  29.129   0.868
13070W        W78550   1.823   2.249   3.193
13071W        W78551  12.804  17.227  12.037
13072W        W78552   0.458  10.763  13.857
13073W        W78553  26.087  18.140   3.304
13074W        W78554  10.714  39.550   4.605
13075W        W78555  40.418  32.437   3.222
13076W        W78556  20.735   5.220   0.413
13077W        W78557  33.388  29.632  12.511
13078W        W78558  20.118  26.174   3.635
13079W        W78559  11.182  33.875   0.254
13080W        W78560  38.037  26.635   0.822
13081W        W78561   8.718  44.907   4.641
13082W        W78562   0.898  39.537   1.751
13083W        W78563  33.919  26.560   3.224
13084W        W78564  28.512  20.233   1.857
13085W        W78565  44.769  29.441   1.269
13086W        W78566  44.867  21.126  13.808
13087W        W78567  13.223  34.892  13.020
13088W        W78568   4.256  16.090   1.257
13089W        W78569  19.655  35.444   1.415
13090W        W78570  35.920  30.084   0.800
13091W        W78571  31.634   0.275  12.826
13092W        W78572   9.783  16.601  14.992
13093W        W78573  32.111  26.592   1.327
13094W        W78574  28.142   0.473   1.871
13095W        W78575  33.904  25.147   4.679
13096W        W78576  13.275   0.404  11.539
13097W        W78577  34.987   6.420  11.487
13098W        W78578   8.388   4.275   0.875
13099W        W78579   4.320  26.495   2.391
13100W        W78580  25.566  36.401   3.219
13101W        W78581  13.602  29.169  14.412
13102W        W78582  42.858  25.009   4.730
13103W        W78583  24.544  12.327  14.950
13104W        W78584  19.566  21.659  14.507
13105W        W78585   9.281  40.898   4.696
13106W        W78586  44.363  27.486   0.429
13107W        W78587  10.375  18.291   0.793
13108W        W78588  16.742   3.895   0.322
13109W        W78589   2.720  31.420  11.032
13110W        W78590  43.949  25.003  11.552
13111W        W78591   6.878  34.526  13.944
13112W        W78592  38.571  24.036  12.986
13113W        W78593   4.327  34.044   3.759
13114W        W78594   4.262  10.847  12.988
13115W        W78595  13.635  41.035   5.146
13116W        W78596  31.469  18.156  14.007
13117W        W78597  39.440  30.139   2.834
13118W        W78598   4.336  39.491   1.815
13119W        W78599  28.128  16.103  10.478
13120W        W78600  23.536  16.281  10.442
13121W        W78601  38.876  32.490  14.030
13122W        W78602  32.138  37.948  11.607
13123W        W78603  24.561   1.760   0.406
13124W        W78604  19.135  20.234  13.536
13125W        W78605  24.021  12.820  10.900
13126W        W78606  39.336   4.895   2.234
13127W        W78607   2.887  42.858  12.454
13128W        W78608  29.442  18.704   0.459
13129W        W78609   5.804  39.354  12.540
13130W        W78610  41.484  32.491  13.831
13131W        W78611  34.893  39.315   0.375
13132W        W78612  11.825   5.381  13.906
13133W        W78613   4.733  37.049   0.846
13134W        W78614  15.754  17.791  13.333
13135W        W78615  34.114   1.405  11.607
13136W        W78616   0.305  13.158   2.777
13137W        W78617  15.317   0.428   0.882
13138W        W78618  43.013  20.234  10.482
13139W        W78619  19.133  42.424   0.766
13140W        W78620  19.758  25.536   5.675
13141W        W78621  30.009   0.277  13.857
13142W        W78622  14.723  36.911  11.869
13143W        W78623  17.208  11.683   0.319
13144W        W78624  20.243  40.315  10.486
13145W        W78625  28.175  14.709   4.714
13146W        W78626  34.569   5.877   1.436
13147W        W78627  34.105  22.019  12.046
13148W        W78628  10.141  30.948  13.423
13149W        W78629  39.524  26.483   3.195
13150W        W78630  23.183   2.416  12.941
13151W        W78631  25.477  13.744  10.510
13152W        W78632  28.527   4.701   3.802
13153W        W78633  16.695  25.126  14.850
13154W        W78634  32.616  15.644   1.723
13155W        W78635   4.339  22.146  10.603
13156W        W78636   1.254  13.303  14.987
13157W        W78637  44.500  23.074   1.716
13158W        W78638  44.905  38.549   3.254
13159W        W78639  14.737  38.959   2.837
13160W        W78640  25.667  30.919  14.786
13161W        W78641  32.607  28.573  12.063
13162W        W78642   2.872  23.493  13.984
13163W        W78643  31.013   1.908   1.831
13164W        W78644  29.073   5.779  11.908
13165W        W78645  11.325  24.503  11.093
13166W        W78646  44.956   5.196  12.445
13167W        W78647  33.004  32.423   0.813
13168W        W78648  26.038  30.134   3.803
13169W        W78649  18.625  23.112  12.348
13170W        W78650  21.695  25.526   0.441
13171W        W78651  41.900  40.467  14.027
13172W        W78652  15.094  44.943   3.172
13173W        W78653  16.625  29.442   3.721
13174W        W78654   5.415  16.740  14.790
13175W        W78655  21.186  17.136  13.044
13176W        W78656  23.542  38.998  12.418
13177W        W78657  12.675   7.754   2.404
13178W        W78658  27.980  18.714   0.800
13179W        W78659  19.658   3.936  13.548
13180W        W78660  20.626   8.367   1.702
13181W        W78661   3.450  33.891   4.640
13182W        W78662  20.673  36.991   0.255
13183W        W78663  20.709  36.939  11.941
13184W        W78664  12.674   4.908   2.392
13185W        W78665   3.882  13.838  13.882
13186W        W78666  32.538  21.098   2.411
13187W        W78667   2.289  14.705  10.969
13188W        W78668  42.465  22.138  12.880
13189W        W78669  31.937  15.621  10.456
13190W        W78670  11.788  39.816   4.177
13191W        W78671  14.810  26.127  11.075
13192W        W78672  32.939  36.033  13.450
13193W        W78673  40.879  44.774   4.739
13194W        W78674  34.096   6.770   2.663
13195W        W78675  13.664  18.169  13.466
13196W        W78676   8.219  20.181  11.461
13197W        W78677  26.167   8.264   0.734
13198W        W78678  44.820  24.627   1.314
13199W        W78679  41.786  21.527   1.714
13200W        W78680  13.221  23.580   3.730
13201W        W78681  20.552  29.500   2.247
13202W        W78682   3.294  29.174   4.302
13203W        W78683  28.167  21.103   0.760
13204W        W78684   1.294  14.749  14.421
13205W        W78685  44.432  19.245   2.361
13206W        W78686   6.891  21.099   0.738
13207W        W78687  11.658  34.037   0.337
13208W        W78688   5.346   2.853   3.247
13209W        W78689  40.028  27.534   1.215
13210W        W78690  31.605  18.135   3.297
13211W        W78691  34.083   2.737  11.905
13212W        W78692  17.675  15.692   2.830
13213W        W78693   6.205  43.823   4.195
13214W        W78694   1.433   1.446   3.775
13215W        W78695  28.956   3.909   3.824
13216W        W78696  38.980  24.058  11.931
13217W        W78697  42.417  41.914  11.528
13218W        W78698  37.862  39.052   4.677
13219W        W78699   0.898  21.709   1.723
13220W        W78700  24.059   3.824   0.887
13221W        W78701  28.966  41.494   2.843
13222W        W78702  33.417  35.005  13.312
13223W        W78703  35.462  32.943  11.420
13224W        W78704  16.120  37.430   4.776
13225W        W78705  37.374  31.639   3.252
13226W        W78706  32.637  21.227   3.837
13227W        W78707   8.781  25.489   1.396
13228W        W78708  23.091  22.083  13.376
13229W        W78709  13.338  39.906   2.349
13230W        W78710   9.724  28.637   2.360
13231W        W78711   0.478  26.476  10.088
13232W        W78712  18.143  28.144   1.341
13233W        W78713  34.518  43.415   0.360
13234W        W78714  10.334  34.435   2.791
13235W        W78715   1.924  32.527  13.477
13236W        W78716  38.390  23.045  11.965
13237W        W78717  16.101   8.865   4.602
13238W        W78718  26.565  42.794   5.205
13239W        W78719  39.423  19.157   2.308
13240W        W78720   6.227  34.456  13.334
13241W        W78721  14.657  17.765   2.207
13242W        W78722  22.114  11.821  12.095
13243W        W78723  18.609   7.854   4.124
13244W        W78724  23.713  23.139   1.768
13245W        W78725  27.149  41.030  14.435
13246W        W78726  32.543  14.138   2.796
13247W        W78727  29.639  13.608  11.587
13248W        W78728  28.022  15.315   3.709
13249W        W78729  28.016   2.450  11.032
13250W        W78730   8.250  41.346   2.831
13251W        W78731  13.278  14.247   4.291
13252W        W78732  21.085  36.553  10.417
13253W        W78733  13.823  44.335  10.923
13254W        W78734  33.494   6.424   3.238
13255W        W78735   4.441   5.893  14.366
13256W        W78736  20.092   9.277  13.529
13257W        W78737  15.099  28.017   0.443
13258W        W78738  36.907   1.816   4.803
13259W        W78739  23.086  23.699  13.344
13260W        W78740  26.981  35.599  13.339
13261W        W78741   0.369   8.344   2.411
13262W        W78742  12.849  31.957  13.872
13263W        W78743   8.360  40.311  12.477
13264W        W78744  41.359  30.425  13.029
13265W        W78745  36.989  26.208   4.691
13266W        W78746  39.484  37.521  14.011
13267W        W78747  19.738  26.193  11.875
13268W        W78748   8.751  19.561  13.943
13269W        W78749  31.042  34.062  12.430
13270W        W78750  20.677   3.307  12.032
13271W        W78751  12.142   2.231   3.818
13272W        W78752  44.933  15.745  10.964
13273W        W78753  38.376  43.819   2.349
13274W        W78754  18.549  41.428  10.077
13275W        W78755   5.696  35.089  14.368
13276W        W78756  33.075  25.070  12.507
13277W        W78757  34.980  29.467   2.286
13278W        W78758   2.291   5.856  10.961
13279W        W78759  15.168  30.968   1.707
13280W        W78760  22.737   0.389   1.272
13281W        W78761  30.094  10.863   3.772
13282W        W78762   8.229   8.244  12.503
13283W        W78763  37.993  39.344   4.734
13284W        W78764  40.339  42.480  13.337
13285W        W78765  38.904  18.227   5.183
13286W        W78766  19.277  31.980  13.807
13287W        W78767  15.299  28.084   1.291
13288W        W78768  20.066  35.094  12.888
13289W        W78769  12.637   4.813  14.332
13290W        W78770  43.783  19.090   1.765
13291W        W78771  25.003  42.853   3.170
13292W        W78772  22.184  39.013   3.217
13293W        W78773  42.921  26.058  12.052
13294W        W78774  44.381   7.198   5.321
13295W        W78775  23.628  26.991  11.436
13296W        W78776  22.534  15.245   0.853
13297W        W78777  40.834  36.348  13.879
13298W        W78778  43.427  11.637   2.893
13299W        W78779  17.065  44.001   4.204
13300W        W78780  40.442  20.761   0.750
13301W        W78781  24.681  15.270  12.878
13302W        W78782  13.822  38.015   4.830
13303W        W78783  13.148  44.449   1.917
13304W        W78784  42.858  42.470   4.346
13305W        W78785  15.674  34.910   0.435
13306W        W78786  22.152  33.918   1.445
13307W        W78787  38.463  17.576  12.025
13308W        W78788  18.051  43.922  13.997
13309W        W78789  17.654   6.246  14.502
13310W        W78790  34.556  27.556  11.016
13311W        W78791  43.963  23.173  10.944
13312W        W78792   1.340  23.165  10.483
13313W        W78793  19.085  26.204  12.976
13314W        W78794  26.458   2.886   3.376
13315W        W78795  17.676   2.353   3.208
13316W        W78796  31.991  34.940   5.198
13317W        W78797  27.448  39.914  12.565
13318W        W78798  12.779  12.156  10.450
13319W        W78799   6.742  34.509  11.896
13320W        W78800  39.883  21.668   4.354
13321W        W78801  13.186  11.784  12.511
13322W        W78802   5.328  12.292  12.398
13323W        W78803  42.318   9.283   0.334
13324W        W78804  13.824  41.869  14.023
13325W        W78805  12.829   6.820   1.739
13326W        W78806  29.525  24.172  12.504
13327W        W78807   2.244   9.658   0.946
13328W        W78808  27.945  36.482  11.907
13329W        W78809  19.257   2.330   4.327
13330W        W78810  20.085  34.906  10.059
13331W        W78811  43.323  20.215   0.779
13332W        W78812  20.228   3.418   4.183
13333W        W78813  38.889  37.510   5.319
13334W        W78814  33.924  12.262  13.478
13335W        W78815   3.805   9.727   0.771
13336W        W78816  30.598  11.671  13.328
13337W        W78817  42.281  18.741   4.344
13338W        W78818  35.541   1.855  12.943
13339W        W78819  23.697  19.537  10.939
13340W        W78820  44.856   7.170  12.354
13341W        W78821  34.103  42.427   2.374
13342W        W78822  30.981  28.678   3.214
13343W        W78823  26.626   8.725   4.276
13344W        W78824  30.525  30.522   2.267
13345W        W78825  13.322  31.127   1.245
13346W        W78826  35.601  26.177   2.693
13347W        W78827  42.312   7.716  12.979
13348W        W78828  10.843  31.573  13.916
13349W        W78829  44.479  32.960   4.344
13350W        W78830  38.370   3.450  14.991
13351W        W78831   0.795  28.988   5.198
13352W        W78832  34.567  16.155   3.360
13353W        W78833  22.696   1.896  11.945
13354W        W78834  41.386   3.446   2.288
13355W        W78835  39.443   9.782  13.503
13356W        W78836  44.943  34.086  14.485
13357W        W78837  23.989  37.016   2.391
13358W        W78838   9.740  32.031  14.307
13359W        W78839  12.167  18.136   2.675
13360W        W78840  29.609  33.415  13.865
13361W        W78841  35.855  34.895   2.193
13362W        W78842  19.111  40.304   2.866
13363W        W78843   4.867  22.710   5.087
13364W        W78844  35.574  35.916  10.456
13365W        W78845  39.923  24.679  12.555
13366W        W78846   0.846  21.529   4.267
13367W        W78847  15.762   4.753  11.018
13368W        W78848  32.544   4.207  12.531
13369W        W78849  12.353  17.218  13.461
13370W        W78850   0.953  17.686  11.386
13371W        W78851   4.712  13.282   4.741
13372W        W78852  27.008   7.350  10.554
13373W        W78853  11.803  44.375  13.317
13374W        W78854   0.802  16.191   3.159
13375W        W78855  24.220   1.457  11.047
13376W        W78856  28.178  22.727   2.762
13377W        W78857  22.587  32.601   0.381
13378W        W78858  18.634  44.287   0.448
13379W        W78859  31.056  42.449   1.774
13380W        W78860  25.972  26.560  11.493
13381W        W78861  32.443   3.361   0.917
13382W        W78862  20.131  16.709  13.940
13383W        W78863  23.548   5.384  14.295
13384W        W78864  34.946  35.893   4.766
13385W        W78865  34.573   2.447   2.900
13386W        W78866  13.261  33.901   3.170
13387W        W78867   9.210  39.429   2.851
13388W        W78868   4.409  28.094   2.855
13389W        W78869  27.491  39.906  11.423
13390W        W78870  14.267  33.878  11.394
13391W        W78871  32.964  16.108  10.633
13392W        W78872   4.437   1.243   4.820
13393W        W78873  35.413  22.576   2.699
13394W        W78874  12.201   6.325   0.325
13395W        W78875  42.402  39.861  13.411
13396W        W78876   7.196  33.049   1.318
13397W        W78877  11.167   8.369   2.340
13398W        W78878  15.226  15.296   1.787
13399W        W78879  19.044   0.781  14.485
13400W        W78880  11.231  27.145   3.670
13401W        W78881  37.431  43.887  11.434
13402W        W78882   6.693  26.130   4.290
13403W        W78883   6.357   5.256   1.372
13404W        W78884  42.841   3.854  13.342
13405W        W78885  21.537  19.059  12.571
13406W        W78886   8.814  38.478   9.987
13407W        W78887  41.518  26.054   1.706
13408W        W78888  17.197  25.528   9.500
13409W        W78889  44.999   2.312  11.905
13410W        W78890  25.026  10.728  13.008
13411W        W78891   7.227   4.405  11.380
13412W        W78892  36.349  35.049  12.097
13413W        W78893  27.126   9.814  11.464
13414W        W78894  13.268  33.599  13.353
13415W        W78895  24.662   9.149   2.301
13416W        W78896   4.272  26.004  11.612
13417W        W78897  32.084  36.350  13.011
13418W        W78898  18.548  23.999   5.131
13419W        W78899   8.685  36.403   0.468
13420W        W78900  30.135  24.994   1.402
13421W        W78901  30.449   6.784   3.241
13422W        W78902   5.821  23.713   3.227
13423W        W78903   1.816  25.635  11.544
13424W        W78904  38.012  36.366   0.259
13425W        W78905  13.695   5.814   3.206
13426W        W78906  29.557  20.544   4.128
13427W        W78907  14.635  39.542  11.374
13428W        W78908  32.107  14.285  10.570
13429W        W78909  40.017  31.964  12.437
13430W        W78910   4.754  15.181   2.370
13431W        W78911  23.572   3.462   2.332
13432W        W78912  10.231  22.019   1.771
13433W        W78913  20.757  16.606  10.991
13434W        W78914  18.099  21.584  13.038
13435W        W78915  24.658  42.386  10.584
13436W        W78916  36.921  39.369   2.199
13437W        W78917   0.457  17.177   3.353
13438W        W78918  16.812  30.158  13.830
13439W        W78919  30.583  33.052   0.405
13440W        W78920  20.534  21.554  12.001
13441W        W78921  28.524  19.732   0.480
13442W        W78922  19.696  21.735  11.485
13443W        W78923  18.581  10.671  11.535
13444W        W78924  43.867  21.571  14.926
13445W        W78925   8.688  29.054  14.819
13446W        W78926  31.552  30.648  10.617
13447W        W78927  13.346   3.298  13.874
13448W        W78928  10.376  11.205   4.695
13449W        W78929  17.556   9.875   1.273
13450W        W78930  27.066   7.777  13.325
13451W        W78931  34.381  21.670   2.890
13452W        W78932  31.425  44.444  14.892
13453W        W78933   7.676  30.655  14.902
13454W        W78934   5.406  24.007   4.228
13455W        W78935  17.558  33.550   1.929
13456W        W78936  25.187   2.757  14.961
13457W        W78937   6.269   5.261  13.977
13458W        W78938   8.385  34.974  13.321
13459W        W78939   6.336  13.115   1.353
13460W        W78940  40.362  36.875  11.566
13461W        W78941   3.889  27.513   3.370
13462W        W78942  36.500  23.518   2.697
13463W        W78943  23.069  12.834  12.827
13464W        W78944  25.166   6.753  11.105
13465W        W78945  20.692  19.244  10.465
13466W        W78946   4.322   6.423   2.839
13467W        W78947  35.439  23.217  14.960
13468W        W78948  43.790  33.571  14.286
13469W        W78949   5.859  28.500  10.422
13470W        W78950   7.208  44.858  13.887
13471W        W78951   4.761  11.773   1.756
13472W        W78952  28.004  38.437  14.998
13473W        W78953  24.117  28.171  12.050
13474W        W78954  32.007   1.789   2.401
13475W        W78955  43.420  38.542   1.315
13476W        W78956  11.678  35.014   3.211
13477W        W78957  35.467  26.969   0.790
13478W        W78958   5.738  22.522  11.596
13479W        W78959  26.084  21.135   1.370
13480W        W78960   7.405  14.249   1.808
13481W        W78961  32.121  28.570  11.527
13482W        W78962  36.937  24.033  11.038
13483W        W78963  43.799  33.912  14.504
13484W        W78964  30.586  37.854  11.905
13485W        W78965  34.034   3.880   2.212
13486W        W78966   3.295  39.049   0.381
13487W        W78967  16.226  15.262  12.562
13488W        W78968  11.134   9.710   0.394
13489W        W78969  27.071  22.177  10.121
13490W        W78970  25.526  10.367   4.670
13491W        W78971  36.384   2.835  13.912
13492W        W78972  40.422  17.561  14.304
13493W        W78973  18.092  20.272  11.014
13494W        W78974  19.747   4.417  11.516
13495W        W78975  23.509  20.763  11.903
13496W        W78976   5.394  23.693  10.581
13497W        W78977  21.086  35.495  11.410
13498W        W78978  21.027  14.825  12.844
13499W        W78979  31.060  33.433  14.847
13500W        W78980  21.136  20.612  12.067
13501W        W78981   3.422  33.032   0.476
13502W        W78982  33.105  33.488  12.060
13503W        W78983  10.787  16.170  10.514
13504W        W78984  43.381  44.276   1.375
13505W        W78985   8.237  44.906  13.804
13506W        W78986  12.272  15.744   4.119
13507W        W78987  14.337  10.380   3.383
13508W        W78988  11.701  39.968   3.709
13509W        W78989   2.752  16.189  14.505
13510W        W78990  27.188  23.502   1.336
13511W        W78991  34.977  26.528  14.353
13512W        W78992  12.735  28.447   0.778
13513W        W78993  15.268  15.170   3.173
13514W        W78994  14.094  34.025   9.560
13515W        W78995   3.261  21.140   2.688
13516W        W78996  10.815  10.814  14.488
13517W        W78997   7.277  36.478   0.877
13518W        W78998  16.298  30.989  11.454
13519W        W78999  15.219  35.493   5.196
13520W        W79000  42.388   9.652  13.930
13521W        W79001  11.240  31.077   0.906
13522W        W79002  21.613  24.191   0.850
13523W        W79003  29.128  21.059   1.260
13524W        W79004   4.236  33.906   1.869
13525W        W79005   9.646  13.339  11.074
13526W        W79006  38.043  11.772  10.595
13527W        W79007  42.423  20.522   1.841
13528W        W79008   1.934  13.186  10.505
13529W        W79009  37.048  11.267   2.879
13530W        W79010  31.523   3.330  14.404
13531W        W79011  41.423  36.026  13.454
13532W        W79012  23.219  30.656   1.308
13533W        W79013  28.136  28.135   4.211
13534W        W79014   8.193  39.928   2.366
13535W        W79015  13.688  10.679   2.263
13536W        W79016  35.897  19.182   2.667
13537W        W79017   3.412  13.822  14.359
13538W        W79018  31.140  30.064   3.322
13539W        W79019  10.737  27.547   2.204
13540W        W79020  31.925  17.573   4.278
13541W        W79021  21.029  20.643   4.150
13542W        W79022   6.870  24.637   0.734
13543W        W79023  30.591  32.072   1.383
13544W        W79024  31.489  44.427  10.433
13545W        W79025   3.720  38.393   0.437
13546W        W79026  18.695  25.675  10.426
13547W        W79027   4.931  16.315  13.921
13548W        W79028  25.547  23.045  13.795
13549W        W79029  13.644  28.666  14.359
13550W        W79030  24.595   6.750  13.334
13551W        W79031  25.119  44.998  14.962
13552W        W79032  43.336  33.966  10.937
13553W        W79033  41.536  37.842   4.770
13554W        W79034  43.932  25.175   2.412
13555W        W79035   0.987   5.302   4.117
13556W        W79036  36.035   2.259   5.320
13557W        W79037  10.840  26.088   1.233
13558W        W79038  35.016   7.748  11.449
13559W        W79039  17.669  13.799   4.314
13560W        W79040   3.377   2.770   0.831
13561W        W79041  28.466   1.860  13.494
13562W        W79042  44.429  24.041   3.245
13563W        W79043  12.243  37.407   3.337
13564W        W79044  17.197  36.574  12.096
13565W        W79045   1.462  12.168   0.424
13566W        W79046   7.400  34.969  11.056
13567W        W79047  23.549  10.312   2.722
13568W        W79048  31.018  18.230   4.618
13569W        W79049  37.034  28.126  11.003
13570W        W79050  19.126  30.586  10.476
13571W        W79051  42.487  16.572   3.790
13572W        W79052  15.754  16.239  13.499
13573W        W79053  35.852  28.147  13.888
13574W        W79054  11.319  19.171  12.477
13575W        W79055  26.583  22.536   5.139
13576W        W79056   6.268  36.561   0.930
13577W        W79057  24.976  29.521   0.770
13578W        W79058  18.676  25.538   1.803
13579W        W79059  44.388  18.085   3.156
13580W        W79060   8.823  29.952   1.229
13581W        W79061  43.956  29.982  11.532
13582W        W79062   1.967  33.897  14.342
13583W        W79063  40.940  34.983   4.346
13584W        W79064  19.609  33.456   1.765
13585W        W79065  18.250  39.966  10.949
13586W        W79066  21.160  43.925   9.544
13587W        W79067   6.292  27.611  14.448
13588W        W79068  39.969  41.910  11.383
13589W        W79069  14.685  21.572   4.325
13590W        W79070  38.372  28.535  11.003
13591W        W79071  27.963  12.670  12.054
13592W        W79072  36.404  10.730   3.630
13593W        W79073   8.376  23.553  10.936
13594W        W79074  29.654   8.238  12.362
13595W        W79075   3.419  12.342   3.210
13596W        W79076  11.201  32.934   2.840
13597W        W79077  38.976  37.981  10.022
13598W        W79078  37.527  24.627  13.425
13599W        W79079  13.135   3.359  10.621
13600W        W79080  28.153  32.454  12.510
13601W        W79081  30.467  42.305  13.928
13602W        W79082   6.364   8.253  11.030
13603W        W79083  20.735   2.802  12.824
13604W        W79084  13.237  29.561  11.005
13605W        W79085  36.919  38.379   2.697
13606W        W79086  29.058   5.812  13.845
13607W        W79087  32.129  31.610   1.446
13608W        W79088  14.725  43.873   1.348
13609W        W79089  39.042  17.190   3.194
13610W        W79090  35.005   8.317   1.379
13611W        W79091  22.683  36.477  14.343
13612W        W79092  19.638   9.851  10.989
13613W        W79093  14.666  23.167   0.264
13614W        W79094  35.915  22.630   0.903
13615W        W79095   6.689   8.727   0.822
13616W        W79096   2.822  31.428   3.168
13617W        W79097  43.412  24.221  12.558
13618W        W79098  24.154  10.705  10.590
13619W        W79099  22.688  10.244  11.111
13620W        W79100   1.296  24.716   3.778
13621W        W79101   2.385  19.624  11.378
13622W        W79102  10.353  12.231   1.261
13623W        W79103  28.972  17.754   2.374
13624W        W79104  42.876   9.330  14.445
13625W        W79105  38.989   6.410  11.501
13626W        W79106   3.419  29.042  12.491
13627W        W79107  33.967   1.298   0.806
13628W        W79108  21.527  17.729  13.473
13629W        W79109  10.269  19.281  13.514
13630W        W79110   4.930   6.835  10.909
13631W        W79111  11.195   0.255   3.358
13632W        W79112  30.967  20.575  12.898
13633W        W79113  38.930   7.409  12.929
13634W        W79114  26.526  11.305   4.211
13635W        W79115  35.872  39.062  12.960
13636W        W79116  16.119  37.451   4.261
13637W        W79117  10.270   2.409   4.314
13638W        W79118  26.041  12.785  11.440
13639W        W79119  28.529  38.997  10.616
13640W        W79120  36.860   7.764   2.834
13641W        W79121  14.309  22.073  12.437
13642W        W79122   5.377  24.165   1.413
13643W        W79123  34.916  18.583  10.421
13644W        W79124  22.017  10.674  10.073
13645W        W79125   3.234   3.413  13.364
13646W        W79126  38.919   4.912  10.561
13647W        W79127  16.279   3.775  13.909
13648W        W79128  36.996  41.786  10.566
13649W        W79129   0.870  27.484  14.468
13650W        W79130  39.889  11.294  12.970
13651W        W79131  22.012  14.763   2.288
13652W        W79132  17.133  10.337   2.664
13653W        W79133   0.278  19.662   0.929
13654W        W79134  10.169  21.680   0.467
13655W        W79135  27.113   2.923  12.378
13656W        W79136  36.569   2.302   3.276
13657W        W79137  12.205   4.707  12.925
13658W        W79138  44.834   0.942   4.746
13659W        W79139   2.417  16.589  12.002
13660W        W79140  40.525  29.148  14.000
13661W        W79141  26.694  12.261  12.081
13662W        W79142  35.006  44.266   9.969
13663W        W79143   2.448   6.782  14.980
13664W        W79144  12.119  16.710  13.499
13665W        W79145  37.553   0.985   1.442
13666W        W79146  22.187  42.970  12.973
13667W        W79147  14.192   2.248  11.128
13668W        W79148  44.419  12.794   4.660
13669W        W79149  19.106  22.690   4.606
13670W        W79150  34.941  19.634  13.497
13671W        W79151  16.595  14.222   2.293
13672W        W79152  34.615  18.211  14.440
13673W        W79153  24.069  16.105   0.479
13674W        W79154  43.906  10.773   0.329
13675W        W79155   4.413  22.024  10.982
13676W        W79156  38.072  42.829  14.810
13677W        W79157  14.236  30.149  14.906
13678W        W79158  20.598   6.696  13.505
13679W        W79159  29.051   6.678   3.727
13680W        W79160   5.881  26.206  13.339
13681W        W79161  16.107  11.265  14.278
13682W        W79162  17.683  10.145   1.300
13683W        W79163   5.407  15.761   4.172
13684W        W79164  24.146   6.765  13.422
13685W        W79165  14.176  10.732   2.326
13686W        W79166   2.784   8.874   3.250
13687W        W79167  42.960   8.655   4.717
13688W        W79168  25.571  12.138   3.341
13689W        W79169  20.615  32.036   0.928
13690W        W79170  26.196  20.636   2.785
13691W        W79171  18.611   1.962   0.903
13692W        W79172  27.032   7.319  12.952
13693W        W79173  33.880  44.802   0.372
13694W        W79174  31.011  28.657  13.498
13695W        W79175  17.718   4.317  11.858
13696W        W79176  36.551  44.964  12.433
13697W        W79177  31.490  26.462   2.367
13698W        W79178  10.373  37.388  10.405
13699W        W79179  25.690  28.073   1.806
13700W        W79180  33.128  15.652   0.393
13701W        W79181  38.520  14.786  14.357
13702W        W79182  36.518  34.522  10.983
13703W        W79183  35.585   8.405  14.504
13704W        W79184  32.391  34.955  12.386
13705W        W79185   3.796   8.834   1.867
13706W        W79186  34.110  36.846   0.854
13707W        W79187  16.251  25.561  10.557
13708W        W79188  43.929  18.270  12.881
13709W        W79189   3.445  21.557  11.026
13710W        W79190  22.998   9.316  12.073
13711W        W79191  17.572  11.654   1.912
13712W        W79192  10.372   4.700   1.261
13713W        W79193  24.702  27.091  12.504
13714W        W79194  23.221  34.057  12.972
13715W        W79195   1.430  43.467  13.972
13716W        W79196  20.227  37.973   4.781
13717W        W79197  21.224  16.582  10.620
13718W        W79198  32.083  25.132  14.919
13719W        W79199  27.159  27.631  14.302
13720W        W79200  43.456  23.106  14.287
13721W        W79201  16.274  21.250   1.374
13722W        W79202  29.105  23.698   0.945
13723W        W79203  31.094  29.019  13.805
13724W        W79204   9.198   3.241   5.171
13725W        W79205  24.509  33.520  12.081
13726W        W79206  20.173  14.158   1.841
13727W        W79207  20.211  42.516   2.224
13728W        W79208  12.691  26.195  14.460
13729W        W79209  38.515  19.079  14.432
13730W        W79210  16.798  18.139  13.797
13731W        W79211  16.617  39.407  10.573
13732W        W79212   7.772  18.131   0.387
13733W        W79213  41.802   7.324  11.456
13734W        W79214  13.212  29.061   1.377
13735W        W79215  12.298  15.698   0.335
13736W        W79216  36.970  21.169  13.544
13737W        W79217   7.253   4.722  11.959
13738W        W79218  43.861  25.205   3.694
13739W        W79219  30.928  39.993   1.323
13740W        W79220  17.176  15.232  14.858
13741W        W79221  30.105   9.209  12.512
13742W        W79222  26.661  20.084  10.986
13743W        W79223   8.900  26.196   4.289
13744W        W79224   7.794  15.710   4.824
13745W        W79225  34.598  31.468  12.967
13746W        W79226  25.663  40.435  12.000
13747W        W79227  15.691  42.016   0.934
13748W        W79228   1.887  14.204  13.934
13749W        W79229  36.432   2.395   0.747
13750W        W79230  22.102  40.389  14.310
13751W        W79231  44.795  36.075  11.974
13752W        W79232  17.736  20.219   3.682
13753W        W79233  31.473  22.157  12.421
13754W        W79234  39.864  18.632   3.206
13755W        W79235  42.928  33.535  12.868
13756W        W79236  40.319  34.544   4.355
13757W        W79237  22.502   2.879  13.350
13758W        W79238  10.374  27.580  11.602
13759W        W79239  43.366  38.325   2.366
13760W        W79240  11.194  33.021   4.219
13761W        W79241  29.116  12.152  14.407
13762W        W79242   7.862  37.940   1.806
13763W        W79243   2.307  36.363   4.320
13764W        W79244  36.425  23.658   0.330
13765W        W79245  22.716  23.673  12.570
13766W        W79246  10.660  28.020  11.871
13767W        W79247  29.005  36.970  11.929
13768W        W79248   1.259  43.327  12.443
13769W        W79249  20.200  39.455  14.867
13770W        W79250  26.202  42.286   4.318
13771W        W79251  37.864   9.311  13.348
13772W        W79252  20.065  11.334  12.483
13773W        W79253  37.373  39.553  14.810
13774W        W79254   1.300  18.663   3.330
13775W        W79255  44.502  10.205   1.411
13776W        W79256   6.693  31.026   2.198
13777W        W79257  36.894  21.197   2.758
13778W        W79258   2.396  17.192   1.447
13779W        W79259  24.977  31.580   1.743
13780W        W79260  35.005   4.291   0.272
13781W        W79261   9.784   5.863   3.734
13782W        W79262  21.087   2.947   3.846
13783W        W79263  26.169   8.771   4.150
13784W        W79264   3.317  34.117   3.239
13785W        W79265  28.119  15.110   2.356
13786W        W79266   5.768   0.800  13.042
13787W        W79267   2.889  18.658  14.815
13788W        W79268   6.391  38.003   0.364
13789W        W79269   1.371  38.416  11.081
13790W        W79270   5.737   7.781   1.717
13791W        W79271   3.912  12.127   2.845
13792W        W79272  44.964   5.854   2.819
13793W        W79273  22.085   1.919   2.400
13794W        W79274  37.562  44.404   4.162
13795W        W79275   5.421  42.024   1.327
13796W        W79276  32.515   6.354   2.402
13797W        W79277  22.077   4.813   4.767
13798W        W79278  39.317  26.075  14.004
13799W        W79279  31.920  42.793   3.192
13800W        W79280  44.374   6.380   3.170
13801W        W79281  37.055  38.968  14.495
13802W        W79282  43.838  17.188  13.971
13803W        W79283   8.782  19.573   5.221
13804W        W79284  12.630  11.621   1.793
13805W        W79285   6.771   4.908  13.807
13806W        W79286   0.781  37.581  12.013
13807W        W79287  21.671  42.306   0.305
13808W        W79288  33.486  12.171   4.632
13809W        W79289   8.336  15.632   1.871
13810W        W79290  40.974  44.266   1.791
13811W        W79291  18.589   6.351   3.257
13812W        W79292  18.567  41.876  10.593
13813W        W79293  13.703   5.202  13.342
13814W        W79294  25.054  25.014  12.492
13815W        W79295  27.075   6.843   4.794
13816W        W79296  40.444  16.750   0.857
13817W        W79297   4.242  25.157   3.818
13818W        W79298  26.960  13.795   3.708
13819W        W79299  13.270   3.305  14.835
13820W        W79300  28.024   5.697   9.975
13821W        W79301  43.330  27.458   0.942
13822W        W79302  27.653   6.822  11.872
13823W        W79303  11.860  17.221  13.443
13824W        W79304  38.565  37.998   4.823
13825W        W79305   0.938  28.631  12.548
13826W        W79306   6.272  24.636  13.326
13827W        W79307   4.740  25.143   0.387
13828W        W79308  39.056  20.217  12.837
13829W        W79309  13.198   6.705  14.446
13830W        W79310  23.107  24.992  13.951
13831W        W79311   5.312  26.560  12.905
13832W        W79312  34.011  33.469  14.893
13833W        W79313  39.988  38.409  13.389
13834W        W79314  22.743  28.012   1.705
13835W        W79315   4.338  20.605   2.224
13836W        W79316  17.247  33.038   3.689
13837W        W79317   5.229   2.387   1.931
13838W        W79318  12.835  37.832   3.749
13839W        W79319  11.673  38.845  13.506
13840W        W79320  26.622  32.980   3.713
13841W        W79321  43.300   4.752   2.719
13842W        W79322  35.854   7.688   2.179
13843W        W79323  33.075  38.963   3.851
13844W        W79324   0.382  44.375   2.872
13845W        W79325  32.541  33.102  13.468
13846W        W79326  38.953   9.265   1.771
13847W        W79327  31.563   4.720   4.276
13848W        W79328  32.398  38.039   0.899
13849W        W79329  29.135  14.322   3.644
13850W        W79330  13.258  10.329  12.561
13851W        W79331  39.015   3.918   1.895
13852W        W79332  18.102  26.572  14.980
13853W        W79333   3.455  16.302   2.194
13854W        W79334  16.638  29.026   2.228
13855W        W79335  42.882  42.943  10.938
13856W        W79336  38.931  43.772  10.553
13857W        W79337  26.611  35.491  12.048
13858W        W79338   6.909  21.650   3.787
13859W        W79339  34.411  40.874   1.273
13860W        W79340  44.777  43.939  11.989
13861W        W79341  42.796  41.977   0.830
13862W        W79342  38.061  16.181  10.890
13863W        W79343  24.231  41.017  14.283
13864W        W79344  30.162  29.617  13.929
13865W        W79345   7.240   7.412  13.047
13866W        W79346   0.475  20.647  12.363
13867W        W79347  36.914   9.327  14.296
13868W        W79348   2.849  18.181   0.918
13869W        W79349  32.434  30.103  11.011
13870W        W79350  42.474   3.881  13.985
13871W        W79351   6.199   1.459   4.662
13872W        W79352  25.179   2.901   2.777
13873W        W79353   9.873  18.289  13.919
13874W        W79354  43.817   8.684  14.476
13875W        W79355  13.693  30.977  13.492
13876W        W79356  11.662  17.203   1.839
13877W        W79357  13.272   3.304  14.387
13878W        W79358  30.126  28.098   4.271
13879W        W79359  26.010  24.091   0.801
13880W        W79360  30.133  26.988  12.489
13881W        W79361  30.651  33.934  13.419
13882W        W79362  30.583   6.400   0.917
13883W        W79363  15.180  14.157  13.885
13884W        W79364  36.090   1.325  13.925
13885W        W79365  26.522  16.293  11.438
13886W        W79366  37.870  26.468  10.407
13887W        W79367  18.757   9.390   2.886
13888W        W79368   1.875  32.609  12.927
13889W        W79369  35.572  32.616  13.450
13890W        W79370  35.946   0.258  12.574
13891W        W79371  31.510   7.897  14.856
13892W        W79372  38.430  32.531   2.305
13893W        W79373  27.066  43.854  12.494
13894W        W79374  13.675  19.171   0.869
13895W        W79375  21.681   7.863   3.379
13896W        W79376  10.239   5.694  11.412
13897W        W79377  30.451  23.699  12.893
13898W        W79378   5.724  15.783  14.853
13899W        W79379   2.459  25.551  10.450
13900W        W79380   3.913  21.556  11.458
13901W        W79381  31.984   6.916  14.516
13902W        W79382  39.911  16.706  13.050
13903W        W79383  18.252   8.887   2.293
13904W        W79384  20.217  15.313   0.805
13905W        W79385  26.589  30.656  13.486
13906W        W79386  28.440  29.666   2.184
13907W        W79387  19.121  17.155   1.831
13908W        W79388  40.549   9.856   3.810
13909W        W79389  24.986  34.538   0.307
13910W        W79390   9.265  14.593  13.399
13911W        W79391  26.064  12.300  13.964
13912W        W79392  10.383   8.338  13.874
13913W        W79393   0.896  11.763   2.662
13914W        W79394   5.902  44.477   0.471
13915W        W79395  37.997   8.810   1.214
13916W        W79396  33.449  15.275   0.431
13917W        W79397   1.420  14.236  12.508
13918W        W79398   1.285  35.560  13.433
13919W        W79399  43.828   6.791   0.930
13920W        W79400  30.600   0.751   4.346
13921W        W79401  31.992   0.494   0.366
13922W        W79402  38.521  16.573   3.646
13923W        W79403  29.991  31.465  11.922
13924W        W79404  31.532  17.134   0.730
13925W        W79405  37.044  39.927   1.707
13926W        W79406  32.916  44.997  10.931
13927W        W79407  14.696   0.843   2.851
13928W        W79408  35.588  23.691  14.377
13929W        W79409  19.172  35.854   2.327
13930W        W79410   0.906  33.513  14.941
13931W        W79411   8.833  44.476  11.520
13932W        W79412  10.657   1.319   2.251
13933W        W79413  28.113   3.430  13.545
13934W        W79414  24.127  31.644  11.469
13935W        W79415   2.894  23.014   2.226
13936W        W79416  42.901  32.624   0.466
13937W        W79417  32.968  38.024   4.694
13938W        W79418  26.095  42.294  14.921
13939W        W79419  43.277  38.891   0.739
13940W        W79420  32.426   7.349   0.431
13941W        W79421  36.529  11.784  14.894
13942W        W79422  22.562  34.089  13.917
13943W        W79423   2.332  33.490  12.918
13944W        W79424  44.821  28.439  12.518
13945W        W79425  20.204  25.161   3.713
13946W        W79426  18.076   3.263  13.453
13947W        W79427  38.961  22.171  13.835
13948W        W79428  22.612  15.205  13.986
13949W        W79429  35.962  20.653  10.983
13950W        W79430  43.396  35.601  12.400
13951W        W79431   9.802  30.521  11.382
13952W        W79432  16.634  40.504  11.512
13953W        W79433  25.709  14.760   4.155
13954W        W79434  30.423  36.990  12.348
13955W        W79435  35.963  22.719  14.903
13956W        W79436   9.666  29.501   1.330
13957W        W79437  32.944  38.482  13.413
13958W        W79438  37.067   1.266   0.957
13959W        W79439   2.420  11.370   2.201
13960W        W79440  18.668  30.146   2.740
13961W        W79441  43.324  17.146   0.847
13962W        W79442  11.653  42.838   3.736
13963W        W79443  29.623  27.022   0.947
13964W        W79444  19.273  12.743   1.832
13965W        W79445  29.483  33.389  14.276
13966W        W79446   0.407   8.802   0.777
13967W        W79447  28.164  23.094  13.938
13968W        W79448  17.773  39.359   0.387
13969W        W79449  44.897  15.092   3.182
13970W        W79450  33.456  43.432   1.285
13971W        W79451  32.445  12.128   3.171
13972W        W79452   6.403  36.459   2.395
13973W        W79453   8.891  14.266  13.844
13974W        W79454  27.506  16.245   3.178
13975W        W79455  27.109  33.079   3.778
13976W        W79456  21.189  14.760   4.258
13977W        W79457  36.573  12.780   0.836
13978W        W79458  27.142  13.350   0.448
13979W        W79459   1.375  12.140   0.949
13980W        W79460  19.167   7.233   4.168
13981W        W79461  14.620   1.764   0.955
13982W        W79462  11.746   1.875  14.800
13983W        W79463  34.908  14.268  10.081
13984W        W79464  12.170  36.532   1.294
13985W        W79465   1.420  20.741   0.766
13986W        W79466   1.393  15.812   3.347
13987W        W79467   2.446  23.119   0.812
13988W        W79468  31.462  33.879   2.667
13989W        W79469  44.874  33.036  14.943
13990W        W79470   0.852  44.472   1.803
13991W        W79471  37.485  44.895   4.123
13992W        W79472  13.178  16.238   4.328
13993W        W79473   2.360  38.342   0.452
13994W        W79474  26.487  16.723   3.215
13995W        W79475  31.575  27.614  11.417
13996W        W79476  38.467   2.249   3.298
13997W        W79477  12.697   2.423   1.753
13998W        W79478  41.322   0.325   1.271
13999W        W79479   4.327   9.254   2.793
14000W        W79480  16.128  29.548  14.865
14001W        W79481  25.131  21.704  11.961
14002W        W79482  12.284  25.038   0.307
14003W        W79483  23.506  42.526  11.890
14004W        W79484  30.110   1.958   0.784
14005W        W79485  30.437  17.221  12.380
14006W        W79486   1.356  16.300   2.406
14007W        W79487  14.649   4.786  14.425
14008W        W79488  30.433  35.415  13.848
14009W        W79489  44.460  18.291   1.910
14010W        W79490  12.288  21.605  11.076
14011W        W79491   9.722  43.958  10.526
14012W        W79492  44.381  20.595   2.324
14013W        W79493  11.179   3.760  11.491
14014W        W79494  34.537   1.306  14.027
14015W        W79495  36.510   9.774  12.055
14016W        W79496  34.872   9.880   1.852
14017W        W79497  17.281  27.602   0.442
14018W        W79498   6.218  41.313   4.633
14019W        W79499  30.954  16.123   0.243
14020W        W79500  39.887  17.649  12.964
14021W        W79501  28.622  12.238  13.495
14022W        W79502  38.565  37.892   1.347
14023W        W79503   1.829  20.128   2.309
14024W        W79504   1.344  39.376   3.169
14025W        W79505  35.512  21.512  12.063
14026W        W79506  18.209  18.685  14.987
14027W        W79507   1.832  21.075   0.962
14028W        W79508  42.807  41.938   3.194
14029W        W79509  11.182  38.558  10.634
14030W        W79510  24.623  23.679  10.490
14031W        W79511  24.170  29.593   2.404
14032W        W79512  26.199   5.821   2.352
14033W        W79513  18.685  40.901   2.370
14034W        W79514   1.237  17.725  12.505
14035W        W79515  33.047  12.806  10.511
14036W        W79516   7.823  16.250  13.492
14037W        W79517  32.445  15.603  10.637
14038W        W79518  33.929  43.888  14.384
14039W        W79519   9.819  23.705  12.470
14040W        W79520  16.086  36.924   2.845
14041W        W79521   7.173  13.756  13.458
14042W        W79522  20.243   7.386   2.339
14043W        W79523  42.394  35.975   2.695
14044W        W79524  10.746  23.193   2.412
14045W        W79525  21.158   9.302  14.783
14046W        W79526  42.015  31.095  11.083
14047W        W79527  29.926  41.460   0.287
14048W        W79528  18.643  30.515   3.772
14049W        W79529   3.249  16.116  10.613
14050W        W79530   6.696  35.997   2.323
14051W        W79531  44.356  32.024  14.454
14052W        W79532   0.264  36.377  14.475
14053W        W79533  15.211  32.135  14.515
14054W        W79534  15.266  11.805  11.946
14055W        W79535  38.905   9.833  13.052
14056W        W79536  15.743   0.382   4.333
14057W        W79537  28.534  43.356  14.975
14058W        W79538  12.791   2.740   4.303
14059W        W79539  12.145  12.314   2.418
14060W        W79540  29.079  21.196  14.835
14061W        W79541  30.431  25.577   4.816
14062W        W79542  44.387   7.814  10.021
14063W        W79543   7.898   3.938  14.500
14064W        W79544  43.850  34.051  13.462
14065W        W79545   3.451   5.751   1.911
14066W        W79546  32.595  31.056  13.379
14067W        W79547  42.298  10.321  13.018
14068W        W79548   9.245  34.992  10.984
14069W        W79549  42.983  29.658   1.314
14070W        W79550  21.075   9.223  13.396
14071W        W79551  10.693  36.858   3.347
14072W        W79552  33.070   2.728  13.999
14073W        W79553   9.788  36.453  14.316
14074W        W79554  19.255  39.535   2.885
14075W        W79555   3.900  29.463   4.746
14076W        W79556  12.736  20.754   0.304
14077W        W79557  41.361  25.184  11.386
14078W        W79558  41.363  43.398  13.979
14079W        W79559   5.373  37.579  11.073
14080W        W79560  20.031  23.180  10.530
14081W        W79561  31.913  28.636  14.475
14082W        W79562  15.243  23.568  12.838
14083W        W79563  27.603  28.501   4.731
14084W        W79564  37.010  40.912  12.838
14085W        W79565  38.982  14.270   3.639
14086W        W79566  25.580   3.868   1.370
14087W        W79567  23.719  38.063   4.302
14088W        W79568   6.318  27.010  13.489
14089W        W79569  26.692   4.858   1.310
14090W        W79570  18.214  38.382   0.880
14091W        W79571   4.742  17.117  10.479
14092W        W79572  17.640  12.118   4.277
14093W        W79573   0.874  26.971   1.254
14094W        W79574  28.538  12.692   3.332
14095W        W79575  27.645  40.909  11.931
14096W        W79576  12.782  22.012   0.331
14097W        W79577  38.824  28.176  10.542
14098W        W79578  33.563  13.737  12.431
14099W        W79579   7.197  39.900  10.596
14100W        W79580  23.119  43.316  11.970
14101W        W79581  44.432   9.674  14.781
14102W        W79582  37.874  26.994  11.976
14103W        W79583  39.345  23.201  12.414
14104W        W79584  26.140   5.436  10.551
14105W        W79585  36.479  21.673  11.498
14106W        W79586   7.380  28.449  13.906
14107W        W79587  27.509  20.545  11.907
14108W        W79588  36.440  22.199   0.933
14109W        W79589  42.916  17.655  10.627
14110W        W79590   9.305  15.154  13.486
14111W        W79591  12.753   5.696   4.727
14112W        W79592  36.478  24.983   0.321
14113W        W79593  13.829  16.791   1.706
14114W        W79594  35.886   1.737  13.900
14115W        W79595  43.802   1.872  14.918
14116W        W79596  23.593  25.148  11.002
14117W        W79597  11.280  32.125  14.318
14118W        W79598  33.415  41.318   1.421
14119W        W79599  30.048  21.703   0.816
14120W        W79600  18.732   0.894  11.573
14121W        W79601  10.146  44.449   1.814
14122W        W79602  34.907  35.872   1.758
14123W        W79603  25.991   1.924   0.840
14124W        W79604  13.687  27.966  11.592
14125W        W79605   4.378  30.164   0.256
14126W        W79606  28.453  28.103  12.343
14127W        W79607  37.031  28.632   0.941
14128W        W79608  20.130  38.440   3.364
14129W        W79609  11.241  12.624   3.182
14130W        W79610  36.525  39.813  11.500
14131W        W79611  35.099   6.423   3.269
14132W        W79612   2.363  20.068   3.810
14133W        W79613  11.329  41.416  13.345
14134W        W79614   7.846  40.543  10.554
14135W        W79615   8.773  18.721   2.331
14136W        W79616  22.236  19.125   3.761
14137W        W79617  36.497  36.581   0.461
14138W        W79618  12.352  10.213  13.422
14139W        W79619  17.075  39.865   2.729
14140W        W79620   1.877  17.659  13.887
14141W        W79621   8.238   0.980  12.016
14142W        W79622  31.551  44.494  13.851
14143W        W79623   6.683  20.162  11.460
14144W        W79624   3.317   6.697  11.568
14145W        W79625   4.731  11.793  12.427
14146W        W79626   5.236  11.753   4.794
14147W        W79627  42.864  34.096  13.307
14148W        W79628  19.640  38.858  12.890
14149W        W79629  16.681  23.150   4.697
14150W        W79630  38.427  35.389  13.871
14151W        W79631  41.844  26.695   4.724
14152W        W79632  32.027  15.658   4.822
14153W        W79633  30.549   8.729  13.321
14154W        W79634  27.197  35.067   2.699
14155W        W79635  10.379  22.661   3.631
14156W        W79636  42.932  26.515   0.383
14157W        W79637  31.910   8.778  13.318
14158W        W79638  33.568  43.305   4.784
14159W        W79639  28.081  17.107  12.038
14160W        W79640   7.764  32.507  11.949
14161W        W79641  42.838  36.350   2.662
14162W        W79642  42.307  19.139   3.822
14163W        W79643  11.853  13.808  13.479
14164W        W79644   8.868  10.705   1.791
14165W        W79645  43.365  14.624  10.433
14166W        W79646  36.482   6.681   4.297
14167W        W79647  18.155  18.634  12.341
14168W        W79648  44.327  12.827  14.863
14169W        W79649  38.490  23.532  14.787
14170W        W79650  38.963  24.123   1.853
14171W        W79651  30.943  12.707  10.928
14172W        W79652   2.736  11.182   1.336
14173W        W79653   9.151  15.162   1.276
14174W        W79654  36.484  25.604   0.779
14175W        W79655  10.857   1.320  10.446
14176W        W79656  40.843  33.474  11.969
14177W        W79657  23.105  25.186   0.411
14178W        W79658  10.873  42.924  13.944
14179W        W79659  44.477  38.337  11.479
14180W        W79660  12.225  34.900   4.331
14181W        W79661  30.945  41.949   1.329
14182W        W79662  36.549  43.281  12.995
14183W        W79663  31.127  43.828  13.923
14184W        W79664  23.991  41.391   1.359
14185W        W79665  21.635  33.948   1.382
14186W        W79666   8.312  20.077   3.852
14187W        W79667  30.606  38.567  14.502
14188W        W79668  40.925  11.341   3.681
14189W        W79669  14.598   3.353   1.361
14190W        W79670   5.888  35.464  12.970
14191W        W79671   2.963  40.543   3.698
14192W        W79672   8.730  29.627   3.228
14193W        W79673  39.422  14.131   2.792
14194W        W79674  10.260   4.343   3.692
14195W        W79675  23.003  16.167  12.056
14196W        W79676  15.212  26.526   0.954
14197W        W79677  12.699  37.355  11.036
14198W        W79678  12.731  18.558  11.461
14199W        W79679  43.978   1.743   2.818
14200W        W79680  35.573  15.317   1.288
14201W        W79681  26.684  19.207   1.905
14202W        W79682   5.253  17.127   2.739
14203W        W79683   5.781   8.677  11.576
14204W        W79684  16.765  20.064   4.619
14205W        W79685  29.008  10.843   1.430
14206W        W79686   2.328  26.068   3.784
14207W        W79687  27.104  43.893  12.872
14208W        W79688  32.414   3.270   4.159
14209W        W79689   0.250   3.229   2.685
14210W        W79690  10.314   1.941   4.323
14211W        W79691  33.891  25.069   2.837
14212W        W79692  35.093  38.926   4.207
14213W        W79693  36.037  25.649   4.825
14214W        W79694  37.552  30.011   4.668
14215W        W79695  14.688  14.215  11.445
14216W        W79696  26.159  19.577  13.856
14217W        W79697   3.234  18.249  10.944
14218W        W79698  41.360  27.173   1.800
14219W        W79699   1.971  10.266  13.966
14220W        W79700  15.670  32.566  10.971
14221W        W79701  18.159  38.564  10.532
14222W        W79702   5.876  37.932   0.959
14223W        W79703  10.353  43.774   4.837
14224W        W79704  36.068  28.945   3.834
14225W        W79705   8.859  28.527  11.406
14226W        W79706  33.066  22.102   1.835
14227W        W79707  23.996  15.765   3.830
14228W        W79708  11.766  37.064  14.831
14229W        W79709  27.462  40.472   0.381
14230W        W79710  43.314   8.661  14.985
14231W        W79711  13.766  43.924  13.532
14232W        W79712   1.771  36.928   3.825
14233W        W79713  43.860  12.304  10.457
14234W        W79714  11.336   7.408   2.737
14235W        W79715  18.569  13.220   1.430
14236W        W79716  44.349  35.402   3.792
14237W        W79717  30.110  39.049   2.718
14238W        W79718  37.528   8.294   3.718
14239W        W79719  35.031  40.030  13.950
14240W        W79720  33.536  32.888   3.315
14241W        W79721   7.837   2.241   2.210
14242W        W79722  20.757  27.537  10.124
14243W        W79723  38.363  21.587  13.926
14244W        W79724  21.644  16.700  12.378
14245W        W79725  11.332  26.582   3.686
14246W        W79726  18.237   7.793   1.439
14247W        W79727  39.515  33.118  12.012
14248W        W79728  26.200  16.153   1.911
14249W        W79729  23.205  14.763   0.366
14250W        W79730  38.956  30.092  11.051
14251W        W79731  15.614   2.900   1.768
14252W        W79732  24.063  14.145   1.909
14253W        W79733  23.142  31.541  14.286
14254W        W79734  14.785  38.441  14.979
14255W        W79735  39.396  30.984   4.252
14256W        W79736  42.004  38.374  13.377
14257W        W79737  27.976  34.987   3.257
14258W        W79738  25.118   5.338  13.439
14259W        W79739   3.779   0.796  10.063
14260W        W79740   7.666  25.521   1.369
14261W        W79741   3.452   2.921   3.249
14262W        W79742  32.567  41.347  13.017
14263W        W79743  34.545   8.871   4.209
14264W        W79744  31.430   9.805   0.439
14265W        W79745  14.230  30.089  12.867
14266W        W79746   6.233  32.424  13.929
14267W        W79747  21.538  38.854   2.359
14268W        W79748  41.415   2.899  11.507
14269W        W79749  44.376  42.372  11.963
14270W        W79750  11.681  27.481   3.320
14271W        W79751  44.787  21.224   3.178
14272W        W79752  40.511  22.734  12.990
14273W        W79753  14.246   7.783   3.646
14274W        W79754  19.059  10.723   4.287
14275W        W79755   9.653   9.777   0.417
14276W        W79756  26.080  12.219  10.407
14277W        W79757  30.634  18.673  10.433
14278W        W79758  15.735  31.909  11.010
14279W        W79759  36.084  35.487  13.010
14280W        W79760  18.690  12.762  10.616
14281W        W79761  26.045  10.317  13.353
14282W        W79762  39.930  12.269  14.396
14283W        W79763  27.539  43.957  10.405
14284W        W79764  36.845  13.757  11.529
14285W        W79765  17.639  34.402   3.639
14286W        W79766  34.120  38.046  10.592
14287W        W79767   2.359  37.846  13.863
14288W        W79768  26.974  43.995   4.714
14289W        W79769  19.551  33.420  13.012
14290W        W79770  21.190   1.868   4.338
14291W        W79771  29.631   4.938   3.371
14292W        W79772  28.486  12.623   0.391
14293W        W79773  18.207  22.110  11.896
14294W        W79774  23.493  41.345  10.494
14295W        W79775  19.697  43.279   0.891
14296W        W79776  40.819  16.692   0.886
14297W        W79777  19.698  34.882  13.449
14298W        W79778  30.060  38.350  12.563
14299W        W79779  20.121  13.785   1.390
14300W        W79780  43.469  27.597   4.610
14301W        W79781  43.772   7.398  11.470
14302W        W79782   3.728  33.102  14.765
14303W        W79783  25.578  40.854   4.690
14304W        W79784  13.716   5.257  11.551
14305W        W79785  44.374  37.525  12.540
14306W        W79786  22.151  16.778  13.357
14307W        W79787   9.369  39.375  12.913
14308W        W79788   6.361  28.593  14.770
14309W        W79789   8.393   0.317  11.383
14310W        W79790  14.780  24.723  12.560
14311W        W79791   2.772  25.654  13.815
14312W        W79792  39.872  15.600  11.128
14313W        W79793   7.387  19.696   4.118
14314W        W79794   5.798  44.902   3.190
14315W        W79795  24.051   6.188   0.746
14316W        W79796  29.924  22.606   1.369
14317W        W79797  18.718  34.487   3.197
14318W        W79798  42.803  20.661   1.777
14319W        W79799  31.958   8.693  12.053
14320W        W79800  24.717  30.050  11.970
14321W        W79801   6.773  25.079   3.225
14322W        W79802  31.924  39.353   5.793
14323W        W79803  27.623  39.511  10.473
14324W        W79804  24.025   1.947   1.316
14325W        W79805  39.501   6.722   4.805
14326W        W79806  32.116  16.738   1.711
14327W        W79807  30.068   5.352   2.202
14328W        W79808  38.433  15.761   0.783
14329W        W79809   5.387  29.448  12.961
14330W        W79810  42.030  31.460   3.266
14331W        W79811  43.948  15.650  13.837
14332W        W79812  36.478  40.390   2.312
14333W        W79813  24.219  38.943   1.228
14334W        W79814  31.481  19.729   4.170
14335W        W79815  35.523  21.064  10.633
14336W        W79816  12.261   8.179   1.845
14337W        W79817  25.988  21.134   4.164
14338W        W79818  11.341  14.696   0.778
14339W        W79819  30.457   2.410   2.709
14340W        W79820  13.286  12.199   3.669
14341W        W79821  12.250  23.043  12.389
14342W        W79822  10.244  14.111   9.920
14343W        W79823  24.526  33.062   1.326
14344W        W79824  19.725  16.794  13.338
14345W        W79825  43.514  40.867   1.428
14346W        W79826   9.221   9.791  13.318
14347W        W79827   0.261  17.263   4.339
14348W        W79828  39.980  14.263   3.332
14349W        W79829  33.883  12.273   2.775
14350W        W79830  18.213   1.435  11.568
14351W        W79831  26.996   0.769   4.237
14352W        W79832   0.271  19.072  14.381
14353W        W79833  29.978  27.669   3.326
14354W        W79834  17.281  24.541  11.015
14355W        W79835  11.168  27.561   0.953
14356W        W79836  10.270  44.969   4.688
14357W        W79837   6.844  21.203  13.378
14358W        W79838   2.749   8.283  14.430
14359W        W79839  19.180  16.736   0.362
14360W        W79840   9.810  23.672  12.058
14361W        W79841  39.470  11.245   4.768
14362W        W79842  25.631   2.848  11.476
14363W        W79843  37.868  21.241   5.087
14364W        W79844  28.106  31.436  14.981
14365W        W79845  17.693  16.219  11.971
14366W        W79846  34.487  38.475  11.518
14367W        W79847  24.087   1.296   1.797
14368W        W79848  40.544  33.572   3.195
14369W        W79849  40.361  10.223  11.404
14370W        W79850  42.455  19.773  13.860
14371W        W79851  17.238   4.774  14.880
14372W        W79852  41.325  40.330  14.030
14373W        W79853   3.338  23.196  14.805
14374W        W79854  17.297  35.922  13.034
14375W        W79855   3.885  30.964  12.009
14376W        W79856  29.427  31.427  10.472
14377W        W79857  36.587  13.147  10.643
14378W        W79858  29.933  20.700   3.172
14379W        W79859   3.715  40.351   3.317
14380W        W79860  22.701  12.628  11.997
14381W        W79861  37.569   8.897   0.757
14382W        W79862  16.581  17.690   0.405
14383W        W79863  21.635  16.221  10.961
14384W        W79864   9.837  16.780   3.342
14385W        W79865  19.697   6.228   4.817
14386W        W79866  27.011  16.072   0.254
14387W        W79867  17.795  41.960   0.874
14388W        W79868  29.171  13.801  14.512
14389W        W79869   6.300  21.702  13.991
14390W        W79870  18.598  13.842  12.934
14391W        W79871  44.917  17.137   2.282
14392W        W79872   1.894  20.716   1.854
14393W        W79873  16.096  16.206  12.841
14394W        W79874  11.133  36.439  14.336
14395W        W79875  38.454  26.528  13.882
14396W        W79876  19.047  39.875   3.381
14397W        W79877  19.047   8.817  13.307
14398W        W79878   1.281  34.979   3.675
14399W        W79879  25.634   4.327  12.492
14400W        W79880   6.715   8.774  14.490
14401W        W79881  31.594  16.145   2.812
14402W        W79882   9.718  20.634   3.192
14403W        W79883  14.288  15.601  14.292
14404W        W79884  10.654  15.212  13.492
14405W        W79885  39.556  28.629   3.341
14406W        W79886  24.120   9.357   2.332
14407W        W79887  28.484  15.671   3.708
14408W        W79888  44.964  11.629  14.454
14409W        W79889  39.921  42.338   2.689
14410W        W79890  38.863  29.079   1.932
14411W        W79891  33.954  33.508   2.839
14412W        W79892   2.398  41.798  14.009
14413W        W79893  43.780  19.760  14.338
14414W        W79894  38.904   8.251  10.920
14415W        W79895  13.241  26.545  14.995
14416W        W79896  20.630   1.473  13.907
14417W        W79897   3.300   0.333   4.676
14418W        W79898  13.270  43.277   0.914
14419W        W79899  34.374   9.863  14.807
14420W        W79900  36.501  31.039  10.593
14421W        W79901  32.106  24.695  12.046
14422W        W79902  10.728  21.090  11.996
14423W        W79903  32.410  25.631  10.404
14424W        W79904  43.270  15.624  14.335
14425W        W79905  24.151  44.414  11.929
14426W        W79906  30.126  25.660  12.064
14427W        W79907  11.795  28.439  14.951
14428W        W79908  26.055  22.089   1.856
14429W        W79909  38.912  33.093   1.228
14430W        W79910  34.107  21.124  13.986
14431W        W79911  22.014  15.749   1.247
14432W        W79912  39.948  37.552  11.551
14433W        W79913  14.102  38.356   1.430
14434W        W79914  39.459  12.642  14.821
14435W        W79915  21.623  44.898  10.888
14436W        W79916  11.866  10.741   2.182
14437W        W79917  43.875  38.000   0.348
14438W        W79918   1.411  25.704   2.699
14439W        W79919   4.879  32.079  14.466
14440W        W79920  21.757  35.419  14.476
14441W        W79921  29.649  30.940  11.507
14442W        W79922  34.073  14.824  12.450
14443W        W79923  12.682  19.116   4.224
14444W        W79924  23.021  39.490   4.261
14445W        W79925  25.091  14.655   3.695
14446W        W79926   7.721  22.208  12.452
14447W        W79927  10.704   6.335   0.398
14448W        W79928  30.649  30.987  13.479
14449W        W79929  22.999  39.036  10.472
14450W        W79930  39.955  15.254   4.763
14451W        W79931  40.335  40.858  14.856
14452W        W79932  31.909  30.588   1.824
14453W        W79933  42.962  12.771  13.381
14454W        W79934  32.628  28.046   4.201
14455W        W79935  37.423  21.520  12.456
14456W        W79936  24.196  10.155  13.308
14457W        W79937  25.613  28.572   1.701
14458W        W79938  17.612  21.680   3.686
14459W        W79939  10.357  15.808   4.275
14460W        W79940   3.872   3.926  12.516
14461W        W79941  11.804  38.849   4.808
14462W        W79942  37.363  13.313  14.032
14463W        W79943  27.609  29.962   2.378
14464W        W79944  40.440  14.743   0.358
14465W        W79945  20.100  39.396  13.413
14466W        W79946  30.135  36.858  12.508
14467W        W79947  42.345  38.834  13.491
14468W        W79948  38.940  17.215   3.673
14469W        W79949   4.792  24.201  11.523
14470W        W79950  13.212  27.112  11.410
14471W        W79951  33.130  27.013  14.968
14472W        W79952  42.799  21.219   1.785
14473W        W79953   9.668  20.062  12.013
14474W        W79954   1.799  32.473   4.169
14475W        W79955   3.743   5.733   1.229
14476W        W79956   6.316  19.556  10.074
14477W        W79957  31.406   2.431  12.426
14478W        W79958  18.186  37.357  10.546
14479W        W79959  40.933   5.410  14.913
14480W        W79960  37.489  27.544  13.496
14481W        W79961  38.999  17.588  12.045
14482W        W79962  18.225  37.482   4.800
14483W        W79963  13.248  40.045   3.231
14484W        W79964  27.600  16.253   3.662
14485W        W79965  29.946   0.259  12.510
14486W        W79966  27.058  18.688  12.020
14487W        W79967  15.776   1.334   3.306
14488W        W79968  37.857  35.424  14.503
14489W        W79969  41.342  36.845  13.387
14490W        W79970  20.082  25.183   4.736
14491W        W79971  26.551   4.290  13.966
14492W        W79972   3.879  21.642  14.481
14493W        W79973   3.903   6.213   9.961
14494W        W79974  29.023   2.458  11.002
14495W        W79975   2.438   6.684   3.849
14496W        W79976  32.560  35.951  13.532
14497W        W79977   2.878   1.246  14.295
14498W        W79978  22.221   4.413  14.896
14499W        W79979   2.317  21.528   2.677
14500W        W79980  18.201   1.790   2.759
14501W        W79981  42.342  29.170   1.890
14502W        W79982   4.307  43.416  14.873
14503W        W79983  26.498  38.397   0.269
14504W        W79984  36.398  16.603   2.713
14505W        W79985  27.602  27.489  13.824
14506W        W79986  37.875  20.194  14.829
14507W        W79987  36.935  23.727   2.399
14508W        W79988  15.098   8.846  12.829
14509W        W79989  34.455  32.455   0.869
14510W        W79990  41.351   7.911   3.182
14511W        W79991  18.651  30.948   1.397
14512W        W79992  10.692  18.192  14.945
14513W        W79993  18.670   7.245   1.254
14514W        W79994  28.489  38.066   1.438
14515W        W79995  37.424  29.088  10.921
14516W        W79996  35.945   7.252   0.252
14517W        W79997  33.939  29.553  12.092
14518W        W79998  27.028  25.057   2.236
14519W        W79999   5.834  11.716  12.530
14520W        W80000  12.685   6.292   4.290
14521W        W80001  25.153  33.932  14.398
14522W        W80002   2.318  22.075   1.283
14523W        W80003  13.820  10.879   4.614
14524W        W80004  30.552  22.027   2.401
14525W        W80005   0.337  32.559   1.793
14526W        W80006   8.778  15.305  12.918
14527W        W80007   8.394  15.692  12.093
14528W        W80008  11.622  23.042  14.455
14529W        W80009  37.365  17.074  11.532
14530W        W80010  25.505  18.753  13.433
14531W        W80011  32.122   3.880  12.834
14532W        W80012  27.155   5.871   1.742
14533W        W80013  11.261  36.853   3.183
14534W        W80014  17.171  22.089  11.572
14535W        W80015   0.968  28.113  10.496
14536W        W80016   3.437  27.040  13.806
14537W        W80017  30.471  13.242  12.443
14538W        W80018  12.178   5.752   4.307
14539W        W80019  34.548  39.460   1.351
14540W        W80020  23.212   2.750  12.966
14541W        W80021  28.174  43.497  11.377
14542W        W80022  14.125  38.335  14.511
14543W        W80023   7.319  29.536   4.115
14544W        W80024   2.324  33.995  11.598
14545W        W80025  21.554  10.322  12.074
14546W        W80026   5.868  28.940   2.372
14547W        W80027  26.678  26.580  13.545
14548W        W80028  27.136   2.240  11.954
14549W        W80029  11.175   3.817   0.359
14550W        W80030  35.999  19.630  13.834
14551W        W80031  24.186  18.774  11.388
14552W        W80032  24.078   8.715  13.031
14553W        W80033  24.028  40.335   1.419
14554W        W80034  22.732  36.990   1.347
14555W        W80035  13.341  27.075   4.600
14556W        W80036  21.686  28.581  11.071
14557W        W80037  18.585  19.134  14.856
14558W        W80038  31.521  28.499  14.485
14559W        W80039  18.605   7.759   1.332
14560W        W80040  23.679  26.093  11.383
14561W        W80041  18.080   6.394  10.633
14562W        W80042   4.831  18.772  13.060
14563W        W80043  43.897  18.579   4.739
14564W        W80044  32.940  37.563  14.815
14565W        W80045  13.233  29.565  12.968
14566W        W80046  39.315  19.659   3.195
14567W        W80047  22.657  14.807   3.181
14568W        W80048  35.974  36.009   3.243
14569W        W80049  35.889   2.865  12.033
14570W        W80050  43.005  17.145   1.906
14571W        W80051  15.255  41.461   1.762
14572W        W80052  22.145  37.861  11.100
14573W        W80053  22.659  18.225   4.290
14574W        W80054  22.544   4.930   0.437
14575W        W80055  28.097  39.950  14.279
14576W        W80056  12.828  40.002   4.648
14577W        W80057  30.574  41.811   0.370
14578W        W80058  17.698  15.718  11.038
14579W        W80059  15.146  21.757   3.853
14580W        W80060  10.815  14.147  12.030
14581W        W80061  42.423  41.794   1.261
14582W        W80062  44.772  37.414   1.794
14583W        W80063  13.330  25.557  10.557
14584W        W80064  28.606  18.119   1.875
14585W        W80065  30.590  44.292   2.398
14586W        W80066  25.704  12.707   0.754
14587W        W80067  32.086  30.532   4.229
14588W        W80068  37.916  25.495  12.019
14589W        W80069   9.385   2.282   1.376
14590W        W80070  26.479  20.747   2.413
14591W        W80071   3.709  32.589   4.295
14592W        W80072  32.455  22.044   3.728
14593W        W80073  37.555   4.842   2.881
14594W        W80074   8.202  29.131   4.252
14595W        W80075  31.981  33.410   0.897
14596W        W80076   6.696   1.441  11.025
14597W        W80077  13.169  27.641   0.865
14598W        W80078  44.426  32.066  11.868
14599W        W80079   6.745  39.341   2.310
14600W        W80080   6.748   5.438  10.622
14601W        W80081   7.808  35.885  13.901
14602W        W80082   7.312  28.592   3.377
14603W        W80083  41.441   7.250  14.382
14604W        W80084   6.822   6.923  11.856
14605W        W80085  22.077  12.760   1.367
14606W        W80086   0.768  37.885   1.811
14607W        W80087  33.611   6.786  13.860
14608W        W80088  29.574  35.416   0.280
14609W        W80089  14.101  10.865  11.862
14610W        W80090  30.980  21.126   3.749
14611W        W80091  15.627  10.382   2.255
14612W        W80092  37.951  27.604  12.979
14613W        W80093  42.527  26.511  13.981
14614W        W80094  43.385  19.647  14.945
14615W        W80095  15.287  15.699  10.475
14616W        W80096  24.136  22.072  12.012
14617W        W80097  40.936  41.858   4.706
14618W        W80098   3.775  27.103   0.773
14619W        W80099   7.173   6.227  14.950
14620W        W80100  40.855  18.106   1.374
14621W        W80101  35.465  22.102   2.694
14622W        W80102  40.991  40.828   4.830
14623W        W80103   6.851  24.478   1.787
14624W        W80104  43.798  28.009   2.724
14625W        W80105  39.817  33.909  11.022
14626W        W80106  19.709  38.341   1.911
14627W        W80107  35.377  43.797  12.092
14628W        W80108   9.783  24.504   2.876
14629W        W80109   6.284  32.487   2.752
14630W        W80110  18.255  17.594   3.272
14631W        W80111  11.806  34.431  13.396
14632W        W80112  18.054  22.703  13.536
14633W        W80113  31.150  15.204  14.943
14634W        W80114  37.463  21.070   0.320
14635W        W80115  35.858   9.820  10.419
14636W        W80116  34.954  32.012  11.029
14637W        W80117  26.486  25.532   1.741
14638W        W80118  32.493   3.260  14.850
14639W        W80119   4.211  38.472   2.665
14640W        W80120  42.287  29.454  10.893
14641W        W80121   3.719  44.452  10.966
14642W        W80122  35.900   8.298  10.581
14643W        W80123   6.692   5.728  10.588
14644W        W80124  17.713   1.398  11.441
14645W        W80125  38.535  31.917  11.584
14646W        W80126   6.253  26.558  14.348
14647W        W80127  32.885   1.407  12.008
14648W        W80128  25.515   1.265   2.801
14649W        W80129   8.362  31.571  13.850
14650W        W80130  25.566  27.613  14.313
14651W        W80131  38.475  20.274   4.320
14652W        W80132  17.064  11.205   2.771
14653W        W80133  44.266   3.849  11.921
14654W        W80134  25.998  38.945  13.926
14655W        W80135  32.052  43.814  12.343
14656W        W80136  23.088   9.204  12.451
14657W        W80137  13.314  15.200   1.409
14658W        W80138  40.342  17.178   4.679
14659W        W80139   1.327  43.882   3.638
14660W        W80140  16.247  33.591  14.327
14661W        W80141   7.276  10.776   1.300
14662W        W80142  36.878  14.657   2.825
14663W        W80143  20.695   3.783   0.247
14664W        W80144   6.200  23.130   4.206
14665W        W80145   0.976  38.419   3.233
14666W        W80146   1.758  21.065   0.294
14667W        W80147  41.459  22.677  14.422
14668W        W80148   6.766  35.458   2.666
14669W        W80149  37.523  39.918   2.729
14670W        W80150  19.187  16.198  10.552
14671W        W80151  44.275  22.235   4.746
14672W        W80152  11.824  34.574   1.907
14673W        W80153   3.894  15.640  14.370
14674W        W80154  19.218  19.216  12.976
14675W        W80155  43.488   1.308  10.945
14676W        W80156   4.246  33.394  12.061
14677W        W80157   2.368  32.575   5.113
14678W        W80158   1.940  27.145   2.864
14679W        W80159  39.419  42.448   4.310
14680W        W80160  33.600  27.658  10.459
14681W        W80161  21.057   3.444  10.635
14682W        W80162  42.926  16.250   3.817
14683W        W80163  18.189  18.175  14.360
14684W        W80164  34.393  26.073   1.353
14685W        W80165  31.148  44.495  12.905
14686W        W80166  17.267  34.973   3.314
14687W        W80167  23.678   9.311  11.407
14688W        W80168  36.486  13.210  11.990
14689W        W80169   1.301   2.358   4.685
14690W        W80170  11.194  13.152  10.963
14691W        W80171   9.216  14.154   1.234
14692W        W80172  38.418  15.152   4.787
14693W        W80173  33.592  18.242   4.130
14694W        W80174  41.852  22.167   2.380
14695W        W80175  24.095  25.007   1.396
14696W        W80176  25.712   3.774  11.887
14697W        W80177   9.685  33.448   2.357
14698W        W80178  28.460  30.575  13.921
14699W        W80179  18.758  43.388  11.100
14700W        W80180  26.649  44.261  11.981
14701W        W80181  22.515  27.953  10.510
14702W        W80182  17.717  44.429   2.400
14703W        W80183  42.799   1.250   4.237
14704W        W80184  27.522  30.150   1.252
14705W        W80185  24.103  43.301   2.866
14706W        W80186   2.398   3.271   2.415
14707W        W80187  41.952  37.971  11.080
14708W        W80188   5.398   1.907   1.926
14709W        W80189  30.455   6.368  11.064
14710W        W80190  11.305  24.221  13.042
14711W        W80191   4.296   6.264  14.825
14712W        W80192  37.040   5.933   1.904
14713W        W80193  36.348  31.981   4.699
14714W        W80194  20.050   0.831  11.987
14715W        W80195  12.221  30.914   4.144
14716W        W80196   5.427  32.047  10.964
14717W        W80197  27.197  11.827  14.860
14718W        W80198  39.940  36.457   1.216
14719W        W80199  24.222   0.863   0.272
14720W        W80200   7.859  37.930  12.427
14721W        W80201  18.688  39.332   2.234
14722W        W80202  36.583  41.825  13.308
14723W        W80203   3.780   2.368  13.827
14724W        W80204  21.228   0.750   2.383
14725W        W80205  44.830  15.139  12.460
14726W        W80206  22.725   6.852   4.779
14727W        W80207  35.005  24.091  11.086
14728W        W80208  17.587   7.174  10.440
14729W        W80209   4.720  23.515   1.813
14730W        W80210   0.931  21.634   1.342
14731W        W80211  16.681  44.874   3.296
14732W        W80212  44.261  42.515   2.286
14733W        W80213   3.241   9.688  12.579
14734W        W80214   5.253  33.111   1.320
14735W        W80215  40.494  41.407  10.947
14736W        W80216  32.103  28.040   5.249
14737W        W80217  36.027  42.833  14.022
14738W        W80218   6.874  27.559  11.905
14739W        W80219  30.546   9.176   5.107
14740W        W80220  29.480   2.425  11.498
14741W        W80221  39.537  24.011   3.254
14742W        W80222  44.805  26.109  12.966
14743W        W80223  19.153  29.478  11.583
14744W        W80224  44.755  31.119   1.765
14745W        W80225   5.880  38.483   2.374
14746W        W80226  37.959  35.579   0.792
14747W        W80227  20.064  38.351  14.497
14748W        W80228  44.003   2.336  10.597
14749W        W80229  30.109   4.870  13.308
14750W        W80230   4.861  37.404   0.925
14751W        W80231  21.615  13.245   2.365
14752W        W80232   0.864   3.915   1.410
14753W        W80233  26.092  36.498  11.968
14754W        W80234   7.910  23.568   4.774
14755W        W80235   5.230  39.527   0.770
14756W        W80236   8.401  27.567  11.128
14757W        W80237  40.828   3.892   1.356
14758W        W80238  30.466   0.303  14.911
14759W        W80239  34.863  43.508   1.341
14760W        W80240   1.903  44.005   0.401
14761W        W80241  43.850  18.225  13.827
14762W        W80242  34.867   8.782  10.643
14763W        W80243  36.578   0.288   0.353
14764W        W80244  27.042  17.706   0.247
14765W        W80245   0.858  39.528   3.866
14766W        W80246   6.893  44.901  11.474
14767W        W80247   4.245  29.455   0.310
14768W        W80248  43.286  25.036  11.611
14769W        W80249   9.361  30.999  12.048
14770W        W80250   3.915  23.569  13.532
14771W        W80251  12.236   9.341  12.464
14772W        W80252  27.646   6.755  14.776
14773W        W80253  34.084  25.685   3.343
14774W        W80254   6.266  44.992  12.924
14775W        W80255  33.101  37.495  13.353
14776W        W80256  16.571  31.025  14.831
14777W        W80257   7.876  42.292   4.260
14778W        W80258  15.627   1.462   2.666
14779W        W80259  13.706   8.348   3.735
14780W        W80260   2.860  19.165  13.903
14781W        W80261  42.456  44.436  13.451
14782W        W80262  23.703  21.607   2.209
14783W        W80263  23.554   7.334  11.588
14784W        W80264  44.810   7.870   2.796
14785W        W80265  36.017  15.164   0.949
14786W        W80266   4.784  17.655  11.873
14787W        W80267  39.927   6.313  11.938
14788W        W80268  16.086   2.255  12.096
14789W        W80269   0.301  31.120   0.895
14790W        W80270   8.846  39.538   3.710
14791W        W80271  31.921   1.895  11.995
14792W        W80272   8.301   2.757  10.556
14793W        W80273   3.349  35.495  13.480
14794W        W80274  44.260  17.635   0.279
14795W        W80275  24.597  26.682  12.981
14796W        W80276  18.137  22.561   3.799
14797W        W80277  41.853  16.721   2.234
14798W        W80278  14.123  27.079   2.297
14799W        W80279  42.018   0.373  10.926
14800W        W80280  36.891  34.115  13.890
14801W        W80281  11.314   1.794  14.410
14802W        W80282   4.804  14.170   1.335
14803W        W80283  38.062   4.360   1.394
14804W        W80284  25.185  24.129   5.304
14805W        W80285  41.391  37.379   0.399
14806W        W80286   3.375  34.969  11.116
14807W        W80287   5.830  19.679   0.454
14808W        W80288   2.289  15.166   3.856
14809W        W80289  15.179  34.536   2.394
14810W        W80290  30.958   0.808  12.999
14811W        W80291  30.537   0.918   1.303
14812W        W80292  44.932  44.456  11.416
14813W        W80293   5.752   7.701   4.727
14814W        W80294   2.796  14.276  12.407
14815W        W80295   5.880   2.297   2.257
14816W        W80296  44.310  32.617   2.351
14817W        W80297  18.638   4.293  14.362
14818W        W80298  31.440  35.434  14.480
14819W        W80299  30.046  27.105   3.860
14820W        W80300  23.589  17.095   0.955
14821W        W80301   2.227  28.184   0.873
14822W        W80302   8.281   7.734   2.258
14823W        W80303  44.903  23.658   2.204
14824W        W80304   5.323  26.697   3.331
14825W        W80305  34.574  38.010   0.394
14826W        W80306  43.396   3.346   1.395
14827W        W80307   2.238  13.781   0.397
14828W        W80308  28.584   1.321   1.327
14829W        W80309  14.159  22.041   0.832
14830W        W80310  41.920  25.056  11.573
14831W        W80311   9.258  22.731   1.323
14832W        W80312  10.361  27.942   3.282
14833W        W80313  24.600   4.238   1.854
14834W        W80314  29.957  17.168  12.846
14835W        W80315   7.368  37.568   3.334
14836W        W80316   8.183  22.602  12.086
14837W        W80317  25.647  40.460  14.897
14838W        W80318   9.711  13.231  13.437
14839W        W80319  37.571  17.249  12.394
14840W        W80320   2.359  15.783  10.100
14841W        W80321  15.201   2.421   0.454
14842W        W80322  42.441  31.584   3.766
14843W        W80323   7.757  35.870   1.924
14844W        W80324  42.364   5.315   3.758
14845W        W80325   3.353  29.023   0.740
14846W        W80326  15.594  17.182  11.107
14847W        W80327   8.266  24.164   1.344
14848W        W80328   2.295  35.593   0.763
14849W        W80329  22.084  18.767  10.603
14850W        W80330  10.747  32.980  10.613
14851W        W80331  33.942  35.484   0.291
14852W        W80332  28.655  32.415   3.669
14853W        W80333  15.200  30.624   1.225
14854W        W80334   9.717  40.366  13.048
14855W        W80335   1.358  39.866   3.386
14856W        W80336  23.103  26.058   2.212
14857W        W80337   6.340  18.141   3.779
14858W        W80338  27.028   2.368   1.826
14859W        W80339   0.892   5.386   3.631
14860W        W80340  21.558   1.935   2.260
14861W        W80341  40.369  35.464   4.156
14862W        W80342   0.778  11.271   2.804
14863W        W80343  14.780  40.800   4.665
14864W        W80344   7.199  16.141  13.877
14865W        W80345  35.876  40.839   0.780
14866W        W80346  27.007   7.254  12.381
14867W        W80347  18.113   9.806  14.975
14868W        W80348  40.399  18.140   3.172
14869W        W80349  11.237  13.701   0.892
14870W        W80350  33.453   7.742  11.534
14871W        W80351   5.755  42.340  12.921
14872W        W80352  34.995  29.517  11.375
14873W        W80353  38.459   7.293   1.704
14874W        W80354  36.539  34.588  13.015
14875W        W80355  39.420  28.591   4.339
14876W        W80356  30.968  34.036   1.274
14877W        W80357  32.026  42.500   2.839
14878W        W80358  38.071  29.012  10.923
14879W        W80359  37.345   5.214  14.387
14880W        W80360  13.108  10.305   0.342
14881W        W80361  42.862  26.207  11.011
14882W        W80362  44.800  10.144   2.903
14883W        W80363  38.820  13.807   3.808
14884W        W80364  42.363  26.029   4.708
14885W        W80365   3.930  23.711   3.160
14886W        W80366  29.936  42.980  10.473
14887W        W80367  26.955  42.979   0.837
14888W        W80368  32.529  13.137  13.345
14889W        W80369  40.982  21.667  11.041
14890W        W80370  30.957  22.085   2.260
14891W        W80371  13.299  26.074   4.333
14892W        W80372  35.083  17.234   5.288
14893W        W80373   3.753  32.467  10.578
14894W        W80374  10.203   0.444   4.249
14895W        W80375  36.016  15.778  11.979
14896W        W80376  38.410  24.525   3.869
14897W        W80377  17.591  20.210   4.214
14898W        W80378   2.883  13.199   0.324
14899W        W80379   5.871  13.200  11.881
14900W        W80380  10.301  17.179  14.016
14901W        W80381  12.146  22.139  13.014
14902W        W80382  23.192   9.322   5.193
14903W        W80383   8.885  29.958   4.771
14904W        W80384  10.345  41.398   3.357
14905W        W80385  15.314  18.182  12.912
14906W        W80386  32.029  26.020   0.797
14907W        W80387  34.519  44.427  10.977
14908W        W80388  30.101  17.099  11.090
14909W        W80389  10.285  29.610   1.892
14910W        W80390  35.105  28.932   2.231
14911W        W80391   7.706  19.534  14.881
14912W        W80392  30.427  15.289  12.869
14913W        W80393  25.594  25.642   4.160
14914W        W80394   0.824  22.656   2.662
14915W        W80395  25.608  18.163  10.890
14916W        W80396  10.347   1.957   2.833
14917W        W80397  30.051  33.131   3.337
14918W        W80398  10.150  35.025  14.850
14919W        W80399  23.037  42.490  12.912
14920W        W80400   4.863  18.287  10.608
14921W        W80401  20.697  10.802   1.390
14922W        W80402   9.250   2.773  14.835
14923W        W80403   6.358  39.874  14.976
14924W        W80404  17.698  39.467  11.914
14925W        W80405  14.330  32.043  13.864
14926W        W80406  20.591  26.053  13.055
14927W        W80407  25.098  10.813   2.386
14928W        W80408  21.705  29.149  12.427
14929W        W80409  11.305  43.272  14.948
14930W        W80410  36.578  28.115  10.129
14931W        W80411  30.658  21.148   2.685
14932W        W80412  33.438   6.814   0.380
14933W        W80413  21.018  38.424  10.135
14934W        W80414  14.742  38.393  10.972
14935W        W80415  17.621  44.859   2.388
14936W        W80416  12.619  25.575  12.960
14937W        W80417  44.440  32.069   0.285
14938W        W80418  39.816   1.394  14.448
14939W        W80419  39.043  32.539  11.110
14940W        W80420  24.224   3.290  12.477
14941W        W80421  18.084  11.721   4.605
14942W        W80422   9.378  20.553  10.404
14943W        W80423  44.284  17.630   4.300
14944W        W80424  35.954  26.544  14.920
14945W        W80425  15.225  29.497  12.565
14946W        W80426  26.532  31.026   2.777
14947W        W80427  36.071  21.542  12.956
14948W        W80428   5.868  38.374   3.382
14949W        W80429  32.518   2.359  10.902
14950W        W80430  11.786  33.038   1.808
14951W        W80431  33.025   1.833  13.430
14952W        W80432  42.989   9.769  14.981
14953W        W80433  24.048  34.899  13.937
14954W        W80434  35.466  41.955  13.393
14955W        W80435  39.442  35.028  13.508
14956W        W80436  12.220  37.933   4.262
14957W        W80437  20.729  28.597  11.045
14958W        W80438  40.920  31.023   1.883
14959W        W80439  37.850  25.561   4.126
14960W        W80440   5.765   4.318   3.194
14961W        W80441  43.347  21.522   0.850
14962W        W80442  29.064  43.904   1.423
14963W        W80443  44.774   7.224   1.218
14964W        W80444  23.107  12.716   4.829
14965W        W80445  36.078  24.042  13.851
14966W        W80446  39.333   5.349   0.863
14967W        W80447  20.637  25.022  13.377
14968W        W80448  43.979  43.012   4.797
14969W        W80449  28.460  26.193  11.534
14970W        W80450  42.390  42.790  10.578
14971W        W80451  22.552  11.170   4.704
14972W        W80452  16.666  43.821  12.986
14973W        W80453  27.121  35.407  14.418
14974W        W80454  13.701  27.617  12.908
14975W        W80455  24.035  44.834   2.798
14976W        W80456   0.314  11.321  13.345
14977W        W80457  25.019  13.615  12.530
14978W        W80458  21.746  15.186   3.170
14979W        W80459   8.794   8.775  12.940
14980W        W80460   9.725  34.389   4.751
14981W        W80461  40.413  25.175   3.264
14982W        W80462  25.545   9.313   4.270
14983W        W80463   5.864  41.860  11.445
14984W        W80464  15.263  16.267  11.583
14985W        W80465  18.733  43.306   4.199
14986W        W80466  27.616  29.642  11.537
14987W        W80467   5.391  31.467   0.311
14988W        W80468  28.948   3.419  14.498
14989W        W80469  33.582  43.503   0.327
14990W        W80470   7.277  43.015  10.566
14991W        W80471  38.363  31.114   4.664
14992W        W80472  30.516  44.442  11.889
14993W        W80473   4.259   1.948  13.033
14994W        W80474  26.044  36.991  11.111
14995W        W80475  21.669  40.860  12.390
14996W        W80476  21.693  13.797  11.570
14997W        W80477  40.959  27.953   3.691
14998W        W80478  19.119  23.097   4.133
14999W        W80479  35.991  37.861   4.331
15000W        W80480  18.133  38.940  12.398
15001W        W80481  42.915  29.035  11.039
15002W        W80482  28.657  39.329   0.758
15003W        W80483  34.942   2.873  11.957
15004W        W80484  13.660  14.098  12.527
15005W        W80485  34.917  38.381  14.448
15006W        W80486  40.488   7.330   0.792
15007W        W80487  39.396  41.407   0.890
15008W        W80488   2.945  38.421   4.120
15009W        W80489   1.465  27.449   4.157
15010W        W80490  30.655  19.593  13.977
15011W        W80491  12.611  21.025   3.652
15012W        W80492  19.580  44.788  14.469
15013W        W80493  41.787  27.013   3.803
15014W        W80494  15.728   8.750  14.897
15015W        W80495  33.450   5.823   3.639
15016W        W80496  31.426  20.549  14.449
15017W        W80497  26.019  30.084   0.404
15018W        W80498  13.791  14.257  11.391
15019W        W80499  24.519  13.212   4.212
15020W        W80500  16.280   4.876  10.561
15021W        W80501  26.536  25.469  14.515
15022W        W80502  34.011  25.079  13.386
15023W        W80503  41.950  22.107   4.728
15024W        W80504  26.616  31.028  13.806
15025W        W80505   5.293  23.505   0.254
15026W        W80506   0.345  24.112   0.776
15027W        W80507  22.729  25.656   3.826
15028W        W80508  36.531  25.580   2.730
15029W        W80509   0.918  37.861  13.516
15030W        W80510  28.946  32.452   1.264
15031W        W80511  19.166  16.794   1.844
15032W        W80512   2.366  37.861   1.758
15033W        W80513  18.189  11.780   2.178
15034W        W80514  12.856  21.678  13.812
15035W        W80515  28.563  34.517  12.946
15036W        W80516  10.258  18.766   2.192
15037W        W80517   8.750  44.988   2.786
15038W        W80518   3.770  38.539  12.868
15039W        W80519   8.704  21.145   4.728
15040W        W80520  22.577   8.670   2.794
15041W        W80521  34.485   8.328  13.039
15042W        W80522   9.284  35.937   9.959
15043W        W80523  15.726  15.270   4.767
15044W        W80524  35.485  29.142   1.724
15045W        W80525  44.493  18.071  10.995
15046W        W80526   3.837  32.444  14.384
15047W        W80527  20.273  38.971  10.460
15048W        W80528   1.899  41.397  14.840
15049W        W80529  32.054  44.314   4.286
15050W        W80530  27.674  16.648  10.532
15051W        W80531  15.305  27.151  14.275
15052W        W80532  20.141   7.806  11.874
15053W        W80533  39.493  21.521  13.980
15054W        W80534  26.132  36.581  11.045
15055W        W80535  20.527   3.746  12.024
15056W        W80536  14.151  16.255  12.851
15057W        W80537   1.247  31.432  12.009
15058W        W80538  26.544  39.348  12.491
15059W        W80539  41.975   3.866  13.512
15060W        W80540   0.978   2.409   4.688
15061W        W80541  19.224  36.435  13.324
15062W        W80542   9.198  11.139  14.889
15063W        W80543  14.688  20.101   4.747
15064W        W80544  25.609   1.768  14.870
15065W        W80545   0.963   0.459   0.744
15066W        W80546  29.654  13.616   2.763
15067W        W80547  22.730  20.201   4.662
15068W        W80548  16.198  41.839  13.397
15069W        W80549  22.087   1.463   2.718
15070W        W80550  14.646   2.883  13.974
15071W        W80551  43.470  40.501   1.897
15072W        W80552  38.859  29.033   9.948
15073W        W80553  29.527  24.975   4.156
15074W        W80554  23.630  14.286  12.007
15075W        W80555  27.110  29.575   4.227
15076W        W80556  30.469  25.568  11.504
15077W        W80557  24.050  44.477  13.883
15078W        W80558  33.887   8.368   4.296
15079W        W80559  31.577   8.251   4.218
15080W        W80560   2.746  44.433  13.847
15081W        W80561  14.639  18.077  13.037
15082W        W80562  25.655  44.953   9.662
15083W        W80563  40.903  25.981  11.481
15084W        W80564  43.473   4.307  14.417
15085W        W80565  35.895  40.499  12.362
15086W        W80566  13.813  36.547   0.867
15087W        W80567  36.407  19.084  12.086
15088W        W80568  43.948  34.489   2.396
15089W        W80569  34.096  22.132   3.732
15090W        W80570  42.817   9.238  14.029
15091W        W80571   4.766  21.569  11.889
15092W        W80572  15.249  42.834   0.291
15093W        W80573  40.338   8.288  11.986
15094W        W80574  18.594  42.799  10.531
15095W        W80575   0.487  40.498  14.469
15096W        W80576  29.456  24.507  12.992
15097W        W80577  29.459   7.668  12.082
15098W        W80578   5.229  19.044   0.310
15099W        W80579  37.554   3.219   0.902
15100W        W80580  22.642  19.606   2.810
15101W        W80581   4.779  25.184  14.778
15102W        W80582  18.767  36.933  13.000
15103W        W80583  35.484  22.538  10.413
15104W        W80584  19.667  25.181  12.351
15105W        W80585  12.654  12.767   0.914
15106W        W80586   6.370   1.750  11.876
15107W        W80587   7.269  42.340  13.862
15108W        W80588  12.273  22.011   1.771
15109W        W80589  14.318  12.793   4.255
15110W        W80590   7.336  28.559  11.044
15111W        W80591  16.120  40.881  14.375
15112W        W80592   2.335  34.375   1.345
15113W        W80593  14.608  16.145  13.489
15114W        W80594  22.197  21.715   0.760
15115W        W80595  32.035   6.284   0.447
15116W        W80596  35.525  39.380   3.211
15117W        W80597  23.598  16.089  12.534
15118W        W80598  40.341  34.891   4.823
15119W        W80599  39.469  39.913  14.015
15120W        W80600   1.759   0.770   3.273
15121W        W80601  11.319  21.627   1.214
15122W        W80602   1.402   0.369   3.314
15123W        W80603  17.294  42.826  10.060
15124W        W80604   3.357  15.822   2.340
15125W        W80605  33.521  43.841  14.486
15126W        W80606  23.586  43.394   4.805
15127W        W80607  32.516  13.698   2.668
15128W        W80608   2.336  15.804  10.515
15129W        W80609   0.307  31.473  13.538
15130W        W80610  26.463  22.547   2.855
15131W        W80611  14.157  17.154  10.504
15132W        W80612  27.121  14.797   0.860
15133W        W80613  27.087  32.058  14.486
15134W        W80614  43.389  24.659   3.755
15135W        W80615  19.164   0.284  11.009
15136W        W80616   2.748  37.917  14.437
15137W        W80617  11.755   9.253  11.872
15138W        W80618  13.729   1.249   2.217
15139W        W80619   6.805  28.543  13.458
15140W        W80620  38.388  25.085   4.316
15141W        W80621  32.113   3.726  13.915
15142W        W80622  12.805  43.444   9.994
15143W        W80623  17.562  15.203  12.450
15144W        W80624  10.347  15.264   0.309
15145W        W80625  44.912  26.187  14.395
15146W        W80626  35.592  14.339  14.967
15147W        W80627  25.180   8.755   4.787
15148W        W80628   1.371  39.493   2.294
15149W        W80629  40.343   3.837  12.355
15150W        W80630  15.727  19.668   0.786
15151W        W80631  11.675  14.639   0.751
15152W        W80632  44.901  41.398   1.285
15153W        W80633  15.757  25.039  10.111
15154W        W80634  40.894  25.158  10.490
15155W        W80635  16.599  28.533  10.609
15156W        W80636  13.665  18.296  12.359
15157W        W80637  31.579  22.012  14.838
15158W        W80638  43.444  41.820   4.126
15159W        W80639   2.960  10.687   4.253
15160W        W80640  14.286  32.578   1.701
15161W        W80641  21.721  33.497  11.543
15162W        W80642  42.995  22.603   0.369
15163W        W80643  18.755  11.784   0.825
15164W        W80644  28.437  33.966   2.223
15165W        W80645  38.506  26.569  14.927
15166W        W80646   4.335  42.391  14.500
15167W        W80647   3.303   1.977   1.421
15168W        W80648  38.471   9.715   4.297
15169W        W80649   2.394  20.720  11.590
15170W        W80650  12.817  21.612  12.070
15171W        W80651  34.390  32.074  11.386
15172W        W80652   3.854   4.774   3.647
15173W        W80653  24.985  17.718  12.852
15174W        W80654   6.763  44.893  12.018
15175W        W80655  10.793  32.437  14.764
15176W        W80656   8.691  42.516  11.466
15177W        W80657  43.420  37.358   3.646
15178W        W80658  23.203  34.895  13.015
15179W        W80659  32.951  32.066  12.391
15180W        W80660   9.326  38.336   2.818
15181W        W80661   1.333  18.136   0.468
15182W        W80662  35.565   2.334  11.098
15183W        W80663  30.524  23.569  11.533
15184W        W80664  41.867  39.920  12.549
15185W        W80665   9.235  42.398   4.634
15186W        W80666  10.668  31.041  13.466
15187W        W80667  10.231  28.026  12.520
15188W        W80668  34.996  35.451   2.833
15189W        W80669   3.769  24.720   1.422
15190W        W80670  44.874  41.895  12.561
15191W        W80671  15.786  36.505  12.050
15192W        W80672  42.497  29.427   1.266
15193W        W80673  43.930  40.547   4.619
15194W        W80674   7.683  14.686   4.657
15195W        W80675  32.632  43.953  14.420
15196W        W80676  20.711  38.829   4.831
15197W        W80677  39.056   8.279  14.808
15198W        W80678  24.558  43.964  12.959
15199W        W80679   6.323  41.520   0.739
15200W        W80680  36.359  12.226  14.359
15201W        W80681   6.877  14.830   1.738
15202W        W80682  42.466  30.041  10.623
15203W        W80683  30.932  28.030   3.850
15204W        W80684   3.724   8.797   5.221
15205W        W80685  29.550  19.074   4.125
15206W        W80686  28.163  17.744  13.329
15207W        W80687   4.219  30.999  11.874
15208W        W80688   9.871  15.259   2.419
15209W        W80689  37.908  23.651  14.339
15210W        W80690  28.656  25.693  13.365
15211W        W80691  40.429   4.896  13.378
15212W        W80692  11.305  17.178   0.835
15213W        W80693  16.744   1.480  10.563
15214W        W80694   3.308   1.452  13.848
15215W        W80695  26.123  15.293  12.477
15216W        W80696  15.213  37.851  11.460
15217W        W80697  17.700  22.032   3.270
15218W        W80698   4.275  19.281   3.247
15219W        W80699  30.011   5.419  11.607
15220W        W80700   3.727  12.776  11.401
15221W        W80701  19.538  42.477  12.945
15222W        W80702  18.133   5.916   1.826
15223W        W80703  23.223  17.126  12.027
15224W        W80704  30.976  36.564   0.913
15225W        W80705  22.127   1.418   4.790
15226W        W80706  38.061   4.267   0.919
15227W        W80707  24.507  40.452  14.814
15228W        W80708  20.723  37.557  12.999
15229W        W80709  13.734  19.061  10.988
15230W        W80710  13.121  40.820   2.728
15231W        W80711   8.358  32.946  11.578
15232W        W80712  38.490  22.650   0.965
15233W        W80713  15.211   1.291  13.379
15234W        W80714  24.976  44.357  14.393
15235W        W80715  13.245  28.070  10.004
15236W        W80716  31.478  41.805  14.933
15237W        W80717   3.240  24.596   2.689
15238W        W80718  29.586   9.867   4.791
15239W        W80719  16.655  12.203   1.924
15240W        W80720  12.190   1.474  13.829
15241W        W80721  23.133   7.364   0.810
15242W        W80722  38.077  25.652   0.797
15243W        W80723  30.995  20.595  14.827
15244W        W80724  42.519   5.738  12.836
15245W        W80725   5.778   0.254  14.395
15246W        W80726  18.179  24.993  14.348
15247W        W80727  44.957  13.760   3.370
15248W        W80728   6.783  35.589  14.438
15249W        W80729   9.314   4.880  13.347
15250W        W80730  39.036  32.939  10.418
15251W        W80731  29.161   0.821  13.987
15252W        W80732  25.712  31.040   4.149
15253W        W80733  27.557  23.525  12.356
15254W        W80734   7.756   1.735  14.420
15255W        W80735  31.036  44.501   0.387
15256W        W80736  25.990  35.065   3.706
15257W        W80737  32.930  18.774   3.710
15258W        W80738  25.699  35.567  11.514
15259W        W80739   3.364   6.731   3.275
15260W        W80740   1.367   7.216   2.884
15261W        W80741  13.705  32.557  13.803
15262W        W80742  28.121   5.427  13.854
15263W        W80743   5.708  37.933   3.710
15264W        W80744   2.304  26.615  13.039
15265W        W80745  26.007  20.618   4.655
15266W        W80746  27.957   7.359  10.041
15267W        W80747  21.734  33.403   1.262
15268W        W80748   1.453  32.600   2.229
15269W        W80749  25.562  25.687  11.078
15270W        W80750  21.703  34.090   0.920
15271W        W80751  31.018  32.091   3.308
15272W        W80752  32.091  11.749  10.644
15273W        W80753  35.883  32.451  11.013
15274W        W80754  39.354  10.236   3.162
15275W        W80755   4.417   2.941  12.070
15276W        W80756   9.203  11.221   3.745
15277W        W80757   8.186  34.016  11.601
15278W        W80758   5.734  41.327  11.532
15279W        W80759  10.293  30.453   2.258
15280W        W80760  25.179   8.325   3.767
15281W        W80761  21.116  42.491  13.424
15282W        W80762  43.943  21.087  12.489
15283W        W80763  13.250  37.987  12.897
15284W        W80764  22.027  29.556   3.276
15285W        W80765  35.079  22.007   1.389
15286W        W80766  12.628  42.480   2.801
15287W        W80767   5.931  32.089   4.812
15288W        W80768  35.917   9.384   0.763
15289W        W80769  37.515   0.271  13.050
15290W        W80770  37.045  41.314   4.151
15291W        W80771  12.622   3.797   2.766
15292W        W80772  40.462  39.892  12.830
15293W        W80773   9.326  40.422  14.797
15294W        W80774  22.717  20.244  10.597
15295W        W80775  22.670  29.529   1.783
15296W        W80776  34.500  27.468  12.017
15297W        W80777  38.935  13.685  10.424
15298W        W80778  21.196   9.705  13.963
15299W        W80779  23.673  41.902  14.891
15300W        W80780  31.501   8.771   0.295
15301W        W80781  44.989   3.911   4.611
15302W        W80782  28.656  30.488  13.052
15303W        W80783  43.931  38.404  12.879
15304W        W80784  33.889  39.947  14.891
15305W        W80785  18.682   8.718   2.801
15306W        W80786  17.263   0.258  14.388
15307W        W80787  30.626   5.429  13.996
15308W        W80788  37.424   8.397  13.318
15309W        W80789  43.441  16.119  14.516
15310W        W80790  39.405  23.210  12.987
15311W        W80791   9.335  19.537  11.936
15312W        W80792  14.693  33.406   3.255
15313W        W80793  39.869  30.653   4.806
15314W        W80794   2.845  24.114   3.364
15315W        W80795  26.088  39.861  13.895
15316W        W80796  12.249  13.259   4.205
15317W        W80797  32.411  13.178  14.405
15318W        W80798  13.185   6.715   3.794
15319W        W80799  43.955  19.165   4.785
15320W        W80800  10.284  24.079   0.863
15321W        W80801   7.364  33.615  14.457
15322W        W80802  25.214  29.999   0.277
15323W        W80803  12.732  41.844   2.313
15324W        W80804  29.931  26.132   2.313
15325W        W80805  21.521  36.015   1.899
15326W        W80806  19.266   3.334   3.353
15327W        W80807  25.101  34.950  12.415
15328W        W80808  27.500  15.658   3.723
15329W        W80809  17.169  40.844   1.253
15330W        W80810  22.696  20.038  14.853
15331W        W80811  12.740  13.658  14.453
15332W        W80812  43.941  11.299   2.788
15333W        W80813   6.384  18.052  10.022
15334W        W80814  24.708  41.918   3.189
15335W        W80815  44.283  38.343  14.402
15336W        W80816  11.253  29.983   4.654
15337W        W80817  37.447  14.192  12.384
15338W        W80818  25.551  39.962   4.830
15339W        W80819  18.095   1.432  14.311
15340W        W80820  21.628  16.788  13.843
15341W        W80821  29.535  25.511  14.945
15342W        W80822  36.453  32.997  11.000
15343W        W80823  27.014  31.614  12.935
15344W        W80824  25.974  28.057   0.382
15345W        W80825  19.542  21.534  10.472
15346W        W80826  38.559  44.781   1.271
15347W        W80827  41.406  33.457  12.078
15348W        W80828   9.328  33.907   2.282
15349W        W80829  22.668  29.944  13.824
15350W        W80830  31.075  11.678  11.471
15351W        W80831  18.767  14.143   4.624
15352W        W80832  35.868  42.926   5.215
15353W        W80833  32.968  38.976   0.472
15354W        W80834  44.920  43.467  13.910
15355W        W80835   0.314   0.256  11.899
15356W        W80836  30.030   2.831  14.989
15357W        W80837  12.254  21.534  13.960
15358W        W80838   1.963  17.174   4.168
15359W        W80839  29.148   6.336  12.959
15360W        W80840  43.447  41.971   4.642
15361W        W80841  19.544  13.687  10.453
15362W        W80842  36.383  27.052  13.921
15363W        W80843  25.109  16.272   2.232
15364W        W80844  17.097  36.573  12.876
15365W        W80845   9.166  44.001  10.915
15366W        W80846  36.395  21.089   3.152
15367W        W80847  35.901  25.592   0.321
15368W        W80848   8.754   3.431   1.232
15369W        W80849  14.166  18.196   2.348
15370W        W80850   2.731  27.631   4.316
15371W        W80851   2.897   1.315   4.630
15372W        W80852  22.606  39.953  13.840
15373W        W80853   1.737  27.144   4.159
15374W        W80854   1.243  41.852  12.528
15375W        W80855  44.479  14.776   3.764
15376W        W80856  11.681   0.468  11.984
15377W        W80857  41.000  32.140   4.686
15378W        W80858  32.114  19.610   5.179
15379W        W80859  24.520  39.881   3.261
15380W        W80860  15.685  33.454  11.437
15381W        W80861  18.081  34.369  13.389
15382W        W80862  44.957  19.054   0.946
15383W        W80863  32.097  41.502  14.924
15384W        W80864  26.673  43.797   4.232
15385W        W80865   2.891  31.132  12.580
15386W        W80866  31.930  23.168  13.951
15387W        W80867  12.280   6.285   2.265
15388W        W80868  37.556  30.566  11.433
15389W        W80869  25.675   4.300  10.490
15390W        W80870   6.783  33.510   0.249
15391W        W80871  39.810   9.717   1.717
15392W        W80872   4.759  18.674   0.794
15393W        W80873  17.739  21.538  14.840
15394W        W80874   9.378  24.501   0.903
15395W        W80875  34.949   5.403   3.648
15396W        W80876   5.392   6.356  11.115
15397W        W80877  37.914   6.801   1.281
15398W        W80878  32.404  41.393   4.800
15399W        W80879  23.562  18.293  14.836
15400W        W80880  39.431   5.774   2.846
15401W        W80881  31.041  28.535  14.786
15402W        W80882  35.406  33.517   2.775
15403W        W80883  28.982  35.363   4.243
15404W        W80884   5.811  28.512   3.331
15405W        W80885  11.740  18.732   2.270
15406W        W80886   4.859  39.054  14.026
15407W        W80887  38.860  35.423   2.667
15408W        W80888  34.894  20.134  10.483
15409W        W80889   5.358  28.090   0.290
15410W        W80890  17.195  34.099  13.532
15411W        W80891  34.975  21.721  11.506
15412W        W80892  30.112  15.289   4.604
15413W        W80893  18.591   0.824  13.868
15414W        W80894  11.739  14.768   4.329
15415W        W80895  41.916  27.567   0.798
15416W        W80896  33.958  39.360   0.813
15417W        W80897  35.961  42.918   2.395
15418W        W80898   6.348  42.521   4.769
15419W        W80899  18.056  14.102  10.580
15420W        W80900  10.754  28.519  14.969
15421W        W80901  13.171  21.589  11.003
15422W        W80902  37.373  32.607  11.879
15423W        W80903  33.493  27.166  12.539
15424W        W80904   6.872  27.112   3.344
15425W        W80905  13.785  17.759  12.997
15426W        W80906  21.589  15.157   2.842
15427W        W80907  19.600   8.224   1.807
15428W        W80908  25.020  32.080  11.398
15429W        W80909  33.967   7.412  12.826
15430W        W80910   0.346  31.478   0.354
15431W        W80911  18.128  32.035   4.633
15432W        W80912  38.408  10.197  11.900
15433W        W80913  42.882  25.044   0.332
15434W        W80914   9.342   0.286   3.753
15435W        W80915   2.316   0.428   1.705
15436W        W80916   6.354   3.837  13.422
15437W        W80917   9.188  11.758  13.439
15438W        W80918  42.875   8.756   0.843
15439W        W80919  24.228  19.706   4.660
15440W        W80920  39.991  40.471  14.850
15441W        W80921  10.781  25.047   2.894
15442W        W80922   3.329  34.417  11.032
15443W        W80923  37.488  12.168  13.387
15444W        W80924   9.157  40.463  12.960
15445W        W80925  19.757  34.039  11.864
15446W        W80926   4.416  29.482  11.403
15447W        W80927  37.545  35.893  13.327
15448W        W80928  18.601  29.503   4.793
15449W        W80929  17.581   5.434   0.455
15450W        W80930  41.027   2.877   1.728
15451W        W80931   2.841  27.455   0.472
15452W        W80932   4.804  34.482  11.068
15453W        W80933   8.390  43.943   0.444
15454W        W80934  24.480  35.393   4.343
15455W        W80935  15.718  37.361  10.588
15456W        W80936  18.056  23.513  13.499
15457W        W80937  10.701   4.412   4.642
15458W        W80938  30.083   2.888  13.977
15459W        W80939  13.130  19.595   3.821
15460W        W80940   5.333   5.257  13.909
15461W        W80941  18.649   7.756   3.686
15462W        W80942  12.803  44.835  14.448
15463W        W80943  11.327  30.597   0.402
15464W        W80944  31.473  29.083   1.314
15465W        W80945   6.872  27.181   1.780
15466W        W80946  43.795   2.964  11.068
15467W        W80947  35.001  13.635   1.885
15468W        W80948   9.383  34.041   4.650
15469W        W80949  44.795  37.402  13.791
15470W        W80950  33.078  17.230   2.315
15471W        W80951  31.148  33.947  10.468
15472W        W80952   6.736  20.080  12.972
15473W        W80953  44.342  36.038  11.403
15474W        W80954  11.626  19.259   2.337
15475W        W80955   7.688  34.878   2.865
15476W        W80956  20.768  34.585  14.427
15477W        W80957  35.463  31.968  11.967
15478W        W80958   7.872  30.657  10.461
15479W        W80959  25.009   4.763  12.491
15480W        W80960   4.788  20.077   2.701
15481W        W80961  11.690  27.957  12.012
15482W        W80962  17.578  33.018   0.923
15483W        W80963  16.725  34.898   2.699
15484W        W80964   3.255   3.813   3.268
15485W        W80965  27.501  40.508   0.772
15486W        W80966  36.986   8.253   4.178
15487W        W80967  31.936  39.378  12.003
15488W        W80968  28.150  18.619   4.197
15489W        W80969  21.134  26.536  12.876
15490W        W80970  34.917  43.919  13.419
15491W        W80971  29.104  44.983  10.551
15492W        W80972   3.353  19.235   0.941
15493W        W80973  22.539  10.775   2.854
15494W        W80974  27.993   9.883  14.335
15495W        W80975  22.221  24.227   4.601
15496W        W80976  42.500  24.153   4.127
15497W        W80977  34.976  22.075   4.122
15498W        W80978   3.273   7.221  13.544
15499W        W80979  26.059  15.134  12.973
15500W        W80980  40.512  29.600  11.942
15501W        W80981  35.059  12.800  13.504
15502W        W80982   8.737  10.372  14.299
15503W        W80983  17.297   0.447  10.488
15504W        W80984   0.765   4.938  11.977
15505W        W80985   4.274   9.680  14.406
15506W        W80986  16.257  17.734  11.484
15507W        W80987  11.864   6.233   5.202
15508W        W80988  42.013  33.926   2.849
15509W        W80989  34.920  33.927   1.438
15510W        W80990  20.127  24.017  14.799
15511W        W80991  43.287  14.740  12.013
15512W        W80992   7.808  29.433  14.291
15513W        W80993  21.179  31.074  12.986
15514W        W80994  42.392   9.735  10.471
15515W        W80995  29.153  16.084   3.235
15516W        W80996  27.515  36.969   4.721
15517W        W80997   1.876  37.360  11.602
15518W        W80998  29.479  24.084   4.725
15519W        W80999  25.037   4.302   3.353
15520W        W81000  23.650   9.378   2.194
15521W        W81001  25.490  43.273  14.434
15522W        W81002  39.963  12.205   3.306
15523W        W81003  26.703   4.368   0.905
15524W        W81004  18.688   4.365   0.736
15525W        W81005  25.607   3.278  11.608
15526W        W81006   4.715  43.824   4.692
15527W        W81007  13.244   0.491   2.367
15528W        W81008  42.312  35.359  12.927
15529W        W81009  38.377  31.063  14.017
15530W        W81010  35.889  21.242   3.251
15531W        W81011  22.057  38.871   1.759
15532W        W81012  13.688  28.641  12.876
15533W        W81013  11.625  32.015   4.772
15534W        W81014  17.608  19.629  11.922
15535W        W81015  36.419  31.926   3.630
15536W        W81016  19.709  32.560  12.360
15537W        W81017  41.815   0.848   5.214
15538W        W81018   3.358  29.459   1.750
15539W        W81019  38.544  24.165   2.224
15540W        W81020  18.595   5.715   2.273
15541W        W81021  32.458  10.319  11.913
15542W        W81022  22.013   0.333   3.325
15543W        W81023  26.971  18.562  14.769
15544W        W81024  22.593  42.899  11.061
15545W        W81025  19.762  11.301   4.597
15546W        W81026  26.039   9.751   2.407
15547W        W81027  21.654  37.430  10.523
15548W        W81028  11.305  42.025  12.982
15549W        W81029  28.489   1.427   1.822
15550W        W81030   4.282  13.832   3.191
15551W        W81031  30.579  39.543  11.004
15552W        W81032  20.100  42.354  11.915
15553W        W81033  26.545   5.369   1.372
15554W        W81034  15.578  32.983  12.037
15555W        W81035  23.660  23.199  14.353
15556W        W81036  11.643   1.342   3.812
15557W        W81037   8.821  25.104  11.383
15558W        W81038   0.958  43.308   4.136
15559W        W81039  35.441  17.233  14.018
15560W        W81040  32.890  40.452  12.536
15561W        W81041  29.100  17.618  14.815
15562W        W81042  31.009  33.022  10.549
15563W        W81043  11.795  40.010   2.411
15564W        W81044  19.104  20.644   0.792
15565W        W81045  10.669  43.954  10.504
15566W        W81046  22.029  37.565   4.620
15567W        W81047  30.582  13.773  12.024
15568W        W81048  35.076  27.015   1.867
15569W        W81049  11.252  32.556   1.300
15570W        W81050  14.727  35.536   3.725
15571W        W81051  30.945  30.618   0.315
15572W        W81052  39.996  22.668   1.805
15573W        W81053  40.908  40.365   1.834
15574W        W81054  16.674  26.517  12.983
15575W        W81055  39.898   3.291  14.402
15576W        W81056   2.290  14.835  11.501
15577W        W81057  44.801  10.251   1.814
15578W        W81058   0.755  14.246  10.061
15579W        W81059  30.990   6.886   4.296
15580W        W81060  16.613  27.514  13.823
15581W        W81061  39.558  35.429  14.381
15582W        W81062  32.943  37.426   2.709
15583W        W81063  10.233  24.049  12.492
15584W        W81064   3.360   1.783   2.837
15585W        W81065  23.008  31.646   3.824
15586W        W81066  22.186  31.046  11.612
15587W        W81067   2.313  26.662   3.735
15588W        W81068   4.426  23.639   2.700
15589W        W81069   6.389   3.351   4.602
15590W        W81070  27.575  21.555  14.314
15591W        W81071  21.032  14.799  12.392
15592W        W81072   7.859  38.386   2.202
15593W        W81073  10.633  16.216  13.960
15594W        W81074  26.126  32.613  11.079
15595W        W81075  17.738  33.604  11.420
15596W        W81076  18.053  24.200  10.640
15597W        W81077  38.046  44.816  13.539
15598W        W81078  12.124  17.731  13.364
15599W        W81079  32.586   2.228   3.200
15600W        W81080  18.561   3.357   4.261
15601W        W81081  29.469  38.374  12.823
15602W        W81082  34.961  15.208  12.041
15603W        W81083  40.419  31.538   4.189
15604W        W81084  38.545  34.893   3.731
15605W        W81085  29.109  26.492  14.990
15606W        W81086  42.982  41.906   5.211
15607W        W81087  22.171   2.843  11.961
15608W        W81088  10.730  19.080   0.264
15609W        W81089   6.884  35.943   3.348
15610W        W81090  11.790   6.245   1.236
15611W        W81091  40.905  23.727  13.495
15612W        W81092  33.469   7.679  10.073
15613W        W81093  35.885  36.988   0.312
15614W        W81094  26.132  19.209  11.381
15615W        W81095  44.915  34.958   3.348
15616W        W81096  41.010  12.765  12.364
15617W        W81097   9.392  34.479   1.879
15618W        W81098   6.689  19.582  10.475
15619W        W81099   4.446  13.788   2.313
15620W        W81100  35.945  19.112   4.334
15621W        W81101   6.766  15.185   4.328
15622W        W81102   7.210  18.588   4.133
15623W        W81103  24.543   8.236   2.218
15624W        W81104  13.164  24.529  12.850
15625W        W81105   0.388   2.952  13.528
15626W        W81106  19.638   1.894   2.230
15627W        W81107   8.717  37.469  12.944
15628W        W81108  38.062  34.427  13.792
15629W        W81109  10.385   2.757   3.664
15630W        W81110  39.541  34.382  12.380
15631W        W81111  14.263  42.950   2.876
15632W        W81112  43.999  19.584  11.030
15633W        W81113   5.335   5.384  11.461
15634W        W81114   8.789  36.856  11.899
15635W        W81115   6.825  12.183  11.508
15636W        W81116  40.480  24.126   3.166
15637W        W81117  18.654  44.865   0.852
15638W        W81118  27.494   9.330  10.557
15639W        W81119   9.174   4.416  12.460
15640W        W81120  25.076   0.838  12.890
15641W        W81121  42.003  26.131   2.837
15642W        W81122  28.019  27.599  13.993
15643W        W81123  24.058   4.739   9.925
15644W        W81124  19.630  29.638  14.287
15645W        W81125  40.052  16.110  10.418
15646W        W81126  17.624   9.174  14.981
15647W        W81127  21.654   2.958  13.317
15648W        W81128   9.872  42.801   3.799
15649W        W81129  33.003  23.989  12.511
15650W        W81130   9.188  20.178   2.754
15651W        W81131  30.002   7.891  10.444
15652W        W81132   8.238  25.993  13.434
15653W        W81133  43.356  12.342  11.593
15654W        W81134  15.626   0.873  12.084
15655W        W81135  12.833  27.479   1.271
15656W        W81136  16.305  25.475  10.934
15657W        W81137  11.621  21.219  14.514
15658W        W81138   2.319  27.982   4.226
15659W        W81139  23.528   9.245   3.793
15660W        W81140   7.346  11.761   0.431
15661W        W81141  24.144  23.634  14.979
15662W        W81142  44.431  39.958   1.323
15663W        W81143  30.493  20.255   3.754
15664W        W81144   1.376  42.470   1.895
15665W        W81145   9.831  41.813   0.822
15666W        W81146  38.027  12.787  11.377
15667W        W81147  43.300   9.228  12.920
15668W        W81148  42.979  35.964   3.758
15669W        W81149  33.490  17.264   0.825
15670W        W81150  37.403  24.118   5.260
15671W        W81151  19.564  40.878  14.990
15672W        W81152   4.797  18.186  12.907
15673W        W81153  17.213  28.044   0.315
15674W        W81154  22.102  25.054  13.921
15675W        W81155  23.178  36.499   4.329
15676W        W81156  18.215  10.369   4.798
15677W        W81157  32.594   4.279   3.171
15678W        W81158  29.458   3.831   2.357
15679W        W81159  21.599  24.724   4.176
15680W        W81160  10.367  23.156  10.481
15681W        W81161  31.018  16.713  11.448
15682W        W81162  21.070  35.045   2.681
15683W        W81163  11.645  27.173  11.117
15684W        W81164   0.780  43.863   3.173
15685W        W81165  12.274  20.741  13.459
15686W        W81166   9.387   8.395  14.436
15687W        W81167  44.494  14.795   4.706
15688W        W81168  16.667  21.051  14.913
15689W        W81169  40.868  43.891  13.033
15690W        W81170  37.375  32.449   2.352
15691W        W81171  27.968  38.508   2.247
15692W        W81172  18.692  21.596   4.312
15693W        W81173  29.944  25.640  14.888
15694W        W81174   6.755  22.613   4.735
15695W        W81175  35.057   6.291   1.835
15696W        W81176   0.842  32.937   0.331
15697W        W81177  29.169  29.034  11.979
15698W        W81178   1.410  18.639  12.422
15699W        W81179  17.100   5.843   3.745
15700W        W81180  21.253  32.565  14.009
15701W        W81181   6.849   3.253   3.290
15702W        W81182  38.045  37.021  12.415
15703W        W81183  20.569  19.147  12.384
15704W        W81184  29.461   1.909  10.548
15705W        W81185  33.608  21.732   2.341
15706W        W81186  26.495  24.982  13.027
15707W        W81187  31.407   8.184   4.834
15708W        W81188  33.005  26.605   1.825
15709W        W81189  17.184  27.176  11.513
15710W        W81190  21.206  43.827   2.248
15711W        W81191  44.004   7.248   0.390
15712W        W81192   6.317   4.276  14.286
15713W        W81193  28.068  10.864  13.874
15714W        W81194  25.036  36.562   3.788
15715W        W81195  29.656   0.749   0.898
15716W        W81196  24.483  17.201  14.896
15717W        W81197  41.340   3.782   5.591
15718W        W81198  42.821  40.463  11.090
15719W        W81199  12.716  17.112   1.780
15720W        W81200  24.528  30.595   4.125
15721W        W81201  44.317  19.619  10.500
15722W        W81202  39.507  40.863  13.857
15723W        W81203  16.160  14.756   0.435
15724W        W81204  10.214  28.495  11.492
15725W        W81205  41.832  24.560  14.472
15726W        W81206  24.512   8.873   0.847
15727W        W81207  28.533  37.338  10.966
15728W        W81208  11.664  43.403  12.012
15729W        W81209  27.496   7.203   1.907
15730W        W81210   7.765  22.101   0.807
15731W        W81211  44.936  13.257   4.767
15732W        W81212  40.970  44.799   2.409
15733W        W81213  19.166  32.446  14.286
15734W        W81214  21.158  42.841   3.826
15735W        W81215  19.186   4.296   3.266
15736W        W81216  35.098  37.034   1.814
15737W        W81217   0.358  34.117   4.342
15738W        W81218  25.610   9.868  10.501
15739W        W81219  35.533  40.983   4.782
15740W        W81220  17.257  15.783  11.073
15741W        W81221  19.753  42.881   1.720
15742W        W81222   2.291  14.708  12.070
15743W        W81223  21.077  15.113   3.711
15744W        W81224  13.149  27.686  14.907
15745W        W81225  33.618   1.450   0.463
15746W        W81226   0.482  22.200   2.349
15747W        W81227   6.249   2.253   4.760
15748W        W81228  31.402  34.906   1.346
15749W        W81229  42.519  41.029   0.335
15750W        W81230   6.707  21.046   1.331
15751W        W81231  44.469  11.724  12.934
15752W        W81232  37.348   0.378  12.490
15753W        W81233  21.528   3.917  13.512
15754W        W81234  35.503  23.495  12.860
15755W        W81235  33.521   7.253   5.207
15756W        W81236  25.597  18.760   3.822
15757W        W81237  38.056  12.756  12.563
15758W        W81238   8.265  17.571  13.507
15759W        W81239  28.556   4.825   2.778
15760W        W81240  14.211  23.675  13.534
15761W        W81241  24.101  11.171  10.416
15762W        W81242  37.399  32.516   4.141
15763W        W81243  10.213  17.298  12.924
15764W        W81244   0.852  42.394  11.047
15765W        W81245  16.740  38.909   3.826
15766W        W81246  19.743  39.346  12.528
15767W        W81247  36.050  35.979   0.353
15768W        W81248  40.377  10.688  13.454
15769W        W81249  36.862   1.974   2.228
15770W        W81250  18.279  19.285   0.853
15771W        W81251  44.974  25.635  13.810
15772W        W81252  24.572  15.632  12.561
15773W        W81253  18.617   8.326  12.933
15774W        W81254  15.280  39.323   0.828
15775W        W81255   1.372  22.605  12.008
15776W        W81256  10.363   3.440   2.229
15777W        W81257  34.011  22.114  14.910
15778W        W81258   2.246  12.743  11.586
15779W        W81259  23.088  20.763  10.947
15780W        W81260  11.744  26.072  14.496
15781W        W81261   1.753   3.747   4.648
15782W        W81262  44.958  20.729   4.201
15783W        W81263  34.386  16.619  12.435
15784W        W81264   8.667  40.434   0.447
15785W        W81265   8.818  14.694  10.581
15786W        W81266  31.973   8.757   4.705
15787W        W81267  28.534  28.062  14.812
15788W        W81268   8.731  26.104  12.934
15789W        W81269  16.735  32.932   3.385
15790W        W81270  18.564  35.444   5.158
15791W        W81271  24.149  37.465   4.153
15792W        W81272  14.271   5.395  11.968
15793W        W81273  13.830  34.956  10.544
15794W        W81274  10.761  30.086   2.851
15795W        W81275  21.708  15.598   3.188
15796W        W81276   6.281  21.061   1.314
15797W        W81277  34.498   7.395   1.923
15798W        W81278   0.413  16.627   0.816
15799W        W81279  24.697  19.536  10.951
15800W        W81280  29.967  26.484  10.420
15801W        W81281   3.272  38.561  13.796
15802W        W81282  42.805  18.145   2.370
15803W        W81283  31.077  40.964  12.476
15804W        W81284  11.304   3.299  13.807
15805W        W81285  22.671  41.337  13.044
15806W        W81286  37.547  12.145  10.615
15807W        W81287  33.385  25.699  14.787
15808W        W81288   4.254  30.125   3.763
15809W        W81289  36.905  23.516  14.943
15810W        W81290  38.819  40.042   2.384
15811W        W81291   4.262  20.132   0.454
15812W        W81292  13.329  20.578  12.927
15813W        W81293  37.422  32.031   3.196
15814W        W81294   2.373  41.294   0.450
15815W        W81295  10.346  12.619  10.084
15816W        W81296   3.900  40.959  12.992
15817W        W81297  20.622  20.207   2.251
15818W        W81298  27.457  17.609   3.207
15819W        W81299  14.741  18.669  12.553
15820W        W81300  21.648  34.110   2.268
15821W        W81301  44.268  38.953   1.710
15822W        W81302  28.476  39.917  10.540
15823W        W81303  44.347   0.492   0.941
15824W        W81304  11.826   3.235   2.393
15825W        W81305   7.738  18.125   1.310
15826W        W81306  19.130  35.538  14.480
15827W        W81307  18.726   1.851   3.180
15828W        W81308  13.631  35.883   1.787
15829W        W81309  18.296   0.443   3.745
15830W        W81310  42.332   8.656  10.425
15831W        W81311  32.022  22.661   4.753
15832W        W81312  39.001  14.121   0.852
15833W        W81313  23.540  14.808   3.762
15834W        W81314  28.542  33.437  12.095
15835W        W81315  41.341  31.993   3.217
15836W        W81316  25.705  39.503  11.926
15837W        W81317  38.457  19.204   9.529
15838W        W81318  39.343  41.011  12.470
15839W        W81319  40.976  10.307  13.802
15840W        W81320  20.161  25.514  12.831
15841W        W81321  43.290  30.111   1.765
15842W        W81322  44.003  27.594  13.872
15843W        W81323  24.573   2.375   3.843
15844W        W81324  40.448  22.164   1.307
15845W        W81325   1.972  23.171  13.973
15846W        W81326  10.376  31.065  14.989
15847W        W81327  12.119  20.588  12.093
15848W        W81328  34.544   4.762   1.706
15849W        W81329   2.295   9.360  13.051
15850W        W81330  35.003  21.678   0.797
15851W        W81331   3.956  19.157   3.165
15852W        W81332  23.496  31.454  11.103
15853W        W81333  15.605  15.120  13.010
15854W        W81334   2.938  11.344  10.419
15855W        W81335   1.408  11.143  13.026
15856W        W81336   6.787   4.366   0.333
15857W        W81337  30.992  36.848   0.878
15858W        W81338  39.532  37.066   4.157
15859W        W81339  19.617  40.042   2.362
15860W        W81340  36.407   2.932   0.953
15861W        W81341  26.645  24.103  14.810
15862W        W81342  35.479  44.883   3.702
15863W        W81343  42.868  14.145  14.965
15864W        W81344   6.917   3.928   1.739
15865W        W81345  18.123  36.457  12.520
15866W        W81346   9.285  44.989   1.816
15867W        W81347  12.143   4.745  11.012
15868W        W81348  19.740  37.438  12.018
15869W        W81349  10.167  30.527  11.382
15870W        W81350  35.925  33.382  14.335
15871W        W81351  37.939  10.766  13.063
15872W        W81352  40.862  40.895  10.997
15873W        W81353  33.970  36.385  13.064
15874W        W81354  11.348  33.878  13.998
15875W        W81355  28.089  40.459  13.013
15876W        W81356  29.998   4.726   1.765
15877W        W81357   4.904  37.419  14.919
15878W        W81358   6.187  21.173  14.300
15879W        W81359  30.644  27.483  10.921
15880W        W81360  23.989  14.742  14.805
15881W        W81361   5.256  26.684  13.813
15882W        W81362   4.367  20.589  12.530
15883W        W81363  19.727  17.739  11.479
15884W        W81364   6.847  10.705   4.620
15885W        W81365  33.386  12.825   3.352
15886W        W81366   4.886   1.872  12.843
15887W        W81367  44.952  29.164   4.778
15888W        W81368  16.600  12.308   3.381
15889W        W81369   8.798  25.002   2.815
15890W        W81370  13.676   2.423   1.741
15891W        W81371  15.225  19.213   3.852
15892W        W81372   6.271   6.194   4.315
15893W        W81373  14.663  26.993  10.525
15894W        W81374  29.053  38.432   1.239
15895W        W81375  19.095  32.518  11.611
15896W        W81376  12.248  40.800   0.782
15897W        W81377  35.442  22.699   1.716
15898W        W81378  14.686   2.823   3.785
15899W        W81379   2.814  29.438  12.422
15900W        W81380  20.166  21.035  12.065
15901W        W81381  29.124  42.295  13.315
15902W        W81382  29.452  28.001   3.257
15903W        W81383   4.215  39.511  12.070
15904W        W81384  14.321  40.947   3.700
15905W        W81385  42.426  40.825   2.280
15906W        W81386   2.438  24.105   3.768
15907W        W81387  23.011  38.868   2.388
15908W        W81388  37.975  35.097  13.029
15909W        W81389  33.924  20.041   2.831
15910W        W81390   8.262   0.764  11.103
15911W        W81391  35.384  35.864  11.452
15912W        W81392  34.912  28.050  12.504
15913W        W81393  22.209   2.424   2.305
15914W        W81394  44.804  19.553  14.772
15915W        W81395  32.422   3.923   3.377
15916W        W81396  19.617  16.591   0.445
15917W        W81397  31.624   3.274   1.370
15918W        W81398  43.390  21.706   1.777
15919W        W81399  21.070  37.556   0.410
15920W        W81400  30.566  40.016   4.822
15921W        W81401  31.925  38.540   4.616
15922W        W81402  26.146   2.850  14.390
15923W        W81403   1.255  37.346   4.711
15924W        W81404  35.586  37.554   4.754
15925W        W81405  21.559  11.626   4.152
15926W        W81406   5.216  39.362  14.821
15927W        W81407  44.423  43.950   4.779
15928W        W81408  13.824   7.823   2.885
15929W        W81409   0.365   5.865   0.264
15930W        W81410   6.901  44.783  10.449
15931W        W81411   9.882   9.763  12.929
15932W        W81412  42.921  40.862  11.512
15933W        W81413  34.600  13.742   4.609
15934W        W81414   4.831  38.862  11.506
15935W        W81415  24.719  12.647  13.938
15936W        W81416  35.414  11.268   0.891
15937W        W81417  22.141  18.121  11.437
15938W        W81418  19.743  40.008   0.733
15939W        W81419   1.451  30.136   1.229
15940W        W81420   6.905  42.291   0.260
15941W        W81421  27.651  40.533   3.362
15942W        W81422  18.127  43.843   2.722
15943W        W81423  10.759   4.878   4.237
15944W        W81424  40.915  42.349  11.106
15945W        W81425  18.552  22.131  14.871
15946W        W81426  43.939  42.495  11.998
15947W        W81427  13.216  39.436  11.113
15948W        W81428  38.500  39.907  13.486
15949W        W81429  22.637  34.057   4.811
15950W        W81430  40.860  41.800  11.077
15951W        W81431   2.463   7.697   1.295
15952W        W81432  31.009  16.077  10.955
15953W        W81433  30.953  35.956   0.729
15954W        W81434  12.785  21.586  11.547
15955W        W81435  37.857  29.458  14.294
15956W        W81436   9.342  14.636   3.654
15957W        W81437  12.122  38.934  10.637
15958W        W81438  31.956  31.648  14.473
15959W        W81439  13.822  42.870   2.385
15960W        W81440  26.512  14.750  11.461
15961W        W81441  17.072   5.791   1.765
15962W        W81442   4.312  34.531   3.351
15963W        W81443  40.848   4.747  13.432
15964W        W81444  32.446  24.186   1.287
15965W        W81445  42.302  33.041   3.365
15966W        W81446  35.558  36.432  11.592
15967W        W81447   1.904  19.665   2.234
15968W        W81448  15.256  10.384  11.019
15969W        W81449  29.632  44.351   1.446
15970W        W81450   3.801  21.088   0.272
15971W        W81451  38.055  38.472  12.908
15972W        W81452  38.518  17.175  11.392
15973W        W81453  36.462  23.601   1.451
15974W        W81454  16.268  29.137   0.246
15975W        W81455  41.040  40.836  14.361
15976W        W81456  13.684  11.738   0.289
15977W        W81457  12.337  43.930   0.463
15978W        W81458   8.794  37.368   4.119
15979W        W81459  11.178  40.405  14.769
15980W        W81460  24.139  42.991   1.710
15981W        W81461  40.805  15.799  11.595
15982W        W81462  38.867  42.412   3.833
15983W        W81463  14.793  33.449   3.822
15984W        W81464  43.362  10.147   4.136
15985W        W81465  30.040  24.009  13.382
15986W        W81466  31.544  17.741   0.435
15987W        W81467  25.556  10.682  12.412
15988W        W81468  10.357  18.120  12.391
15989W        W81469  21.086  35.028  13.888
15990W        W81470  16.687  34.606  14.933
15991W        W81471  18.692   3.757  13.821
15992W        W81472  27.056   2.915  13.414
15993W        W81473  38.528  43.872   2.677
15994W        W81474  18.725  18.154   2.283
15995W        W81475  41.356  16.614  12.842
15996W        W81476   6.835  42.867   1.238
15997W        W81477  22.678  25.650  12.842
15998W        W81478   1.365  19.756   4.759
15999W        W81479  43.857   3.709   2.275
16000W        W81480  43.306  44.319   3.181
16001W        W81481  16.601  40.950   0.472
16002W        W81482   0.821  43.867  11.445
16003W        W81483  35.006  28.448   3.739
16004W        W81484   5.195  22.591   2.240
16005W        W81485  18.689   1.406   4.198
16006W        W81486  24.985  42.934  11.932
16007W        W81487  43.407  26.597   1.303
16008W        W81488  38.064  22.009   3.717
16009W        W81489  17.631  15.753  13.045
16010W        W81490  26.126  16.806  10.632
16011W        W81491  31.577  21.556  11.062
16012W        W81492  10.231  32.899  14.790
16013W        W81493  19.717  11.236  11.060
16014W        W81494  28.991  12.325   4.195
16015W        W81495   8.845  16.197   0.458
16016W        W81496  29.020  25.679   1.847
16017W        W81497  38.974  17.064  12.568
16018W        W81498  14.153  24.658  13.844
16019W        W81499  16.788  40.975  13.467
16020W        W81500   8.708  24.651   0.829
16021W        W81501  14.098   4.793  10.912
16022W        W81502  20.219  22.632   1.928
16023W        W81503  38.351  23.186   2.340
16024W        W81504  22.190  41.413  10.543
16025W        W81505   6.366  16.768   1.302
16026W        W81506  28.160   7.333   5.172
16027W        W81507  27.114   4.882   4.236
16028W        W81508  41.512  15.666   3.292
16029W        W81509  10.818   5.404  13.517
16030W        W81510   5.408  40.540   1.326
16031W        W81511  44.921   1.774   4.177
16032W        W81512  25.009  41.798   3.796
16033W        W81513  22.055  21.017   0.847
16034W        W81514   7.412  24.683  13.957
16035W        W81515  15.720  43.462   0.385
16036W        W81516  10.766  34.912  14.306
16037W        W81517  14.657  35.083   2.391
16038W        W81518  44.376  38.912   4.828
16039W        W81519   3.928  10.693  11.941
16040W        W81520  35.924  26.077   3.633
16041W        W81521  10.325  22.605   0.932
16042W        W81522   9.811  44.347  12.015
16043W        W81523   1.804  32.635   2.838
16044W        W81524  42.850  27.191   1.846
16045W        W81525  38.347   7.310  11.387
16046W        W81526  19.754  19.665  14.358
16047W        W81527  32.069  15.275   0.279
16048W        W81528  17.142  11.794  10.436
16049W        W81529  44.944  23.645  13.365
16050W        W81530   0.946   7.247   1.371
16051W        W81531  22.050  14.624  10.955
16052W        W81532  41.459  13.685  12.095
16053W        W81533  25.611  22.621  14.830
16054W        W81534  13.289   5.390  11.384
16055W        W81535  22.698  12.697  10.511
16056W        W81536  38.560  24.557  11.871
16057W        W81537  24.992  29.125   0.891
16058W        W81538  17.117   6.703   4.300
16059W        W81539  17.119  17.731   0.384
16060W        W81540  39.315  41.831   4.712
16061W        W81541  22.691  14.669  10.512
16062W        W81542  41.415  43.989   2.203
16063W        W81543  18.238  40.820  13.315
16064W        W81544  17.205  35.058  10.921
16065W        W81545   9.271  13.310  11.045
16066W        W81546  12.126   2.226   4.320
16067W        W81547  11.239  20.559   1.362
16068W        W81548  27.690   4.333   3.356
16069W        W81549  23.699  36.541   2.267
16070W        W81550  30.069  18.696   1.881
16071W        W81551   6.206  35.473  10.571
16072W        W81552   3.830   6.246  13.923
16073W        W81553  27.059  31.605  13.307
16074W        W81554  43.879  19.188  13.492
16075W        W81555  43.428  36.514  13.979
16076W        W81556  33.889   9.817   3.161
16077W        W81557  25.640  43.963  10.645
16078W        W81558  13.735  34.573   2.307
16079W        W81559  23.569  12.135   2.387
16080W        W81560  14.594  31.578  12.020
16081W        W81561  22.233  10.328   1.788
16082W        W81562  41.838   6.878   9.498
16083W        W81563  17.735  19.751  10.899
16084W        W81564  17.724  34.414  14.854
16085W        W81565   9.156  10.735   4.660
16086W        W81566  13.788  17.175  13.033
16087W        W81567  13.202  13.248  14.922
16088W        W81568  11.202  27.113   1.835
16089W        W81569   2.264  37.429   4.783
16090W        W81570  23.655  20.161   3.783
16091W        W81571   6.231  30.093   3.843
16092W        W81572   8.855  27.149  10.415
16093W        W81573  34.388   2.367  13.410
16094W        W81574  30.634  12.177  11.103
16095W        W81575  24.571  28.186   4.807
16096W        W81576  44.392  27.581   4.252
16097W        W81577   5.401  31.627  13.930
16098W        W81578  27.551  27.976   2.371
16099W        W81579   6.234  24.123   4.202
16100W        W81580  17.797   0.752  14.878
16101W        W81581   6.750   9.764   3.263
16102W        W81582  30.656  43.777   3.174
16103W        W81583  34.370  40.414   4.120
16104W        W81584  15.711  26.550  11.077
16105W        W81585   4.204  22.017  14.370
16106W        W81586  42.797  25.640  11.014
16107W        W81587  32.011  10.743  12.529
16108W        W81588   5.709  18.135   3.803
16109W        W81589  12.735   9.327   0.451
16110W        W81590   1.320  14.803   3.845
16111W        W81591   6.226  44.261  13.465
16112W        W81592  14.210   4.415   1.236
16113W        W81593  10.212  12.665   2.341
16114W        W81594  16.085   5.276  14.301
16115W        W81595  10.812  12.690   0.333
16116W        W81596  21.584  21.178   0.257
16117W        W81597  16.590  44.325  14.786
16118W        W81598   1.428  19.683   2.236
16119W        W81599  29.562  26.135  12.473
16120W        W81600  24.230  33.508  14.817
16121W        W81601   5.246  14.592   3.743
16122W        W81602  10.745   3.806   1.293
16123W        W81603  41.491   2.850  14.427
16124W        W81604  37.359  20.075  11.085
16125W        W81605  28.667  15.120  14.827
16126W        W81606  23.002  11.812  13.028
16127W        W81607   8.403   1.344  10.424
16128W        W81608  41.844  20.700   0.254
16129W        W81609  32.487  16.801  14.496
16130W        W81610   9.717  12.320  11.560
16131W        W81611   6.361  21.676  11.876
16132W        W81612   5.385  19.101  10.624
16133W        W81613   7.298  32.936  10.492
16134W        W81614  30.994  18.273  13.349
16135W        W81615  24.626  43.316   9.973
16136W        W81616  33.621  26.115  10.951
16137W        W81617  27.950  32.470  13.405
16138W        W81618  36.458  42.282   0.358
16139W        W81619   2.440   9.353   4.187
16140W        W81620  11.369  23.097   4.295
16141W        W81621  26.632  28.671  14.487
16142W        W81622  21.670  22.192  13.818
16143W        W81623   0.479   3.373  14.845
16144W        W81624  34.412  24.167   1.320
16145W        W81625  23.155  29.440   1.287
16146W        W81626  39.939   6.781   0.830
16147W        W81627  44.439  44.974  14.347
16148W        W81628  36.480   5.748   3.156
16149W        W81629   8.724   2.383  13.984
16150W        W81630  17.656   6.212  13.464
16151W        W81631   4.860  15.173  12.480
16152W        W81632   5.906  14.313   3.298
16153W        W81633   1.318   3.328  11.561
16154W        W81634   0.987  26.147   1.744
16155W        W81635  16.096  42.814   0.303
16156W        W81636  39.392  19.674   0.342
16157W        W81637  23.135  44.325  10.433
16158W        W81638  17.773  43.966   3.318
16159W        W81639  35.517  36.941  10.953
16160W        W81640  42.445  12.718  10.644
16161W        W81641   0.294  30.553  12.989
16162W        W81642   2.423  38.563  14.030
16163W        W81643  24.030   8.768  11.522
16164W        W81644  14.171  17.180   4.733
16165W        W81645  28.163  15.714  11.045
16166W        W81646   6.197  31.122  14.289
16167W        W81647  36.364  11.259  10.978
16168W        W81648   4.911  23.199  10.554
16169W        W81649  19.152  11.693   1.878
16170W        W81650   7.332  25.638  11.035
16171W        W81651  39.007  40.490  13.844
16172W        W81652  23.102   4.429  11.490
16173W        W81653   7.883  23.728   5.298
16174W        W81654   3.260  35.938  14.808
16175W        W81655   0.436  34.978   4.219
16176W        W81656  32.412  25.595  14.783
16177W        W81657  30.496  10.245   4.638
16178W        W81658   8.348  10.872  10.892
16179W        W81659  29.032  28.097  13.037
16180W        W81660   4.867   2.380  14.431
16181W        W81661  17.150   9.742  14.801
16182W        W81662  41.803  11.171  14.380
16183W        W81663  29.630   7.411   4.799
16184W        W81664   3.724  22.035  11.380
16185W        W81665  26.662  18.054  12.907
16186W        W81666   8.847  12.261   0.277
16187W        W81667  18.229  40.423  14.881
16188W        W81668  27.161   8.856   0.766
16189W        W81669   7.415  23.560  11.930
16190W        W81670  31.611  19.665   0.884
16191W        W81671  15.116  42.944   0.926
16192W        W81672  44.007  31.622  10.505
16193W        W81673  16.277  27.494   0.959
16194W        W81674  17.583  34.540   2.373
16195W        W81675  34.398  33.527   2.887
16196W        W81676   2.897  21.035   0.432
16197W        W81677  27.080  28.176  13.493
16198W        W81678  41.011  11.623  14.810
16199W        W81679  39.392   0.882   1.412
16200W        W81680  11.212  14.751  13.845
16201W        W81681  26.618  36.954   3.276
16202W        W81682  29.551  29.055   3.231
16203W        W81683  43.936  15.283   0.727
16204W        W81684  35.006  23.653  13.389
16205W        W81685   8.251  19.564   1.349
16206W        W81686  12.127   8.214  14.429
16207W        W81687  22.225  28.640  13.822
16208W        W81688  38.390  17.134  10.458
16209W        W81689  43.959  36.507  14.770
16210W        W81690   2.723  39.388  13.791
16211W        W81691  29.515  22.642   3.772
16212W        W81692  19.591   0.403  10.440
16213W        W81693  42.916  17.623   1.331
16214W        W81694  29.985  19.625  10.412
16215W        W81695  37.552  11.183  11.993
16216W        W81696  24.129   3.791   1.377
16217W        W81697  25.180   9.380   2.348
16218W        W81698  42.414  30.996  11.567
16219W        W81699  40.331  18.289   0.392
16220W        W81700  36.409  24.142  14.287
16221W        W81701  28.644  38.527   4.611
16222W        W81702  25.176  26.062  13.805
16223W        W81703  40.439  11.698   2.239
16224W        W81704  28.658  17.281  11.963
16225W        W81705  28.168   7.290  12.518
16226W        W81706  18.758  26.519  12.878
16227W        W81707   0.967  29.035   4.327
16228W        W81708  14.806  22.024   2.263
16229W        W81709  40.452  11.269   2.291
16230W        W81710   9.237  42.912   3.851
16231W        W81711  41.319  22.711   1.796
16232W        W81712   9.304  13.219  13.494
16233W        W81713  39.500  16.228   4.664
16234W        W81714  11.351   4.311   4.225
16235W        W81715  19.045  33.052   3.337
16236W        W81716  43.433   7.228   2.891
16237W        W81717  43.765  19.065  14.913
16238W        W81718  18.252  21.199   0.282
16239W        W81719  28.173  27.131   3.665
16240W        W81720  22.106   6.370  10.070
16241W        W81721  25.145   4.334  13.006
16242W        W81722  35.885  24.994   3.269
16243W        W81723   2.236  12.800  14.414
16244W        W81724  15.106  36.384   4.225
16245W        W81725  32.493  10.203  12.906
16246W        W81726  12.325  32.396   0.321
16247W        W81727  24.219  27.189  11.126
16248W        W81728   4.796  36.574   4.329
16249W        W81729  31.140  13.772   4.822
16250W        W81730  29.605  38.055  12.383
16251W        W81731   3.829  29.451   2.376
16252W        W81732  31.978  14.327  13.797
16253W        W81733  22.730   5.757   1.382
16254W        W81734  44.300  30.023  11.982
16255W        W81735  44.459  12.145   3.677
16256W        W81736   0.453  21.066   2.798
16257W        W81737  31.035  39.996  11.461
16258W        W81738  20.712  30.577  10.543
16259W        W81739  42.018  36.963  10.520
16260W        W81740  35.478  23.559  12.089
16261W        W81741  32.990   9.198   3.319
16262W        W81742   5.875  15.763   0.829
16263W        W81743  16.603   4.442  14.359
16264W        W81744   2.454   9.271   0.812
16265W        W81745  33.507  42.430   0.402
16266W        W81746  40.497   7.241   1.235
16267W        W81747  22.733  43.300   0.813
16268W        W81748  17.576  28.940  10.913
16269W        W81749  26.196  10.675   0.906
16270W        W81750  16.163  16.567  10.020
16271W        W81751  42.953   6.797  14.488
16272W        W81752  40.021  31.501  14.416
16273W        W81753  40.962   1.783  10.153
16274W        W81754  27.963  17.716   1.404
16275W        W81755   3.882  11.702   0.889
16276W        W81756  15.702  29.017  11.938
16277W        W81757  30.934  41.324  12.526
16278W        W81758  19.266   4.940  12.557
16279W        W81759  16.218  37.923   2.663
16280W        W81760  18.249  28.539  12.080
16281W        W81761   9.765  40.953   1.378
16282W        W81762  17.061  29.998   0.391
16283W        W81763  37.410  36.029   0.383
16284W        W81764   9.839  15.327   3.316
16285W        W81765  21.651   1.277  10.896
16286W        W81766  35.937  16.732   0.347
16287W        W81767  17.705  38.935   0.375
16288W        W81768  12.353  42.019  11.905
16289W        W81769  31.900   2.776   4.836
16290W        W81770  21.206  14.803   0.822
16291W        W81771  42.003  44.366  13.988
16292W        W81772  15.764  40.316   4.684
16293W        W81773  10.815  43.408  13.814
16294W        W81774  32.142  35.561  12.067
16295W        W81775   2.748   5.923  10.587
16296W        W81776  28.592  30.651  14.308
16297W        W81777  28.139  20.110   3.641
16298W        W81778  20.272   4.217  13.378
16299W        W81779  27.089   3.443  13.486
16300W        W81780  14.285   8.164  14.001
16301W        W81781  42.951  18.188  10.476
16302W        W81782   0.419  10.853  10.495
16303W        W81783  30.133  11.238  12.025
16304W        W81784   3.301  10.690   0.260
16305W        W81785  40.303  17.212   2.882
16306W        W81786  22.177  35.562  13.867
16307W        W81787  29.997  19.543   2.242
16308W        W81788  22.224  22.722   4.823
16309W        W81789  21.731  38.496   2.395
16310W        W81790  15.326  39.544  10.637
16311W        W81791  38.498  23.592  14.409
16312W        W81792  19.274  23.023  14.347
16313W        W81793  32.472  25.708  13.451
16314W        W81794   2.948  36.894  12.515
16315W        W81795   7.835   7.385   1.715
16316W        W81796   8.195  37.483   2.828
16317W        W81797  44.331  19.772  12.340
16318W        W81798  15.777  34.574  13.372
16319W        W81799  33.988  30.004  12.876
16320W        W81800   0.812  36.911  12.527
16321W        W81801  26.129  18.655  12.876
16322W        W81802  30.525  33.538   4.231
16323W        W81803  27.445  27.600   1.340
16324W        W81804  31.955  43.820   3.697
16325W        W81805  26.959   4.335   3.227
16326W        W81806  28.550  18.213   0.962
16327W        W81807  34.089  21.545  10.991
16328W        W81808   2.851  22.008   1.910
16329W        W81809  11.858  15.712   4.353
16330W        W81810  33.456  32.963  12.374
16331W        W81811   0.885  36.508   0.899
16332W        W81812   3.256   6.894   3.678
16333W        W81813  28.465   5.289  13.967
16334W        W81814  42.857  37.435  12.498
16335W        W81815   1.420  22.519  12.364
16336W        W81816  38.408  24.491   1.402
16337W        W81817  12.175   9.366  14.334
16338W        W81818  20.036  11.784  14.937
16339W        W81819  27.658  19.091   1.251
16340W        W81820  30.511  12.234  11.988
16341W        W81821   0.336  14.620  11.515
16342W        W81822   3.837  31.588  14.445
16343W        W81823  12.819  15.785  11.111
16344W        W81824   2.401   4.387  12.038
16345W        W81825  27.642  30.438   1.413
16346W        W81826  31.450  42.524   4.127
16347W        W81827  23.144  13.683  10.645
16348W        W81828  15.288  40.424   3.802
16349W        W81829   9.839  38.819  12.510
16350W        W81830  40.492  42.479  10.974
16351W        W81831  21.044  30.153  11.561
16352W        W81832   9.204  19.121  11.867
16353W        W81833   8.872  29.081   4.725
16354W        W81834  20.080  21.144  14.440
16355W        W81835  38.402  19.554   3.174
16356W        W81836  43.337   6.815  12.563
16357W        W81837  27.041  41.807   2.206
16358W        W81838  37.937   0.422   3.741
16359W        W81839   5.372  31.115   0.249
16360W        W81840   8.787  34.099   3.832
16361W        W81841  18.687  27.162  11.082
16362W        W81842  40.908  13.742   2.729
16363W        W81843  35.552  27.135   4.617
16364W        W81844  34.093  29.078   3.337
16365W        W81845  41.494  40.893  14.926
16366W        W81846  38.416   9.365  12.985
16367W        W81847  10.201  27.979   3.809
16368W        W81848  19.270  19.546  10.913
16369W        W81849  33.419  19.599   2.835
16370W        W81850   6.290  16.634  13.039
16371W        W81851  31.073  15.743   0.925
16372W        W81852  36.478   3.324  12.015
16373W        W81853  24.180  30.028  13.527
16374W        W81854  37.839  42.791   5.308
16375W        W81855  41.915  12.359  10.445
16376W        W81856  14.101   1.838  10.045
16377W        W81857  14.339  28.994   1.373
16378W        W81858  43.332   5.782  12.385
16379W        W81859   9.243   5.819   1.837
16380W        W81860   5.282  39.877  13.514
16381W        W81861  28.991  11.135   3.301
16382W        W81862  23.110   0.951   5.666
16383W        W81863  22.231  40.457  13.434
16384W        W81864  40.317  11.216  10.147
16385W        W81865   6.214  41.508  12.483
16386W        W81866  13.115  22.612   0.472
16387W        W81867  20.244  33.015   3.797
16388W        W81868  31.000  35.941  10.155
16389W        W81869   9.373  41.792   4.248
16390W        W81870  11.163   6.364   1.728
16391W        W81871   3.826  13.334  11.441
16392W        W81872  33.082  18.682  14.999
16393W        W81873  11.828  36.418  14.859
16394W        W81874  12.687  29.025  14.942
16395W        W81875  41.014   2.378   3.863
16396W        W81876  18.579  29.969   3.782
16397W        W81877  24.105  35.026  12.838
16398W        W81878  10.324   5.222   3.699
16399W        W81879  32.049  38.537   2.387
16400W        W81880  23.703  42.802   3.729
16401W        W81881  23.066  39.375   0.399
16402W        W81882  10.285  29.034   3.790
16403W        W81883  41.805   9.723  12.495
16404W        W81884  27.173  26.539   1.287
16405W        W81885  22.730  41.366   3.682
16406W        W81886  34.494  36.578  12.887
16407W        W81887   3.330  37.497   4.747
16408W        W81888  44.002   7.717  11.569
16409W        W81889   5.934  21.166  12.054
16410W        W81890  25.585  20.175   4.270
16411W        W81891  44.969  18.611   1.362
16412W        W81892  37.870  23.614  13.968
16413W        W81893  14.306   6.787   1.424
16414W        W81894  40.991   7.805  13.949
16415W        W81895   1.250  43.372  13.422
16416W        W81896  34.939   3.771  14.788
16417W        W81897  20.536  20.567  12.846
16418W        W81898  19.281  18.207  10.560
16419W        W81899   7.874  31.611   1.908
16420W        W81900  17.751  36.987   3.257
16421W        W81901   6.685  17.607   1.264
16422W        W81902  11.622  24.093  12.029
16423W        W81903  14.107   1.918   4.205
16424W        W81904  17.212   7.383  13.352
16425W        W81905  33.620  21.114   4.147
16426W        W81906  30.600  17.740   0.329
16427W        W81907  24.626   5.421   2.822
16428W        W81908  38.470  27.557  14.445
16429W        W81909  43.934  20.228   9.929
16430W        W81910  37.559  30.658   0.764
16431W        W81911  35.359  17.741   2.895
16432W        W81912  27.598  27.610   0.858
16433W        W81913  24.614  18.745   1.810
16434W        W81914  10.291   1.417   0.250
16435W        W81915  19.548  23.026  11.432
16436W        W81916   2.262  33.057  11.497
16437W        W81917  39.473   2.464  12.349
16438W        W81918   4.742  34.585   2.236
16439W        W81919  37.348   9.822   4.803
16440W        W81920   2.374  36.031   0.863
16441W        W81921  23.656  28.181   1.788
16442W        W81922  34.982  35.940   4.319
16443W        W81923   7.374  21.527  11.583
16444W        W81924  42.886  10.222   1.332
16445W        W81925  37.355   0.900   4.752
16446W        W81926   1.264  27.194   1.217
16447W        W81927  41.317  12.144  14.282
16448W        W81928  22.249   9.754  13.414
16449W        W81929  15.659  37.489   4.683
16450W        W81930  27.039  36.962   1.443
16451W        W81931  17.782   3.955   2.693
16452W        W81932  28.001  34.032   4.243
16453W        W81933   3.868  41.417  11.938
16454W        W81934  22.081  32.572  12.430
16455W        W81935  13.253  34.073   0.286
16456W        W81936  34.885  38.850   2.731
16457W        W81937  32.436  18.548   2.277
16458W        W81938  15.222  39.836   4.275
16459W        W81939  44.943  38.058  14.454
16460W        W81940  33.043  12.853   4.831
16461W        W81941   0.745  13.157  13.059
16462W        W81942  38.412  12.297   2.668
16463W        W81943  43.952   2.875   2.236
16464W        W81944  34.484  19.756   4.207
16465W        W81945   0.298  33.058  13.050
16466W        W81946  35.542  27.019  13.856
16467W        W81947  31.648   1.375   2.760
16468W        W81948  13.242  15.595   1.860
16469W        W81949  33.506  27.639   0.285
16470W        W81950   8.378  18.756  11.601
16471W        W81951  37.923   1.826   3.829
16472W        W81952  16.210  31.624  11.043
16473W        W81953  24.182  24.070   3.650
16474W        W81954  17.132  16.678  10.916
16475W        W81955   1.925  43.933   4.824
16476W        W81956  15.804  37.884  13.829
16477W        W81957  35.430  12.747  13.811
16478W        W81958   5.687   1.346  13.889
16479W        W81959  14.225   1.885   2.720
16480W        W81960   5.334  17.735  13.980
16481W        W81961  41.995  30.034   1.296
16482W        W81962   5.894  37.349  13.485
16483W        W81963  42.800  44.995   0.427
16484W        W81964  24.700  28.155  10.622
16485W        W81965  10.180  24.039   4.709
16486W        W81966   6.705  31.471   4.672
16487W        W81967  32.105  34.053   3.715
16488W        W81968   6.325  34.600  11.076
16489W        W81969  24.538   7.672  14.990
16490W        W81970  26.586  13.270   1.856
16491W        W81971  10.251  31.899  11.045
16492W        W81972  20.274  12.827   5.083
16493W        W81973  29.965  44.927   2.850
16494W        W81974  21.065  41.435   4.622
16495W        W81975  33.936  17.725   2.179
16496W        W81976  20.172  24.674   1.294
16497W        W81977   4.879   2.413   4.828
16498W        W81978  18.629   0.370  14.431
16499W        W81979  43.341   7.387  14.313
16500W        W81980  40.397  12.315  10.637
16501W        W81981   9.771  33.467  12.961
16502W        W81982  35.486   7.769   3.350
16503W        W81983  31.049  27.143   0.479
16504W        W81984  26.952  25.178  12.903
16505W        W81985  44.269   4.929   4.790
16506W        W81986   9.669  30.455   0.296
16507W        W81987  43.822  32.930   1.745
16508W        W81988  18.148  37.870   0.967
16509W        W81989   5.876  17.251  13.317
16510W        W81990  18.120   7.299  11.946
16511W        W81991  12.214  37.008   0.749
16512W        W81992   6.358  31.638   3.291
16513W        W81993  24.163   8.900   1.421
16514W        W81994  19.670   8.798   4.242
16515W        W81995  29.149   4.900  12.572
16516W        W81996   5.928  32.947   3.280
16517W        W81997  36.988   9.200   4.184
16518W        W81998   5.393  10.311   4.132
16519W        W81999  11.813  43.949  14.375
16520W        W82000   4.899   6.361  11.497
16521W        W82001  12.774  30.654   2.206
16522W        W82002   7.345   9.304  10.599
16523W        W82003  12.853  35.101   2.829
16524W        W82004  29.983  20.665  10.428
16525W        W82005   9.323  14.123  11.441
16526W        W82006  21.110  21.650   1.439
16527W        W82007  12.841  37.001  12.569
16528W        W82008   1.370  33.004  10.623
16529W        W82009  22.672  16.799  12.975
16530W        W82010   6.857   3.287   4.621
16531W        W82011  32.403  37.464   2.730
16532W        W82012   5.295  36.576  12.898
16533W        W82013  28.532  19.208  14.978
16534W        W82014   3.843   5.697   1.749
16535W        W82015  25.521  25.603   2.686
16536W        W82016  28.034  22.116   0.301
16537W        W82017   6.305  28.179   5.212
16538W        W82018  30.022   0.788  13.964
16539W        W82019  11.704   8.388  11.094
16540W        W82020  23.181  38.912   4.290
16541W        W82021   2.358   8.235   1.712
16542W        W82022  25.170  23.074   4.710
16543W        W82023  30.637  12.348  11.610
16544W        W82024   6.706  31.907  13.823
16545W        W82025   6.723   6.189   3.842
16546W        W82026  13.646  37.037  13.935
16547W        W82027  37.557  21.644   1.903
16548W        W82028  13.120  17.567   4.805
16549W        W82029  42.287  11.213   2.206
16550W        W82030  16.262  12.642  14.497
16551W        W82031  24.034  40.968   0.967
16552W        W82032   7.773  33.130  10.453
16553W        W82033  39.468  23.202  11.058
16554W        W82034  20.672  10.840   3.356
16555W        W82035   3.814  42.887   4.838
16556W        W82036  11.211  19.198   3.280
16557W        W82037  38.867  31.045   2.672
16558W        W82038  30.633  41.028   0.249
16559W        W82039   6.217   6.723  14.908
16560W        W82040  27.081  35.022  11.587
16561W        W82041  31.116  13.136   1.450
16562W        W82042   5.224  25.532   4.702
16563W        W82043   8.850  11.780  12.923
16564W        W82044  29.992  30.053   2.331
16565W        W82045  20.655  13.843   0.830
16566W        W82046  17.693  23.111  13.988
16567W        W82047  39.366   8.728  14.472
16568W        W82048  31.023   3.711  11.568
16569W        W82049  13.636  28.929   1.314
16570W        W82050  33.566  23.147   4.314
16571W        W82051  36.529  30.086   3.742
16572W        W82052  14.217   0.796   0.737
16573W        W82053   4.384  17.591   0.370
16574W        W82054  32.487  39.049  14.469
16575W        W82055  20.118  24.665  12.382
16576W        W82056  15.622  15.183   2.324
16577W        W82057  37.564  16.206  13.844
16578W        W82058  33.132  37.867   3.265
16579W        W82059  14.193  30.091  11.601
16580W        W82060  38.831  28.161   4.142
16581W        W82061  33.914   8.699   1.792
16582W        W82062  33.587  14.800   3.754
16583W        W82063   2.276  14.292   4.249
16584W        W82064  30.919  21.022  14.873
16585W        W82065  24.536  24.530   1.267
16586W        W82066  18.238  35.987   2.708
16587W        W82067  40.481  18.148   3.825
16588W        W82068   0.484   2.239   3.771
16589W        W82069   5.208   8.187  12.458
16590W        W82070  15.234   1.742   3.252
16591W        W82071   7.388  38.034   2.379
16592W        W82072  12.149  24.622   4.239
16593W        W82073  28.061  35.494   1.714
16594W        W82074  32.032   4.846   4.683
16595W        W82075   3.231  35.852  10.537
16596W        W82076  26.463  36.530  11.442
16597W        W82077  10.725  42.314  14.009
16598W        W82078  33.109  38.994  14.938
16599W        W82079  33.005  24.993   3.727
16600W        W82080  40.528  35.945  12.472
16601W        W82081  35.602  16.272  14.468
16602W        W82082  11.862  23.548   0.357
16603W        W82083  24.489  28.940   1.397
16604W        W82084  31.058  42.304  12.882
16605W        W82085  33.970  39.995  12.938
16606W        W82086  14.825  28.108   2.327
16607W        W82087  42.996  23.044   0.764
16608W        W82088  25.202  36.969   2.211
16609W        W82089  34.983  43.372   0.910
16610W        W82090  13.291  32.417   4.658
16611W        W82091   9.258   5.692  10.905
16612W        W82092  19.662   1.359   4.349
16613W        W82093   8.739   3.417   4.681
16614W        W82094  27.654   8.236  14.849
16615W        W82095  17.143   5.771  14.280
16616W        W82096   9.385   8.181   3.176
16617W        W82097  20.084  13.306  10.586
16618W        W82098  27.042  14.643  11.020
16619W        W82099  24.685   4.412   3.744
16620W        W82100  32.443  27.081   4.628
16621W        W82101   5.240  17.558   1.279
16622W        W82102   2.461   0.470   3.185
16623W        W82103  27.189  12.665   0.950
16624W        W82104   8.234  40.937   2.697
16625W        W82105  29.998  36.956   1.867
16626W        W82106  10.659  29.439   0.348
16627W        W82107  31.960  43.500  11.864
16628W        W82108  42.837  32.445  12.969
16629W        W82109  30.085   0.746  13.432
16630W        W82110  25.557  40.926  13.034
16631W        W82111   8.301  20.553  10.936
16632W        W82112  18.783  31.092   4.337
16633W        W82113  30.536  28.020  12.571
16634W        W82114  38.477  24.135  13.397
16635W        W82115  39.063  36.847  12.997
16636W        W82116  23.522  21.119  13.006
16637W        W82117  37.883   8.824   2.272
16638W        W82118  34.965  13.108  12.044
16639W        W82119  11.309  32.511  14.975
16640W        W82120  16.628  43.859   2.230
16641W        W82121  31.017   7.909   3.638
16642W        W82122  33.940  19.285  10.947
16643W        W82123   6.687   3.337   1.723
16644W        W82124  16.260  26.478   1.873
16645W        W82125   8.264   7.817   4.250
16646W        W82126   5.232   4.231  13.318
16647W        W82127  32.018  26.008   3.655
16648W        W82128   6.848  15.683   4.739
16649W        W82129  14.294  15.182   3.709
16650W        W82130  41.832  34.883   4.212
16651W        W82131  29.005   9.321   0.299
16652W        W82132  31.426  15.778   0.743
16653W        W82133  39.520   4.439  11.563
16654W        W82134  22.066  14.728  14.912
16655W        W82135  14.125  24.530  11.505
16656W        W82136  18.584   7.205   3.316
16657W        W82137  34.434  15.590  11.525
16658W        W82138   2.387  31.015  14.796
16659W        W82139  23.709  42.507   3.785
16660W        W82140  31.958  42.349   0.782
16661W        W82141  32.402  41.483   5.307
16662W        W82142  38.491  11.824   3.188
16663W        W82143  24.639  31.507  10.408
16664W        W82144  11.646  22.072  12.546
16665W        W82145  32.403  31.629   3.656
16666W        W82146   9.278   3.905   4.270
16667W        W82147  33.018  13.206   4.295
16668W        W82148  26.981   7.401  14.439
16669W        W82149   3.382  27.490   3.218
16670W        W82150  11.781   1.821   2.837
16671W        W82151  18.189  30.649  10.548
16672W        W82152  37.346  38.412   0.320
16673W        W82153  20.166  41.410   9.947
16674W        W82154  42.391   3.834   4.671
16675W        W82155  30.649  12.334   4.214
16676W        W82156  30.573  34.552   4.629
16677W        W82157  19.600  31.036  10.443
16678W        W82158  32.016  27.637   3.268
16679W        W82159  10.644   8.333  12.366
16680W        W82160  43.344  43.464   0.254
16681W        W82161  42.926  17.138  11.411
16682W        W82162   3.954  19.060  13.401
16683W        W82163  10.235  33.877  10.645
16684W        W82164   0.890  39.322   4.160
16685W        W82165   3.412  44.854  14.926
16686W        W82166  17.563  20.073  11.503
16687W        W82167   4.701  40.908   1.238
16688W        W82168  18.690  18.546  10.916
16689W        W82169  19.698  14.147   0.328
16690W        W82170  20.042  43.435  14.938
16691W        W82171  33.041  28.098   0.354
16692W        W82172  25.000   0.749   1.255
16693W        W82173  21.038  42.886  12.007
16694W        W82174  38.051  27.958   4.135
16695W        W82175   1.814  32.991  10.925
16696W        W82176  29.621   9.354   4.190
16697W        W82177  13.613  11.202   4.136
16698W        W82178  24.615   8.190   1.386
16699W        W82179  36.467   4.393  12.998
16700W        W82180  26.457  17.098  11.953
16701W        W82181  34.520  40.381   3.237
16702W        W82182  22.684   1.780   3.162
16703W        W82183  41.936  35.997  12.840
16704W        W82184  35.004  40.958  14.990
16705W        W82185  44.332  25.126  14.498
16706W        W82186  24.557  32.403  11.502
16707W        W82187   1.731  36.976   0.396
16708W        W82188  14.147   2.860  11.865
16709W        W82189  17.653  35.490   0.259
16710W        W82190  32.053  27.588   1.299
16711W        W82191  16.685  44.764  11.992
16712W        W82192   9.778   3.949  14.987
16713W        W82193  29.481  33.083   0.857
16714W        W82194  34.532  15.270  14.923
16715W        W82195  31.500  26.146   4.772
16716W        W82196  15.804  44.962  12.836
16717W        W82197  42.469  30.043  12.559
16718W        W82198   7.380  11.849  12.908
16719W        W82199  39.315   7.902   1.258
16720W        W82200  26.035  30.454  13.826
16721W        W82201  40.524  29.486  14.971
16722W        W82202   8.282  15.233  14.844
16723W        W82203  27.582  27.145   4.205
16724W        W82204   2.391  36.566   1.904
16725W        W82205  16.599  37.497  13.404
16726W        W82206  10.650  24.609  13.059
16727W        W82207   9.677  28.455  12.422
16728W        W82208  12.127  42.002  10.943
16729W        W82209  14.127   7.861  11.898
16730W        W82210  30.504  27.160   1.333
16731W        W82211  31.092  32.133  12.370
16732W        W82212  27.087  17.262  11.996
16733W        W82213  31.048  35.488  13.448
16734W        W82214  36.354  16.807  13.352
16735W        W82215  21.065  41.808  13.014
16736W        W82216  40.874  17.154   2.267
16737W        W82217  35.037  44.907  12.991
16738W        W82218  24.058  40.852  13.034
16739W        W82219   1.912  33.594  14.410
16740W        W82220  22.554  18.758   4.258
16741W        W82221  12.212  39.034   2.330
16742W        W82222   0.852   0.856   9.921
16743W        W82223  43.438  16.570  13.037
16744W        W82224  29.039  30.909  10.633
16745W        W82225  26.468  22.604   0.905
16746W        W82226  11.166  30.930  11.939
16747W        W82227  27.958  28.660   0.853
16748W        W82228  39.478   2.286  11.859
16749W        W82229  18.198   9.384  12.009
16750W        W82230  43.434   3.371   4.815
16751W        W82231  21.156  19.057   3.289
16752W        W82232   9.334  37.867   1.815
16753W        W82233  35.599  20.669  13.063
16754W        W82234  40.336   3.953   4.695
16755W        W82235   5.905  34.412  12.509
16756W        W82236  14.674  23.601  13.359
16757W        W82237  41.501  16.757   1.935
16758W        W82238  11.863  41.498  12.005
16759W        W82239  16.280  20.543   2.770
16760W        W82240  30.444  18.593   5.243
16761W        W82241   0.494  29.446  10.446
16762W        W82242  36.450   9.846   4.801
16763W        W82243  42.489  41.855  10.500
16764W        W82244  41.438  40.341  12.870
16765W        W82245  26.016  23.564  10.910
16766W        W82246  39.992  33.599   4.802
16767W        W82247  11.190  23.159  12.012
16768W        W82248  26.205  17.672   3.747
16769W        W82249  24.125  39.865   2.883
16770W        W82250  20.036  23.690  10.014
16771W        W82251  41.973  14.638   0.959
16772W        W82252  15.602  18.636   3.209
16773W        W82253  23.193  38.379  12.343
16774W        W82254  34.906  43.501  10.569
16775W        W82255  22.088  28.948   0.396
16776W        W82256  23.154  30.101  12.929
16777W        W82257  43.948  25.018  10.480
16778W        W82258  23.735  26.487   0.879
16779W        W82259  35.020  34.976  10.620
16780W        W82260  33.442  31.053  11.380
16781W        W82261  28.434  20.695   4.214
16782W        W82262  28.492   5.834  12.549
16783W        W82263  22.032  24.606  12.951
16784W        W82264  22.614   8.890   2.222
16785W        W82265  33.129  18.055  10.477
16786W        W82266  32.894  17.741  12.411
16787W        W82267  32.056  10.649   3.386
16788W        W82268  22.209   7.234   3.683
16789W        W82269  16.624   9.223  12.017
16790W        W82270  25.089  38.862   0.752
16791W        W82271  17.122  32.502   3.681
16792W        W82272  33.498  34.586   1.862
16793W        W82273  30.526   4.878   4.769
16794W        W82274  20.681  35.418   0.726
16795W        W82275  34.561  16.255  11.496
16796W        W82276  35.424  17.145   4.733
16797W        W82277  13.132  37.032  11.486
16798W        W82278  28.004  33.055   5.090
16799W        W82279  14.753  38.540  10.639
16800W        W82280  44.290  38.499   4.181
16801W        W82281   0.860  14.172   0.947
16802W        W82282  20.096  28.165  13.953
16803W        W82283  42.883  35.387  12.376
16804W        W82284  33.394  16.223  11.510
16805W        W82285  28.065   2.300   4.810
16806W        W82286  32.039   9.662  14.319
16807W        W82287  34.947  15.694  13.020
16808W        W82288   5.920   9.700  10.438
16809W        W82289   3.377  29.651  12.842
16810W        W82290  38.548  42.870  12.986
16811W        W82291  20.698  40.037  14.308
16812W        W82292   6.842   7.349  12.355
16813W        W82293  41.509  12.133  11.917
16814W        W82294   2.272  44.281  14.417
16815W        W82295   3.429  30.012   3.268
16816W        W82296  39.342  17.561  11.489
16817W        W82297   8.242  15.612   0.304
16818W        W82298  33.018   1.902   0.292
16819W        W82299  39.445  44.995  11.578
16820W        W82300  10.704   7.245   0.389
16821W        W82301  38.397  21.733  12.480
16822W        W82302   6.320  34.607   2.882
16823W        W82303  31.143  10.634   3.331
16824W        W82304  26.591  37.344   1.251
16825W        W82305  31.067  15.693   2.850
16826W        W82306  26.080  37.969  11.991
16827W        W82307  33.597  12.125   1.274
16828W        W82308   6.362   8.318  13.908
16829W        W82309  38.432  33.567  13.309
16830W        W82310  21.190   7.892   1.882
16831W        W82311  16.654  35.914  12.497
16832W        W82312  27.118  16.578   4.809
16833W        W82313  38.423  11.728   2.769
16834W        W82314  43.881  28.162  11.427
16835W        W82315  13.738  16.215  14.872
16836W        W82316   4.277  33.876  11.592
16837W        W82317  34.460  20.116   2.833
16838W        W82318  35.568  26.183  12.827
16839W        W82319   9.857  44.940  14.382
16840W        W82320  34.541  10.195   1.411
16841W        W82321  16.099  44.399   0.442
16842W        W82322  40.906   5.321  13.989
16843W        W82323  14.214  19.246  14.009
16844W        W82324  33.108  26.962   1.332
16845W        W82325   0.963  18.194  12.000
16846W        W82326  21.243  11.284   1.706
16847W        W82327  23.026  38.496   3.724
16848W        W82328  35.569   3.417  13.338
16849W        W82329  27.665  40.924  10.508
16850W        W82330  19.772  36.574   0.445
16851W        W82331  22.546  39.437  14.866
16852W        W82332  34.407   1.873  14.775
16853W        W82333  36.998  26.982  13.545
16854W        W82334  24.976   3.913   4.344
16855W        W82335  20.657  26.498   9.436
16856W        W82336   0.856  14.762   0.452
16857W        W82337   9.663  26.701   5.208
16858W        W82338  13.272  11.636   2.806
16859W        W82339  26.538  30.539  14.943
16860W        W82340  23.566  40.926   2.803
16861W        W82341  25.138  22.213   2.342
16862W        W82342  41.313  41.318   0.270
16863W        W82343  22.111  13.622   4.639
16864W        W82344  40.542  23.095  11.862
16865W        W82345  13.321  20.604   4.743
16866W        W82346  39.330   4.392   4.789
16867W        W82347  29.428  43.001  14.327
16868W        W82348   9.189  31.144   1.329
16869W        W82349   7.372  39.877  11.580
16870W        W82350  35.889  28.001  12.410
16871W        W82351  29.055  11.338  11.411
16872W        W82352  28.134  31.978  13.982
16873W        W82353   4.398  38.841  12.546
16874W        W82354  32.888   6.709  14.442
16875W        W82355   2.934  14.239  14.292
16876W        W82356  14.703  21.101   4.799
16877W        W82357  34.076  43.432   2.305
16878W        W82358   6.865   1.257   3.709
16879W        W82359  10.836  18.581  11.588
16880W        W82360  24.221  17.240   3.179
16881W        W82361   8.828  28.623  13.516
16882W        W82362  21.720  19.593   4.265
16883W        W82363  10.341  12.327  10.543
16884W        W82364  20.114  30.528   0.302
16885W        W82365  44.965  41.458   4.626
16886W        W82366   3.780  29.141  12.374
16887W        W82367  36.435  28.185  12.044
16888W        W82368  43.375   6.413  13.909
16889W        W82369  40.878  42.351   1.325
16890W        W82370  37.543  19.193  13.835
16891W        W82371  20.125  14.285   3.308
16892W        W82372  30.049  27.064  13.413
16893W        W82373  21.056  39.973   0.345
16894W        W82374  25.670   4.254  12.852
16895W        W82375  41.530  31.997  13.932
16896W        W82376  43.336   3.834  12.440
16897W        W82377  19.244  38.062  14.481
16898W        W82378  32.904  18.279   3.718
16899W        W82379  14.799  16.264   2.243
16900W        W82380  35.943  32.949  12.974
16901W        W82381  33.526  44.916  12.958
16902W        W82382  44.451  31.406  14.865
16903W        W82383  25.981  33.515  11.088
16904W        W82384  14.598  28.003  11.390
16905W        W82385   6.291  23.180   3.260
16906W        W82386  31.140  17.267   4.172
16907W        W82387  17.260  10.858  14.781
16908W        W82388  39.455  15.128  11.443
16909W        W82389   4.292  31.481  12.452
16910W        W82390  22.679  37.045  11.865
16911W        W82391  15.167  41.381  13.334
16912W        W82392  20.714  31.996  13.459
16913W        W82393  36.921  27.016  13.991
16914W        W82394  42.898  44.457  13.918
16915W        W82395  14.741  40.439  13.858
16916W        W82396   4.727  19.551   4.797
16917W        W82397  36.383  35.389  12.530
16918W        W82398  10.330  15.277  14.474
16919W        W82399  36.550  36.513  14.898
16920W        W82400  24.491  40.339   3.715
16921W        W82401  23.702  31.968   2.386
16922W        W82402  36.440   8.867  11.096
16923W        W82403  44.913  13.793   1.280
16924W        W82404  29.141  11.786  13.046
16925W        W82405  14.220  38.874   0.337
16926W        W82406  18.234  24.645  12.970
16927W        W82407   4.709   0.291  13.971
16928W        W82408  44.942  14.243   0.331
16929W        W82409  16.572  43.426  11.534
16930W        W82410  17.796  32.487  12.350
16931W        W82411  19.578  32.080   3.656
16932W        W82412  14.240  23.189  10.408
16933W        W82413  22.208  20.578   2.890
16934W        W82414  24.690  39.436  11.973
16935W        W82415   4.235  30.596   2.837
16936W        W82416   2.415  20.541  10.936
16937W        W82417  38.859  24.612   2.720
16938W        W82418  43.896  14.774   2.325
16939W        W82419  19.681  25.004   1.930
16940W        W82420  20.548  28.106  12.354
16941W        W82421   4.860  21.641   1.867
16942W        W82422  36.536  16.276   2.360
16943W        W82423  28.942  40.333  14.962
16944W        W82424  14.781  39.536  12.874
16945W        W82425  26.688  38.364  12.846
16946W        W82426   4.919   5.716   3.188
16947W        W82427   9.835  42.451  11.869
16948W        W82428  32.635   0.454  11.469
16949W        W82429   8.373  23.549   1.345
16950W        W82430  40.425  24.155   2.409
16951W        W82431   1.838  37.561  10.442
16952W        W82432  33.119  15.263   0.401
16953W        W82433  32.479  35.887  11.121
16954W        W82434  21.694  30.607   0.337
16955W        W82435  10.664  26.145   0.943
16956W        W82436  13.216  28.182   0.728
16957W        W82437  30.919  31.416   1.841
16958W        W82438  14.314   1.737  13.984
16959W        W82439  26.961   7.895  12.084
16960W        W82440  33.042  14.762   4.762
16961W        W82441  39.540  24.723  12.827
16962W        W82442  36.013  33.604  10.408
16963W        W82443  32.588  12.685   3.370
16964W        W82444  27.968   8.782  12.359
16965W        W82445  17.655  36.423  12.458
16966W        W82446  14.273  33.092  14.771
16967W        W82447  39.318   6.317   4.117
16968W        W82448  11.762  34.944  11.038
16969W        W82449  37.008  27.064   1.714
16970W        W82450  32.075  36.914   0.846
16971W        W82451  16.298  23.616  13.536
16972W        W82452  43.428  22.053   4.698
16973W        W82453   1.921  15.742  11.992
16974W        W82454  34.434  27.492  13.318
16975W        W82455  15.314  16.316   3.203
16976W        W82456  22.578  27.651  12.091
16977W        W82457  28.675  29.578   0.251
16978W        W82458  28.127  21.040   4.266
16979W        W82459   5.267  13.204  11.108
16980W        W82460   6.298   8.327  14.867
16981W        W82461   1.779  26.591   1.825
16982W        W82462  36.005  29.659  12.958
16983W        W82463  42.461   5.922   3.726
16984W        W82464  35.382   5.274  10.905
16985W        W82465  36.585  17.100   5.145
16986W        W82466   5.734  25.165  13.962
16987W        W82467  44.756  12.303  11.508
16988W        W82468  27.050  34.538  14.447
16989W        W82469  29.445  36.439   0.396
16990W        W82470  12.127  15.746  10.525
16991W        W82471   0.846  13.105  12.554
16992W        W82472  32.931  16.619   3.355
16993W        W82473  21.121  23.200   1.447
16994W        W82474  20.652  11.855  11.071
16995W        W82475  12.668  41.832  13.393
16996W        W82476  41.423  21.078  10.440
16997W        W82477  32.060  18.291  14.836
16998W        W82478  25.040   3.331  10.576
16999W        W82479  34.987  34.016  12.577
17000W        W82480  40.978  18.728   4.706
17001W        W82481   9.740  25.214   0.739
17002W        W82482  39.007   1.930  10.995
17003W        W82483   0.431  22.102  14.510
17004W        W82484  35.906  37.959  12.482
17005W        W82485  42.483  36.571   4.804
17006W        W82486   4.450  14.632  13.944
17007W        W82487  21.686  42.356   1.740
17008W        W82488  23.657  42.920  14.430
17009W        W82489  37.449  33.878  10.529
17010W        W82490   7.249   4.396   3.370
17011W        W82491  14.792  26.095  13.939
17012W        W82492   4.840   6.734  11.562
17013W        W82493  27.667  40.464  13.983
17014W        W82494  35.922  29.018   4.807
17015W        W82495  36.948  20.242   4.836
17016W        W82496   6.887  20.624  12.958
17017W        W82497   0.879  39.054   2.753
17018W        W82498  33.090  39.558  14.856
17019W        W82499   2.232   9.661   2.730
17020W        W82500  26.673  20.681  10.957
17021W        W82501   4.714  16.273   2.695
17022W        W82502  15.729  38.825   2.789
17023W        W82503  36.459  40.397  10.001
17024W        W82504  41.900   0.971  10.970
17025W        W82505  27.519  13.295  12.042
17026W        W82506   6.802  16.589  12.859
17027W        W82507  29.638  32.015   0.730
17028W        W82508  23.151  40.911   4.158
17029W        W82509  19.282  15.661   4.603
17030W        W82510  18.784  16.657  12.957
17031W        W82511  40.543  38.366   0.787
17032W        W82512   8.272  34.107  10.578
17033W        W82513  31.990   5.900   3.200
17034W        W82514  16.721  38.540   1.710
17035W        W82515   7.353  21.158   1.772
17036W        W82516  32.949  36.425  10.970
17037W        W82517  13.648  12.827   2.381
17038W        W82518  16.593  20.197   3.201
17039W        W82519  21.139  33.041  12.346
17040W        W82520   5.889  12.638   4.295
17041W        W82521   2.914  10.661  14.766
17042W        W82522  38.534  25.010  13.487
17043W        W82523  26.690  19.119   3.806
17044W        W82524   7.372  41.429   0.866
17045W        W82525  22.104  34.011  14.449
17046W        W82526  17.283  35.970   4.725
17047W        W82527  19.692  19.118  13.411
17048W        W82528  11.819  24.704   3.251
17049W        W82529  35.422  36.961   0.772
17050W        W82530  25.502   1.747   0.337
17051W        W82531  44.302  22.680   9.998
17052W        W82532  35.944  19.262  12.430
17053W        W82533  26.699  31.626   1.806
17054W        W82534  22.012  36.880  12.845
17055W        W82535  29.928  33.927  12.056
17056W        W82536   4.386   1.450  14.477
17057W        W82537  26.096  42.906  12.931
17058W        W82538  14.236  44.357   5.633
17059W        W82539  16.695   5.782  11.996
17060W        W82540  32.036  27.468   2.711
17061W        W82541  13.158  36.075   4.245
17062W        W82542  11.833  31.548   3.802
17063W        W82543  40.046  29.144   4.301
17064W        W82544  22.053  23.666  13.962
17065W        W82545  20.652  20.612   0.420
17066W        W82546  33.107   6.728  11.119
17067W        W82547  14.144   0.332   3.756
17068W        W82548  28.523  12.628  10.490
17069W        W82549  11.166  11.725   0.943
17070W        W82550  35.910  27.627  13.398
17071W        W82551  44.354  33.890  14.825
17072W        W82552   1.337  35.365  14.488
17073W        W82553  33.020  14.271   3.841
17074W        W82554   0.901  38.969  13.337
17075W        W82555  18.694  44.980  10.497
17076W        W82556  36.440  19.567   4.766
17077W        W82557  32.464  16.119   4.746
17078W        W82558  43.851  40.909   1.842
17079W        W82559  19.718  43.873  11.534
17080W        W82560   1.780  42.487   0.777
17081W        W82561  29.940  14.205  12.987
17082W        W82562   5.373  34.424   0.465
17083W        W82563  35.505  18.761  13.972
17084W        W82564  27.190  14.304  12.366
17085W        W82565  27.448  31.598   4.648
17086W        W82566  18.628  43.383   4.669
17087W        W82567  35.456   7.902  13.426
17088W        W82568  44.411   0.303  13.012
17089W        W82569   6.893  28.944  11.104
17090W        W82570  35.084  38.837  12.085
17091W        W82571  18.753   0.301   0.952
17092W        W82572  22.611   0.966  10.913
17093W        W82573  20.189  21.686   2.291
17094W        W82574  36.399  36.587   4.737
17095W        W82575  20.223  40.878   2.755
17096W        W82576   4.763  43.504  12.407
17097W        W82577  38.460   6.190   2.363
17098W        W82578  20.153  35.098  11.449
17099W        W82579  14.158  42.834   4.325
17100W        W82580  34.045  25.538  10.888
17101W        W82581  38.570  14.790   0.931
17102W        W82582  26.075   9.729  14.028
17103W        W82583   2.868  12.695  12.920
17104W        W82584  38.068  43.813   0.895
17105W        W82585  44.451   6.820  10.592
17106W        W82586  13.205  27.037   1.298
17107W        W82587  10.767  32.894  10.971
17108W        W82588  32.441  12.120   1.270
17109W        W82589  16.724  25.182   4.274
17110W        W82590  10.217  14.161   5.250
17111W        W82591  27.970  17.626  14.439
17112W        W82592  42.023  15.629  10.553
17113W        W82593  39.482  23.087   0.734
17114W        W82594  21.036  23.540   3.164
17115W        W82595   1.310  35.536  11.379
17116W        W82596  25.005  10.334  14.393
17117W        W82597  36.525   5.699   2.180
17118W        W82598  37.087  15.764   4.236
17119W        W82599   3.241  41.441   1.287
17120W        W82600  14.597   9.352   2.687
17121W        W82601  28.103   4.423  10.893
17122W        W82602   0.821  18.088  12.878
17123W        W82603  43.413  41.469   3.354
17124W        W82604   2.937  33.435   1.700
17125W        W82605  26.982  44.001   3.286
17126W        W82606  11.296  29.106   2.785
17127W        W82607  20.654  30.595  12.544
17128W        W82608   5.374  27.502  11.575
17129W        W82609  22.587  12.685   2.893
17130W        W82610  20.108  24.652  13.803
17131W        W82611  21.702   9.882   3.306
17132W        W82612   9.776  24.663   0.346
17133W        W82613  21.702   0.324  14.296
17134W        W82614  28.004  29.986  11.913
17135W        W82615  37.402  29.425   0.364
17136W        W82616  18.744  23.122   3.362
17137W        W82617  16.625  11.738  12.928
17138W        W82618  22.141   6.242   4.681
17139W        W82619  34.400  34.947  10.642
17140W        W82620  40.035  30.064   2.867
17141W        W82621  21.253  11.805  12.974
17142W        W82622   9.317  20.234   1.711
17143W        W82623  16.662  22.251  13.875
17144W        W82624   6.883  25.188   2.193
17145W        W82625   8.861  43.973   2.862
17146W        W82626   3.947  31.551  11.389
17147W        W82627  28.102  28.627   4.768
17148W        W82628  41.414  44.775   2.419
17149W        W82629  31.517  37.373   2.301
17150W        W82630  23.676  37.037   2.418
17151W        W82631  11.279  29.035  14.854
17152W        W82632   1.423  16.115   3.282
17153W        W82633  25.145  40.044  11.896
17154W        W82634  13.656  12.235   4.302
17155W        W82635  34.406  43.500   3.212
17156W        W82636  43.375  28.667   4.147
17157W        W82637  37.483  16.268  13.508
17158W        W82638  30.993  30.598   3.196
17159W        W82639  36.902   4.322  13.400
17160W        W82640  24.553  28.521   0.871
17161W        W82641   7.898  25.037   3.763
17162W        W82642  25.190  31.896   1.887
17163W        W82643   6.797  35.858   0.918
17164W        W82644  33.448   8.383   2.853
17165W        W82645  37.881  38.412  10.926
17166W        W82646  15.294  20.226  10.415
17167W        W82647   0.975  29.104  12.997
17168W        W82648  24.066  21.718  11.979
17169W        W82649  26.014  21.526   1.695
17170W        W82650  32.518  41.480  13.792
17171W        W82651   4.414  18.117   2.709
17172W        W82652  12.153   4.247   3.281
17173W        W82653  29.505  31.000   2.772
17174W        W82654  19.549  23.606  10.436
17175W        W82655  43.949  26.623  14.942
17176W        W82656  30.422  36.471   1.883
17177W        W82657  20.180  30.930   0.276
17178W        W82658  16.566  36.965   2.834
17179W        W82659   1.245   5.862  13.863
17180W        W82660  36.409  23.551   3.643
17181W        W82661  22.232  12.311  13.907
17182W        W82662  14.257   3.415   1.809
17183W        W82663  21.250  23.022  11.422
17184W        W82664   7.208  34.441   0.776
17185W        W82665  22.523  34.968   1.786
17186W        W82666  38.442  25.558  12.511
17187W        W82667  43.967   4.754  13.803
17188W        W82668  36.356  14.127   4.336
17189W        W82669  14.318  31.905  14.907
17190W        W82670  15.289  23.631   0.270
17191W        W82671  40.906  40.006   3.268
17192W        W82672  36.488  33.495   3.159
17193W        W82673  34.457   7.332   4.826
17194W        W82674   5.205  12.840  10.959
17195W        W82675  10.742  27.068   4.803
17196W        W82676   8.816  32.436   1.874
17197W        W82677  44.755   3.883  13.459
17198W        W82678   3.790  23.580   2.861
17199W        W82679  37.492  27.492  12.988
17200W        W82680  12.852   6.257   0.406
17201W        W82681  44.463  36.566   1.287
17202W        W82682  43.959  29.064   1.824
17203W        W82683  23.733  35.886   3.212
17204W        W82684  37.396   6.681  10.505
17205W        W82685  20.734  21.625   1.862
17206W        W82686  40.957  40.834   2.273
17207W        W82687  13.274   9.208   3.242
17208W        W82688  10.197   1.964  10.069
17209W        W82689  37.057  38.331  13.853
17210W        W82690  30.552  36.349  14.988
17211W        W82691  14.603  26.078  10.632
17212W        W82692  31.641  36.053  12.498
17213W        W82693   5.237  44.351   0.401
17214W        W82694  37.416   9.341  14.812
17215W        W82695   8.239  37.883   3.731
17216W        W82696  44.277   6.857   0.835
17217W        W82697  34.982  18.544   3.633
17218W        W82698   4.282  33.417  13.375
17219W        W82699   6.267  36.987   3.725
17220W        W82700  30.652  44.869  12.520
17221W        W82701   4.348  35.976   0.781
17222W        W82702  23.667  20.138   0.355
17223W        W82703  16.689  18.230   2.209
17224W        W82704  44.398   6.285  11.529
17225W        W82705  19.123   5.786  11.403
17226W        W82706   8.405  25.545  14.846
17227W        W82707  19.101  38.337  12.536
17228W        W82708  14.808  38.922  12.934
17229W        W82709  39.009   3.349   4.344
17230W        W82710  22.010  22.624  14.006
17231W        W82711  42.906   1.893  14.408
17232W        W82712  40.526  39.048   5.160
17233W        W82713  41.528   9.698   4.645
17234W        W82714   9.786   0.446   2.814
17235W        W82715   0.299  40.321  14.962
17236W        W82716   3.884   4.297  14.446
17237W        W82717  43.508  34.874   0.270
17238W        W82718  31.953  41.395  13.427
17239W        W82719  25.012  30.632  10.526
17240W        W82720  40.536   3.293  13.525
17241W        W82721   4.231  24.018   4.724
17242W        W82722  43.503   0.895   1.860
17243W        W82723   9.873   1.258  11.453
17244W        W82724   2.738  17.301  10.928
17245W        W82725   1.338  40.979   1.411
17246W        W82726  19.715   9.300  10.912
17247W        W82727  12.632  41.816   2.747
17248W        W82728   4.292   8.380  13.906
17249W        W82729  26.628  29.110   4.235
17250W        W82730  25.488  16.209  11.433
17251W        W82731  22.167   9.689   4.335
17252W        W82732  10.767  42.848  14.815
17253W        W82733  30.565  19.276  12.023
17254W        W82734  24.640  23.988   4.743
17255W        W82735  12.845  26.628   0.888
17256W        W82736  35.499   7.317   0.806
17257W        W82737  11.372  40.006  10.945
17258W        W82738   1.950   1.361  11.525
17259W        W82739  19.131  37.491   3.836
17260W        W82740  42.030  44.997   2.248
17261W        W82741   9.672  29.550   3.757
17262W        W82742  38.390  35.084  14.920
17263W        W82743  29.428  42.440   1.254
17264W        W82744  32.633  39.427  10.407
17265W        W82745  41.308  44.868  12.433
17266W        W82746  42.942   0.455   1.704
17267W        W82747  31.077  26.130   2.802
17268W        W82748  11.351  29.570  11.859
17269W        W82749  18.657  18.738  14.295
17270W        W82750  43.448  13.230  14.976
17271W        W82751  20.259  44.960  14.933
17272W        W82752  37.947   2.347   4.312
17273W        W82753  28.582   8.880  10.887
17274W        W82754  22.132  26.980  13.386
17275W        W82755  29.165  18.570  12.434
17276W        W82756  10.279  41.433  13.000
17277W        W82757   5.294  38.532   3.734
17278W        W82758  28.996   7.894  14.939
17279W        W82759  16.227  39.459   4.237
17280W        W82760  33.493  17.687   1.725
17281W        W82761  40.471  33.577   4.299
17282W        W82762  12.130   3.235  14.392
17283W        W82763  35.518  15.716  11.939
17284W        W82764  21.728   0.456  13.465
17285W        W82765  40.425  28.577   2.895
17286W        W82766   7.713  41.883  10.499
17287W        W82767  15.105  19.730   3.266
17288W        W82768  36.080   1.389   2.287
17289W        W82769  19.053   3.377  13.426
17290W        W82770  14.701  41.875  14.393
17291W        W82771   7.843  14.829   0.802
17292W        W82772  16.290  36.887  12.521
17293W        W82773  26.122  14.336  11.471
17294W        W82774  13.229  27.514   2.866
17295W        W82775  36.885   3.353  10.519
17296W        W82776  20.238  37.978  12.021
17297W        W82777  22.563   0.918   1.430
17298W        W82778  17.159  41.397  10.140
17299W        W82779  40.502  30.100   1.795
17300W        W82780  39.863  26.094   1.739
17301W        W82781  17.073  14.224   0.404
17302W        W82782   1.456   1.844  12.880
17303W        W82783  44.408  40.006  14.761
17304W        W82784  17.171  23.159  11.479
17305W        W82785  43.507  16.217   4.830
17306W        W82786   1.370  38.515   0.769
17307W        W82787  36.997  31.563   1.370
17308W        W82788  42.515  34.410   1.839
17309W        W82789  10.277  29.491   5.242
17310W        W82790  21.599  42.979  10.590
17311W        W82791  13.230  19.555   5.224
17312W        W82792  44.386  41.525   5.267
17313W        W82793  18.706  31.923   5.268
17314W        W82794   8.371   4.914  10.038
17315W        W82795  19.608   8.257   1.373
17316W        W82796  36.059   9.734  11.077
17317W        W82797  26.961  18.638   3.735
17318W        W82798  13.680   8.711   0.357
17319W        W82799  36.354  25.167   1.339
17320W        W82800  44.971   5.318  11.860
17321W        W82801  37.412  31.050   1.834
17322W        W82802  25.696   7.372  11.970
17323W        W82803   1.329  43.375   4.637
17324W        W82804  36.054  40.541  14.485
17325W        W82805   3.280  44.438   5.267
17326W        W82806   5.881   4.713   1.400
17327W        W82807  15.617   7.778   3.155
17328W        W82808  13.213  12.833  10.414
17329W        W82809  24.503   8.253  13.867
17330W        W82810  26.136  30.038   4.210
17331W        W82811   7.766  36.443   2.366
17332W        W82812  31.930  16.132  14.485
17333W        W82813   4.747   4.379  14.335
17334W        W82814   4.335  26.111  14.903
17335W        W82815  33.095  28.476  14.348
17336W        W82816  30.989  23.679   5.113
17337W        W82817   8.880   3.446   9.932
17338W        W82818  36.891  37.569   2.329
17339W        W82819   4.936   7.821  13.544
17340W        W82820   7.395   4.251   2.835
17341W        W82821  23.174  28.166  10.916
17342W        W82822  19.241  40.903  10.563
17343W        W82823  42.418  39.514  13.003
17344W        W82824  31.117   6.909   3.302
17345W        W82825  40.460  10.306  14.352
17346W        W82826   4.450   7.860  14.975
17347W        W82827  42.424  40.830  13.903
17348W        W82828  22.112  13.838  12.374
17349W        W82829  16.754  38.422   3.640
17350W        W82830  43.841  26.054   3.720
17351W        W82831   4.330  10.278   2.414
17352W        W82832  16.777  14.660   0.906
17353W        W82833  41.932   2.855  13.439
17354W        W82834   7.774  19.113   4.738
17355W        W82835  14.303  13.310  11.879
17356W        W82836  42.493  35.975   4.352
17357W        W82837  32.511  28.181   9.977
17358W        W82838  32.021   7.177   5.280
17359W        W82839  14.602  32.545   4.709
17360W        W82840  12.803  11.703   4.331
17361W        W82841   1.831  41.829   4.619
17362W        W82842  12.748  31.953   1.336
17363W        W82843  17.061  29.494   2.215
17364W        W82844  10.331  28.644   3.185
17365W        W82845  43.481  23.200  12.447
17366W        W82846   0.850  30.072   4.221
17367W        W82847  31.473  38.861   3.309
17368W        W82848   6.397   5.296  14.294
17369W        W82849  11.229  22.702   0.391
17370W        W82850   6.701  14.713  10.524
17371W        W82851  42.001  41.855   2.415
17372W        W82852   3.757  15.639   3.755
17373W        W82853  13.771  39.973  10.034
17374W        W82854   8.239  21.122   2.685
17375W        W82855   2.308  40.425   4.201
17376W        W82856  15.805   1.895  12.823
17377W        W82857  25.172   5.335  10.593
17378W        W82858  14.210  11.815   4.349
17379W        W82859  17.728  40.545  13.399
17380W        W82860  35.965  12.809   2.341
17381W        W82861  43.285  33.538  13.973
17382W        W82862   3.265  27.086  13.490
17383W        W82863  18.084  11.816   2.689
17384W        W82864   2.292  17.718   0.362
17385W        W82865  17.295  40.019  12.003
17386W        W82866  10.153  40.869  11.016
17387W        W82867  25.077  43.475  13.312
17388W        W82868  44.797   6.816   0.396
17389W        W82869   0.784   4.873   2.803
17390W        W82870  19.230  37.988  12.391
17391W        W82871  12.847  38.879  14.832
17392W        W82872  24.066  19.604   4.245
17393W        W82873  33.542  44.976   1.844
17394W        W82874  21.592   8.664   1.404
17395W        W82875  21.531  31.493   3.274
17396W        W82876  39.897  23.603   4.627
17397W        W82877  38.076  33.461   4.736
17398W        W82878   2.289  12.708   1.889
17399W        W82879  20.255  43.376  13.525
17400W        W82880  22.236  42.501   4.197
17401W        W82881   3.256  35.110  10.150
17402W        W82882  31.117  26.615   3.319
17403W        W82883  23.590  44.431   0.918
17404W        W82884   8.314  20.137   4.351
17405W        W82885  36.478  28.564  13.466
17406W        W82886  37.988   8.838  11.069
17407W        W82887  37.355  42.515  14.441
17408W        W82888  30.973  38.965   9.528
17409W        W82889   8.754  20.660  14.800
17410W        W82890  21.059  36.475   2.328
17411W        W82891   2.950  35.993  12.365
17412W        W82892  42.852   3.800  12.557
17413W        W82893  36.453  35.972  12.055
17414W        W82894  28.183  30.096   4.290
17415W        W82895  34.879  36.022  12.906
17416W        W82896  40.538  44.928  10.900
17417W        W82897  43.467  23.542  12.361
17418W        W82898  44.755  34.374   2.356
17419W        W82899  38.360   5.801   0.734
17420W        W82900  31.442  10.159  11.044
17421W        W82901   6.299   1.480  14.024
17422W        W82902  17.719  27.601  13.391
17423W        W82903   1.783  16.289   0.896
17424W        W82904  17.117   4.426  10.109
17425W        W82905  38.541  44.449   4.607
17426W        W82906  40.498   8.279   3.825
17427W        W82907  33.542   2.398   2.825
17428W        W82908  23.098   2.915   1.401
17429W        W82909   8.288   9.293   2.701
17430W        W82910  14.766   1.901   4.244
17431W        W82911  12.345  24.530  13.842
17432W        W82912  23.179  23.016   3.669
17433W        W82913   0.794   2.826  13.954
17434W        W82914  18.777  34.997   1.740
17435W        W82915  24.089  44.851   1.277
17436W        W82916  15.787   6.422  13.911
17437W        W82917  15.706  23.230  11.591
17438W        W82918  36.564  18.093   4.713
17439W        W82919  36.869   9.828  14.341
17440W        W82920  41.822  44.407  13.402
17441W        W82921  35.498  33.449  10.929
17442W        W82922  16.771  38.546   4.638
17443W        W82923  13.693   9.649   1.833
17444W        W82924  14.241  27.976  11.062
17445W        W82925  20.155  35.005   4.336
17446W        W82926   2.725  44.879   2.742
17447W        W82927  10.689  18.220   5.301
17448W        W82928  20.541  43.988   2.408
17449W        W82929  38.015  17.286  14.806
17450W        W82930  31.519  23.681   1.381
17451W        W82931  15.243  16.691  13.950
17452W        W82932  35.027  35.358  12.916
17453W        W82933  41.889  15.629  10.094
17454W        W82934   3.850  19.766  10.613
17455W        W82935  23.702  25.990  13.465
17456W        W82936   8.347  43.814   0.770
17457W        W82937  26.574  11.193  11.477
17458W        W82938  20.554   7.382   5.805
17459W        W82939  21.060  43.384   0.395
17460W        W82940  15.684  33.456   0.393
17461W        W82941  12.155  35.441  11.408
17462W        W82942  28.141  13.250  14.959
17463W        W82943  15.714  22.079   0.322
17464W        W82944  40.502  38.351   2.397
17465W        W82945  33.131  11.306   0.941
17466W        W82946  41.002  14.228   3.313
17467W        W82947  39.916  18.288  12.978
17468W        W82948  16.628  12.275  14.411
17469W        W82949   4.753  38.356  14.851
17470W        W82950   3.379  37.947  13.050
17471W        W82951  11.204   0.385  10.410
17472W        W82952   9.256  27.083   1.338
17473W        W82953  24.126  11.791   4.625
17474W        W82954  32.585   8.804  10.958
17475W        W82955  30.093  34.368  13.995
17476W        W82956  39.457  43.418   3.667
17477W        W82957   5.303  39.331  12.545
17478W        W82958  11.704  21.580   4.123
17479W        W82959   5.400  41.027  11.993
17480W        W82960  37.053  21.698   2.365
17481W        W82961   7.372  15.252   4.713
17482W        W82962  25.097  20.679   1.876
17483W        W82963  37.946   0.349  14.868
17484W        W82964  38.012  43.790   1.734
17485W        W82965  32.563  18.076  13.478
17486W        W82966   5.202  15.651   3.294
17487W        W82967  31.604  37.997   0.963
17488W        W82968  31.418  26.629  14.505
17489W        W82969  29.056   4.263  12.887
17490W        W82970  25.487   9.339   4.772
17491W        W82971   2.400  41.966  11.480
17492W        W82972  14.108  20.578   1.694
17493W        W82973  26.671  23.985   3.756
17494W        W82974  32.540  35.407   4.160
17495W        W82975  29.644   9.810  14.979
17496W        W82976  14.806  27.487   0.418
17497W        W82977  28.546   8.167  12.076
17498W        W82978   6.890  29.087  13.808
17499W        W82979  14.790  23.511  10.897
17500W        W82980   7.897  38.058   2.347
17501W        W82981  32.134   9.372  14.865
17502W        W82982  16.735  11.824  10.624
17503W        W82983  42.950  21.753   3.314
17504W        W82984  15.126   1.857  12.379
17505W        W82985  44.847   5.306   1.889
17506W        W82986  40.437  15.279   4.312
17507W        W82987  19.183  24.670   0.438
17508W        W82988  19.223   1.320  12.977
17509W        W82989  12.629  27.668  14.385
17510W        W82990  44.303  44.898   4.707
17511W        W82991  26.145  22.602   0.839
17512W        W82992  25.542  27.632   4.733
17513W        W82993   8.177  25.637  10.997
17514W        W82994  41.936  24.715   3.156
17515W        W82995  14.700  40.977   0.774
17516W        W82996   6.338  12.352   2.231
17517W        W82997  17.571  13.648  13.409
17518W        W82998  31.631  33.892   4.615
17519W        W82999  10.642  40.830   1.843
17520W        W83000  40.428  43.998  12.577
17521W        W83001  14.301  10.778   4.709
17522W        W83002  14.273  43.834   3.775
17523W        W83003  35.932  14.258  12.096
17524W        W83004  40.841  32.954  11.098
17525W        W83005  32.000  11.281  11.542
17526W        W83006   3.920  30.653  12.525
17527W        W83007  30.438  28.555  14.289
17528W        W83008  13.843   9.203   1.839
17529W        W83009  21.037  27.607  11.453
17530W        W83010  41.362  42.971   9.961
17531W        W83011  33.448  32.994   1.880
17532W        W83012  29.073  39.516   0.455
17533W        W83013  30.444   4.776   3.182
17534W        W83014   4.271  11.201   3.205
17535W        W83015  23.499  37.447  13.907
17536W        W83016  32.899  43.434   2.870
17537W        W83017  23.070   5.306   3.303
17538W        W83018  40.827  19.697   3.225
17539W        W83019   3.262  19.040  12.483
17540W        W83020   2.349  31.972   3.363
17541W        W83021  42.808  14.288   2.737
17542W        W83022  14.616  38.998  12.040
17543W        W83023   7.887   6.213  13.058
17544W        W83024   9.799  31.147   0.275
17545W        W83025  40.541  15.213  14.927
17546W        W83026  23.700  16.081  13.471
17547W        W83027  36.870  31.024  10.590
17548W        W83028   2.763  22.524  12.538
17549W        W83029  10.800  27.179   1.415
17550W        W83030  39.834  17.233  10.013
17551W        W83031  25.987  44.848  12.979
17552W        W83032  16.787   6.324   1.278
17553W        W83033  42.015  17.254  13.014
17554W        W83034  32.029  13.118  12.895
17555W        W83035  20.705  19.089  11.885
17556W        W83036  19.212  18.237  14.882
17557W        W83037   8.836  33.017   2.284
17558W        W83038  19.050  42.342   1.376
17559W        W83039   7.171  28.144   2.413
17560W        W83040  33.460   0.357  12.480
17561W        W83041  13.274   8.721   4.692
17562W        W83042  19.055  42.858   3.255
17563W        W83043  27.946  41.025   3.742
17564W        W83044   9.652  31.995  13.952
17565W        W83045  40.308  33.906  10.485
17566W        W83046  23.060  44.784  12.480
17567W        W83047  10.269  21.028   3.869
17568W        W83048  19.243  37.548  14.358
17569W        W83049  19.283   2.284   3.336
17570W        W83050  26.557  16.258  12.458
17571W        W83051  23.200   7.349   1.414
17572W        W83052   7.898   2.328  14.316
17573W        W83053  36.982  27.650  12.881
17574W        W83054  18.636  31.992   0.728
17575W        W83055  11.854   2.814   3.151
17576W        W83056   7.374  11.200  14.016
17577W        W83057  14.255  41.343   9.609
17578W        W83058  19.260   6.721  13.882
17579W        W83059  14.769  34.956   3.331
17580W        W83060  36.072   9.651   3.319
17581W        W83061  19.629  43.413   3.800
17582W        W83062   2.916  22.043   0.336
17583W        W83063  21.168  16.206   3.754
17584W        W83064  24.119  30.106  13.950
17585W        W83065  43.507  25.093   4.708
17586W        W83066  38.475  37.503   3.322
17587W        W83067  12.333  32.563  10.972
17588W        W83068   5.909  33.497  13.924
17589W        W83069  22.109   4.779   1.395
17590W        W83070  35.936   1.475  13.340
17591W        W83071  22.098  20.248  11.940
17592W        W83072   9.241  42.425   4.163
17593W        W83073  12.835  38.439  10.550
17594W        W83074   1.773  18.716   3.634
17595W        W83075  14.179   0.841  14.890
17596W        W83076   0.783  13.219   1.321
17597W        W83077  39.832  18.777   3.705
17598W        W83078  44.976  27.598  11.493
17599W        W83079  37.504   2.244   0.928
17600W        W83080  15.656  43.800  12.919
17601W        W83081   3.348   8.700  14.999
17602W        W83082  11.638  25.501   3.684
17603W        W83083  39.035  36.065  13.932
17604W        W83084  43.277  17.673  12.908
17605W        W83085   6.193  14.628  12.985
17606W        W83086   1.846  42.855  13.813
17607W        W83087  19.143  13.836  13.521
17608W        W83088  30.087  41.018  13.320
17609W        W83089  41.937  35.581  12.013
17610W        W83090  12.651  28.045  12.447
17611W        W83091  37.571  36.433  14.798
17612W        W83092  41.519   2.307   4.720
17613W        W83093   0.357  44.379  11.464
17614W        W83094   8.337  19.715   4.607
17615W        W83095  22.718  39.957  14.825
17616W        W83096   5.695  14.783  14.381
17617W        W83097  14.188   6.295   3.232
17618W        W83098  27.044  31.066   0.369
17619W        W83099  37.424  20.085   1.439
17620W        W83100  37.000  44.777   3.769
17621W        W83101   8.659  20.131  13.467
17622W        W83102  28.567   1.385  13.901
17623W        W83103  39.356  44.897   3.198
17624W        W83104  39.430   2.958  13.523
17625W        W83105  17.200  40.329   4.769
17626W        W83106  41.892  43.933   2.182
17627W        W83107  16.790  33.878   3.370
17628W        W83108  15.284  18.190  11.975
17629W        W83109   2.945  13.216   1.241
17630W        W83110  32.042  26.476  14.912
17631W        W83111  18.735  35.423  13.424
17632W        W83112   4.303  26.033   4.139
17633W        W83113  34.898  30.444   1.746
17634W        W83114  35.481  34.969  13.476
17635W        W83115  28.666  16.145  13.317
17636W        W83116   3.412  22.611  14.982
17637W        W83117   9.340   2.842   0.300
17638W        W83118  33.456  35.564  10.460
17639W        W83119  36.958  43.394   4.789
17640W        W83120   6.269  14.107   2.219
17641W        W83121  16.619  39.057   0.865
17642W        W83122  39.861  37.480  13.343
17643W        W83123   8.209   0.466  12.894
17644W        W83124  13.310   6.719  10.619
17645W        W83125  12.612  29.518  12.415
17646W        W83126  13.226  16.811  12.529
17647W        W83127  21.563  24.187  13.024
17648W        W83128  43.333  11.728   2.318
17649W        W83129   7.401  38.378  11.020
17650W        W83130  29.541  31.080   0.400
17651W        W83131  32.016   5.305  10.498
17652W        W83132   6.716  12.827   1.873
17653W        W83133  16.618   7.337  13.033
17654W        W83134  43.420   5.726  13.798
17655W        W83135  43.433   3.773  14.769
17656W        W83136  26.109  22.540  12.495
17657W        W83137  38.329   5.224  10.613
17658W        W83138  19.056  30.916   2.811
17659W        W83139  42.870   1.321  13.489
17660W        W83140  42.428  43.811   2.207
17661W        W83141   3.796   7.315   3.211
17662W        W83142   2.856   3.220   2.717
17663W        W83143  22.657  13.656  10.625
17664W        W83144   6.902  31.138   3.815
17665W        W83145  29.985  10.161  12.395
17666W        W83146  18.166   9.214   1.728
17667W        W83147  22.020  23.145   2.282
17668W        W83148  42.851  30.642  10.548
17669W        W83149  32.109  30.466   2.724
17670W        W83150  44.464   3.354  10.117
17671W        W83151  32.517  17.668  13.469
17672W        W83152  33.892  11.866   1.814
17673W        W83153  28.523   4.260  13.482
17674W        W83154  38.358  34.952   3.145
17675W        W83155  33.001  23.562   2.714
17676W        W83156   9.372  31.960  13.957
17677W        W83157  40.327  17.598  12.898
17678W        W83158   4.783  12.675   0.353
17679W        W83159  17.662   4.896   3.217
17680W        W83160  12.672  13.627  10.470
17681W        W83161  17.080  28.529  14.784
17682W        W83162  10.375  38.819   4.750
17683W        W83163   9.313  17.214   2.266
17684W        W83164  22.206  36.020   1.859
17685W        W83165  23.524  41.855  10.627
17686W        W83166  10.297  12.230   4.334
17687W        W83167  15.647  30.955  13.347
17688W        W83168  18.650  35.524   1.355
17689W        W83169   0.788   1.803   3.264
17690W        W83170   1.948  24.185   1.406
17691W        W83171  11.370  10.235  13.015
17692W        W83172  12.849  41.401  12.916
17693W        W83173   6.893  32.569   2.410
17694W        W83174   7.192  33.488  10.459
17695W        W83175   8.864   6.230   2.736
17696W        W83176  27.469  11.725  12.940
17697W        W83177  24.634  32.036   4.789
17698W        W83178  17.094   1.797  14.489
17699W        W83179  14.112  24.996  13.434
17700W        W83180  33.549  33.451   1.427
17701W        W83181   1.321   3.352   0.890
17702W        W83182   4.754  40.401  11.012
17703W        W83183   4.424  25.652   4.662
17704W        W83184   5.796  19.671  12.495
17705W        W83185  20.766  44.320   3.781
17706W        W83186  29.431  44.365  14.342
17707W        W83187  32.942  16.172  13.816
17708W        W83188  13.818  22.617   3.357
17709W        W83189  22.710  17.078   1.300
17710W        W83190  27.175  20.614   0.302
17711W        W83191  41.912   6.700   2.272
17712W        W83192  33.553  33.397  11.094
17713W        W83193  29.002   5.317   4.799
17714W        W83194  28.464  17.156   3.867
17715W        W83195   1.440  29.944  10.534
17716W        W83196  27.669   4.402  10.484
17717W        W83197  13.799  29.125   2.834
17718W        W83198   1.859  43.997   3.658
17719W        W83199  14.792  10.154  14.428
17720W        W83200  26.598  36.380   1.725
17721W        W83201  39.025  19.133   1.268
17722W        W83202   8.788   3.944  12.579
17723W        W83203  42.005  16.114  11.435
17724W        W83204   6.910   5.909  14.908
17725W        W83205  39.973   3.433  12.961
17726W        W83206  26.678  29.608   3.730
17727W        W83207  44.467  10.313  10.956
17728W        W83208  38.489  43.007   2.663
17729W        W83209  37.080  27.567  13.457
17730W        W83210  34.873   2.308   4.778
17731W        W83211  36.074  28.989   4.226
17732W        W83212  11.866  25.198  11.963
17733W        W83213  41.495  23.532  13.442
17734W        W83214  40.942   8.215  12.916
17735W        W83215  16.715  38.359   0.443
17736W        W83216  18.589  12.819   5.164
17737W        W83217  36.879  27.029   1.446
17738W        W83218  17.562  19.689   3.660
17739W        W83219  22.082  24.087   3.218
17740W        W83220  42.789   0.420  14.466
17741W        W83221  32.948  18.771  13.010
17742W        W83222  24.987  21.056   0.829
17743W        W83223  22.035   3.745  13.497
17744W        W83224  27.952  18.729   2.691
17745W        W83225  16.686   5.879   1.302
17746W        W83226  21.619  15.708  10.131
17747W        W83227  12.162  24.720   4.666
17748W        W83228  16.135  43.949  13.499
17749W        W83229  36.581   0.270   2.254
17750W        W83230  22.596  34.534   2.887
17751W        W83231  23.222  17.646  11.441
17752W        W83232  11.833  37.970   4.335
17753W        W83233  27.196  25.548  12.442
17754W        W83234  27.657  14.094  12.508
17755W        W83235  30.136  19.192   3.374
17756W        W83236  27.050   0.887   0.931
17757W        W83237  29.958   9.675  13.962
17758W        W83238  37.457  14.211   0.400
17759W        W83239   5.348  32.099  13.503
17760W        W83240  20.623  39.523  10.466
17761W        W83241  33.936   7.230   0.843
17762W        W83242  37.393   5.226   1.326
17763W        W83243  34.894   5.387  10.420
17764W        W83244  15.613  17.589   2.762
17765W        W83245  34.476   4.403   4.294
17766W        W83246  11.787  38.917   3.238
17767W        W83247  31.135  13.315  11.060
17768W        W83248   4.796   4.870  13.824
17769W        W83249  29.092  30.630  12.379
17770W        W83250  21.664  16.813   2.269
17771W        W83251  21.083  41.026  14.864
17772W        W83252  32.445  34.525   3.214
17773W        W83253  27.495   3.457  12.971
17774W        W83254  39.540  26.478  12.434
17775W        W83255  39.555  33.508  10.551
17776W        W83256  22.251  40.423   2.773
17777W        W83257  30.121  19.695   1.784
17778W        W83258   5.351  20.070  13.452
17779W        W83259  16.701  18.165  13.377
17780W        W83260  31.080   1.431  13.012
17781W        W83261  39.418  34.073  14.346
17782W        W83262  38.834  36.968   1.902
17783W        W83263  22.549  15.765   1.372
17784W        W83264  44.785  13.601  12.949
17785W        W83265  39.918  43.463   3.173
17786W        W83266  31.922  13.225  13.833
17787W        W83267  12.711  30.597  10.918
17788W        W83268   9.658  19.047   3.734
17789W        W83269   5.283   2.253  14.503
17790W        W83270  23.604   0.445  12.945
17791W        W83271  40.537  28.458   1.242
17792W        W83272  16.084  14.100   3.809
17793W        W83273   6.204   4.439   0.770
17794W        W83274   1.861  25.979   2.386
17795W        W83275  31.543  28.543   1.884
17796W        W83276   8.824  40.401  10.612
17797W        W83277  13.351  15.653  14.410
17798W        W83278  21.238  35.427  13.452
17799W        W83279  31.973  39.826   2.799
17800W        W83280  33.012  17.295   0.291
17801W        W83281  21.715  21.661   1.407
17802W        W83282  22.568   1.761  11.554
17803W        W83283  21.724   1.882  13.970
17804W        W83284  15.588  20.193   0.956
17805W        W83285  26.598   3.395  11.525
17806W        W83286  18.258   0.842  14.308
17807W        W83287  19.625  37.373   3.336
17808W        W83288  37.468  44.322  11.001
17809W        W83289  32.900  31.589  12.058
17810W        W83290   0.757  39.852  13.326
17811W        W83291  34.604   9.337   2.867
17812W        W83292  26.012  15.691   2.384
17813W        W83293  27.033  17.742  12.993
17814W        W83294  18.788  13.259  13.528
17815W        W83295   9.226   1.280   1.439
17816W        W83296  30.571   9.675  10.424
17817W        W83297  23.732  25.098   1.344
17818W        W83298  30.111  15.135  11.974
17819W        W83299  26.125  35.437   2.728
17820W        W83300  23.731  11.685  14.442
17821W        W83301  22.997  38.875  14.296
17822W        W83302  12.163  10.272   4.824
17823W        W83303  21.671  26.493   0.920
17824W        W83304  35.591  37.991   2.670
17825W        W83305  42.376  43.462  10.978
17826W        W83306  42.994  43.314  13.382
17827W        W83307  39.004  33.430  10.481
17828W        W83308  22.232   9.221  14.771
17829W        W83309  33.428  10.664   4.190
17830W        W83310  31.003  35.585  12.059
17831W        W83311  25.136  18.699   3.220
17832W        W83312  29.610  38.516   4.683
17833W        W83313  27.996  11.312   0.905
17834W        W83314   3.229  26.633   5.205
17835W        W83315  23.538  11.137  12.004
17836W        W83316  38.357  41.938   0.276
17837W        W83317  12.628  18.211  12.480
17838W        W83318  44.485  19.660  11.976
17839W        W83319  38.852  37.064   4.250
17840W        W83320  30.071  21.105   2.843
17841W        W83321  24.017   3.831  13.830
17842W        W83322  28.030  11.141  14.931
17843W        W83323   5.729  26.560  12.448
17844W        W83324  28.973  22.121   3.207
17845W        W83325  22.029   1.833  14.515
17846W        W83326   6.225   5.213   4.798
17847W        W83327  10.814  23.062   1.746
17848W        W83328  37.997   9.818  14.421
17849W        W83329  26.103  32.579   1.242
17850W        W83330  16.756  19.196  13.800
17851W        W83331   2.827  26.655   4.270
17852W        W83332  38.938  38.410  11.469
17853W        W83333   3.339  15.644  13.973
17854W        W83334  37.964  22.056   0.878
17855W        W83335  12.750  22.578  14.851
17856W        W83336  43.842  41.333   1.256
17857W        W83337   9.731  17.238   1.273
17858W        W83338  39.322   2.814   0.773
17859W        W83339  10.790  43.464   0.346
17860W        W83340  25.085  26.605  14.908
17861W        W83341  25.695   1.376  11.121
17862W        W83342  39.384  20.136  11.088
17863W        W83343   1.956  41.907   3.821
17864W        W83344  36.354  22.644  14.362
17865W        W83345   6.401  10.735  12.385
17866W        W83346  15.578  31.601  13.495
17867W        W83347   2.815  10.872  12.393
17868W        W83348  24.485  34.038   2.283
17869W        W83349  32.418  16.311   3.700
17870W        W83350   2.890   8.227   0.399
17871W        W83351  14.118  26.028   2.377
17872W        W83352  30.433  38.396  10.148
17873W        W83353  43.453   7.411  12.468
17874W        W83354  11.136  18.296   2.751
17875W        W83355  40.421  28.497  13.992
17876W        W83356  44.864  16.144  12.361
17877W        W83357  37.930  34.426   2.798
17878W        W83358  32.558   1.884   1.892
17879W        W83359  24.622  17.160  11.520
17880W        W83360   2.402  27.942  12.527
17881W        W83361  40.306   5.860   1.889
17882W        W83362  18.097   5.908  13.329
17883W        W83363   3.846  16.099  11.974
17884W        W83364  27.968  32.538   3.761
17885W        W83365   6.736  25.173   2.901
17886W        W83366  38.924  12.264  10.953
17887W        W83367  37.503  41.976   1.249
17888W        W83368  11.839  24.110  14.472
17889W        W83369  35.989  43.451  10.980
17890W        W83370  29.991  29.096   0.856
17891W        W83371  10.723  23.553   1.318
17892W        W83372  27.498  21.213   4.611
17893W        W83373  32.131   5.269   3.831
17894W        W83374   5.712  36.882   3.711
17895W        W83375  28.580  19.211  10.588
17896W        W83376  34.611  16.594  13.969
17897W        W83377  20.718  37.539   4.220
17898W        W83378  35.954   9.810  14.331
17899W        W83379  38.957  34.898   3.322
17900W        W83380   7.318  13.146   0.783
17901W        W83381  30.602  32.053   4.671
17902W        W83382  39.559  20.164   9.989
17903W        W83383  35.937  17.735  13.384
17904W        W83384   3.744   9.240   4.233
17905W        W83385   7.841  24.665   2.681
17906W        W83386  26.619  28.967   3.817
17907W        W83387  36.044  37.489  11.981
17908W        W83388  25.565  23.709  14.512
17909W        W83389   8.671  33.430   0.268
17910W        W83390  25.468  43.327  13.345
17911W        W83391  13.743  36.893  14.858
17912W        W83392   2.390  22.025  12.551
17913W        W83393  26.596  36.081   4.248
17914W        W83394   7.294  20.083  13.010
17915W        W83395  18.634   4.765   2.721
17916W        W83396   8.259  20.180  13.353
17917W        W83397  26.473  42.904   0.407
17918W        W83398  23.074  24.976  12.341
17919W        W83399  43.007   8.681   5.119
17920W        W83400  23.589   2.243   2.730
17921W        W83401  11.217   2.769  14.439
17922W        W83402  40.971  44.890  14.923
17923W        W83403   5.870  35.094   3.685
17924W        W83404   1.466  27.677   4.619
17925W        W83405  15.768  23.569  14.341
17926W        W83406  12.197  33.003   1.413
17927W        W83407  18.080  17.201  10.566
17928W        W83408  31.520  23.552   1.721
17929W        W83409   6.911  17.699   3.850
17930W        W83410  17.794   9.196   1.814
17931W        W83411   4.267   7.325  14.440
17932W        W83412  21.627  21.154  12.949
17933W        W83413  30.414   7.823   1.310
17934W        W83414  34.006  38.950  14.345
17935W        W83415  24.604  29.985   4.312
17936W        W83416  12.347  32.118  10.625
17937W        W83417  11.765  20.586   1.911
17938W        W83418  15.146  19.157  10.465
17939W        W83419  32.901  32.516  12.011
17940W        W83420  17.195  38.944  12.095
17941W        W83421  10.787  41.901   0.834
17942W        W83422  36.973  32.898  12.943
17943W        W83423  27.520  14.760  14.485
17944W        W83424  11.139  20.597  14.470
17945W        W83425  15.648  17.795   1.770
17946W        W83426   9.770  39.928  12.870
17947W        W83427  38.978  26.478  13.508
17948W        W83428  36.591  30.000  10.615
17949W        W83429  28.467  31.096  12.032
17950W        W83430   7.852  33.571   4.786
17951W        W83431  18.660  39.881  14.303
17952W        W83432  34.958   7.767   4.819
17953W        W83433  16.177   4.786   1.856
17954W        W83434   1.955  20.028   0.863
17955W        W83435   6.272  25.029  11.989
17956W        W83436  14.288  44.869  11.017
17957W        W83437  44.348  37.342   9.949
17958W        W83438  15.695  19.191   1.381
17959W        W83439  16.605  22.521   2.797
17960W        W83440  33.523  34.018   4.253
17961W        W83441  42.448  11.868   4.139
17962W        W83442   8.362  34.587   2.303
17963W        W83443  40.304  14.334   4.628
17964W        W83444  36.006  39.554   2.687
17965W        W83445  16.678  25.513  10.971
17966W        W83446  23.024  25.015   2.763
17967W        W83447  17.219  41.982   4.132
17968W        W83448  14.831  31.954   2.262
17969W        W83449   3.418  20.683   4.175
17970W        W83450  37.391   3.247  10.502
17971W        W83451  22.122  39.484  14.345
17972W        W83452  17.787   5.744  13.816
17973W        W83453  20.077  15.153  11.062
17974W        W83454  10.266  27.590  10.573
17975W        W83455  39.537  12.838   0.879
17976W        W83456   6.914  37.848  11.980
17977W        W83457  21.052   1.385   4.319
17978W        W83458  40.868  22.022  11.914
17979W        W83459   4.943  34.924  10.950
17980W        W83460  35.913   7.259  13.373
17981W        W83461  14.623  17.766  10.594
17982W        W83462  27.608   0.839   2.823
17983W        W83463  21.673  25.656  12.370
17984W        W83464   6.428   6.246   5.306
17985W        W83465  21.604  19.091   0.917
17986W        W83466  35.080  39.411   0.886
17987W        W83467  31.063  14.653  11.101
17988W        W83468  29.048   7.748   3.814
17989W        W83469  26.953  13.833   2.839
17990W        W83470  33.561  19.545   4.349
17991W        W83471  44.352  25.193  14.934
17992W        W83472  13.130   1.922   0.878
17993W        W83473   4.250  36.582  12.450
17994W        W83474  35.957  15.283   3.662
17995W        W83475   4.785  29.566   2.228
17996W        W83476  16.621  29.625   1.768
17997W        W83477  29.175   9.260   3.795
17998W        W83478  19.059  14.793   2.352
17999W        W83479  24.039  36.041  10.615
18000W        W83480  39.469  23.230  13.874
18001W        W83481  40.394  12.673  12.497
18002W        W83482  26.592  41.041   0.898
18003W        W83483  16.788  10.383  13.818
18004W        W83484   3.300   2.831   4.784
18005W        W83485  23.693  27.193  14.874
18006W        W83486  33.051  12.816  11.542
18007W        W83487  17.268  31.443   0.267
18008W        W83488  12.188  12.791   0.787
18009W        W83489  32.616  17.570  13.923
18010W        W83490  27.544  30.420  13.912
18011W        W83491  14.310  10.707  14.988
18012W        W83492   3.250  34.535   0.433
18013W        W83493  25.488  11.227   4.351
18014W        W83494  39.317  11.747   4.710
18015W        W83495  38.840  18.611  13.904
18016W        W83496  22.536  37.355  11.415
18017W        W83497  28.648  37.046   3.828
18018W        W83498  11.657   3.940   3.768
18019W        W83499  22.732   2.260   3.671
18020W        W83500  26.465  38.540   2.374
18021W        W83501   6.252   2.434  13.528
18022W        W83502  17.661   8.804  12.973
18023W        W83503  15.639  35.593   3.356
18024W        W83504  35.918  12.358  13.402
18025W        W83505  28.503  15.259  12.847
18026W        W83506   9.189  42.782  14.289
18027W        W83507  25.056   5.369   4.667
18028W        W83508  30.924  41.025   1.916
18029W        W83509   6.812  17.294   0.366
18030W        W83510  41.408  39.046   3.206
18031W        W83511  21.074  25.485   2.704
18032W        W83512  42.496  14.823  13.917
18033W        W83513  34.409  44.763   0.903
18034W        W83514  41.480  18.572   0.743
18035W        W83515  35.407  44.422  11.124
18036W        W83516  43.498   9.348  10.944
18037W        W83517  33.392  13.275  13.523
18038W        W83518  40.935   2.453  14.473
18039W        W83519  17.712  20.563  11.065
18040W        W83520  26.655  29.048   1.912
18041W        W83521  14.734  43.869  13.894
18042W        W83522  40.329  39.555  12.900
18043W        W83523  38.968  22.621   4.684
18044W        W83524  41.336   5.261  11.119
18045W        W83525  25.150  11.128   2.663
18046W        W83526   6.318  22.626   4.280
18047W        W83527  39.029  17.663   2.880
18048W        W83528  31.045   4.276  11.516
18049W        W83529  13.189   5.385   2.881
18050W        W83530  12.324  28.063  12.020
18051W        W83531   6.268  24.168   3.236
18052W        W83532  22.192  28.645  11.049
18053W        W83533   4.739  11.708   4.281
18054W        W83534   7.392  16.153   0.871
18055W        W83535  24.550  10.769   1.763
18056W        W83536  24.498  36.009  12.374
18057W        W83537   1.884  11.145   1.929
18058W        W83538  29.165  30.968  11.038
18059W        W83539  14.735  40.805  13.831
18060W        W83540  36.905  17.067   1.881
18061W        W83541  32.923   5.397  12.501
18062W        W83542  38.940  20.210  11.056
18063W        W83543   0.387  26.525   0.867
18064W        W83544  41.310  37.447   3.184
18065W        W83545  39.397   6.723   3.369
18066W        W83546  19.632  10.798   0.746
18067W        W83547  22.239   3.377  13.446
18068W        W83548  42.477  15.200   1.798
18069W        W83549   7.861  34.583   0.449
18070W        W83550  38.426  44.944   2.675
18071W        W83551  39.351   0.808   4.297
18072W        W83552  36.525  15.710   1.741
18073W        W83553  41.005  21.247  10.971
18074W        W83554  22.138  38.829  12.050
18075W        W83555   9.879  22.677  12.514
18076W        W83556  36.033  29.918  12.484
18077W        W83557  42.972  13.230  14.333
18078W        W83558  38.903  43.821  11.099
18079W        W83559   0.829  20.528  10.480
18080W        W83560  11.281  13.133  11.376
18081W        W83561  29.625  25.492  10.914
18082W        W83562  27.125  20.756  11.399
18083W        W83563  32.596  16.120  13.855
18084W        W83564   4.823  28.093   3.151
18085W        W83565  34.968  13.807  11.440
18086W        W83566  43.493   4.700  14.852
18087W        W83567  33.120   3.736   2.296
18088W        W83568  20.094   3.856  10.517
18089W        W83569  13.626  42.980   1.771
18090W        W83570  10.252  17.135   3.174
18091W        W83571  25.058  42.878  13.422
18092W        W83572  42.324  30.504   4.118
18093W        W83573  27.493  44.983  13.840
18094W        W83574   2.421  41.860  13.432
18095W        W83575  30.034   8.875  13.914
18096W        W83576   2.305  34.396   9.569
18097W        W83577  41.520  24.074   4.264
18098W        W83578   0.367  20.201  14.384
18099W        W83579  40.519  30.007   2.402
18100W        W83580  18.546   1.325  12.394
18101W        W83581  28.460   8.213  10.424
18102W        W83582  15.646  43.954  10.639
18103W        W83583  24.661  10.242   2.198
18104W        W83584   8.710  19.662  10.125
18105W        W83585   3.946  10.153  12.984
18106W        W83586  41.439   5.428   3.258
18107W        W83587  17.276  22.078  10.920
18108W        W83588   7.767  37.430  11.443
18109W        W83589  21.088  35.855   9.936
18110W        W83590  28.002  42.442  12.898
18111W        W83591  23.203  31.114   0.371
18112W        W83592  21.544  22.503  11.983
18113W        W83593  15.288  20.583   2.264
18114W        W83594  13.838  21.623   4.242
18115W        W83595  27.491   2.888  12.948
18116W        W83596   7.790  32.594   2.792
18117W        W83597  22.023  26.057   4.348
18118W        W83598  34.071  27.137  13.324
18119W        W83599  28.578   2.797  13.423
18120W        W83600   0.876  12.723   1.768
18121W        W83601  18.763  36.049  13.931
18122W        W83602  42.437   7.252   3.698
18123W        W83603   8.368  31.485  11.898
18124W        W83604   3.273  42.518  11.372
18125W        W83605  17.105  38.359   3.370
18126W        W83606  35.956   1.732  10.545
18127W        W83607  32.949  12.786   4.197
18128W        W83608  41.410  25.080  14.387
18129W        W83609  33.572  43.902   3.349
18130W        W83610   3.293  26.968  10.456
18131W        W83611  25.069  22.209   4.626
18132W        W83612  11.355   8.843   1.914
18133W        W83613  28.159  32.071  12.038
18134W        W83614  44.490  15.307  13.497
18135W        W83615  12.799   1.962  12.054
18136W        W83616   1.856  21.548  12.080
18137W        W83617  39.545   2.919   0.445
18138W        W83618  43.778  20.052  12.444
18139W        W83619  31.031   8.817  13.821
18140W        W83620  16.212  22.625  10.999
18141W        W83621  30.055   2.441   3.806
18142W        W83622   3.765  33.382   3.170
18143W        W83623   8.347  32.532  11.604
18144W        W83624  10.307  20.261  13.538
18145W        W83625  26.011  31.533   3.332
18146W        W83626  14.655  14.707   0.304
18147W        W83627  20.262  42.793   1.425
18148W        W83628   6.755  40.499   2.379
18149W        W83629  37.554  29.514   3.659
18150W        W83630  30.437  44.908   4.116
18151W        W83631  19.201  22.517   2.313
18152W        W83632  36.444   2.257  14.022
18153W        W83633  42.516  25.565   2.673
18154W        W83634  23.598  13.117   2.311
18155W        W83635  32.515  18.257   3.685
18156W        W83636  41.014  28.993   2.869
18157W        W83637  16.229  23.731   3.231
18158W        W83638  27.191  19.671  14.445
18159W        W83639  23.130  40.322   2.350
18160W        W83640   7.785   9.733   0.322
18161W        W83641  33.953  11.692  14.502
18162W        W83642  12.793  28.031  12.001
18163W        W83643  44.446   6.710   9.930
18164W        W83644   1.407  12.650  11.591
18165W        W83645  17.562  24.656   0.254
18166W        W83646  19.577  44.883   0.878
18167W        W83647  21.690  26.081   0.742
18168W        W83648  14.622  19.193   3.159
18169W        W83649  29.111  18.597   4.834
18170W        W83650   1.483  43.280  10.603
18171W        W83651  30.001  14.631  14.878
18172W        W83652  16.275  13.738   3.671
18173W        W83653  22.086  27.954   1.837
18174W        W83654   3.326  25.521   1.764
18175W        W83655  23.156  22.742   3.369
18176W        W83656  29.036  11.127   2.728
18177W        W83657  32.020  42.463  11.126
18178W        W83658  19.156  33.897   3.296
18179W        W83659   9.226   5.218  13.801
18180W        W83660  18.125  33.095   2.408
18181W        W83661   1.407  29.627  10.993
18182W        W83662  44.907  38.904   4.115
18183W        W83663   0.865  24.128  14.815
18184W        W83664   3.954  37.443  11.423
18185W        W83665  15.219  35.870   4.165
18186W        W83666  30.478  29.122  12.987
18187W        W83667  43.430  37.970  10.586
18188W        W83668  36.540   0.951  14.931
18189W        W83669   1.755  27.004   0.349
18190W        W83670   5.804   5.886   2.804
18191W        W83671  35.416  24.529  11.963
18192W        W83672  10.252   7.700  13.366
18193W        W83673  24.064  40.365  11.930
18194W        W83674  34.075  35.064  14.979
18195W        W83675  41.915   7.772  13.486
18196W        W83676  10.725  31.913   3.205
18197W        W83677  13.238   2.928  10.931
18198W        W83678  32.996  20.700  13.846
18199W        W83679  24.504  30.139   2.818
18200W        W83680  19.656  22.087   3.778
18201W        W83681   8.249  33.504   4.157
18202W        W83682  32.482  32.068  10.627
18203W        W83683  26.478  23.517   1.256
18204W        W83684  39.484  12.714   0.472
18205W        W83685  25.043   7.762  13.967
18206W        W83686  30.540   0.913   2.775
18207W        W83687   3.907  19.087  11.003
18208W        W83688  18.676  28.073  10.060
18209W        W83689  18.741  32.956   1.276
18210W        W83690  33.071  16.690   0.415
18211W        W83691  38.552   4.286   4.237
18212W        W83692  14.606   6.907  11.856
18213W        W83693   2.438  10.226   0.843
18214W        W83694  12.630  41.442   0.308
18215W        W83695  24.702  37.049   1.935
18216W        W83696  19.143   1.852   0.747
18217W        W83697   3.299  35.551   0.740
18218W        W83698   3.286  25.141   2.411
18219W        W83699  37.470   3.432  11.415
18220W        W83700  44.775  43.948  10.598
18221W        W83701  26.010  39.834  13.062
18222W        W83702  18.555   7.757   2.791
18223W        W83703   9.201  33.448  12.905
18224W        W83704   5.729   6.890   3.800
18225W        W83705  32.091  21.238   5.189
18226W        W83706   4.942  40.398   2.891
18227W        W83707  41.842  37.511   5.272
18228W        W83708   9.332  18.250  11.861
18229W        W83709  28.046  44.310  12.045
18230W        W83710  22.636  16.608   1.425
18231W        W83711  18.226  13.326   4.223
18232W        W83712  36.984  41.463  12.838
18233W        W83713   2.361  32.088  12.086
18234W        W83714  20.566  14.642   1.276
18235W        W83715  25.078  29.485   3.846
18236W        W83716  42.317  12.219   0.280
18237W        W83717   2.374  14.721  10.543
18238W        W83718  44.476  34.905   2.704
18239W        W83719  41.936  17.656   0.761
18240W        W83720   0.914  31.460  11.438
18241W        W83721   3.892   0.791   0.253
18242W        W83722  27.165  26.582   2.283
18243W        W83723   6.317  22.030   0.779
18244W        W83724  13.780  35.967   4.211
18245W        W83725  40.549  13.608   2.782
18246W        W83726  27.172   6.881   4.206
18247W        W83727  28.042  38.901  13.952
18248W        W83728  31.899  20.064   0.891
18249W        W83729  43.347  15.803  11.015
18250W        W83730  19.611  43.820  13.915
18251W        W83731  43.856  41.830   2.314
18252W        W83732  38.978   6.840  14.814
18253W        W83733  28.471  23.508  10.592
18254W        W83734  20.565  14.749   3.723
18255W        W83735   9.290  16.201  11.947
18256W        W83736  39.512   2.916   4.728
18257W        W83737  41.364  11.657   3.680
18258W        W83738  29.050  13.262   2.245
18259W        W83739   1.459  17.775   1.310
18260W        W83740  16.286   6.776   4.182
18261W        W83741  17.791  11.352   1.708
18262W        W83742   6.374   7.877  13.392
18263W        W83743  20.641  16.158  10.631
18264W        W83744  36.403  41.313  11.038
18265W        W83745  44.441  24.580   0.432
18266W        W83746  18.620  37.872   1.908
18267W        W83747  16.139  37.358   0.808
18268W        W83748  43.320  35.041  13.910
18269W        W83749  19.053  35.051   0.787
18270W        W83750   5.859  36.909  11.498
18271W        W83751  32.425  34.901   2.713
18272W        W83752  44.767  27.009   2.209
18273W        W83753   9.265  28.681  11.897
18274W        W83754  30.046  37.567   3.191
18275W        W83755   3.413   4.436   1.771
18276W        W83756  13.249  40.533   1.732
18277W        W83757  34.935  15.234   3.665
18278W        W83758  17.167  39.829   3.656
18279W        W83759  38.466  18.091  13.498
18280W        W83760  36.078   2.759   4.605
18281W        W83761  24.180  20.630  13.359
18282W        W83762  28.951  22.596   0.340
18283W        W83763  22.151  14.594  11.943
18284W        W83764  28.648  21.554   1.418
18285W        W83765   1.326   3.900   0.286
18286W        W83766   2.362   4.399   2.754
18287W        W83767  21.658  12.777  14.018
18288W        W83768  44.328  39.845   1.747
18289W        W83769   2.405  37.930   2.298
18290W        W83770  20.550  31.999  14.773
18291W        W83771   1.434  15.724   1.891
18292W        W83772  15.585  32.449   2.844
18293W        W83773  36.369   7.825  14.769
18294W        W83774  44.458  28.518  12.484
18295W        W83775  12.706  28.670  11.910
18296W        W83776  39.957  37.421   3.811
18297W        W83777  41.313  11.222  13.365
18298W        W83778  24.122  35.548   3.316
18299W        W83779  25.642  40.911  14.854
18300W        W83780   6.255  20.211   3.251
18301W        W83781   4.239  21.533  13.526
18302W        W83782  34.876  28.111  10.591
18303W        W83783  18.127   8.287  13.004
18304W        W83784  39.044   6.367  12.382
18305W        W83785  19.769  43.902   2.891
18306W        W83786  14.337   7.677  13.342
18307W        W83787  42.883  38.491  11.901
18308W        W83788   0.462   4.224  10.432
18309W        W83789  26.106  19.285  12.507
18310W        W83790  16.760  40.495  11.083
18311W        W83791   6.353  12.350  10.547
18312W        W83792  19.096   6.903  11.522
18313W        W83793  30.979  11.373   2.369
18314W        W83794   0.263  33.391  11.118
18315W        W83795   6.200   2.332   3.369
18316W        W83796   3.803   9.268  14.765
18317W        W83797  18.691  14.241  14.342
18318W        W83798  12.809   0.405   0.254
18319W        W83799  37.366  28.679   0.430
18320W        W83800  39.507  12.733  10.954
18321W        W83801  27.582  32.116   3.296
18322W        W83802  13.638  16.213  11.053
18323W        W83803  32.083  27.106  11.077
18324W        W83804  24.128  23.997  13.901
18325W        W83805  35.858   7.871   0.332
18326W        W83806  14.609  38.062  10.429
18327W        W83807  22.111  40.399  14.818
18328W        W83808  33.544   7.395   3.212
18329W        W83809   5.884   7.191  12.470
18330W        W83810  31.007   8.204   2.337
18331W        W83811  13.614   4.355  12.478
18332W        W83812  28.179   4.842  13.416
18333W        W83813  30.503   7.738  13.032
18334W        W83814  31.640  13.835   4.696
18335W        W83815   8.729   1.276  13.347
18336W        W83816   6.307  33.534   1.314
18337W        W83817  35.093  35.504   2.372
18338W        W83818  20.637  10.184  13.476
18339W        W83819  39.887  38.948  10.980
18340W        W83820  23.140   7.173   2.214
18341W        W83821   7.251  32.052   4.306
18342W        W83822  40.317   8.261   0.733
18343W        W83823   9.318  34.870   0.879
18344W        W83824  11.290   1.426   4.152
18345W        W83825  44.915  19.561  13.408
18346W        W83826  18.247  14.653  13.883
18347W        W83827  36.883  31.128   3.749
18348W        W83828   6.678   7.781   0.947
18349W        W83829  42.351  34.873   1.776
18350W        W83830   8.193  35.011   4.613
18351W        W83831  19.758   1.902  13.421
18352W        W83832  13.323  39.821  13.531
18353W        W83833  25.617  29.549  10.511
18354W        W83834  44.881  12.626   2.336
18355W        W83835  20.118  38.327  11.508
18356W        W83836  20.556   9.362  14.416
18357W        W83837   6.860  37.883  14.473
18358W        W83838  33.560  42.444  12.541
18359W        W83839  28.063  29.143  11.401
18360W        W83840  25.468  19.550  11.522
18361W        W83841  10.799  17.181   2.301
18362W        W83842   9.278  22.520   1.891
18363W        W83843  12.828  37.944   0.324
18364W        W83844  19.734  41.790  10.451
18365W        W83845  14.275  22.645   3.660
18366W        W83846  13.693  34.410  14.509
18367W        W83847  42.005  33.027  13.486
18368W        W83848  44.844  27.148   0.347
18369W        W83849  29.491  25.582   0.344
18370W        W83850  15.591  35.598  10.154
18371W        W83851  21.624  26.461  14.470
18372W        W83852  41.854  38.362   0.262
18373W        W83853   0.474  24.612   1.306
18374W        W83854   1.904  19.660   4.159
18375W        W83855  15.666  17.733   3.720
18376W        W83856  22.144  38.945  11.502
18377W        W83857  18.711  20.039  13.362
18378W        W83858  36.540  22.650   1.339
18379W        W83859  30.032  29.925  11.910
18380W        W83860  18.256  17.148   3.720
18381W        W83861  17.717  12.614  10.459
18382W        W83862  13.339  31.962   0.373
18383W        W83863  20.243  29.612  12.986
18384W        W83864  15.152   0.372  13.310
18385W        W83865  41.447  25.029  12.997
18386W        W83866  14.725  10.235  11.977
18387W        W83867  16.086   6.697  13.487
18388W        W83868   6.867  15.295  11.962
18389W        W83869  37.987  39.032  13.513
18390W        W83870  37.047  18.263  10.604
18391W        W83871  37.432  14.309   1.701
18392W        W83872  14.156   6.708   3.650
18393W        W83873  14.705   8.709   2.242
18394W        W83874  19.118  36.001  11.411
18395W        W83875  42.896  38.363  10.423
18396W        W83876  33.071  27.109  12.441
18397W        W83877  32.530   6.773   3.176
18398W        W83878  26.697  12.132  11.453
18399W        W83879  43.764  24.076  12.546
18400W        W83880  41.478  32.509   0.464
18401W        W83881   4.739   8.784   2.181
18402W        W83882  14.201  41.948   3.633
18403W        W83883  39.534   1.960  10.478
18404W        W83884  40.031   8.843  12.545
18405W        W83885   8.184  34.382   0.430
18406W        W83886  28.015  16.685   3.781
18407W        W83887  16.277  17.673   3.282
18408W        W83888  14.723  29.552  10.506
18409W        W83889  13.613  41.858   2.198
18410W        W83890  23.681  35.583   3.678
18411W        W83891  25.173  36.414  13.435
18412W        W83892   6.676  30.591  14.940
18413W        W83893  13.126  29.929  13.054
18414W        W83894  21.212   6.375  10.473
18415W        W83895   1.303  10.305   9.938
18416W        W83896  23.990   3.353   3.230
18417W        W83897  35.038  42.471  13.498
18418W        W83898  26.572  22.738   3.194
18419W        W83899  30.029  21.677  14.429
18420W        W83900  15.158  26.117  14.933
18421W        W83901  21.642  18.064  12.825
18422W        W83902   3.729  23.198   4.280
18423W        W83903  15.635  32.504  13.824
18424W        W83904  22.584   9.307  13.028
18425W        W83905   4.231   9.226  14.348
18426W        W83906  30.617  13.255   4.257
18427W        W83907  22.044  25.016   4.614
18428W        W83908  26.688  20.694  11.894
18429W        W83909  22.161  10.319   9.440
18430W        W83910  41.979  27.468   1.843
18431W        W83911  32.059  36.570  12.568
18432W        W83912  30.048  19.764  14.828
18433W        W83913  33.947  13.845  12.876
18434W        W83914  11.248  34.524  10.898
18435W        W83915   2.752  29.064   0.421
18436W        W83916  34.033  19.182   3.308
18437W        W83917  26.683  11.689  11.442
18438W        W83918  19.043  22.653  10.418
18439W        W83919  43.323  13.764   3.184
18440W        W83920  18.082  20.652   1.249
18441W        W83921  40.536  30.960   1.737
18442W        W83922   6.244  26.097   0.416
18443W        W83923  44.000  22.541  13.521
18444W        W83924  24.527  29.124  12.386
18445W        W83925  39.341  22.615  14.496
18446W        W83926  23.073  21.692  12.505
18447W        W83927  24.712  30.096   3.830
18448W        W83928   5.879  34.522  10.578
18449W        W83929  40.379  42.783   2.255
18450W        W83930   4.786  28.582   1.306
18451W        W83931  30.598  14.706   0.752
18452W        W83932  11.661  19.240   0.966
18453W        W83933  15.089  19.079  13.340
18454W        W83934  18.621  23.124   2.301
18455W        W83935   2.329  30.575   4.349
18456W        W83936  41.801  27.114  14.479
18457W        W83937  31.628   8.215  14.922
18458W        W83938  29.160  16.797  12.477
18459W        W83939   8.781  13.134  14.896
18460W        W83940  37.894  18.568   9.931
18461W        W83941  36.400  29.122  14.988
18462W        W83942   9.871   7.730   4.224
18463W        W83943   8.386  40.549  11.951
18464W        W83944   7.886   7.386  14.377
18465W        W83945  24.985  10.784  11.415
18466W        W83946  37.963   2.259  10.452
18467W        W83947  28.555  31.033  13.363
18468W        W83948  43.434  31.050  11.027
18469W        W83949   2.369  44.994  11.513
18470W        W83950  16.606   4.713   0.294
18471W        W83951  30.982  27.514   2.334
18472W        W83952  44.414  31.039   1.777
18473W        W83953  28.932  37.967   3.267
18474W        W83954  15.821  27.148  13.350
18475W        W83955  39.453   6.393   4.729
18476W        W83956  12.244  19.758  14.926
18477W        W83957  34.098  30.944  14.962
18478W        W83958  27.190  40.981  11.924
18479W        W83959  17.282  15.807   3.161
18480W        W83960   5.225  19.045  11.576
18481W        W83961  10.264  10.793   1.707
18482W        W83962   1.417   9.384  14.281
18483W        W83963  21.652  33.968  11.439
18484W        W83964  27.147   4.208  12.853
18485W        W83965  39.344  43.464   2.287
18486W        W83966  18.784  16.748  10.998
18487W        W83967   3.814   0.961   4.168
18488W        W83968  13.130   5.354   0.359
18489W        W83969  35.960  36.094   2.340
18490W        W83970   7.796  12.227   3.351
18491W        W83971  39.920  29.963   3.358
18492W        W83972  20.137   1.873  14.852
18493W        W83973  29.168   9.256  12.070
18494W        W83974  17.773  22.698   3.307
18495W        W83975  33.930  22.185  12.847
18496W        W83976  26.167  22.623  12.892
18497W        W83977   3.933  11.841   3.663
18498W        W83978   5.386  10.161  11.417
18499W        W83979   6.255  33.122  14.832
18500W        W83980  32.106  12.320   0.741
18501W        W83981  33.972  17.680  14.393
18502W        W83982   8.880  33.468  14.023
18503W        W83983  42.484  20.265   3.219
18504W        W83984  32.887  25.170  13.811
18505W        W83985   1.947  37.351  12.905
18506W        W83986  36.061   6.274  11.055
18507W        W83987  27.196  30.482   1.755
18508W        W83988  37.361  36.433  11.040
18509W        W83989  18.168  32.622  11.963
18510W        W83990   0.755   1.939   4.824
18511W        W83991   5.852   0.745  14.908
18512W        W83992  38.503  28.935   3.342
18513W        W83993  19.133  37.925   2.368
18514W        W83994  44.784  37.542  12.932
18515W        W83995  19.202  22.613  11.033
18516W        W83996  43.347  34.381   4.221
18517W        W83997  34.551  16.768  10.450
18518W        W83998  29.459  27.606   3.223
18519W        W83999  41.446   7.892  14.379
18520W        W84000  42.778  40.020  10.595
18521W        W84001  17.712  22.222   3.697
18522W        W84002  19.610   3.317  11.375
18523W        W84003   2.730  12.289  13.907
18524W        W84004  31.940  34.539  14.919
18525W        W84005  39.061   4.429  11.510
18526W        W84006  25.574  18.599   3.362
18527W        W84007  33.420   7.909   2.303
18528W        W84008  15.786   6.414  11.538
18529W        W84009   1.772  14.648  13.885
18530W        W84010  38.556  14.156  13.998
18531W        W84011  18.635  43.765  14.315
18532W        W84012  15.788   0.808  12.571
18533W        W84013   2.765  43.877  14.436
18534W        W84014  32.538  27.138   3.811
18535W        W84015  44.920  37.444  14.456
18536W        W84016   5.215   4.773  13.508
18537W        W84017  33.999  17.664  11.043
18538W        W84018  44.941  34.086   0.750
18539W        W84019  42.845  33.555   2.243
18540W        W84020   5.850  18.095   0.935
18541W        W84021  27.190  42.319   1.380
18542W        W84022  17.662  28.510  13.041
18543W        W84023  33.565  12.635   5.265
18544W        W84024   9.341   5.827   0.408
18545W        W84025  36.502  19.675   9.977
18546W        W84026  15.226  22.240  10.591
18547W        W84027  38.391  39.050   1.717
18548W        W84028  33.888  35.482   2.849
18549W        W84029  15.257  34.977  12.510
18550W        W84030  41.967  22.122  10.516
18551W        W84031   6.403  10.690   3.723
18552W        W84032  31.467  12.732  13.013
18553W        W84033   8.351  38.025   0.406
18554W        W84034  18.207  36.091   4.282
18555W        W84035  37.360  28.100   1.445
18556W        W84036   7.354  36.498   2.354
18557W        W84037  19.561  11.131  12.050
18558W        W84038  19.070   1.775  14.511
18559W        W84039  11.845   3.828  14.992
18560W        W84040  21.097  26.988   0.451
18561W        W84041  16.267   5.909   1.379
18562W        W84042  25.202  17.258   4.196
18563W        W84043  42.479  35.488   0.244
18564W        W84044   7.703  30.962   3.631
18565W        W84045  22.595   2.422   4.740
18566W        W84046  11.820  22.611  10.025
18567W        W84047  18.562  22.032  13.492
18568W        W84048  32.401  33.384   3.810
18569W        W84049  19.103  13.166  11.993
18570W        W84050  20.529   6.721   4.207
18571W        W84051  35.550  25.499   1.760
18572W        W84052  31.929   4.408  11.548
18573W        W84053  30.563  43.849  11.494
18574W        W84054  16.211  17.652   0.352
18575W        W84055  10.791  33.505  11.583
18576W        W84056   9.282  36.413   2.290
18577W        W84057  10.340  23.131   3.630
18578W        W84058   1.338  17.769  14.875
18579W        W84059  26.511  27.075  12.364
18580W        W84060  25.658  35.389  11.901
18581W        W84061  41.394  31.601   4.788
18582W        W84062  26.500  43.873   3.366
18583W        W84063  23.239  37.577   1.306
18584W        W84064  27.499  31.067  12.866
18585W        W84065  31.021  35.999   5.138
18586W        W84066   3.756   1.254   2.330
18587W        W84067   4.296  31.489   0.817
18588W        W84068  21.027  26.514   0.437
18589W        W84069  44.308  31.092   4.617
18590W        W84070   3.730  40.871  14.026
18591W        W84071  25.710  19.562  11.887
18592W        W84072   8.884  28.958  12.064
18593W        W84073  36.463  14.286  11.487
18594W        W84074  32.109  23.007   3.802
18595W        W84075  21.202   3.244   2.236
18596W        W84076  38.048  25.178  12.952
18597W        W84077   2.790  40.876  11.517
18598W        W84078  27.007  31.980   0.852
18599W        W84079  40.037   0.956  11.061
18600W        W84080   4.733  33.112   2.328
18601W        W84081   2.395   1.324  13.988
18602W        W84082  26.526  17.186  13.010
18603W        W84083  43.928   2.861   1.724
18604W        W84084  28.010  41.028   1.803
18605W        W84085  29.001  40.466  14.015
18606W        W84086   0.841  24.615   2.766
18607W        W84087  15.777  33.602   1.731
18608W        W84088   5.840  42.499   2.696
18609W        W84089   2.749  14.336   1.255
18610W        W84090  34.570  33.495  13.896
18611W        W84091  36.581   4.438  13.807
18612W        W84092   4.856  38.932  11.914
18613W        W84093   3.918  18.578  11.378
18614W        W84094  26.169  17.584  10.972
18615W        W84095  39.331  16.168  13.059
18616W        W84096   0.343  33.380   0.471
18617W        W84097   7.232  22.101   4.709
18618W        W84098   1.951   3.864   1.233
18619W        W84099  15.244  41.441  12.953
18620W        W84100  36.441  12.297   4.228
18621W        W84101  13.817  20.045  10.961
18622W        W84102  17.644  21.257  10.583
18623W        W84103  18.778  28.929   4.700
18624W        W84104  16.270   1.914  11.857
18625W        W84105  17.120  19.225  11.984
18626W        W84106   1.787  14.766   2.196
18627W        W84107  19.626  15.246   0.464
18628W        W84108  33.578  35.854   2.355
18629W        W84109  22.608   1.243   9.995
18630W        W84110  42.985  11.334   2.235
18631W        W84111  17.563   5.822  12.345
18632W        W84112  26.005  41.502   0.759
18633W        W84113  25.712  21.152   1.433
18634W        W84114   1.380  42.499   0.377
18635W        W84115   6.186  22.571  11.403
18636W        W84116  24.490  33.038  13.317
18637W        W84117   9.184  41.454  13.892
18638W        W84118  24.136  22.206   4.729
18639W        W84119  20.030  29.946  14.971
18640W        W84120  10.653  12.753   2.825
18641W        W84121  25.648  24.590   1.710
18642W        W84122   6.799  42.420   1.406
18643W        W84123  27.130  38.981  10.971
18644W        W84124  38.898  24.541   4.806
18645W        W84125  18.573  16.150   0.903
18646W        W84126  20.524  24.081   4.669
18647W        W84127   8.350  25.492   2.249
18648W        W84128  37.962   2.417  13.043
18649W        W84129  39.314  43.440  14.776
18650W        W84130  15.742  20.265   2.258
18651W        W84131   5.712  10.155  12.854
18652W        W84132  41.948   6.182   2.852
18653W        W84133  34.947   9.324   2.196
18654W        W84134   9.652  29.004  12.012
18655W        W84135  37.037  10.241   1.746
18656W        W84136  24.520  41.992  14.357
18657W        W84137   5.366   5.729   3.369
18658W        W84138  14.132   6.810  11.921
18659W        W84139   2.376  30.077   3.251
18660W        W84140  28.979  20.171  14.956
18661W        W84141  22.194  11.206   4.815
18662W        W84142  36.518  15.760   1.447
18663W        W84143  43.924  12.657   3.382
18664W        W84144   7.240  37.971   3.225
18665W        W84145  40.882  33.625   4.302
18666W        W84146   4.893  14.312   2.217
18667W        W84147  20.640  25.133   4.265
18668W        W84148  23.067   2.353  13.411
18669W        W84149   8.245   3.773   1.436
18670W        W84150   2.877  13.842  14.339
18671W        W84151  22.677   2.340  14.850
18672W        W84152  38.039  40.487  13.401
18673W        W84153  32.588  44.962  12.859
18674W        W84154  34.463  30.526  11.925
18675W        W84155  28.025  40.404   4.214
18676W        W84156  35.365  26.053  12.375
18677W        W84157  15.619   8.190  11.387
18678W        W84158  22.569  26.177   2.358
18679W        W84159  31.425  33.012   4.669
18680W        W84160  23.713  39.439  11.932
18681W        W84161  17.792   2.940  12.077
18682W        W84162  14.789   4.380   4.200
18683W        W84163   2.734  20.536   2.739
18684W        W84164  10.743  19.653  14.469
18685W        W84165  23.497  26.692  10.468
18686W        W84166   6.297  17.080  10.630
18687W        W84167  44.395  12.755   5.137
18688W        W84168  18.095  32.591   2.737
18689W        W84169   2.955  30.079  12.909
18690W        W84170  44.269  33.583   0.836
18691W        W84171  40.917   0.954   0.767
18692W        W84172   5.887  22.110   4.674
18693W        W84173   2.854  38.929   4.247
18694W        W84174   8.295  38.402  11.007
18695W        W84175  16.156   7.362   1.744
18696W        W84176  40.959  40.367   4.235
18697W        W84177  42.380  32.905   4.237
18698W        W84178   6.236  15.162  12.518
18699W        W84179  38.942  17.235   0.250
18700W        W84180  40.877  24.063  13.946
18701W        W84181  21.058  22.647  10.119
18702W        W84182  25.523   0.861   1.232
18703W        W84183   5.354   6.319  11.514
18704W        W84184  32.119  32.623  11.018
18705W        W84185   0.967  41.500   3.821
18706W        W84186  17.697  30.062   1.423
18707W        W84187  26.681   9.664  12.451
18708W        W84188  20.089  15.594   4.645
18709W        W84189  26.135  16.659   4.262
18710W        W84190   3.367  21.200  14.348
18711W        W84191  15.784  14.171  11.455
18712W        W84192  42.810  40.543  11.573
18713W        W84193  22.023  39.531   4.244
18714W        W84194  14.678  13.762  12.509
18715W        W84195  33.910  28.042   1.762
18716W        W84196   9.229  29.445   3.341
18717W        W84197  22.208  37.987   2.292
18718W        W84198  39.421  29.972   0.894
18719W        W84199  10.818  19.203  10.440
18720W        W84200  14.123  29.037   3.845
18721W        W84201  34.472  25.174   0.287
18722W        W84202  17.635   3.746  11.892
18723W        W84203  43.007   7.266   4.350
18724W        W84204  27.529  43.328  10.618
18725W        W84205   0.479  41.498   0.242
18726W        W84206  24.716  28.142  13.493
18727W        W84207   3.271  39.891  12.023
18728W        W84208  37.435  25.580   5.144
18729W        W84209  31.558   7.234  10.404
18730W        W84210  37.377   7.778   1.733
18731W        W84211  44.502   5.827  11.938
18732W        W84212   7.814  29.952   3.191
18733W        W84213  31.013  28.147   0.309
18734W        W84214  12.786  36.921   4.694
18735W        W84215  11.636  27.528   2.800
18736W        W84216  19.586  29.599   4.345
18737W        W84217   2.341  12.649  13.468
18738W        W84218  10.345  12.796   0.248
18739W        W84219  11.821  17.208   4.726
18740W        W84220  41.387   3.952   3.198
18741W        W84221  16.116  20.653   1.724
18742W        W84222  15.154   6.427   3.374
18743W        W84223  40.902  13.770  14.460
18744W        W84224  41.795  29.015   0.368
18745W        W84225  15.242   8.209   1.218
18746W        W84226  24.129  41.524  14.337
18747W        W84227  22.195  27.977   3.363
18748W        W84228  37.342  18.087  13.061
18749W        W84229  39.523   8.236   3.849
18750W        W84230   8.857  23.670  13.005
18751W        W84231  12.134  33.053  13.385
18752W        W84232  13.604   3.732  11.477
18753W        W84233  34.937  34.584  13.536
18754W        W84234  43.014  18.692   0.257
18755W        W84235  30.641  13.314   3.206
18756W        W84236  20.234  39.938   4.212
18757W        W84237  25.582  25.129   1.704
18758W        W84238  39.463  25.124   0.768
18759W        W84239   2.237  26.000   2.681
18760W        W84240  19.570   0.268  12.355
18761W        W84241  40.406  11.851   1.229
18762W        W84242  35.091   1.308   3.713
18763W        W84243  15.109  37.016  12.085
18764W        W84244  34.891  33.383  13.468
18765W        W84245   7.796  42.958  14.344
18766W        W84246  38.560   3.417  10.528
18767W        W84247  26.133   3.953  12.353
18768W        W84248  36.561   7.177   3.371
18769W        W84249  12.146  42.464  11.012
18770W        W84250  44.488   8.664   2.691
18771W        W84251   7.183  25.998   1.755
18772W        W84252  28.641   4.383   4.117
18773W        W84253  36.493  13.676   1.351
18774W        W84254  37.904   3.427  13.913
18775W        W84255  11.328  29.565  13.324
18776W        W84256   2.848   4.421  14.848
18777W        W84257  21.724  24.503   1.834
18778W        W84258   1.926   7.686   3.278
18779W        W84259  23.682   8.385  13.447
18780W        W84260  40.502  14.150   2.730
18781W        W84261  32.519   3.266  11.889
18782W        W84262  30.010   8.847  11.856
18783W        W84263   4.408   4.311   4.606
18784W        W84264  13.645  15.649  10.937
18785W        W84265   7.185  16.077   0.259
18786W        W84266   7.693  27.072   3.800
18787W        W84267  44.415  34.414  14.976
18788W        W84268  12.820   4.326  13.974
18789W        W84269  20.768  18.176   3.246
18790W        W84270  13.688   2.931   4.257
18791W        W84271  15.659  43.274  12.879
18792W        W84272   2.290   0.282  11.571
18793W        W84273  14.165  19.610   2.307
18794W        W84274   9.831  23.128   2.818
18795W        W84275  38.990  16.180  11.467
18796W        W84276  33.117  36.978  10.539
18797W        W84277   8.270  35.965  13.893
18798W        W84278  40.351  23.637   4.735
18799W        W84279  14.710  32.488   3.640
18800W        W84280   6.693  37.399  14.784
18801W        W84281  44.890  15.753   0.421
18802W        W84282  15.678  10.652  11.432
18803W        W84283  27.523   5.820  11.467
18804W        W84284  24.639   5.850  11.025
18805W        W84285  23.216  13.731  11.054
18806W        W84286  30.625  26.079   3.662
18807W        W84287  22.610  38.546  13.985
18808W        W84288  23.629  27.180   2.247
18809W        W84289  36.437  23.235   4.759
18810W        W84290   6.405  11.139  11.866
18811W        W84291  13.812  32.897   2.878
18812W        W84292  14.786   2.291   4.147
18813W        W84293  16.745   3.284   4.657
18814W        W84294  41.399   2.926   3.653
18815W        W84295   1.317  30.502  13.320
18816W        W84296   4.810  24.595  11.489
18817W        W84297   3.365  32.499   5.308
18818W        W84298  17.140  40.350   1.236
18819W        W84299  43.810  42.922  13.991
18820W        W84300  28.580  44.998   4.637
18821W        W84301   2.344  32.554  14.964
18822W        W84302  15.215  41.941  14.335
18823W        W84303  27.523  22.627   0.455
18824W        W84304   9.877  27.481  12.497
18825W        W84305  30.654  11.310   4.206
18826W        W84306  17.560   3.222  12.057
18827W        W84307  44.482  35.524  10.000
18828W        W84308  33.506  44.951   2.312
18829W        W84309  34.463  19.764   1.219
18830W        W84310  31.502  36.538  11.884
18831W        W84311  32.415  30.502  13.537
18832W        W84312   3.310  13.767   2.825
18833W        W84313  37.441  44.469  12.398
18834W        W84314  27.612  19.066  13.546
18835W        W84315   2.802  34.563   2.812
18836W        W84316  21.545   3.231  12.450
18837W        W84317  37.973   5.772  11.986
18838W        W84318  31.564  31.979   0.836
18839W        W84319  20.678  35.421   2.266
18840W        W84320  11.334  17.714  14.365
18841W        W84321  33.391  20.183   1.823
18842W        W84322  24.178  44.928  14.974
18843W        W84323  27.536  38.973  12.354
18844W        W84324  12.724  31.128   0.339
18845W        W84325  26.987  12.337   1.447
18846W        W84326  28.034  16.655  10.008
18847W        W84327  30.416  31.639  10.923
18848W        W84328  23.050  24.593   1.713
18849W        W84329  23.562  27.675  14.805
18850W        W84330   4.745  37.467  10.574
18851W        W84331  26.159  18.294   1.324
18852W        W84332   6.350   8.699  14.767
18853W        W84333  18.145  22.211   0.831
18854W        W84334  21.147  30.097   3.379
18855W        W84335   1.850  31.425  14.967
18856W        W84336   8.293  14.177  13.327
18857W        W84337  17.712  42.945  11.451
18858W        W84338  19.147   8.240  12.947
18859W        W84339   4.436  42.389  10.450
18860W        W84340   5.777  30.085   1.306
18861W        W84341  41.975  15.749  12.901
18862W        W84342  32.404   6.427   3.353
18863W        W84343  19.740   3.823   0.255
18864W        W84344  30.512   8.868  10.950
18865W        W84345   8.734  38.333   0.325
18866W        W84346   8.777  14.308  13.002
18867W        W84347  14.629   8.163  11.879
18868W        W84348  40.035  13.652  13.466
18869W        W84349  17.164  20.637  14.934
18870W        W84350  16.090  19.633   2.393
18871W        W84351  27.990  12.271  10.892
18872W        W84352   8.769  15.667   3.253
18873W        W84353  18.704   3.323   1.288
18874W        W84354   8.819  31.470   4.216
18875W        W84355  35.380  24.691  11.456
18876W        W84356  13.835  23.725  13.352
18877W        W84357   5.714  38.430  10.521
18878W        W84358   4.260  13.693   1.792
18879W        W84359   1.947  35.582  12.904
18880W        W84360  37.525  25.110   2.730
18881W        W84361  44.007  25.482  10.444
18882W        W84362  39.836  34.559  12.966
18883W        W84363  39.372  24.084   2.800
18884W        W84364  11.369   8.262  14.332
18885W        W84365  19.561  11.233   1.746
18886W        W84366  26.017   4.908   3.295
18887W        W84367   6.242  30.528  13.832
18888W        W84368  22.147  32.096   4.235
18889W        W84369   7.329  18.119  11.410
18890W        W84370  29.490  11.643   4.662
18891W        W84371  20.555  21.635  13.977
18892W        W84372  40.522  27.972   0.851
18893W        W84373  24.518  35.870   2.804
18894W        W84374   1.292  31.581   0.350
18895W        W84375  40.843  29.981   0.865
18896W        W84376  24.218  29.107   0.305
18897W        W84377  42.356  14.120  13.934
18898W        W84378  37.534  30.541   3.279
18899W        W84379  37.469  12.796   1.368
18900W        W84380   3.279  21.198  10.549
18901W        W84381  28.518  35.480  14.512
18902W        W84382  22.198   7.201   1.238
18903W        W84383  39.932   1.800   2.671
18904W        W84384  18.268  33.086   0.905
18905W        W84385  31.477  44.457   2.314
18906W        W84386  28.439   1.292  12.348
18907W        W84387  11.777  35.987   5.083
18908W        W84388  25.097  27.162  13.929
18909W        W84389  30.921  20.147  13.910
18910W        W84390  16.635  22.736  10.422
18911W        W84391  39.991  10.849   2.878
18912W        W84392  43.834  34.927   3.157
18913W        W84393  43.465   5.242  13.433
18914W        W84394  14.331  23.546  12.400
18915W        W84395  24.640  10.266  13.914
18916W        W84396  14.670  32.071   2.696
18917W        W84397  38.052  32.622   4.130
18918W        W84398   8.682  19.171  12.559
18919W        W84399  30.493   3.407  11.476
18920W        W84400  34.918  24.125  10.583
18921W        W84401   2.943   2.471   4.719
18922W        W84402  43.457   9.323   4.600
18923W        W84403  16.220   3.745  13.343
18924W        W84404  34.088  23.035  13.801
18925W        W84405  26.582  32.509   4.222
18926W        W84406   2.907  17.706   4.311
18927W        W84407   4.909   7.345   4.620
18928W        W84408  43.398  17.627  11.598
18929W        W84409  19.049  23.671  13.477
18930W        W84410  16.597  42.800   3.644
18931W        W84411  36.912  23.169   3.673
18932W        W84412   8.736  22.686   5.257
18933W        W84413   6.682   6.920   4.312
18934W        W84414  37.424  28.640  14.969
18935W        W84415  42.861  37.495  10.106
18936W        W84416  20.171  22.126  11.032
18937W        W84417  41.340  16.658   0.368
18938W        W84418  32.979  11.336  14.929
18939W        W84419  19.197  36.991  14.491
18940W        W84420  30.634  22.102  12.904
18941W        W84421  37.443  31.643   2.206
18942W        W84422  23.648  11.344   3.863
18943W        W84423   4.279  15.593  12.989
18944W        W84424  24.520  33.050  12.951
18945W        W84425  15.651   9.272   0.468
18946W        W84426  41.371  17.797   0.815
18947W        W84427  12.324   7.891   4.608
18948W        W84428   0.258  24.606   0.255
18949W        W84429  34.526  31.067  13.421
18950W        W84430  35.474   0.938  13.889
18951W        W84431  24.152  21.592   1.878
18952W        W84432  10.280   2.396   0.802
18953W        W84433  10.655   7.266   2.747
18954W        W84434  12.720  30.468  11.585
18955W        W84435  24.111  14.335   3.378
18956W        W84436  17.102  17.256   0.933
18957W        W84437  28.586  42.377   4.675
18958W        W84438  30.970  40.868  11.077
18959W        W84439  37.449  29.006   4.172
18960W        W84440   8.332  13.678   0.251
18961W        W84441  30.054  34.082   2.193
18962W        W84442   1.739   9.271  10.463
18963W        W84443  13.725  33.381   3.191
18964W        W84444  28.042   9.880  14.994
18965W        W84445  34.487  28.019  12.955
18966W        W84446  25.681  23.019  14.328
18967W        W84447  22.678  22.638   2.264
18968W        W84448  28.672  23.046   2.341
18969W        W84449   9.771  38.377   2.724
18970W        W84450  17.593   6.284   0.436
18971W        W84451  13.117  30.533   0.959
18972W        W84452  36.989  25.664   0.373
18973W        W84453  23.194  21.108  11.959
18974W        W84454  24.171   9.357  11.122
18975W        W84455  39.809  31.932  10.456
18976W        W84456  28.552  23.537   2.682
18977W        W84457   3.229  16.162   1.248
18978W        W84458  31.039  38.076  13.384
18979W        W84459  11.319  34.457   4.721
18980W        W84460  15.311  22.693  11.486
18981W        W84461  38.557  32.972   4.607
18982W        W84462  14.752  14.712  12.550
18983W        W84463  21.541  24.650   0.925
18984W        W84464  36.479  22.625   1.776
18985W        W84465  33.443  35.597  12.901
18986W        W84466   6.259  25.203   3.760
18987W        W84467  32.531   9.774   4.138
18988W        W84468  21.664  18.588  11.900
18989W        W84469  16.158  29.635   3.347
18990W        W84470  19.227  17.639  10.954
18991W        W84471  15.235  27.124  11.053
18992W        W84472   3.360   7.251   1.234
18993W        W84473  20.183   0.821  13.028
18994W        W84474  28.138  25.118  11.463
18995W        W84475   5.882  36.395  12.403
18996W        W84476  14.794  12.827  14.765
18997W        W84477   3.242  24.002  14.943
18998W        W84478  42.882   3.420  14.332
18999W        W84479   3.284  24.722  14.976
19000W        W84480  40.481  15.760   1.791
19001W        W84481  28.143   0.945  12.029
19002W        W84482  17.794  20.196  12.527
19003W        W84483  25.218  11.151  13.368
19004W        W84484  10.324  20.732  11.400
19005W        W84485   4.832  11.742  14.404
19006W        W84486  32.589  39.560  14.476
19007W        W84487   6.820  29.627   3.802
19008W        W84488  31.116  32.044   1.422
19009W        W84489   0.465  22.541  13.007
19010W        W84490  19.604  40.956  11.020
19011W        W84491  41.484  35.482   4.833
19012W        W84492  40.816   2.460   4.719
19013W        W84493  40.947  17.727  14.958
19014W        W84494  33.468   0.439  11.042
19015W        W84495  40.533  13.234   4.196
19016W        W84496  24.605  44.268  11.929
19017W        W84497  33.908  23.165  13.408
19018W        W84498  35.442  41.423  11.400
19019W        W84499  31.043  24.177   4.641
19020W        W84500  11.824  31.608  14.314
19021W        W84501  33.894   0.280   2.410
19022W        W84502  22.014  21.612   1.863
19023W        W84503  21.157   1.889   1.837
19024W        W84504  35.430  16.145   1.404
19025W        W84505  35.017  16.638   1.371
19026W        W84506  32.577  11.711  12.460
19027W        W84507   8.797   6.362   2.314
19028W        W84508  27.573  26.667  12.376
19029W        W84509   3.433  43.802   1.262
19030W        W84510  15.637   7.670  13.313
19031W        W84511  43.315  42.309   1.793
19032W        W84512  15.273  15.305  11.513
19033W        W84513  10.341  33.514  11.447
19034W        W84514   7.298  25.113  14.304
19035W        W84515  26.997  43.365  11.080
19036W        W84516  34.989  39.945   2.806
19037W        W84517  22.069  22.145   1.819
19038W        W84518  27.989  26.091  11.081
19039W        W84519  35.936  22.202  10.977
19040W        W84520  34.930  28.560   2.193
19041W        W84521  25.645  16.806   1.871
19042W        W84522  31.025  31.065   0.854
19043W        W84523  26.700   3.819  12.904
19044W        W84524  20.028  40.435  13.059
19045W        W84525  23.566   1.775   0.428
19046W        W84526   8.760  20.590  12.913
19047W        W84527  19.571  17.754   4.684
19048W        W84528  27.966  24.504   3.813
19049W        W84529  31.102  31.077   2.200
19050W        W84530   7.284  38.008  14.852
19051W        W84531  16.642  36.351   0.774
19052W        W84532  32.395  43.297   1.235
19053W        W84533  34.039   5.734   2.801
19054W        W84534  12.685   4.343  12.914
19055W        W84535  42.351  15.202  13.543
19056W        W84536   8.222  12.255   4.742
19057W        W84537  25.607  27.134  13.806
19058W        W84538  26.626   4.373   1.860
19059W        W84539  34.883  15.277   0.818
19060W        W84540   9.357  19.609  13.416
19061W        W84541  34.039   6.873  14.481
19062W        W84542  24.029  42.924  13.043
19063W        W84543  25.068  13.744  14.917
19064W        W84544  29.948   4.742   4.248
19065W        W84545   7.253  23.690  10.909
19066W        W84546  41.367  33.989   4.340
19067W        W84547  13.804  22.614   1.232
19068W        W84548  14.701   0.315  12.361
19069W        W84549   4.746  14.819  13.934
19070W        W84550  29.948  20.152   4.266
19071W        W84551   7.853   0.958  11.098
19072W        W84552  22.060   6.362   1.924
19073W        W84553   6.367  25.038   4.634
19074W        W84554  11.246  27.190   0.835
19075W        W84555  17.266  21.149   2.182
19076W        W84556   4.797  44.806   1.238
19077W        W84557  41.485  41.331  12.951
19078W        W84558   4.822   0.359   9.994
19079W        W84559  24.986  12.310  14.285
19080W        W84560  29.164   9.375  10.569
19081W        W84561  10.635  44.306  13.919
19082W        W84562  26.596  11.821  12.429
19083W        W84563  19.739   6.415  13.330
19084W        W84564  38.953  33.019   0.772
19085W        W84565  43.307  10.349   1.255
19086W        W84566  40.326  27.063   1.381
19087W        W84567  31.000  23.175   0.791
19088W        W84568   4.235  12.674   2.844
19089W        W84569   6.732   9.248   1.835
19090W        W84570  13.323  30.567  14.387
19091W        W84571  25.143  29.995   1.232
19092W        W84572  25.477  31.949  11.996
19093W        W84573  20.261  39.362  13.037
19094W        W84574   3.360  38.445   3.640
19095W        W84575   5.225  31.435   3.848
19096W        W84576   3.435  42.775  12.020
19097W        W84577  31.568  12.133   4.692
19098W        W84578  28.542  32.009   0.930
19099W        W84579  42.468  21.181   1.699
19100W        W84580   0.886  38.385  11.021
19101W        W84581   8.246  15.611   4.242
19102W        W84582  29.139  36.868   0.278
19103W        W84583   4.849   4.768   3.264
19104W        W84584  42.474  33.418   4.165
19105W        W84585  30.055   6.222   0.839
19106W        W84586  40.007  17.671   3.637
19107W        W84587   5.887   2.957   3.219
19108W        W84588   4.380  12.172   0.935
19109W        W84589   0.961  32.886  14.451
19110W        W84590  22.696   9.787   2.370
19111W        W84591  18.791  20.647   0.748
19112W        W84592  18.615  31.590  13.943
19113W        W84593  20.206  44.274  14.401
19114W        W84594  16.190  36.508   5.096
19115W        W84595  30.477   4.850   1.741
19116W        W84596   7.330  12.276  13.957
19117W        W84597  15.687   0.425  12.503
19118W        W84598  16.267  33.484   3.259
19119W        W84599  22.531   3.710  11.570
19120W        W84600  21.190  26.055   1.219
19121W        W84601  15.729  13.320   0.371
19122W        W84602   8.715  43.875  12.410
19123W        W84603   2.825  41.806   4.350
19124W        W84604  25.022  31.064  13.909
19125W        W84605  15.580  21.757  14.317
19126W        W84606  39.520  21.193  13.398
19127W        W84607   0.336  20.243   4.658
19128W        W84608  44.421  31.427   1.708
19129W        W84609  30.099  30.111  13.340
19130W        W84610  15.789   7.414  13.912
19131W        W84611  17.580  11.864   4.620
19132W        W84612  36.873  14.814   1.385
19133W        W84613  42.395  38.900  14.281
19134W        W84614  40.437  26.653  11.374
19135W        W84615  32.949   0.751  14.831
19136W        W84616  31.094   0.293   2.711
19137W        W84617  44.268  24.029   1.239
19138W        W84618  36.558  43.902  14.306
19139W        W84619  29.661  16.290  10.537
19140W        W84620   6.911  21.595  12.385
19141W        W84621  19.203  33.961  13.514
19142W        W84622  28.086  22.031  11.115
19143W        W84623  17.130  13.141   5.175
19144W        W84624  11.215  14.309   2.253
19145W        W84625  37.396  33.096   1.798
19146W        W84626  10.668  44.333  12.378
19147W        W84627  33.463  13.265   4.208
19148W        W84628  29.514  33.048  12.438
19149W        W84629  31.136  38.036   2.295
19150W        W84630  30.656  43.777   0.787
19151W        W84631   9.155  18.553   2.282
19152W        W84632  20.245  10.346   2.242
19153W        W84633  34.493   2.877   4.246
19154W        W84634  32.480  24.018   4.248
19155W        W84635  21.681  19.158   0.304
19156W        W84636  31.961  22.233   1.295
19157W        W84637  32.535   0.474  13.804
19158W        W84638   5.427  24.209   3.213
19159W        W84639  44.971  20.203   2.805
19160W        W84640  39.498  27.955   0.250
19161W        W84641  36.348  36.027   1.280
19162W        W84642  30.122  35.392  11.554
19163W        W84643  36.884  34.053   3.346
19164W        W84644  41.403  28.110   3.179
19165W        W84645  33.477   0.801   3.258
19166W        W84646  42.791  11.209   4.240
19167W        W84647   7.854  43.346  13.920
19168W        W84648  32.421  13.620   2.210
19169W        W84649  23.205  36.969  11.107
19170W        W84650  33.911   5.408  12.406
19171W        W84651   3.425  21.713   3.386
19172W        W84652   0.375  16.292  12.395
19173W        W84653  42.030   6.187  14.889
19174W        W84654  24.097  15.224   3.841
19175W        W84655  42.017  28.150   3.702
19176W        W84656  20.179  30.085   4.239
19177W        W84657  13.297  42.308   0.372
19178W        W84658   9.367  35.107   1.882
19179W        W84659  23.672  41.384  11.371
19180W        W84660  42.807  42.828   3.787
19181W        W84661   0.411  18.571   4.685
19182W        W84662   9.270  11.720  12.909
19183W        W84663  37.554  40.488  12.885
19184W        W84664  21.087  32.886  11.011
19185W        W84665  15.612  36.022  14.011
19186W        W84666  33.393  40.842   4.818
19187W        W84667  11.150   1.344   2.772
19188W        W84668  33.002  27.610  12.899
19189W        W84669  17.565  35.591   1.755
19190W        W84670  42.491  29.531  12.048
19191W        W84671   9.673  30.524  11.944
19192W        W84672   2.747  17.205   2.854
19193W        W84673  36.534  40.908  10.569
19194W        W84674  18.129  20.740   2.250
19195W        W84675  35.858   1.824  11.456
19196W        W84676  41.945  14.811  14.449
19197W        W84677  22.629  30.036  10.507
19198W        W84678  34.419   0.269  13.033
19199W        W84679  32.034  40.544  14.506
19200W        W84680  13.213  24.223   3.185
19201W        W84681  44.439  18.678  12.926
19202W        W84682  32.521   7.713   1.368
19203W        W84683   3.844   0.833  12.554
19204W        W84684  15.162  23.044  11.371
19205W        W84685  16.281  34.369   0.327
19206W        W84686  19.728   5.263   1.779
19207W        W84687  41.386  11.265  11.406
19208W        W84688  19.271  23.145   4.746
19209W        W84689   4.731  32.934  10.576
19210W        W84690  26.115  39.930  10.408
19211W        W84691  10.192  32.022   4.251
19212W        W84692  35.414  25.207   3.338
19213W        W84693  43.448  43.317  14.827
19214W        W84694  24.187  17.306  10.505
19215W        W84695  37.034  26.571   4.160
19216W        W84696  11.716  29.118  14.844
19217W        W84697   2.375   5.295   0.291
19218W        W84698  15.289  29.563   3.168
19219W        W84699  33.563  33.593  13.475
19220W        W84700  26.502  12.778   0.371
19221W        W84701  32.946  27.987   3.653
19222W        W84702  20.032  16.219  12.854
19223W        W84703  12.332  21.561   2.672
19224W        W84704  36.013  18.775  14.351
19225W        W84705  30.001  15.109   2.893
19226W        W84706  37.981  10.308  10.600
19227W        W84707   8.656   4.210  14.458
19228W        W84708  24.172  21.687   4.598
19229W        W84709  32.991  33.531   0.396
19230W        W84710  16.764   3.937   1.915
19231W        W84711   3.252  31.044  12.954
19232W        W84712  36.929  42.799   2.676
19233W        W84713   3.952  36.898   4.715
19234W        W84714   2.928  10.702  10.925
19235W        W84715  25.468  22.615   2.746
19236W        W84716   0.819  36.875   0.337
19237W        W84717  24.650  36.374   3.312
19238W        W84718  41.800  37.571  10.023
19239W        W84719  18.559  44.783  13.525
19240W        W84720  23.194   7.195  12.524
19241W        W84721  43.995  16.218   4.245
19242W        W84722  43.415  18.225  10.507
19243W        W84723  36.970  29.457  10.631
19244W        W84724   3.443   5.232  13.497
19245W        W84725  19.042  28.437   2.316
19246W        W84726  42.936  33.014   3.231
19247W        W84727  40.977  24.024   3.674
19248W        W84728  20.678  39.860   1.424
19249W        W84729  20.635   9.712  12.542
19250W        W84730  38.476  23.650   0.309
19251W        W84731  41.792  27.583   2.748
19252W        W84732  13.650  38.409  14.020
19253W        W84733  38.967  40.535  11.855
19254W        W84734   4.944  20.608   9.962
19255W        W84735  34.517  25.652  12.568
19256W        W84736  36.061  31.613  14.011
19257W        W84737  20.192  29.156   4.354
19258W        W84738  39.420  17.197   0.375
19259W        W84739  36.495   3.726   4.644
19260W        W84740  13.244  22.007   3.691
19261W        W84741  32.951  27.446  11.592
19262W        W84742   4.288  18.120  12.002
19263W        W84743  16.741  24.589  12.417
19264W        W84744   6.237   9.321   2.237
19265W        W84745  39.868  17.694   2.734
19266W        W84746   2.463  21.232  10.937
19267W        W84747  21.551   4.725   2.761
19268W        W84748  26.052   3.288  11.050
19269W        W84749  17.258  14.699   1.719
19270W        W84750  25.610  14.751   4.772
19271W        W84751   7.233  14.288   4.760
19272W        W84752  29.160   8.387  14.440
19273W        W84753   0.446  28.933  10.584
19274W        W84754  32.059  14.690   2.355
19275W        W84755  25.105  11.220   1.702
19276W        W84756  40.330  19.265   2.897
19277W        W84757  34.910  34.435   4.808
19278W        W84758   0.904  39.449  10.645
19279W        W84759  24.530  10.188   3.330
19280W        W84760  43.773  32.482  13.392
19281W        W84761  20.582   5.775  11.598
19282W        W84762  42.339   1.403   4.203
19283W        W84763   5.395   0.281   3.692
19284W        W84764  16.617  24.494  11.578
19285W        W84765   2.439  39.558  11.075
19286W        W84766  10.756  33.458   2.375
19287W        W84767  20.089  30.126  11.579
19288W        W84768  43.424  40.332  12.354
19289W        W84769  22.041  25.580   3.178
19290W        W84770  35.954  27.988   2.373
19291W        W84771  35.427   2.841  13.924
19292W        W84772  24.196  24.499  12.375
19293W        W84773  14.248  21.127   4.333
19294W        W84774  32.061   9.385  13.334
19295W        W84775   8.208  15.617  12.868
19296W        W84776  31.983  31.635   0.483
19297W        W84777  16.203  11.363   0.393
19298W        W84778  16.133   3.935   4.146
19299W        W84779   1.897  13.600  14.926
19300W        W84780  17.186  38.972   1.349
19301W        W84781  42.831  34.437  11.455
19302W        W84782   5.827   9.177  12.935
19303W        W84783   4.929  28.462  10.126
19304W        W84784   4.830  16.193   3.762
19305W        W84785  14.210   1.969  14.850
19306W        W84786   0.757  22.156  10.497
19307W        W84787  16.602  16.635  14.419
19308W        W84788   3.362  33.478  12.491
19309W        W84789  19.592  10.833  13.401
19310W        W84790  16.263  23.030   2.383
19311W        W84791  43.895  14.309  13.504
19312W        W84792  26.062   0.386   9.510
19313W        W84793  41.362  23.183   2.247
19314W        W84794  27.144  22.745   3.712
19315W        W84795  32.612   6.881   0.943
19316W        W84796   2.795  39.366  12.553
19317W        W84797  20.668   7.233   9.963
19318W        W84798  13.229  34.886  14.912
19319W        W84799  13.635   8.174   2.258
19320W        W84800  44.378   5.823   4.681
19321W        W84801  29.653  10.156   9.947
19322W        W84802  19.696   7.312   3.688
19323W        W84803  10.299   0.351  12.529
19324W        W84804  25.509  11.627  13.982
19325W        W84805  18.585  21.675   4.606
19326W        W84806  39.529  19.591   2.778
19327W        W84807  36.929  31.507   3.845
19328W        W84808  31.973  29.431  13.057
19329W        W84809   4.226   8.227   4.279
19330W        W84810  28.035  25.495  14.488
19331W        W84811  35.100  23.608   1.709
19332W        W84812  36.850  35.578   1.820
19333W        W84813   8.164  24.148   3.705
19334W        W84814   7.772   6.727   1.446
19335W        W84815  40.922  20.156   1.401
19336W        W84816  14.274  14.645   5.103
19337W        W84817   6.217   4.903   4.837
19338W        W84818  14.801   8.805  11.035
19339W        W84819  13.644   2.416  11.094
19340W        W84820   4.276   7.798   1.869
19341W        W84821  31.434  19.238  14.338
19342W        W84822  22.120  23.059  10.540
19343W        W84823  15.823  34.921  12.881
19344W        W84824  29.453   7.720  13.531
19345W        W84825  27.144  35.037  14.312
19346W        W84826  28.947  29.538   3.353
19347W        W84827  42.336  39.400   4.738
19348W        W84828  42.366  24.021  11.127
19349W        W84829   8.678  43.930  11.089
19350W        W84830  29.143  23.064   3.805
19351W        W84831  17.100   2.465  14.377
19352W        W84832  31.495  43.400   5.775
19353W        W84833   7.280   0.330   4.155
19354W        W84834  18.757   2.866  13.989
19355W        W84835  28.024  14.603   0.456
19356W        W84836  16.687  17.160  13.428
19357W        W84837  32.054  34.954  10.901
19358W        W84838  27.622  31.451   4.274
19359W        W84839  23.615  43.344   0.414
19360W        W84840  16.799  20.611  13.414
19361W        W84841  23.036   8.691   2.856
19362W        W84842   8.754  19.246  12.058
19363W        W84843  22.173   5.353   3.226
19364W        W84844   6.314  20.572   1.378
19365W        W84845  37.426  30.488  10.488
19366W        W84846  18.123  38.404   0.462
19367W        W84847  35.543  42.361  13.446
19368W        W84848  34.080  26.055  12.885
19369W        W84849  33.450  44.386   0.466
19370W        W84850  23.112  32.561   3.338
19371W        W84851  18.698  26.015   0.938
19372W        W84852  35.071  27.024  13.822
19373W        W84853  33.102  23.039   1.866
19374W        W84854  29.134  22.522   1.359
19375W        W84855   3.770  28.959   1.852
19376W        W84856  35.440  31.624   3.226
19377W        W84857  29.143  17.576   4.651
19378W        W84858  24.137  42.980  13.837
19379W        W84859  28.579   0.878  12.076
19380W        W84860   7.216  37.020   1.297
19381W        W84861   2.269  31.635  11.435
19382W        W84862  14.643  23.509  11.496
19383W        W84863  40.907  10.715   0.434
19384W        W84864   2.255  30.604   2.388
19385W        W84865  34.922  25.012   4.326
19386W        W84866  36.943  33.042   3.238
19387W        W84867  15.583  29.568  14.861
19388W        W84868   5.744  18.776   1.797
19389W        W84869  29.552   9.676  11.507
19390W        W84870  37.042  30.044   3.310
19391W        W84871  13.784  25.141   3.179
19392W        W84872   7.262  28.454   0.777
19393W        W84873  29.550  13.299   1.868
19394W        W84874  38.920  39.996   1.874
19395W        W84875  30.659  29.021   4.295
19396W        W84876  28.936  20.224   2.771
19397W        W84877  26.030   1.847  13.432
19398W        W84878  36.953  21.743   3.180
19399W        W84879  31.017  10.233  10.633
19400W        W84880   1.910  21.682   4.304
19401W        W84881   3.817   5.263   4.117
19402W        W84882  36.376   8.359   3.721
19403W        W84883  31.499  35.371   4.240
19404W        W84884   1.372  24.640  14.913
19405W        W84885   7.697  37.564  11.961
19406W        W84886   8.326  36.447   1.338
19407W        W84887  32.489   1.780  14.828
19408W        W84888  34.378  29.569   0.792
19409W        W84889  36.379  10.326   0.866
19410W        W84890  22.115   7.804  11.444
19411W        W84891  21.154  38.421   4.219
19412W        W84892  35.536  43.817   1.712
19413W        W84893  16.291  38.950   0.368
19414W        W84894  29.460  42.939   0.964
19415W        W84895   8.255  20.711  14.308
19416W        W84896  13.669  42.845  12.571
19417W        W84897  36.957   0.743   0.447
19418W        W84898  11.296  30.478  12.478
19419W        W84899  35.082  38.009  13.812
19420W        W84900  29.152   7.812   2.324
19421W        W84901   9.712  17.218   2.841
19422W        W84902  25.510  19.720   1.835
19423W        W84903  35.929  12.661   4.290
19424W        W84904  28.445  34.384   1.446
19425W        W84905  38.918  30.551   4.602
19426W        W84906  39.343  37.445   3.845
19427W        W84907  35.443  21.207  10.959
19428W        W84908  18.676  14.192  13.926
19429W        W84909  19.545   4.853  12.397
19430W        W84910  44.321  24.196  12.439
19431W        W84911  29.619  22.665   3.262
19432W        W84912   1.285   0.390  13.429
19433W        W84913   9.698  27.115  13.418
19434W        W84914  34.897  39.978   4.632
19435W        W84915  27.549  18.287   4.654
19436W        W84916  21.740  30.004  14.420
19437W        W84917  41.362  34.582  11.095
19438W        W84918  40.509  34.066   1.448
19439W        W84919  18.585   7.229  13.919
19440W        W84920   5.725  13.256   2.201
19441W        W84921  15.205  44.983  12.856
19442W        W84922  27.056   4.283   4.687
19443W        W84923  25.118  31.944  12.835
19444W        W84924   5.874  12.282  14.323
19445W        W84925  16.716  35.430   4.623
19446W        W84926  20.585  41.030   0.805
19447W        W84927  27.656  24.110  10.406
19448W        W84928  32.498  17.766   2.874
19449W        W84929  15.615  37.059   0.328
19450W        W84930  41.851  41.868  14.017
19451W        W84931  37.405   5.747  13.990
19452W        W84932  33.052  33.571   0.762
19453W        W84933  28.658  15.299   1.450
19454W        W84934  13.307   3.907  12.096
19455W        W84935  16.756  41.507  11.860
19456W        W84936  20.242   5.359  13.356
19457W        W84937  17.215   1.766  10.422
19458W        W84938   6.705  20.764  10.462
19459W        W84939  37.020   1.319  12.044
19460W        W84940  41.910  42.867   0.380
19461W        W84941   7.844  38.327  10.475
19462W        W84942  23.220  40.394  10.898
19463W        W84943   0.286  23.156   2.702
19464W        W84944  10.835   9.287   4.170
19465W        W84945  23.231  21.566   0.472
19466W        W84946  13.297  19.746   0.773
19467W        W84947  23.688  15.268  12.368
19468W        W84948   5.784  16.670   4.659
19469W        W84949  44.382  18.184  13.515
19470W        W84950   6.294  28.452   9.955
19471W        W84951  35.567  31.046  13.019
19472W        W84952  13.815  31.598   1.224
19473W        W84953  16.631  43.823   3.653
19474W        W84954   4.241   2.275   3.269
19475W        W84955  16.174  25.490  13.536
19476W        W84956  37.415  30.422  14.467
19477W        W84957  11.846  13.118  12.496
19478W        W84958  13.156  37.409   4.806
19479W        W84959  15.597  10.181   1.714
19480W        W84960   0.469  23.028  13.829
19481W        W84961   8.775   8.346  13.436
19482W        W84962  34.908  30.153   3.852
19483W        W84963  13.160   6.836   2.900
19484W        W84964  38.497  19.152   3.280
19485W        W84965  38.498  14.144  12.378
19486W        W84966  23.119  36.558  12.092
19487W        W84967  37.936   4.720  14.489
19488W        W84968  38.066  25.494   1.411
19489W        W84969  18.753  25.214   3.275
19490W        W84970   0.831   2.336   1.351
19491W        W84971  31.113  27.129  14.916
19492W        W84972  24.184   2.883   0.891
19493W        W84973  11.208   8.826   4.783
19494W        W84974  11.668  14.245  11.463
19495W        W84975  23.054  32.029  11.093
19496W        W84976   4.268   1.962  11.026
19497W        W84977  22.501  14.718   4.676
19498W        W84978  41.005  39.542   4.212
19499W        W84979   3.268  14.700   4.627
19500W        W84980  23.643  34.606  12.442
19501W        W84981  28.542  23.161   4.115
19502W        W84982  40.375  43.285   1.246
19503W        W84983  16.282   8.668  10.489
19504W        W84984  39.327   1.247  11.007
19505W        W84985  40.375  16.161  10.945
19506W        W84986  44.386  28.582   1.339
19507W        W84987  26.130  15.801  14.330
19508W        W84988  40.313   5.341   3.337
19509W        W84989  27.653  18.676  14.481
19510W        W84990  39.530  25.699  13.791
19511W        W84991  44.820  18.115  13.829
19512W        W84992   2.238   6.790  11.552
19513W        W84993  38.904  21.157   1.232
19514W        W84994   1.320   6.872  11.437
19515W        W84995  17.243  33.999  11.511
19516W        W84996   3.731  38.913  13.437
19517W        W84997  23.110   4.906  14.861
19518W        W84998  20.186   5.201   4.163
19519W        W84999  34.612   1.770  12.447
19520W        W85000  37.896  38.980  13.953
19521W        W85001  42.969  41.303  11.436
19522W        W85002  27.196  35.446  12.068
19523W        W85003  44.858  39.899  10.574
19524W        W85004  35.888  12.229   2.670
19525W        W85005   5.733  44.866  10.480
19526W        W85006   6.844  43.507  14.898
19527W        W85007  35.068   5.853   0.834
19528W        W85008  34.959  16.148   1.744
19529W        W85009  27.173  43.899   0.817
19530W        W85010  29.627  21.648   2.784
19531W        W85011  35.856  14.232  10.428
19532W        W85012  29.490  11.853   3.690
19533W        W85013  29.939  24.193   1.739
19534W        W85014  12.750  21.581   2.784
19535W        W85015   0.450  38.520  14.851
19536W        W85016  18.752  20.768  12.411
19537W        W85017   9.323  41.946  12.003
19538W        W85018  39.982  24.033  12.412
19539W        W85019  17.072  12.623   3.178
19540W        W85020  37.965  28.568  14.911
19541W        W85021   9.886  36.085  13.008
19542W        W85022   0.951  39.868   4.609
19543W        W85023   8.406  21.718   3.815
19544W        W85024  27.498  22.998  14.441
19545W        W85025   3.868  39.864   1.795
19546W        W85026  12.229  44.966  11.893
19547W        W85027  16.660  14.238   1.375
19548W        W85028  29.983  31.446  14.449
19549W        W85029  32.588   6.356   4.350
19550W        W85030   2.294  32.065  11.402
19551W        W85031  41.921  36.851  12.460
19552W        W85032  29.997  38.939   4.178
19553W        W85033  21.222  31.538  12.961
19554W        W85034  20.545  42.404  12.509
19555W        W85035  23.194  31.572  10.455
19556W        W85036   1.332  35.474  13.049
19557W        W85037  41.508  15.621   2.198
19558W        W85038  36.015  11.677  13.011
19559W        W85039  23.107  30.467   4.296
19560W        W85040  12.124  27.633   4.706
19561W        W85041   7.694   0.441   4.641
19562W        W85042  35.081  26.487  13.855
19563W        W85043  12.326  31.094   3.349
19564W        W85044  24.087  31.557   3.707
19565W        W85045  12.711  18.690  10.561
19566W        W85046   6.892  11.183   2.239
19567W        W85047  28.612  15.633   1.222
19568W        W85048  21.593   6.851  10.932
19569W        W85049  29.557   5.780  10.638
19570W        W85050  27.992   9.871   2.848
19571W        W85051  33.893  18.143  12.959
19572W        W85052  43.306  31.912  12.521
19573W        W85053  32.457   9.852  11.391
19574W        W85054  31.440  20.152  11.021
19575W        W85055  42.922  42.987  14.824
19576W        W85056  12.800  10.859  13.376
19577W        W85057  44.347  14.798   2.368
19578W        W85058  15.737  20.127   3.802
19579W        W85059   0.345  32.537  11.084
19580W        W85060   6.384  22.692   0.847
19581W        W85061  18.144  29.640   4.138
19582W        W85062   8.872  21.668  13.875
19583W        W85063   6.819   9.693  11.605
19584W        W85064  37.387   5.790   9.977
19585W        W85065  31.077  40.451  10.936
19586W        W85066  15.206   4.251   2.384
19587W        W85067  19.147   6.303   2.391
19588W        W85068  17.091  16.680  10.491
19589W        W85069   7.210  15.133   1.829
19590W        W85070  33.878   8.679   2.361
19591W        W85071  39.879  34.602  13.324
19592W        W85072  35.938  37.516   4.164
19593W        W85073  12.621   2.923  13.871
19594W        W85074  13.120  23.719   2.689
19595W        W85075  16.119  38.481  14.491
19596W        W85076   6.712   7.399   2.813
19597W        W85077  32.572  29.464  13.046
19598W        W85078  27.090  29.567  11.892
19599W        W85079  41.350  33.020   1.446
19600W        W85080  32.067  12.842   3.840
19601W        W85081  20.220  12.674   4.254
19602W        W85082  28.678  37.889   1.747
19603W        W85083  33.614  31.461   0.419
19604W        W85084  43.515   2.879  11.873
19605W        W85085  39.478  39.540  14.445
19606W        W85086   9.837  36.898  12.488
19607W        W85087  10.643  16.278  10.900
19608W        W85088  30.972  32.452  12.366
19609W        W85089   6.921   2.891   1.835
19610W        W85090  26.561   7.385   0.768
19611W        W85091  19.183  29.092   2.305
19612W        W85092  25.633  25.980   0.728
19613W        W85093  22.010  21.051  11.895
19614W        W85094   7.668   2.393  12.354
19615W        W85095  23.517   9.791   3.746
19616W        W85096  10.849  39.530   1.324
19617W        W85097  27.506   0.777  12.556
19618W        W85098  14.101  22.601   2.268
19619W        W85099   4.740   6.796   2.691
19620W        W85100  39.894  14.287  13.519
19621W        W85101   9.842  36.913  12.826
19622W        W85102   2.757  10.691  10.416
19623W        W85103  17.282  18.214  13.383
19624W        W85104  30.448   2.849  11.521
19625W        W85105  36.506  17.086   2.856
19626W        W85106  12.322  17.750  14.415
19627W        W85107  34.031  12.282   2.229
19628W        W85108  23.992   2.830   2.668
19629W        W85109   4.922   8.286  14.890
19630W        W85110   7.795   0.405   3.832
19631W        W85111   2.437  29.530   3.780
19632W        W85112  15.603  37.491  12.895
19633W        W85113  24.020  35.538  14.844
19634W        W85114   3.878  42.392   4.200
19635W        W85115  40.910  29.027  11.444
19636W        W85116  44.493  22.147  13.895
19637W        W85117  38.384  28.994   1.698
19638W        W85118  13.240  35.521   1.857
19639W        W85119   6.199  38.006  13.392
19640W        W85120  28.979  21.664   2.803
19641W        W85121  10.374   7.396  11.591
19642W        W85122  21.188  40.518  14.509
19643W        W85123  35.898  44.269   0.800
19644W        W85124  36.986  34.989  12.350
19645W        W85125  22.012  39.947  10.943
19646W        W85126  11.689  14.244   1.370
19647W        W85127  39.410   0.923   1.718
19648W        W85128  35.472  17.635   3.232
19649W        W85129  29.119  26.981  12.579
19650W        W85130  44.372  34.119   1.717
19651W        W85131  26.657  14.645   4.276
19652W        W85132  15.187  21.753  10.534
19653W        W85133   6.826  11.771   2.314
19654W        W85134   5.688  32.984   1.751
19655W        W85135  34.045   0.815   3.661
19656W        W85136   3.731  30.653   2.894
19657W        W85137  28.522   1.272   0.279
19658W        W85138  12.762  34.598  12.910
19659W        W85139  10.841  42.979   4.656
19660W        W85140  13.601  41.006   5.719
19661W        W85141  17.793  32.602   2.222
19662W        W85142   8.827   1.829  11.938
19663W        W85143  14.206  28.530   1.438
19664W        W85144  41.031  10.344   4.780
19665W        W85145  37.954  36.546  12.007
19666W        W85146  36.403  29.468  12.405
19667W        W85147  35.569  20.031  10.430
19668W        W85148   6.339  28.178  14.009
19669W        W85149  13.602   3.387   2.856
19670W        W85150  39.370   7.178   0.819
19671W        W85151  29.595  43.824   3.859
19672W        W85152  34.493   7.883  11.437
19673W        W85153  15.578  36.521  12.440
19674W        W85154  12.656  32.487   3.360
19675W        W85155  28.680  14.617  11.496
19676W        W85156  44.379  38.471   2.272
19677W        W85157   3.428  27.498   1.926
19678W        W85158  38.336   8.692  10.465
19679W        W85159  17.718   2.327  14.463
19680W        W85160  24.482  21.133  12.572
19681W        W85161  38.505  14.714  13.796
19682W        W85162   0.412  33.586  12.061
19683W        W85163  10.829  27.146  11.481
19684W        W85164  15.662  39.365   4.801
19685W        W85165  29.585  34.376  10.931
19686W        W85166  29.562  14.138   4.614
19687W        W85167  20.761  26.520  13.526
19688W        W85168  44.968  12.299   1.301
19689W        W85169  27.972  15.578  10.587
19690W        W85170  43.496  23.640   3.312
19691W        W85171   7.319  12.270   2.233
19692W        W85172  34.370  23.616   2.392
19693W        W85173  12.837  43.811  13.881
19694W        W85174   3.852  11.259  14.880
19695W        W85175  14.225   8.876   4.834
19696W        W85176  23.663  19.221   4.318
19697W        W85177  11.288   6.763  10.452
19698W        W85178  19.252  33.379   4.620
19699W        W85179  18.560  22.228   0.726
19700W        W85180  34.045  27.183  13.826
19701W        W85181  22.721  39.502  14.364
19702W        W85182  38.837   7.211   4.765
19703W        W85183   9.730  35.026  11.598
19704W        W85184  29.504   8.678  13.445
19705W        W85185  38.498  32.460   1.245
19706W        W85186  33.534  40.321   0.799
19707W        W85187  40.542  20.693   1.350
19708W        W85188   6.425  34.925   4.676
19709W        W85189   6.824  36.495  10.427
19710W        W85190  27.126  16.085  11.051
19711W        W85191  38.372   0.457   2.868
19712W        W85192  29.537  25.137   2.253
19713W        W85193   3.263  30.543  10.956
19714W        W85194  19.701  15.650   2.681
19715W        W85195   2.273  20.529   0.814
19716W        W85196  38.942  42.289  10.902
19717W        W85197  23.640   7.708   3.854
19718W        W85198  42.023  22.114  11.056
19719W        W85199  42.916   6.311  11.066
19720W        W85200   2.950  13.740   1.277
19721W        W85201  20.584  30.078   0.363
19722W        W85202  10.303   3.915  10.431
19723W        W85203   7.295  13.148   1.405
19724W        W85204  25.002  34.404  12.872
19725W        W85205  40.485  26.542  10.083
19726W        W85206  25.552  34.056  14.456
19727W        W85207  25.674  32.392   3.263
19728W        W85208   8.345  34.546  10.902
19729W        W85209   0.351  40.523   1.770
19730W        W85210  11.366   0.419   1.215
19731W        W85211  10.154  35.599   1.278
19732W        W85212  31.422  17.611   3.745
19733W        W85213  44.777  14.216  11.602
19734W        W85214  27.646  28.991   0.766
19735W        W85215  25.496  39.936  12.365
19736W        W85216  12.127   5.311  11.381
19737W        W85217   6.775  37.342   1.707
19738W        W85218  42.967  29.609   3.354
19739W        W85219  42.849  35.527  11.940
19740W        W85220  34.028  41.019   4.156
19741W        W85221   0.986   7.216   0.468
19742W        W85222   5.257  41.494  14.897
19743W        W85223  34.938  10.165   0.379
19744W        W85224  16.627  31.433  13.519
19745W        W85225  15.152  13.173  13.383
19746W        W85226  26.066   3.355   3.762
19747W        W85227  32.125  17.748  12.077
19748W        W85228  31.022  21.675  13.946
19749W        W85229  43.983   4.253  10.447
19750W        W85230  30.459   7.686  13.937
19751W        W85231   5.307  40.024  10.932
19752W        W85232  18.267  31.935   3.198
19753W        W85233  29.539   8.311  12.857
19754W        W85234  44.428   2.396   4.144
19755W        W85235   0.309  39.423  14.511
19756W        W85236  15.621  25.593   3.637
19757W        W85237  16.104  23.175  10.612
19758W        W85238  12.745   4.246   4.166
19759W        W85239  17.655  39.404   3.741
19760W        W85240  35.406   5.275  12.354
19761W        W85241  29.100  19.650   3.367
19762W        W85242  33.493  36.476  11.088
19763W        W85243  18.164  27.617   0.849
19764W        W85244  40.315  41.993  11.595
19765W        W85245  30.462  38.006  10.023
19766W        W85246  13.754  10.193  11.421
19767W        W85247  39.423  35.104  11.993
19768W        W85248  23.204  15.170   1.847
19769W        W85249  20.092  35.978   4.695
19770W        W85250   5.352  21.580   2.881
19771W        W85251  10.292  44.469  14.984
19772W        W85252  23.178   2.877  14.454
19773W        W85253  40.871  38.930  10.621
19774W        W85254  38.518   2.861  12.373
19775W        W85255  16.310  32.904  14.981
19776W        W85256   0.885  10.263  10.621
19777W        W85257  41.349   8.343  10.521
19778W        W85258  15.320   1.840   4.174
19779W        W85259  16.173  21.522   1.773
19780W        W85260  25.163  21.738  10.419
19781W        W85261  18.223  26.471   1.883
19782W        W85262  22.642  17.738   0.823
19783W        W85263  33.004  43.874  13.342
19784W        W85264  36.435  11.725  14.318
19785W        W85265  14.340  44.999   1.870
19786W        W85266   6.725  38.542   2.279
19787W        W85267   1.788   7.366   4.690
19788W        W85268  41.345  14.180   4.136
19789W        W85269  40.344   3.302  10.121
19790W        W85270  37.368  25.598   0.742
19791W        W85271   2.933  42.886   1.878
19792W        W85272  42.300   8.244   0.829
19793W        W85273  14.791  19.741   0.807
19794W        W85274  42.843  23.017   1.792
19795W        W85275   8.311  23.706  12.366
19796W        W85276  10.844  19.726   2.895
19797W        W85277  39.012  40.988   0.835
19798W        W85278  20.198  31.567  11.961
19799W        W85279  27.949  21.658   4.126
19800W        W85280  35.879  27.670  10.583
19801W        W85281  13.677  34.545  11.900
19802W        W85282  25.575  15.634  14.383
19803W        W85283  23.134  23.213  13.477
19804W        W85284  40.018   1.880   3.184
19805W        W85285   3.308   3.828   2.315
19806W        W85286  27.186   6.346  14.799
19807W        W85287  42.945  39.979   3.785
19808W        W85288   0.487  40.318  11.054
19809W        W85289  33.056   9.236  10.469
19810W        W85290  24.522   1.787  14.855
19811W        W85291  44.800  43.323  10.913
19812W        W85292  18.134  31.465   2.208
19813W        W85293   9.331   5.842   4.610
19814W        W85294  18.573  17.597   0.320
19815W        W85295  32.005   6.876   2.823
19816W        W85296   2.849  38.060  10.947
19817W        W85297  44.498  26.474   0.395
19818W        W85298   7.323  14.605   0.814
19819W        W85299  34.983   5.824  13.973
19820W        W85300  15.603  41.985   3.259
19821W        W85301  13.282  28.987   1.818
19822W        W85302   6.758  28.525  11.059
19823W        W85303  12.731  24.537  13.415
19824W        W85304  31.595  28.086  11.938
19825W        W85305  19.737  32.956  10.524
19826W        W85306  29.103  32.565  13.989
19827W        W85307  37.345  24.543   0.763
19828W        W85308  33.954  10.689   1.800
19829W        W85309  30.951  34.920   2.723
19830W        W85310  33.075  15.302   0.827
19831W        W85311  40.819  19.084  12.505
19832W        W85312   3.885  28.503   4.202
19833W        W85313  14.829  17.182  12.467
19834W        W85314  44.297  39.892  10.571
19835W        W85315  35.526  32.398   3.862
19836W        W85316   4.852  11.698  13.499
19837W        W85317   9.385  40.804   2.675
19838W        W85318  29.176  18.067   4.145
19839W        W85319  40.388   3.840   0.396
19840W        W85320  18.560  15.695   3.834
19841W        W85321  24.524  14.141   1.341
19842W        W85322   1.325  40.805  13.798
19843W        W85323  30.498   2.924  10.539
19844W        W85324  27.117  39.888   2.413
19845W        W85325  10.178  35.397  13.379
19846W        W85326  26.077  29.170  12.447
19847W        W85327  14.613  42.373  13.515
19848W        W85328  37.375  18.181   3.715
19849W        W85329  16.172  41.429   1.738
19850W        W85330  44.285  22.028   2.767
19851W        W85331  23.600   6.369  13.998
19852W        W85332  42.950   3.747   1.414
19853W        W85333  40.839   7.873  11.986
19854W        W85334   6.812  41.350  11.112
19855W        W85335   8.862  11.359  10.986
19856W        W85336  34.019  31.519  12.925
19857W        W85337  42.909  10.238  10.451
19858W        W85338  44.341   1.339  12.030
19859W        W85339  36.871  32.559   4.342
19860W        W85340   1.273  34.599   2.894
19861W        W85341  43.807  36.990   1.704
19862W        W85342  18.197  41.485   1.878
19863W        W85343  41.882  12.183   2.893
19864W        W85344  26.644  30.031  13.383
19865W        W85345  43.901  33.952  11.902
19866W        W85346  43.809   8.718   2.838
19867W        W85347  34.876  42.497   4.791
19868W        W85348  30.016  35.546  13.412
19869W        W85349  44.284  23.200   1.211
19870W        W85350  23.613   8.740   3.221
19871W        W85351  15.764  31.015  12.855
19872W        W85352  28.441  32.412   0.324
19873W        W85353   6.278   0.805  12.986
19874W        W85354  23.037  25.500   1.722
19875W        W85355  26.170   0.816   1.395
19876W        W85356  29.486  19.045  11.942
19877W        W85357  42.501  10.775  10.895
19878W        W85358  33.014  11.663   4.191
19879W        W85359   2.816   0.346   1.422
19880W        W85360   1.847   4.439   0.439
19881W        W85361  28.539  42.917  14.932
19882W        W85362  37.054   8.161   2.859
19883W        W85363  42.999   7.274  11.484
19884W        W85364  37.526  23.214  12.037
19885W        W85365  15.813  26.698  12.573
19886W        W85366   5.244  39.058   2.794
19887W        W85367  25.191   7.244   1.880
19888W        W85368  34.037  34.455   1.860
19889W        W85369   9.693  16.653  12.398
19890W        W85370  31.957  38.418  13.339
19891W        W85371   7.251  41.859  12.979
19892W        W85372  38.335  28.473   1.327
19893W        W85373  18.761  10.683  13.416
19894W        W85374  33.022  26.058   1.253
19895W        W85375  42.015  36.519   0.429
19896W        W85376  32.075  38.870  11.917
19897W        W85377  11.322  14.790  14.955
19898W        W85378  18.744  19.093   1.400
19899W        W85379  24.020  26.586  11.918
19900W        W85380  13.672  13.826   0.405
19901W        W85381  40.959  43.380   1.243
19902W        W85382  14.714  17.252  10.145
19903W        W85383  37.918  38.395   2.683
19904W        W85384  36.984  39.318   1.357
19905W        W85385  21.067  12.208  12.862
19906W        W85386   4.339   6.822   2.190
19907W        W85387  20.118  14.280   5.166
19908W        W85388  25.587  32.395   1.273
19909W        W85389  22.064   2.305   0.904
19910W        W85390  25.556  32.023   2.664
19911W        W85391   4.266  39.049  14.842
19912W        W85392   2.409   5.844   0.843
19913W        W85393  14.653  30.973  11.998
19914W        W85394  13.349  38.036   2.738
19915W        W85395  40.459  27.158   0.963
19916W        W85396   9.338  39.472  13.347
19917W        W85397  25.104  44.989   5.707
19918W        W85398  42.426  19.618  10.980
19919W        W85399  34.973  16.107  14.291
19920W        W85400  43.501  12.211  14.853
19921W        W85401  38.452  11.285  14.918
19922W        W85402  18.597  29.138  14.782
19923W        W85403  14.215   5.922  11.491
19924W        W85404  13.809  36.554   4.760
19925W        W85405  32.080  38.902   2.195
19926W        W85406  31.547  29.079   3.279
19927W        W85407  13.294  11.245   4.782
19928W        W85408   2.466  34.113  13.020
19929W        W85409  40.392  23.617  12.079
19930W        W85410   0.454  27.107  12.491
19931W        W85411  44.474  34.503  13.871
19932W        W85412  43.778   2.793  11.612
19933W        W85413  37.966   3.455   2.325
19934W        W85414  25.064   2.329   3.792
19935W        W85415  13.241   3.783  12.344
19936W        W85416  43.873  41.526  12.987
19937W        W85417  19.540  10.869   3.687
19938W        W85418  32.527  20.090  12.339
19939W        W85419   1.808  42.351  13.378
19940W        W85420  28.500  31.054  11.435
19941W        W85421  29.169   6.876   4.743
19942W        W85422  40.856   6.186  12.457
19943W        W85423  27.581   0.350  11.533
19944W        W85424   2.880  22.014   3.247
19945W        W85425  16.809   9.335  14.459
19946W        W85426   4.304  17.245   1.785
19947W        W85427  15.599  16.769   1.260
19948W        W85428  33.040  19.122   2.863
19949W        W85429  24.682  13.288  11.404
19950W        W85430  39.524  16.730   4.265
19951W        W85431  11.722  44.936  12.339
19952W        W85432  13.126  30.924   0.793
19953W        W85433  33.382  34.372   0.371
19954W        W85434  36.083  25.531  14.776
19955W        W85435  37.043  21.165   2.265
19956W        W85436  14.610  19.115  14.493
19957W        W85437   7.361   4.818   1.296
19958W        W85438   1.434  35.578  12.509
19959W        W85439  29.115  19.642   0.477
19960W        W85440  43.344   2.300   4.127
19961W        W85441  35.448  12.174   2.188
19962W        W85442  37.903  44.481   1.791
19963W        W85443  36.512  25.122  11.573
19964W        W85444   9.232  16.132   3.856
19965W        W85445  21.176  32.039   2.747
19966W        W85446  14.283   2.783   0.845
19967W        W85447   9.744   6.921  11.553
19968W        W85448  34.602  11.840  14.019
19969W        W85449  39.058  17.100  13.417
19970W        W85450  18.118  35.522   2.182
19971W        W85451   3.250  32.986  11.972
19972W        W85452  35.912  18.660  13.856
19973W        W85453   5.387  28.494  14.379
19974W        W85454  18.205  24.099   2.877
19975W        W85455  28.672  10.142   2.346
19976W        W85456  38.389   8.704  12.911
19977W        W85457   0.988   0.748   0.951
19978W        W85458  41.527  25.050  13.879
19979W        W85459  21.231  36.534   0.758
19980W        W85460   5.239  12.842   3.867
19981W        W85461  33.982   0.888  12.865
19982W        W85462  19.613  20.722   2.812
19983W        W85463  23.119  20.737   4.818
19984W        W85464   5.374  36.378   1.701
19985W        W85465  36.891   4.851  12.505
19986W        W85466  12.155   0.851  13.454
19987W        W85467  24.711   8.187  14.804
19988W        W85468  24.130  33.989   0.309
19989W        W85469   8.325  30.430   4.835
19990W        W85470   7.362   0.821  14.455
19991W        W85471  22.544  37.570  14.915
19992W        W85472   9.867  28.120   0.827
19993W        W85473  14.269  44.275  14.426
19994W        W85474  34.928   4.869   3.288
19995W        W85475  32.588  28.044   0.743
19996W        W85476  10.203  36.429   2.700
19997W        W85477  25.647  33.893  13.012
19998W        W85478   3.327   3.216  12.942
19999W        W85479  17.072   8.880   3.262
20000W        W85480   3.771  33.495  12.977
20001W        W85481  27.997  20.592   0.413
20002W        W85482  20.088  41.809   4.806
20003W        W85483  16.254  28.083  10.611
20004W        W85484   9.777   9.771   3.179
20005W        W85485  38.377  39.530  10.957
20006W        W85486  23.692  10.733   1.886
20007W        W85487  25.702  26.066   3.662
20008W        W85488  12.352   0.466  13.481
20009W        W85489  44.776   1.370   1.814
20010W        W85490   7.807  39.996   3.670
20011W        W85491  26.563  10.646   3.791
20012W        W85492  14.299  13.657   1.317
20013W        W85493  44.926   7.366   2.309
20014W        W85494   0.787  31.933  10.047
20015W        W85495  26.206  24.518   0.748
20016W        W85496  20.751  16.789  12.349
20017W        W85497  23.640   5.814   4.636
20018W        W85498   3.758  32.025  14.448
20019W        W85499  19.062  22.658  14.850
20020W        W85500   3.903  32.559  13.995
20021W        W85501   3.281   7.208   2.701
20022W        W85502  44.316  28.120  10.448
20023W        W85503  30.063   7.174  10.591
20024W        W85504  35.372  29.028   1.311
20025W        W85505  10.794   5.749   1.356
20026W        W85506  14.134  15.181  10.445
20027W        W85507  26.694  39.982  12.516
20028W        W85508  18.247  17.752  11.601
20029W        W85509   4.432  21.241   1.903
20030W        W85510   7.237   7.394   4.824
20031W        W85511   9.164  18.117  14.002
20032W        W85512  40.885  11.299  13.855
20033W        W85513  14.120  26.951  14.984
20034W        W85514  40.352  10.691  12.568
20035W        W85515  35.098  10.333  11.029
20036W        W85516   5.784  42.300   4.825
20037W        W85517   0.960  35.536   4.637
20038W        W85518  32.521  11.278  14.378
20039W        W85519   3.729  25.204  14.797
20040W        W85520  30.909   3.276  14.010
20041W        W85521  15.775  37.540  11.454
20042W        W85522  41.516  18.054   0.294
20043W        W85523  16.754   1.327   3.152
20044W        W85524  23.102  19.720   1.298
20045W        W85525  42.362  11.792  10.409
20046W        W85526   7.345  24.722   2.300
20047W        W85527  15.283   5.846  14.361
20048W        W85528  32.566  28.605  10.902
20049W        W85529  43.793  33.617   1.741
20050W        W85530  16.205  13.232  12.538
20051W        W85531  39.370  44.316   0.337
20052W        W85532  41.936   2.918   4.180
20053W        W85533  44.421  14.773   1.346
20054W        W85534  44.999  28.552  14.503
20055W        W85535  18.707   7.880  13.867
20056W        W85536  34.552  29.056  10.602
20057W        W85537  28.607  31.089  14.497
20058W        W85538  34.604   8.338   1.437
20059W        W85539  41.823  13.216  13.414
20060W        W85540  23.182   3.292  14.813
20061W        W85541  18.604  20.110  11.068
20062W        W85542  36.899  32.015   1.343
20063W        W85543   1.346  21.098   0.313
20064W        W85544   4.753  30.647   2.813
20065W        W85545  43.483  20.142  10.626
20066W        W85546  27.577  24.588   4.239
20067W        W85547   4.325  36.356  13.424
20068W        W85548   6.416  43.371   3.826
20069W        W85549   7.739  27.047  13.871
20070W        W85550   2.341  41.042   3.235
20071W        W85551  25.047  15.272  11.612
20072W        W85552   9.731   1.953   2.326
20073W        W85553  34.073  16.685  14.839
20074W        W85554   5.867  25.011  12.074
20075W        W85555   5.824  31.630  13.310
20076W        W85556   2.457  13.121   1.802
20077W        W85557  44.400   7.284  10.104
20078W        W85558  12.206   9.706   3.744
20079W        W85559   9.684  33.040  12.019
20080W        W85560   4.869   2.323  13.816
20081W        W85561  43.891   0.853  13.471
20082W        W85562   8.677  22.688  11.399
20083W        W85563  23.147   0.943   0.371
20084W        W85564  34.556  11.220   1.368
20085W        W85565  36.579  23.499  10.496
20086W        W85566  10.230  18.549  11.910
20087W        W85567  18.220  36.977  12.488
20088W        W85568  13.686  25.670   1.711
20089W        W85569  35.065   3.849   0.349
20090W        W85570  13.133   0.866   3.323
20091W        W85571  27.601  23.996  14.388
20092W        W85572  32.574   2.795   4.824
20093W        W85573  14.706   5.899  11.918
20094W        W85574   0.376  19.159   4.321
20095W        W85575  19.171  29.596  14.895
20096W        W85576  43.828  30.447   2.388
20097W        W85577  43.334  14.121  13.960
20098W        W85578  23.684  40.952  11.470
20099W        W85579   3.272  41.504  11.497
20100W        W85580   2.243   6.360   5.239
20101W        W85581  40.902  20.716  11.406
20102W        W85582   3.750   4.297   0.959
20103W        W85583  16.211   7.688   3.849
20104W        W85584   4.258  38.522   3.378
20105W        W85585  14.664  36.925  13.979
20106W        W85586  41.903  10.780   3.833
20107W        W85587  12.651  17.778  11.901
20108W        W85588  36.940  35.396   3.255
20109W        W85589  35.002  12.163   2.283
20110W        W85590   7.389  12.851  14.995
20111W        W85591  44.891  12.242  13.867
20112W        W85592  11.722  36.083  14.479
20113W        W85593   8.665  27.107   3.256
20114W        W85594  16.626  32.099   4.613
20115W        W85595  27.653  41.505   3.700
20116W        W85596  17.153  26.074  13.351
20117W        W85597  24.507  25.709   1.769
20118W        W85598  10.825  34.504   3.858
20119W        W85599   8.281  27.557   1.703
20120W        W85600  24.652  15.259  11.098
20121W        W85601  39.467  23.576  11.538
20122W        W85602  25.694   9.754   3.764
20123W        W85603  37.977  14.834   4.723
20124W        W85604  23.143   6.210   4.836
20125W        W85605   1.820  16.206   4.275
20126W        W85606  34.614  40.404   4.753
20127W        W85607  11.196   8.256   4.128
20128W        W85608  41.446  26.554   1.744
20129W        W85609  10.865  40.970   4.238
20130W        W85610  11.663  33.118  11.858
20131W        W85611  14.817  26.664   2.702
20132W        W85612  10.702  32.462  14.404
20133W        W85613  21.719  31.011   1.381
20134W        W85614   0.940  28.502   0.307
20135W        W85615  28.672  11.346  14.786
20136W        W85616  16.569  20.713  11.099
20137W        W85617   1.876  19.742   1.234
20138W        W85618   5.320   0.981   3.156
20139W        W85619  37.840   3.329   1.329
20140W        W85620  32.609   6.812  10.981
20141W        W85621  39.509  34.081   3.694
20142W        W85622   4.285   2.808  11.475
20143W        W85623   9.348   7.775  11.563
20144W        W85624   7.827  42.524   3.363
20145W        W85625  34.934  37.831   0.894
20146W        W85626  27.588  43.931   4.124
20147W        W85627  20.101   7.740   2.884
20148W        W85628  22.612   7.375  13.460
20149W        W85629  13.781   1.903   0.730
20150W        W85630  22.593  24.091   2.782
20151W        W85631  36.387  21.685   4.250
20152W        W85632  20.042  18.101   4.831
20153W        W85633  14.221  24.997   4.207
20154W        W85634  34.935   3.268  10.510
20155W        W85635   8.894  39.845   3.775
20156W        W85636   8.337  17.301  10.433
20157W        W85637  26.659  10.777   2.703
20158W        W85638  22.067  15.168   1.263
20159W        W85639  40.538  42.525   2.803
20160W        W85640  32.496  28.999  10.524
20161W        W85641  27.145   4.830  12.051
20162W        W85642  15.591  39.851   9.985
20163W        W85643  16.196  37.968  13.456
20164W        W85644  40.480  18.116  13.846
20165W        W85645  39.327   2.458  10.561
20166W        W85646  17.167  42.373   4.766
20167W        W85647  35.086  34.386   2.859
20168W        W85648  30.550   0.484   0.873
20169W        W85649  16.136  42.504   3.385
20170W        W85650  20.157  14.094   2.662
20171W        W85651  42.965   5.826   2.752
20172W        W85652   4.361  13.351  11.523
20173W        W85653   1.307  30.482  11.499
20174W        W85654  17.656  12.310  14.292
20175W        W85655  36.423  15.151   1.719
20176W        W85656  37.065   0.410  13.349
20177W        W85657  25.608   7.296  14.320
20178W        W85658  12.327  16.791   4.254
20179W        W85659  44.866  12.848   1.300
20180W        W85660  16.585  39.380  12.381
20181W        W85661  31.935   7.246  10.614
20182W        W85662  25.090  30.956  14.475
20183W        W85663   3.287  41.961  13.504
20184W        W85664  16.610   7.324  11.120
20185W        W85665   3.811  36.067   3.673
20186W        W85666  43.463   1.965  14.924
20187W        W85667  27.117  13.137  13.880
20188W        W85668   6.776  30.970  12.382
20189W        W85669  36.900  18.773   0.329
20190W        W85670  31.043  15.305  11.472
20191W        W85671  23.034  10.845   5.789
20192W        W85672  10.278  33.970  12.076
20193W        W85673  26.171  43.952  13.466
20194W        W85674  44.959   6.276  14.784
20195W        W85675  15.673  28.648  14.979
20196W        W85676  34.901  35.105  12.496
20197W        W85677   9.248  17.090  14.986
20198W        W85678   8.826  25.149   1.354
20199W        W85679  25.522  39.452  14.779
20200W        W85680  18.681  22.565  14.959
20201W        W85681  36.457  11.229  12.905
20202W        W85682  36.884  40.378  13.821
20203W        W85683   3.935  31.947  12.350
20204W        W85684  14.688  29.052   1.931
20205W        W85685  37.880   4.769   3.304
20206W        W85686  15.122  25.615   2.316
20207W        W85687  22.056  43.488   1.726
20208W        W85688  29.165  38.410   3.718
20209W        W85689  35.569  38.548   1.427
20210W        W85690  44.961  21.662   2.317
20211W        W85691  33.070  35.954  14.461
20212W        W85692  14.118  42.934  10.512
20213W        W85693  29.566  25.208  10.084
20214W        W85694  27.108  29.093   2.269
20215W        W85695  11.194  21.703  14.901
20216W        W85696  12.782  21.263  11.016
20217W        W85697  13.614  21.664  10.900
20218W        W85698  28.521  14.225   2.874
20219W        W85699  18.135  31.454  13.871
20220W        W85700  17.726  33.450  13.011
20221W        W85701  44.911  14.818  14.922
20222W        W85702  18.709   9.180  14.334
20223W        W85703   6.358   2.307   2.325
20224W        W85704  20.032  31.517  11.092
20225W        W85705  31.087  29.551  11.975
20226W        W85706   6.315  30.471  11.061
20227W        W85707  18.055  20.052  11.584
20228W        W85708  36.981  40.363   4.243
20229W        W85709  31.997   0.936  14.823
20230W        W85710   9.377  28.040   1.719
20231W        W85711  11.626  43.982  11.508
20232W        W85712  33.603  42.779   2.900
20233W        W85713  43.827  33.488  10.455
20234W        W85714  20.695  15.085  12.901
20235W        W85715   8.213   6.749  10.488
20236W        W85716  29.607   8.900  10.508
20237W        W85717  22.253   9.299   2.288
20238W        W85718   0.961  14.148  10.505
20239W        W85719  28.434  14.144  12.865
20240W        W85720  37.044   0.837   3.156
20241W        W85721   6.784  43.386  13.922
20242W        W85722   5.917  27.177   0.383
20243W        W85723  39.969  37.052   0.890
20244W        W85724   0.347   4.860  12.543
20245W        W85725   5.395  28.649  13.910
20246W        W85726  13.809  26.622   4.321
20247W        W85727  32.109   7.229   9.949
20248W        W85728  37.411  32.473  13.000
20249W        W85729  35.067  20.617  13.054
20250W        W85730  29.667   0.447  12.857
20251W        W85731  24.141  21.025   3.268
20252W        W85732  10.362  37.575   2.364
20253W        W85733  32.090  10.141   5.136
20254W        W85734  25.483   2.306  12.554
20255W        W85735  37.415  21.195   3.635
20256W        W85736  32.046   9.721  13.026
20257W        W85737  30.023  39.543   1.451
20258W        W85738  16.139  31.594  10.076
20259W        W85739  15.720  44.993  13.904
20260W        W85740  36.099  39.845   1.889
20261W        W85741  10.871  24.653  12.467
20262W        W85742  27.612  44.466   1.342
20263W        W85743   5.794  37.446   3.756
20264W        W85744   0.430  33.535  14.010
20265W        W85745  40.827   3.418   2.379
20266W        W85746  28.147  10.681   1.275
20267W        W85747  27.186  20.645   2.265
20268W        W85748  43.499  14.800   0.837
20269W        W85749  21.632  35.399   4.232
20270W        W85750  33.589  13.217  11.064
20271W        W85751   1.341   2.919   4.731
20272W        W85752  27.473   1.751  14.481
20273W        W85753  24.717  12.747  13.371
20274W        W85754  29.669   0.742   3.640
20275W        W85755   2.351  20.523   3.365
20276W        W85756   0.425  36.031  14.461
20277W        W85757  26.108  31.498   0.387
20278W        W85758  24.638  24.536  13.825
20279W        W85759  23.064  42.781   3.253
20280W        W85760  21.613  16.236   4.688
20281W        W85761  32.995   8.235   1.897
20282W        W85762  27.073  31.071   4.790
20283W        W85763  24.543  21.071  10.574
20284W        W85764  26.195  25.525   3.803
20285W        W85765   8.294   7.332   4.834
20286W        W85766   9.837  11.159  10.949
20287W        W85767  12.716  25.526   2.398
20288W        W85768   0.900  23.630  14.485
20289W        W85769  26.123   7.250   0.476
20290W        W85770   9.246  11.275  12.908
20291W        W85771  38.504   7.794  10.410
20292W        W85772  39.903   0.479   4.639
20293W        W85773  22.183  13.639   1.885
20294W        W85774  14.776  12.176  11.035
20295W        W85775  20.595  33.932   4.648
20296W        W85776  36.434  15.703   2.338
20297W        W85777  16.084  24.189   4.350
20298W        W85778   1.750  37.351   1.744
20299W        W85779  39.944  31.425  13.847
20300W        W85780  20.564  22.560  11.984
20301W        W85781   5.210   9.281  12.953
20302W        W85782  29.492  33.964  12.483
20303W        W85783  23.680  23.547   1.220
20304W        W85784  32.120  36.437   4.627
20305W        W85785  35.108   3.751  12.940
20306W        W85786   5.300  17.215   0.388
20307W        W85787  29.646  31.416   3.676
20308W        W85788  10.173  43.428   1.391
20309W        W85789  41.876  37.441  14.443
20310W        W85790  36.518  20.133   1.868
20311W        W85791  16.599  10.187   3.292
20312W        W85792   8.657  20.178  14.888
20313W        W85793  44.785  26.573   3.656
20314W        W85794  35.595  35.439   0.327
20315W        W85795  43.913  40.797  10.408
20316W        W85796  43.293  37.435   5.292
20317W        W85797  29.479  35.915   2.407
20318W        W85798  16.766   3.714  13.521
20319W        W85799  28.668  10.879  14.866
20320W        W85800   2.465  44.488  11.534
20321W        W85801  27.452  13.697   2.328
20322W        W85802  22.101  28.971   3.174
20323W        W85803  12.615  13.264  11.596
20324W        W85804  30.494  42.849   1.330
20325W        W85805  11.786  15.145  14.401
20326W        W85806  37.907   5.431   2.867
20327W        W85807  24.637   9.296  11.593
20328W        W85808   5.826  17.722   0.338
20329W        W85809   6.689  17.226   1.438
20330W        W85810  32.093  36.911   1.906
20331W        W85811  11.139   4.815   1.853
20332W        W85812  23.118   5.826   4.634
20333W        W85813  12.801  28.570  11.118
20334W        W85814  37.397  25.197  14.781
20335W        W85815  30.434  18.600   2.665
20336W        W85816  37.014  19.074   2.777
20337W        W85817  14.135  31.918  10.073
20338W        W85818  39.039  18.581  10.928
20339W        W85819   7.213  35.488  11.038
20340W        W85820  26.138   2.746  10.537
20341W        W85821   3.319  10.294  13.933
20342W        W85822  38.991  10.210  10.558
20343W        W85823  26.951  33.509   9.966
20344W        W85824  34.929  39.410  12.943
20345W        W85825  44.934  26.126  10.411
20346W        W85826   9.887  18.634   2.899
20347W        W85827  21.086   4.748  14.965
20348W        W85828  21.063  37.499  14.300
20349W        W85829  17.206  35.882  12.549
20350W        W85830  19.731  24.550   2.698
20351W        W85831   4.404  41.388   4.174
20352W        W85832   4.907  21.543  14.984
20353W        W85833   6.317  44.842  14.424
20354W        W85834  33.528  23.063  10.923
20355W        W85835  22.232  22.142   4.267
20356W        W85836  13.151  41.817  14.839
20357W        W85837  44.456   0.463  13.983
20358W        W85838  23.603  41.833   4.146
20359W        W85839  36.910  32.467  14.955
20360W        W85840   3.877  43.849  14.799
20361W        W85841  39.039  14.181  12.853
20362W        W85842  27.515  41.841   0.834
20363W        W85843  32.503  44.837  11.887
20364W        W85844   3.382  21.598   4.796
20365W        W85845  28.475  21.636   0.344
20366W        W85846  23.644  34.037  11.965
20367W        W85847  16.645  23.583  12.942
20368W        W85848   1.918  12.616  13.843
20369W        W85849  42.391  36.965  10.896
20370W        W85850  26.495  22.142  11.099
20371W        W85851   6.757  27.496   3.632
20372W        W85852  38.503  28.058  13.812
20373W        W85853   1.795   3.762   2.878
20374W        W85854  12.316  25.126  11.372
20375W        W85855  16.250  17.701  10.985
20376W        W85856  42.886  17.664   2.358
20377W        W85857  14.272  43.270   3.837
20378W        W85858  11.840  14.747   1.220
20379W        W85859   1.827  37.904  12.897
20380W        W85860  11.368  16.751   1.779
20381W        W85861   1.892  27.001  13.350
20382W        W85862  28.963  29.599  14.489
20383W        W85863   4.939  11.744   2.283
20384W        W85864  24.127  23.731   4.115
20385W        W85865  33.112  19.210   4.334
20386W        W85866  34.378  11.219   3.276
20387W        W85867  34.939  25.584  10.584
20388W        W85868   4.847   7.768  13.861
20389W        W85869  27.048  26.002  12.015
20390W        W85870  18.567  37.911  10.640
20391W        W85871  10.722  33.408  10.639
20392W        W85872  42.500  21.543   2.379
20393W        W85873  11.205  27.950  14.312
20394W        W85874   3.251  14.756  14.393
20395W        W85875  31.054   3.368  10.449
20396W        W85876  33.105  22.154   1.211
20397W        W85877  41.309  21.103  12.380
20398W        W85878  28.457  29.057  12.039
20399W        W85879  15.259  15.166   4.210
20400W        W85880  40.971  18.110  13.499
20401W        W85881  34.547   9.842  11.054
20402W        W85882  14.206  20.149   2.340
20403W        W85883  21.741   1.383  13.470
20404W        W85884  30.981  34.115  11.516
20405W        W85885  26.592  30.995  13.376
20406W        W85886  22.092  25.480   0.372
20407W        W85887  35.468  30.467  12.942
20408W        W85888  36.946  21.675   0.448
20409W        W85889  23.069  38.894   2.801
20410W        W85890  17.746  38.916  12.491
20411W        W85891   1.927   1.881   2.345
20412W        W85892  41.996  30.135   3.377
20413W        W85893  20.609   9.156   5.237
20414W        W85894  42.331   5.851  13.807
20415W        W85895  40.830  20.585   4.209
20416W        W85896   6.201  18.074   0.257
20417W        W85897   8.161  12.702  12.483
20418W        W85898  34.013  20.612   1.347
20419W        W85899  30.534  28.958   4.802
20420W        W85900  27.472  20.610   1.701
20421W        W85901  22.249  17.226   3.803
20422W        W85902  31.412  44.466  14.285
20423W        W85903  36.985  36.937  12.545
20424W        W85904  28.545  38.443  12.460
20425W        W85905  24.610  29.660  10.582
20426W        W85906  18.697  24.000   0.387
20427W        W85907   9.746  41.304   3.779
20428W        W85908  11.781  10.323  11.580
20429W        W85909   1.279  38.500   4.783
20430W        W85910  34.017  19.568   2.766
20431W        W85911  35.469  18.658  13.465
20432W        W85912  12.758  30.433   3.266
20433W        W85913   9.294  35.871  10.603
20434W        W85914   8.239  29.574  10.456
20435W        W85915  30.087  33.913  11.521
20436W        W85916   6.252  13.123  11.607
20437W        W85917   0.473   4.941   2.192
20438W        W85918   6.395  30.450   5.305
20439W        W85919  28.513  29.508  12.971
20440W        W85920  27.510   0.383  13.957
20441W        W85921  43.442  15.697   1.849
20442W        W85922  33.461  14.742  10.977
20443W        W85923  40.376  28.508  10.943
20444W        W85924  43.941  14.779   1.918
20445W        W85925  13.726   7.207  13.026
20446W        W85926   3.424  34.977   0.483
20447W        W85927  38.458  10.338   3.683
20448W        W85928  23.627  39.897   4.261
20449W        W85929  35.381  37.540  11.601
20450W        W85930  36.460  31.108   3.766
20451W        W85931  44.405  27.057   2.350
20452W        W85932  33.922   7.263  13.343
20453W        W85933   9.774  44.293  12.874
20454W        W85934  35.449  34.388   2.865
20455W        W85935  42.009  35.413  11.426
20456W        W85936   2.824  34.065  14.929
20457W        W85937  30.575  36.457   3.224
20458W        W85938  17.165  32.423   1.924
20459W        W85939  16.259  27.609   2.881
20460W        W85940  36.028   0.346  13.941
20461W        W85941  16.662  29.432  14.419
20462W        W85942  24.149   0.779  11.380
20463W        W85943  20.066  14.141  11.045
20464W        W85944   1.359   1.900   2.686
20465W        W85945  19.553  15.160   1.798
20466W        W85946   7.787   6.209   4.711
20467W        W85947   4.788  22.102  11.431
20468W        W85948  41.408   9.176   4.772
20469W        W85949  10.139  37.036  12.827
20470W        W85950  17.711  36.408  13.867
20471W        W85951  40.850  25.117  11.550
20472W        W85952  44.847  10.193  10.470
20473W        W85953  40.383  17.088  14.867
20474W        W85954   4.935  29.582   0.318
20475W        W85955  41.908  18.202   0.272
20476W        W85956   6.723  29.641  12.423
20477W        W85957  18.195  44.811   3.804
20478W        W85958  23.226   1.384   1.220
20479W        W85959  24.629   6.776  10.919
20480W        W85960   1.269  28.018   4.629
20481W        W85961  24.601  39.558   1.791
20482W        W85962  33.003  22.041  12.572
20483W        W85963  33.052  23.236   0.761
20484W        W85964  41.385  17.235  12.411
20485W        W85965   4.746   8.242  10.586
20486W        W85966  34.992  17.107  13.855
20487W        W85967  44.902  14.137   2.367
20488W        W85968  11.708   7.196   2.862
20489W        W85969   1.918  32.123   4.828
20490W        W85970  30.995  34.466  12.352
20491W        W85971  23.098  38.015   4.185
20492W        W85972  13.838  26.004  14.872
20493W        W85973  13.307  26.568  14.471
20494W        W85974  28.049  35.430   4.331
20495W        W85975  37.458  12.777   0.379
20496W        W85976  21.594   1.737  13.397
20497W        W85977   2.918   6.696   0.862
20498W        W85978   5.788  31.149   0.401
20499W        W85979  25.124  37.085  14.790
20500W        W85980   3.932  10.820   0.765
20501W        W85981  32.996   7.849   0.751
20502W        W85982  14.776   4.745   3.285
20503W        W85983   4.413  27.677   0.781
20504W        W85984  32.606  27.692  11.941
20505W        W85985  37.077  17.297  13.972
20506W        W85986  14.325   8.749  11.030
20507W        W85987   4.356  27.067  12.362
20508W        W85988  30.122  21.526  12.037
20509W        W85989  33.070  14.224   4.313
20510W        W85990  21.512  21.139  14.431
20511W        W85991  41.534  35.091  14.913
20512W        W85992   1.766   0.272   4.292
20513W        W85993  25.714  19.548   3.212
20514W        W85994   0.283   8.357   1.405
20515W        W85995  29.007  35.397  13.969
20516W        W85996  28.654  28.573   4.274
20517W        W85997  15.215  40.008   0.778
20518W        W85998   6.241   6.416   0.749
20519W        W85999  43.367  43.284  14.436
20520W        W86000  24.125  17.571  12.483
20521W        W86001  23.706   4.825  10.582
20522W        W86002   3.723  28.585   4.674
20523W        W86003  11.137  37.894   4.255
20524W        W86004   6.732   5.781  14.386
20525W        W86005  30.938  13.296   1.867
20526W        W86006  15.595  43.964  12.412
20527W        W86007   9.857  31.088   1.872
20528W        W86008   9.832  23.560   4.756
20529W        W86009  42.475  32.532   3.649
20530W        W86010  38.895   0.415  14.897
20531W        W86011  22.615   4.730  11.909
20532W        W86012  11.781   7.172   0.920
20533W        W86013  42.483  12.230   2.725
20534W        W86014  38.829  22.165   4.302
20535W        W86015   3.278   6.305  14.463
20536W        W86016   7.892  31.424  14.772
20537W        W86017  12.754  25.002  12.505
20538W        W86018  27.500  19.180   3.744
20539W        W86019  37.394  40.887   4.752
20540W        W86020  10.745  44.991  12.400
20541W        W86021  16.288  39.471  10.488
20542W        W86022  20.267  25.684   3.651
20543W        W86023  13.200   8.207   4.272
20544W        W86024   2.462  36.848   0.738
20545W        W86025  16.296  44.343  10.642
20546W        W86026  35.595  18.727   4.178
20547W        W86027  26.039  24.047  11.600
20548W        W86028  12.294  30.651  14.456
20549W        W86029  41.809   1.298  14.392
20550W        W86030   2.723  43.963   0.242
20551W        W86031  25.699  15.159  13.524
20552W        W86032   6.910  39.971  14.453
20553W        W86033  10.327  33.482   4.710
20554W        W86034   8.691  44.824  12.824
20555W        W86035   3.828  40.802   0.426
20556W        W86036   5.318   2.413   1.358
20557W        W86037  27.595   0.819   1.884
20558W        W86038   3.250  11.776   2.392
20559W        W86039  25.513  26.957   1.709
20560W        W86040  36.455  41.862   4.642
20561W        W86041  21.591  12.144   1.847
20562W        W86042  28.576  19.664  10.952
20563W        W86043   9.308  12.319   4.294
20564W        W86044   5.393  35.875   1.358
20565W        W86045  12.169   5.240  13.856
20566W        W86046  11.368  42.430   1.240
20567W        W86047  10.742  14.797  11.856
20568W        W86048  17.589   4.855  12.872
20569W        W86049   6.213  19.545   2.775
20570W        W86050  30.416  25.971  10.480
20571W        W86051   4.222  30.641   2.305
20572W        W86052  32.004  29.146  11.444
20573W        W86053  15.735   4.809  12.498
20574W        W86054  37.491  12.687   2.390
20575W        W86055   5.725  40.314  11.051
20576W        W86056   7.766   0.326  13.801
20577W        W86057  13.838  43.010  14.856
20578W        W86058  19.114  15.627  11.123
20579W        W86059  14.122   3.883  11.015
20580W        W86060   9.656  11.683   2.366
20581W        W86061  19.566  35.397   2.370
20582W        W86062  26.661  41.923   1.243
20583W        W86063  24.221  35.377  14.016
20584W        W86064  27.454  14.224  10.516
20585W        W86065  43.282  23.617  14.022
20586W        W86066   0.837  36.593  12.579
20587W        W86067  37.938  33.983  14.860
20588W        W86068  34.901  29.628  14.904
20589W        W86069  16.605  43.935  11.918
20590W        W86070  35.003  10.662  10.586
20591W        W86071   3.297  11.748  14.793
20592W        W86072  24.584  18.174   2.228
20593W        W86073  16.713  15.131  11.950
20594W        W86074   5.199  29.062  14.909
20595W        W86075  16.146  23.033   1.814
20596W        W86076   6.415   7.228   0.355
20597W        W86077  40.413   9.833   2.218
20598W        W86078  41.989  14.654  11.933
20599W        W86079   3.384  42.012   5.200
20600W        W86080  35.919  17.714  11.476
20601W        W86081  14.747   5.756   0.242
20602W        W86082   9.682  31.964   3.870
20603W        W86083  11.679   8.735   2.256
20604W        W86084   5.363  17.681  14.864
20605W        W86085  11.624  18.554   0.872
20606W        W86086  38.374  42.938   0.440
20607W        W86087   6.896  44.384  14.827
20608W        W86088  39.461   8.719  11.865
20609W        W86089  25.703  15.815   1.853
20610W        W86090  35.572  14.251  12.518
20611W        W86091  17.785  34.994  13.904
20612W        W86092  38.012  44.501  14.336
20613W        W86093  42.448  20.176   1.716
20614W        W86094  30.026   6.374  13.429
20615W        W86095  17.191  39.837   0.333
20616W        W86096  34.438  24.551  11.437
20617W        W86097  33.942  16.185   2.373
20618W        W86098  37.408  44.833   1.834
20619W        W86099  37.541  14.621  14.932
20620W        W86100   8.846  19.246   1.883
20621W        W86101  43.381  13.127   3.793
20622W        W86102  29.052  18.710   0.427
20623W        W86103   5.365  23.240  10.479
20624W        W86104  38.879  30.629   2.280
20625W        W86105  20.633  16.159  10.904
20626W        W86106  33.053  38.885  13.908
20627W        W86107  40.893  26.514   1.907
20628W        W86108  10.245   3.917  11.456
20629W        W86109  38.012  34.071  10.927
20630W        W86110  27.643  31.962   1.356
20631W        W86111  14.260  44.375  12.913
20632W        W86112  30.123  13.250   0.310
20633W        W86113   1.285   8.263   2.709
20634W        W86114  12.240  37.081   1.389
20635W        W86115   4.890   5.757   2.248
20636W        W86116  17.088  14.234   0.751
20637W        W86117   2.466   9.282  10.457
20638W        W86118  34.945   2.954  14.448
20639W        W86119   0.375  27.490  14.358
20640W        W86120  40.430  25.091  10.610
20641W        W86121  14.312  25.691  14.478
20642W        W86122  39.956  24.208  10.420
20643W        W86123  38.915  43.983   0.251
20644W        W86124  18.719  24.647  14.895
20645W        W86125  29.166  26.637   3.739
20646W        W86126  11.213   9.842  13.382
20647W        W86127  14.099  38.515  14.940
20648W        W86128  34.512   8.273  11.514
20649W        W86129  38.495   2.359  13.472
20650W        W86130   7.221  19.652  13.012
20651W        W86131  42.469  37.546  10.917
20652W        W86132  20.222  22.129   0.905
20653W        W86133   6.681   4.233   2.724
20654W        W86134  38.571  42.397  12.025
20655W        W86135  30.604  40.369   2.233
20656W        W86136   0.272  24.100  12.048
20657W        W86137   6.906   5.709   3.749
20658W        W86138  10.646  14.237   4.315
20659W        W86139  35.886  36.008  13.064
20660W        W86140  30.490  13.603   3.834
20661W        W86141  28.995  23.025  14.451
20662W        W86142   1.856   6.734   4.799
20663W        W86143  37.046   1.286   1.720
20664W        W86144  26.466  15.672   5.175
20665W        W86145  28.102  15.330   1.253
20666W        W86146  12.734  42.956   2.782
20667W        W86147   6.217  13.164   2.756
20668W        W86148  13.614  27.101  10.612
20669W        W86149   3.299  38.997   2.770
20670W        W86150  28.131  23.193   3.215
20671W        W86151  14.241  27.072   2.833
20672W        W86152   5.429  12.312  10.539
20673W        W86153   6.267  38.906   2.344
20674W        W86154  37.549  33.455  10.426
20675W        W86155  37.357  39.008   5.284
20676W        W86156  22.194  10.155   1.247
20677W        W86157  43.016   0.362  11.473
20678W        W86158  19.182  17.725   0.767
20679W        W86159  19.151  36.973   0.920
20680W        W86160  16.574  20.666  11.602
20681W        W86161   6.806  24.692   0.393
20682W        W86162  36.385  18.210   0.817
20683W        W86163  19.658   7.285   0.951
20684W        W86164  42.393   7.409  12.842
20685W        W86165  24.649   3.824  11.056
20686W        W86166  26.688   8.215   1.846
20687W        W86167   5.260  44.958   3.768
20688W        W86168   7.356  40.931  10.560
20689W        W86169  28.085   4.844   0.263
20690W        W86170   3.791  13.266   4.760
20691W        W86171   3.287  26.141  12.359
20692W        W86172   1.413   5.830   1.316
20693W        W86173   8.182  38.326   0.837
20694W        W86174   9.682  19.752  14.455
20695W        W86175  14.287  40.416  11.001
20696W        W86176  11.308  19.698   4.270
20697W        W86177  32.595  30.623  12.409
20698W        W86178  34.894  34.054   0.363
20699W        W86179  13.241   2.229  14.815
20700W        W86180  36.991  43.427  12.945
20701W        W86181   9.645   6.219  10.893
20702W        W86182  25.103   7.685  13.468
20703W        W86183  32.528   6.375   2.871
20704W        W86184  16.098  14.146  10.468
20705W        W86185  40.425  38.875  11.492
20706W        W86186  29.926  26.984   1.451
20707W        W86187  21.177   3.280   2.773
20708W        W86188  10.796  27.550  11.575
20709W        W86189  26.976  15.646  14.906
20710W        W86190  20.755  36.520  10.614
20711W        W86191   2.830   1.368   4.265
20712W        W86192   3.834  12.190   0.869
20713W        W86193  10.336  11.236  10.613
20714W        W86194   2.251  36.014   1.355
20715W        W86195  12.147   0.747  13.944
20716W        W86196   0.432  31.945   0.258
20717W        W86197  39.814  18.280  11.917
20718W        W86198  27.641  16.298  12.391
20719W        W86199  16.576   8.827   3.385
20720W        W86200  22.502  43.442  14.936
20721W        W86201  37.575  10.876  13.920
20722W        W86202  23.582   5.854   2.223
20723W        W86203  23.528   5.712  10.592
20724W        W86204  11.184  35.955  14.461
20725W        W86205  19.582   6.752   1.286
20726W        W86206  29.573  38.840   0.354
20727W        W86207  11.316  14.691   2.713
20728W        W86208  36.897  37.969   0.801
20729W        W86209  26.980  43.298   4.246
20730W        W86210  30.612  24.670  11.450
20731W        W86211   8.872  27.117   3.805
20732W        W86212   0.814  38.942  14.449
20733W        W86213  40.503   8.722  14.012
20734W        W86214  32.634  27.972   1.307
20735W        W86215  22.542  33.131  14.489
20736W        W86216  18.591  39.963   2.873
20737W        W86217  31.494  26.693   0.480
20738W        W86218  26.547   8.842  10.422
20739W        W86219   2.231  14.127   4.838
20740W        W86220   7.258  33.386  14.892
20741W        W86221  36.898  36.058   0.287
20742W        W86222  35.496   1.866   4.757
20743W        W86223  14.642  22.689  12.576
20744W        W86224  37.522   4.376   2.890
20745W        W86225   3.910  22.639   0.813
20746W        W86226  21.750  11.854  14.875
20747W        W86227  13.187  35.569  12.933
20748W        W86228  18.237   3.935  13.894
20749W        W86229  25.155  16.785  13.347
20750W        W86230   5.724   8.856  12.906
20751W        W86231   0.801  32.483  10.405
20752W        W86232  24.213  26.136   3.730
20753W        W86233  21.063   9.381   3.195
20754W        W86234  31.038  43.338   2.195
20755W        W86235  32.014  38.004   0.381
20756W        W86236  10.197  16.081  10.420
20757W        W86237  10.224  28.574   1.802
20758W        W86238  34.003   6.688   2.222
20759W        W86239   0.972   2.787   4.140
20760W        W86240  16.670  37.339  11.887
20761W        W86241  18.165   5.841   0.471
20762W        W86242  16.738  14.808   3.809
20763W        W86243  18.055  35.570   0.254
20764W        W86244  34.386  19.676   2.295
20765W        W86245  10.159  28.605   1.283
20766W        W86246   6.865  30.039   4.212
20767W        W86247   0.271  10.831   0.813
20768W        W86248  26.135  37.517   4.178
20769W        W86249  11.212  15.629  12.528
20770W        W86250  20.266  23.512  12.489
20771W        W86251  21.741  14.302  14.899
20772W        W86252  15.315   1.343  12.855
20773W        W86253  18.612  39.419   2.859
20774W        W86254  20.119  17.713   3.343
20775W        W86255   6.819  44.271  12.845
20776W        W86256  12.772  19.169  13.876
20777W        W86257   5.202  31.981  12.924
20778W        W86258   2.290  36.036   3.806
20779W        W86259  38.416  18.730  13.983
20780W        W86260  32.917  37.434  10.628
20781W        W86261  41.963  42.387   1.852
20782W        W86262  38.476  25.061  13.804
20783W        W86263  34.568  30.531   2.261
20784W        W86264  20.224  15.095  14.805
20785W        W86265  18.102  21.697  14.789
20786W        W86266  38.438  17.120  14.897
20787W        W86267  42.896   7.188  14.371
20788W        W86268  35.473  36.885  10.459
20789W        W86269  16.088  16.760  13.975
20790W        W86270  39.840  10.677   1.223
20791W        W86271   9.246   0.876  10.555
20792W        W86272  14.612  44.779   0.301
20793W        W86273  13.256  16.782  13.328
20794W        W86274  39.992  43.019  10.063
20795W        W86275   8.274  12.710   0.799
20796W        W86276  19.272  15.647   1.901
20797W        W86277  28.507   5.878   2.210
20798W        W86278  15.278   9.883  12.068
20799W        W86279   8.366   0.950   1.735
20800W        W86280  39.427  13.326   2.666
20801W        W86281  27.134   6.886   2.724
20802W        W86282   9.723   2.859  10.987
20803W        W86283  43.446  13.724   1.900
20804W        W86284   8.733  40.818  13.801
20805W        W86285  42.793  34.572  13.373
20806W        W86286  11.308  20.130   2.208
20807W        W86287  38.500  11.703   0.393
20808W        W86288  26.584  27.061   3.752
20809W        W86289   2.462  18.287  10.445
20810W        W86290  15.089   4.417   0.399
20811W        W86291   8.325  29.985  11.496
20812W        W86292  19.282  36.843  11.022
20813W        W86293  17.212  16.658  13.022
20814W        W86294   0.943  31.094  13.946
20815W        W86295  29.924   9.823  14.780
20816W        W86296  38.373  25.981  10.971
20817W        W86297   1.910   8.761  12.021
20818W        W86298  30.040  28.592  13.919
20819W        W86299  21.548  37.011   1.756
20820W        W86300  37.983   9.843  11.876
20821W        W86301   6.703  43.890  10.938
20822W        W86302  26.584  36.472  13.390
20823W        W86303  21.087   8.386  12.441
20824W        W86304  11.177  10.633   2.342
20825W        W86305  39.470  33.621   0.860
20826W        W86306  14.304  10.233  13.916
20827W        W86307  39.869   8.859   3.195
20828W        W86308  22.167  19.263  11.974
20829W        W86309  23.102   0.861   2.310
20830W        W86310  15.272  34.966  12.910
20831W        W86311  12.149   8.182   2.401
20832W        W86312  12.232  10.837  14.857
20833W        W86313   6.910  20.757  13.410
20834W        W86314   3.765  37.903   3.809
20835W        W86315  40.917  35.095  14.811
20836W        W86316  30.567   5.834  14.405
20837W        W86317  17.698  44.476   2.801
20838W        W86318  32.110  31.559   3.771
20839W        W86319  18.774  17.282   3.745
20840W        W86320   9.308   0.386   0.768
20841W        W86321   6.688   3.322   2.820
20842W        W86322  11.811  38.545  11.030
20843W        W86323   4.894  33.385   2.376
20844W        W86324  19.242  11.365   0.960
20845W        W86325  33.500  36.545   3.803
20846W        W86326  23.034  10.166   2.692
20847W        W86327  31.956  34.989   3.227
20848W        W86328  13.671  24.132   0.810
20849W        W86329  27.180  37.066  11.588
20850W        W86330   8.668  10.190   4.342
20851W        W86331   6.221  18.774  14.902
20852W        W86332  40.398  12.142  11.927
20853W        W86333  20.723  28.044   2.273
20854W        W86334   5.917  11.740   0.325
20855W        W86335  37.548  39.553  11.877
20856W        W86336  35.997  10.766  14.922
20857W        W86337  26.666  13.318  12.870
20858W        W86338  13.834  34.083  13.364
20859W        W86339  24.997   1.457   2.386
20860W        W86340  34.960  28.653  12.539
20861W        W86341  40.996  17.086   3.757
20862W        W86342  25.078  27.484  13.051
20863W        W86343  10.716  34.520   1.928
20864W        W86344  15.156   5.767   2.315
20865W        W86345  38.490  12.621   2.349
20866W        W86346  39.380  35.942   2.202
20867W        W86347  36.444  21.514   1.906
20868W        W86348  20.523  31.977   2.814
20869W        W86349  36.440  15.104  10.643
20870W        W86350  41.035   3.791   5.232
20871W        W86351   0.959  35.409  13.445
20872W        W86352  27.180  40.910   1.437
20873W        W86353   4.299  16.159  14.338
20874W        W86354  26.098  16.257  10.912
20875W        W86355  35.434   8.724   1.776
20876W        W86356  25.074  38.525  13.398
20877W        W86357  32.595  43.281   2.779
20878W        W86358  21.688  35.004   1.843
20879W        W86359  36.089  39.892  10.975
20880W        W86360  11.780  19.238   0.351
20881W        W86361   5.874  19.599  14.305
20882W        W86362  28.159   9.282  10.943
20883W        W86363   8.391  33.485  12.995
20884W        W86364  35.872  16.159   1.376
20885W        W86365  13.763  18.132  11.965
20886W        W86366  28.445  15.112  13.969
20887W        W86367  29.589  27.638   4.696
20888W        W86368   4.370  30.135   4.313
20889W        W86369   1.953  21.567  13.520
20890W        W86370  25.531  42.797   5.089
20891W        W86371  16.642  16.136  14.451
20892W        W86372  25.679  34.046  13.497
20893W        W86373  42.409  40.417  11.439
20894W        W86374  11.725  25.088  12.543
20895W        W86375  21.634  27.197  14.846
20896W        W86376   8.819  15.692   4.289
20897W        W86377  22.696   0.843  13.982
20898W        W86378  25.138  34.077  14.797
20899W        W86379  35.057  27.972  11.450
20900W        W86380   4.345  30.021   2.209
20901W        W86381  34.109   1.733  14.789
20902W        W86382  34.074  44.393   4.628
20903W        W86383   2.280  44.954  14.959
20904W        W86384   8.322  32.952   0.930
20905W        W86385  11.350   5.329   0.331
20906W        W86386  30.102  29.024  10.914
20907W        W86387  26.009   8.233   4.326
20908W        W86388  36.472  18.123  13.502
20909W        W86389   2.821  40.900  11.878
20910W        W86390  44.409  29.929  14.331
20911W        W86391  35.080  10.255   3.333
20912W        W86392  19.210  14.253   0.319
20913W        W86393   3.855   2.310   4.838
20914W        W86394  20.581  27.668  11.985
20915W        W86395   0.328  26.678  14.817
20916W        W86396  37.859   7.218  12.921
20917W        W86397  30.019  41.361   1.215
20918W        W86398  42.802   7.837  13.353
20919W        W86399  24.175   8.689  14.500
20920W        W86400  21.051  30.092  14.378
20921W        W86401  41.966  23.180  13.394
20922W        W86402  22.199  17.272  12.511
20923W        W86403  27.558   4.345   4.827
20924W        W86404   8.784  27.484  11.416
20925W        W86405  29.620  19.652   5.089
20926W        W86406  20.610  26.514   2.817
20927W        W86407  20.684  42.872  11.481
20928W        W86408  33.994   9.313   4.189
20929W        W86409  36.476  40.928   2.749
20930W        W86410  43.479  31.629  12.834
20931W        W86411  36.856  18.653  14.927
20932W        W86412   3.936  10.644   2.400
20933W        W86413   5.304  42.396  14.898
20934W        W86414  18.730   0.334  12.947
20935W        W86415  15.239  27.454   1.879
20936W        W86416  19.601  15.127  12.029
20937W        W86417  24.163  23.196  10.972
20938W        W86418  40.902  21.195  11.484
20939W        W86419  22.713  40.051   4.834
20940W        W86420  37.485   5.336   3.228
20941W        W86421  17.250  10.368  11.080
20942W        W86422  15.797   3.922   2.822
20943W        W86423  30.093  17.601  13.544
20944W        W86424  18.124  15.114   1.779
20945W        W86425  10.371  13.685  13.975
20946W        W86426  42.320   2.818  13.042
20947W        W86427  31.011   7.383   0.772
20948W        W86428  41.967   8.682  12.343
20949W        W86429  15.088  24.610   4.226
20950W        W86430  29.562  43.346   1.734
20951W        W86431  40.509  40.041   3.836
20952W        W86432  12.729   1.891  12.441
20953W        W86433  43.928   9.646   2.354
20954W        W86434  12.828  43.272   2.350
20955W        W86435   3.421  19.085   0.450
20956W        W86436  14.798  11.806   1.894
20957W        W86437  26.997  31.095  13.315
20958W        W86438   9.196  28.644  13.430
20959W        W86439  10.325  24.695   3.637
20960W        W86440  12.358   8.274   4.238
20961W        W86441  19.081  28.469  12.838
20962W        W86442   9.342  10.290  12.832
20963W        W86443   8.369  12.836  12.071
20964W        W86444  16.198   1.816  10.920
20965W        W86445  12.190  41.466   0.947
20966W        W86446  36.063  39.556  12.470
20967W        W86447  11.823   5.295  12.568
20968W        W86448  26.997  20.649   3.275
20969W        W86449  13.719  25.975   3.857
20970W        W86450   0.276  34.433   3.646
20971W        W86451  32.632  23.633   2.359
20972W        W86452   0.488  27.032  13.799
20973W        W86453  20.105  19.207  14.346
20974W        W86454  26.570  40.404  11.438
20975W        W86455  13.248   6.767   0.845
20976W        W86456  17.152  38.331   0.341
20977W        W86457  40.808   5.281   0.849
20978W        W86458  28.065  42.455   3.370
20979W        W86459   7.830  27.973  10.599
20980W        W86460  30.068   0.377   1.745
20981W        W86461  30.420  14.663   3.319
20982W        W86462  42.031  10.720  10.967
20983W        W86463  42.524  34.973  13.939
20984W        W86464   7.221  11.840  14.916
20985W        W86465  37.361  17.181   4.686
20986W        W86466  38.842  30.443   5.191
20987W        W86467   0.936  17.714   0.406
20988W        W86468   4.433  30.090   3.183
20989W        W86469  38.927  27.686   0.770
20990W        W86470  42.503  22.031   2.742
20991W        W86471  27.530  30.097  11.115
20992W        W86472  32.078  32.988   1.888
20993W        W86473   6.262   0.860   3.202
20994W        W86474  44.917  39.937   1.294
20995W        W86475  16.675  38.410   1.422
20996W        W86476  44.495   7.781  12.455
20997W        W86477  19.102   5.236  13.545
20998W        W86478  11.223  29.125   3.680
20999W        W86479  32.966  28.005  12.386
21000W        W86480  26.089  18.627  11.573
21001W        W86481  10.763  35.867   0.873
21002W        W86482  42.427  37.376  14.416
21003W        W86483  34.912  33.951   3.686
21004W        W86484   9.231  36.526   4.168
21005W        W86485  10.851  38.474   4.831
21006W        W86486  31.593  15.577   0.434
21007W        W86487   7.413  17.192  11.897
21008W        W86488  24.199  34.002   4.124
21009W        W86489  40.908  41.435   4.194
21010W        W86490  13.639  25.539  11.424
21011W        W86491  20.153  21.673   3.323
21012W        W86492  22.693  28.534   0.414
21013W        W86493  13.613  39.930   3.811
21014W        W86494  35.907   8.377  12.437
21015W        W86495   2.805  28.575  13.920
21016W        W86496  35.590  16.740  14.956
21017W        W86497  28.148  38.997   2.193
21018W        W86498  22.106  17.748   1.756
21019W        W86499  15.613   7.902  11.544
21020W        W86500   9.651  37.988  11.382
21021W        W86501  24.687  13.252   3.692
21022W        W86502  39.332   4.249  14.016
21023W        W86503  42.953  13.689   0.885
21024W        W86504  32.463  44.300  13.933
21025W        W86505  27.056  21.598   2.291
21026W        W86506  35.568  29.991   0.761
21027W        W86507  23.000  20.586   4.270
21028W        W86508  32.037  23.607  12.869
21029W        W86509   4.747   3.864  12.449
21030W        W86510  25.618  18.246   4.788
21031W        W86511  22.096   3.850  13.006
21032W        W86512  18.564  41.793  14.343
21033W        W86513  29.547  37.850  12.002
21034W        W86514  15.106  38.380  11.118
21035W        W86515  33.992  20.532  13.465
21036W        W86516  13.284  31.130   1.891
21037W        W86517  13.194   2.311   1.767
21038W        W86518   2.749  19.238  10.433
21039W        W86519   7.796  23.674  12.457
21040W        W86520  19.673   8.668   2.680
21041W        W86521   0.782  39.065  10.643
21042W        W86522  42.783  37.076  14.007
21043W        W86523   0.426  24.648   4.237
21044W        W86524  32.412  28.929  13.379
21045W        W86525  24.680   9.696   0.804
21046W        W86526  36.470  24.579  14.845
21047W        W86527  17.166  23.123  14.330
21048W        W86528   5.727  34.960  14.955
21049W        W86529  10.334  41.472  10.000
21050W        W86530  15.685  36.529   3.721
21051W        W86531   4.895  27.991   0.474
21052W        W86532  26.622  31.494   0.907
21053W        W86533  16.246   8.235   3.703
21054W        W86534  34.080  44.319   3.780
21055W        W86535  23.593   1.369  14.928
21056W        W86536  19.552  12.648  14.515
21057W        W86537   2.825   0.816  12.083
21058W        W86538  35.564  27.149  14.993
21059W        W86539   8.695   2.779  10.424
21060W        W86540  13.747  34.026   1.803
21061W        W86541  24.675  13.331   4.771
21062W        W86542   1.395  14.210  14.830
21063W        W86543  43.351  43.840  14.937
21064W        W86544  41.422  35.521  12.375
21065W        W86545  41.430  24.047   2.741
21066W        W86546  21.018  11.129  14.850
21067W        W86547   6.861  22.721   0.477
21068W        W86548  44.893  36.490   1.883
21069W        W86549  12.168  34.538  13.951
21070W        W86550  41.815  37.023  11.487
21071W        W86551  30.590  42.519  12.508
21072W        W86552  40.046  36.352   2.396
21073W        W86553  38.344   0.802  13.890
21074W        W86554   0.756  44.854  11.988
21075W        W86555  36.018  38.498  13.812
21076W        W86556  21.033  39.347  10.626
21077W        W86557  33.973  35.982   2.809
21078W        W86558  36.485  17.793   2.322
21079W        W86559  11.865   9.329   0.272
21080W        W86560  22.023   4.862  14.790
21081W        W86561   7.314  14.294  10.519
21082W        W86562  26.957  41.475   1.756
21083W        W86563  37.538   1.811  14.438
21084W        W86564  29.527   2.365   3.868
21085W        W86565  26.006   2.918  13.898
21086W        W86566  27.690  12.196   2.316
21087W        W86567  31.931  12.677   0.958
21088W        W86568  43.442  13.272   1.362
21089W        W86569  35.999  33.448  13.919
21090W        W86570  40.909  31.551   0.353
21091W        W86571  23.534  27.196   4.219
21092W        W86572  44.852  34.515   1.353
21093W        W86573  33.998   9.395  13.538
21094W        W86574  26.139   1.925   0.367
21095W        W86575   7.802  43.318   1.390
21096W        W86576  36.556  39.895  14.322
21097W        W86577   0.828   6.381   1.801
21098W        W86578  38.844  20.673   1.263
21099W        W86579  16.079  43.834  10.608
21100W        W86580   5.260  38.409  11.489
21101W        W86581   6.335   2.746   4.800
21102W        W86582  17.283  30.459   0.248
21103W        W86583  23.136  16.583  11.048
21104W        W86584   3.850   6.794  11.438
21105W        W86585  19.568  29.075  14.774
21106W        W86586  23.712  31.062   2.666
21107W        W86587  33.512  11.767  13.841
21108W        W86588  16.719  28.172  10.403
21109W        W86589   3.906  21.146   2.693
21110W        W86590   6.813  16.177  13.335
21111W        W86591  13.611   4.882  12.060
21112W        W86592  33.526  33.903  10.026
21113W        W86593  15.623  39.008  11.424
21114W        W86594   7.174  29.103   4.305
21115W        W86595  34.032  28.513   2.889
21116W        W86596   5.236  11.660   2.322
21117W        W86597  32.023  39.332   2.283
21118W        W86598   4.845  17.078   3.331
21119W        W86599   7.350  36.043   2.740
21120W        W86600  29.949  39.363  13.935
21121W        W86601   8.839   4.746  10.887
21122W        W86602  30.561  30.098  14.900
21123W        W86603  29.064  22.692  11.428
21124W        W86604  23.026  38.967  13.962
21125W        W86605  30.474  42.819  10.006
21126W        W86606  30.940  33.093  14.352
21127W        W86607  27.485  30.131  10.432
21128W        W86608  41.824  44.861   4.228
21129W        W86609  39.432  42.856   5.243
21130W        W86610   4.757  36.531   1.399
21131W        W86611  37.871   4.385  12.023
21132W        W86612  21.060  21.147  12.574
21133W        W86613   7.390  34.036   0.464
21134W        W86614  37.050  13.773   4.607
21135W        W86615  35.901  44.891  11.896
21136W        W86616  36.423  36.910  12.041
21137W        W86617  12.746  42.020  11.019
21138W        W86618  41.935  23.130   1.429
21139W        W86619  28.067  12.274   1.433
21140W        W86620   3.845  34.887   0.268
21141W        W86621   2.825  15.175  14.412
21142W        W86622  29.004  11.243  11.010
21143W        W86623   3.407   8.332  10.961
21144W        W86624   5.703   5.800  14.337
21145W        W86625  28.167  13.623   2.736
21146W        W86626  32.469  19.536   0.291
21147W        W86627   0.375  18.050   3.262
21148W        W86628  41.831  34.015   2.322
21149W        W86629  19.179   9.778   3.764
21150W        W86630  24.155  24.032   5.258
21151W        W86631  17.295   0.750  11.486
21152W        W86632  30.096   8.763   3.190
21153W        W86633  17.686  12.661   2.417
21154W        W86634  22.186  12.128   0.872
21155W        W86635  27.582  15.329   4.122
21156W        W86636  35.575   9.274  13.042
21157W        W86637  24.146  28.469   1.251
21158W        W86638  25.165  41.849   4.232
21159W        W86639  12.306  43.920  13.059
21160W        W86640   2.331  21.755  10.889
21161W        W86641   7.182  14.739  13.959
21162W        W86642  42.984  13.658  14.848
21163W        W86643  43.390  24.508  12.518
21164W        W86644   6.776  26.618   4.814
21165W        W86645  36.958  32.617  10.515
21166W        W86646  14.764   9.314  13.389
21167W        W86647  44.298  34.435  11.585
21168W        W86648  33.442  30.959   1.815
21169W        W86649   6.680   4.332   0.935
21170W        W86650  16.225  15.164   3.813
21171W        W86651  25.713   2.318   0.350
21172W        W86652  24.725  17.785   3.351
21173W        W86653  44.886  42.299  14.910
21174W        W86654   5.210  13.244   2.213
21175W        W86655  27.133  10.736   0.897
21176W        W86656   9.378  10.643   1.241
21177W        W86657  44.278  39.426   0.777
21178W        W86658  41.834  39.409   1.883
21179W        W86659   0.347   6.246   0.429
21180W        W86660  37.465  12.668   2.691
21181W        W86661  16.731  10.745  13.954
21182W        W86662  10.653   3.718  11.903
21183W        W86663  30.091  41.787   0.457
21184W        W86664  43.369   8.272   4.796
21185W        W86665  11.261  43.795  13.546
21186W        W86666  27.034  22.064  11.398
21187W        W86667  19.041  32.005   2.410
21188W        W86668  40.442  10.821  10.407
21189W        W86669  30.508   4.854  13.804
21190W        W86670  10.765  40.405   1.394
21191W        W86671   9.712  25.017  13.901
21192W        W86672   6.698  13.653  13.872
21193W        W86673  34.505  19.068  11.896
21194W        W86674  40.944  13.748  10.630
21195W        W86675  42.987  25.139   2.735
21196W        W86676  31.543   1.438   3.693
21197W        W86677  16.076  23.992  10.610
21198W        W86678   0.492  20.085  12.858
21199W        W86679   1.784   1.953   0.429
21200W        W86680  17.109  12.221  13.538
21201W        W86681  18.675  38.031  14.976
21202W        W86682  13.663  29.483   1.386
21203W        W86683   5.246   4.876  11.520
21204W        W86684  21.644  42.421   2.857
21205W        W86685   9.818   9.157  14.809
21206W        W86686  32.579  28.043   4.838
21207W        W86687  30.031  16.121   2.390
21208W        W86688  30.946   4.402  13.902
21209W        W86689  20.542  17.741  13.064
21210W        W86690  32.398  24.096  13.902
21211W        W86691  37.535  29.930  11.440
21212W        W86692  22.719   1.835  14.846
21213W        W86693  41.919  14.291   1.248
21214W        W86694  20.764   4.270  12.551
21215W        W86695  16.674  25.697   4.272
21216W        W86696  13.608  21.513   2.768
21217W        W86697  11.334  42.831  13.054
21218W        W86698   2.307  21.525   0.777
21219W        W86699  36.864  44.886   4.685
21220W        W86700  32.577  41.887  13.837
21221W        W86701  15.161   4.434  11.490
21222W        W86702  28.557  10.793   1.742
21223W        W86703  17.125  31.087  10.604
21224W        W86704  27.684   4.765  14.492
21225W        W86705  32.923  10.145   0.728
21226W        W86706   5.886  17.669  12.903
21227W        W86707  23.637  43.389  11.967
21228W        W86708   7.349   9.699  14.810
21229W        W86709  19.180   2.892  13.497
21230W        W86710  35.040  25.473   2.193
21231W        W86711   9.837  16.570  14.455
21232W        W86712  41.931  36.003   0.431
21233W        W86713  28.536  22.198  14.403
21234W        W86714  38.436  13.809   4.254
21235W        W86715  25.209  43.828   1.253
21236W        W86716  27.164  43.446   0.794
21237W        W86717  10.825  34.422   4.135
21238W        W86718  24.062  18.620   4.614
21239W        W86719  25.040  26.149  13.359
21240W        W86720  40.472  39.042   0.426
21241W        W86721   8.262  28.127  11.968
21242W        W86722  12.359   5.904  12.035
21243W        W86723   0.876  36.873   1.819
21244W        W86724   1.831  44.433   5.212
21245W        W86725  23.203  39.817   0.884
21246W        W86726  26.959  14.246   2.284
21247W        W86727  10.236  21.227  11.116
21248W        W86728  34.550  15.226  10.507
21249W        W86729   4.300  15.706   0.416
21250W        W86730  11.855  34.415   0.344
21251W        W86731  27.447  13.720   2.818
21252W        W86732  32.935  28.184   2.691
21253W        W86733  21.042  37.534   3.848
21254W        W86734  30.641  23.586   2.341
21255W        W86735   8.750  23.555  14.976
21256W        W86736  24.527  15.581   2.374
21257W        W86737  35.474  43.372  12.035
21258W        W86738  30.045  33.124   2.686
21259W        W86739   1.744  15.249   0.753
21260W        W86740  41.963  44.412   4.189
21261W        W86741  15.702  30.021  12.823
21262W        W86742  40.882  25.553  13.318
21263W        W86743  12.230  39.921  11.562
21264W        W86744   5.318  41.855  11.001
21265W        W86745  30.096  33.896   0.877
21266W        W86746  40.879  10.324  12.568
21267W        W86747  34.934  34.922   3.156
21268W        W86748  23.501  19.039   4.625
21269W        W86749  27.116  40.410  14.020
21270W        W86750   6.409  24.575  10.633
21271W        W86751  15.720  40.912  13.328
21272W        W86752   0.793  23.663  13.051
21273W        W86753  31.429  38.909  14.388
21274W        W86754   7.733  29.918  12.970
21275W        W86755  30.948  38.989   3.155
21276W        W86756   8.667   2.413  12.354
21277W        W86757  39.417  42.305   2.860
21278W        W86758  16.797  14.635   3.236
21279W        W86759  29.990   4.297   4.129
21280W        W86760  20.096  19.622  10.972
21281W        W86761  33.114  38.871  12.020
21282W        W86762   6.861  33.554   2.201
21283W        W86763  44.341   2.937   1.423
21284W        W86764  37.353   0.340   1.759
21285W        W86765  30.585  42.815   4.664
21286W        W86766  12.220  21.731  12.038
21287W        W86767  11.852  43.906   1.270
21288W        W86768  23.568   2.815  13.996
21289W        W86769  37.837   3.813   4.628
21290W        W86770  16.223   2.888  12.494
21291W        W86771  20.255  27.535  14.907
21292W        W86772  38.050  14.606   0.334
21293W        W86773  16.598   1.845   2.834
21294W        W86774  38.449  42.976  14.452
21295W        W86775   0.367   1.767   1.711
21296W        W86776  43.017  24.525  14.304
21297W        W86777   0.317  43.946   1.896
21298W        W86778  38.949  42.349   0.848
21299W        W86779  23.998  34.565   2.324
21300W        W86780   2.358  22.647  13.812
21301W        W86781  14.176  43.833   4.691
21302W        W86782  11.748   9.678   3.245
21303W        W86783  29.654   7.727   0.927
21304W        W86784  25.058   2.907   4.613
21305W        W86785  44.813   1.954  14.513
21306W        W86786  31.966  26.989   3.378
21307W        W86787   6.280  26.689   0.803
21308W        W86788  18.050  31.534  14.321
21309W        W86789  33.122  41.874  10.958
21310W        W86790  30.009  26.113   2.745
21311W        W86791  21.661  39.015  14.916
21312W        W86792  19.046  25.696   1.927
21313W        W86793   3.441  13.668  12.040
21314W        W86794  22.018  25.612   4.645
21315W        W86795   5.259  18.630  13.367
21316W        W86796   0.751   6.799   1.807
21317W        W86797  38.033  35.521  14.854
21318W        W86798  22.719  28.563  12.907
21319W        W86799   0.883  20.129   1.934
21320W        W86800  13.655  28.618  11.926
21321W        W86801  38.077  40.033  10.990
21322W        W86802  17.129  29.142  14.013
21323W        W86803  40.899   5.319  13.412
21324W        W86804  30.045  43.498   2.178
21325W        W86805  15.794  41.790  11.053
21326W        W86806  17.685  18.711   1.212
21327W        W86807  32.012   2.302  12.379
21328W        W86808  36.995   6.917   0.350
21329W        W86809   0.484  25.558  13.840
21330W        W86810  25.134  35.084  14.851
21331W        W86811  33.907   3.296   2.723
21332W        W86812  19.140  27.173  10.636
21333W        W86813  15.814  19.763  11.450
21334W        W86814  24.544  32.599  10.418
21335W        W86815  43.443  10.666  12.903
21336W        W86816  35.034   8.673   1.240
21337W        W86817   6.729  17.786  11.472
21338W        W86818   4.721  15.274   1.858
21339W        W86819  41.393  28.535  10.517
21340W        W86820  13.337   9.805  13.457
21341W        W86821   2.351   1.328  14.770
21342W        W86822  36.422  12.174   2.678
21343W        W86823  11.754  22.728  14.032
21344W        W86824  18.709  32.005  14.462
21345W        W86825  41.911  19.557  14.371
21346W        W86826  32.539  41.313   2.799
21347W        W86827  22.710   5.880   3.803
21348W        W86828  42.818  37.559   2.318
21349W        W86829  23.492  22.118  12.861
21350W        W86830  13.685  15.821   1.219
21351W        W86831  44.893  22.557  13.966
21352W        W86832  43.817   2.353  13.812
21353W        W86833  11.739  16.085  14.501
21354W        W86834  21.229  24.990  14.284
21355W        W86835  19.688  12.281  10.494
21356W        W86836  42.378  24.491  13.355
21357W        W86837   4.310  33.477  12.517
21358W        W86838  11.666   6.697   2.378
21359W        W86839  13.299  16.597  14.780
21360W        W86840  26.466  41.295  13.841
21361W        W86841  29.937  37.938   2.244
21362W        W86842   5.871  24.060   3.329
21363W        W86843  12.756  11.642   0.919
21364W        W86844  41.914  11.852  10.105
21365W        W86845  14.813   5.277  10.946
21366W        W86846  36.426  30.970   0.290
21367W        W86847  27.118  36.401   3.243
21368W        W86848   2.384  25.209  11.116
21369W        W86849  23.712  26.591   1.756
21370W        W86850  30.549  25.126   3.867
21371W        W86851  12.648  20.735  14.307
21372W        W86852  35.423  35.875   1.300
21373W        W86853  41.317  23.986  14.274
21374W        W86854  42.010  32.013  10.998
21375W        W86855  37.376  11.667   4.741
21376W        W86856  36.566  30.924   4.196
21377W        W86857  38.372  21.261  13.924
21378W        W86858  25.035  25.005   0.917
21379W        W86859   0.883  39.927  14.370
21380W        W86860  18.162   0.424   3.244
21381W        W86861  14.208   0.985   3.324
21382W        W86862  11.297   2.801  12.854
21383W        W86863  28.955  36.931   1.875
21384W        W86864  13.141  33.116   2.235
21385W        W86865  24.227  16.605   2.214
21386W        W86866  14.220  24.625  13.426
21387W        W86867  32.398  36.883  14.359
21388W        W86868  38.077   5.397  12.903
21389W        W86869  11.344  40.813   4.776
21390W        W86870   7.182   1.480  14.283
21391W        W86871   3.902  15.761   3.177
21392W        W86872  17.069  30.037  14.316
21393W        W86873  21.157  25.555  13.345
21394W        W86874  43.847  38.930  11.425
21395W        W86875   3.281   6.797  12.435
21396W        W86876   2.307  21.541   2.201
21397W        W86877   4.707  35.361  13.414
21398W        W86878  20.623  15.217   2.827
21399W        W86879  43.956  44.349  12.459
21400W        W86880  19.126  15.099   4.253
21401W        W86881  16.131  26.489  11.457
21402W        W86882  43.455  22.182   0.910
21403W        W86883  14.325  28.467   3.202
21404W        W86884  42.795  44.809  13.389
21405W        W86885  22.243  22.638   0.293
21406W        W86886  19.067  31.619   0.739
21407W        W86887  28.082  35.463  11.417
21408W        W86888   8.174  19.666  13.455
21409W        W86889  34.911   8.782   3.303
21410W        W86890   7.839  32.976  14.461
21411W        W86891  32.006  17.711   3.733
21412W        W86892  23.075  44.466   4.611
21413W        W86893  14.103  39.380   4.739
21414W        W86894   6.199  28.551  10.538
21415W        W86895  12.171  17.638   3.867
21416W        W86896   6.357   6.350  11.432
21417W        W86897  24.632  17.279  12.533
21418W        W86898  15.676  31.638   1.268
21419W        W86899   2.830  36.586   2.779
21420W        W86900  31.095  21.023  13.804
21421W        W86901  25.534  27.571   0.739
21422W        W86902  24.594  28.093   2.758
21423W        W86903   9.814  13.321  10.579
21424W        W86904  26.544  27.573   3.850
21425W        W86905  30.579   3.718  14.941
21426W        W86906  40.387  22.567   0.957
21427W        W86907  33.029  12.680  10.925
21428W        W86908  28.098  11.633  12.544
21429W        W86909  44.007  18.690   2.304
21430W        W86910  10.207  11.328  14.356
21431W        W86911  12.844   8.843  12.944
21432W        W86912   3.783  12.124  13.024
21433W        W86913  12.338  19.200  13.999
21434W        W86914  17.205  11.252  14.850
21435W        W86915  20.152  12.194   0.403
21436W        W86916  34.557  31.025  11.112
21437W        W86917  10.317  17.619  10.543
21438W        W86918  17.601   7.223  13.448
21439W        W86919  42.438  36.875  14.329
21440W        W86920  30.514  43.459  11.957
21441W        W86921   2.811  42.511  12.978
21442W        W86922  36.003  17.709   4.257
21443W        W86923   1.789  26.608  10.637
21444W        W86924   8.252  24.040  13.324
21445W        W86925  35.476   3.431  14.313
21446W        W86926  26.513  11.336  14.997
21447W        W86927  24.576  29.107  13.380
21448W        W86928  33.602  38.567  10.542
21449W        W86929  14.645   3.367  10.989
21450W        W86930  19.619  14.762   3.704
21451W        W86931   6.302   8.292  11.488
21452W        W86932  12.696   8.790  10.425
21453W        W86933  12.272  19.208   2.762
21454W        W86934   3.953  26.481   4.715
21455W        W86935   1.331  41.487  12.531
21456W        W86936  32.488  34.583   1.307
21457W        W86937  10.336  11.650   2.282
21458W        W86938  29.918  32.405  14.973
21459W        W86939  16.747  40.353  12.858
21460W        W86940  28.983  21.723  14.281
21461W        W86941  35.064   5.212   4.115
21462W        W86942  41.334   2.364  10.534
21463W        W86943  26.109   4.344  10.542
21464W        W86944   9.696   3.763  10.409
21465W        W86945  36.587   0.763   4.305
21466W        W86946   1.761  36.347  11.109
21467W        W86947   7.263  44.504   4.260
21468W        W86948  31.465  23.210  12.508
21469W        W86949  35.427  33.966  14.802
21470W        W86950  15.291  43.984  12.579
21471W        W86951  12.689   1.452   4.281
21472W        W86952  32.081  26.179  14.513
21473W        W86953   8.195  11.693   1.728
21474W        W86954  37.028  27.058  14.976
21475W        W86955  33.926  14.169   0.378
21476W        W86956  42.364  42.463   4.606
21477W        W86957  38.362  40.545  14.966
21478W        W86958  42.840   6.922  11.080
21479W        W86959  37.839   6.298  10.001
21480W        W86960  17.707   4.831   2.266
21481W        W86961   1.914  43.894  13.339
21482W        W86962  16.233  30.163  10.952
21483W        W86963  32.573  37.504   3.769
21484W        W86964   7.330  14.615  11.401
21485W        W86965  40.823  32.395  14.953
21486W        W86966  20.132   3.386   1.786
21487W        W86967  15.598  33.096  12.939
21488W        W86968  15.281  13.683  12.854
21489W        W86969  10.384  24.020  12.902
21490W        W86970  15.723  19.676  14.401
21491W        W86971  33.451  18.283   0.841
21492W        W86972  18.117  13.220  10.604
21493W        W86973  36.587  28.577  14.963
21494W        W86974  42.342  40.526   0.756
21495W        W86975  43.359  10.185  13.011
21496W        W86976  35.904   0.254   1.828
21497W        W86977  11.636   4.223   2.367
21498W        W86978  31.449  43.971   4.776
21499W        W86979  32.543   7.737  13.022
21500W        W86980  43.926  39.923   3.229
21501W        W86981  29.568  38.979  14.800
21502W        W86982   1.274  22.626  14.800
21503W        W86983   0.324  30.060   2.347
21504W        W86984  42.489   3.256   4.697
21505W        W86985   2.234   2.869   4.197
21506W        W86986  28.655  23.683  11.103
21507W        W86987   0.914  13.646   4.183
21508W        W86988  31.552   0.839  11.096
21509W        W86989  10.857  42.020   2.245
21510W        W86990  26.959  13.686   0.406
21511W        W86991   5.749  12.131   4.750
21512W        W86992   6.713  26.551  12.368
21513W        W86993  19.591   5.274   4.323
21514W        W86994  10.847  39.052   3.299
21515W        W86995   8.399  15.170   1.702
21516W        W86996  44.868  38.355  12.354
21517W        W86997  27.017  26.489  10.603
21518W        W86998  16.230   0.856   0.434
21519W        W86999  13.776  41.425  12.516
21520W        W87000  11.795   9.705   4.788
21521W        W87001   6.711  18.561   3.772
21522W        W87002  20.096  20.523   2.247
21523W        W87003  17.271  24.066   0.942
21524W        W87004  38.932  22.074  10.517
21525W        W87005  32.403  21.180   4.128
21526W        W87006  18.612  25.620  11.416
21527W        W87007  12.719  32.942   1.395
21528W        W87008   8.671  27.445   0.271
21529W        W87009   0.750   5.395  12.481
21530W        W87010  18.263  28.011   0.409
21531W        W87011  44.809  22.042   4.308
21532W        W87012   9.261  39.342  12.097
21533W        W87013  19.200  28.566  13.429
21534W        W87014   6.373  32.542   3.377
21535W        W87015  34.419  16.131  12.015
21536W        W87016  29.076   4.861   3.687
21537W        W87017  43.343  11.313  13.507
21538W        W87018  14.229  27.010  11.928
21539W        W87019  24.062  37.982  11.580
21540W        W87020  20.114  19.164   3.720
21541W        W87021  16.680  18.568   1.309
21542W        W87022  11.847  27.660  12.038
21543W        W87023  35.550   3.257  10.434
21544W        W87024  43.009  10.213   5.189
21545W        W87025  40.960  19.053   2.298
21546W        W87026  41.345  16.265  13.943
21547W        W87027  37.526   5.211  12.535
21548W        W87028  12.204  21.216  12.872
21549W        W87029  20.553  44.913   1.377
21550W        W87030   5.252  41.516  14.370
21551W        W87031   7.404  40.905   2.686
21552W        W87032   1.371  13.160   0.890
21553W        W87033  18.686   1.459   1.837
21554W        W87034  16.309  29.432  10.933
21555W        W87035   9.355   5.816  12.531
21556W        W87036   9.171  36.937  11.063
21557W        W87037  30.127  13.667   3.639
21558W        W87038  16.674  28.024   3.659
21559W        W87039  34.113  39.845  13.960
21560W        W87040  43.404  22.624  12.094
21561W        W87041   9.208   4.717   4.776
21562W        W87042  26.489  37.553   2.796
21563W        W87043  28.514  34.535   3.328
21564W        W87044   2.928  37.083  10.410
21565W        W87045  32.403  15.240   2.695
21566W        W87046  24.099  41.359   2.217
21567W        W87047  25.566   7.790  10.905
21568W        W87048  26.962  44.887   0.831
21569W        W87049  33.612   4.903   2.780
21570W        W87050  13.698  24.643  11.963
21571W        W87051  37.358  43.270  11.428
21572W        W87052  31.538   2.829   2.348
21573W        W87053  15.654  23.190  12.930
21574W        W87054  35.931  28.096  11.872
21575W        W87055  31.467  26.094   1.796
21576W        W87056  13.641  37.507  13.415
21577W        W87057  20.733  28.983  10.421
21578W        W87058  21.532  36.001   0.296
21579W        W87059  24.163   1.251  14.293
21580W        W87060  27.615  35.507  10.894
21581W        W87061  29.589   4.734   5.196
21582W        W87062   8.367  32.630   1.915
21583W        W87063  25.653  44.418  10.116
21584W        W87064  13.213   5.252  13.963
21585W        W87065  16.655  25.980  10.498
21586W        W87066   7.700   3.319   0.843
21587W        W87067   5.847  10.800  10.900
21588W        W87068  27.589  10.146  13.319
21589W        W87069  36.974  29.566  13.533
21590W        W87070  24.216   3.945  13.479
21591W        W87071   8.894   8.730   3.640
21592W        W87072  24.024  19.656   2.374
21593W        W87073   2.296  16.254  11.062
21594W        W87074   8.665  13.798  12.413
21595W        W87075  31.456  37.872   4.640
21596W        W87076  18.693  37.505   0.439
21597W        W87077  12.242  37.561   5.086
21598W        W87078  13.321  37.897  14.782
21599W        W87079  12.237  41.337   2.795
21600W        W87080  15.310  21.730   0.362
21601W        W87081  31.036  24.092   4.324
21602W        W87082  40.363  38.975   0.934
21603W        W87083  18.704  44.790  14.278
21604W        W87084  10.245  29.430   4.259
21605W        W87085   5.325  28.645   2.202
21606W        W87086  33.080   3.817  10.621
21607W        W87087   0.476  25.522   0.466
21608W        W87088  10.685  32.428  10.940
21609W        W87089  20.225   5.852   1.699
21610W        W87090  42.838  25.709   2.691
21611W        W87091  23.033  42.908   5.182
21612W        W87092  41.368  13.136  12.441
21613W        W87093  12.168  39.937   2.400
21614W        W87094  32.591  28.438   0.411
21615W        W87095  36.083  28.962  11.429
21616W        W87096  39.912   1.357  10.441
21617W        W87097  32.990   8.786  12.019
21618W        W87098  20.734  16.089  11.592
21619W        W87099   1.373  20.714  13.467
21620W        W87100  29.491  43.930   1.408
21621W        W87101  23.616  21.628   4.317
21622W        W87102  43.982   8.291  11.061
21623W        W87103  28.140  32.035  11.424
21624W        W87104  11.867  16.694   1.910
21625W        W87105  30.004   6.357   3.710
21626W        W87106  19.724  39.915  13.508
21627W        W87107   1.915  13.107   2.778
21628W        W87108  35.859  15.761  13.433
21629W        W87109  25.037   4.784  14.340
21630W        W87110  38.859  26.958  12.465
21631W        W87111  21.588  23.116  14.346
21632W        W87112   4.374  32.492   2.778
21633W        W87113   9.338  44.837   2.408
21634W        W87114  13.186  20.032  10.907
21635W        W87115  40.436  15.125   0.751
21636W        W87116  20.680  24.166  11.921
21637W        W87117  33.939   2.277   3.799
21638W        W87118  29.468   5.371  13.324
21639W        W87119  22.042  23.239   0.363
21640W        W87120  37.970  37.567  11.866
21641W        W87121  34.586  24.091   2.296
21642W        W87122  32.469  12.822  10.953
21643W        W87123  33.975  33.000   4.279
21644W        W87124  34.438  20.721   4.290
21645W        W87125  30.971  11.323   0.402
21646W        W87126  43.350  33.912   2.717
21647W        W87127  29.034  12.818  14.875
21648W        W87128   9.701   6.835   1.745
21649W        W87129  40.479  11.724   3.213
21650W        W87130  18.718  12.138  12.837
21651W        W87131  26.169   8.181  14.889
21652W        W87132  22.608  41.954   2.753
21653W        W87133   2.808  28.504   4.252
21654W        W87134  31.561  28.165  11.469
21655W        W87135  27.077  37.847   0.411
21656W        W87136   2.291   8.769   4.172
21657W        W87137  15.099  35.077   9.621
21658W        W87138   1.948  24.014  11.095
21659W        W87139  36.001  15.084  13.386
21660W        W87140   6.425   3.892   2.401
21661W        W87141   1.349   4.836   4.167
21662W        W87142  37.088  30.475  12.931
21663W        W87143  28.019  22.681  12.435
21664W        W87144  26.673  23.123  14.354
21665W        W87145  41.448  37.424   4.734
21666W        W87146   1.901  10.704   4.715
21667W        W87147  40.368  30.535   4.151
21668W        W87148  33.040   5.202  12.854
21669W        W87149  39.053  40.826   3.271
21670W        W87150   1.406  37.354   3.790
21671W        W87151  15.760  23.650  12.392
21672W        W87152  33.432   8.308  10.998
21673W        W87153   0.396   7.739   1.749
21674W        W87154  28.955  32.000   3.362
21675W        W87155   7.195  19.147   4.329
21676W        W87156  36.851  32.493   0.741
21677W        W87157   1.381  30.086   3.689
21678W        W87158  18.162  21.223   2.254
21679W        W87159  22.086  33.002  11.481
21680W        W87160  16.627  38.862   0.272
21681W        W87161  35.580  21.729  10.905
21682W        W87162  25.625  30.128   4.317
21683W        W87163  12.776  21.189  13.034
21684W        W87164  24.581  37.896   4.336
21685W        W87165  44.481   9.859   4.657
21686W        W87166  21.687   3.753  13.033
21687W        W87167   1.977  19.227   3.765
21688W        W87168  12.831   0.484  11.975
21689W        W87169  16.102  15.796  10.928
21690W        W87170   1.770   0.983   0.885
21691W        W87171   5.690  22.240  13.959
21692W        W87172  39.491  24.512   1.229
21693W        W87173  23.663   8.365   0.321
21694W        W87174  36.912  13.166   1.322
21695W        W87175  17.795  11.356  12.526
21696W        W87176  37.530  41.383   1.342
21697W        W87177  34.999  38.068   3.869
21698W        W87178  23.072  17.738  14.981
21699W        W87179  25.589  24.119  13.048
21700W        W87180  31.642  23.667  11.411
21701W        W87181   9.218  11.274   1.246
21702W        W87182   2.740  16.241  12.953
21703W        W87183  29.981  38.515   9.625
21704W        W87184  18.573  40.505  10.642
21705W        W87185  19.155   8.315  12.392
21706W        W87186  35.395  10.855  14.448
21707W        W87187  17.237  22.142   1.781
21708W        W87188   3.732  29.492   0.345
21709W        W87189  15.777  19.117  10.606
21710W        W87190  31.088  44.861  13.385
21711W        W87191  42.426  24.081  14.456
21712W        W87192   8.305  24.711  14.417
21713W        W87193   9.190  23.075  12.975
21714W        W87194  36.925  21.235  10.548
21715W        W87195  23.227  28.572  13.915
21716W        W87196  19.702  40.441  13.868
21717W        W87197  30.982  15.088   4.794
21718W        W87198  34.114  22.599  12.032
21719W        W87199  42.841  28.115   4.246
21720W        W87200  28.109  28.182   1.742
21721W        W87201   8.305  21.045  12.999
21722W        W87202  28.166  18.219  13.895
21723W        W87203  27.115  41.008   4.765
21724W        W87204  43.272  37.544   0.422
21725W        W87205  40.466  15.813  14.324
21726W        W87206  13.263   2.451  11.079
21727W        W87207  14.271   3.337   2.250
21728W        W87208  28.465  18.265  13.412
21729W        W87209  15.290  24.123  11.477
21730W        W87210  18.189  23.105  13.906
21731W        W87211  29.965   1.851  12.859
21732W        W87212  27.091  34.925   0.434
21733W        W87213   1.798   7.405  14.380
21734W        W87214  39.022   5.205  14.761
21735W        W87215  22.534   2.756  12.459
21736W        W87216  22.169  33.496  13.508
21737W        W87217  42.808  14.605  13.823
21738W        W87218  37.926   5.754   2.672
21739W        W87219  29.500  34.615   4.271
21740W        W87220  23.683  30.910  13.898
21741W        W87221  44.854   1.896   4.643
21742W        W87222  42.524  16.572   4.215
21743W        W87223  14.196  12.659  14.847
21744W        W87224  20.118   8.381  12.984
21745W        W87225  28.497   5.296  12.551
21746W        W87226  19.676  15.623  12.981
21747W        W87227  29.955  34.947   4.334
21748W        W87228  36.435   4.311   0.252
21749W        W87229  43.486  28.128   4.723
21750W        W87230  12.329  30.009   1.442
21751W        W87231  44.836  39.981  13.318
21752W        W87232  44.326  18.266   3.831
21753W        W87233  39.380  13.758   0.481
21754W        W87234  28.600  38.338  14.945
21755W        W87235  19.221  27.480  14.367
21756W        W87236  24.594  19.738  14.000
21757W        W87237  16.768   0.474   2.727
21758W        W87238  24.572  37.062  13.844
21759W        W87239  32.079  12.848   3.231
21760W        W87240   8.160   3.295  14.866
21761W        W87241  21.631   0.409  10.414
21762W        W87242  16.661   7.325   1.784
21763W        W87243   1.444  42.848   0.347
21764W        W87244  25.198  41.792   2.306
21765W        W87245  24.610  27.687   0.880
21766W        W87246   4.220  18.177   0.878
21767W        W87247  44.284  22.561  12.408
21768W        W87248  17.696   6.923   4.152
21769W        W87249  42.806  22.633   5.297
21770W        W87250  26.149  19.262   3.654
21771W        W87251  18.754  34.939  13.047
21772W        W87252  16.122  38.519  13.491
21773W        W87253  43.987  20.101   9.463
21774W        W87254  42.831  32.453  10.984
21775W        W87255   2.824   0.445   4.275
21776W        W87256  16.081  26.051   0.418
21777W        W87257  27.113  16.197   1.809
21778W        W87258  33.597  36.082   4.120
21779W        W87259  41.404  20.729  12.401
21780W        W87260   8.343  36.871   4.285
21781W        W87261  36.452  20.743  12.995
21782W        W87262  37.949  32.615   3.159
21783W        W87263  24.512  34.598  11.125
21784W        W87264  13.647  41.315   5.648
21785W        W87265  14.210   1.383  12.868
21786W        W87266  24.026  33.411  12.484
21787W        W87267  28.664  34.939   4.344
21788W        W87268  14.225   8.196   1.707
21789W        W87269  24.609   1.243   3.387
21790W        W87270  42.821   6.694  13.816
21791W        W87271   9.273  32.526  12.365
21792W        W87272  14.744  17.790  11.039
21793W        W87273  28.454  24.123  13.887
21794W        W87274  12.684  31.496   3.748
21795W        W87275  32.046  43.477   3.843
21796W        W87276  24.997  40.407   1.293
21797W        W87277  25.059   1.749   4.602
21798W        W87278   2.380  22.125   3.365
21799W        W87279  13.811  27.586   2.300
21800W        W87280  44.334  34.891  11.008
21801W        W87281  44.989  33.454  10.131
21802W        W87282  18.711  44.911   0.347
21803W        W87283   1.745   9.785  13.440
21804W        W87284  27.484  23.631  14.384
21805W        W87285  42.960  13.344   4.182
21806W        W87286  32.507  27.534  14.514
21807W        W87287   6.229   5.733  12.056
21808W        W87288   8.884  30.637   9.983
21809W        W87289  19.598  14.280  10.614
21810W        W87290  22.233   3.859  14.293
21811W        W87291  25.992  20.728   1.765
21812W        W87292   6.194  27.532   1.813
21813W        W87293  23.707  40.815   2.223
21814W        W87294  30.500  10.255  13.003
21815W        W87295  28.992  34.942   3.348
21816W        W87296  43.838  11.669  14.919
21817W        W87297  38.908  32.628   4.650
21818W        W87298   9.281  40.046   2.318
21819W        W87299  36.021  15.222   1.422
21820W        W87300   5.327   1.348   4.252
21821W        W87301   5.278  11.326   1.917
21822W        W87302  11.626   8.356   1.707
21823W        W87303  14.305   0.439   5.246
21824W        W87304   2.931   0.421   3.206
21825W        W87305  27.613  36.934  11.580
21826W        W87306  13.751  41.791   3.235
21827W        W87307  34.057  35.866   3.175
21828W        W87308  26.500  32.980  12.408
21829W        W87309  26.532  42.968  11.454
21830W        W87310  38.851  17.792   0.738
21831W        W87311  16.216  39.895  13.892
21832W        W87312   3.770  25.580  12.849
21833W        W87313  35.541  30.508  11.474
21834W        W87314  10.232  35.393   2.349
21835W        W87315  22.622   8.273  13.058
21836W        W87316  23.714  44.389  14.826
21837W        W87317  11.143   3.938  14.511
21838W        W87318  29.474   0.825  12.870
21839W        W87319   7.207  11.298   2.331
21840W        W87320   5.933  42.781  11.611
21841W        W87321  25.147   3.251   1.305
21842W        W87322   2.740  10.178   4.204
21843W        W87323  28.987   5.320   4.139
21844W        W87324  24.140  19.250  14.890
21845W        W87325  17.779   5.336   1.747
21846W        W87326  31.964  16.234   2.677
21847W        W87327  16.276  34.877  14.282
21848W        W87328  29.658  15.163   4.642
21849W        W87329  23.494  34.098   4.224
21850W        W87330  44.392  11.762  11.403
21851W        W87331  35.400   4.394  14.410
21852W        W87332  40.929  14.815   3.854
21853W        W87333  30.077  23.726   2.778
21854W        W87334  27.090   2.293   1.316
21855W        W87335  42.971  11.621   2.231
21856W        W87336  29.011   8.654  11.899
21857W        W87337  12.204  19.719   3.861
21858W        W87338  41.525   8.781  11.581
21859W        W87339  17.678   9.254   0.252
21860W        W87340  16.175  24.602  10.952
21861W        W87341  44.011  26.478   2.266
21862W        W87342  35.386  27.967   3.761
21863W        W87343  28.082  31.536   1.281
21864W        W87344  37.853  40.802   0.735
21865W        W87345  38.007  23.000  11.035
21866W        W87346  16.257  22.198   4.307
21867W        W87347  37.074  39.455   0.921
21868W        W87348  10.771  44.332   4.788
21869W        W87349  28.941  16.657  11.913
21870W        W87350  36.450  35.426   4.193
21871W        W87351  22.111  43.495  12.896
21872W        W87352  44.457  12.675   3.251
21873W        W87353   9.781  21.149   0.834
21874W        W87354  12.344  16.104  11.393
21875W        W87355   8.387  43.363  12.578
21876W        W87356  16.099  14.301   2.395
21877W        W87357  22.597  27.468  13.860
21878W        W87358  43.293   0.801  14.027
21879W        W87359  29.981  20.652  11.451
21880W        W87360  12.135  40.432  10.901
21881W        W87361  39.549  10.782   2.675
21882W        W87362  43.829  22.211  14.496
21883W        W87363  10.742  25.100   5.149
21884W        W87364  40.942  42.307   2.354
21885W        W87365  33.426  32.902  14.944
21886W        W87366  16.222  34.560   0.806
21887W        W87367  42.519  42.820   3.649
21888W        W87368  43.442  20.187  13.527
21889W        W87369  41.969   3.287  13.866
21890W        W87370   7.231   8.852   3.296
21891W        W87371  13.157  12.786  13.512
21892W        W87372  16.230   7.414  11.066
21893W        W87373   9.690  31.936   3.202
21894W        W87374   3.410  37.880   0.317
21895W        W87375   9.770  43.380   2.193
21896W        W87376   3.371  32.892  10.896
21897W        W87377  15.244  17.674   1.434
21898W        W87378  21.211  36.351  13.041
21899W        W87379  16.755  17.089  11.478
21900W        W87380  37.408  42.904   0.788
21901W        W87381  19.686  39.342  13.878
21902W        W87382  16.573  29.486   9.964
21903W        W87383  22.602   1.805   2.201
21904W        W87384  19.239  30.433  11.471
21905W        W87385  24.097  39.890   1.793
21906W        W87386  27.642  40.339   2.840
21907W        W87387   5.934   2.960  11.988
21908W        W87388  22.105  28.675   2.899
21909W        W87389  41.501  29.159   3.358
21910W        W87390  14.317  12.843   0.340
21911W        W87391  26.692  17.600   2.282
21912W        W87392  15.725  22.575  11.116
21913W        W87393  35.035  17.790   4.130
21914W        W87394  42.861  26.067  12.427
21915W        W87395  37.048  32.011  11.402
21916W        W87396  35.377  28.152  13.340
21917W        W87397  25.179   2.383   1.795
21918W        W87398  32.519  37.433  14.935
21919W        W87399  30.618  20.574   0.921
21920W        W87400  40.859  44.383  14.385
21921W        W87401  38.390  29.163  11.904
21922W        W87402  27.141   3.795   4.334
21923W        W87403  43.828  32.391   2.260
21924W        W87404  27.618  17.750  11.073
21925W        W87405   3.366   5.316   2.682
21926W        W87406   6.685  36.464   4.608
21927W        W87407  14.237   4.823   4.275
21928W        W87408   6.704   8.371   3.327
21929W        W87409   1.863  15.087   2.734
21930W        W87410   8.857  40.431   5.239
21931W        W87411  21.596  43.771   5.589
21932W        W87412  44.310   9.211  10.913
21933W        W87413  36.358  44.408  11.604
21934W        W87414  39.480  26.692  14.926
21935W        W87415  13.662  41.334  13.001
21936W        W87416   0.454   6.257   0.825
21937W        W87417  22.163  28.075  10.950
21938W        W87418  28.451  25.710   1.240
21939W        W87419   3.829  40.371  13.927
21940W        W87420  30.459  13.351  14.401
21941W        W87421  14.095  36.074   2.710
21942W        W87422   4.745  19.159   4.627
21943W        W87423  35.443  33.418   0.760
21944W        W87424  42.927   6.829   0.362
21945W        W87425  27.557  34.509   1.344
21946W        W87426   4.448  11.140  11.938
21947W        W87427   7.877  38.892  14.291
21948W        W87428  35.529  34.592   0.796
21949W        W87429  23.492  16.669  13.830
21950W        W87430   5.882  29.517   3.243
21951W        W87431  33.467  15.104   4.209
21952W        W87432  38.933  44.482  12.476
21953W        W87433  42.949  12.298   2.732
21954W        W87434  32.099  25.538  12.893
21955W        W87435  17.113  22.533  13.858
21956W        W87436  21.634   3.447  10.997
21957W        W87437  42.455   3.457   2.863
21958W        W87438  37.070  24.031   2.245
21959W        W87439  28.644  38.830  14.766
21960W        W87440  38.533   9.777  13.810
21961W        W87441  31.094  20.729   0.446
21962W        W87442  10.787   9.663  11.093
21963W        W87443   6.800  22.618  12.047
21964W        W87444  12.179  33.388  12.580
21965W        W87445  38.859  27.169  14.502
21966W        W87446  31.645  37.564  12.509
21967W        W87447   1.952  36.060   0.835
21968W        W87448  11.268  20.096  14.515
21969W        W87449  21.109  20.543  13.474
21970W        W87450  31.140  43.516  12.495
21971W        W87451  20.030  40.457   2.674
21972W        W87452  37.919   7.746  13.486
21973W        W87453  14.795  20.677  13.449
21974W        W87454  19.671   4.389   4.305
21975W        W87455  33.531  42.878  10.605
21976W        W87456  21.751  17.740   3.211
21977W        W87457  15.741  19.773   3.335
21978W        W87458  28.044  35.015   4.137
21979W        W87459  29.662  12.339  11.373
21980W        W87460  16.129   0.825  12.882
21981W        W87461   9.268  37.880  11.533
21982W        W87462  13.838  30.505  10.895
21983W        W87463  18.251  39.480   0.367
21984W        W87464  41.473   2.471   2.766
21985W        W87465  25.678  10.645  12.984
21986W        W87466  27.984  28.639  12.858
21987W        W87467   2.275  18.268  11.434
21988W        W87468  23.029   5.811   3.295
21989W        W87469   3.265  34.423   1.877
21990W        W87470  30.519  16.179   1.397
21991W        W87471  19.550  18.596   1.326
21992W        W87472  14.598   4.391  13.507
21993W        W87473  33.578   2.327  13.308
21994W        W87474  23.531  38.386  13.043
21995W        W87475  13.712   4.347   4.709
21996W        W87476   4.311   1.859   2.409
21997W        W87477  39.864  17.633  14.378
21998W        W87478  43.939   4.364  11.496
21999W        W87479  32.014  27.601   3.755
22000W        W87480   7.351  18.115  12.920
22001W        W87481   7.837   5.205   4.795
22002W        W87482  16.307  30.133   3.654
22003W        W87483  35.998   4.361   4.211
22004W        W87484  17.790  13.223   0.810
22005W        W87485  29.166  32.455   3.702
22006W        W87486  10.637  10.277  14.363
22007W        W87487   2.957  14.644  13.393
22008W        W87488  44.361  32.437   5.243
22009W        W87489  44.467   2.734  10.110
22010W        W87490  15.692  24.548   3.384
22011W        W87491  37.930   3.788  12.531
22012W        W87492  30.161   3.860   1.414
22013W        W87493  40.884  22.712   2.746
22014W        W87494  26.162  23.093  13.374
22015W        W87495  15.209  20.628   1.307
22016W        W87496  13.630  29.544   2.862
22017W        W87497  10.765   3.763   2.358
22018W        W87498  11.644   1.809   1.895
22019W        W87499  11.264  24.022  13.961
22020W        W87500  14.155  23.078   0.436
22021W        W87501  44.430  43.279  12.983
22022W        W87502  20.725  10.351   1.910
22023W        W87503   4.890  42.895   1.925
22024W        W87504  31.087  12.130  10.596
22025W        W87505  29.509  33.489   0.842
22026W        W87506  18.246  32.952  14.496
22027W        W87507  16.100  10.373   0.321
22028W        W87508  13.163  36.076  13.009
22029W        W87509  31.066  38.493  12.856
22030W        W87510  14.106  31.138  14.777
22031W        W87511  12.324  15.662  10.053
22032W        W87512  32.084  13.750  11.092
22033W        W87513  23.649   7.749  14.474
22034W        W87514  43.397  44.378   0.270
22035W        W87515  31.524   1.876   4.239
22036W        W87516  14.593  36.986   1.250
22037W        W87517  24.986  30.640  13.548
22038W        W87518  30.024  27.649   2.248
22039W        W87519  25.165  18.784  14.993
22040W        W87520  15.114  21.189  11.971
22041W        W87521   0.311  37.467  14.885
22042W        W87522  14.806  36.079  10.407
22043W        W87523   0.266  42.482  12.458
22044W        W87524   5.732  36.413  11.535
22045W        W87525  42.284  43.824  14.309
22046W        W87526  27.689  12.707   1.742
22047W        W87527  26.506  19.127   0.757
22048W        W87528   2.885  37.463   2.389
22049W        W87529  43.803  28.007   2.225
22050W        W87530  17.205  29.163  14.493
22051W        W87531  15.236   0.806   3.726
22052W        W87532   1.808   4.336  11.025
22053W        W87533  13.347  44.005   0.436
22054W        W87534  18.592  24.501   0.291
22055W        W87535   8.714   9.707  12.824
22056W        W87536  41.011  38.068   0.855
22057W        W87537  21.605   7.780   2.694
22058W        W87538  21.564  30.953   2.396
22059W        W87539  37.575  24.570   2.333
22060W        W87540  12.226  42.999   3.345
22061W        W87541   6.349  41.882   1.880
22062W        W87542  42.283  27.532  14.356
22063W        W87543  25.067  17.241   2.842
22064W        W87544  23.090   1.382  11.028
22065W        W87545  24.556   7.768   0.769
22066W        W87546   0.888  13.693   1.894
22067W        W87547   4.861  10.790   4.178
22068W        W87548  31.514  13.229  11.941
22069W        W87549  11.261   2.800  14.959
22070W        W87550   5.405  41.379   1.388
22071W        W87551  17.556  10.837  14.307
22072W        W87552  42.362  13.124  11.404
22073W        W87553   9.218  30.610   4.676
22074W        W87554   9.275  39.837  11.515
22075W        W87555   3.326   6.204   2.742
22076W        W87556  41.493   0.840  14.387
22077W        W87557  17.074   6.764  14.453
22078W        W87558  36.395  35.029   3.381
22079W        W87559  21.572  27.555   1.813
22080W        W87560  28.623  15.289  11.964
22081W        W87561  37.020  41.393   0.364
22082W        W87562  20.087   8.677   2.783
22083W        W87563  16.228  27.571  10.156
22084W        W87564  34.413  30.912   4.324
22085W        W87565  44.004  11.756  12.479
22086W        W87566  11.817   7.771  14.443
22087W        W87567  13.739  30.015   2.400
22088W        W87568  36.372   8.836  13.871
22089W        W87569  33.425   9.769  13.801
22090W        W87570   6.816  35.421  10.584
22091W        W87571   3.375   3.882   4.806
22092W        W87572  33.049  25.601  14.020
22093W        W87573   6.813   4.916   0.728
22094W        W87574  33.915   8.657  10.630
22095W        W87575  31.063  25.103   3.703
22096W        W87576  43.356  29.924  13.382
22097W        W87577  42.455  18.160  10.408
22098W        W87578  44.460   5.802   1.922
22099W        W87579  40.022   3.902   1.711
22100W        W87580  40.348   7.357  11.123
22101W        W87581  20.270   3.878  13.335
22102W        W87582  19.072  43.422   1.723
22103W        W87583  24.172  42.909   0.318
22104W        W87584  13.178  21.164   1.745
22105W        W87585  44.753  29.064  10.626
22106W        W87586  42.512  14.676  12.484
22107W        W87587  33.048  34.873  14.877
22108W        W87588  16.295  30.050   4.164
22109W        W87589  37.035   1.483  13.941
22110W        W87590  41.788   0.813   0.261
22111W        W87591  19.676  44.287   3.839
22112W        W87592   7.816  19.536   1.238
22113W        W87593  21.070   0.319  11.398
22114W        W87594  25.669  35.884  13.929
22115W        W87595   5.206  14.271   2.867
22116W        W87596   4.793  18.134   0.342
22117W        W87597   0.900   4.785  13.310
22118W        W87598  26.680  35.907   4.668
22119W        W87599   7.250   7.810  11.946
22120W        W87600  16.754   3.922   4.118
22121W        W87601  37.057  44.423   1.794
22122W        W87602  10.234  42.443   3.664
22123W        W87603  16.630  21.114   4.790
22124W        W87604  26.569   7.743  10.475
22125W        W87605  30.972   4.233  11.051
22126W        W87606  11.182  25.654   1.247
22127W        W87607   0.790  22.069   0.461
22128W        W87608  39.458   4.387   0.762
22129W        W87609  23.016   3.320  10.637
22130W        W87610  24.996  32.546   4.794
22131W        W87611  41.345  25.703   0.910
22132W        W87612  38.466  15.254  13.848
22133W        W87613  27.173  21.078   4.127
22134W        W87614   7.878   4.234  10.497
22135W        W87615  11.239  21.609  13.046
22136W        W87616  18.155  23.643   2.224
22137W        W87617  21.051  32.036   3.375
22138W        W87618  22.628   1.280   5.106
22139W        W87619  15.204  39.379  14.984
22140W        W87620  30.589   0.457  12.545
22141W        W87621  19.055  15.211   0.886
22142W        W87622  12.833  15.703  11.864
22143W        W87623   4.747  37.509  13.835
22144W        W87624  25.175  43.822  13.329
22145W        W87625  21.529  38.507   1.384
22146W        W87626  34.398  39.439  11.867
22147W        W87627  34.560  12.283  10.896
22148W        W87628  43.020  24.974  14.884
22149W        W87629   0.841  39.028  10.033
22150W        W87630  24.077  36.048   5.151
22151W        W87631  30.580  39.532   2.309
22152W        W87632  25.136  32.133   5.185
22153W        W87633  34.095   7.728  12.466
22154W        W87634  42.997  38.999  10.621
22155W        W87635  21.178  40.899   2.339
22156W        W87636  42.797  13.350   1.407
22157W        W87637  35.905  26.021  14.427
22158W        W87638  27.178   6.707  10.501
22159W        W87639  36.484  11.220  14.951
22160W        W87640  25.992  33.004   3.174
22161W        W87641   2.275  12.658   5.096
22162W        W87642   0.780  37.884  14.791
22163W        W87643  33.941  24.026  13.542
22164W        W87644  24.584  28.532  14.278
22165W        W87645  40.960  14.598  10.916
22166W        W87646  32.981  24.168   2.675
22167W        W87647  37.581  17.210   3.653
22168W        W87648  43.363  14.317   5.240
22169W        W87649  37.392  15.600   2.748
22170W        W87650  20.215   6.206   0.358
22171W        W87651  44.295   8.845  11.494
22172W        W87652   9.886  17.619   2.335
22173W        W87653   8.357  31.085  14.822
22174W        W87654  29.982   4.437  12.515
22175W        W87655  29.609  35.463  13.873
22176W        W87656   5.903  28.511  10.915
22177W        W87657  36.525  30.441   4.195
22178W        W87658  39.411  29.955   4.694
22179W        W87659  35.035  20.726   3.691
22180W        W87660  26.123  41.816   0.754
22181W        W87661  39.065  22.058  12.063
22182W        W87662  38.480  39.425   0.247
22183W        W87663  11.647   1.959   9.995
22184W        W87664  42.522  38.064  14.429
22185W        W87665  27.990   2.274  14.355
22186W        W87666   2.404  22.173   3.702
22187W        W87667  13.197   3.709  13.374
22188W        W87668  17.076  41.886   3.334
22189W        W87669  42.357  21.139  13.029
22190W        W87670   9.841  38.897  12.846
22191W        W87671   0.461  31.994   4.762
22192W        W87672  37.001  29.163  14.003
22193W        W87673  22.142  36.087   4.825
22194W        W87674  42.449   4.255   9.545
22195W        W87675  11.340  19.604   4.765
22196W        W87676  27.595  30.500   4.264
22197W        W87677   0.953  10.343   1.934
22198W        W87678  30.064   6.783  14.922
22199W        W87679  22.242   0.294   2.346
22200W        W87680   8.282  44.760   4.290
22201W        W87681  33.116  40.968   3.183
22202W        W87682  17.093  44.476   2.770
22203W        W87683  23.028  35.937  13.427
22204W        W87684  14.671   6.238  13.941
22205W        W87685   8.228  27.007   3.791
22206W        W87686  20.115  28.957   3.200
22207W        W87687  34.532  29.922   0.246
22208W        W87688  37.450   0.274   9.920
22209W        W87689  29.161  13.605  11.597
22210W        W87690  32.945   1.886  14.383
22211W        W87691   1.237  15.248   2.410
22212W        W87692  12.744   0.875  12.388
22213W        W87693   6.749  15.670  13.909
22214W        W87694  38.933  10.700  10.569
22215W        W87695  23.019  28.142  11.907
22216W        W87696  23.125  10.350  12.012
22217W        W87697  10.713  19.093  11.935
22218W        W87698  35.481   4.858   4.617
22219W        W87699   6.254  40.352  11.390
22220W        W87700  15.728  21.726   1.804
22221W        W87701  11.736  43.840  11.886
22222W        W87702  38.941  14.648  13.438
22223W        W87703   9.831  43.464  10.413
22224W        W87704  14.590  16.200   4.833
22225W        W87705   2.808  39.839  12.894
22226W        W87706   2.350  14.654   1.823
22227W        W87707  21.724  35.389   0.755
22228W        W87708  43.858  18.185  14.345
22229W        W87709  21.024  11.857   1.791
22230W        W87710  33.943  16.652  12.848
22231W        W87711  21.180  19.537   3.714
22232W        W87712  39.442  23.641   4.300
22233W        W87713  17.738   0.332  11.554
22234W        W87714  39.427  19.168  11.488
22235W        W87715  17.093  19.049   3.648
22236W        W87716  14.211  20.619  11.963
22237W        W87717  29.131   8.747  10.546
22238W        W87718  28.174  26.012  13.489
22239W        W87719  21.088  10.193  13.466
22240W        W87720   9.319  26.492   5.225
22241W        W87721  34.469   6.865  11.920
22242W        W87722  40.981  39.353   2.792
22243W        W87723  18.278  35.451  13.982
22244W        W87724  39.921  26.592  13.517
22245W        W87725  41.470  33.474   1.356
22246W        W87726  42.984  39.878  12.050
22247W        W87727   0.859  34.533  12.550
22248W        W87728  15.307   2.377  13.031
22249W        W87729  34.085  15.804   4.315
22250W        W87730  11.792  14.274   0.933
22251W        W87731  37.878  43.361   3.675
22252W        W87732  39.950  33.554  14.796
22253W        W87733  29.442  38.449   3.172
22254W        W87734  30.439   4.769  14.815
22255W        W87735  22.676  32.628  12.478
22256W        W87736  27.182   0.457  13.383
22257W        W87737  42.781  42.950  10.586
22258W        W87738  14.099   9.284  13.345
22259W        W87739  26.105  21.721  12.541
22260W        W87740  18.547   3.743  11.095
22261W        W87741  38.031  12.665   3.345
22262W        W87742   8.268   8.663   0.294
22263W        W87743   6.315  16.093   3.218
22264W        W87744  25.063  21.178  13.308
22265W        W87745  14.208  23.986   0.780
22266W        W87746  17.243  11.693   0.956
22267W        W87747   2.822   0.318  14.310
22268W        W87748   6.242  28.477   0.394
22269W        W87749  36.861  18.194  13.315
22270W        W87750  24.012  24.166   1.706
22271W        W87751   7.830   9.215  11.078
22272W        W87752  30.939  44.785   3.252
22273W        W87753  22.601  12.829  10.084
22274W        W87754  25.483  10.648   2.705
22275W        W87755  11.360   6.737  13.539
22276W        W87756  43.957  38.003  12.008
22277W        W87757  10.634  33.925   1.730
22278W        W87758   7.768  31.543   4.270
22279W        W87759   7.717  38.513   4.227
22280W        W87760  20.035  10.377  10.523
22281W        W87761  41.367   5.366   4.215
22282W        W87762  37.052  28.505  12.518
22283W        W87763  21.074  30.593   2.707
22284W        W87764  17.568  10.244  12.567
22285W        W87765  10.742  43.279  11.514
22286W        W87766  35.937  43.926   1.339
22287W        W87767   4.838   4.836   2.788
22288W        W87768  35.555  13.307   4.647
22289W        W87769  16.721  23.620  11.454
22290W        W87770   4.754  29.966   2.736
22291W        W87771   2.345   2.852  13.022
22292W        W87772  40.934  18.658  14.951
22293W        W87773  25.592  33.529   1.874
22294W        W87774   8.756  41.039   1.850
22295W        W87775  35.436  35.087  13.011
22296W        W87776  33.902  31.961   0.905
22297W        W87777  23.209  13.224   4.707
22298W        W87778  16.680  14.641  11.457
22299W        W87779  42.493  31.134  14.379
22300W        W87780  20.680   3.896   1.412
22301W        W87781  32.099  30.116   1.295
22302W        W87782  27.008   9.889   4.700
22303W        W87783   7.817  11.692  11.575
22304W        W87784   7.724   7.883   3.777
22305W        W87785  30.034  22.249   2.662
22306W        W87786  34.938  39.015  12.926
22307W        W87787   6.825  31.609   0.820
22308W        W87788  27.481  21.668   2.872
22309W        W87789  13.744  13.269  14.807
22310W        W87790  38.339  19.113   2.771
22311W        W87791  15.772  13.207  12.564
22312W        W87792   5.806   4.882   4.195
22313W        W87793  31.982  11.156   2.711
22314W        W87794  37.087   4.359   3.786
22315W        W87795  14.622   7.330  13.845
22316W        W87796   9.749  29.469   0.259
22317W        W87797  32.125   1.872   4.328
22318W        W87798  15.287  38.436   3.350
22319W        W87799  12.126  23.161   2.387
22320W        W87800   0.307   6.380  12.418
22321W        W87801  33.036   4.818   2.335
22322W        W87802  29.539   9.221  12.523
22323W        W87803  40.479  30.533   5.126
22324W        W87804  21.192  35.479  12.373
22325W        W87805  29.131  34.023   4.785
22326W        W87806  11.734  17.105   4.344
22327W        W87807  19.119   1.332   4.662
22328W        W87808  28.960  21.142  10.558
22329W        W87809   7.343   3.372   2.299
22330W        W87810   9.235  39.455  14.891
22331W        W87811  24.189  28.435   1.869
22332W        W87812  22.246  35.563  11.467
22333W        W87813   0.800  23.557  11.473
22334W        W87814  16.615  36.075  11.977
22335W        W87815   4.205  34.428   3.818
22336W        W87816  17.238   6.921  12.343
22337W        W87817  16.731  28.088  13.520
22338W        W87818  19.617  36.863  13.029
22339W        W87819   0.308  15.644   4.630
22340W        W87820  15.268   8.272  11.977
22341W        W87821  44.004   3.951  13.933
22342W        W87822  42.395  38.552  12.831
22343W        W87823  32.623  14.739  14.019
22344W        W87824  26.642   9.243   2.302
22345W        W87825   6.348  34.039   0.911
22346W        W87826   7.898  13.184  14.987
22347W        W87827  10.185  16.216   3.834
22348W        W87828  41.965   5.403   3.200
22349W        W87829  13.106  19.745  10.118
22350W        W87830   7.303   5.402  11.907
22351W        W87831  13.215  16.593   4.143
22352W        W87832  16.617   3.834  11.444
22353W        W87833  16.796   1.858   0.368
22354W        W87834  17.649  16.655  10.494
22355W        W87835  23.218  19.088   2.739
22356W        W87836  31.017   4.411   2.834
22357W        W87837   0.787  34.946   3.344
22358W        W87838  33.623  29.132  11.089
22359W        W87839   3.315  40.483  13.962
22360W        W87840  31.922   3.443   1.353
22361W        W87841   5.294  42.836   3.636
22362W        W87842  11.218  18.778  10.604
22363W        W87843  21.554  37.013  12.918
22364W        W87844  19.199  34.427  14.886
22365W        W87845  11.845  32.887  14.421
22366W        W87846  27.506  14.181   3.703
22367W        W87847  41.905   7.815  11.932
22368W        W87848   0.369   9.863  14.335
22369W        W87849  33.049  17.787   3.773
22370W        W87850  30.957  25.193  13.982
22371W        W87851   2.865  29.428   1.805
22372W        W87852  42.357  10.199   1.927
22373W        W87853  17.738  33.621  11.082
22374W        W87854  15.289  37.471   4.816
22375W        W87855  35.864  13.258  11.552
22376W        W87856   6.196  42.332  13.835
22377W        W87857  12.818  44.802  14.956
22378W        W87858  44.377  32.012  13.379
22379W        W87859  30.415  15.210  10.555
22380W        W87860  34.904  19.046  14.469
22381W        W87861  30.606  16.139   3.346
22382W        W87862  38.822  39.828  11.588
22383W        W87863  22.246  28.127  14.405
22384W        W87864  26.963  17.279  11.021
22385W        W87865  13.313  18.261   1.316
22386W        W87866   2.819  42.527  11.039
22387W        W87867  31.135   8.723  12.540
22388W        W87868  10.364  34.548  13.984
22389W        W87869   0.778   9.809   2.343
22390W        W87870  34.951  14.692   2.405
22391W        W87871   5.713  41.846  13.841
22392W        W87872  11.683  34.020   1.834
22393W        W87873   6.308   2.869  14.813
22394W        W87874  14.321  40.846   0.814
22395W        W87875  40.913   8.764   1.929
22396W        W87876  32.121  27.627  12.045
22397W        W87877  35.452  29.650  14.379
22398W        W87878  20.660   2.800   0.956
22399W        W87879  34.040  44.971   4.606
22400W        W87880   4.811  16.184  14.291
22401W        W87881  13.237  13.627  14.277
22402W        W87882  25.533  31.063   4.608
22403W        W87883  12.656  26.204   1.932
22404W        W87884  38.882  25.515  10.565
22405W        W87885   2.419  44.782  13.058
22406W        W87886  22.661  41.038  13.861
22407W        W87887  39.516  31.545   0.882
22408W        W87888   5.784  37.959  10.989
22409W        W87889  42.512  12.198   2.362
22410W        W87890  14.242   2.784   1.823
22411W        W87891  20.181  40.806  14.389
22412W        W87892  42.500  12.313  11.437
22413W        W87893   8.806  13.759   0.376
22414W        W87894   7.765  36.995  13.050
22415W        W87895  30.420  31.562   0.890
22416W        W87896  18.054  36.576   4.139
22417W        W87897  38.331   9.663   1.698
22418W        W87898  28.968  23.653  13.547
22419W        W87899  27.523   5.783  12.944
22420W        W87900  14.272  33.983  10.562
22421W        W87901  32.062  13.219  13.407
22422W        W87902  27.190  42.414   4.765
22423W        W87903   8.402   5.755   3.200
22424W        W87904  16.086  43.922   2.724
22425W        W87905  13.264   6.778  14.919
22426W        W87906  16.679  36.580   1.905
22427W        W87907  10.267   9.300  14.341
22428W        W87908  41.832  29.462  13.307
22429W        W87909  16.302   8.838  10.892
22430W        W87910  16.303  16.101   0.967
22431W        W87911  44.852  34.441   2.856
22432W        W87912  21.148   2.922   4.212
22433W        W87913  40.978  41.804   2.393
22434W        W87914   8.712   7.854  11.465
22435W        W87915   0.489  16.812  12.876
22436W        W87916  26.022   0.800  12.869
22437W        W87917  12.722  23.736   4.797
22438W        W87918   3.876  34.010   0.896
22439W        W87919   3.798   1.868  11.053
22440W        W87920   9.283  19.117   3.347
22441W        W87921  15.203  40.522   0.388
22442W        W87922   3.717  14.308   2.709
22443W        W87923  44.849  13.123   3.790
22444W        W87924  17.297  43.880   3.703
22445W        W87925  16.184   0.873   1.255
22446W        W87926  11.671  19.205   1.429
22447W        W87927  31.428  33.496   4.234
22448W        W87928  39.038  26.645  11.864
22449W        W87929  31.484  28.985   0.793
22450W        W87930   8.829  35.538  11.978
22451W        W87931  14.270   6.736  12.379
22452W        W87932  20.742  13.724   3.255
22453W        W87933  42.961  32.131   4.199
22454W        W87934   1.306  44.433  10.449
22455W        W87935  37.560  28.102  12.879
22456W        W87936  20.544  28.600   1.802
22457W        W87937  30.642   4.212   1.755
22458W        W87938   5.216   5.768  11.924
22459W        W87939  20.627  33.533   3.824
22460W        W87940  33.552  14.250   0.373
22461W        W87941  13.748  29.492   4.204
22462W        W87942  33.910  26.976   4.146
22463W        W87943  32.970  17.598   4.280
22464W        W87944  25.984  44.834   0.420
22465W        W87945  19.703   7.224  11.558
22466W        W87946  31.078  17.221  14.943
22467W        W87947  14.335  37.363  11.607
22468W        W87948  23.628  19.105   2.342
22469W        W87949   1.946  10.335   5.228
22470W        W87950   1.254  33.417   9.659
22471W        W87951  28.541  35.482  11.020
22472W        W87952   7.857   2.894   2.744
22473W        W87953  27.054  42.459   2.289
22474W        W87954  30.004  11.701   2.899
22475W        W87955  42.401  22.223   1.720
22476W        W87956  22.652  25.051   0.394
22477W        W87957  20.059  41.368   4.200
22478W        W87958  23.160  21.100   2.770
22479W        W87959  27.180   9.159   4.301
22480W        W87960   0.912  37.562   1.245
22481W        W87961  30.534  30.912   3.214
22482W        W87962  24.536   5.795   0.477
22483W        W87963   4.877   1.754   1.899
22484W        W87964   5.749  37.893  11.442
22485W        W87965  24.492  12.857   4.308
22486W        W87966  13.130  34.408   1.705
22487W        W87967  22.196  14.722   4.725
22488W        W87968   6.798   3.740   2.237
22489W        W87969   2.436   2.774   1.312
22490W        W87970   6.747  34.118  12.411
22491W        W87971  43.777  17.296  10.620
22492W        W87972  23.567   5.233  10.523
22493W        W87973  39.043  22.573  11.971
22494W        W87974  16.774  37.543   0.281
22495W        W87975   4.445   4.893   4.688
22496W        W87976  17.306  16.629  11.962
22497W        W87977   9.888   7.220  13.857
22498W        W87978  21.178  16.751   4.803
22499W        W87979  42.376  20.103  13.416
22500W        W87980   6.841   7.896   4.647
22501W        W87981  37.075   2.826   3.217
22502W        W87982  19.262  28.632   0.847
22503W        W87983   7.669  32.491   0.875
22504W        W87984  28.622  20.223   1.446
22505W        W87985  24.649  38.014  14.323
22506W        W87986  33.098  14.224   4.753
22507W        W87987  32.002  19.623   4.201
22508W        W87988  27.466  39.815   4.629
22509W        W87989   7.373  12.665  11.450
22510W        W87990  21.730  11.297  14.428
22511W        W87991  25.570  44.785  13.869
22512W        W87992  12.619   1.367   0.822
22513W        W87993  33.874   4.826   4.734
22514W        W87994   6.369  21.629  12.546
22515W        W87995  30.551  22.170   0.417
22516W        W87996  22.026  18.152   2.787
22517W        W87997   2.911   2.799  13.447
22518W        W87998  25.689  30.099  14.926
22519W        W87999  19.264  24.562  12.957
22520W        W88000   1.934  36.867  11.392
22521W        W88001   5.819  39.427   3.187
22522W        W88002  33.573   2.228  11.953
22523W        W88003  41.854   5.798   1.882
22524W        W88004  23.065   2.886  14.902
22525W        W88005  28.491  26.090  10.640
22526W        W88006   5.297  21.621  10.465
22527W        W88007   3.953  27.972   3.375
22528W        W88008  40.475  11.755   4.220
22529W        W88009  40.003  22.234   0.426
22530W        W88010  23.701  37.342   0.352
22531W        W88011  22.074  33.947  11.895
22532W        W88012   2.955  35.431   0.299
22533W        W88013  34.511   7.792   4.258
22534W        W88014  18.743  25.144  10.502
22535W        W88015   1.287  22.730   0.954
22536W        W88016  32.494   6.922   1.844
22537W        W88017  42.522   0.805   4.268
22538W        W88018  43.416   0.983  12.827
22539W        W88019  20.582  20.105  14.832
22540W        W88020  35.050  32.891   2.242
22541W        W88021  34.548  34.095   3.741
22542W        W88022  29.150  41.806  14.021
22543W        W88023   7.348   8.758  13.844
22544W        W88024  15.761  36.969   4.277
22545W        W88025  23.518  41.981   4.624
22546W        W88026  30.571  23.084  13.427
22547W        W88027  18.586  19.078   4.314
22548W        W88028  36.418  43.003  14.333
22549W        W88029  23.585  22.522  12.016
22550W        W88030  11.839   0.889   1.765
22551W        W88031  30.504  25.183  14.906
22552W        W88032  10.204  10.336   3.806
22553W        W88033   7.332   5.401  10.425
22554W        W88034  36.588  16.687  13.951
22555W        W88035  11.320  40.548  13.527
22556W        W88036   3.375  35.482   9.545
22557W        W88037  13.769  28.136   2.212
22558W        W88038  13.295  39.039   2.854
22559W        W88039  31.099  42.933   3.710
22560W        W88040  32.393  13.658  12.419
22561W        W88041  39.061  31.627  10.615
22562W        W88042  10.726  37.436  12.026
22563W        W88043   0.271  11.212  12.384
22564W        W88044   9.187  23.009  10.556
22565W        W88045   7.730  18.611   1.413
22566W        W88046  36.361  21.065  14.790
22567W        W88047  12.778  22.606   3.305
22568W        W88048  15.597  18.095   0.363
22569W        W88049  35.076  28.522   4.237
22570W        W88050  34.906  39.360  10.998
22571W        W88051  22.564  26.613   4.226
22572W        W88052  31.094   1.311   4.671
22573W        W88053   8.764  29.652   5.161
22574W        W88054  33.595  34.014   3.858
22575W        W88055   3.221  29.567   0.453
22576W        W88056  32.900  16.597   4.306
22577W        W88057   0.355  42.422   3.708
22578W        W88058   1.877   8.248   3.289
22579W        W88059  22.519  36.423  11.121
22580W        W88060  24.656  26.669   2.390
22581W        W88061  39.884  19.591  13.423
22582W        W88062  18.151  40.539   2.830
22583W        W88063  14.595  36.983  11.022
22584W        W88064  14.744  18.290  13.407
22585W        W88065  41.430  23.150  15.000
22586W        W88066  35.032  35.424  11.127
22587W        W88067   1.819  21.018  12.956
22588W        W88068   0.963  21.194   4.682
22589W        W88069  36.475  10.175   4.259
22590W        W88070  13.162   1.772   2.298
22591W        W88071   2.892  25.639  12.969
22592W        W88072  17.673  21.101   0.467
22593W        W88073  21.553  25.180  14.896
22594W        W88074  29.611  28.088   4.188
22595W        W88075  13.779  39.940   3.346
22596W        W88076   8.308  37.926   1.245
22597W        W88077  25.107  19.217   0.738
22598W        W88078  19.050  27.060   1.246
22599W        W88079  41.511  33.578   4.677
22600W        W88080  16.674  39.019   2.337
22601W        W88081  38.455   2.375   0.430
22602W        W88082  11.225  18.546   0.826
22603W        W88083  32.457  33.932  12.029
22604W        W88084  12.642  22.590  10.578
22605W        W88085  24.099  34.072  13.019
22606W        W88086  29.175  23.613   2.767
22607W        W88087  37.445   9.260   2.344
22608W        W88088  41.342   1.962  11.446
22609W        W88089  23.207  34.475  14.296
22610W        W88090  22.655   4.766  14.338
22611W        W88091  38.484  35.482  10.637
22612W        W88092  37.554   9.875   2.404
22613W        W88093  11.678  10.788   4.712
22614W        W88094  11.858   0.833  10.583
22615W        W88095  14.775  24.017   3.771
22616W        W88096  44.360  27.960   4.703
22617W        W88097  11.831   2.358   1.382
22618W        W88098  43.012  23.705  14.903
22619W        W88099  44.274   9.706  12.405
22620W        W88100  38.342  22.173   2.270
22621W        W88101  35.564  33.521  14.515
22622W        W88102  22.549   5.357   0.768
22623W        W88103  35.510  15.238  12.870
22624W        W88104  27.553  27.617   4.810
22625W        W88105  32.104  42.323  12.406
22626W        W88106  34.612  27.003  12.055
22627W        W88107  34.082  29.435   4.731
22628W        W88108   5.692  38.514   1.274
22629W        W88109  39.809  20.553  12.899
22630W        W88110  23.225  37.853   4.602
22631W        W88111  15.618  10.141   3.866
22632W        W88112  32.628  23.125  11.896
22633W        W88113   1.951  36.974  10.461
22634W        W88114  39.045  11.723  14.996
22635W        W88115  15.707  12.356  13.029
22636W        W88116   4.320   0.454  13.440
22637W        W88117  20.593  40.954  13.512
22638W        W88118  31.405  36.488  14.771
22639W        W88119  26.113  39.925   0.890
22640W        W88120  10.700  33.939   3.766
22641W        W88121  19.607   5.243   0.452
22642W        W88122   7.261  42.386  10.617
22643W        W88123  43.302  29.645  14.027
22644W        W88124  43.009  12.793   3.780
22645W        W88125  30.987  29.445  13.531
22646W        W88126  28.463  27.509   4.778
22647W        W88127   3.724  39.482  13.865
22648W        W88128  27.672   1.879  11.439
22649W        W88129  11.196  28.671  14.990
22650W        W88130  14.701  20.769   2.888
22651W        W88131  44.886  41.499  14.919
22652W        W88132  20.140  33.987  12.368
22653W        W88133   8.186  22.022   1.346
22654W        W88134  36.987  13.807  13.061
22655W        W88135  28.124  35.539   2.366
22656W        W88136   1.478  19.544  10.519
22657W        W88137  13.122  37.002   1.436
22658W        W88138  33.625  38.968  12.847
22659W        W88139  15.295  11.782   0.407
22660W        W88140  10.372  13.775  12.434
22661W        W88141  20.654  14.621   1.877
22662W        W88142  18.212   0.305  12.862
22663W        W88143  41.838  30.575  13.845
22664W        W88144  36.010   8.796  11.395
22665W        W88145  40.426  36.864   1.837
22666W        W88146  24.680   7.881  14.406
22667W        W88147   2.264  31.557  12.969
22668W        W88148   3.232   8.661  10.893
22669W        W88149  14.293  24.032  13.005
22670W        W88150   0.278  31.635   2.262
22671W        W88151   6.284  31.971   3.693
22672W        W88152  23.606  37.561  10.431
22673W        W88153   3.879  29.024  14.313
22674W        W88154   9.251   3.871  12.835
22675W        W88155  12.764  16.656  11.466
22676W        W88156  22.682  27.610   9.960
22677W        W88157  32.954  13.816  13.056
22678W        W88158  23.651  30.601   1.798
22679W        W88159   4.373  23.003  10.436
22680W        W88160  18.735  30.639  12.413
22681W        W88161   4.441  17.693   1.728
22682W        W88162  18.580   2.859   4.662
22683W        W88163  43.277  39.439   3.300
22684W        W88164  13.633  26.613   3.839
22685W        W88165  29.616  22.586   1.282
22686W        W88166  10.329   4.390  12.486
22687W        W88167  12.337   9.857   1.332
22688W        W88168  34.971  34.440  14.460
22689W        W88169   4.833  34.992   1.850
22690W        W88170  43.515   5.726   1.269
22691W        W88171  31.031  13.137  10.541
22692W        W88172  13.285  27.626  14.372
22693W        W88173   5.216  17.061  12.982
22694W        W88174   1.859   3.808   1.858
22695W        W88175  12.821  16.078  14.511
22696W        W88176   2.340  27.680   3.647
22697W        W88177  26.042  19.621  14.789
22698W        W88178   8.287  42.979   0.348
22699W        W88179  31.952  19.579   2.370
22700W        W88180  39.468  44.357   0.858
22701W        W88181  37.403  26.106   0.945
22702W        W88182  29.452   6.396  13.922
22703W        W88183  28.036  34.479   2.812
22704W        W88184  14.096  30.120  12.449
22705W        W88185  24.992  31.930   3.725
22706W        W88186   5.731  29.589  11.932
22707W        W88187  22.648  15.089   2.190
22708W        W88188  37.444  12.729  11.077
22709W        W88189  17.149   4.726  12.019
22710W        W88190  27.959  30.639   2.381
22711W        W88191  13.349  13.221  10.987
22712W        W88192   6.203  13.252  14.808
22713W        W88193  20.091  25.567  14.499
22714W        W88194   1.398  12.825   3.688
22715W        W88195  41.934   6.830   0.924
22716W        W88196   5.791  21.153   1.712
22717W        W88197  32.409  22.252  11.509
22718W        W88198   2.838  31.102  14.948
22719W        W88199   2.861  28.060   1.886
22720W        W88200  30.057  32.008  14.473
22721W        W88201  32.467  43.417   3.259
22722W        W88202  14.273  20.052  10.564
22723W        W88203  30.058  10.817  13.863
22724W        W88204  17.716   5.882  10.927
22725W        W88205  26.496   4.277  13.370
22726W        W88206  20.766  20.133   2.861
22727W        W88207  44.290  17.268  12.891
22728W        W88208   1.816   1.321   0.768
22729W        W88209  12.681  10.851  11.971
22730W        W88210  22.121  39.950  14.472
22731W        W88211  16.182  43.473   3.844
22732W        W88212  20.695  34.101  12.494
22733W        W88213  35.603  19.578   2.879
22734W        W88214   2.393  26.013  13.490
22735W        W88215  25.088  12.168  12.086
22736W        W88216  40.825   4.921   2.399
22737W        W88217  17.242  44.431  10.999
22738W        W88218  20.680  42.775  10.480
22739W        W88219  37.978  18.276   1.750
22740W        W88220  34.431  26.600   3.712
22741W        W88221  22.188   7.289  10.947
22742W        W88222  10.745  36.586  11.971
22743W        W88223  32.554  35.995  12.513
22744W        W88224  38.514  18.164   0.430
22745W        W88225  19.776  23.609   4.737
22746W        W88226  30.571  30.554   2.730
22747W        W88227  13.170  39.547   3.857
22748W        W88228  25.982  19.616   4.770
22749W        W88229   5.844  18.123   3.301
22750W        W88230  21.683  19.569   1.289
22751W        W88231  11.205  39.898   0.959
22752W        W88232  37.525  31.537  13.028
22753W        W88233  28.535  34.454   0.450
22754W        W88234  22.612  38.038  13.477
22755W        W88235  36.923  35.888  12.420
22756W        W88236  38.558  17.164   1.443
22757W        W88237  20.123  22.073  14.869
22758W        W88238  36.542   3.930   0.426
22759W        W88239   8.688  26.471   0.354
22760W        W88240   9.172  15.633  10.571
22761W        W88241  17.772  39.495   1.258
22762W        W88242  41.028  42.975  10.908
22763W        W88243  15.605   2.870  13.456
22764W        W88244  16.609   7.268   2.879
22765W        W88245  32.039   1.919  11.000
22766W        W88246   2.384  34.097   0.364
22767W        W88247  20.085  42.446   2.882
22768W        W88248  14.597  43.934  14.431
22769W        W88249  27.460  43.340   4.838
22770W        W88250  29.643   2.847  11.927
22771W        W88251  10.273   0.474   2.317
22772W        W88252  21.064  24.195  12.926
22773W        W88253  22.672  13.250   4.212
22774W        W88254  10.233  16.072   4.299
22775W        W88255  22.026  25.600   4.271
22776W        W88256  31.909  18.141  11.372
22777W        W88257  28.011   1.279  10.624
22778W        W88258  13.154  43.879   1.815
22779W        W88259  21.142  11.709   1.224
22780W        W88260  28.095   8.874   1.836
22781W        W88261  17.098  43.489  13.454
22782W        W88262  37.907  16.090  12.904
22783W        W88263  34.072  26.546  12.022
22784W        W88264   3.921  28.016   4.646
22785W        W88265  33.415  15.648   3.378
22786W        W88266  15.277   3.809  14.378
22787W        W88267   0.339   8.821  11.481
22788W        W88268   8.320   1.855   1.408
22789W        W88269   1.815  22.703  12.048
22790W        W88270  38.942  23.991  12.846
22791W        W88271  31.037  17.683   3.223
22792W        W88272  33.447   1.791  14.762
22793W        W88273  14.641  11.732   5.300
22794W        W88274  43.796  24.073   3.157
22795W        W88275  34.545   1.411  12.976
22796W        W88276  18.206  10.356   3.847
22797W        W88277  38.412  35.069  10.991
22798W        W88278   9.379  20.081  14.007
22799W        W88279  35.865  43.020  11.374
22800W        W88280  13.606  10.788   3.152
22801W        W88281  11.260  18.230   4.742
22802W        W88282  31.961  37.437   2.767
22803W        W88283  21.699   4.273  14.320
22804W        W88284  22.112  19.649  12.416
22805W        W88285  29.047   9.165  13.440
22806W        W88286  33.613  43.779  13.369
22807W        W88287   1.371   4.935  12.467
22808W        W88288  36.358   4.411   2.804
22809W        W88289  15.144  44.394   3.328
22810W        W88290  21.057  34.426   2.386
22811W        W88291   3.434  31.153   0.445
22812W        W88292  27.088   0.897   1.271
22813W        W88293  35.906  25.485   0.853
22814W        W88294  33.408   6.840   2.775
22815W        W88295  11.239  42.882   0.815
22816W        W88296  23.505  16.299   4.614
22817W        W88297  25.165   8.661   2.272
22818W        W88298  39.870   4.405  10.057
22819W        W88299  21.153  17.735  10.606
22820W        W88300  10.791  18.198   2.726
22821W        W88301  14.299  35.057   3.631
22822W        W88302  13.127   2.731   0.828
22823W        W88303  25.118   7.259   2.306
22824W        W88304   0.384   5.330   3.860
22825W        W88305   5.322   4.251  11.977
22826W        W88306  27.472  16.144   0.410
22827W        W88307   1.237  28.680   4.202
22828W        W88308  37.561  32.078   2.795
22829W        W88309  33.990  21.528   0.315
22830W        W88310   1.917  17.736   3.706
22831W        W88311  44.327  12.633   1.272
22832W        W88312  11.168  44.459   2.377
22833W        W88313  15.271  28.041   4.143
22834W        W88314   1.786  22.069  13.900
22835W        W88315  25.595  20.675   0.309
22836W        W88316  33.886  32.422   4.757
22837W        W88317  27.983  21.738  13.365
22838W        W88318   1.798   4.912  13.793
22839W        W88319  14.168  18.250   0.373
22840W        W88320  11.761  30.468   4.238
22841W        W88321  13.115  29.500   2.328
22842W        W88322  33.381  14.710   4.336
22843W        W88323  17.766  18.171  11.412
22844W        W88324  13.668  40.403   4.146
22845W        W88325  21.204   5.407   0.472
22846W        W88326  32.004  19.273  12.834
22847W        W88327   2.400  18.190   3.720
22848W        W88328  30.033   2.822  11.569
22849W        W88329  28.680  41.468  10.549
22850W        W88330  24.195   7.240   0.387
22851W        W88331  19.592   1.853  14.893
22852W        W88332  15.123   6.238   2.337
22853W        W88333  31.948  17.129  14.908
22854W        W88334  34.376  16.147   0.447
22855W        W88335   4.839  32.419   0.758
22856W        W88336   6.233   9.176   3.804
22857W        W88337  19.193  20.178   2.767
22858W        W88338  25.154  39.491  11.887
22859W        W88339  22.175  12.292   0.448
22860W        W88340  39.008  22.074   2.848
22861W        W88341  22.198  19.266   3.334
22862W        W88342  11.215  40.310   3.288
22863W        W88343  26.099  18.059   4.768
22864W        W88344  41.321  27.025  14.910
22865W        W88345  22.101  20.554   4.354
22866W        W88346   3.341  41.490   0.786
22867W        W88347  19.272  18.757   4.308
22868W        W88348  33.087  34.059   2.697
22869W        W88349  14.150   5.788   3.776
22870W        W88350  31.582  35.382   2.855
22871W        W88351  18.571   9.185   1.839
22872W        W88352  38.819  32.410   1.867
22873W        W88353   6.749  31.048   4.807
22874W        W88354  33.041   1.921  12.073
22875W        W88355  41.509  23.145  14.513
22876W        W88356  35.918  31.512   3.243
22877W        W88357  23.131  33.117   0.801
22878W        W88358  35.587  34.917   3.773
22879W        W88359  31.020  43.937  12.829
22880W        W88360  36.849  19.096   0.897
22881W        W88361  19.579  11.361  14.916
22882W        W88362   9.255  31.407   0.247
22883W        W88363   8.334  44.488   4.116
22884W        W88364  13.246   1.276  14.412
22885W        W88365  20.588   6.208  11.374
22886W        W88366  17.736  30.516   0.254
22887W        W88367  21.590  18.169   4.326
22888W        W88368  41.530   1.363  12.517
22889W        W88369  17.131   0.770   9.967
22890W        W88370  18.078  16.134  13.859
22891W        W88371  37.494  32.448  14.959
22892W        W88372   2.345  43.980   2.758
22893W        W88373   1.765  30.915   3.268
22894W        W88374  15.754  14.633   5.188
22895W        W88375  20.073  43.012  14.890
22896W        W88376  11.346  32.567   2.256
22897W        W88377  21.120  29.154   1.797
22898W        W88378  24.656   9.252  14.311
22899W        W88379   2.350  14.757  14.782
22900W        W88380  28.970  17.619  13.928
22901W        W88381  28.630  42.451   3.787
22902W        W88382  19.084   8.766   2.789
22903W        W88383  23.118  44.994   9.532
22904W        W88384   1.784  27.468   4.616
22905W        W88385   5.844  18.755   4.694
22906W        W88386  12.232  28.577  13.312
22907W        W88387  10.742   9.151  14.811
22908W        W88388  19.153   5.740   2.193
22909W        W88389  26.681  21.578   3.699
22910W        W88390  16.720  33.948  11.122
22911W        W88391  38.834   1.734   2.674
22912W        W88392  13.264  44.383  12.493
22913W        W88393  24.221  37.076   0.801
22914W        W88394  17.216  33.478   2.259
22915W        W88395  40.054  35.938   3.332
22916W        W88396   1.977  18.647  14.887
22917W        W88397  28.002  39.823   3.268
22918W        W88398  23.633   3.233   4.815
22919W        W88399  43.949  37.086  12.559
22920W        W88400  11.184  27.038  10.976
22921W        W88401  15.310  15.145   0.828
22922W        W88402   0.408  11.240   1.714
22923W        W88403  35.039  12.615  13.023
22924W        W88404  10.640   0.365   4.221
22925W        W88405  17.061  30.533   5.291
22926W        W88406   6.872  12.309   0.431
22927W        W88407  37.539  42.415  11.594
22928W        W88408  42.472   8.383   4.599
22929W        W88409  14.759  31.409  13.313
22930W        W88410   4.264  16.596   0.307
22931W        W88411  34.422  27.568   4.163
22932W        W88412  39.952   0.363  12.463
22933W        W88413  32.537  22.746  12.992
22934W        W88414   0.374   6.286  14.893
22935W        W88415  24.528  38.495  11.450
22936W        W88416  20.704   2.456  14.970
22937W        W88417   8.356  42.864   2.762
22938W        W88418   2.731  25.120   1.816
22939W        W88419   5.331  34.377  14.327
22940W        W88420  11.660   2.751  10.427
22941W        W88421   1.386   0.746  14.785
22942W        W88422  14.702  43.321  12.517
22943W        W88423   8.375  38.440  13.343
22944W        W88424  41.918  14.187  14.500
22945W        W88425  25.702   7.357   3.269
22946W        W88426  41.981  24.594   1.269
22947W        W88427   6.864  14.162  11.962
22948W        W88428  20.543  32.591  13.806
22949W        W88429  32.113  25.989  13.008
22950W        W88430  32.897   6.770   4.768
22951W        W88431  43.944   7.409  14.844
22952W        W88432  31.500  19.110  12.388
22953W        W88433  34.571   8.338   0.964
22954W        W88434  22.067  23.199   4.752
22955W        W88435  32.937  23.508  10.561
22956W        W88436  19.545  24.053   3.200
22957W        W88437   8.715  41.961  14.365
22958W        W88438  36.476  20.704   0.750
22959W        W88439  32.023   4.749   3.645
22960W        W88440  44.498  44.777  12.533
22961W        W88441  42.488  13.136  14.951
22962W        W88442  37.506  26.123   1.253
22963W        W88443  23.231  19.615   3.198
22964W        W88444   1.457  19.570  13.486
22965W        W88445   2.830  10.219   3.288
22966W        W88446  34.434  20.678  14.839
22967W        W88447  29.073  19.202  11.567
22968W        W88448  29.485  26.520  10.048
22969W        W88449  20.227  13.746  13.854
22970W        W88450   7.398  14.147  12.083
22971W        W88451  11.148   0.753   4.165
22972W        W88452  38.013   7.314   3.772
22973W        W88453  33.106  33.494  12.901
22974W        W88454  11.746  39.446  13.870
22975W        W88455  13.736  38.927   9.929
22976W        W88456  35.942   5.694   1.391
22977W        W88457  32.008  26.138  10.488
22978W        W88458  44.472   8.217  13.059
22979W        W88459   9.715  41.483   3.275
22980W        W88460   7.397  28.479   4.131
22981W        W88461   2.397  13.689   4.135
22982W        W88462  29.536  33.604  12.074
22983W        W88463  39.497   6.680   0.795
22984W        W88464  35.416  15.155   2.788
22985W        W88465  22.119   4.708   0.291
22986W        W88466  28.523  17.193  10.103
22987W        W88467  32.620  23.021  13.345
22988W        W88468   4.301   5.238  13.819
22989W        W88469  37.366  31.052  13.828
22990W        W88470  42.359  38.998   3.382
22991W        W88471  13.306  33.480  11.386
22992W        W88472  10.672  27.958   0.448
22993W        W88473  41.295   4.920  14.906
22994W        W88474  36.005  41.841  14.798
22995W        W88475   4.357  44.849   2.754
22996W        W88476   6.837  23.703   0.850
22997W        W88477  17.571  12.780  13.896
22998W        W88478  38.852  24.183  12.432
22999W        W88479  36.539  11.823   2.371
23000W        W88480  15.598  37.948  12.448
23001W        W88481  10.302  41.897   1.768
23002W        W88482  20.732  21.047   0.317
23003W        W88483  22.570  19.682  14.793
23004W        W88484  37.560  10.841   0.462
23005W        W88485   9.681  11.640   4.168
23006W        W88486  20.151  10.801   3.148
23007W        W88487  25.668  11.776  12.915
23008W        W88488  41.305   6.721   5.661
23009W        W88489   5.361  24.995   1.348
23010W        W88490  32.486  23.585  11.859
23011W        W88491   5.926  43.992  13.968
23012W        W88492  40.947   1.971   5.172
23013W        W88493   7.172  37.021   2.691
23014W        W88494  24.491  43.477   0.409
23015W        W88495  40.981  35.905  11.115
23016W        W88496  32.116  22.746   2.796
23017W        W88497  18.703   0.755   2.739
23018W        W88498  42.973   4.319   3.273
23019W        W88499  27.643  16.576   3.708
23020W        W88500  16.707  18.272  11.938
23021W        W88501  22.172  17.110   4.351
23022W        W88502  21.063  36.944   5.281
23023W        W88503  11.157   4.940  12.042
23024W        W88504  33.566  33.992   0.323
23025W        W88505  16.761  15.257   3.357
23026W        W88506   3.864  25.495   4.607
23027W        W88507  36.547  18.286  11.904
23028W        W88508   9.644   8.307   2.782
23029W        W88509  40.402  32.562   2.224
23030W        W88510  41.303  39.909  12.952
23031W        W88511  41.476   1.925  10.537
23032W        W88512   3.409  14.175   1.326
23033W        W88513  14.787  14.741   2.679
23034W        W88514  31.634  37.954  11.912
23035W        W88515  22.149  18.617  11.891
23036W        W88516  41.854  18.169   2.190
23037W        W88517  43.866  11.811   0.808
23038W        W88518  14.195  34.492  11.470
23039W        W88519  29.125  42.512   1.246
23040W        W88520   0.345  23.230  12.072
23041W        W88521  17.775  37.433   2.842
23042W        W88522  15.175  29.134  14.430
23043W        W88523   9.669  30.996   2.864
23044W        W88524  43.960  11.285  13.366
23045W        W88525   0.775  37.469   0.426
23046W        W88526   4.936  13.331  11.558
23047W        W88527  13.297   5.230   3.797
23048W        W88528  14.722   5.842   3.649
23049W        W88529  26.204  24.227  12.058
23050W        W88530  21.239  10.220  14.505
23051W        W88531  27.108  11.209   2.314
23052W        W88532   8.739  10.663  13.486
23053W        W88533  15.772  32.035  13.969
23054W        W88534  23.499  10.790   2.830
23055W        W88535   7.289  30.923  12.863
23056W        W88536  17.095  39.833   1.281
23057W        W88537  18.650  12.796   1.750
23058W        W88538  26.104  41.340   1.432
23059W        W88539   2.323  26.127  14.307
23060W        W88540  41.463   5.397  12.958
23061W        W88541  25.523  25.059   5.100
23062W        W88542  15.659   8.779   1.873
23063W        W88543   3.729   4.441   4.788
23064W        W88544  10.231   7.284   4.202
23065W        W88545  33.558  16.255  12.498
23066W        W88546  16.296  41.401   0.465
23067W        W88547  14.283  33.586   0.348
23068W        W88548  42.981  32.504   4.163
23069W        W88549  30.457  12.793  12.464
23070W        W88550  35.568  12.701  12.841
23071W        W88551  24.985  33.920   3.255
23072W        W88552  38.958  24.622   0.279
23073W        W88553  17.707   9.744  13.962
23074W        W88554  23.059  33.995  14.463
23075W        W88555   1.957  18.607  13.828
23076W        W88556   3.357  39.499   0.917
23077W        W88557  21.194  13.816  12.439
23078W        W88558   3.920  17.615  13.979
23079W        W88559  19.093  35.899   4.663
23080W        W88560  19.217  44.816  11.055
23081W        W88561  30.912  35.594   3.775
23082W        W88562  32.924   7.683   2.306
23083W        W88563  41.833  18.600   2.662
23084W        W88564  38.958   9.314   0.387
23085W        W88565  25.591   1.258  11.559
23086W        W88566   2.766   1.911  12.059
23087W        W88567  29.618  28.576   2.866
23088W        W88568   6.374   7.256   2.857
23089W        W88569  17.762   6.334   3.827
23090W        W88570   6.344  12.308   3.248
23091W        W88571  24.542   4.819  12.989
23092W        W88572   7.416   8.397   4.722
23093W        W88573   9.757  28.977   3.231
23094W        W88574  34.401  12.296  13.316
23095W        W88575  28.122  41.391  11.862
23096W        W88576   3.843  37.911  14.414
23097W        W88577  28.608  42.284   0.295
23098W        W88578  23.537  38.925   2.788
23099W        W88579  21.188  44.432   2.740
23100W        W88580  34.055  31.963   3.332
23101W        W88581  14.682  37.410   1.717
23102W        W88582  21.571   8.259   0.934
23103W        W88583  37.935  41.889   4.690
23104W        W88584  38.385  25.552  13.911
23105W        W88585  36.953  14.292   3.632
23106W        W88586   0.260   5.899  14.367
23107W        W88587   0.424  39.033   2.393
23108W        W88588  40.934  30.482   2.341
23109W        W88589  23.187  43.320  13.334
23110W        W88590  17.114  31.896  14.794
23111W        W88591  36.980  10.774   3.698
23112W        W88592  18.579   8.796   2.362
23113W        W88593  12.643  34.105  14.867
23114W        W88594  12.733  28.649  10.406
23115W        W88595  15.626  18.702   1.417
23116W        W88596  21.218  11.331  10.003
23117W        W88597  24.671   6.203   4.203
23118W        W88598  35.470  10.174  12.068
23119W        W88599   2.802  40.865  12.519
23120W        W88600  11.865  37.418  13.409
23121W        W88601  18.133   1.779  13.471
23122W        W88602  26.657  21.116   4.672
23123W        W88603  13.655  20.553  12.466
23124W        W88604  15.586  27.035  13.901
23125W        W88605   0.405  41.878  12.993
23126W        W88606   0.265  41.527  14.362
23127W        W88607   2.835  28.449   2.327
23128W        W88608  28.181  32.461   9.969
23129W        W88609  43.936   9.189  12.034
23130W        W88610  19.166   0.300   1.350
23131W        W88611  42.846  41.354   1.377
23132W        W88612   5.403   5.302  14.780
23133W        W88613  32.097  19.284   2.380
23134W        W88614  17.171  23.184  13.515
23135W        W88615  35.968  18.137   2.363
23136W        W88616  16.180  19.750  12.913
23137W        W88617   5.412  29.588  13.993
23138W        W88618  11.370  15.294   4.326
23139W        W88619  32.044  31.129   4.834
23140W        W88620   1.820  17.295   3.331
23141W        W88621  33.884  40.398   3.717
23142W        W88622  33.086  11.815  11.903
23143W        W88623   4.406  43.956   1.261
23144W        W88624   1.366  41.493   1.444
23145W        W88625  19.565  25.619   0.798
23146W        W88626   9.270   1.262   4.295
23147W        W88627  44.440  23.652  11.028
23148W        W88628  11.181   9.753   2.347
23149W        W88629  15.154  41.787   0.254
23150W        W88630  42.424  33.934   4.290
23151W        W88631  34.949   8.288   1.844
23152W        W88632   9.743  26.688  12.963
23153W        W88633  34.900  16.672   4.129
23154W        W88634  44.259  41.500   0.745
23155W        W88635  15.164  23.561   1.836
23156W        W88636  34.440  22.533   0.810
23157W        W88637  39.010  13.105  10.505
23158W        W88638  24.549  17.149   0.311
23159W        W88639   4.412  38.368  13.822
23160W        W88640  12.793  16.804  13.991
23161W        W88641  14.669   4.885   4.717
23162W        W88642  42.837  12.729   4.762
23163W        W88643  26.191  16.149  14.780
23164W        W88644  12.268   9.682   2.781
23165W        W88645  25.619   9.833  11.895
23166W        W88646  21.089  16.077   2.679
23167W        W88647  32.117   2.435   0.811
23168W        W88648   3.783  43.419  14.433
23169W        W88649  23.194  18.168   1.823
23170W        W88650  29.088  24.016  10.528
23171W        W88651   1.750  16.122  12.514
23172W        W88652  40.469   1.433  10.959
23173W        W88653  28.073   1.377  11.998
23174W        W88654  11.337  16.284  10.958
23175W        W88655   4.347  21.698   2.321
23176W        W88656  23.511  23.681  14.427
23177W        W88657   9.715   1.395  12.886
23178W        W88658  19.651  23.116   1.699
23179W        W88659  16.108  26.634   0.387
23180W        W88660   5.884  36.383  11.080
23181W        W88661  33.922   4.780  13.859
23182W        W88662  41.437  26.160  13.849
23183W        W88663  22.663   4.319   0.317
23184W        W88664  27.025  22.093   2.898
23185W        W88665   0.797  10.790  12.064
23186W        W88666   5.905  20.218  11.097
23187W        W88667  42.434   6.205  12.837
23188W        W88668  41.858   1.312  13.406
23189W        W88669  29.655  24.524  12.512
23190W        W88670  19.616  35.523   2.719
23191W        W88671  29.014  13.295  13.910
23192W        W88672  17.301  29.441  12.518
23193W        W88673   2.859  29.494   4.833
23194W        W88674  13.794  21.144   1.391
23195W        W88675   4.909  23.134   4.838
23196W        W88676  23.239  28.142  10.431
23197W        W88677  26.596   2.362  10.527
23198W        W88678  19.712   8.279  12.566
23199W        W88679  41.957   5.204   9.939
23200W        W88680  39.048  19.750  12.872
23201W        W88681  17.713  38.397  12.885
23202W        W88682   2.828  15.670   1.261
23203W        W88683   2.336  26.001   1.734
23204W        W88684  25.987  37.978  13.020
23205W        W88685  38.951  35.026   1.297
23206W        W88686   5.818  44.470  13.307
23207W        W88687  40.543  20.146  14.927
23208W        W88688   7.694  29.142  14.935
23209W        W88689  21.583  41.878  14.293
23210W        W88690  23.167  23.526  12.528
23211W        W88691  14.098   6.781  14.327
23212W        W88692  21.739  38.845  11.451
23213W        W88693  11.634  33.495  13.887
23214W        W88694   8.219  44.481   4.746
23215W        W88695  42.335   0.987  14.789
23216W        W88696  29.596  21.023  13.475
23217W        W88697  28.671  37.862  11.956
23218W        W88698   0.944  41.386   1.379
23219W        W88699  19.242  14.212   1.241
23220W        W88700  11.626  42.017   4.338
23221W        W88701  28.944  17.646   1.233
23222W        W88702  35.869   4.771   3.824
23223W        W88703  38.381  41.439  14.297
23224W        W88704  32.555  19.065  11.902
23225W        W88705  35.994   6.419   2.889
23226W        W88706   8.697  35.597   4.817
23227W        W88707  28.588   5.898  11.392
23228W        W88708  24.985   9.312   1.850
23229W        W88709  42.316  33.875   2.751
23230W        W88710  41.842   2.791  11.118
23231W        W88711  43.860   0.452   3.782
23232W        W88712  35.517  30.088  14.926
23233W        W88713   9.377   8.222   1.251
23234W        W88714  23.600  38.005  14.377
23235W        W88715   5.403  43.491  10.639
23236W        W88716  41.801   9.696   1.701
23237W        W88717   0.271  34.600  11.127
23238W        W88718  24.018  14.643  14.411
23239W        W88719  29.635  29.610  13.536
23240W        W88720   2.460  25.039  13.397
23241W        W88721  43.976   6.280  10.466
23242W        W88722   7.359  27.973  14.852
23243W        W88723  21.181  29.484  10.422
23244W        W88724  39.332  36.359   2.750
23245W        W88725  36.498  11.199   2.778
23246W        W88726   4.924   4.784  12.037
23247W        W88727   2.943  15.746  10.629
23248W        W88728  25.606  34.516  13.053
23249W        W88729  26.084  23.228  12.534
23250W        W88730  25.583  25.588  13.531
23251W        W88731  15.325  25.518   1.303
23252W        W88732   5.251   6.785  14.507
23253W        W88733  18.672  25.008   5.638
23254W        W88734  31.119  26.968  12.371
23255W        W88735  27.525  20.151   4.130
23256W        W88736  20.174  43.962   4.276
23257W        W88737  40.882   2.849  14.982
23258W        W88738  26.624  41.005   1.767
23259W        W88739  11.632  17.592  14.984
23260W        W88740   7.715  22.010   2.903
23261W        W88741  19.262   0.410   2.221
23262W        W88742  43.500  17.263  12.483
23263W        W88743  17.205   5.859  11.964
23264W        W88744  28.058  28.956  12.976
23265W        W88745  36.457  14.112  11.084
23266W        W88746   0.281   6.368  10.620
23267W        W88747  15.173  11.204  14.840
23268W        W88748  35.480   4.341   4.329
23269W        W88749   8.288  40.440  11.490
23270W        W88750  21.172  25.006  14.998
23271W        W88751  10.690  43.302  11.039
23272W        W88752  17.726  41.423  11.859
23273W        W88753  44.796  12.341  12.348
23274W        W88754  42.281  36.984  12.345
23275W        W88755  43.978  26.973  11.020
23276W        W88756   3.451  20.260  11.882
23277W        W88757  40.924  28.488  10.512
23278W        W88758  38.327  35.559  14.314
23279W        W88759   3.404  25.701  10.962
23280W        W88760   1.971  29.511   0.247
23281W        W88761  19.608  33.608   2.252
23282W        W88762  18.571  24.021  10.551
23283W        W88763  26.471  32.442  13.920
23284W        W88764  38.930  32.517  10.480
23285W        W88765  43.472  32.556  13.386
23286W        W88766  43.505  38.397   4.233
23287W        W88767  23.194  32.104   4.626
23288W        W88768  24.165  10.355   2.729
23289W        W88769  29.656   9.156   0.335
23290W        W88770   2.266   0.253   0.966
23291W        W88771  27.080  34.904  10.914
23292W        W88772  13.305  18.759   1.429
23293W        W88773  23.175   3.945   0.393
23294W        W88774  18.783  26.957  11.477
23295W        W88775  11.143  38.417  14.808
23296W        W88776  35.993  24.075  11.060
23297W        W88777  41.429  36.938   3.239
23298W        W88778  23.565  33.090   2.234
23299W        W88779  11.200  42.953  14.348
23300W        W88780  23.594  39.012   4.791
23301W        W88781  29.035   3.345  14.996
23302W        W88782  14.193  16.747   0.390
23303W        W88783  44.370   3.876   1.838
23304W        W88784  30.140  26.164  10.981
23305W        W88785  14.667  20.109  13.057
23306W        W88786   2.806  23.991   0.859
23307W        W88787  18.788  25.009   9.587
23308W        W88788  39.361  10.778  13.477
23309W        W88789  23.684  18.567  12.916
23310W        W88790  42.298  20.197  11.460
23311W        W88791   2.916  44.988  10.625
23312W        W88792  13.784  39.001  14.499
23313W        W88793  33.935  22.244   0.899
23314W        W88794   8.171   9.748   0.408
23315W        W88795  42.497  10.360  14.404
23316W        W88796  39.377  28.609   0.771
23317W        W88797   3.826  30.426   3.694
23318W        W88798  42.362  30.438   3.311
23319W        W88799  28.583  33.468  13.012
23320W        W88800  43.310  30.095  10.532
23321W        W88801  10.808  20.731  14.481
23322W        W88802  15.665  18.201   4.688
23323W        W88803   4.859  23.150   2.235
23324W        W88804   0.458  16.716  11.066
23325W        W88805   0.363   6.789   4.319
23326W        W88806  12.732  19.698  13.845
23327W        W88807   3.807  31.531  14.945
23328W        W88808  18.787  24.588   2.377
23329W        W88809  22.539  14.780  14.457
23330W        W88810  28.151  21.692   3.246
23331W        W88811  14.660  44.902   4.118
23332W        W88812  35.085  41.018  10.990
23333W        W88813  29.482   8.690  10.061
23334W        W88814  30.013  29.099   4.830
23335W        W88815  35.021  21.226  14.822
23336W        W88816  19.107  14.111  11.864
23337W        W88817   2.226  13.744  10.412
23338W        W88818  15.691  20.556   4.616
23339W        W88819   0.922  27.462  13.853
23340W        W88820  11.757  26.628  14.322
23341W        W88821   6.401  10.733  11.995
23342W        W88822  27.940  10.857   4.719
23343W        W88823  10.185   1.975  14.895
23344W        W88824  43.953   3.418   4.263
23345W        W88825   4.339  13.174  13.409
23346W        W88826  32.113   2.820   1.365
23347W        W88827  43.482  36.562   2.205
23348W        W88828  35.867  36.534  13.993
23349W        W88829   5.882  31.610   1.420
23350W        W88830   2.742  12.244   1.698
23351W        W88831   9.329  32.506  13.998
23352W        W88832   0.353   6.801   0.376
23353W        W88833   9.332   9.775   1.321
23354W        W88834  27.598  22.044   3.752
23355W        W88835   9.752   3.433   1.857
23356W        W88836  28.483  43.973   2.753
23357W        W88837  38.064  39.844   4.180
23358W        W88838  33.095   0.355   3.718
23359W        W88839  15.796   7.179  11.461
23360W        W88840  28.074  33.401  13.391
23361W        W88841   3.228  43.464  14.484
23362W        W88842  32.098  32.485  11.893
23363W        W88843  32.573   2.937  11.456
23364W        W88844  28.135  43.283  12.981
23365W        W88845  25.524  39.465  13.881
23366W        W88846  36.591  28.997  13.547
23367W        W88847  31.430  23.712   3.231
23368W        W88848   2.789  10.864   1.450
23369W        W88849   1.246   0.868  12.885
23370W        W88850  40.817   9.717  10.607
23371W        W88851  41.028  43.945   1.285
23372W        W88852  32.945  39.965   2.342
23373W        W88853  32.488  35.360   3.854
23374W        W88854  33.583  15.744   9.928
23375W        W88855  34.909  34.117   4.129
23376W        W88856  32.088   5.752   2.739
23377W        W88857  29.088   0.948  11.575
23378W        W88858  29.170  10.298  12.544
23379W        W88859  27.651   5.251   2.239
23380W        W88860   6.808  36.054  11.905
23381W        W88861  32.974  39.349  11.578
23382W        W88862  22.122  37.398  14.465
23383W        W88863  15.317  36.891   1.289
23384W        W88864  36.048  37.343   4.799
23385W        W88865  15.283  23.075  14.453
23386W        W88866  30.548  29.170   0.284
23387W        W88867   1.456  24.591   2.409
23388W        W88868   5.302  36.037  12.488
23389W        W88869  23.212  29.169  13.497
23390W        W88870   5.346  44.783  14.445
23391W        W88871  20.243  33.434   2.684
23392W        W88872  16.218  27.147   2.364
23393W        W88873  29.585   2.256  13.037
23394W        W88874  34.474  13.343  14.307
23395W        W88875  18.065  15.297  13.359
23396W        W88876   5.315  37.990  11.496
23397W        W88877  15.804  25.998  12.422
23398W        W88878  15.754  38.463  13.796
23399W        W88879   5.412  25.123  11.006
23400W        W88880  34.987  30.564  14.413
23401W        W88881  19.672   3.829   1.794
23402W        W88882  23.646  23.235  14.992
23403W        W88883   1.406  10.194   1.361
23404W        W88884  22.098   9.191   5.218
23405W        W88885  34.514   8.321   3.184
23406W        W88886   3.305  32.960   2.748
23407W        W88887   5.284  33.029  11.537
23408W        W88888  23.611  18.058  14.026
23409W        W88889   6.290  33.950  11.016
23410W        W88890   1.311   8.842   3.298
23411W        W88891  23.074  33.539  11.007
23412W        W88892  18.723  18.178   2.736
23413W        W88893  30.028  23.022  11.914
23414W        W88894  34.066   4.364  12.881
23415W        W88895  26.193  26.058   1.356
23416W        W88896  18.235  31.645   0.440
23417W        W88897  22.723  15.620  14.489
23418W        W88898  38.926  27.520  10.928
23419W        W88899  35.499   6.337  13.365
23420W        W88900  24.023   6.915  12.854
23421W        W88901  39.438  34.101  11.533
23422W        W88902  20.635  17.734   4.220
23423W        W88903  21.687  22.217  12.934
23424W        W88904  44.767  15.153  10.917
23425W        W88905   1.958  27.135  11.601
23426W        W88906  24.063  35.911  10.051
23427W        W88907  31.013  17.599   0.454
23428W        W88908  29.030  36.453   2.185
23429W        W88909  25.148  14.298  14.031
23430W        W88910  20.165  20.736   1.812
23431W        W88911   4.820  42.432   0.843
23432W        W88912   7.406   6.361   3.287
23433W        W88913   5.374  19.624  13.817
23434W        W88914  36.402  28.962   2.343
23435W        W88915  11.736  10.246  12.484
23436W        W88916  11.788  35.565  14.932
23437W        W88917  24.223   1.849  12.411
23438W        W88918  39.052   2.750   2.219
23439W        W88919  23.214  21.111  14.024
23440W        W88920  37.518  40.398  14.009
23441W        W88921  31.589  43.938   0.842
23442W        W88922   0.790  42.891  11.607
23443W        W88923   0.921  38.914   4.209
23444W        W88924  23.646  40.390   4.715
23445W        W88925   5.204  37.019   2.776
23446W        W88926  38.061  30.929  11.418
23447W        W88927  41.531   7.665  12.823
23448W        W88928  23.034  26.482   2.325
23449W        W88929  27.130  11.227   4.185
23450W        W88930  44.762  18.269   1.366
23451W        W88931  19.139   4.321  13.999
23452W        W88932  30.154  24.578  11.463
23453W        W88933  14.316  44.385  12.034
23454W        W88934  35.041  13.768  10.628
23455W        W88935  10.760   1.383  11.407
23456W        W88936  11.194  29.066  12.832
23457W        W88937  37.063   2.403  11.037
23458W        W88938  35.088   8.755   4.294
23459W        W88939  12.813   8.698  11.043
23460W        W88940   0.426  14.189   0.907
23461W        W88941  18.605   1.866  14.966
23462W        W88942   2.778  13.733   0.826
23463W        W88943  13.175  32.919  13.953
23464W        W88944  16.234  26.148  10.503
23465W        W88945  30.135  23.047   4.784
23466W        W88946  15.170  38.382  14.788
23467W        W88947  17.692  28.558   0.272
23468W        W88948   6.224  29.088   1.925
23469W        W88949  25.610  33.562  10.893
23470W        W88950   6.391   5.766  11.053
23471W        W88951   5.829  26.509   4.615
23472W        W88952  26.489  42.992   2.686
23473W        W88953  11.763  15.131  13.815
23474W        W88954  13.174  38.019   4.286
23475W        W88955  21.642   0.486  13.850
23476W        W88956  30.567  22.635  14.008
23477W        W88957   8.231  24.624   0.776
23478W        W88958  14.647  12.315  13.965
23479W        W88959  38.486   9.163  12.096
23480W        W88960  22.668  22.717  14.419
23481W        W88961  13.760  31.409  13.347
23482W        W88962  11.628  24.188  10.906
23483W        W88963  42.954  34.422   0.774
23484W        W88964  35.370  19.196  11.410
23485W        W88965   9.273  35.915  12.056
23486W        W88966  34.487  14.638  11.600
23487W        W88967   5.302  29.481  13.395
23488W        W88968   4.826  23.704  11.495
23489W        W88969  13.747  23.062   1.844
23490W        W88970   9.263  44.500   2.814
23491W        W88971   3.899  21.539   2.773
23492W        W88972   4.854  15.150  10.994
23493W        W88973  38.396   7.689  14.481
23494W        W88974  41.791  44.319   2.281
23495W        W88975  25.181  24.191   2.725
23496W        W88976  40.920  11.203  12.045
23497W        W88977  22.694  18.791  14.835
23498W        W88978  11.857  26.648  12.887
23499W        W88979  43.461  40.808   1.856
23500W        W88980  36.917  35.048  10.434
23501W        W88981  42.890  11.756  14.026
23502W        W88982   9.748  14.812  13.800
23503W        W88983  13.831   2.727  12.544
23504W        W88984  34.888  24.628  11.512
23505W        W88985  43.813  23.538  11.073
23506W        W88986   4.920  16.217   0.412
23507W        W88987  21.547  12.344  10.921
23508W        W88988  34.930  13.154   3.230
23509W        W88989  15.641  27.954   1.443
23510W        W88990  43.319  40.488   4.674
23511W        W88991  11.226  25.964  12.371
23512W        W88992   8.656  16.745  14.883
23513W        W88993  30.444  18.685   2.279
23514W        W88994  21.697  18.689  10.954
23515W        W88995   2.335  38.055   3.850
23516W        W88996  44.893  28.662   2.869
23517W        W88997   6.809  18.289   3.824
23518W        W88998  19.111  40.917  14.031
23519W        W88999  42.881   1.456  14.783
23520W        W89000  35.987  14.758  12.342
23521W        W89001  15.805   2.825   3.707
23522W        W89002   2.834  32.559   0.412
23523W        W89003  18.120   8.175   0.442
23524W        W89004  28.484  14.250  14.360
23525W        W89005  43.846  36.499  11.401
23526W        W89006  33.954  25.692  12.497
23527W        W89007   8.245  43.405   2.815
23528W        W89008  27.656  11.201  10.488
23529W        W89009  41.480  38.901  13.437
23530W        W89010  13.159   3.333   4.686
23531W        W89011  18.104  43.429   4.837
23532W        W89012  12.839   2.331  14.332
23533W        W89013  25.675  43.983  11.479
23534W        W89014  39.406   9.179  11.891
23535W        W89015   1.761  23.020   2.313
23536W        W89016   0.792  42.883   4.629
23537W        W89017  34.571  40.418  11.940
23538W        W89018  41.430   2.811   9.529
23539W        W89019  33.130  10.819   4.253
23540W        W89020  30.037  29.605  13.521
23541W        W89021   2.860  11.203   3.288
23542W        W89022  22.044  34.609   0.744
23543W        W89023  44.360  29.110  10.015
23544W        W89024  33.475  15.755  14.890
23545W        W89025  40.440  13.649  10.936
23546W        W89026   5.789  34.465   5.231
23547W        W89027  35.571  22.500  13.873
23548W        W89028  30.513  24.652  13.350
23549W        W89029  28.174  35.588   0.875
23550W        W89030   0.981   4.932   1.344
23551W        W89031  13.791  36.577  13.510
23552W        W89032  18.184  43.907   4.219
23553W        W89033  41.907  41.507   9.953
23554W        W89034  43.814  13.829  10.514
23555W        W89035  24.186  14.157  11.384
23556W        W89036  31.042  29.611  14.463
23557W        W89037  27.177  22.053  14.889
23558W        W89038  16.678  32.067   2.229
23559W        W89039  15.600  21.659  11.975
23560W        W89040  24.216  19.040   0.334
23561W        W89041  36.966   4.221   2.243
23562W        W89042  34.050   6.840   0.752
23563W        W89043  36.382   3.218   5.304
23564W        W89044   5.398  33.517  12.041
23565W        W89045  17.712  13.835  10.563
23566W        W89046  42.981  10.760   3.735
23567W        W89047  12.168  25.615  11.524
23568W        W89048  41.392  36.929  11.887
23569W        W89049   2.370  29.634   3.223
23570W        W89050  28.131   3.374  11.481
23571W        W89051   5.870   9.318   3.327
23572W        W89052   4.247   7.863   2.326
23573W        W89053  14.154  15.637   3.812
23574W        W89054  25.108  42.295  10.891
23575W        W89055  28.987  27.107  10.515
23576W        W89056  12.156  16.284   2.871
23577W        W89057   6.801  27.506   0.294
23578W        W89058  25.658   4.896  14.985
23579W        W89059  25.479  33.578  14.385
23580W        W89060  19.543  11.255  13.888
23581W        W89061  43.367  19.069   2.699
23582W        W89062   5.891  10.751  14.293
23583W        W89063  43.371  22.058  10.927
23584W        W89064   4.880  34.400  14.499
23585W        W89065  25.471  41.299   2.878
23586W        W89066  31.937  17.180  13.801
23587W        W89067   3.346  15.713   3.670
23588W        W89068   3.710  41.502  13.411
23589W        W89069  17.166  13.790  11.521
23590W        W89070  21.676  15.214  10.430
23591W        W89071   6.913  35.068   4.603
23592W        W89072   7.342  44.301  12.352
23593W        W89073  36.925  12.272  12.341
23594W        W89074   6.856  34.527  14.416
23595W        W89075  26.995  34.002   4.688
23596W        W89076  41.805   0.457   4.311
23597W        W89077   8.332  31.527  13.506
23598W        W89078   0.883   1.281  10.447
23599W        W89079  31.939   3.954  14.975
23600W        W89080  24.625  26.580   4.716
23601W        W89081  11.273  29.021   1.249
23602W        W89082   0.952  15.289  13.864
23603W        W89083  37.986  16.790   4.272
23604W        W89084  33.895   2.449   1.930
23605W        W89085  12.350   2.757  12.005
23606W        W89086  41.494  12.847   3.374
23607W        W89087   4.312  25.085   4.635
23608W        W89088  13.723   8.793  12.571
23609W        W89089   7.839  22.120  12.064
23610W        W89090  41.304  29.077   1.244
23611W        W89091  35.923   9.357  10.955
23612W        W89092   3.856  16.196  11.073
23613W        W89093  10.259  41.031  13.017
23614W        W89094  43.806   4.737  11.997
23615W        W89095   4.300   4.370   0.924
23616W        W89096  28.972  44.501  13.824
23617W        W89097   1.873  38.938   1.764
23618W        W89098  10.153  39.957   4.644
23619W        W89099  15.792   0.450   1.885
23620W        W89100  42.444  16.783   4.662
23621W        W89101  12.180  28.520  14.766
23622W        W89102   4.236   8.710  13.367
23623W        W89103  41.449  44.288  12.421
23624W        W89104  23.571  43.346   1.234
23625W        W89105  21.249  38.502   4.605
23626W        W89106  23.073  29.932   0.833
23627W        W89107  36.346  31.579  12.963
23628W        W89108  34.491   4.836   0.428
23629W        W89109  11.180   0.944   0.736
23630W        W89110  38.523  12.813   0.733
23631W        W89111  32.013   3.713  10.887
23632W        W89112  25.654  21.703   3.814
23633W        W89113  22.141  18.058   4.759
23634W        W89114  32.920  40.981  12.353
23635W        W89115  24.645   2.866   3.325
23636W        W89116  11.137  23.535   3.281
23637W        W89117  11.861  24.984  13.468
23638W        W89118  17.071  12.238  14.934
23639W        W89119  28.435  31.149  12.839
23640W        W89120  44.890   5.822  13.539
23641W        W89121  31.070   1.809  12.853
23642W        W89122  15.601  16.728  12.554
23643W        W89123  20.226   2.874   0.294
23644W        W89124  39.481  23.680  14.868
23645W        W89125  14.748  39.826   2.290
23646W        W89126   2.462  28.081   9.923
23647W        W89127  39.483  36.469   0.920
23648W        W89128  39.473  12.253   3.158
23649W        W89129   7.252  13.235   2.816
23650W        W89130   4.349  33.054  13.044
23651W        W89131   1.257  21.645   2.662
23652W        W89132   3.944  13.834  10.632
23653W        W89133  24.013  22.086  14.432
23654W        W89134   1.852  39.465  14.771
23655W        W89135  24.616   9.317  13.386
23656W        W89136   5.814  33.469  11.396
23657W        W89137  37.580  15.631  13.843
23658W        W89138  17.253  40.014  12.450
23659W        W89139  23.200  12.354   1.762
23660W        W89140  22.547  24.539   4.291
23661W        W89141   0.446  35.060   1.737
23662W        W89142  42.485   9.849   0.828
23663W        W89143  27.971   7.178  13.320
23664W        W89144  33.055   3.369   2.183
23665W        W89145  18.747  38.381  14.443
23666W        W89146  25.211  37.570   1.731
23667W        W89147  17.734  37.945   1.394
23668W        W89148   2.266   8.781  10.105
23669W        W89149  33.425  30.126  11.108
23670W        W89150  18.788  44.828   3.759
23671W        W89151  28.528  16.121  12.034
23672W        W89152  44.344  21.024  12.489
23673W        W89153  33.591  10.147   2.770
23674W        W89154  20.676  17.675   0.768
23675W        W89155   9.717  34.910   3.335
23676W        W89156  33.065  36.890  11.390
23677W        W89157   0.896  15.246  11.381
23678W        W89158  44.912  41.421   3.227
23679W        W89159  40.971   1.275   0.806
23680W        W89160  44.462  32.437   1.275
23681W        W89161  25.088  44.306   1.441
23682W        W89162   1.834  37.066  13.406
23683W        W89163  23.231  44.499   3.837
23684W        W89164  29.044   7.178   4.294
23685W        W89165  21.586   2.316   3.303
23686W        W89166  23.221  30.139  11.996
23687W        W89167  39.462  36.013   2.862
23688W        W89168  34.572  27.991   2.231
23689W        W89169  17.182   2.306  14.950
23690W        W89170  24.116  19.118  13.502
23691W        W89171  33.513  39.390  14.434
23692W        W89172  13.218  18.235  14.978
23693W        W89173  27.496  17.796   1.343
23694W        W89174  21.215  12.810  12.524
23695W        W89175  11.709  34.541   0.875
23696W        W89176  23.138  11.625   1.739
23697W        W89177  19.765  10.721  12.972
23698W        W89178  17.072   5.307  10.594
23699W        W89179  21.723  28.992   4.697
23700W        W89180  30.946   2.905  11.547
23701W        W89181  10.660  42.896   2.309
23702W        W89182   7.400   0.421  11.948
23703W        W89183  32.485  29.493   3.681
23704W        W89184  26.089  25.594   0.444
23705W        W89185  11.317  22.043   0.774
23706W        W89186  39.518  18.557   2.758
23707W        W89187  18.099   6.264  13.879
23708W        W89188  20.548  25.130  12.859
23709W        W89189   0.925  26.564   2.730
23710W        W89190  23.223   5.696   2.354
23711W        W89191  40.431  32.097  11.073
23712W        W89192  28.098  37.520  14.917
23713W        W89193  23.707  29.973   1.842
23714W        W89194  34.552  12.719   3.835
23715W        W89195  10.303  41.463   1.747
23716W        W89196   8.212  29.964   2.229
23717W        W89197   3.856  37.410   4.645
23718W        W89198  40.800   5.425  11.596
23719W        W89199   9.305   7.364  12.913
23720W        W89200  17.066   0.763   2.847
23721W        W89201  12.795  44.307  13.939
23722W        W89202  35.083  40.419  13.801
23723W        W89203   6.340  16.587  14.291
23724W        W89204  17.575  28.163   1.925
23725W        W89205  19.570  34.612   1.711
23726W        W89206   9.174  15.294  12.982
23727W        W89207  33.625  20.582  13.890
23728W        W89208  33.513   1.965   3.756
23729W        W89209  23.989  38.940  11.428
23730W        W89210   1.906  40.440   0.421
23731W        W89211  20.222  28.978   3.866
23732W        W89212  40.887  36.585   4.338
23733W        W89213   2.458  15.594   1.914
23734W        W89214  14.123  39.812   2.350
23735W        W89215  41.388  26.583  12.008
23736W        W89216  37.560  15.756  12.504
23737W        W89217  19.699  29.040   3.381
23738W        W89218  19.646  33.095  12.402
23739W        W89219   7.193   1.734  13.928
23740W        W89220  23.701  20.143   4.143
23741W        W89221  18.179  41.473  14.445
23742W        W89222  37.378  25.550  13.376
23743W        W89223  37.920   0.447   4.236
23744W        W89224  13.182   9.380   2.818
23745W        W89225  20.263   9.825   1.734
23746W        W89226  38.042  19.582   3.683
23747W        W89227  11.805  25.540   1.388
23748W        W89228   6.725  11.137   1.814
23749W        W89229  28.528  11.864   1.812
23750W        W89230   5.308  39.444   2.397
23751W        W89231  30.417  29.528   0.262
23752W        W89232  32.909   1.869  10.593
23753W        W89233   2.309  36.899   2.882
23754W        W89234  23.629  40.475   2.312
23755W        W89235  25.647   9.815   2.813
23756W        W89236  44.899  37.904   3.687
23757W        W89237  28.123  44.812   1.236
23758W        W89238  32.066  10.713  12.999
23759W        W89239  32.094  11.183  12.841
23760W        W89240  10.680  19.062   1.388
23761W        W89241  29.604  24.102  13.829
23762W        W89242  44.353  17.648  13.496
23763W        W89243   0.768  15.195  12.415
23764W        W89244  11.234  26.195   0.750
23765W        W89245  22.094  40.345   4.683
23766W        W89246  26.953   2.879   3.788
23767W        W89247  13.331  17.740   1.225
23768W        W89248  26.597   9.189   0.831
23769W        W89249  12.701  40.908   2.214
23770W        W89250  13.720  27.102  13.402
23771W        W89251   4.791  17.233  11.556
23772W        W89252  37.990  22.629  13.374
23773W        W89253  29.588  34.603   2.289
23774W        W89254  35.060  33.119   4.326
23775W        W89255   9.698  32.908   0.353
23776W        W89256  16.728  17.747  14.803
23777W        W89257   0.452  40.950   4.704
23778W        W89258  35.441   2.323   1.229
23779W        W89259  39.063  21.178  12.353
23780W        W89260  36.077   1.239  12.873
23781W        W89261  36.590  35.466   1.261
23782W        W89262  31.487   4.415   1.222
23783W        W89263  11.680  31.449  14.939
23784W        W89264  39.861  26.549  10.971
23785W        W89265  20.567  41.843   4.203
23786W        W89266  14.668   5.229  10.581
23787W        W89267  22.056  41.916   2.697
23788W        W89268  34.465  41.506   0.314
23789W        W89269  19.700  19.542  12.842
23790W        W89270  14.308  11.842  14.784
23791W        W89271  37.348  20.144  10.487
23792W        W89272  38.824  22.511  10.464
23793W        W89273  12.782  21.085  14.334
23794W        W89274  40.479  11.629   1.801
23795W        W89275   6.771  44.796  12.511
23796W        W89276  22.744  33.987   4.291
23797W        W89277  18.153  13.777  12.479
23798W        W89278  43.377   5.870  12.958
23799W        W89279  44.802  15.595   2.687
23800W        W89280   5.382  38.894  12.070
23801W        W89281  20.711  21.161  12.557
23802W        W89282  17.160  24.167   2.394
23803W        W89283  39.532   0.772  13.408
23804W        W89284  11.819  32.138  10.010
23805W        W89285   0.811  32.091   5.214
23806W        W89286  37.968  35.873  10.497
23807W        W89287  20.583  19.677  14.988
23808W        W89288   1.380  38.850   1.726
23809W        W89289  40.347  27.091   3.736
23810W        W89290   8.384   4.768  14.338
23811W        W89291  11.300  37.983   0.843
23812W        W89292  37.419  37.851  13.944
23813W        W89293   0.941  14.126   0.285
23814W        W89294  23.556  37.854   3.344
23815W        W89295  13.130  16.577  13.963
23816W        W89296  28.671  38.936   1.923
23817W        W89297   2.776  11.857  14.318
23818W        W89298  39.043  16.094   1.928
23819W        W89299  36.949  37.832   1.790
23820W        W89300  17.793  19.282   0.480
23821W        W89301  26.975  18.174  12.042
23822W        W89302  20.632  41.947  14.473
23823W        W89303  44.877   1.855  12.935
23824W        W89304  17.252  10.862   1.869
23825W        W89305  19.662  24.019   5.223
23826W        W89306  33.424  34.934   1.930
23827W        W89307  40.929  33.064  12.516
23828W        W89308  12.125  30.530   2.884
23829W        W89309  33.926  19.093  13.413
23830W        W89310  23.072  12.347  13.841
23831W        W89311   3.774  38.377  13.940
23832W        W89312  14.816  42.811   0.791
23833W        W89313  33.413  11.771  12.948
23834W        W89314  31.586  32.053   0.429
23835W        W89315  41.809   6.760  10.502
23836W        W89316  40.987  34.949   3.320
23837W        W89317  19.080   9.681  11.574
23838W        W89318  11.748  11.695   5.242
23839W        W89319  16.662  13.184   0.336
23840W        W89320  33.006  41.517  10.987
23841W        W89321   8.858  29.173  11.509
23842W        W89322  32.460  36.397  14.350
23843W        W89323  40.482  40.997  13.798
23844W        W89324   9.730  17.237   4.726
23845W        W89325  19.135   8.824  10.504
23846W        W89326  41.805  23.546  13.402
23847W        W89327  13.186   8.258   2.805
23848W        W89328   6.271  25.613   0.868
23849W        W89329  15.676  37.560  11.970
23850W        W89330  34.448  21.622  11.555
23851W        W89331   5.261   1.946   0.343
23852W        W89332  40.544  37.536   4.156
23853W        W89333   4.719   7.748  10.891
23854W        W89334  26.136  30.065   2.826
23855W        W89335  16.071  37.955  13.855
23856W        W89336  16.735   1.839   1.256
23857W        W89337  11.759  31.056   2.340
23858W        W89338  19.142   3.831   4.251
23859W        W89339  14.632  19.192  12.864
23860W        W89340  17.621   2.731  11.473
23861W        W89341  31.980   4.416   1.269
23862W        W89342  37.074   1.931  11.531
23863W        W89343  16.218   6.258   1.280
23864W        W89344  16.781  33.964  14.320
23865W        W89345  43.957   5.205  12.868
23866W        W89346   6.757  14.662   4.646
23867W        W89347  14.801  34.030   1.808
23868W        W89348   6.725  32.951  10.958
23869W        W89349  21.683  23.643   1.222
23870W        W89350  39.843  11.233   4.755
23871W        W89351  25.558   0.360  11.563
23872W        W89352  37.897   4.751  13.363
23873W        W89353  12.338  38.879   0.346
23874W        W89354   2.408  30.129   0.889
23875W        W89355  36.390  23.107   1.841
23876W        W89356  25.140  35.582   3.154
23877W        W89357  34.933  42.426  11.938
23878W        W89358  14.155  19.543   2.672
23879W        W89359   0.486   5.731  11.432
23880W        W89360   8.289  17.167  12.924
23881W        W89361  27.176   6.257  13.499
23882W        W89362  14.814  12.152  13.446
23883W        W89363   0.433  25.052  14.013
23884W        W89364  27.630  15.302   1.285
23885W        W89365  10.877  10.263   1.798
23886W        W89366  16.745  14.338  12.017
23887W        W89367   5.826  12.187  12.988
23888W        W89368   0.766  23.236   1.857
23889W        W89369  29.562  33.442   1.224
23890W        W89370  25.190   2.875   4.226
23891W        W89371   3.906  32.442   3.716
23892W        W89372  40.443  32.032   1.929
23893W        W89373  13.791   5.223   0.729
23894W        W89374  33.919   2.754   0.388
23895W        W89375  23.494  14.198  14.772
23896W        W89376  38.069  39.863   1.806
23897W        W89377  11.237  41.969   0.832
23898W        W89378  43.780   5.736   2.324
23899W        W89379   6.253  43.014   5.276
23900W        W89380  22.174  19.593  14.278
23901W        W89381  21.647  11.335  12.351
23902W        W89382   5.383  23.011  13.957
23903W        W89383  10.641   5.436  12.447
23904W        W89384  22.036  15.697   2.823
23905W        W89385   4.376   4.277   2.749
23906W        W89386  16.709  42.434  10.487
23907W        W89387  38.516  19.215   5.282
23908W        W89388  28.034  20.114   2.866
23909W        W89389  40.010   3.749   0.357
23910W        W89390  44.827  25.148  14.337
23911W        W89391  26.697  30.623   5.121
23912W        W89392  20.586  30.980  11.503
23913W        W89393  29.939  12.145  13.361
23914W        W89394  39.892   4.323   2.366
23915W        W89395  19.088  43.336   3.690
23916W        W89396  44.380  39.344  13.965
23917W        W89397  34.889  21.557  14.508
23918W        W89398  33.973  38.434  11.439
23919W        W89399  38.363   3.767   3.765
23920W        W89400  29.500  33.973   3.766
23921W        W89401  13.794   0.464  11.075
23922W        W89402  40.543  41.317  13.399
23923W        W89403  11.651  17.758   1.434
23924W        W89404   6.718   6.691  10.490
23925W        W89405  25.009  33.407   0.369
23926W        W89406   0.803  16.713   4.262
23927W        W89407  37.540  36.095   4.734
23928W        W89408  37.044   9.342   1.362
23929W        W89409  17.737  17.256  12.401
23930W        W89410   8.209   0.968  13.443
23931W        W89411  28.581  39.474  11.087
23932W        W89412   4.434  22.511  14.491
23933W        W89413  29.533  30.589   1.317
23934W        W89414  10.825  10.777  12.876
23935W        W89415  44.365   3.380   2.837
23936W        W89416  29.086  31.620   3.643
23937W        W89417  20.138  16.691  10.570
23938W        W89418  30.147  32.044   1.401
23939W        W89419  37.477  24.051  13.308
23940W        W89420  43.406   0.248  12.085
23941W        W89421  20.130  31.611  13.474
23942W        W89422  40.801  26.611   3.849
23943W        W89423   5.254  39.054   0.944
23944W        W89424   1.469  36.358  12.518
23945W        W89425  38.369  39.400  11.463
23946W        W89426  23.177  12.737  12.475
23947W        W89427   6.255  41.017   0.434
23948W        W89428  30.909  14.684  13.016
23949W        W89429   0.894  40.928  10.895
23950W        W89430  43.775  23.179   3.660
23951W        W89431   7.764  34.010   4.799
23952W        W89432  14.290  37.936   2.806
23953W        W89433   3.338  26.055  12.044
23954W        W89434   4.736   0.469   0.324
23955W        W89435  42.811  19.656   2.261
23956W        W89436  40.319  44.889  13.463
23957W        W89437  11.207   0.491  10.919
23958W        W89438  27.943  29.522  13.057
23959W        W89439  30.152  15.098  12.485
23960W        W89440  39.435   5.908   0.866
23961W        W89441  24.194  37.518  13.365
23962W        W89442  39.398  33.029  13.381
23963W        W89443  42.412  21.198  11.889
23964W        W89444  27.995  41.372   4.141
23965W        W89445  38.024   1.280  13.518
23966W        W89446  13.686  41.388   5.155
23967W        W89447  11.623  15.578  13.970
23968W        W89448   2.248  44.499  12.925
23969W        W89449  15.816  33.982  13.925
23970W        W89450  13.709   6.416  13.022
23971W        W89451  44.441  36.468   2.855
23972W        W89452  20.617  40.018   2.668
23973W        W89453  42.858   1.835  12.000
23974W        W89454  28.461  32.016  12.575
23975W        W89455  37.833  36.515  14.934
23976W        W89456  10.846  43.349  12.456
23977W        W89457  16.624  35.531   5.639
23978W        W89458   5.930  34.530   2.274
23979W        W89459   3.236   3.382  11.443
23980W        W89460  35.011  35.585  12.451
23981W        W89461  16.758  12.739  11.590
23982W        W89462  41.318   4.734  10.562
23983W        W89463  34.439  33.573  13.494
23984W        W89464  44.323  33.600   3.339
23985W        W89465   0.828  39.810   3.732
23986W        W89466   0.323  12.616  13.375
23987W        W89467  41.820  17.624  14.773
23988W        W89468  28.081  18.221   5.251
23989W        W89469  25.574  16.652  11.471
23990W        W89470  16.262  30.454   2.737
23991W        W89471  17.715  41.491   0.376
23992W        W89472  20.173  30.419   2.290
23993W        W89473  29.602  18.734   4.325
23994W        W89474  28.156  35.914   3.729
23995W        W89475  36.348   0.325   1.390
23996W        W89476  18.609  22.739   0.873
23997W        W89477  12.780  28.628   0.412
23998W        W89478  31.460  14.201   4.235
23999W        W89479  22.210  19.652  11.489
24000W        W89480  42.316  25.538  10.487
24001W        W89481  29.619  32.992  12.855
24002W        W89482   2.810  15.580   4.118
24003W        W89483  20.094   4.905   1.256
24004W        W89484  37.413  17.573   3.782
24005W        W89485   9.269  12.637   4.306
24006W        W89486  21.708  24.480  10.565
24007W        W89487   5.813  41.482   0.947
24008W        W89488  44.277  10.851  14.275
24009W        W89489  22.602  32.919   0.935
24010W        W89490  44.295  41.818   4.230
24011W        W89491   9.841  30.590  10.905
24012W        W89492  33.492  44.480   2.364
24013W        W89493  20.729  16.693   4.138
24014W        W89494  42.324   2.321  10.451
24015W        W89495  15.792  42.491   1.895
24016W        W89496  12.184  43.957  13.943
24017W        W89497  10.338  19.721  12.548
24018W        W89498  44.357  28.054   1.900
24019W        W89499  25.080  25.677   3.231
24020W        W89500  33.999  12.217  10.480
24021W        W89501  36.869   9.686  13.525
24022W        W89502  27.594  14.622  14.931
24023W        W89503  37.985  26.510  12.409
24024W        W89504  26.058  27.960  14.328
24025W        W89505  35.009  15.578  11.405
24026W        W89506  44.761   7.883   3.748
24027W        W89507  18.634  24.018  13.795
24028W        W89508  38.826  36.525   2.349
24029W        W89509   3.798  20.678  11.068
24030W        W89510  21.059  28.039  12.833
24031W        W89511  11.799  28.971   3.631
24032W        W89512  13.348   0.301  13.518
24033W        W89513  27.036  15.263  10.950
24034W        W89514   1.276  28.540  13.368
24035W        W89515  33.480  11.688  11.042
24036W        W89516   5.764   4.723  12.460
24037W        W89517  25.664  36.438  10.501
24038W        W89518  43.882  37.962  14.995
24039W        W89519  33.915   9.674   0.804
24040W        W89520  44.378  19.255   0.736
24041W        W89521  13.262  33.579   5.174
24042W        W89522  10.809  21.511  12.442
24043W        W89523  18.255  14.138   2.861
24044W        W89524  35.048  30.570  12.025
24045W        W89525  10.377  20.197   2.217
24046W        W89526   9.348  43.397   2.740
24047W        W89527  10.739  40.935   0.362
24048W        W89528   8.260   2.895  11.890
24049W        W89529  31.636   3.813  11.455
24050W        W89530  20.561   6.356  13.941
24051W        W89531  11.840  22.060   0.760
24052W        W89532  40.443  29.986   4.736
24053W        W89533  28.072  36.435   1.426
24054W        W89534  18.165   8.393  10.928
24055W        W89535  44.483   1.273  13.545
24056W        W89536  34.574  43.989   3.239
24057W        W89537   8.817  18.715   4.749
24058W        W89538  36.405  22.034  10.902
24059W        W89539  34.077  36.512  12.039
24060W        W89540  40.860  24.200   4.651
24061W        W89541   4.823  39.993  12.860
24062W        W89542  30.521  32.902  14.342
24063W        W89543  10.716  33.960  12.447
24064W        W89544  30.546  19.113  12.356
24065W        W89545  37.388  10.192  12.495
24066W        W89546  44.357  24.066   3.735
24067W        W89547   3.367  29.100   2.303
24068W        W89548  37.996  44.804   1.718
24069W        W89549  35.106  24.667   2.379
24070W        W89550  32.122  40.308  13.369
24071W        W89551  10.348  43.889   2.321
24072W        W89552  25.108  43.834  11.382
24073W        W89553   5.394  44.979   3.283
24074W        W89554  33.619  32.409  14.811
24075W        W89555  26.202  35.516   4.638
24076W        W89556  16.776  12.643  12.538
24077W        W89557  20.558  15.815  13.025
24078W        W89558  40.999  39.010   3.805
24079W        W89559  23.549  22.048   3.327
24080W        W89560  25.091   4.362  10.564
24081W        W89561  16.597  21.132  11.013
24082W        W89562  31.054  13.177  14.505
24083W        W89563  44.368  14.289  11.999
24084W        W89564  27.968   1.264   0.955
24085W        W89565  44.263   7.694   4.229
24086W        W89566  32.477  40.974   0.852
24087W        W89567  13.181  39.527   2.878
24088W        W89568   0.969  25.136  14.500
24089W        W89569  18.214  29.925  14.843
24090W        W89570  35.509  10.376  12.418
24091W        W89571  15.224  22.155  12.915
24092W        W89572  44.924  16.719   3.869
24093W        W89573  34.991  41.044  12.497
24094W        W89574  18.600  23.594   2.247
24095W        W89575  23.052  26.105  14.804
24096W        W89576  37.967   8.743   3.801
24097W        W89577  25.088  24.995   1.818
24098W        W89578  37.456  36.386   3.696
24099W        W89579  43.892   8.189   4.132
24100W        W89580  36.360  14.116   1.382
24101W        W89581  28.155   3.864   3.337
24102W        W89582   7.366   4.320   1.382
24103W        W89583  29.005  37.554   2.896
24104W        W89584  33.436  13.615  10.139
24105W        W89585  29.599  41.318  12.541
24106W        W89586  24.016   6.340  10.459
24107W        W89587  10.187  15.705   2.702
24108W        W89588  35.375  39.454   0.354
24109W        W89589   1.313  19.667   3.817
24110W        W89590  18.599   9.699  12.373
24111W        W89591   9.187  34.474  12.937
24112W        W89592  27.447  17.244   0.911
24113W        W89593  44.814  37.994   3.188
24114W        W89594  37.861  10.385   3.776
24115W        W89595  43.341  40.947  13.429
24116W        W89596  37.001  33.496  11.001
24117W        W89597  42.325  35.503   3.353
24118W        W89598  24.126  25.560   1.319
24119W        W89599  44.864  12.685  12.952
24120W        W89600  16.252  20.135  14.383
24121W        W89601  38.477  35.980   1.396
24122W        W89602   6.355  42.892   3.291
24123W        W89603  32.940   0.908   1.889
24124W        W89604  37.536  40.843  11.043
24125W        W89605  27.991  23.084   4.795
24126W        W89606  10.199  23.218  14.846
24127W        W89607  25.548  31.990   5.098
24128W        W89608  23.690  38.332   1.358
24129W        W89609  26.012  37.460  12.920
24130W        W89610  29.487   6.751   1.873
24131W        W89611  26.095  10.287   4.320
24132W        W89612   4.259   6.746   0.358
24133W        W89613  37.008  12.213   0.956
24134W        W89614  18.603  42.787   3.678
24135W        W89615  44.448   3.228  12.999
24136W        W89616  26.131  38.380  11.127
24137W        W89617   1.773   8.688   0.412
24138W        W89618   8.683  43.414   3.248
24139W        W89619  11.146  18.710  13.051
24140W        W89620   0.431  18.755  10.606
24141W        W89621  30.954  27.612   4.695
24142W        W89622  20.682  19.670  12.368
24143W        W89623  39.530  28.017   2.366
24144W        W89624  15.137  24.080   0.892
24145W        W89625  13.719  15.158   3.688
24146W        W89626  13.213  21.722   0.814
24147W        W89627  43.961  11.223  11.513
24148W        W89628  29.986   2.888   2.895
24149W        W89629  10.184  11.807  10.500
24150W        W89630   6.894  10.196   0.782
24151W        W89631  32.950  33.474  10.925
24152W        W89632  33.092   2.787  11.862
24153W        W89633  35.469  26.689  12.929
24154W        W89634  11.687  26.550   4.163
24155W        W89635  37.841  26.140   1.352
24156W        W89636  23.213  43.349   0.318
24157W        W89637  33.578  44.291  14.398
24158W        W89638  29.085  44.347   1.296
24159W        W89639  28.675  24.622   4.766
24160W        W89640  14.109  21.675  14.964
24161W        W89641   1.933  40.400  12.860
24162W        W89642   4.307  29.440   3.736
24163W        W89643  41.525  32.481  13.406
24164W        W89644  35.557  17.639   3.750
24165W        W89645  19.069   6.405   3.718
24166W        W89646  33.021  33.038  14.807
24167W        W89647  33.982  28.052  14.290
24168W        W89648  14.680  39.986   0.470
24169W        W89649  40.015  36.095  10.618
24170W        W89650  16.098   8.250   4.631
24171W        W89651   5.705  24.567  12.448
24172W        W89652  33.002  26.024   2.210
24173W        W89653  43.474  13.182  12.363
24174W        W89654  38.335  21.050   2.833
24175W        W89655  39.489  22.166   0.400
24176W        W89656   0.299  14.187   1.244
24177W        W89657  26.999  38.838   3.834
24178W        W89658  18.779  14.335   2.903
24179W        W89659   5.290  38.846  13.799
24180W        W89660  16.211  44.755  13.371
24181W        W89661   5.852   5.276   4.332
24182W        W89662  26.554  23.728   0.366
24183W        W89663  39.822  43.984   4.706
24184W        W89664  42.498  18.145  13.825
24185W        W89665  20.750  33.400   4.704
24186W        W89666   3.838  28.638   3.766
24187W        W89667  22.594  44.285  12.467
24188W        W89668  14.590  12.274   0.910
24189W        W89669  38.479   5.763  10.484
24190W        W89670  12.150  43.296  11.538
24191W        W89671  15.758  34.926  13.944
24192W        W89672   1.801   4.357  10.564
24193W        W89673  36.940  34.895   3.754
24194W        W89674  39.390  44.330  13.973
24195W        W89675  41.432  26.526  10.606
24196W        W89676  37.462   3.236   1.844
24197W        W89677   2.349  14.223   5.146
24198W        W89678   1.931  11.621   4.796
24199W        W89679  28.669  37.962  13.354
24200W        W89680  22.184   6.737   5.754
24201W        W89681  31.072   8.713  11.927
24202W        W89682  23.640  17.609   1.738
24203W        W89683  31.519   5.838   2.355
24204W        W89684  26.967  44.449   3.264
24205W        W89685   2.366  35.912  12.977
24206W        W89686   0.475  30.421  10.940
24207W        W89687  34.940  39.470   4.748
24208W        W89688  25.179  37.368  11.966
24209W        W89689  13.259  27.460  11.878
24210W        W89690  32.117   0.325  14.863
24211W        W89691  36.557  36.096   9.976
24212W        W89692   5.303  35.961   2.372
24213W        W89693  33.400  39.362   2.723
24214W        W89694  41.798  40.961  12.361
24215W        W89695  17.097  21.630   4.237
24216W        W89696  35.096  40.333  13.346
24217W        W89697  34.409  37.983   3.261
24218W        W89698  26.494  44.274   3.311
24219W        W89699  22.995  15.782   0.845
24220W        W89700  39.486  37.399   5.108
24221W        W89701   9.352   1.885   5.307
24222W        W89702   8.719  32.469   1.366
24223W        W89703  23.000  38.473   1.437
24224W        W89704   0.970  15.777   4.658
24225W        W89705  33.609  32.519   5.309
24226W        W89706  21.219  27.977  11.033
24227W        W89707   4.244  10.707   2.261
24228W        W89708  44.903  42.801   1.846
24229W        W89709  28.142  35.548  13.839
24230W        W89710  40.892  13.117  13.879
24231W        W89711   0.802  13.276   2.800
24232W        W89712  29.613  31.463   4.326
24233W        W89713  35.016   5.832  14.357
24234W        W89714  44.858  31.128  10.533
24235W        W89715  41.412  14.170   1.748
24236W        W89716  35.565  37.383  13.904
24237W        W89717  40.821  32.455   3.319
24238W        W89718  11.735  10.167  10.582
24239W        W89719  10.227  13.718   0.462
24240W        W89720  35.513  19.754   4.130
24241W        W89721  21.063  18.106  13.955
24242W        W89722  27.151  17.255  14.292
24243W        W89723  16.651  10.713  14.902
24244W        W89724  37.078  19.083   1.392
24245W        W89725   8.280  15.780   4.807
24246W        W89726   9.786  27.453   2.852
24247W        W89727  29.965   3.339  12.542
24248W        W89728  40.408  41.962  13.459
24249W        W89729  28.171  31.973  12.350
24250W        W89730  25.122  38.061   4.198
24251W        W89731  20.195   8.889  14.301
24252W        W89732  10.731  15.660  14.961
24253W        W89733  39.433  40.879  12.983
24254W        W89734  40.870   9.732  12.468
24255W        W89735  18.671  15.245  13.457
24256W        W89736   7.258   1.329  13.408
24257W        W89737  30.553   1.775   0.449
24258W        W89738  29.935  11.823  14.845
24259W        W89739  37.061  21.722  10.960
24260W        W89740   3.385  13.164   0.339
24261W        W89741  18.567  16.272  12.519
24262W        W89742   8.250   9.249  12.951
24263W        W89743  18.287  41.399  10.945
24264W        W89744   4.207  42.461  12.830
24265W        W89745  25.574  12.729  12.566
24266W        W89746  32.626  34.434   3.792
24267W        W89747  17.307  39.427  13.421
24268W        W89748  44.882   5.765   2.393
24269W        W89749   1.371  21.721  11.465
24270W        W89750   7.174   3.413  10.915
24271W        W89751  32.954  42.792   2.832
24272W        W89752  20.665  21.673   0.735
24273W        W89753  28.157  23.042  11.104
24274W        W89754  29.025   6.691   2.369
24275W        W89755  10.197  19.153  11.520
24276W        W89756  17.750  15.709   1.304
24277W        W89757  37.444  20.721  14.904
24278W        W89758  11.664  29.956  12.013
24279W        W89759  17.600  43.335  14.805
24280W        W89760  33.934  15.197   3.694
24281W        W89761  24.068  28.035   3.673
24282W        W89762   2.258  17.061  10.418
24283W        W89763  21.199  43.338   4.181
24284W        W89764  33.429  35.386  10.913
24285W        W89765  24.720  11.668   0.807
24286W        W89766   8.403  31.999  13.904
24287W        W89767  44.940   8.252   0.381
24288W        W89768   4.701  34.893  13.825
24289W        W89769  19.664   3.374   0.381
24290W        W89770  39.975  36.412   0.918
24291W        W89771   0.911  13.766   2.384
24292W        W89772  14.725  36.983   3.226
24293W        W89773   7.788   4.754   3.834
24294W        W89774  28.625  38.523   9.554
24295W        W89775  30.991  23.681  12.350
24296W        W89776  30.079  24.120   0.397
24297W        W89777  16.147   8.375  11.124
24298W        W89778  35.057  13.730  14.378
24299W        W89779  27.601  26.597   1.715
24300W        W89780  17.244  11.127  10.073
24301W        W89781  11.362  19.211  10.448
24302W        W89782  30.016  39.960   0.785
24303W        W89783  22.096  39.343   0.350
24304W        W89784  35.973  37.864   3.829
24305W        W89785   5.807  28.599   0.894
24306W        W89786  21.129  27.469  13.933
24307W        W89787  44.887  32.517   4.704
24308W        W89788  29.046  23.215  12.422
24309W        W89789  19.634  29.476  14.986
24310W        W89790  33.095  36.844   4.168
24311W        W89791  44.423  20.638  13.310
24312W        W89792  25.618  15.151  10.458
24313W        W89793   5.321  20.528   2.218
24314W        W89794  11.371  31.935  11.043
24315W        W89795  15.691  38.336   1.874
24316W        W89796   2.300  37.856  12.071
24317W        W89797  34.485   6.873   0.916
24318W        W89798  25.983   1.366   4.186
24319W        W89799  27.528  36.459   1.827
24320W        W89800  31.139   0.480   0.871
24321W        W89801  27.526  34.513  12.500
24322W        W89802  19.050   1.449  10.606
24323W        W89803  33.960  18.781   2.205
24324W        W89804  13.649   4.901  10.579
24325W        W89805  22.719  41.361   2.229
24326W        W89806  42.491  10.342  14.943
24327W        W89807  41.493  44.887   4.339
24328W        W89808  37.473   1.383   2.825
24329W        W89809  28.106  42.999   3.766
24330W        W89810  23.702   4.845   1.405
24331W        W89811  28.527  42.024  14.843
24332W        W89812  15.311  10.720   0.269
24333W        W89813  19.178  11.674  14.484
24334W        W89814  36.445  15.327  11.115
24335W        W89815  14.664  10.155   4.597
24336W        W89816  14.166   1.803   4.632
24337W        W89817  41.404  38.560  11.584
24338W        W89818  30.959  43.007   3.230
24339W        W89819  39.478  15.823   2.869
24340W        W89820  35.985  28.652   1.784
24341W        W89821  33.102  26.017   4.823
24342W        W89822  12.265  27.531  11.463
24343W        W89823  40.849  27.134   1.852
24344W        W89824  19.187  18.256  11.532
24345W        W89825  41.444  18.728  12.442
24346W        W89826  22.205   7.368  12.854
24347W        W89827   2.820  26.651  14.461
24348W        W89828  39.541   1.447  12.835
24349W        W89829  18.083  29.486  10.496
24350W        W89830   8.862  28.993   0.482
24351W        W89831   4.812  27.006  13.974
24352W        W89832  44.308  11.267  12.062
24353W        W89833  25.578   8.404  14.490
24354W        W89834  39.560  14.669   0.338
24355W        W89835  31.136  23.524   2.866
24356W        W89836   5.319  23.714   3.264
24357W        W89837  37.385  10.182  11.929
24358W        W89838  15.174  16.765   5.099
24359W        W89839  36.875  41.826  13.948
24360W        W89840  26.962  40.405  10.900
24361W        W89841  16.631   4.918   0.746
24362W        W89842  43.951  26.505  11.124
24363W        W89843  21.098   8.229  11.968
24364W        W89844  38.847  36.505  12.548
24365W        W89845  15.207  12.204   9.927
24366W        W89846  35.519  21.245   4.599
24367W        W89847  19.111   0.891  13.915
24368W        W89848  31.964  35.002  10.524
24369W        W89849  20.094   7.278   4.680
24370W        W89850  27.689  17.737   3.720
24371W        W89851  27.990  40.401  14.999
24372W        W89852  24.697  17.761   3.801
24373W        W89853  18.118  16.112   0.367
24374W        W89854  32.550  33.610   1.296
24375W        W89855  43.439  32.023   1.773
24376W        W89856  33.969  32.109  11.489
24377W        W89857   0.807  17.775  11.928
24378W        W89858  41.430  22.235   4.815
24379W        W89859  26.685   2.231  12.046
24380W        W89860  18.229   8.885  12.572
24381W        W89861  20.649  34.427  12.072
24382W        W89862  19.649  10.670   4.735
24383W        W89863   7.340  23.728  14.485
24384W        W89864   6.264  17.595   2.327
24385W        W89865  12.188  32.014  13.428
24386W        W89866  25.218  15.751   4.135
24387W        W89867   0.858  34.891  10.888
24388W        W89868  22.554  38.038   0.961
24389W        W89869  31.136  13.134   3.735
24390W        W89870  41.863  42.332   4.295
24391W        W89871  36.025  43.866   4.774
24392W        W89872  32.997  34.022  12.506
24393W        W89873  11.345  42.814  10.451
24394W        W89874  41.029   7.301  10.605
24395W        W89875  36.353  38.371   0.750
24396W        W89876  12.326  11.744   1.232
24397W        W89877   9.795  17.231  13.476
24398W        W89878  41.809  27.032  12.084
24399W        W89879  40.321  44.361   3.384
24400W        W89880  28.128  27.622  14.792
24401W        W89881   1.880   7.281  13.969
24402W        W89882  35.959  18.613  11.092
24403W        W89883   0.835  43.435  14.451
24404W        W89884  11.811   2.859   1.882
24405W        W89885  14.711   6.427   2.691
24406W        W89886   4.401  14.697  12.378
24407W        W89887  43.389   5.218   0.955
24408W        W89888  33.406  25.094   5.120
24409W        W89889  44.401  12.656   3.819
24410W        W89890  30.151  32.106  14.023
24411W        W89891  29.435  33.890  14.362
24412W        W89892  27.526  21.618   3.866
24413W        W89893   4.448  36.928   1.296
24414W        W89894  33.512  10.215  14.469
24415W        W89895   8.863  26.627  10.485
24416W        W89896   2.383  17.586   3.652
24417W        W89897   4.729   1.949   2.182
24418W        W89898   6.265  28.048   2.323
24419W        W89899   9.179  43.782  13.513
24420W        W89900  21.648  26.195  13.464
24421W        W89901  35.889  31.606  11.858
24422W        W89902  36.468  27.069   4.298
24423W        W89903  34.584  28.667  14.457
24424W        W89904  11.302  43.287   4.670
24425W        W89905  30.477  33.476  11.584
24426W        W89906  21.576  10.230   4.141
24427W        W89907  18.201  19.541  14.920
24428W        W89908  34.511  26.968   3.827
24429W        W89909   9.736  23.513  11.603
24430W        W89910  16.150  28.543  10.407
24431W        W89911  32.407   9.371  12.066
24432W        W89912   9.340  12.228  10.926
24433W        W89913  29.081   9.781   0.301
24434W        W89914  28.637  39.990  11.931
24435W        W89915  36.440   1.904  12.520
24436W        W89916  19.641  29.426   5.319
24437W        W89917  41.809  18.581  14.934
24438W        W89918  38.862   6.841   4.155
24439W        W89919   2.840  15.619  12.089
24440W        W89920  11.343   7.309   4.818
24441W        W89921  35.530  43.900   4.133
24442W        W89922  24.208  20.099  13.307
24443W        W89923  39.368   3.713   1.790
24444W        W89924   8.743  32.451   4.201
24445W        W89925   6.409  15.804  11.107
24446W        W89926   9.854   6.877   1.404
24447W        W89927  31.629  15.151  12.496
24448W        W89928  37.561  24.001  14.308
24449W        W89929  40.989   7.742   2.796
24450W        W89930   6.352  25.494  13.933
24451W        W89931  11.766  44.757   4.702
24452W        W89932  31.023  20.124   0.337
24453W        W89933  21.157  18.062   2.903
24454W        W89934   8.206  26.959   1.413
24455W        W89935  43.780  34.401   0.749
24456W        W89936  28.511  14.784   4.759
24457W        W89937  13.170   5.824  12.490
24458W        W89938  30.934  23.145  10.928
24459W        W89939  41.897  16.705   2.804
24460W        W89940  19.572   3.890  10.633
24461W        W89941  12.348  19.581   0.472
24462W        W89942  31.431  17.612  13.436
24463W        W89943   5.904  24.519   2.295
24464W        W89944  35.980  18.604   4.816
24465W        W89945  39.345  28.658   1.216
24466W        W89946  23.649  21.119  14.490
24467W        W89947  25.628  24.997  11.001
24468W        W89948  43.865   0.925  13.896
24469W        W89949  18.159  39.391   2.419
24470W        W89950  41.404  20.138   1.864
24471W        W89951  26.692   0.814  12.983
24472W        W89952  33.030   2.899  11.581
24473W        W89953   4.699  29.168   3.830
24474W        W89954  18.721  18.084  10.987
24475W        W89955   0.753  13.299   5.317
24476W        W89956  28.073  27.998   0.284
24477W        W89957   1.310   2.880  14.020
24478W        W89958  10.218  26.589   2.846
24479W        W89959  21.614  40.049   3.164
24480W        W89960   0.852  40.334   4.234
24481W        W89961  22.187  26.001  13.795
24482W        W89962  19.237  30.526   2.772
24483W        W89963   2.307  38.340   3.195
24484W        W89964   3.862   6.714   3.351
24485W        W89965  21.602  43.315   2.774
24486W        W89966   5.232  25.603   0.762
24487W        W89967  23.539   9.319  14.368
24488W        W89968   0.891  19.096  10.918
24489W        W89969  34.112  32.993   0.304
24490W        W89970  32.399  38.523   4.194
24491W        W89971  22.038  31.127   0.766
24492W        W89972  30.471   9.154   3.747
24493W        W89973  20.622  23.668  14.884
24494W        W89974  27.500  23.235   1.935
24495W        W89975  39.025  11.662  11.470
24496W        W89976  34.416  17.252  10.578
24497W        W89977  13.336  34.552  12.497
24498W        W89978  18.606  36.445  10.432
24499W        W89979  18.651  30.585  14.771
24500W        W89980  14.806  37.440   4.153
24501W        W89981  23.183  30.620   0.388
24502W        W89982  23.230  23.995  12.412
24503W        W89983  20.228  34.407  11.496
24504W        W89984  18.777  25.183   4.603
24505W        W89985   5.843  12.614  11.518
24506W        W89986  10.643  43.395   1.809
24507W        W89987  19.651  43.296   1.708
24508W        W89988   7.822   2.863   3.231
24509W        W89989  18.566  35.455  11.469
24510W        W89990  28.059  44.505   2.709
24511W        W89991   0.933  43.377  12.023
24512W        W89992   7.289  28.048   3.871
24513W        W89993   6.885  43.836   1.262
24514W        W89994  11.825  21.019  12.063
24515W        W89995  31.095  20.584   4.628
24516W        W89996  40.006  23.202  13.865
24517W        W89997  30.573  25.963   0.340
24518W        W89998  39.547  43.398   0.834
24519W        W89999  15.258  16.727   4.244
24520W        W90000  44.961  43.514  13.355
24521W        W90001   0.297  16.314   1.218
24522W        W90002  32.437  42.370  13.947
24523W        W90003  20.610   4.836  12.367
24524W        W90004  10.213   3.230  14.401
24525W        W90005  11.857   7.210  13.422
24526W        W90006  42.498  39.920  14.383
24527W        W90007   9.797  37.541   2.321
24528W        W90008  17.610  36.463   3.737
24529W        W90009  25.145  40.437   3.851
24530W        W90010  44.431   0.408  13.400
24531W        W90011  14.666  17.748   3.750
24532W        W90012  26.509  44.317  10.545
24533W        W90013   4.887  10.138  11.959
24534W        W90014  22.050   3.410  11.970
24535W        W90015  31.909  31.089   3.213
24536W        W90016   9.182  44.846  14.782
24537W        W90017  41.942  24.537  10.434
24538W        W90018  41.521  18.702  11.540
24539W        W90019  16.654  15.744  10.971
24540W        W90020  37.961   6.761  11.453
24541W        W90021   7.205  24.067   1.346
24542W        W90022  22.729   5.202  14.896
24543W        W90023  35.514  41.380   0.335
24544W        W90024   2.812  29.599  13.892
24545W        W90025  15.275   1.382   3.826
24546W        W90026  39.044  36.080  10.462
24547W        W90027  19.658  34.549  11.373
24548W        W90028  13.294  31.048   4.675
24549W        W90029  26.110  31.144   4.606
24550W        W90030  40.458   2.907  11.396
24551W        W90031  10.652  36.941   2.710
24552W        W90032  37.554  38.526   3.307
24553W        W90033   6.861  22.033   1.359
24554W        W90034  22.579  19.107  13.027
24555W        W90035  26.596  37.508   3.703
24556W        W90036   8.719   4.749  13.819
24557W        W90037  33.553   3.398   1.886
24558W        W90038  32.108   7.380   4.253
24559W        W90039  12.232  32.913  12.534
24560W        W90040  25.560  22.656   3.363
24561W        W90041  39.924  12.309   1.295
24562W        W90042  20.231  15.249  14.021
24563W        W90043  40.920  40.961  13.334
24564W        W90044  12.715   7.895   0.444
24565W        W90045   0.923  33.104   2.383
24566W        W90046  13.334  29.973   2.839
24567W        W90047  11.722  19.144  14.328
24568W        W90048  43.492  22.022   2.368
24569W        W90049   1.886  16.790   4.280
24570W        W90050  15.640   0.441   0.887
24571W        W90051  10.148  18.608  14.993
24572W        W90052  27.954   8.200   4.622
24573W        W90053   3.917  27.514  11.506
24574W        W90054  16.644   1.291   1.409
24575W        W90055  19.263   2.375  14.834
24576W        W90056  12.805  36.368  14.443
24577W        W90057  33.521  41.007  10.479
24578W        W90058  10.803  43.928  11.555
24579W        W90059   8.865  22.154   1.748
24580W        W90060  12.618  28.534   4.214
24581W        W90061  29.010  30.089  13.419
24582W        W90062  38.528  23.112   1.410
24583W        W90063  34.916  31.631   2.329
24584W        W90064  39.910  12.722   3.805
24585W        W90065   9.697  16.589   2.320
24586W        W90066   8.805   2.950   2.246
24587W        W90067  24.505  31.005   2.698
24588W        W90068   5.361  19.564   3.229
24589W        W90069  27.670  10.363  14.436
24590W        W90070  42.914  29.495   4.825
24591W        W90071  15.264  33.470   9.994
24592W        W90072  36.534  44.474   5.247
24593W        W90073  26.701  36.440  12.385
24594W        W90074  44.005  11.295  10.499
24595W        W90075   8.807  20.728   2.841
24596W        W90076   9.811  37.557   3.853
24597W        W90077  36.870  29.013   0.407
24598W        W90078  12.793  34.076   2.791
24599W        W90079  23.034  24.017  10.630
24600W        W90080  33.511  11.651   2.838
24601W        W90081  37.423  17.170   4.177
24602W        W90082  15.707  33.392  11.867
24603W        W90083  13.212   6.772  12.991
24604W        W90084  12.246   9.378  11.577
24605W        W90085  16.283  37.550  14.498
24606W        W90086  22.168  19.261  14.978
24607W        W90087  26.112   2.230   3.338
24608W        W90088  28.522  42.027   0.275
24609W        W90089  33.964  26.040   3.765
24610W        W90090   1.372  10.265  10.486
24611W        W90091  39.553  32.404   2.316
24612W        W90092  14.692  22.594   4.124
24613W        W90093   3.950  21.105   2.397
24614W        W90094  31.557  28.616  10.600
24615W        W90095  28.505  10.697   0.344
24616W        W90096  18.076  42.013   3.364
24617W        W90097  36.918  41.450  14.446
24618W        W90098   1.932   6.423   4.315
24619W        W90099  25.070  12.782   0.481
24620W        W90100   9.826  28.542   4.620
24621W        W90101  21.114  43.385  10.504
24622W        W90102   8.806  26.497   1.827
24623W        W90103  44.981   2.793   4.134
24624W        W90104  41.311   2.751  14.012
24625W        W90105  21.540  36.517  14.875
24626W        W90106  41.351  38.955   4.669
24627W        W90107  31.005  38.888   5.152
24628W        W90108  21.186  26.990  13.792
24629W        W90109   0.340  24.490  11.073
24630W        W90110  11.239   8.836  14.787
24631W        W90111  43.488   6.244  12.828
24632W        W90112  36.417  11.819   3.809
24633W        W90113  29.662  18.209  12.024
24634W        W90114  41.843  13.198  14.013
24635W        W90115  10.817   4.313  13.309
24636W        W90116  30.082  43.852  13.865
24637W        W90117   8.862   8.377   2.414
24638W        W90118  36.089   5.229   1.376
24639W        W90119  44.356  15.669   4.255
24640W        W90120  40.853  43.900  12.440
24641W        W90121   7.398  13.608  11.932
24642W        W90122  42.814  12.700  10.048
24643W        W90123   7.901  25.176   2.754
24644W        W90124   7.829  32.033  12.376
24645W        W90125   9.316  10.255  12.358
24646W        W90126   5.202  22.609  11.998
24647W        W90127  22.616  35.460  13.447
24648W        W90128  11.137  41.313   0.275
24649W        W90129  40.327  27.481   4.655
24650W        W90130  21.712  24.485   4.728
24651W        W90131  27.603  33.921  12.837
24652W        W90132  22.125   5.273   1.256
24653W        W90133  43.870  38.973   4.699
24654W        W90134  26.119  30.928  13.872
24655W        W90135  20.149   3.261  11.452
24656W        W90136  20.746  11.314   1.904
24657W        W90137  21.244   8.291  14.860
24658W        W90138  21.018   1.455   1.888
24659W        W90139  30.013  26.130  14.487
24660W        W90140  36.563  26.002  13.847
24661W        W90141   0.759  43.415  14.797
24662W        W90142   5.797   1.952  13.841
24663W        W90143  11.623  28.499   2.835
24664W        W90144  20.168  37.018   2.306
24665W        W90145  27.454  18.746   4.116
24666W        W90146  43.930  11.660   0.353
24667W        W90147  41.872  14.673  10.504
24668W        W90148   9.179  40.459  13.366
24669W        W90149  42.383   4.710  14.932
24670W        W90150  15.690  34.584  12.023
24671W        W90151   3.743  10.715  14.908
24672W        W90152  25.697  34.505   2.780
24673W        W90153  21.098   5.905  12.453
24674W        W90154  34.882  37.552   3.670
24675W        W90155   5.342  28.556   1.249
24676W        W90156  31.981  32.121  12.566
24677W        W90157   3.795  36.066   0.816
24678W        W90158  25.152  39.914  11.594
24679W        W90159  36.931  30.123  14.288
24680W        W90160  26.543  17.679  13.812
24681W        W90161  28.972   7.812  12.540
24682W        W90162  23.118  21.667   3.229
24683W        W90163  23.038  24.518   3.667
24684W        W90164  24.203  26.157   2.686
24685W        W90165   2.367  41.512   2.250
24686W        W90166  15.748   0.301   2.338
24687W        W90167  42.487  28.567   3.740
24688W        W90168  40.914  36.895   2.732
24689W        W90169  36.554  27.692   1.400
24690W        W90170  20.635   0.869  11.933
24691W        W90171  28.123  43.929  11.085
24692W        W90172  25.013  27.512  13.475
24693W        W90173   7.669   4.387   4.780
24694W        W90174   2.940  23.124   4.350
24695W        W90175  27.519   8.387   3.772
24696W        W90176  19.719   1.879  11.394
24697W        W90177  26.951   6.877  12.466
24698W        W90178  11.773  29.599   4.196
24699W        W90179  25.188   4.868   0.806
24700W        W90180  11.313   6.748   4.258
24701W        W90181  31.132  19.183  11.380
24702W        W90182   2.777   9.792  13.472
24703W        W90183  29.594   4.807   4.764
24704W        W90184  16.180  22.724   3.320
24705W        W90185  36.020  20.258   0.800
24706W        W90186  26.590   5.770  14.311
24707W        W90187  37.831  11.344  12.422
24708W        W90188  25.653   4.715   1.314
24709W        W90189  21.167  18.178  10.631
24710W        W90190  24.104  32.594  10.493
24711W        W90191  15.672   2.779   4.826
24712W        W90192  27.033   5.858   3.192
24713W        W90193  37.418   6.290   2.210
24714W        W90194  24.171   3.457  12.057
24715W        W90195  31.440  41.888  11.899
24716W        W90196  12.241  29.621  10.478
24717W        W90197   5.874  34.048  12.532
24718W        W90198   5.229  36.848  10.956
24719W        W90199  35.927  10.648   4.292
24720W        W90200  36.986  43.779   1.234
24721W        W90201  18.068   7.175  10.997
24722W        W90202  40.358  13.124  10.965
24723W        W90203  31.479  29.536  11.040
24724W        W90204  11.827  33.918  14.010
24725W        W90205   7.171  30.433   1.394
24726W        W90206  34.016   5.794  10.491
24727W        W90207   7.230  34.047  12.543
24728W        W90208   5.906  20.132  11.943
24729W        W90209  19.221  27.513  13.862
24730W        W90210  20.751  16.729   0.773
24731W        W90211  30.482  18.284  12.915
24732W        W90212  30.950  27.052  11.030
24733W        W90213  44.863   1.909   0.814
24734W        W90214   1.792   5.717   2.391
24735W        W90215   4.885   8.841  10.894
24736W        W90216  41.801  29.452   2.289
24737W        W90217  27.021  22.522   2.694
24738W        W90218  43.920  37.917  10.429
24739W        W90219  27.622   9.827  13.367
24740W        W90220  43.474  25.615   0.465
24741W        W90221  39.031   0.965  12.475
24742W        W90222  25.209  17.714  13.976
24743W        W90223  44.941   4.708  10.619
24744W        W90224  21.129  17.287  11.098
24745W        W90225  22.718  37.880   4.814
24746W        W90226  34.873  26.988   4.681
24747W        W90227  38.037  24.517   3.335
24748W        W90228  31.978   6.759   0.478
24749W        W90229  42.523  22.194  14.789
24750W        W90230  30.991   2.876   2.894
24751W        W90231  37.890  15.253   1.304
24752W        W90232  14.722  32.994   2.750
24753W        W90233  32.611  25.651  13.904
24754W        W90234  16.276  44.428   4.605
24755W        W90235  44.777  33.977  14.880
24756W        W90236   3.385   2.239  11.932
24757W        W90237   0.302  24.658   2.764
24758W        W90238  30.645  18.132   0.472
24759W        W90239  35.898  13.649   4.297
24760W        W90240  21.716  42.519  10.944
24761W        W90241  38.371   4.917  12.089
24762W        W90242  13.198   2.253  10.636
24763W        W90243  22.249   8.187  13.321
24764W        W90244  35.567   1.353   4.815
24765W        W90245  30.511  11.813   2.288
24766W        W90246  14.264  32.964  10.408
24767W        W90247  22.631  15.104  10.103
24768W        W90248  31.436  15.804  13.534
24769W        W90249  36.936   2.337   3.742
24770W        W90250  26.688  17.151   2.679
24771W        W90251   8.686  36.420   4.721
24772W        W90252  43.372   9.724   0.334
24773W        W90253   5.375  22.102   4.164
24774W        W90254   2.409  37.347   0.307
24775W        W90255  20.769  16.192  14.760
24776W        W90256   1.779  35.978  13.993
24777W        W90257  13.630  33.065   2.398
24778W        W90258  36.922  26.146   0.314
24779W        W90259   1.299  12.674  12.456
24780W        W90260  17.228  36.984  10.097
24781W        W90261  16.752  43.331   5.203
24782W        W90262  25.674  24.571  13.930
24783W        W90263   2.814   9.371  12.878
24784W        W90264  42.811  31.541  10.905
24785W        W90265  32.974  16.791  10.455
24786W        W90266  33.009  13.121  12.857
24787W        W90267  36.900  44.417   2.754
24788W        W90268  26.013  10.271   0.768
24789W        W90269   8.854  22.627  11.886
24790W        W90270  27.193   5.693   3.752
24791W        W90271  18.666  35.450   0.903
24792W        W90272  44.331  39.922  12.572
24793W        W90273  28.056  36.527   3.792
24794W        W90274  32.896  36.988  12.083
24795W        W90275   2.886  35.060  13.478
24796W        W90276  44.929  32.530   3.174
24797W        W90277  32.097  44.356   5.283
24798W        W90278  24.031  28.032   2.687
24799W        W90279  37.444  29.102  14.772
24800W        W90280  13.838  12.663   0.483
24801W        W90281  34.554  26.071  14.502
24802W        W90282  19.570   4.258   2.697
24803W        W90283   9.784  30.147   3.680
24804W        W90284  19.189  17.180  14.365
24805W        W90285  43.008  33.123  14.955
24806W        W90286   9.389   5.254   2.347
24807W        W90287   9.253   7.390  10.008
24808W        W90288  34.518  16.749  11.926
24809W        W90289  36.571  29.614  13.483
24810W        W90290  16.195  30.458   0.752
24811W        W90291   4.817  11.317  13.956
24812W        W90292  37.007  42.501   2.294
24813W        W90293   3.304  24.143  11.543
24814W        W90294  36.995  41.857  12.483
24815W        W90295  44.454  40.470   1.738
24816W        W90296   6.188  40.446  10.569
24817W        W90297  21.198  30.564   1.797
24818W        W90298  19.118  31.512   1.365
24819W        W90299  43.363  28.026   2.355
24820W        W90300  19.230  32.420  12.410
24821W        W90301  39.929  13.116   3.174
24822W        W90302   2.399  44.974   2.708
24823W        W90303  19.697  38.420   2.858
24824W        W90304  42.421  44.769  14.903
24825W        W90305  44.291  29.136  14.478
24826W        W90306  37.404  40.462   2.888
24827W        W90307  40.450  36.591   1.933
24828W        W90308  13.304   2.258  12.993
24829W        W90309  18.728  28.591   0.820
24830W        W90310   0.403   5.691   3.221
24831W        W90311  17.761   8.895  10.984
24832W        W90312  39.422  44.391  12.570
24833W        W90313  40.844   0.864   2.279
24834W        W90314   5.694  35.600  12.516
24835W        W90315   9.671  29.464   4.732
24836W        W90316   7.840  39.888  12.995
24837W        W90317  23.703  34.432   1.733
24838W        W90318  18.689  30.099  12.928
24839W        W90319  11.776   4.758  12.532
24840W        W90320  25.659  28.037   1.300
24841W        W90321  29.941   9.829  14.485
24842W        W90322  13.632  32.943   3.168
24843W        W90323  16.664   2.837   4.316
24844W        W90324  39.062   3.432   4.683
24845W        W90325  23.720  16.662  12.389
24846W        W90326   8.290  29.479  12.533
24847W        W90327  36.055  30.066   1.841
24848W        W90328  21.244  34.080  10.481
24849W        W90329  13.291   4.819  10.888
24850W        W90330  23.034  29.639  10.902
24851W        W90331  23.552  30.629   1.260
24852W        W90332  19.606   9.390   0.412
24853W        W90333  28.627  37.354  12.467
24854W        W90334  36.358  28.576  12.511
24855W        W90335   8.859   8.252  10.982
24856W        W90336   9.388   7.884   4.248
24857W        W90337   3.355  34.063  10.613
24858W        W90338  32.109   4.245  14.792
24859W        W90339  42.915  20.563  11.891
24860W        W90340  39.984  16.125   2.773
24861W        W90341  28.967  15.736   2.761
24862W        W90342  13.108  31.940   1.706
24863W        W90343  39.419  30.555   1.798
24864W        W90344  22.565  23.166   1.912
24865W        W90345  12.181  22.009  10.941
24866W        W90346  26.464  44.498  14.502
24867W        W90347  14.171  31.537  10.623
24868W        W90348   9.213  28.632  14.848
24869W        W90349  37.901   2.354   3.865
24870W        W90350  32.989   4.299  12.404
24871W        W90351   0.306  28.675   3.695
24872W        W90352   3.839  30.633   5.289
24873W        W90353  24.093  31.953   4.777
24874W        W90354  43.406   0.257  11.500
24875W        W90355   3.908  18.101  12.490
24876W        W90356  30.472   8.668   0.273
24877W        W90357  41.946  30.464  14.923
24878W        W90358  40.332  27.600  11.477
24879W        W90359  32.035  35.516  12.450
24880W        W90360  23.490  31.451   3.225
24881W        W90361  19.730   8.791   1.696
24882W        W90362  15.320  38.050  12.353
24883W        W90363  39.017  31.055  13.034
24884W        W90364  37.494  10.284  11.069
24885W        W90365  38.059   5.338   3.771
24886W        W90366  14.198  13.623  13.817
24887W        W90367  24.199  28.609   0.963
24888W        W90368  44.990  34.921  10.062
24889W        W90369  24.116   0.986  10.091
24890W        W90370  10.761  35.521   1.290
24891W        W90371  27.481  29.952  12.885
24892W        W90372  37.434  18.082   2.766
24893W        W90373   9.743  23.603  11.023
24894W        W90374  27.123   8.368  12.371
24895W        W90375   2.774   1.869  12.544
24896W        W90376  29.579  12.166  12.445
24897W        W90377  14.615  31.958  13.386
24898W        W90378  23.006  33.981  10.447
24899W        W90379  13.657   6.713  10.601
24900W        W90380  33.498  15.229   2.732
24901W        W90381  22.035  24.496   3.255
24902W        W90382  44.768  25.018   0.411
24903W        W90383  21.520  20.667  12.507
24904W        W90384  28.523  16.255  14.483
24905W        W90385  36.361   0.889   2.365
24906W        W90386   6.316  38.055   2.693
24907W        W90387  40.371  30.430  14.444
24908W        W90388  31.638  18.607  13.795
24909W        W90389  11.241  15.187  13.854
24910W        W90390  16.611  13.689  13.546
24911W        W90391  15.303  33.023  11.554
24912W        W90392  13.833  44.421   0.752
24913W        W90393  39.357  42.300   1.752
24914W        W90394  37.930  19.213  10.471
24915W        W90395   1.791   2.866  10.499
24916W        W90396  24.541  11.714  14.822
24917W        W90397  36.851   4.813   2.370
24918W        W90398  33.610  24.724   0.862
24919W        W90399  10.202  28.563  12.046
24920W        W90400  11.696  22.586  13.307
24921W        W90401  23.234  12.770  14.884
24922W        W90402  20.712  10.155   4.315
24923W        W90403  25.064  41.311   3.333
24924W        W90404   1.250   7.256   0.395
24925W        W90405   5.890  27.551   1.770
24926W        W90406   0.815  33.599   2.733
24927W        W90407  35.033  24.083  12.540
24928W        W90408  22.198  16.779  14.477
24929W        W90409  43.297  14.733   4.632
24930W        W90410  31.443  38.031  11.592
24931W        W90411  15.274  36.391  12.992
24932W        W90412  36.520  38.364  13.414
24933W        W90413  15.235  32.950   0.274
24934W        W90414  22.026  23.684   1.840
24935W        W90415   7.858  17.269  12.001
24936W        W90416  41.486  10.686   0.761
24937W        W90417  42.853   8.698   1.800
24938W        W90418  40.470   7.670   4.612
24939W        W90419   9.690  21.180   1.327
24940W        W90420  30.099  16.780  13.866
24941W        W90421  25.492  14.824   0.773
24942W        W90422  37.383  37.901   1.441
24943W        W90423  37.411   6.408  12.858
24944W        W90424  37.855  39.549   2.748
24945W        W90425  26.064  37.902  13.851
24946W        W90426  21.558   3.736   0.432
24947W        W90427  27.004  12.856   1.332
24948W        W90428  16.690  40.879   1.386
24949W        W90429   4.256  44.857   4.348
24950W        W90430  38.066  15.290  12.553
24951W        W90431   2.964   9.225   0.297
24952W        W90432  10.726  16.573   2.718
24953W        W90433  30.977  20.733   2.229
24954W        W90434  27.589  32.613   1.699
24955W        W90435  16.798  31.967  13.900
24956W        W90436  23.598  31.610  11.928
24957W        W90437  18.187   5.731  12.444
24958W        W90438  44.419  35.039   4.747
24959W        W90439   5.856   1.353   0.947
24960W        W90440  21.632   7.725  12.343
24961W        W90441   9.850   3.290  14.991
24962W        W90442  31.476  31.976   1.888
24963W        W90443  22.613   0.771   3.752
24964W        W90444  36.577  14.150  13.425
24965W        W90445   9.751  42.310   0.313
24966W        W90446  43.488  36.920   0.252
24967W        W90447  19.217  33.969   9.957
24968W        W90448  39.965  36.983  11.445
24969W        W90449  32.086  29.100  11.123
24970W        W90450  23.715  15.239  12.063
24971W        W90451  17.672  32.993  13.043
24972W        W90452  30.486  43.881   4.812
24973W        W90453  37.977   5.894   0.440
24974W        W90454   0.354  24.556  13.420
24975W        W90455   4.247  17.092   3.763
24976W        W90456  14.626  22.013   0.377
24977W        W90457  31.028   3.776  14.026
24978W        W90458   5.249  13.618  14.281
24979W        W90459  15.696  37.497   3.352
24980W        W90460  19.559  11.854  13.466
24981W        W90461  29.173  33.433  11.117
24982W        W90462  25.962  39.328  11.863
24983W        W90463   4.283   2.352   1.427
24984W        W90464  25.510  25.115  14.763
24985W        W90465  27.601  36.892   3.684
24986W        W90466  41.317   8.806   4.798
24987W        W90467  25.585   1.796  10.950
24988W        W90468  34.077  11.172  13.969
24989W        W90469   1.826   3.395  12.422
24990W        W90470   3.896  24.107   4.223
24991W        W90471  35.481  13.106   2.395
24992W        W90472  39.396  23.647  12.359
24993W        W90473   2.738   7.243  14.299
24994W        W90474  34.938  38.881   3.696
24995W        W90475  18.274  10.654   2.795
24996W        W90476  43.449   3.386   5.225
24997W        W90477  41.524  38.327   2.332
24998W        W90478   4.275  37.368   1.850
24999W        W90479  44.781  18.654  14.902
25000W        W90480   1.906  41.393   1.850
25001W        W90481  12.197  41.382   4.724
25002W        W90482  40.513  21.188  13.518
25003W        W90483  23.171  23.239   0.950
25004W        W90484  15.121   6.821  14.319
25005W        W90485  38.980   7.676   4.640
25006W        W90486  41.832  40.995  13.022
25007W        W90487  43.814  11.206   1.808
25008W        W90488  29.578  26.031  12.924
25009W        W90489   0.442   9.751   1.807
25010W        W90490  33.543  44.777  11.090
25011W        W90491  23.183  23.241  11.999
25012W        W90492   7.832   9.677   4.137
25013W        W90493  31.425  18.716  10.554
25014W        W90494  19.569  42.922  14.335
25015W        W90495  43.482  33.556   3.378
25016W        W90496  13.768  43.805  12.044
25017W        W90497  12.808  12.181  11.608
25018W        W90498  38.335   2.373  14.277
25019W        W90499  14.130  44.906   2.377
25020W        W90500  15.751  33.937   0.820
25021W        W90501  39.996   9.150  14.413
25022W        W90502   5.219  24.482   4.792
25023W        W90503   7.737  43.327  11.053
25024W        W90504  16.091  12.814   0.961
25025W        W90505   6.809  24.151  14.348
25026W        W90506  26.151  26.489  11.927
25027W        W90507  31.970  35.444   4.222
25028W        W90508  14.291  20.642  14.793
25029W        W90509  29.125  18.100  10.982
25030W        W90510  21.116  24.986   0.415
25031W        W90511   3.790  10.811   1.695
25032W        W90512  39.846  44.340   1.796
25033W        W90513   5.698  31.605  10.945
25034W        W90514   1.288  39.548  13.443
25035W        W90515  34.502  43.270  11.593
25036W        W90516  39.408  40.952   1.867
25037W        W90517  18.284  27.622   1.228
25038W        W90518   2.431   3.892  13.395
25039W        W90519  18.287   4.886   3.157
25040W        W90520  15.777  41.446  12.003
25041W        W90521   9.388  11.185  13.911
25042W        W90522  31.999  14.716   0.278
25043W        W90523  24.502  13.719   0.916
25044W        W90524  13.650   0.890   4.712
25045W        W90525  33.448  20.596   1.823
25046W        W90526  39.389  35.445   2.291
25047W        W90527  30.133  11.842   1.392
25048W        W90528  15.159  15.170   1.406
25049W        W90529   4.318  43.299   2.765
25050W        W90530  39.462   8.657  13.871
25051W        W90531  31.438   1.384  11.859
25052W        W90532   9.653  13.815   1.384
25053W        W90533  13.675  18.700   1.311
25054W        W90534  10.766  42.898   0.913
25055W        W90535  20.232  11.308  11.529
25056W        W90536  34.598  21.134   1.435
25057W        W90537  39.441  34.092   0.755
25058W        W90538  18.767  34.394  13.986
25059W        W90539  17.101  14.728  10.541
25060W        W90540  22.579  33.961  12.850
25061W        W90541  43.488  42.828   1.214
25062W        W90542   7.766  32.554  10.467
25063W        W90543  36.349  34.894   0.392
25064W        W90544  39.887   5.267  12.473
25065W        W90545  17.604  41.895  11.866
25066W        W90546  19.586  30.489  10.510
25067W        W90547  25.581  33.115  12.920
25068W        W90548  37.552   6.297  12.016
25069W        W90549   2.275  28.468  11.563
25070W        W90550  13.783   5.408   0.281
25071W        W90551   9.284  43.998  14.506
25072W        W90552   9.253  14.674   1.272
25073W        W90553  28.045  25.079  14.305
25074W        W90554   0.301  15.730   1.287
25075W        W90555   9.183  28.937  11.091
25076W        W90556   6.264  44.341  12.982
25077W        W90557  24.497  10.209  14.952
25078W        W90558  29.111  40.931  14.979
25079W        W90559  36.972  14.613  11.403
25080W        W90560  38.340  12.729   0.364
25081W        W90561  42.858  23.632  10.960
25082W        W90562  23.063  36.967  12.440
25083W        W90563   9.286  24.018   2.815
25084W        W90564  40.425  41.010   3.315
25085W        W90565   3.773  17.288   0.807
25086W        W90566  27.590  15.822  13.933
25087W        W90567  37.970   9.300  11.583
25088W        W90568  23.517   2.900   3.717
25089W        W90569   2.920  23.665  11.612
25090W        W90570  29.144  35.525   0.728
25091W        W90571  33.430   0.493   1.834
25092W        W90572  44.285  25.999  14.021
25093W        W90573  13.183  37.556   1.419
25094W        W90574  12.742  29.018  12.547
25095W        W90575  35.081  33.608   3.642
25096W        W90576  16.748  35.065   2.302
25097W        W90577  31.436  14.100   0.382
25098W        W90578   1.885  39.555   2.255
25099W        W90579  22.099  26.641  10.430
25100W        W90580   1.431  28.110  12.823
25101W        W90581  27.043   8.700  14.008
25102W        W90582   5.284  22.586   3.348
25103W        W90583  26.661  36.563   0.771
25104W        W90584  28.105  17.211  13.417
25105W        W90585  41.531  12.827  11.001
25106W        W90586  13.216   7.738   3.269
25107W        W90587  28.990  31.493   4.647
25108W        W90588  30.934  14.168   1.270
25109W        W90589  41.921  32.606   3.187
25110W        W90590  33.449  39.526  12.411
25111W        W90591  25.167  17.615   3.729
25112W        W90592  15.694  14.814  10.978
25113W        W90593   4.880  43.780   0.276
25114W        W90594  40.413   1.448  12.883
25115W        W90595  41.430   4.257  11.586
25116W        W90596  16.221  32.532   0.294
25117W        W90597  30.458  16.297  12.515
25118W        W90598   3.913  10.231   4.271
25119W        W90599  25.134  12.320   0.277
25120W        W90600  24.622  21.205   4.779
25121W        W90601  20.709  37.852  12.459
25122W        W90602   1.893  41.405  10.993
25123W        W90603  31.592  22.546  11.514
25124W        W90604  10.281  12.211   4.636
25125W        W90605  15.657   7.807   2.890
25126W        W90606  39.979  39.368  11.497
25127W        W90607  28.466  36.482  12.964
25128W        W90608  19.071  30.547   3.305
25129W        W90609  38.967  10.345   0.884
25130W        W90610  24.668   2.264  14.473
25131W        W90611  36.458  10.821   1.828
25132W        W90612  23.596   3.335   2.734
25133W        W90613   4.727  44.469   4.600
25134W        W90614  28.667  34.928  11.956
25135W        W90615  19.583  14.257  11.028
25136W        W90616  21.069  28.974  12.408
25137W        W90617  25.533  42.469   0.747
25138W        W90618  19.545   4.944  10.030
25139W        W90619  40.972   7.886  14.954
25140W        W90620   1.320  40.522  12.886
25141W        W90621  36.955  38.933   1.257
25142W        W90622   5.880  31.622  13.995
25143W        W90623   9.338  40.799   0.860
25144W        W90624  41.001  22.508  10.062
25145W        W90625  25.089   7.853   1.294
25146W        W90626  33.955  15.765   3.263
25147W        W90627  19.075   3.819   1.347
25148W        W90628  30.435  17.085   1.357
25149W        W90629   3.815  13.710   3.687
25150W        W90630  34.965  10.766  14.426
25151W        W90631  16.806  27.175   3.214
25152W        W90632  19.083  31.521  14.943
25153W        W90633  20.113  10.876   3.807
25154W        W90634  36.358  12.344   1.851
25155W        W90635  32.931  27.051   3.630
25156W        W90636   5.823  21.122   0.872
25157W        W90637  37.499  39.009   2.697
25158W        W90638  33.622  11.769   0.397
25159W        W90639  42.775  42.955  12.974
25160W        W90640  34.013  34.020   1.710
25161W        W90641  11.841  35.453   0.358
25162W        W90642  24.130   2.367   2.680
25163W        W90643  41.538  24.582  12.482
25164W        W90644  16.608  39.539   4.289
25165W        W90645  14.247  13.697   1.841
25166W        W90646  23.132  22.632  14.427
25167W        W90647  44.758  26.071  11.941
25168W        W90648  31.445  34.520   4.279
25169W        W90649  39.996   8.859   1.864
25170W        W90650  10.243  44.009   3.846
25171W        W90651  10.719  29.172  14.889
25172W        W90652  33.030  21.221   2.671
25173W        W90653  43.957  43.962   1.856
25174W        W90654  16.288  26.067   1.735
25175W        W90655  42.463   2.271   2.718
25176W        W90656  12.298   3.734   4.699
25177W        W90657  41.901  13.762  12.432
25178W        W90658  31.614  31.639  12.486
25179W        W90659   3.254  19.208  13.815
25180W        W90660   7.899  13.714   4.823
25181W        W90661   9.672  23.088  10.506
25182W        W90662  42.859  16.792   0.294
25183W        W90663  38.853  43.368  13.015
25184W        W90664  29.428   8.751  13.054
25185W        W90665  36.508  29.986   4.683
25186W        W90666   2.325  10.835   3.678
25187W        W90667  23.564  20.169  12.394
25188W        W90668  31.575   5.373  13.468
25189W        W90669  15.688  17.623   3.240
25190W        W90670  38.037  36.385  13.950
25191W        W90671  36.511   1.344  12.824
25192W        W90672  13.261  19.616  10.520
25193W        W90673  40.360  41.498  12.893
25194W        W90674  12.281  20.670  12.539
25195W        W90675  18.262   2.960  14.465
25196W        W90676   3.925  16.671  13.913
25197W        W90677  26.502   6.828   3.249
25198W        W90678   6.297  15.245   1.803
25199W        W90679   9.288  14.639  13.025
25200W        W90680  33.622  21.148   0.328
25201W        W90681  39.373  16.075  14.815
25202W        W90682  43.323  39.401  13.902
25203W        W90683   3.419  25.518  12.508
25204W        W90684  29.945   8.360   1.788
25205W        W90685  22.094  14.693   1.836
25206W        W90686  27.070   3.345  11.441
25207W        W90687  15.203  20.224  14.977
25208W        W90688  11.715  34.907  13.966
25209W        W90689   7.294  12.135  14.866
25210W        W90690  11.836  12.719  10.465
25211W        W90691  13.719  26.475   1.261
25212W        W90692  34.979   7.716   4.289
25213W        W90693  25.512  36.845  14.951
25214W        W90694  20.755  31.005   0.783
25215W        W90695  32.130  31.930  10.456
25216W        W90696  16.762  30.016   0.754
25217W        W90697   7.875   6.819   2.879
25218W        W90698  36.366   4.831  12.458
25219W        W90699   2.441  35.054   5.292
25220W        W90700  26.989   8.381   4.213
25221W        W90701  29.129  36.355   0.783
25222W        W90702  27.117  39.482   3.830
25223W        W90703  31.113  39.524   0.449
25224W        W90704   0.448  31.021  13.920
25225W        W90705  18.742  32.392   3.200
25226W        W90706  44.797  11.691  11.556
25227W        W90707   0.313   7.778  11.518
25228W        W90708  43.432  35.524  10.642
25229W        W90709  15.578   7.280  10.454
25230W        W90710  35.449  24.585  13.847
25231W        W90711  17.611  41.003   1.873
25232W        W90712   1.917  39.002  11.586
25233W        W90713  10.746  44.837   2.190
25234W        W90714  21.671  12.288   0.735
25235W        W90715  13.260  28.508  12.440
25236W        W90716  11.332  16.127   2.871
25237W        W90717  31.584  40.842  12.930
25238W        W90718  33.064  37.508   3.299
25239W        W90719   3.271  40.481  12.373
25240W        W90720   9.157  10.832  14.299
25241W        W90721  17.625  32.556   3.349
25242W        W90722  44.842  44.866  10.608
25243W        W90723  17.568  30.649   2.816
25244W        W90724  27.505  16.741   1.292
25245W        W90725   9.280  32.003   2.207
25246W        W90726  26.175  23.578   2.681
25247W        W90727  24.497  17.633  12.361
25248W        W90728  43.963  42.436   2.819
25249W        W90729   8.252  33.023  11.904
25250W        W90730  27.658  44.974  12.027
25251W        W90731  18.648  25.975   2.360
25252W        W90732  36.518   1.798   2.314
25253W        W90733  11.826  12.166   4.209
25254W        W90734  19.122  33.031  11.977
25255W        W90735  39.999  23.663   4.259
25256W        W90736  33.948  16.119   1.807
25257W        W90737  28.448  34.047   1.879
25258W        W90738  37.016  40.475  11.505
25259W        W90739  30.611   7.376   2.866
25260W        W90740  39.379  29.536  14.283
25261W        W90741  37.369  35.892   2.211
25262W        W90742   5.264  39.380  14.419
25263W        W90743  35.904  12.131  14.352
25264W        W90744  21.052  21.669  11.441
25265W        W90745  30.545  18.779  13.028
25266W        W90746  42.976  27.585   2.380
25267W        W90747  14.607  42.428   0.277
25268W        W90748  43.479  42.437  11.564
25269W        W90749  23.186   4.353   4.701
25270W        W90750  32.111   3.354   3.292
25271W        W90751  32.022  32.399   1.353
25272W        W90752  26.688   9.788  10.944
25273W        W90753  16.216   9.325  13.904
25274W        W90754  24.657  37.004   1.289
25275W        W90755  32.588  28.564   3.219
25276W        W90756  36.075  35.912   4.161
25277W        W90757  27.194  14.752   0.259
25278W        W90758  44.298  15.140  13.823
25279W        W90759  19.046  35.457   4.621
25280W        W90760  23.149  17.798   0.325
25281W        W90761  30.136  38.846   4.613
25282W        W90762   1.939  16.157  11.422
25283W        W90763  27.510  35.377  13.542
25284W        W90764  38.386  38.542  12.373
25285W        W90765  19.109  44.809  13.004
25286W        W90766   0.750   3.430  13.513
25287W        W90767  40.976  23.019   3.181
25288W        W90768   8.262  22.072  12.025
25289W        W90769  30.960  42.303  14.761
25290W        W90770   4.345  23.501   3.688
25291W        W90771  35.499  32.454   2.245
25292W        W90772  15.790  17.672  13.811
25293W        W90773  15.595  34.988  13.321
25294W        W90774  38.496  38.520   1.812
25295W        W90775  15.128  19.554   4.170
25296W        W90776  17.298  11.789  12.939
25297W        W90777  21.525  19.645   2.243
25298W        W90778  24.647  20.565   0.876
25299W        W90779  33.905  14.177  14.869
25300W        W90780   4.787  28.637   0.406
25301W        W90781  22.518  42.422  11.894
25302W        W90782  39.371   4.218   2.278
25303W        W90783  26.118  20.545   0.867
25304W        W90784  28.108  42.461   2.748
25305W        W90785  11.711  33.900  14.419
25306W        W90786   1.256  32.504  10.584
25307W        W90787   8.294  20.572  13.827
25308W        W90788  12.166  28.597   1.269
25309W        W90789  28.597  15.178   0.825
25310W        W90790   4.391  37.406  14.016
25311W        W90791  31.906  37.348  11.452
25312W        W90792  30.417  27.996   4.675
25313W        W90793  39.364  16.097   1.230
25314W        W90794  29.127  33.591  13.831
25315W        W90795  36.983  27.620  14.371
25316W        W90796  11.834  40.832  12.370
25317W        W90797  11.289   0.316   4.117
25318W        W90798  43.366   6.230  11.033
25319W        W90799  34.987  14.593  10.423
25320W        W90800   4.865  39.982  13.489
25321W        W90801   9.223  12.838   4.706
25322W        W90802  36.079   6.215   3.860
25323W        W90803  18.781   1.336   0.790
25324W        W90804   9.357  38.063   3.191
25325W        W90805  43.291  20.101  11.379
25326W        W90806   7.834  22.675   4.125
25327W        W90807  38.064   3.405  12.841
25328W        W90808   2.290  27.018  11.005
25329W        W90809  36.527   5.819  14.351
25330W        W90810  28.127   2.314  10.634
25331W        W90811  43.284  12.361   1.449
25332W        W90812  10.262  35.857  12.544
25333W        W90813  17.590  27.523  14.865
25334W        W90814  21.192  44.262  13.831
25335W        W90815  41.967  44.934  12.411
25336W        W90816   0.917  35.495   1.275
25337W        W90817  39.508  21.552   0.950
25338W        W90818   9.263   0.343  14.799
25339W        W90819  24.526   1.441   3.838
25340W        W90820  26.133  16.216  10.464
25341W        W90821  36.528  39.390   1.270
25342W        W90822  10.741  41.353   2.225
25343W        W90823  16.636  22.083   0.323
25344W        W90824  24.078   4.267  14.426
25345W        W90825  29.025  42.975   0.766
25346W        W90826  10.360  36.392   0.270
25347W        W90827  40.489  33.942   0.867
25348W        W90828  33.022  19.127   1.319
25349W        W90829   7.173   0.885  12.955
25350W        W90830  39.336   5.756  14.993
25351W        W90831  20.219  32.062   3.684
25352W        W90832  34.523   1.915   1.307
25353W        W90833  39.338  16.569   3.800
25354W        W90834  21.628  38.849  14.402
25355W        W90835  22.161  18.776   1.849
25356W        W90836  43.337  19.183   4.688
25357W        W90837  21.745  36.383  13.370
25358W        W90838  28.630  11.661   4.658
25359W        W90839  25.566  14.650  14.412
25360W        W90840  24.593   4.930   2.708
25361W        W90841  21.189  27.518  14.423
25362W        W90842  38.551  28.129   2.672
25363W        W90843  23.177  36.542   3.848
25364W        W90844  27.549   2.848   3.758
25365W        W90845   3.729  31.469   2.688
25366W        W90846  40.923   3.394   1.250
25367W        W90847  27.519   7.393  12.060
25368W        W90848  33.035  30.126  13.314
25369W        W90849   4.751  11.744   0.473
25370W        W90850  19.623  12.802   0.409
25371W        W90851  15.089  37.538  12.432
25372W        W90852  11.185  26.103   1.861
25373W        W90853  16.138  31.603  13.041
25374W        W90854  13.105  38.968  12.968
25375W        W90855  15.297  12.653  10.894
25376W        W90856  11.744  35.477   4.781
25377W        W90857  39.007  40.511  10.621
25378W        W90858  18.753   7.215   4.288
25379W        W90859  16.774  35.038  11.088
25380W        W90860  37.843  31.645  11.959
25381W        W90861  36.986  31.973  10.514
25382W        W90862  42.977  37.426   4.755
25383W        W90863  41.377  24.170  10.549
25384W        W90864  19.687  31.112   3.815
25385W        W90865   2.265  31.546   4.768
25386W        W90866   1.909   5.401  13.886
25387W        W90867  21.610  41.892  10.511
25388W        W90868  18.571  42.411  14.774
25389W        W90869  26.208  30.494   5.301
25390W        W90870  22.015  23.556  11.104
25391W        W90871  21.118   0.403   5.228
25392W        W90872  17.606  43.445   0.439
25393W        W90873  26.650  42.383  13.308
25394W        W90874  10.305  19.236   3.235
25395W        W90875  43.366  40.840  10.642
25396W        W90876  44.481  25.532  10.607
25397W        W90877  35.090  25.481  12.866
25398W        W90878  22.547  44.386  14.485
25399W        W90879   1.943   1.879  10.454
25400W        W90880   1.936  39.552  13.359
25401W        W90881  38.945  13.601  14.445
25402W        W90882  22.055   1.808   4.746
25403W        W90883  19.285   7.890  12.020
25404W        W90884  28.563   4.368  10.480
25405W        W90885  30.625  12.780  12.061
25406W        W90886  39.941  29.959   1.303
25407W        W90887  14.804  10.319  13.849
25408W        W90888  27.533   6.832  13.862
25409W        W90889  24.510  15.777  12.866
25410W        W90890  17.267  25.060   0.747
25411W        W90891  38.476  20.746  13.534
25412W        W90892  28.556  36.968  10.994
25413W        W90893  42.463  14.244  14.866
25414W        W90894  41.007  18.563  12.428
25415W        W90895  17.129   2.293  10.895
25416W        W90896  28.622  35.930   0.905
25417W        W90897  31.934   4.282  11.092
25418W        W90898  17.593  24.702  14.896
25419W        W90899  28.941  36.464   3.670
25420W        W90900   2.825  34.422   1.773
25421W        W90901   6.413   4.402  11.974
25422W        W90902   5.346  29.436  14.297
25423W        W90903  21.588  19.088  12.878
25424W        W90904   4.829  36.945   3.764
25425W        W90905   3.381  43.448  11.899
25426W        W90906  12.244  27.446  14.804
25427W        W90907  34.422  36.904  10.909
25428W        W90908  12.628  16.179  10.537
25429W        W90909   7.273  19.689   3.812
25430W        W90910  13.782   5.706  14.286
25431W        W90911  38.480   4.827  11.020
25432W        W90912  41.931  25.169   0.828
25433W        W90913  22.724   9.256  11.907
25434W        W90914  34.003   9.381   1.391
25435W        W90915   7.704  38.055  14.359
25436W        W90916  30.442  40.997   2.356
25437W        W90917   3.271  30.459   3.795
25438W        W90918  10.646   2.418  13.505
25439W        W90919  26.153  32.527   0.763
25440W        W90920  13.706  30.640   0.280
25441W        W90921  40.032  28.931  10.897
25442W        W90922   9.843  22.721  13.858
25443W        W90923  15.800  30.608  11.418
25444W        W90924  14.340  35.554  12.507
25445W        W90925  14.821  35.422   1.782
25446W        W90926   1.384   5.279  12.827
25447W        W90927  25.099  39.893   1.700
25448W        W90928  39.852  39.499  13.993
25449W        W90929   8.684   7.337   2.881
25450W        W90930  10.776  28.620   1.330
25451W        W90931  11.693  38.831  14.299
25452W        W90932   9.666   5.701  11.102
25453W        W90933   9.818   4.822   0.256
25454W        W90934  30.057  34.934  14.353
25455W        W90935  10.148  36.422  12.911
25456W        W90936  17.149  40.401   3.746
25457W        W90937   3.307  31.038  14.989
25458W        W90938  33.053   0.751   3.205
25459W        W90939  27.032  10.832   2.794
25460W        W90940  29.167   1.245  11.026
25461W        W90941   7.397   4.367   1.711
25462W        W90942  26.025  13.801  13.881
25463W        W90943  35.876   8.775   2.729
25464W        W90944  27.529  22.646   2.732
25465W        W90945   7.225  24.649   3.643
25466W        W90946  23.078  13.844   0.754
25467W        W90947  40.956   7.702   0.337
25468W        W90948  11.232  11.289  14.896
25469W        W90949  20.689  39.450   3.693
25470W        W90950  44.852  27.535  10.993
25471W        W90951  44.806   9.154   0.964
25472W        W90952   3.853  33.527   0.316
25473W        W90953  20.663  10.846   0.802
25474W        W90954  18.150  14.339   3.663
25475W        W90955  32.601  11.304  13.348
25476W        W90956  18.683  40.532  12.059
25477W        W90957  11.302  32.084   3.257
25478W        W90958  32.535  20.086   0.244
25479W        W90959  19.670   2.247   0.898
25480W        W90960   8.264   2.270   3.268
25481W        W90961  15.213   5.718   1.317
25482W        W90962  29.527  38.544  14.798
25483W        W90963  28.187  31.999   2.302
25484W        W90964  25.092  21.666   1.308
25485W        W90965  11.848  42.527  12.986
25486W        W90966   9.184  41.460  11.857
25487W        W90967  42.896  15.623   0.891
25488W        W90968   3.239  25.126   3.328
25489W        W90969  12.151  41.934   2.192
25490W        W90970  11.671   4.755   3.168
25491W        W90971  34.564  31.484  12.495
25492W        W90972  40.443   2.731   4.321
25493W        W90973  14.657  28.594   1.442
25494W        W90974  10.147   5.842   0.783
25495W        W90975  44.915   4.865   1.863
25496W        W90976  14.723  38.357  12.983
25497W        W90977  22.178   5.854  11.388
25498W        W90978  21.133   3.315  14.479
25499W        W90979   4.213  41.022   1.304
25500W        W90980   8.782  12.720  14.393
25501W        W90981  10.757  29.613  14.818
25502W        W90982  19.630  16.106   3.670
25503W        W90983  15.682  18.187  13.892
25504W        W90984   6.796  23.699   1.911
25505W        W90985  19.278  26.191   1.732
25506W        W90986  10.277  44.873  11.123
25507W        W90987  28.079  13.757  13.529
25508W        W90988  38.998  25.527   0.877
25509W        W90989  15.244  25.199  10.411
25510W        W90990  35.421   7.868  10.571
25511W        W90991  28.130  22.730   1.817
25512W        W90992  41.479  41.040   0.472
25513W        W90993  11.709  37.045   0.360
25514W        W90994  39.047  20.065  10.504
25515W        W90995  26.614  28.500   3.815
25516W        W90996  44.844  33.063   1.336
25517W        W90997   4.843  37.494   2.187
25518W        W90998  26.203  42.872   1.869
25519W        W90999  30.972  12.817  14.799
25520W        W91000  27.943   6.797  11.878
25521W        W91001  35.029  19.270   1.803
25522W        W91002  39.412  23.993  14.511
25523W        W91003  26.093  38.831   2.813
25524W        W91004  34.497  22.738   2.261
25525W        W91005   1.277   2.297   2.901
25526W        W91006  31.510  31.104   2.676
25527W        W91007  33.965  24.077  11.971
25528W        W91008  32.970  21.703   3.746
25529W        W91009   6.750  28.619   3.194
25530W        W91010  16.668   4.337   0.389
25531W        W91011   1.940  30.037   2.380
25532W        W91012  36.066  23.214  11.964
25533W        W91013  29.521   1.384   2.841
25534W        W91014  12.731  11.723   3.704
25535W        W91015   0.352  10.705   4.327
25536W        W91016  23.703  41.346  10.988
25537W        W91017  10.644  17.773   4.792
25538W        W91018  33.077  43.282   2.341
25539W        W91019   3.752  20.568   3.387
25540W        W91020   9.183  40.011   1.930
25541W        W91021  29.573  28.594   0.313
25542W        W91022   7.236  13.775   3.646
25543W        W91023  31.035  16.717  13.836
25544W        W91024  19.185  20.633   4.245
25545W        W91025  20.565   4.341   2.281
25546W        W91026  28.653   1.821   3.664
25547W        W91027  43.388  35.401   2.316
25548W        W91028   8.678  36.038  13.992
25549W        W91029   6.733  10.150   5.167
25550W        W91030  32.025  17.715  12.457
25551W        W91031  44.426  31.609  13.948
25552W        W91032  14.649   6.344  13.360
25553W        W91033  33.990   6.812   4.341
25554W        W91034  37.379   0.779  13.446
25555W        W91035  41.331  13.342  10.437
25556W        W91036  33.505  28.561   2.288
25557W        W91037  37.519  31.449   1.771
25558W        W91038  17.168  24.179   1.299
25559W        W91039  26.580  25.016  12.404
25560W        W91040  44.948  15.104  11.554
25561W        W91041  36.070   0.336  12.896
25562W        W91042  11.633  18.276  11.855
25563W        W91043   1.958  30.969   3.851
25564W        W91044  15.282  28.982  13.449
25565W        W91045  30.973  31.620  10.588
25566W        W91046  34.374  32.061  12.461
25567W        W91047  40.883  30.572   1.236
25568W        W91048  41.518  24.548  14.908
25569W        W91049   2.420  12.657   2.305
25570W        W91050  44.874  21.240  12.905
25571W        W91051   3.793  13.639   1.726
25572W        W91052  32.409  23.507  14.333
25573W        W91053  37.408  19.534   3.253
25574W        W91054  36.361  21.635   1.370
25575W        W91055  14.744  36.449   3.211
25576W        W91056  12.239  11.144  13.902
25577W        W91057   2.728  42.281  10.594
25578W        W91058  44.488   3.311   5.101
25579W        W91059   2.257  29.581  11.417
25580W        W91060  31.626  35.371   3.717
25581W        W91061  12.688  10.745   3.691
25582W        W91062  16.125   5.905   0.892
25583W        W91063  40.502   1.401   4.649
25584W        W91064  10.158  13.241   0.452
25585W        W91065  19.108  39.960  13.447
25586W        W91066  19.769   0.340  13.543
25587W        W91067  24.514   9.759   1.444
25588W        W91068  15.757  21.570  12.991
25589W        W91069   6.702  23.011   4.200
25590W        W91070  31.486  26.613  10.487
25591W        W91071   8.677  13.765   4.792
25592W        W91072  20.654  29.564  11.505
25593W        W91073  41.911   2.386  11.571
25594W        W91074   0.959  39.366  13.893
25595W        W91075  42.848  12.776   2.396
25596W        W91076  34.067   9.328   0.959
25597W        W91077  36.350  31.515  13.395
25598W        W91078  37.869   9.750   3.831
25599W        W91079   2.944  21.596   2.370
25600W        W91080  10.319  44.294  13.470
25601W        W91081   9.669  11.799   4.769
25602W        W91082  30.914  41.028   4.720
25603W        W91083  39.326  12.362   1.877
25604W        W91084   7.670  25.094  11.933
25605W        W91085  20.742  28.166   2.662
25606W        W91086  11.223   4.885  10.999
25607W        W91087  25.485   6.318   4.715
25608W        W91088  39.836  39.473  14.307
25609W        W91089   4.867  33.054   3.808
25610W        W91090  37.975  34.071   0.333
25611W        W91091  37.525  31.543  13.951
25612W        W91092  19.256   5.416   1.367
25613W        W91093  29.992  28.052   1.723
25614W        W91094  11.723  33.605  11.392
25615W        W91095  35.989  35.397   3.214
25616W        W91096   2.336  30.968  11.562
25617W        W91097  37.929  36.570   2.222
25618W        W91098  41.794  24.647   2.313
25619W        W91099  17.261  39.458  12.549
25620W        W91100  19.648  27.949   4.173
25621W        W91101   8.822  11.755   0.759
25622W        W91102  40.463   1.931   1.871
25623W        W91103  16.703  42.888  14.458
25624W        W91104  40.504  40.359  11.030
25625W        W91105  34.540  12.156  14.858
25626W        W91106  26.501  42.320  13.808
25627W        W91107  27.543  20.649   4.650
25628W        W91108  23.101  18.293  14.511
25629W        W91109  37.916  13.169   1.738
25630W        W91110  20.097   6.273   3.145
25631W        W91111  11.247  29.646   1.315
25632W        W91112  37.085  17.669  12.085
25633W        W91113  38.348  27.187  13.954
25634W        W91114   3.720  21.078  10.556
25635W        W91115  10.740  22.121  13.029
25636W        W91116  16.113  41.874  11.607
25637W        W91117   9.646  28.635  12.041
25638W        W91118  13.126  31.009   3.712
25639W        W91119  34.588   6.246   4.779
25640W        W91120  13.251  30.100   1.859
25641W        W91121  33.037  39.392  14.390
25642W        W91122  33.886  18.187  13.807
25643W        W91123  31.570  34.040   3.334
25644W        W91124   2.449  20.589  14.349
25645W        W91125  25.664   2.825   2.338
25646W        W91126  36.358  24.032   0.427
25647W        W91127  37.488  19.227  13.462
25648W        W91128  32.607  43.851  13.441
25649W        W91129  38.065   4.921  12.924
25650W        W91130  19.672  38.905   2.789
25651W        W91131  26.103  29.465   1.793
25652W        W91132  44.957   0.319   3.274
25653W        W91133  12.255  32.585   2.880
25654W        W91134  25.569   1.374   2.276
25655W        W91135  39.404   1.930   1.259
25656W        W91136  11.657   7.884  11.565
25657W        W91137  25.017  20.060   4.207
25658W        W91138  25.966  17.717   3.169
25659W        W91139   2.242   7.733  13.896
25660W        W91140  12.674  26.076  11.555
25661W        W91141   5.828  41.979  14.935
25662W        W91142  23.087  20.591  10.406
25663W        W91143  19.534   1.787   4.327
25664W        W91144   0.774  34.419   0.460
25665W        W91145  18.104  21.691  11.040
25666W        W91146  24.117   6.251  14.872
25667W        W91147  41.813  20.677   4.239
25668W        W91148  17.709  25.185  10.481
25669W        W91149  23.192   8.896  13.952
25670W        W91150  27.035  14.764  12.989
25671W        W91151  29.165   3.795  13.863
25672W        W91152  32.562  13.170   2.258
25673W        W91153  13.689  43.886  10.035
25674W        W91154  34.018  36.363  13.892
25675W        W91155  32.489  13.333  11.584
25676W        W91156   5.757  28.647  13.511
25677W        W91157  36.873  30.007   4.628
25678W        W91158  15.679  44.862  11.395
25679W        W91159  43.315   2.888  14.297
25680W        W91160  34.103  21.678   3.648
25681W        W91161  20.717   0.474  14.446
25682W        W91162   8.720   6.392   3.656
25683W        W91163  12.238  37.503   0.251
25684W        W91164  36.940  29.456  11.608
25685W        W91165  33.917  24.574  12.910
25686W        W91166  29.060  34.926  12.044
25687W        W91167   6.234   1.423  12.052
25688W        W91168  34.926  30.651   1.416
25689W        W91169   8.351  33.979   2.264
25690W        W91170  35.359  14.191   3.221
25691W        W91171   0.856  18.234   4.702
25692W        W91172   5.819  42.893   2.806
25693W        W91173  16.777   4.878  12.526
25694W        W91174  17.718  22.731  13.034
25695W        W91175  39.358  10.219   3.705
25696W        W91176  11.325  25.632   3.310
25697W        W91177   0.376   2.303   4.766
25698W        W91178  16.804  11.753  14.860
25699W        W91179   8.797  21.638  10.534
25700W        W91180  10.303   6.694  14.976
25701W        W91181  29.000  10.358  14.781
25702W        W91182  28.520  27.996   1.919
25703W        W91183  21.157  35.047  11.872
25704W        W91184   6.282  22.604  12.054
25705W        W91185  13.814  33.076   4.670
25706W        W91186  43.838  40.041   1.892
25707W        W91187  16.115  38.965   0.934
25708W        W91188   4.827  42.949   0.728
25709W        W91189  26.628  27.130  12.904
25710W        W91190  16.699  22.704   3.754
25711W        W91191   5.406  24.676  13.812
25712W        W91192  10.817  19.570   0.832
25713W        W91193  12.290   5.919   2.878
25714W        W91194   7.278  23.063  11.935
25715W        W91195   3.954  11.194   2.267
25716W        W91196  11.674  43.369   4.785
25717W        W91197  31.022  10.286   0.776
25718W        W91198  22.240   8.346  14.830
25719W        W91199   3.216  43.303   2.823
25720W        W91200  26.484   0.756  11.011
25721W        W91201  14.135  41.873   0.482
25722W        W91202  44.946  11.367  11.386
25723W        W91203   3.375  15.779  14.948
25724W        W91204  41.995   6.246  14.348
25725W        W91205  12.310  37.400  10.411
25726W        W91206  16.150  31.991   3.305
25727W        W91207  41.441   3.322  10.126
25728W        W91208  38.456  22.129  10.982
25729W        W91209  11.228  42.927   4.147
25730W        W91210  10.379   6.755   3.658
25731W        W91211  37.848  25.559  10.635
25732W        W91212  10.752  21.077   0.271
25733W        W91213  15.144  23.218  13.961
25734W        W91214  17.780   5.253  11.103
25735W        W91215   9.300  10.667   0.243
25736W        W91216  42.806  36.541  10.515
25737W        W91217  21.677  20.700  11.933
25738W        W91218  44.335  41.991  10.908
25739W        W91219  26.584  14.716  10.477
25740W        W91220  28.518  29.956   2.303
25741W        W91221  38.960  44.006  11.408
25742W        W91222  35.423  29.527   0.798
25743W        W91223  38.890  43.773   3.326
25744W        W91224  20.062  38.550   4.693
25745W        W91225   3.930  31.461   0.851
25746W        W91226  25.714  32.002   3.184
25747W        W91227  19.078   9.810   4.689
25748W        W91228  27.595  35.880  12.512
25749W        W91229  33.064   7.373   4.141
25750W        W91230   6.790  29.511   2.777
25751W        W91231   9.217  19.747   3.268
25752W        W91232  19.267  40.041  11.532
25753W        W91233  42.801  39.346   1.342
25754W        W91234  36.520  26.098   4.671
25755W        W91235  11.225  37.441  11.538
25756W        W91236   1.770  21.674  10.429
25757W        W91237  43.299  30.159   3.702
25758W        W91238  37.956  28.649  13.966
25759W        W91239   6.859  25.689   3.832
25760W        W91240  31.412   3.917   0.420
25761W        W91241  19.660  13.265   4.752
25762W        W91242  13.228  43.344   1.409
25763W        W91243   4.847  30.046   3.300
25764W        W91244   4.894  39.454   2.387
25765W        W91245  28.615   5.710   3.687
25766W        W91246  15.097  22.585  13.825
25767W        W91247  44.444  11.344   3.720
25768W        W91248  44.895  19.262  14.015
25769W        W91249   4.415   7.837  10.521
25770W        W91250   9.213  30.934   2.741
25771W        W91251  28.661  10.759  11.386
25772W        W91252  40.825  35.534   1.850
25773W        W91253  26.703  30.076  11.608
25774W        W91254  38.331  35.604  11.951
25775W        W91255  12.191  15.738   2.232
25776W        W91256  31.011  20.201  12.000
25777W        W91257  37.980  22.160   1.860
25778W        W91258   4.316  12.658   4.329
25779W        W91259  12.208  36.076   0.426
25780W        W91260  31.485   8.855   5.285
25781W        W91261  27.591  10.357   4.628
25782W        W91262  10.792  40.473  12.998
25783W        W91263  35.934  11.335   3.772
25784W        W91264  17.639  25.106   5.124
25785W        W91265  31.520  40.007  11.406
25786W        W91266  27.064  11.128  13.388
25787W        W91267  28.531  19.057  11.102
25788W        W91268   4.939  38.338   3.340
25789W        W91269   6.716  33.487  14.305
25790W        W91270  11.313  20.189  13.874
25791W        W91271  40.368  15.692  11.565
25792W        W91272  41.844  19.121   3.855
25793W        W91273  28.177  41.876  13.539
25794W        W91274  13.231  37.347   5.318
25795W        W91275  20.049   4.797  11.437
25796W        W91276  20.606  29.018   4.329
25797W        W91277  37.562  26.125   3.686
25798W        W91278  17.144  40.371   0.929
25799W        W91279  21.081  13.164  10.611
25800W        W91280  15.321   9.288   4.141
25801W        W91281  26.638  43.511   2.249
25802W        W91282  18.623  16.783   0.898
25803W        W91283  38.407  15.248  13.350
25804W        W91284  40.348  32.457  13.475
25805W        W91285  32.421  12.175  12.567
25806W        W91286  28.095  23.987   1.828
25807W        W91287   9.690  38.533  12.081
25808W        W91288  35.541   3.327   4.322
25809W        W91289   1.295  34.026  13.859
25810W        W91290   7.782  24.602  14.294
25811W        W91291   0.750  17.239   4.218
25812W        W91292  10.182   6.378   5.231
25813W        W91293  39.816  36.047  11.380
25814W        W91294  30.036  32.942  12.086
25815W        W91295  38.921  21.089  14.844
25816W        W91296  42.456  36.097  14.416
25817W        W91297  41.377  17.789  11.871
25818W        W91298  15.600  27.165   3.676
25819W        W91299  16.619  37.064   0.452
25820W        W91300  31.415  10.771  14.906
25821W        W91301  30.130  12.183  12.564
25822W        W91302  23.655  34.443   0.395
25823W        W91303  22.147  15.228  13.430
25824W        W91304   2.910  10.709   2.822
25825W        W91305  25.177  35.005  10.964
25826W        W91306   2.456   5.232  10.561
25827W        W91307  11.742  42.810  11.606
25828W        W91308  33.482  29.597   5.115
25829W        W91309  31.477  13.149  14.928
25830W        W91310  19.250   5.799  14.824
25831W        W91311  14.230  23.665   0.955
25832W        W91312  25.161  32.993  10.540
25833W        W91313  10.282   4.769   4.124
25834W        W91314  31.112  21.183  11.864
25835W        W91315   0.978  15.818   3.704
25836W        W91316  39.321   8.299   0.422
25837W        W91317  26.202  19.257  13.898
25838W        W91318  29.981  34.544   1.255
25839W        W91319   5.225   3.357  11.002
25840W        W91320  12.613  44.392  11.979
25841W        W91321  30.042  42.447   1.378
25842W        W91322   8.355   3.885   2.214
25843W        W91323  14.221  33.470  12.349
25844W        W91324  28.994  26.150   3.288
25845W        W91325  39.365  44.984  14.774
25846W        W91326   8.364  14.814   1.924
25847W        W91327  40.942  43.839  11.562
25848W        W91328   2.770  40.373  13.325
25849W        W91329  42.954  24.160  11.502
25850W        W91330   8.324  16.804  14.914
25851W        W91331   8.254  23.072   2.875
25852W        W91332  30.131  35.398   4.709
25853W        W91333   3.939   8.892  13.466
25854W        W91334  16.251   7.766  13.913
25855W        W91335  16.713  40.437  14.824
25856W        W91336  39.914  16.727   5.245
25857W        W91337  27.477  19.139   0.734
25858W        W91338  35.043  38.340  12.443
25859W        W91339  22.114   5.378   3.665
25860W        W91340   1.747  23.117  11.973
25861W        W91341  10.766  32.902  11.395
25862W        W91342  32.442   8.215  12.047
25863W        W91343  36.519  23.584   2.276
25864W        W91344   2.283  15.159   1.282
25865W        W91345  27.655  42.461   0.910
25866W        W91346  30.457   3.864  11.597
25867W        W91347  37.019   4.908  11.868
25868W        W91348   5.768   4.873  10.414
25869W        W91349  17.595  11.320  11.969
25870W        W91350  35.945  40.424   4.777
25871W        W91351  28.474  35.004   0.466
25872W        W91352   1.955  17.743   1.746
25873W        W91353   2.799  22.669  10.558
25874W        W91354  20.129  29.532   4.310
25875W        W91355  34.951  31.953  11.968
25876W        W91356  18.587  29.546   2.347
25877W        W91357   5.905  28.114   2.343
25878W        W91358  30.631   4.822   4.241
25879W        W91359   6.302   3.439   5.260
25880W        W91360  38.460   9.761   1.243
25881W        W91361   6.221   7.226   1.853
25882W        W91362  41.466  39.927   0.927
25883W        W91363  43.856   5.360  14.762
25884W        W91364  29.048  19.742  11.009
25885W        W91365  43.791  35.469   3.843
25886W        W91366  38.358  39.435  10.546
25887W        W91367  24.643  13.717  14.876
25888W        W91368  33.564  33.119  10.132
25889W        W91369  33.410  17.585  14.790
25890W        W91370  24.664  42.828   1.409
25891W        W91371  17.122  27.658   1.287
25892W        W91372   9.664  38.011   1.216
25893W        W91373  17.110  32.974   5.173
25894W        W91374  43.426  35.042   2.740
25895W        W91375  43.479   4.291   0.817
25896W        W91376  28.183  31.903   0.862
25897W        W91377  19.130   1.932   4.242
25898W        W91378  27.451   1.417  14.772
25899W        W91379  38.340  20.586   3.294
25900W        W91380  35.040  28.519   2.696
25901W        W91381  14.653   1.771   3.161
25902W        W91382  35.956  43.380  12.452
25903W        W91383  27.140  31.428   3.826
25904W        W91384  33.996  13.213  12.359
25905W        W91385   4.822  40.510   5.136
25906W        W91386  26.598  14.608   0.841
25907W        W91387  42.381   4.246   2.283
25908W        W91388   4.416  18.147   1.857
25909W        W91389  22.570  16.666   0.251
25910W        W91390  24.083  30.540  13.828
25911W        W91391  16.717   6.358   3.202
25912W        W91392  12.824  23.720  14.827
25913W        W91393  19.640  14.646  12.854
25914W        W91394  11.360  14.340   0.383
25915W        W91395  44.499  11.194  10.106
25916W        W91396   3.325  35.478  12.935
25917W        W91397   0.438  23.516   4.334
25918W        W91398  29.096  31.615  14.471
25919W        W91399   6.276  20.165   1.908
25920W        W91400  16.691  43.818  14.446
25921W        W91401  13.628  31.956  12.042
25922W        W91402  37.065  19.074   0.246
25923W        W91403   3.387  12.128   1.829
25924W        W91404  30.965   3.899   2.387
25925W        W91405  25.211  30.653   1.302
25926W        W91406  31.045  39.468   3.298
25927W        W91407   5.901  40.947   1.784
25928W        W91408   8.226  21.036   1.319
25929W        W91409  13.749  41.419  10.477
25930W        W91410  34.117  21.027   2.869
25931W        W91411  18.219  31.437  13.487
25932W        W91412  41.841  27.509  13.915
25933W        W91413  32.575  12.740   0.925
25934W        W91414   9.831  40.962  11.858
25935W        W91415   9.282   5.346  12.079
25936W        W91416  12.276  12.721   3.245
25937W        W91417  32.616   9.730   4.615
25938W        W91418  25.217  27.561  13.888
25939W        W91419  26.516  41.955   0.283
25940W        W91420   9.282  43.957   4.664
25941W        W91421  28.571   7.384   2.783
25942W        W91422  22.247  27.586   4.698
25943W        W91423  39.899  36.046   2.246
25944W        W91424  41.388  23.062  11.607
25945W        W91425  28.442   7.683   4.675
25946W        W91426  33.972  30.568   4.187
25947W        W91427   2.233  36.987   4.291
25948W        W91428  31.941  10.694   2.347
25949W        W91429  13.255  18.678  11.478
25950W        W91430  13.256   8.378  11.056
25951W        W91431  24.690  40.801   0.940
25952W        W91432  31.588   6.322  13.319
25953W        W91433  10.647  17.572   4.294
25954W        W91434  36.412  33.477   5.313
25955W        W91435  11.643  23.624  13.477
25956W        W91436  39.988  31.453   0.850
25957W        W91437  27.560  23.156  11.865
25958W        W91438  36.361   3.362   4.761
25959W        W91439  26.101  39.941  11.500
25960W        W91440   1.367  29.431  14.466
25961W        W91441  41.484  29.458  11.923
25962W        W91442   8.711  27.577   3.833
25963W        W91443  42.333  40.902  13.338
25964W        W91444   4.917  31.630   0.462
25965W        W91445  17.687  39.862  13.948
25966W        W91446  36.451  29.545   0.459
25967W        W91447  11.632  25.664  14.825
25968W        W91448  28.084  21.717   2.410
25969W        W91449  14.114  23.215  14.836
25970W        W91450  30.435  17.691  11.571
25971W        W91451  36.933  35.001   3.273
25972W        W91452  29.641  23.192  14.347
25973W        W91453  38.891  24.974  12.875
25974W        W91454  33.099  39.066   2.188
25975W        W91455  38.892  44.858   0.888
25976W        W91456   6.409  43.409   1.839
25977W        W91457   6.795  21.719  10.407
25978W        W91458  12.742  11.759  11.050
25979W        W91459  21.140  25.117   2.684
25980W        W91460  26.657  13.184  14.982
25981W        W91461  26.696  17.083   0.953
25982W        W91462  34.512  44.887   4.649
25983W        W91463   1.351  16.281  13.312
25984W        W91464  14.726  22.220   0.761
25985W        W91465  24.513   8.246   0.733
25986W        W91466  44.391  39.528   0.363
25987W        W91467  14.266   1.947   3.818
25988W        W91468  14.121  43.816  10.493
25989W        W91469   5.366  19.720  10.472
25990W        W91470  41.909  17.595  11.946
25991W        W91471  31.432  14.186  13.500
25992W        W91472  18.780  44.844   1.289
25993W        W91473  37.368  19.556   1.418
25994W        W91474   0.466  33.396   1.707
25995W        W91475   5.904  12.303   3.704
25996W        W91476  43.993  24.672   1.921
25997W        W91477  28.026   2.839   1.259
25998W        W91478   0.863  27.578   4.672
25999W        W91479   8.857  37.549  14.759
26000W        W91480  32.975  44.939  13.050
26001W        W91481  25.144  37.552  11.373
26002W        W91482  10.151  31.029  11.423
26003W        W91483  27.186   1.763   4.767
26004W        W91484   8.706  31.086  11.556
26005W        W91485   1.950  31.589  11.542
26006W        W91486  14.107  15.697   4.707
26007W        W91487  37.013  37.059  13.816
26008W        W91488  32.499  17.661  12.569
26009W        W91489  11.851  30.979  13.363
26010W        W91490  39.910  41.494  10.940
26011W        W91491  37.843  27.139   3.833
26012W        W91492  40.821  33.066  14.939
26013W        W91493  23.181  11.190  11.376
26014W        W91494  24.687  44.807  14.874
26015W        W91495  14.273  26.687  13.884
26016W        W91496  41.792  37.912   2.802
26017W        W91497  19.547   2.967   4.726
26018W        W91498  22.622   1.459   4.710
26019W        W91499  23.205  42.948   9.439
26020W        W91500  12.273  16.261   3.752
26021W        W91501   4.432   7.404   3.148
26022W        W91502  22.132  41.810  11.447
26023W        W91503   5.931  37.943   2.209
26024W        W91504  19.280   7.357  10.405
26025W        W91505  17.145  27.641   4.278
26026W        W91506   2.771  15.166  11.506
26027W        W91507  20.559  13.335  14.849
26028W        W91508  40.848  35.878  10.627
26029W        W91509  13.284  15.158   0.454
26030W        W91510   0.276  13.844   2.370
26031W        W91511  25.126  40.477   4.683
26032W        W91512  39.462  27.107   3.760
26033W        W91513   6.864  27.531   4.213
26034W        W91514  28.048   5.307  14.359
26035W        W91515  20.627   3.254   4.234
26036W        W91516  10.342  22.130   0.852
26037W        W91517   8.784  13.289   3.169
26038W        W91518  14.280  18.650  14.471
26039W        W91519  29.489  13.180   2.881
26040W        W91520  23.563  24.106  12.556
26041W        W91521  32.096  37.076  10.928
26042W        W91522  34.980  30.136   1.718
26043W        W91523  36.437   0.370  11.020
26044W        W91524   7.684   6.708  14.324
26045W        W91525  39.939   2.921  13.321
26046W        W91526   2.228  13.649  12.955
26047W        W91527  30.599  23.520   2.811
26048W        W91528  25.979  30.601  11.536
26049W        W91529  22.201  20.199  11.555
26050W        W91530   5.231  20.606  12.474
26051W        W91531  23.996  32.909  12.896
26052W        W91532  17.769  21.095   3.154
26053W        W91533  38.916  20.570   3.326
26054W        W91534  40.924  19.535   2.705
26055W        W91535  42.839  21.668  13.853
26056W        W91536   1.734  29.443   0.731
26057W        W91537  42.507  43.968  13.393
26058W        W91538  34.002  20.690   4.326
26059W        W91539  22.595  40.962   4.714
26060W        W91540  14.126   1.281   0.948
26061W        W91541  27.041  11.147   2.783
26062W        W91542  10.714   2.808  13.010
26063W        W91543  26.176   1.325  12.531
26064W        W91544  23.589  32.469  12.398
26065W        W91545  23.105  40.539   0.387
26066W        W91546   2.287  33.624  11.938
26067W        W91547  16.251  17.287  10.136
26068W        W91548  38.028  15.578  10.972
26069W        W91549  25.504   1.921  13.434
26070W        W91550  24.005  24.135  11.020
26071W        W91551  18.790  42.461  13.032
26072W        W91552  43.506  38.027  12.432
26073W        W91553  34.086  42.317   3.813
26074W        W91554  28.936   0.460  10.582
26075W        W91555  19.756  36.957  11.080
26076W        W91556  21.690  12.352  11.560
26077W        W91557   1.925  37.955   5.279
26078W        W91558  43.927  23.154   1.248
26079W        W91559  18.604  19.762  13.319
26080W        W91560   6.269  37.524  11.015
26081W        W91561  31.015  39.014   2.260
26082W        W91562  23.993  38.552  14.816
26083W        W91563  28.054  16.251   4.641
26084W        W91564  28.104  23.235  11.608
26085W        W91565  31.136  10.270  11.869
26086W        W91566  39.971  21.118  14.910
26087W        W91567  41.502   4.766   0.911
26088W        W91568  11.678   3.404  10.631
26089W        W91569  25.614  19.769   0.758
26090W        W91570  42.488   9.855   2.389
26091W        W91571  16.261  28.014   0.738
26092W        W91572  41.482  20.113   5.173
26093W        W91573   9.757  14.718  14.439
26094W        W91574  33.893  18.619  10.427
26095W        W91575  26.559   3.747   4.338
26096W        W91576  31.910  31.453  12.033
26097W        W91577  18.276   6.244   4.615
26098W        W91578  14.619  34.560  11.905
26099W        W91579  28.050   5.325   2.808
26100W        W91580   1.308  20.760  12.557
26101W        W91581  39.368   2.401   4.834
26102W        W91582  26.575  24.578  11.410
26103W        W91583  42.307  13.705   4.253
26104W        W91584  25.614  41.390  12.076
26105W        W91585  32.923  21.689  11.541
26106W        W91586  27.941  22.699   4.279
26107W        W91587   8.213  25.467  12.353
26108W        W91588   1.404  29.167   1.412
26109W        W91589  11.678  16.644  13.340
26110W        W91590  17.688  20.743  10.452
26111W        W91591   4.320  23.596  13.437
26112W        W91592  14.162   0.361   0.837
26113W        W91593  27.069  19.066  11.382
26114W        W91594  26.513  28.116   2.740
26115W        W91595  15.159  18.649   2.403
26116W        W91596  34.443  42.293   3.697
26117W        W91597   9.780  19.578  13.977
26118W        W91598  39.431  22.627   3.150
26119W        W91599  32.986  35.907  11.078
26120W        W91600  43.785  35.477  13.993
26121W        W91601  20.162  16.159  13.548
26122W        W91602  15.656  12.705   4.287
26123W        W91603  20.259  20.168  11.987
26124W        W91604  31.953  26.107  13.881
26125W        W91605  35.429  23.503   3.234
26126W        W91606  32.492  31.898   4.303
26127W        W91607  20.158  39.493   2.361
26128W        W91608  13.786  37.578   1.803
26129W        W91609  13.664   8.845  12.874
26130W        W91610  32.453  25.981   2.314
26131W        W91611  28.035  33.110  12.554
26132W        W91612  26.691  11.192  12.983
26133W        W91613  17.063  43.428   4.643
26134W        W91614  31.060  41.917   3.690
26135W        W91615  17.159  36.519  11.549
26136W        W91616   2.281  39.883  11.561
26137W        W91617  29.438   9.362   1.742
26138W        W91618  21.184  30.944   2.746
26139W        W91619  38.877  14.761   3.242
26140W        W91620  38.962   7.727  10.911
26141W        W91621  35.478  16.307   3.366
26142W        W91622  31.490  34.541   0.930
26143W        W91623   5.749  28.957  13.866
26144W        W91624  40.335   2.242   2.309
26145W        W91625  14.118  27.125  12.342
26146W        W91626   4.356  15.136  11.882
26147W        W91627   1.743  17.306  12.094
26148W        W91628  41.892  10.800  14.978
26149W        W91629  23.047  26.099   1.396
26150W        W91630   7.392   5.347  13.954
26151W        W91631  29.475  11.716  14.848
26152W        W91632   2.845   2.776   0.303
26153W        W91633   2.840  41.481   1.224
26154W        W91634  17.193  22.559  10.444
26155W        W91635   2.317  43.378   1.928
26156W        W91636  25.987   9.684  13.324
26157W        W91637  36.039  33.563   1.299
26158W        W91638   5.920   5.817  10.981
26159W        W91639  41.997  18.098   5.783
26160W        W91640  44.803  23.665   0.908
26161W        W91641  34.477  28.656   3.644
26162W        W91642   0.373  11.837   3.327
26163W        W91643  32.936  18.693  10.483
26164W        W91644   8.731  17.297  11.041
26165W        W91645  23.047  36.900   4.200
26166W        W91646  14.156   8.742   4.270
26167W        W91647  14.600  32.527   1.382
26168W        W91648  18.184  30.519  14.923
26169W        W91649  43.284   1.771   3.169
26170W        W91650  32.038  44.319  13.896
26171W        W91651  25.997   0.907   9.963
26172W        W91652  33.033  10.759   2.667
26173W        W91653  30.415  24.480  10.597
26174W        W91654   4.753  25.028   2.352
26175W        W91655  30.658  21.096   0.243
26176W        W91656  14.794  16.285   1.840
26177W        W91657  35.399   4.788  13.017
26178W        W91658   1.459  18.697   0.294
26179W        W91659  44.418  35.965   0.414
26180W        W91660  42.968  32.963   2.409
26181W        W91661  39.386  31.985  11.040
26182W        W91662   6.688  14.776   3.768
26183W        W91663   7.174  32.472  11.398
26184W        W91664  25.124  41.985  10.413
26185W        W91665  11.784  13.320   0.265
26186W        W91666  31.093  34.598   3.800
26187W        W91667   2.233  10.333  13.872
26188W        W91668  37.541  16.120  12.059
26189W        W91669  37.451  15.672  10.968
26190W        W91670  26.173   2.935   0.257
26191W        W91671  24.094   4.294  12.577
26192W        W91672  19.218  23.074  13.811
26193W        W91673  32.456  41.452  12.416
26194W        W91674  29.648  26.157   3.754
26195W        W91675  23.636  39.541  12.343
26196W        W91676   6.347  42.014  11.433
26197W        W91677  25.711  34.440   4.291
26198W        W91678  42.831  33.022  14.286
26199W        W91679  10.198  20.258   1.361
26200W        W91680  29.957   3.397   1.848
26201W        W91681   3.456  27.669   3.706
26202W        W91682  36.861  10.657  14.995
26203W        W91683   6.714  42.921  14.795
26204W        W91684  19.574  38.985   0.746
26205W        W91685  23.193  13.688   2.382
26206W        W91686  14.697  15.284  12.954
26207W        W91687   8.813  31.437  12.539
26208W        W91688  16.670  11.684   0.759
26209W        W91689  30.641   9.695   2.410
26210W        W91690   7.907  32.503  11.024
26211W        W91691   4.818  13.841  13.358
26212W        W91692  16.169  35.381   0.272
26213W        W91693   6.694  26.977   0.748
26214W        W91694   8.405  17.623   1.310
26215W        W91695  21.615  40.903   0.417
26216W        W91696   5.748  15.253   4.244
26217W        W91697  30.425  35.517   4.746
26218W        W91698  24.189  11.844  11.479
26219W        W91699  20.055  31.099  12.892
26220W        W91700  44.996  19.576   2.352
26221W        W91701  27.054   0.921  11.082
26222W        W91702  32.971  36.580  14.426
26223W        W91703  41.447  41.996  12.961
26224W        W91704   4.229  30.081  11.066
26225W        W91705  44.813  39.044  14.029
26226W        W91706   7.373  24.601  10.503
26227W        W91707  32.920  25.566  13.517
26228W        W91708  22.570  37.833  10.913
26229W        W91709  42.824  23.633  14.447
26230W        W91710  44.987  18.729  12.560
26231W        W91711   3.261   1.241   4.630
26232W        W91712   3.336  31.617   0.263
26233W        W91713   3.903  25.123   2.822
26234W        W91714  17.298  24.066  12.080
26235W        W91715  25.070  19.225   4.804
26236W        W91716  38.402   7.789   1.434
26237W        W91717   6.826  28.997   2.861
26238W        W91718  14.718  23.041  14.398
26239W        W91719   4.356  28.933  12.530
26240W        W91720  19.251  18.589  11.022
26241W        W91721  11.282  35.853  13.403
26242W        W91722  41.806  10.287  13.920
26243W        W91723  42.822  40.915   2.690
26244W        W91724  10.310  30.428   0.330
26245W        W91725  41.856  33.950  12.354
26246W        W91726  22.508  28.484  13.438
26247W        W91727  29.004  26.986  14.772
26248W        W91728  17.140   2.871   0.746
26249W        W91729  39.928  23.611   0.891
26250W        W91730  18.098  26.578   1.223
26251W        W91731  10.778  37.468  14.489
26252W        W91732  32.064  20.159   3.347
26253W        W91733  34.402  25.693   1.366
26254W        W91734  32.532  43.838  11.503
26255W        W91735  22.015   3.346  14.314
26256W        W91736  44.444  27.953   5.317
26257W        W91737   3.941  42.830  11.524
26258W        W91738  28.060  21.178   9.968
26259W        W91739  20.194  31.911   1.279
26260W        W91740  22.065   2.823   2.679
26261W        W91741  41.942  41.515  13.382
26262W        W91742  11.165  12.127   3.700
26263W        W91743   4.751  31.115   0.406
26264W        W91744   8.247  24.692   4.663
26265W        W91745  25.536   4.328  14.847
26266W        W91746  18.700  34.914  11.376
26267W        W91747  12.666  19.048  14.501
26268W        W91748  44.264  15.627  10.610
26269W        W91749  43.430  30.528   5.103
26270W        W91750  30.567   8.742   3.165
26271W        W91751  29.048  11.692   0.313
26272W        W91752  10.360  28.523   5.120
26273W        W91753  35.094  44.851  11.578
26274W        W91754  32.485  19.274   1.254
26275W        W91755  21.245  16.566   1.315
26276W        W91756  42.842   2.943   2.857
26277W        W91757  25.648  28.571   4.792
26278W        W91758  41.842  29.564   3.232
26279W        W91759   4.249   2.871  14.337
26280W        W91760  31.924  26.581   0.301
26281W        W91761   4.757  24.668  12.004
26282W        W91762  30.960  41.804  11.940
26283W        W91763  27.034  32.590  14.864
26284W        W91764  24.588  39.902  14.311
26285W        W91765  40.520  37.511   1.872
26286W        W91766   6.869  26.543   5.109
26287W        W91767  43.842  34.477   3.368
26288W        W91768  24.140  29.072   3.362
26289W        W91769  29.533  14.716   0.392
26290W        W91770  20.529   0.824   4.216
26291W        W91771   4.788  24.478   2.197
26292W        W91772  37.065  37.936  13.829
26293W        W91773  10.208  32.989  10.065
26294W        W91774  32.470   4.937  13.484
26295W        W91775   7.181  23.555   0.444
26296W        W91776  14.666  32.948   4.244
26297W        W91777  42.366  12.262   0.838
26298W        W91778  12.752  19.537  13.034
26299W        W91779  38.534  37.849   2.829
26300W        W91780   6.740  36.379   3.247
26301W        W91781   7.682  34.552  13.347
26302W        W91782  29.519  36.868   3.366
26303W        W91783  16.089  39.045   4.135
26304W        W91784  27.626  38.950  14.469
26305W        W91785  17.799  36.426   4.338
26306W        W91786  25.543  44.356   4.256
26307W        W91787  19.187  18.114  13.364
26308W        W91788  31.119  26.143  13.851
26309W        W91789  10.759  13.334   2.188
26310W        W91790   2.754   9.849  12.922
26311W        W91791  44.867  11.365  13.389
26312W        W91792  28.063  20.164   1.839
26313W        W91793  27.666  35.919  10.638
26314W        W91794  30.963  31.110  10.418
26315W        W91795  33.033   1.342  13.445
26316W        W91796  35.107   3.795   0.962
26317W        W91797  37.415   2.308  13.338
26318W        W91798  18.559  32.435   3.796
26319W        W91799  24.164  32.140  11.885
26320W        W91800  32.584  44.295   0.280
26321W        W91801   3.440  42.957  10.592
26322W        W91802  38.855  41.852  14.356
26323W        W91803   8.265  38.412  12.540
26324W        W91804  28.594  21.046  12.992
26325W        W91805   9.364  14.221   4.265
26326W        W91806  24.645  31.478  13.915
26327W        W91807  22.621  22.060  12.059
26328W        W91808  41.484  29.472   3.826
26329W        W91809  36.035   4.223  11.944
26330W        W91810  33.967  39.510  13.451
26331W        W91811   8.189   1.798  12.529
26332W        W91812  19.204  36.412   0.309
26333W        W91813  16.245   2.465   3.183
26334W        W91814  16.643  14.128  14.383
26335W        W91815  10.190  14.173  11.093
26336W        W91816  36.937   7.678  11.591
26337W        W91817   3.314  19.671  12.940
26338W        W91818  29.527  32.634  10.918
26339W        W91819  28.601  26.986  12.084
26340W        W91820  18.247  13.701   3.853
26341W        W91821  38.409  30.120   2.857
26342W        W91822  40.330  15.585   3.637
26343W        W91823  17.112  37.861   2.237
26344W        W91824  36.414  42.289  12.872
26345W        W91825  44.299  24.993  12.021
26346W        W91826  13.819  34.477   4.778
26347W        W91827  23.578  28.989   4.306
26348W        W91828  26.614   0.967  12.014
26349W        W91829   5.232  38.891   3.816
26350W        W91830   7.187  17.238  14.896
26351W        W91831   4.414   5.787   1.815
26352W        W91832  29.934   2.904   1.275
26353W        W91833  37.869  33.598  12.872
26354W        W91834  36.574   3.352   9.980
26355W        W91835  22.594  19.153   2.406
26356W        W91836   8.742   4.379  12.882
26357W        W91837  10.206  17.135  10.465
26358W        W91838  18.170   8.885   4.755
26359W        W91839  40.336  33.121   2.689
26360W        W91840  37.013  15.700   3.758
26361W        W91841  41.859  42.854  12.085
26362W        W91842  20.745  31.453  14.888
26363W        W91843  24.214  28.998  10.922
26364W        W91844  21.751  13.843   4.328
26365W        W91845  36.907   5.199  13.834
26366W        W91846   4.911  19.093   2.740
26367W        W91847  31.411  16.256  14.327
26368W        W91848  13.617  21.524  11.392
26369W        W91849  38.930  23.490   3.833
26370W        W91850   2.769  31.591  13.919
26371W        W91851   9.721  28.548   3.331
26372W        W91852  26.120  16.147  12.915
26373W        W91853  44.816   7.762  11.043
26374W        W91854  15.681  44.294  12.001
26375W        W91855  42.372  13.106  10.573
26376W        W91856  39.010  31.590  12.482
26377W        W91857   5.896  33.880  12.847
26378W        W91858  41.525  41.305   1.926
26379W        W91859  35.407   7.704  12.963
26380W        W91860  10.738  16.598   0.392
26381W        W91861  40.814   8.782   1.403
26382W        W91862  39.943  41.372   4.790
26383W        W91863  24.723  19.742   2.785
26384W        W91864  21.606   3.880   2.829
26385W        W91865  30.653  18.152   2.194
26386W        W91866  41.330  24.204  12.394
26387W        W91867  39.008  26.200  12.402
26388W        W91868  22.703  40.439   4.351
26389W        W91869  40.929  31.100  12.529
26390W        W91870   6.294  10.692  13.960
26391W        W91871  41.413   4.348  10.539
26392W        W91872  21.657  14.120  10.978
26393W        W91873   8.163  38.933   2.844
26394W        W91874   8.775  43.450  12.501
26395W        W91875   7.236   9.212   0.816
26396W        W91876  36.397  11.806  10.031
26397W        W91877   9.648  42.374   0.777
26398W        W91878  30.931   6.774   1.327
26399W        W91879  16.606  12.767   2.197
26400W        W91880  12.188  23.202   3.316
26401W        W91881  17.267  20.183   2.842
26402W        W91882  12.671   4.300   4.675
26403W        W91883  40.411  30.989  11.580
26404W        W91884  44.446  25.499   9.980
26405W        W91885  15.314  34.913   3.675
26406W        W91886  39.000  29.162  13.502
26407W        W91887  14.202  34.587   5.108
26408W        W91888  39.330  41.519  14.827
26409W        W91889  15.227  40.526   1.785
26410W        W91890  34.402  43.940  12.390
26411W        W91891  23.602  37.904  13.847
26412W        W91892  22.058  23.564  10.452
26413W        W91893  14.271  43.331  11.482
26414W        W91894  10.339  40.346  12.948
26415W        W91895  12.220  16.195   1.280
26416W        W91896  15.112  13.128   4.723
26417W        W91897   4.889  40.932   2.712
26418W        W91898   7.291   9.777  13.965
26419W        W91899  12.825  31.574   3.266
26420W        W91900  14.651  38.488   2.884
26421W        W91901  18.657   1.750   4.328
26422W        W91902  30.006   0.912  11.501
26423W        W91903  32.631   0.303   1.786
26424W        W91904  31.630  12.157   3.699
26425W        W91905  19.780   3.725   3.319
26426W        W91906  17.254  28.535  11.934
26427W        W91907  42.443   2.946   4.679
26428W        W91908  32.958  35.936   3.196
26429W        W91909  32.963   5.350   4.290
26430W        W91910  13.219  17.149   5.122
26431W        W91911  18.654  33.002  13.918
26432W        W91912  26.527  19.046   4.322
26433W        W91913   3.274  36.985  13.005
26434W        W91914  18.269  13.291   4.761
26435W        W91915  37.038   7.717  14.331
26436W        W91916  43.964   5.801  13.843
26437W        W91917  22.697  25.208   0.883
26438W        W91918  33.119  20.266  14.436
26439W        W91919   1.364  13.800   0.385
26440W        W91920  14.110  39.040   2.811
26441W        W91921  35.372  16.241  12.540
26442W        W91922   8.839  34.576  12.437
26443W        W91923  23.004  41.875  12.971
26444W        W91924  21.752  16.789   0.864
26445W        W91925  36.075   3.443   5.294
26446W        W91926  12.702   7.320   1.707
26447W        W91927   2.328  38.330  14.330
26448W        W91928   0.378  19.156  11.867
26449W        W91929  42.780  10.341   4.685
26450W        W91930  17.638  19.768  12.945
26451W        W91931  21.249   6.746   2.810
26452W        W91932   8.686  35.422   2.278
26453W        W91933  16.160  13.173  13.796
26454W        W91934  17.604  38.351   3.309
26455W        W91935   5.359   8.196   0.426
26456W        W91936  36.968  21.577  11.442
26457W        W91937   5.916   2.394  11.438
26458W        W91938  29.171  41.895   2.296
26459W        W91939  23.027  22.241   1.791
26460W        W91940  21.234  34.464   0.741
26461W        W91941  31.484   6.681  12.571
26462W        W91942  14.216   2.764   1.287
26463W        W91943  22.719   6.748  10.960
26464W        W91944  16.755   0.478  12.908
26465W        W91945  38.388  42.009   1.914
26466W        W91946  22.078  40.919  13.847
26467W        W91947  15.618  10.236  12.863
26468W        W91948  40.445   7.323   0.260
26469W        W91949  28.943  10.711  14.921
26470W        W91950   2.849  41.838   2.388
26471W        W91951  41.905  37.451   1.824
26472W        W91952  14.614  39.867  10.643
26473W        W91953   8.861  18.630   1.856
26474W        W91954  15.685  36.512  14.909
26475W        W91955  22.518  25.059  12.448
26476W        W91956  35.462  36.467   3.851
26477W        W91957  21.040  28.512   1.836
26478W        W91958   3.879   3.305   0.862
26479W        W91959  23.715  16.644   0.361
26480W        W91960   7.844   8.888  14.830
26481W        W91961  43.348  30.066  13.861
26482W        W91962   4.799   4.430  14.920
26483W        W91963  25.988   3.856  10.443
26484W        W91964  22.653  13.351  14.853
26485W        W91965  17.663  29.520  11.092
26486W        W91966  30.925  15.275   3.784
26487W        W91967  33.455  14.311   1.248
26488W        W91968  33.616  39.433   4.685
26489W        W91969  33.976  15.657   2.376
26490W        W91970   3.457  43.949  10.972
26491W        W91971  26.052  27.014  12.466
26492W        W91972  29.029  18.197   0.759
26493W        W91973   2.401  19.612   9.995
26494W        W91974   8.278  24.048  11.034
26495W        W91975  23.020   6.913   1.816
26496W        W91976   3.894  19.765  14.365
26497W        W91977   9.789  36.021   0.760
26498W        W91978  33.561  20.583  10.416
26499W        W91979  26.093  44.991   4.144
26500W        W91980  26.536  34.868   4.707
26501W        W91981   7.814  44.324  11.037
26502W        W91982  27.159   8.722  12.044
26503W        W91983  29.519  22.134  11.090
26504W        W91984  35.063  22.698  10.090
26505W        W91985  38.857  16.705  10.487
26506W        W91986  22.681   4.428  14.427
26507W        W91987  27.470  31.129   0.763
26508W        W91988   6.720  13.749   1.309
26509W        W91989   7.254  23.196   3.720
26510W        W91990  30.450   7.215  13.411
26511W        W91991   4.884   3.900  14.302
26512W        W91992  31.619  32.425   1.246
26513W        W91993  43.308  23.003   3.157
26514W        W91994   7.828  21.056   1.763
26515W        W91995  34.056  23.637   1.421
26516W        W91996  34.416   3.809   0.744
26517W        W91997  13.304  30.566  14.847
26518W        W91998  33.546  22.619   3.870
26519W        W91999  25.486  13.118  13.892
26520W        W92000  38.482  30.442   0.783
26521W        W92001   2.780   3.846   1.917
26522W        W92002   6.907  42.465  11.441
26523W        W92003  31.088  41.402   3.289
26524W        W92004  44.415   0.782  12.994
26525W        W92005  37.472  34.404   1.837
26526W        W92006  40.434  41.515   4.748
26527W        W92007  43.395  39.449   4.331
26528W        W92008  16.147  10.866  11.579
26529W        W92009  26.083  11.310   3.286
26530W        W92010   2.801  38.484  13.366
26531W        W92011  31.105  31.600  14.860
26532W        W92012  38.872  18.140  13.970
26533W        W92013  34.370  38.531  13.398
26534W        W92014  24.512  28.085  11.036
26535W        W92015  33.594   3.284  12.001
26536W        W92016  30.482  23.570   1.401
26537W        W92017  13.782  33.895  11.388
26538W        W92018  19.773  31.420  11.902
26539W        W92019   2.750  11.372  13.449
26540W        W92020   9.313  29.953  13.459
26541W        W92021  33.024  11.172   0.457
26542W        W92022   4.420  36.946  13.470
26543W        W92023   8.852  42.445  14.366
26544W        W92024  39.992  10.155   0.765
26545W        W92025   6.331  18.784   1.773
26546W        W92026  20.132  33.105   3.149
26547W        W92027  42.316  14.205  11.532
26548W        W92028   4.858  32.957  10.925
26549W        W92029   4.740   6.823  14.850
26550W        W92030  21.199   7.408  12.926
26551W        W92031  20.138   0.335   1.935
26552W        W92032  20.239   1.354  13.414
26553W        W92033  44.502  32.458   4.315
26554W        W92034  17.577   6.747  10.988
26555W        W92035  31.549  21.693  11.962
26556W        W92036  23.501   1.906   1.809
26557W        W92037   2.244  38.480   4.298
26558W        W92038  42.282   3.422  13.382
26559W        W92039  12.156  21.166  12.438
26560W        W92040  13.131  33.056   3.797
26561W        W92041   5.886  19.607   2.713
26562W        W92042  24.708   7.669  11.934
26563W        W92043   4.363  12.717  12.442
26564W        W92044  24.527  16.196   1.396
26565W        W92045  34.074  13.661   0.908
26566W        W92046  42.433   4.429  12.908
26567W        W92047   7.801  11.805  14.023
26568W        W92048  27.993  42.464  11.412
26569W        W92049  12.179  10.372  14.413
26570W        W92050  19.202  24.211  13.508
26571W        W92051  27.573  34.510   0.298
26572W        W92052  23.594   6.204   0.752
26573W        W92053   2.802  41.480  11.560
26574W        W92054  29.496  38.326   0.815
26575W        W92055  15.303   7.182   4.179
26576W        W92056  23.005  30.972   1.804
26577W        W92057  36.926  16.220   2.898
26578W        W92058  26.568  21.747  14.894
26579W        W92059  30.503  36.415   1.421
26580W        W92060  23.100  31.091  11.053
26581W        W92061   2.869  42.292  14.498
26582W        W92062  14.830  39.891   1.915
26583W        W92063  11.209   1.252  10.426
26584W        W92064  43.431  37.553   4.174
26585W        W92065   4.937  43.303   2.848
26586W        W92066  15.647  10.219  13.918
26587W        W92067  25.479  24.646  11.926
26588W        W92068  42.284  16.114  12.575
26589W        W92069   7.759   9.261   4.326
26590W        W92070  18.256  42.463   4.344
26591W        W92071  32.482  20.246  13.384
26592W        W92072   1.318  14.603   4.806
26593W        W92073  20.057  17.267  11.575
26594W        W92074  15.124  13.732   4.785
26595W        W92075  19.122  19.589  10.508
26596W        W92076  27.592  12.639  11.977
26597W        W92077  24.980  22.064   1.210
26598W        W92078  18.633  24.539   1.446
26599W        W92079   1.880   3.938   0.741
26600W        W92080  42.481  20.138   2.679
26601W        W92081  20.039  41.997   0.351
26602W        W92082  42.288   4.243   2.817
26603W        W92083   1.971  22.068   4.297
26604W        W92084  19.771  37.916  11.514
26605W        W92085  38.425  17.713  13.434
26606W        W92086   4.776  32.939   3.245
26607W        W92087  24.632  30.136  10.969
26608W        W92088  34.905  34.438  12.420
26609W        W92089  39.547   8.351  11.084
26610W        W92090  14.116   2.400  14.277
26611W        W92091   0.755  38.028   2.258
26612W        W92092   1.306  44.278  13.970
26613W        W92093  17.228  29.522  14.507
26614W        W92094  21.671  13.143  11.083
26615W        W92095  37.864  26.542   2.830
26616W        W92096  43.378  33.986   4.191
26617W        W92097  21.253  34.108  11.988
26618W        W92098   5.398   1.282  13.964
26619W        W92099  28.017  19.762  13.393
26620W        W92100  28.028  14.269  14.450
26621W        W92101  32.567   6.198  12.501
26622W        W92102  29.028  19.560   4.220
26623W        W92103   7.274  21.562   0.319
26624W        W92104  25.517  32.403  13.494
26625W        W92105  39.021  21.076   3.248
26626W        W92106   7.173  15.209  12.083
26627W        W92107  13.653  19.265   0.439
26628W        W92108  35.875  42.510  11.065
26629W        W92109   9.259  26.089  11.048
26630W        W92110  30.631  37.428   0.278
26631W        W92111   7.225  24.536  14.850
26632W        W92112   2.412   6.309   3.167
26633W        W92113   1.963  41.994  14.355
26634W        W92114   7.206   2.756   3.794
26635W        W92115  17.282  12.736   1.735
26636W        W92116  40.525  14.155  14.311
26637W        W92117  15.275  12.319  14.339
26638W        W92118   1.838  43.378   3.318
26639W        W92119  18.263  23.238   2.721
26640W        W92120  38.934  42.817  13.497
26641W        W92121  28.499  35.360  12.505
26642W        W92122  40.303   5.333  12.530
26643W        W92123  36.006  20.563  12.528
26644W        W92124  11.845  19.687  14.381
26645W        W92125  17.165   8.740  12.362
26646W        W92126  20.042  35.495   0.290
26647W        W92127  14.621  32.428   3.243
26648W        W92128  32.477  28.440   2.271
26649W        W92129  10.344  18.183   4.753
26650W        W92130  27.547  29.035  10.568
26651W        W92131   3.831  22.209   0.769
26652W        W92132   5.904  23.678  11.089
26653W        W92133   2.338   5.749  10.458
26654W        W92134  18.254  23.722   1.781
26655W        W92135  20.180  26.658   2.379
26656W        W92136  33.542  29.141  14.297
26657W        W92137  26.117  15.819  14.823
26658W        W92138  31.965  16.641  10.502
26659W        W92139  11.754  17.730   4.188
26660W        W92140  17.751  24.045   2.237
26661W        W92141   4.877  21.746   3.146
26662W        W92142  34.983   5.334  11.526
26663W        W92143  16.569  18.284  12.544
26664W        W92144  25.648  30.413   1.826
26665W        W92145  16.139  26.991  14.880
26666W        W92146  22.212  25.090   1.435
26667W        W92147  22.721  35.579   3.349
26668W        W92148  22.017  35.507   4.272
26669W        W92149  38.968  32.074  13.418
26670W        W92150  42.991   2.404  12.522
26671W        W92151  24.656  41.021  13.541
26672W        W92152   3.218   6.318   4.282
26673W        W92153  35.071   4.426   2.756
26674W        W92154   0.865  21.044  13.909
26675W        W92155  18.644  42.978   1.844
26676W        W92156   6.922  34.399  11.012
26677W        W92157  32.900  23.136  13.389
26678W        W92158  13.632   0.785  11.589
26679W        W92159  27.655  30.479  11.584
26680W        W92160  12.226  11.745  13.858
26681W        W92161  29.044   6.387  14.776
26682W        W92162  23.498   8.702  10.100
26683W        W92163   6.221  14.828   0.780
26684W        W92164   8.332   0.875   2.273
26685W        W92165  36.942   0.457   4.709
26686W        W92166   2.276  36.090  14.285
26687W        W92167  31.909   6.396  14.450
26688W        W92168  22.617  15.683  13.383
26689W        W92169   7.392  41.882   2.332
26690W        W92170  40.541  37.838   0.859
26691W        W92171  11.250   7.910   0.939
26692W        W92172  14.729  38.439   2.300
26693W        W92173  11.346  25.982  13.489
26694W        W92174  15.817   3.395  11.910
26695W        W92175  44.805  40.371  14.834
26696W        W92176  20.530  44.443  10.135
26697W        W92177   0.356  14.684   3.277
26698W        W92178  15.653  18.180  12.366
26699W        W92179  34.982   9.707   1.236
26700W        W92180  39.983   8.692  13.414
26701W        W92181  33.622   2.246   3.315
26702W        W92182  43.484  23.993  13.813
26703W        W92183  36.510  17.260  14.464
26704W        W92184  24.076  24.521   0.360
26705W        W92185  17.279   6.281  10.917
26706W        W92186  43.412  15.192   3.869
26707W        W92187  10.723  29.025   0.448
26708W        W92188  33.042  44.882   0.248
26709W        W92189  37.968  26.140   0.312
26710W        W92190  35.361  33.110   2.894
26711W        W92191  33.000   9.865  12.365
26712W        W92192  19.138  32.391   3.760
26713W        W92193   0.306   6.782  12.579
26714W        W92194  12.814  27.177   1.811
26715W        W92195  34.385  24.220   4.241
26716W        W92196  43.001  34.546  12.486
26717W        W92197  30.005  21.134  10.566
26718W        W92198  27.480   4.226  13.839
26719W        W92199  15.158  35.475   0.851
26720W        W92200  24.165  14.143   2.718
26721W        W92201  34.912   4.309   4.606
26722W        W92202  38.840  25.008   0.292
26723W        W92203  10.306   9.188  12.492
26724W        W92204  26.531   5.918  12.937
26725W        W92205  11.867  23.728  14.327
26726W        W92206  35.379  11.226   1.845
26727W        W92207  13.257  43.812  13.913
26728W        W92208  20.647  18.213  10.461
26729W        W92209  13.635  36.544  12.982
26730W        W92210   5.748  23.186   3.751
26731W        W92211  41.875  28.639   1.815
26732W        W92212  15.147  14.628   4.286
26733W        W92213  28.636  12.182  12.503
26734W        W92214  12.624  29.558  11.989
26735W        W92215  32.943  40.876  13.853
26736W        W92216  41.006  29.156   4.320
26737W        W92217  23.546  21.161   3.786
26738W        W92218  28.026  27.663  13.031
26739W        W92219  25.128  29.022  12.883
26740W        W92220   0.759   4.881   3.195
26741W        W92221   6.273   1.971  11.549
26742W        W92222  19.239  11.172  14.391
26743W        W92223  21.517   5.301  12.860
26744W        W92224  12.817  19.745   2.670
26745W        W92225  19.244  14.193   2.707
26746W        W92226   8.854  36.889  13.900
26747W        W92227  14.609   9.231   4.755
26748W        W92228  26.087  39.437   1.215
26749W        W92229  18.243  36.914   3.369
26750W        W92230  20.131  34.460   0.319
26751W        W92231  11.624  41.838   1.710
26752W        W92232  10.266  38.029   0.916
26753W        W92233  22.648  33.993   2.764
26754W        W92234   9.718  15.804   0.875
26755W        W92235  43.498  32.041   3.689
26756W        W92236  15.654  31.083   2.334
26757W        W92237  24.159  10.359  12.827
26758W        W92238  35.550  37.575   2.365
26759W        W92239  12.187   6.904  14.482
26760W        W92240  30.483   6.836  11.504
26761W        W92241  16.132  17.086  12.931
26762W        W92242  19.534  44.318  13.476
26763W        W92243  27.030  17.761   2.331
26764W        W92244  20.171  33.884  10.596
26765W        W92245  31.472  37.531  12.966
26766W        W92246   7.326  37.494  10.137
26767W        W92247  34.437  25.186   4.676
26768W        W92248  15.701  29.091  13.883
26769W        W92249  13.156  34.099  10.601
26770W        W92250  43.997  35.877  13.521
26771W        W92251   2.840  35.084  10.116
26772W        W92252  17.162  17.300  14.858
26773W        W92253  43.496  39.032   2.380
26774W        W92254   5.435   3.371   1.811
26775W        W92255  42.833  12.738  11.060
26776W        W92256  34.531  30.127  10.492
26777W        W92257  28.591  44.844  11.009
26778W        W92258  36.024   6.729  14.887
26779W        W92259   7.786  43.861   2.770
26780W        W92260   9.178  15.742  13.543
26781W        W92261  44.788  42.911  14.393
26782W        W92262  31.579   5.319   1.888
26783W        W92263   0.785  43.342  11.493
26784W        W92264  22.737  10.726  11.056
26785W        W92265  27.659  30.424   0.315
26786W        W92266  41.819  31.014  13.423
26787W        W92267  35.470  28.651   1.322
26788W        W92268  35.429   4.877  14.505
26789W        W92269  28.622  27.644   1.278
26790W        W92270   7.805  37.573  11.096
26791W        W92271  33.621   2.742  13.994
26792W        W92272   7.347  29.665  13.503
26793W        W92273  19.061  35.010  13.908
26794W        W92274   2.876  23.543  14.369
26795W        W92275  28.598  20.202  14.933
26796W        W92276  20.130  31.031   2.324
26797W        W92277  35.380   3.813   0.443
26798W        W92278  20.534  22.139   0.392
26799W        W92279  28.965  36.884  12.974
26800W        W92280  14.655  12.213   1.818
26801W        W92281  29.048  29.072   1.357
26802W        W92282  20.673  13.253  10.603
26803W        W92283  34.435  18.245   1.700
26804W        W92284  29.611  44.827   3.820
26805W        W92285  23.489  12.827   4.181
26806W        W92286  40.351  14.623  14.912
26807W        W92287  32.926   8.238   3.188
26808W        W92288  32.635  26.672   0.828
26809W        W92289  18.646  23.517  11.946
26810W        W92290  44.917  20.622   3.343
26811W        W92291  41.012  16.647   1.227
26812W        W92292  36.508  17.615   4.824
26813W        W92293  42.986  27.573  11.445
26814W        W92294  40.820  11.229  12.494
26815W        W92295   9.380   8.833   3.632
26816W        W92296  28.105   7.811   3.298
26817W        W92297   5.436  24.650  11.442
26818W        W92298  15.815  13.634   2.416
26819W        W92299  38.866  36.497   2.828
26820W        W92300  28.488  36.473   0.881
26821W        W92301  38.828  26.048  14.377
26822W        W92302  27.138  30.106   1.841
26823W        W92303   4.804  16.754   1.755
26824W        W92304  26.571  41.980   4.678
26825W        W92305  25.007  18.147   4.725
26826W        W92306   5.833   5.325  11.048
26827W        W92307  38.076  30.586   0.736
26828W        W92308  11.199  23.143   2.847
26829W        W92309  11.765  19.156   2.758
26830W        W92310  11.706  34.984   2.807
26831W        W92311  39.400  31.598   4.269
26832W        W92312  19.184  22.673   1.700
26833W        W92313  24.575  42.422  14.466
26834W        W92314  29.169  40.048  12.487
26835W        W92315  36.864  41.308   2.244
26836W        W92316  43.303  22.637  14.403
26837W        W92317  24.721  36.895  11.086
26838W        W92318  17.603  25.496  12.968
26839W        W92319  11.313   5.350   3.662
26840W        W92320  37.997  35.879   3.750
26841W        W92321  38.548   9.206  14.963
26842W        W92322   4.247   0.367   0.941
26843W        W92323  15.245  35.590   0.449
26844W        W92324  31.153  43.382   2.757
26845W        W92325  41.833  43.298  11.962
26846W        W92326  42.783  44.294   1.698
26847W        W92327   0.267   4.347   2.321
26848W        W92328  39.914  39.828  12.076
26849W        W92329  18.747   2.956  14.945
26850W        W92330  21.063  11.643   0.253
26851W        W92331  37.001  41.000  10.955
26852W        W92332  32.919  19.172  14.481
26853W        W92333  19.135   2.783   0.268
26854W        W92334  19.664  36.520  11.949
26855W        W92335  37.551   0.941  10.451
26856W        W92336  20.719   4.785   2.410
26857W        W92337  13.836   6.777  12.848
26858W        W92338  18.728  19.635  12.895
26859W        W92339  33.528  38.047  14.814
26860W        W92340  28.051  20.134  10.418
26861W        W92341  14.789  27.490  14.348
26862W        W92342  23.138   5.380   2.888
26863W        W92343  15.254   6.404   4.819
26864W        W92344   8.820  37.545  10.626
26865W        W92345  27.681   2.463  12.429
26866W        W92346   6.808   9.680   3.819
26867W        W92347  40.376   9.163  13.435
26868W        W92348  19.688  41.520   1.288
26869W        W92349  37.937   6.270  14.852
26870W        W92350  10.327  14.129  11.992
26871W        W92351   2.830  31.039  12.889
26872W        W92352  14.641  40.506   3.756
26873W        W92353  25.090  40.868   1.330
26874W        W92354  12.613  24.981  13.051
26875W        W92355  31.958  22.604   0.267
26876W        W92356  44.767  41.432   1.927
26877W        W92357  20.613  17.210   2.780
26878W        W92358  28.958  19.220   0.306
26879W        W92359  32.447  18.060  10.548
26880W        W92360  40.904  34.530  14.908
26881W        W92361  15.715  29.958   4.316
26882W        W92362  22.141   1.904  12.429
26883W        W92363   1.325   9.251   1.225
26884W        W92364  11.211  15.767   3.169
26885W        W92365   6.410  34.932   5.224
26886W        W92366   4.788   0.407   1.392
26887W        W92367   3.924  30.581   0.786
26888W        W92368  10.680   4.428   3.761
26889W        W92369  17.578   6.782   3.764
26890W        W92370  21.537  43.857  13.332
26891W        W92371  16.082  38.517   3.781
26892W        W92372   0.362  38.995  10.438
26893W        W92373  29.513   9.150  14.508
26894W        W92374  15.325  34.433  13.837
26895W        W92375  11.706  32.083  10.888
26896W        W92376   6.907  17.593  12.544
26897W        W92377  15.201  23.026  10.946
26898W        W92378  38.979   5.775   3.806
26899W        W92379   2.771   3.300  13.372
26900W        W92380  11.248  43.339  12.430
26901W        W92381  36.389   0.317   1.914
26902W        W92382  27.651  14.824   3.694
26903W        W92383  20.061  40.494  12.016
26904W        W92384   0.351   4.306   2.823
26905W        W92385   7.792  33.094   4.241
26906W        W92386   9.751  31.613  11.526
26907W        W92387   1.284  32.090  10.632
26908W        W92388  38.877   4.418   3.704
26909W        W92389   5.341  44.914  12.402
26910W        W92390   9.390  21.549  13.943
26911W        W92391  29.490   1.824  14.017
26912W        W92392  33.521  21.608  10.968
26913W        W92393  32.975  22.555   4.770
26914W        W92394  26.135  31.501  13.546
26915W        W92395  13.295  12.245   4.699
26916W        W92396  19.235   9.329   3.787
26917W        W92397  17.749  35.015  12.441
26918W        W92398  27.623  17.659   0.858
26919W        W92399  31.984  20.758   0.393
26920W        W92400  42.418   1.320   3.208
26921W        W92401  38.544  29.572   1.730
26922W        W92402  25.627  13.749  13.028
26923W        W92403  17.561   4.416  14.997
26924W        W92404  43.973   6.350   0.346
26925W        W92405  10.362  33.915   0.475
26926W        W92406  22.184  29.977   0.912
26927W        W92407  16.151   0.836   4.745
26928W        W92408   0.777  19.119  12.541
26929W        W92409  24.699   1.407   4.126
26930W        W92410  38.951  20.530   2.710
26931W        W92411  13.714   4.407  11.573
26932W        W92412  27.010   9.840  11.065
26933W        W92413  27.011   9.247   1.350
26934W        W92414  14.283  36.583  12.461
26935W        W92415  33.486  32.999   2.872
26936W        W92416  44.327  40.964  14.776
26937W        W92417  32.616   8.179  11.002
26938W        W92418  14.789   1.788   1.241
26939W        W92419  18.268   3.887  13.315
26940W        W92420  30.916  23.710  14.992
26941W        W92421  17.199  14.613  12.427
26942W        W92422  13.634  14.633  11.486
26943W        W92423  36.542  30.054   0.298
26944W        W92424   6.267  26.072   4.836
26945W        W92425   1.927   2.836  12.465
26946W        W92426  29.054  22.206   4.163
26947W        W92427  29.446  41.351   0.842
26948W        W92428  11.352  17.639  10.506
26949W        W92429  40.446   2.903  12.047
26950W        W92430  26.496  31.975  14.956
26951W        W92431  10.849  19.071  12.869
26952W        W92432   9.366   8.211  13.510
26953W        W92433  12.801  35.526  12.568
26954W        W92434  23.727   8.728   0.429
26955W        W92435  34.540  32.955  11.046
26956W        W92436  39.884  44.980  11.029
26957W        W92437  10.770  40.845  14.503
26958W        W92438  28.450   4.856  13.933
26959W        W92439  15.264  34.927  11.601
26960W        W92440  31.993  32.522  11.400
26961W        W92441  31.594  24.202   0.414
26962W        W92442  20.115  41.941   4.240
26963W        W92443  15.196  34.905  13.998
26964W        W92444   1.859  39.893   1.412
26965W        W92445   6.188  12.201   4.739
26966W        W92446   6.387   1.759  10.102
26967W        W92447  12.631   8.773   0.872
26968W        W92448  41.810  30.967  14.760
26969W        W92449  14.253  29.058   0.814
26970W        W92450   2.911  17.559   1.830
26971W        W92451  44.486  10.720  10.950
26972W        W92452  20.555  38.882   0.806
26973W        W92453  14.254  22.535   0.402
26974W        W92454   0.747  40.906  12.535
26975W        W92455  35.595  13.774   1.810
26976W        W92456  27.957  31.635  13.842
26977W        W92457  14.241  38.387   3.260
26978W        W92458  11.699  31.010  12.515
26979W        W92459   2.724  12.836  11.613
26980W        W92460  30.907  13.164   2.783
26981W        W92461  15.255  41.006  10.575
26982W        W92462   9.773   4.836  13.395
26983W        W92463  29.147   7.369  10.473
26984W        W92464   6.251  32.039   0.757
26985W        W92465  21.699  35.857  14.413
26986W        W92466   5.337  24.121  14.301
26987W        W92467  36.373  18.617  11.875
26988W        W92468   1.270  13.841   4.180
26989W        W92469  31.016  28.966   1.783
26990W        W92470  37.997  14.175  13.537
26991W        W92471  34.864   0.843   0.854
26992W        W92472   5.309  24.629   0.319
26993W        W92473  42.837  38.344   2.231
26994W        W92474  32.509   3.223   0.247
26995W        W92475   0.388  42.304  14.278
26996W        W92476  25.969  28.459  14.299
26997W        W92477  44.964  14.638   0.962
26998W        W92478  32.972  43.842  10.594
26999W        W92479   6.194   8.829   2.357
27000W        W92480  39.337  39.041  10.543
27001W        W92481   1.403   7.895   3.376
27002W        W92482  18.171  24.550   3.852
27003W        W92483  43.504  11.742  12.083
27004W        W92484  28.963  39.853   0.845
27005W        W92485  16.669  16.103   2.872
27006W        W92486  24.001  16.688  14.513
27007W        W92487  25.196  12.717  12.476
27008W        W92488  29.446   7.333  10.505
27009W        W92489  33.570  19.590  12.392
27010W        W92490  33.500   3.314   4.338
27011W        W92491   8.187  30.002  14.938
27012W        W92492  30.947  44.414  10.501
27013W        W92493   5.217  26.174   0.438
27014W        W92494  21.203  10.305   2.827
27015W        W92495  41.441  19.234  12.014
27016W        W92496   9.880  37.493  12.399
27017W        W92497  44.473  24.105   0.409
27018W        W92498  30.441  22.216   4.630
27019W        W92499  17.237  23.653  14.424
27020W        W92500  23.136  34.001  13.346
27021W        W92501  39.512  14.139  10.527
27022W        W92502  35.934  33.585   1.767
27023W        W92503  32.960   7.721  13.972
27024W        W92504   8.749   1.254  11.526
27025W        W92505   6.783  23.224   1.293
27026W        W92506  17.556  40.030   0.820
27027W        W92507  29.660  43.953   4.129
27028W        W92508  28.610  14.267   1.216
27029W        W92509  26.492  32.120   2.232
27030W        W92510  10.329  35.393  13.974
27031W        W92511  43.803   2.407   2.349
27032W        W92512   5.880  35.420  13.919
27033W        W92513  42.805  25.061  13.539
27034W        W92514  14.291  30.491  12.403
27035W        W92515  34.487   1.413  14.847
27036W        W92516  24.682  41.787  12.413
27037W        W92517  19.671  38.060   4.766
27038W        W92518  23.692  40.901   0.967
27039W        W92519  35.106  34.968  11.431
27040W        W92520  18.755  23.174   1.403
27041W        W92521  28.459  26.102   1.214
27042W        W92522  13.258  31.126  14.442
27043W        W92523  35.374  30.526   1.436
27044W        W92524  24.628   8.852  11.972
27045W        W92525  43.903  44.884  11.021
27046W        W92526  41.043  13.813   4.736
27047W        W92527  41.834  21.659  14.324
27048W        W92528   8.383  38.342  14.468
27049W        W92529  33.551  28.144   4.622
27050W        W92530  34.461  11.202  14.880
27051W        W92531  33.461  27.196   0.754
27052W        W92532  15.609  43.802  13.466
27053W        W92533  25.577   4.335   0.272
27054W        W92534  23.004  24.082   1.695
27055W        W92535  37.410  22.555   0.308
27056W        W92536  24.612  25.165  10.615
27057W        W92537  29.628  30.965  10.904
27058W        W92538   7.906   4.857  10.058
27059W        W92539  25.604  15.732   3.293
27060W        W92540  21.173  30.488   3.170
27061W        W92541  41.323  31.582   1.772
27062W        W92542   8.352  16.074   3.328
27063W        W92543  22.622  18.552  12.917
27064W        W92544  29.501  37.390  12.387
27065W        W92545  34.997   6.215   5.088
27066W        W92546  32.520  44.267  13.390
27067W        W92547   4.211  30.501   0.341
27068W        W92548  31.639   5.722  14.864
27069W        W92549  25.544  26.156  12.086
27070W        W92550   9.861  26.694  11.561
27071W        W92551   6.344  35.108   3.334
27072W        W92552  38.386  15.744  12.364
27073W        W92553  31.572  19.087   2.326
27074W        W92554   1.476  33.530  12.078
27075W        W92555  17.272  28.464   4.176
27076W        W92556   7.209  35.099  10.515
27077W        W92557  13.795   3.879  13.348
27078W        W92558   7.416   5.200  11.042
27079W        W92559   0.920  10.774  12.470
27080W        W92560   5.926  20.622   4.146
27081W        W92561  36.535  27.075  12.991
27082W        W92562  34.500  12.636  10.968
27083W        W92563  16.164  42.005   3.677
27084W        W92564  33.904  35.489  12.059
27085W        W92565   1.796  40.030  11.461
27086W        W92566  31.140  26.114   3.764
27087W        W92567  28.033  20.149  12.901
27088W        W92568  31.031  36.464   3.773
27089W        W92569  17.111  12.714  10.639
27090W        W92570  34.486  17.275  12.515
27091W        W92571   9.155  37.064   0.737
27092W        W92572  36.556   6.201   0.286
27093W        W92573   7.379  43.494  14.999
27094W        W92574  21.061   3.355   3.317
27095W        W92575  29.609   2.753   3.205
27096W        W92576   9.200   8.178   0.827
27097W        W92577  37.429  12.728  14.855
27098W        W92578  44.367  42.944   4.655
27099W        W92579  25.552  19.200  10.627
27100W        W92580  28.043  22.621   0.368
27101W        W92581  40.886  39.962   0.316
27102W        W92582  22.664   3.727  11.008
27103W        W92583  33.976  25.063   3.173
27104W        W92584  29.477   7.223  11.111
27105W        W92585  35.363   5.791  13.835
27106W        W92586  22.699  19.231   2.857
27107W        W92587  38.451  22.559   1.244
27108W        W92588   2.233  22.211  10.561
27109W        W92589  10.323  30.053  14.444
27110W        W92590  23.163  44.345  12.039
27111W        W92591  33.014   0.776  12.858
27112W        W92592  33.123  20.073  12.343
27113W        W92593  10.755   2.959   3.785
27114W        W92594  15.149  40.930  14.322
27115W        W92595  22.689  21.727  14.378
27116W        W92596  39.936  42.835  13.902
27117W        W92597  41.950  16.134  11.097
27118W        W92598   1.363  25.044  12.996
27119W        W92599   2.949  10.190   4.833
27120W        W92600  17.569   9.269   2.336
27121W        W92601   1.904   2.915   1.285
27122W        W92602  33.934   3.856   2.865
27123W        W92603  33.522  23.094  14.010
27124W        W92604  10.718  24.220   3.636
27125W        W92605   1.299   8.274  14.459
27126W        W92606  21.082  15.719  12.889
27127W        W92607   9.159  38.966   2.339
27128W        W92608  15.250  26.590   1.320
27129W        W92609  25.181  40.975  14.351
27130W        W92610  24.616   5.753   1.887
27131W        W92611  34.532  35.990  12.894
27132W        W92612  34.455  12.615   2.370
27133W        W92613  32.003  35.930  10.417
27134W        W92614   9.159  21.661   2.217
27135W        W92615  40.835   9.779   3.276
27136W        W92616   2.452  20.679  10.554
27137W        W92617   4.359   5.836  10.435
27138W        W92618  22.658  17.722  11.066
27139W        W92619  17.185  34.518  14.818
27140W        W92620  35.110  38.569   0.839
27141W        W92621  36.885  24.048  14.827
27142W        W92622  25.114  40.358  12.850
27143W        W92623  42.005   4.357   2.179
27144W        W92624  11.369  33.557   1.740
27145W        W92625  28.064  25.020   2.308
27146W        W92626  21.142   9.818   1.832
27147W        W92627  39.963  24.667  11.901
27148W        W92628  31.126  10.735  12.545
27149W        W92629  13.161  10.687   0.254
27150W        W92630  24.103   8.765   5.215
27151W        W92631  36.870  31.592   2.695
27152W        W92632  14.719  12.803   3.747
27153W        W92633  19.152  16.760   3.384
27154W        W92634  43.844  35.366  14.853
27155W        W92635  40.835  30.475  12.060
27156W        W92636  27.187  28.174  10.948
27157W        W92637   3.891  27.046   3.356
27158W        W92638  32.621  40.478   3.149
27159W        W92639  34.920  14.113   2.292
27160W        W92640  33.387  38.418   0.950
27161W        W92641  11.283  25.974   0.326
27162W        W92642  12.176  28.610   3.273
27163W        W92643  19.167  15.602  14.965
27164W        W92644  39.922   1.374   4.724
27165W        W92645  17.067   0.913   3.351
27166W        W92646  36.541  39.399  12.893
27167W        W92647   6.800  42.882   4.196
27168W        W92648  40.037  25.650   3.274
27169W        W92649   6.726  22.162  12.883
27170W        W92650   0.394  24.097   1.281
27171W        W92651  28.044  42.483  13.902
27172W        W92652  21.086  40.911  11.587
27173W        W92653  43.401  16.304  13.407
27174W        W92654  14.142  28.650   0.371
27175W        W92655  27.555  19.561  12.377
27176W        W92656  22.183  24.491   1.311
27177W        W92657  44.933   8.861   3.239
27178W        W92658  28.100  30.953   2.758
27179W        W92659   0.441  43.863   1.401
27180W        W92660  19.270  11.677  13.451
27181W        W92661  15.293   7.780   0.947
27182W        W92662   4.854   1.940  14.818
27183W        W92663  25.093  17.779  12.559
27184W        W92664  36.445  12.803  10.081
27185W        W92665  27.670  42.888  14.969
27186W        W92666  16.248  16.784   4.199
27187W        W92667  33.011  42.454  13.021
27188W        W92668   1.333  24.008  12.941
27189W        W92669  30.629   1.375   1.313
27190W        W92670   9.761   3.945   2.776
27191W        W92671  21.183  39.021   0.900
27192W        W92672  34.970  30.521   5.119
27193W        W92673   0.337  28.680  12.866
27194W        W92674   5.368   3.744  12.391
27195W        W92675  19.178  27.599   0.269
27196W        W92676   1.299  18.695  11.924
27197W        W92677  35.108  40.837   3.294
27198W        W92678  14.632  44.500   3.818
27199W        W92679  37.345  37.396   3.232
27200W        W92680  43.486  26.174  10.547
27201W        W92681  13.832   8.199   0.452
27202W        W92682  19.160  21.216  10.637
27203W        W92683  43.470  17.571   3.649
27204W        W92684  12.180   9.209  11.070
27205W        W92685   9.662  13.269  12.877
27206W        W92686  40.411  44.819   4.190
27207W        W92687  31.009  34.039  14.286
27208W        W92688  20.089   4.865  14.515
27209W        W92689  20.609  25.600  13.002
27210W        W92690  43.858  26.613  13.536
27211W        W92691   9.681  39.990   3.768
27212W        W92692   5.236   2.733   1.765
27213W        W92693  32.394  27.682   0.726
27214W        W92694  14.258   2.233  13.496
27215W        W92695  29.478  26.525   3.179
27216W        W92696   7.782   7.335   4.149
27217W        W92697  10.320   6.714  10.534
27218W        W92698  31.411  21.174  14.439
27219W        W92699  13.661  27.066   4.282
27220W        W92700  16.610  42.022   1.810
27221W        W92701  35.560   5.855  11.446
27222W        W92702  22.597   4.373   4.302
27223W        W92703   6.372  37.543   4.725
27224W        W92704  19.084  32.015  11.585
27225W        W92705  32.472  25.020   2.337
27226W        W92706  13.294  31.028  13.533
27227W        W92707  13.351   5.838   4.824
27228W        W92708  21.596  25.481  11.593
27229W        W92709  32.035   6.845  14.828
27230W        W92710  40.443  13.723  12.942
27231W        W92711  27.458  10.367  14.828
27232W        W92712  29.134   8.291   4.830
27233W        W92713  17.731  16.696   2.271
27234W        W92714  12.624  39.808   3.362
27235W        W92715  15.797  31.531   2.411
27236W        W92716  37.006  10.795   3.266
27237W        W92717  36.373  40.513  11.501
27238W        W92718  18.733  27.465   3.669
27239W        W92719  43.005  43.884  14.442
27240W        W92720  14.243  19.661  13.012
27241W        W92721  28.104  41.417  10.952
27242W        W92722  18.767  36.421  13.508
27243W        W92723  31.616  27.172  11.112
27244W        W92724  16.708  43.488   4.340
27245W        W92725  35.965  16.126   4.272
27246W        W92726  10.376  26.670  12.504
27247W        W92727  29.108  20.218   3.651
27248W        W92728  11.219  41.998   1.426
27249W        W92729  27.609  23.714  10.537
27250W        W92730  29.605   6.251  12.853
27251W        W92731  25.591  32.033   1.451
27252W        W92732  25.578  32.037  10.937
27253W        W92733  33.031  13.719   0.781
27254W        W92734  41.457   9.287  11.972
27255W        W92735  24.646  33.933  14.800
27256W        W92736  12.621   2.326   0.881
27257W        W92737  14.154   8.352  11.542
27258W        W92738   1.868  27.477  11.376
27259W        W92739  32.887  42.377   2.395
27260W        W92740  14.819  35.099   3.675
27261W        W92741  12.679   9.229   1.819
27262W        W92742  40.494  43.891  13.984
27263W        W92743  38.876  31.907  10.456
27264W        W92744  10.279  17.561   3.251
27265W        W92745  42.012  17.776  14.485
27266W        W92746   7.878  10.708  11.099
27267W        W92747  37.431  21.026  14.845
27268W        W92748   8.304  35.450  12.886
27269W        W92749   1.974   3.726  14.011
27270W        W92750  42.845  33.104  13.543
27271W        W92751  44.472  33.408  12.037
27272W        W92752  29.102  13.199  13.007
27273W        W92753  24.050  34.947  10.635
27274W        W92754  23.722  24.496   2.854
27275W        W92755  21.044  43.484  14.384
27276W        W92756  21.103  27.953   4.319
27277W        W92757  39.036  15.179   0.284
27278W        W92758  19.086   1.736   1.415
27279W        W92759  36.540  21.586  10.474
27280W        W92760  11.658  29.640   1.814
27281W        W92761  43.805  36.924   3.732
27282W        W92762  43.361  11.746   1.699
27283W        W92763  17.087   6.195  10.538
27284W        W92764  37.483  23.611  14.840
27285W        W92765  43.847  42.846  14.372
27286W        W92766  11.356   3.453  12.467
27287W        W92767   2.904  29.430  13.399
27288W        W92768  37.832  44.996  12.934
27289W        W92769  22.581  14.312   3.171
27290W        W92770  34.520   2.898  14.350
27291W        W92771  12.124  32.010   4.759
27292W        W92772  14.625  15.176  13.860
27293W        W92773  21.172  14.171  10.460
27294W        W92774  29.564  10.278   1.893
27295W        W92775  40.932  15.707   2.776
27296W        W92776  17.173  39.032   0.838
27297W        W92777  42.503   9.766   0.460
27298W        W92778  26.626   4.415  12.852
27299W        W92779  35.491  10.828  11.575
27300W        W92780  40.363  41.947   4.633
27301W        W92781   1.433  13.783   2.362
27302W        W92782   2.454   8.224   0.795
27303W        W92783  36.454  43.300  14.762
27304W        W92784  23.154  18.267  10.427
27305W        W92785  23.195  37.581  13.348
27306W        W92786  33.972  17.769   1.718
27307W        W92787  41.929   9.714   4.666
27308W        W92788  18.738  10.660   0.859
27309W        W92789  33.878  10.264   2.880
27310W        W92790  31.990  12.692  14.482
27311W        W92791  13.682  41.324   0.817
27312W        W92792   8.767  20.733  10.519
27313W        W92793  24.144  38.535  13.484
27314W        W92794  13.709  41.438   1.241
27315W        W92795  44.344  14.834  14.932
27316W        W92796  27.059  42.400   1.856
27317W        W92797   2.807  20.533  14.994
27318W        W92798  22.517   8.225  10.532
27319W        W92799  12.767  13.129   1.818
27320W        W92800  26.459  26.186  11.950
27321W        W92801   2.260   6.747   2.221
27322W        W92802   3.908  20.625  14.843
27323W        W92803   6.784  38.453  11.042
27324W        W92804  42.807  20.267  12.836
27325W        W92805  19.237  16.145   1.801
27326W        W92806  41.011  22.727  12.493
27327W        W92807  34.030  32.109   4.761
27328W        W92808  36.500   5.196  13.444
27329W        W92809  14.833  36.592  12.955
27330W        W92810  33.980  24.631  13.376
27331W        W92811   9.841   4.277  12.954
27332W        W92812   8.393   8.263  11.557
27333W        W92813  22.176   8.877   2.711
27334W        W92814  28.961  26.548  13.453
27335W        W92815  27.559  10.673   4.238
27336W        W92816  30.009  27.983  10.481
27337W        W92817  23.173  28.951  11.986
27338W        W92818  22.199  39.865   3.241
27339W        W92819  44.941  35.525  13.365
27340W        W92820  41.013  26.101  13.796
27341W        W92821  24.479   8.741  13.394
27342W        W92822  11.662   1.365  10.899
27343W        W92823  12.236  40.437   0.257
27344W        W92824  33.505   3.335  11.487
27345W        W92825  17.639   1.400   4.130
27346W        W92826  24.680  16.665   4.318
27347W        W92827   3.283  15.724   4.683
27348W        W92828  28.931  12.324  12.457
27349W        W92829  39.002   4.374  11.996
27350W        W92830   7.228  39.484  12.382
27351W        W92831  10.699  19.266  13.404
27352W        W92832  20.529  19.622  14.429
27353W        W92833  27.163  34.498   3.869
27354W        W92834  18.663   5.258   1.819
27355W        W92835  26.037  40.362   4.261
27356W        W92836   9.725  27.684  11.588
27357W        W92837   4.251  13.637  13.847
27358W        W92838   3.388  29.984  13.966
27359W        W92839   4.225  42.881   4.835
27360W        W92840  36.522   9.196  10.459
27361W        W92841   7.884  37.454   0.333
27362W        W92842   7.389  24.695  12.953
27363W        W92843  13.246  21.260   0.450
27364W        W92844  26.573  16.784  13.924
27365W        W92845  22.215  19.749  13.514
27366W        W92846   6.797   5.355  14.784
27367W        W92847  34.417   0.754  10.522
27368W        W92848  33.980  19.075  11.450
27369W        W92849  14.216  19.065  14.405
27370W        W92850  10.311  24.547   1.249
27371W        W92851   4.442  19.557   0.466
27372W        W92852  21.060   5.904   2.347
27373W        W92853  21.112  17.259  13.818
27374W        W92854  41.360  12.150   3.194
27375W        W92855  43.413  31.088  12.490
27376W        W92856  25.992  29.451  10.583
27377W        W92857   3.734   8.811  14.512
27378W        W92858  30.982  32.545  11.408
27379W        W92859   8.801  37.878  11.008
27380W        W92860  23.614  20.064  13.915
27381W        W92861  19.762   3.245  14.877
27382W        W92862  34.073  44.897   3.291
27383W        W92863   0.250  43.816  12.868
27384W        W92864   9.241   7.690   0.404
27385W        W92865   5.277  15.163   3.251
27386W        W92866  21.083   1.260  12.537
27387W        W92867  43.887  11.804  13.404
27388W        W92868   4.227  20.232  11.934
27389W        W92869  11.199  36.395   2.362
27390W        W92870  36.871   0.272   1.799
27391W        W92871  19.101  15.716  10.404
27392W        W92872  22.116  33.908   0.305
27393W        W92873  24.998  15.694   2.369
27394W        W92874  11.203  13.728  11.888
27395W        W92875  30.469  16.243  10.640
27396W        W92876   2.896  23.600  14.957
27397W        W92877   1.810  28.468   0.960
27398W        W92878  44.363  33.026   2.178
27399W        W92879  30.434   8.285  11.389
27400W        W92880  44.960  26.601   2.667
27401W        W92881  29.628  24.637   0.420
27402W        W92882  40.476  24.201  13.342
27403W        W92883   9.655  34.074   3.213
27404W        W92884  16.252  35.892  12.365
27405W        W92885  31.521  32.573   3.751
27406W        W92886  44.775   9.733  12.047
27407W        W92887  41.399  14.194   3.727
27408W        W92888  33.546  10.662  14.836
27409W        W92889  41.012   1.762   1.744
27410W        W92890  14.278  23.202  12.433
27411W        W92891   6.814  25.530  14.970
27412W        W92892  21.084   8.299   2.328
27413W        W92893  43.473  18.204  13.459
27414W        W92894  29.149  28.478   1.387
27415W        W92895  18.646  12.310  10.449
27416W        W92896  28.144  37.370   2.416
27417W        W92897  26.697   4.777  11.375
27418W        W92898  42.409  15.600   2.841
27419W        W92899  40.867  36.519  14.315
27420W        W92900  31.442  44.437  11.548
27421W        W92901   4.925  27.028  12.456
27422W        W92902  11.685   4.246   0.835
27423W        W92903  40.396  42.325  14.889
27424W        W92904  37.043  10.692   1.861
27425W        W92905  17.264  39.995  14.980
27426W        W92906  11.839  26.615  12.017
27427W        W92907  27.669   8.823  11.034
27428W        W92908  26.196  10.321   3.653
27429W        W92909  15.098  33.439  11.104
27430W        W92910   4.762  39.957   1.445
27431W        W92911  38.423  27.683   4.809
27432W        W92912  20.161  24.105  12.862
27433W        W92913  20.158  42.953   4.669
27434W        W92914  29.956   6.846  14.361
27435W        W92915  33.515   4.448   0.827
27436W        W92916   7.894  19.536  10.412
27437W        W92917  40.959  25.552   3.197
27438W        W92918  12.278  31.596  14.383
27439W        W92919  40.309  33.089   1.400
27440W        W92920  44.833  44.397   2.267
27441W        W92921  42.816  30.980  11.077
27442W        W92922  38.327  15.254   0.411
27443W        W92923  32.461   3.350   5.165
27444W        W92924   5.928  18.172   1.323
27445W        W92925  30.501  37.497   4.828
27446W        W92926  41.927  31.510   3.762
27447W        W92927  19.751  13.630  11.454
27448W        W92928   6.405  14.250  14.358
27449W        W92929  19.282   7.899  14.444
27450W        W92930  17.593  42.375  13.056
27451W        W92931  38.983  37.471  12.572
27452W        W92932  10.638  23.093  10.924
27453W        W92933  39.402  18.134   1.889
27454W        W92934  38.845  37.492  10.039
27455W        W92935  22.129  33.625  13.797
27456W        W92936  11.655  23.686   1.336
27457W        W92937  18.743  18.291  13.060
27458W        W92938  40.385  39.446  13.868
27459W        W92939  11.254  25.532   0.324
27460W        W92940  10.147   2.298   2.343
27461W        W92941   9.182  32.444   1.438
27462W        W92942  21.081  43.329  14.934
27463W        W92943  17.659   8.222  10.585
27464W        W92944   8.808   6.825  12.055
27465W        W92945  16.280  29.135  14.423
27466W        W92946   5.908  43.855  11.890
27467W        W92947  22.513  39.392   2.301
27468W        W92948  14.252  18.154   3.220
27469W        W92949  30.926  40.810  10.572
27470W        W92950  32.460  14.781   2.204
27471W        W92951  41.961  18.587   1.447
27472W        W92952   4.348  12.220   1.234
27473W        W92953  25.659   6.296   3.688
27474W        W92954  23.534   6.395   2.328
27475W        W92955  34.101   9.368   2.314
27476W        W92956  25.048   1.900   0.458
27477W        W92957  37.027   5.286  12.983
27478W        W92958  28.625  39.854   0.465
27479W        W92959   0.347  22.075  13.320
27480W        W92960   6.706  26.638  11.945
27481W        W92961  25.156   2.266   4.618
27482W        W92962  20.758  18.727  13.958
27483W        W92963  43.810  29.608  13.994
27484W        W92964  38.404  10.730  10.560
27485W        W92965  15.225  40.324   3.165
27486W        W92966   0.279   0.915  11.474
27487W        W92967  17.261  24.565   2.400
27488W        W92968  23.157   5.326   4.820
27489W        W92969  37.935  15.630  14.386
27490W        W92970  39.526   7.340   0.343
27491W        W92971   3.321   4.739   4.168
27492W        W92972  26.485  25.973   0.411
27493W        W92973  23.163  36.403  12.862
27494W        W92974  10.858  41.889   2.760
27495W        W92975  15.164  10.764   0.787
27496W        W92976   4.906  29.458  10.084
27497W        W92977  11.230   4.720  14.414
27498W        W92978  26.478  37.919   0.906
27499W        W92979   1.873  39.459  11.554
27500W        W92980  30.971  34.557   4.120
27501W        W92981  13.659   6.867  13.382
27502W        W92982  34.943  20.721   2.205
27503W        W92983  15.691   1.803  11.929
27504W        W92984  14.184   4.349  11.919
27505W        W92985  31.924  44.871  14.483
27506W        W92986  27.016   5.831  13.975
27507W        W92987  44.819  17.104  14.032
27508W        W92988   0.332  32.127  10.426
27509W        W92989  41.798  28.548  10.481
27510W        W92990  39.883  27.003  12.406
27511W        W92991  19.073   2.275   1.253
27512W        W92992  43.019  15.601   1.743
27513W        W92993  24.131   1.798  14.907
27514W        W92994   3.394  10.285  12.550
27515W        W92995   1.428  21.131   4.769
27516W        W92996  21.071   6.843  12.533
27517W        W92997   6.379   8.167   4.612
27518W        W92998  16.722   7.728   1.925
27519W        W92999   0.479  14.748   0.374
27520W        W93000  16.142  30.596   3.268
27521W        W93001  35.860  35.047   1.273
27522W        W93002   1.438  43.827   0.781
27523W        W93003  39.960  33.967   4.220
27524W        W93004  37.931   5.729   4.797
27525W        W93005   9.816  15.619  12.995
27526W        W93006   1.277  31.405  11.590
27527W        W93007  39.373  27.176   1.910
27528W        W93008  28.176  10.307  12.848
27529W        W93009  43.278  32.015   4.735
27530W        W93010  29.152  44.889  13.038
27531W        W93011   8.874  26.556   5.202
27532W        W93012  12.804  36.349   1.740
27533W        W93013   8.258   3.777  14.428
27534W        W93014  12.245  31.480  10.988
27535W        W93015  24.984   9.277   4.690
27536W        W93016  17.160  26.653  11.420
27537W        W93017  26.992  35.971  14.911
27538W        W93018  32.542  12.290  14.276
27539W        W93019  31.967  43.469  14.411
27540W        W93020  26.979  44.357   2.249
27541W        W93021  13.151  10.754   2.322
27542W        W93022   0.858   9.330  13.400
27543W        W93023   2.239   7.904  14.514
27544W        W93024   3.901  20.746   1.367
27545W        W93025  43.271  19.721   4.737
27546W        W93026  12.824   7.830   4.696
27547W        W93027  31.570   4.409  13.839
27548W        W93028  43.882  30.009  11.878
27549W        W93029   1.759  16.624  14.295
27550W        W93030  28.630  29.453  11.060
27551W        W93031  27.056  32.591   4.177
27552W        W93032   6.780  20.616   0.945
27553W        W93033   5.702  14.654  14.960
27554W        W93034   5.210  29.174  11.103
27555W        W93035  40.040  42.914  12.408
27556W        W93036  25.063  17.667  13.374
27557W        W93037   2.374   5.690  13.063
27558W        W93038   4.899   4.264  12.539
27559W        W93039   8.229  32.482  14.481
27560W        W93040   0.804  26.537   0.247
27561W        W93041  25.522  13.322   3.174
27562W        W93042   9.713  30.646  12.368
27563W        W93043   3.862  11.788   2.307
27564W        W93044  41.522   2.322  12.051
27565W        W93045  24.652  26.578  13.802
27566W        W93046   7.748   9.757   3.637
27567W        W93047   4.298  23.082  11.426
27568W        W93048   1.274  24.143   2.732
27569W        W93049  22.996  17.670   3.384
27570W        W93050   1.318  28.015  13.417
27571W        W93051  10.774  44.345   3.834
27572W        W93052  19.087  36.953   1.793
27573W        W93053  36.581  21.535  13.408
27574W        W93054  32.940  42.352   2.820
27575W        W93055   1.829  40.526   3.185
27576W        W93056  42.830  27.170   0.726
27577W        W93057   5.783  27.004   2.366
27578W        W93058  24.025  31.572  14.482
27579W        W93059  22.086  31.108  12.502
27580W        W93060  30.470   6.184   0.416
27581W        W93061  19.247  23.655   4.158
27582W        W93062  23.011  13.314   3.643
27583W        W93063  33.392  14.766   1.233
27584W        W93064  20.222  44.006   1.735
27585W        W93065   8.324   5.690   2.727
27586W        W93066  15.683   9.770  14.361
27587W        W93067  17.650  13.181   0.383
27588W        W93068  26.094  26.995   3.642
27589W        W93069  13.648   4.204  13.343
27590W        W93070  28.648  22.085   3.860
27591W        W93071  22.140  15.695  11.024
27592W        W93072   1.319   1.408  11.424
27593W        W93073   7.725   7.794   1.764
27594W        W93074  13.227  25.567   3.717
27595W        W93075  40.350  28.505  11.537
27596W        W93076  24.534   0.325   5.149
27597W        W93077  11.782  23.499  10.591
27598W        W93078  27.449  42.300   4.692
27599W        W93079  32.583  34.863   0.483
27600W        W93080  43.859  26.090  12.406
27601W        W93081  16.757  38.861   2.801
27602W        W93082   6.340  18.780  12.941
27603W        W93083   9.650  17.144  12.534
27604W        W93084  35.886  42.446   2.891
27605W        W93085  25.705  32.584   4.823
27606W        W93086  38.398  22.149   0.431
27607W        W93087  28.508  13.275  12.006
27608W        W93088   7.402  24.201   3.228
27609W        W93089  13.274  40.466   1.335
27610W        W93090  32.488  29.042  11.953
27611W        W93091   0.283  16.279   0.242
27612W        W93092  44.276  30.640   3.172
27613W        W93093  27.007  44.959   3.160
27614W        W93094  30.478   8.175   1.806
27615W        W93095  28.526  39.853   1.838
27616W        W93096  15.164   0.931   1.430
27617W        W93097  39.932   1.241   0.871
27618W        W93098   2.262   0.870  12.470
27619W        W93099  11.195  35.583  11.524
27620W        W93100  23.656  11.352   2.680
27621W        W93101  40.347  16.784   3.382
27622W        W93102  12.856  23.081   0.839
27623W        W93103  37.049   1.840  11.119
27624W        W93104  31.582  35.998  10.631
27625W        W93105  18.129  27.051   1.913
27626W        W93106  23.673  13.171  12.523
27627W        W93107  19.631  12.681   0.871
27628W        W93108   6.767  32.118  10.474
27629W        W93109  21.758  42.396  12.841
27630W        W93110  19.586  43.916   1.930
27631W        W93111  17.621  18.130  12.942
27632W        W93112  37.838  32.048   1.281
27633W        W93113  31.961  37.581  10.467
27634W        W93114  40.053   3.766  13.932
27635W        W93115  17.202  23.623   2.851
27636W        W93116  10.694  14.675  10.974
27637W        W93117   2.403  42.880   4.640
27638W        W93118  29.115   1.335   3.324
27639W        W93119  35.860   6.844  11.396
27640W        W93120  20.756  12.311   0.372
27641W        W93121   7.371  26.120   0.874
27642W        W93122  11.173   3.305   2.806
27643W        W93123  12.275  23.580   1.310
27644W        W93124  21.514  13.260  14.962
27645W        W93125  43.772  24.706  10.961
27646W        W93126  13.659  36.552   1.415
27647W        W93127   8.198  32.621   3.792
27648W        W93128  20.560  19.604   3.677
27649W        W93129  30.423  15.195   1.779
27650W        W93130  29.449  26.519   2.270
27651W        W93131  22.685  39.391   0.421
27652W        W93132   7.820  43.874  14.996
27653W        W93133   4.744  39.930  14.819
27654W        W93134  25.109  20.723  12.966
27655W        W93135  36.899  22.006  13.324
27656W        W93136  31.530  15.253  12.068
27657W        W93137  20.172  44.869  11.574
27658W        W93138  14.107  39.352   1.408
27659W        W93139  32.603  13.184  10.498
27660W        W93140  30.455   7.401  11.037
27661W        W93141  12.336  23.650   2.871
27662W        W93142  38.455   9.801  12.368
27663W        W93143   8.167  20.218  14.450
27664W        W93144  43.812  42.353   3.813
27665W        W93145   1.974  36.493  12.906
27666W        W93146  35.862   0.744  13.913
27667W        W93147  10.836  15.591  11.966
27668W        W93148  24.497  19.726   4.349
27669W        W93149  18.666   4.449   4.336
27670W        W93150  11.836  14.339  14.905
27671W        W93151   1.308   7.756  12.398
27672W        W93152  43.832  13.257   2.371
27673W        W93153   0.257  17.101  11.032
27674W        W93154   8.789  37.873   1.844
27675W        W93155  29.984   0.857  10.425
27676W        W93156   0.844  27.997  10.134
27677W        W93157  38.968   7.703  13.939
27678W        W93158  22.713  15.310  10.482
27679W        W93159  39.482  29.558  12.879
27680W        W93160   3.850  24.719   3.686
27681W        W93161  35.405  28.180  11.403
27682W        W93162  16.601  31.423   4.778
27683W        W93163  22.030  40.801  12.927
27684W        W93164  11.761  44.301  13.833
27685W        W93165   2.338  15.289  12.925
27686W        W93166   9.836   3.436   0.444
27687W        W93167  34.036  24.688   1.302
27688W        W93168  19.239  33.093  12.903
27689W        W93169  19.655  25.648  14.011
27690W        W93170   2.933  19.185  12.906
27691W        W93171  23.167   0.977  11.998
27692W        W93172  26.599   3.830   0.405
27693W        W93173  22.217  36.525  12.473
27694W        W93174  12.262  16.782   0.944
27695W        W93175   2.321   8.296   3.709
27696W        W93176  26.472  23.059  11.398
27697W        W93177  12.171  24.607   2.813
27698W        W93178  18.780   8.276   0.477
27699W        W93179  25.469  42.838   1.780
27700W        W93180  29.175   1.369   4.682
27701W        W93181   0.472  20.200  12.490
27702W        W93182  13.702  30.502  13.546
27703W        W93183  31.099  12.747   3.866
27704W        W93184  40.404  26.695   3.721
27705W        W93185   3.928  39.905   2.878
27706W        W93186   0.974  24.584  10.480
27707W        W93187  10.725  31.122  10.961
27708W        W93188  10.681   2.747  14.999
27709W        W93189   3.259  30.516   2.212
27710W        W93190  35.376  22.090   4.738
27711W        W93191  21.532  43.989   9.925
27712W        W93192   0.852  19.658   4.690
27713W        W93193  41.855  28.640  11.376
27714W        W93194   6.748  22.726   4.305
27715W        W93195   0.950  44.403   0.407
27716W        W93196  12.362  19.198   1.912
27717W        W93197  25.100   1.475  14.310
27718W        W93198  13.622  25.673   2.780
27719W        W93199  23.170  28.677   0.767
27720W        W93200  15.185  10.798  11.600
27721W        W93201  34.454  43.895  14.989
27722W        W93202  10.685  32.502   3.821
27723W        W93203  12.331  30.050   4.117
27724W        W93204  14.643  43.346  14.913
27725W        W93205  36.396  37.372  11.534
27726W        W93206   2.723  19.098  11.498
27727W        W93207  26.696   4.450  10.642
27728W        W93208  25.046  42.362  13.391
27729W        W93209  34.446   5.318   0.814
27730W        W93210  38.406  14.102   1.435
27731W        W93211  19.245  17.076   0.322
27732W        W93212  31.005  22.554   0.769
27733W        W93213  21.742  27.600  12.980
27734W        W93214  36.481  16.656  12.043
27735W        W93215  23.622  28.464  11.395
27736W        W93216   7.218   7.192   0.811
27737W        W93217  36.454  16.132  13.517
27738W        W93218  29.469  23.204   0.819
27739W        W93219  16.153   0.412  14.801
27740W        W93220  24.069  18.696  13.891
27741W        W93221  18.658  27.638  10.457
27742W        W93222  34.992  23.172   3.371
27743W        W93223  23.510  34.917   2.407
27744W        W93224   5.742  17.720  10.930
27745W        W93225  17.073  16.267  12.831
27746W        W93226  33.062  39.511   3.664
27747W        W93227  30.524  35.487  13.354
27748W        W93228  17.260  31.016  13.892
27749W        W93229  21.731   5.745  10.986
27750W        W93230   2.914  25.711   4.776
27751W        W93231  14.289  20.719   0.429
27752W        W93232   0.405   1.869  12.036
27753W        W93233  34.889  39.958   0.246
27754W        W93234  21.521  17.741  12.992
27755W        W93235  43.929  30.980   3.198
27756W        W93236  35.397  17.722   2.286
27757W        W93237  15.214  40.035  11.597
27758W        W93238   4.711  22.699   2.190
27759W        W93239  41.890  27.950  13.434
27760W        W93240  34.942  10.317   1.210
27761W        W93241  43.418  32.025   2.841
27762W        W93242  40.530  17.108   4.163
27763W        W93243  32.444  35.956  12.000
27764W        W93244  11.283   8.295  13.838
27765W        W93245  33.076  15.724   1.893
27766W        W93246  28.577  43.431  11.024
27767W        W93247  13.770  37.998  11.573
27768W        W93248  30.561  14.731   1.770
27769W        W93249  30.158   3.457  14.927
27770W        W93250  38.943  27.581   4.832
27771W        W93251  40.915  26.679  14.475
27772W        W93252  25.524  27.681  13.322
27773W        W93253  36.015  16.258  11.072
27774W        W93254  41.432  11.206   4.284
27775W        W93255  38.031  12.357  11.100
27776W        W93256  30.595  28.118   0.827
27777W        W93257  22.571  40.387   2.375
27778W        W93258   3.760  29.484  12.095
27779W        W93259  28.663  42.497   1.327
27780W        W93260  27.192  37.036  12.911
27781W        W93261  15.681  31.515   0.733
27782W        W93262  23.494  10.289   0.941
27783W        W93263   2.851  25.157   0.306
27784W        W93264  38.985  16.594   2.346
27785W        W93265  31.939  17.663  12.890
27786W        W93266  21.706   0.825  11.895
27787W        W93267  20.751   3.934  14.964
27788W        W93268   8.879  42.285   0.810
27789W        W93269  28.448  13.828  10.902
27790W        W93270  38.449  11.287  12.488
27791W        W93271  36.056   2.338   2.240
27792W        W93272  30.057  15.158  10.994
27793W        W93273  26.072   2.384   4.307
27794W        W93274  18.754  21.574  14.797
27795W        W93275  33.907   3.770   4.761
27796W        W93276  35.420  36.866   4.799
27797W        W93277   1.955  32.893  12.464
27798W        W93278  32.080   3.345  14.880
27799W        W93279  16.199  41.519  13.342
27800W        W93280  11.709  42.020  10.587
27801W        W93281   6.211  37.014  10.989
27802W        W93282   1.741  28.605   3.203
27803W        W93283  36.448  11.796  10.962
27804W        W93284  41.007   4.416   2.291
27805W        W93285  34.964  13.820  11.927
27806W        W93286  37.968  19.724   1.818
27807W        W93287   3.928  21.625  12.428
27808W        W93288  14.833  31.494  12.990
27809W        W93289  14.727   2.832   4.716
27810W        W93290  10.221   3.318  10.409
27811W        W93291  36.560  39.533  14.285
27812W        W93292  14.773  33.534   0.736
27813W        W93293  41.498  31.448  12.083
27814W        W93294  21.727  44.387  11.966
27815W        W93295  33.506  14.704   2.220
27816W        W93296   3.854  41.454  14.286
27817W        W93297  43.787   0.963  14.388
27818W        W93298  27.485  43.837  12.087
27819W        W93299   5.891  29.133   2.700
27820W        W93300  30.465  11.784   2.824
27821W        W93301  11.789  12.291  11.525
27822W        W93302  34.888  41.327   3.649
27823W        W93303  37.965  36.084  12.339
27824W        W93304  23.179  21.078  10.135
27825W        W93305  27.664   0.931   4.176
27826W        W93306  10.679  10.821   2.228
27827W        W93307  33.945  36.955  11.929
27828W        W93308  34.564   8.879  13.404
27829W        W93309   2.886  37.930   4.348
27830W        W93310  31.646  22.556  14.497
27831W        W93311  20.682  34.929  14.813
27832W        W93312   8.660  13.222   2.830
27833W        W93313  41.946   3.798   0.732
27834W        W93314  35.498  24.072   3.750
27835W        W93315  44.420   1.816   3.271
27836W        W93316  36.037   0.844   0.377
27837W        W93317  12.854  36.930  14.772
27838W        W93318   4.265   4.447   0.381
27839W        W93319  13.156  10.859  12.036
27840W        W93320  12.701   2.462   3.278
27841W        W93321  36.405  32.089   2.210
27842W        W93322   4.226  16.194  12.069
27843W        W93323  43.904  38.979  12.069
27844W        W93324  12.780  21.586   3.183
27845W        W93325  11.785  24.069   4.803
27846W        W93326  14.734  42.917   1.700
27847W        W93327   0.268  33.388   4.809
27848W        W93328  17.258  36.493   4.240
27849W        W93329  20.125   5.195   2.662
27850W        W93330   4.210  18.240  10.598
27851W        W93331  23.640  11.702  11.506
27852W        W93332  13.273  31.555  14.312
27853W        W93333  41.829  11.822  12.405
27854W        W93334   9.218   7.848   1.878
27855W        W93335  14.689  25.623  14.453
27856W        W93336  27.606  15.809  10.568
27857W        W93337  44.953   2.725   1.397
27858W        W93338  19.655  15.113   4.770
27859W        W93339  42.888   3.330   2.195
27860W        W93340  20.268   6.406   2.870
27861W        W93341  40.871  16.113   3.302
27862W        W93342   8.327   3.438   5.098
27863W        W93343  28.102  16.077   3.802
27864W        W93344  43.500  26.968  10.449
27865W        W93345  27.472  42.305  14.963
27866W        W93346  11.782  12.826   1.711
27867W        W93347  24.592  12.152  11.128
27868W        W93348   4.879  23.093   3.633
27869W        W93349  30.910  11.694  13.840
27870W        W93350  31.529  38.328   4.141
27871W        W93351  18.064  28.460  14.343
27872W        W93352  22.577  14.190  13.526
27873W        W93353  14.188  19.245   0.820
27874W        W93354  14.798  10.144  14.944
27875W        W93355  38.036  38.822  12.990
27876W        W93356  29.069   2.795  14.873
27877W        W93357  31.946  22.742   4.236
27878W        W93358   0.956  37.372  12.905
27879W        W93359  31.441  25.471  11.907
27880W        W93360  39.049  13.349  14.331
27881W        W93361  35.974  31.551  12.527
27882W        W93362  39.968  41.473   0.818
27883W        W93363  14.728   6.837   4.757
27884W        W93364  23.230  26.953   2.242
27885W        W93365  10.304  41.984  11.857
27886W        W93366  18.573  36.915  14.423
27887W        W93367  41.941  10.798   1.350
27888W        W93368  44.263  43.863  10.002
27889W        W93369   6.219   1.391  10.625
27890W        W93370  18.597  31.006   2.366
27891W        W93371  33.577  17.185   5.242
27892W        W93372  39.007  27.596  13.837
27893W        W93373  17.635  13.111   2.825
27894W        W93374  23.088  23.989  11.390
27895W        W93375  23.120  35.366   1.820
27896W        W93376  35.539   2.815   0.370
27897W        W93377  23.185  11.766  11.394
27898W        W93378  18.062  35.588  11.091
27899W        W93379  23.155   0.438   5.254
27900W        W93380  36.549   4.898  14.329
27901W        W93381  12.678  31.046  12.826
27902W        W93382  39.011  41.868  12.470
27903W        W93383  37.502  29.004   2.786
27904W        W93384   4.226  34.006  12.074
27905W        W93385  30.042  22.995  11.479
27906W        W93386  33.471   3.849   4.239
27907W        W93387  31.969   4.835   0.912
27908W        W93388   5.244   1.242   0.773
27909W        W93389  12.755  34.544   4.342
27910W        W93390  22.672   9.725  14.858
27911W        W93391  40.349  40.008  13.449
27912W        W93392   4.450  28.530  12.033
27913W        W93393  35.878  39.929  13.018
27914W        W93394  21.038  18.633   1.870
27915W        W93395  44.502  13.624   3.258
27916W        W93396  42.415  35.358  13.329
27917W        W93397   9.345  29.135  10.403
27918W        W93398  10.379  15.621  10.987
27919W        W93399  39.830  39.943  13.499
27920W        W93400  18.612  38.965   4.218
27921W        W93401   6.208   9.825  12.960
27922W        W93402   4.223   9.674  10.897
27923W        W93403  27.615  25.203   3.700
27924W        W93404  18.161  19.259  11.426
27925W        W93405  35.863   1.861   4.159
27926W        W93406  15.268  19.187  13.018
27927W        W93407  42.469   3.843   1.253
27928W        W93408  16.624  33.912   2.416
27929W        W93409   0.427  22.209   3.156
27930W        W93410   1.404   7.883   3.768
27931W        W93411  42.988  28.041   1.304
27932W        W93412  13.835  29.486  13.799
27933W        W93413   6.365  14.673  10.611
27934W        W93414   3.743  19.587   2.189
27935W        W93415  27.082  33.978   3.642
27936W        W93416  13.731  35.077  14.029
27937W        W93417  24.697  17.244   4.169
27938W        W93418  24.536  36.941  12.859
27939W        W93419  18.691  14.695   2.726
27940W        W93420  35.576  11.673   3.657
27941W        W93421  11.363  44.297  12.932
27942W        W93422  32.464   9.177  14.352
27943W        W93423  21.092  44.996   3.151
27944W        W93424  43.978   2.293   1.755
27945W        W93425  14.625  40.345  12.081
27946W        W93426  38.525   3.218  12.392
27947W        W93427   1.839  24.722  12.400
27948W        W93428  30.503  15.087   4.265
27949W        W93429  44.797  43.382  14.894
27950W        W93430  12.842  15.642  13.517
27951W        W93431   4.865  19.617  10.004
27952W        W93432   9.776   3.862   4.351
27953W        W93433   3.435  13.782   2.251
27954W        W93434  17.688  25.998   0.767
27955W        W93435  26.046  31.113   3.740
27956W        W93436  36.028  30.932  14.982
27957W        W93437  42.284  24.559  11.491
27958W        W93438  41.972  14.197  14.931
27959W        W93439  33.412  27.527  13.440
27960W        W93440  29.622  30.611   5.194
27961W        W93441  18.070  14.784   0.398
27962W        W93442  19.239  30.550  14.419
27963W        W93443  16.719  30.574  14.899
27964W        W93444  12.152  25.008  14.323
27965W        W93445  15.141  40.819   4.206
27966W        W93446  31.537   0.883   4.752
27967W        W93447  35.483  11.202  13.451
27968W        W93448   5.372  20.570  12.852
27969W        W93449  21.743  21.633   3.822
27970W        W93450   2.849  14.161   4.721
27971W        W93451  17.291   5.790   9.951
27972W        W93452   5.261  22.079  14.286
27973W        W93453   0.381  38.880   0.909
27974W        W93454   3.399  28.493   4.302
27975W        W93455  23.172  35.999   4.140
27976W        W93456  20.625  31.520  11.377
27977W        W93457  29.048  32.961  10.583
27978W        W93458  31.129  28.458  12.456
27979W        W93459  16.616  36.567  11.931
27980W        W93460  36.992  38.520  11.591
27981W        W93461  44.859   0.280  11.487
27982W        W93462  10.317   2.750   0.407
27983W        W93463  33.893  31.531  10.543
27984W        W93464  26.144  30.925  11.992
27985W        W93465  29.604  44.789  13.000
27986W        W93466  12.626  32.611   4.730
27987W        W93467   1.261  17.688  11.541
27988W        W93468  37.866   6.787   3.631
27989W        W93469   8.397  24.009   2.248
27990W        W93470  21.070  17.289  14.346
27991W        W93471  15.302  20.642  10.931
27992W        W93472  22.686  15.294  13.373
27993W        W93473  43.921  41.834   2.716
27994W        W93474  20.701  37.900  11.394
27995W        W93475  10.741  15.789  11.380
27996W        W93476   9.213   8.296  14.831
27997W        W93477  13.225   6.679   1.446
27998W        W93478  37.058  18.681   2.820
27999W        W93479  24.095  29.433  14.929
28000W        W93480  31.067  31.055   3.778
28001W        W93481   9.784  13.202  11.965
28002W        W93482  29.552  43.447  14.864
28003W        W93483  34.964  30.106   1.355
28004W        W93484  27.578  32.511  12.346
28005W        W93485  15.605  35.401   1.435
28006W        W93486  37.544   2.347  13.924
28007W        W93487  14.692   7.716   2.707
28008W        W93488  15.119  31.930  11.445
28009W        W93489  24.167   5.217  10.907
28010W        W93490  40.016  27.588  11.875
28011W        W93491   0.951  32.502   1.226
28012W        W93492  41.433  40.032   2.319
28013W        W93493   4.389  34.439  11.421
28014W        W93494  22.251  44.459  13.352
28015W        W93495  41.814  35.552  10.619
28016W        W93496  16.647   6.883  11.612
28017W        W93497  21.180   2.351   1.374
28018W        W93498  26.475  24.586   2.257
28019W        W93499  33.114  40.053   4.613
28020W        W93500  34.612  29.014   2.192
28021W        W93501  18.201   5.754   4.739
28022W        W93502  42.861  32.519   0.826
28023W        W93503  37.943  29.436  10.983
28024W        W93504  34.545  40.933  13.898
28025W        W93505   7.818   0.947   4.232
28026W        W93506  10.646   8.349   1.875
28027W        W93507  20.174  34.054   4.753
28028W        W93508  18.755  25.962  13.537
28029W        W93509   4.351  41.823   2.675
28030W        W93510  40.473   3.726  11.603
28031W        W93511   9.885  14.632   1.433
28032W        W93512  14.187  33.099  14.285
28033W        W93513  23.620  30.417  10.452
28034W        W93514  12.137  21.034   4.351
28035W        W93515  20.178   7.383  10.509
28036W        W93516  31.602  40.851   3.724
28037W        W93517  30.574  34.548   2.902
28038W        W93518  10.279  19.064  12.473
28039W        W93519  13.319  24.210  11.429
28040W        W93520  35.034   1.265   2.805
28041W        W93521  18.080  38.346  12.996
28042W        W93522  10.767   9.368   0.851
28043W        W93523   1.746  22.504  12.360
28044W        W93524  30.929  36.023  10.419
28045W        W93525   2.828  32.948  14.500
28046W        W93526  43.359  25.469   2.270
28047W        W93527  32.985  20.766  14.472
28048W        W93528  30.035  32.896   4.667
28049W        W93529   0.450  11.647  14.338
28050W        W93530  23.131  29.167   1.347
28051W        W93531  34.889  44.764   3.272
28052W        W93532  12.822  25.148  11.880
28053W        W93533   5.371  24.005   0.862
28054W        W93534  44.408  13.602   1.433
28055W        W93535   6.407   8.674   0.804
28056W        W93536  23.516  23.233   2.402
28057W        W93537   6.780  33.531  14.885
28058W        W93538  11.153   3.354   1.812
28059W        W93539  43.441   9.813  14.361
28060W        W93540  40.876  40.894  12.004
28061W        W93541  19.590  34.551  12.828
28062W        W93542  35.483  38.051  14.396
28063W        W93543  12.660  32.023   3.691
28064W        W93544  30.066  15.314  14.900
28065W        W93545  22.242  40.487   2.264
28066W        W93546  32.042   0.900  13.432
28067W        W93547  31.148  24.081   0.772
28068W        W93548  30.618  22.162   3.793
28069W        W93549   6.713   0.415   2.324
28070W        W93550  29.668   9.885   1.701
28071W        W93551   4.426  38.015   3.200
28072W        W93552  21.535  37.921  12.084
28073W        W93553  22.702  27.114  14.830
28074W        W93554  42.436  41.322  13.479
28075W        W93555  37.520  28.987   0.956
28076W        W93556  39.870  11.206  11.461
28077W        W93557  38.906  15.181  13.952
28078W        W93558  39.541  30.974  11.117
28079W        W93559   7.847   3.315  14.957
28080W        W93560  36.865   5.832  14.330
28081W        W93561   3.354  30.542  12.957
28082W        W93562  14.808  29.618  11.931
28083W        W93563  38.422  24.141  10.502
28084W        W93564   0.279  40.931   3.800
28085W        W93565  30.566  15.114  12.061
28086W        W93566  12.665  13.270  14.338
28087W        W93567  38.377   8.181   2.360
28088W        W93568  42.338  43.361   1.356
28089W        W93569   6.811  17.768  13.449
28090W        W93570  28.158  43.477   4.640
28091W        W93571  26.025  33.959   0.452
28092W        W93572  38.874  44.361  13.310
28093W        W93573  32.465  19.139  13.512
28094W        W93574  38.356  37.991   0.392
28095W        W93575  33.416  21.054  14.337
28096W        W93576  12.855  29.574   3.658
28097W        W93577  19.077  41.928  13.876
28098W        W93578  40.959  23.064   0.758
28099W        W93579   3.226  40.419   2.843
28100W        W93580  24.117  37.976   2.856
28101W        W93581  35.578  28.479  11.995
28102W        W93582  38.434  19.084   4.123
28103W        W93583  43.988  39.054  13.903
28104W        W93584  16.603  10.745  11.544
28105W        W93585  21.226  43.011   0.820
28106W        W93586  36.354  11.230  13.539
28107W        W93587  34.967  14.646   3.639
28108W        W93588   0.373  32.629   3.841
28109W        W93589  35.868   6.764  12.461
28110W        W93590  38.901  13.819  12.430
28111W        W93591  18.092   5.346  11.041
28112W        W93592  22.594  30.507   4.143
28113W        W93593   5.311  44.286  12.903
28114W        W93594  32.395   1.313  13.843
28115W        W93595   5.236   8.162  11.861
28116W        W93596  31.515  35.937   3.836
28117W        W93597  26.147  25.513   1.864
28118W        W93598  27.946   6.698  14.428
28119W        W93599  16.184  27.160   3.368
28120W        W93600   4.297   8.352  11.034
28121W        W93601  11.334  15.193  13.046
28122W        W93602  15.783  33.109   5.591
28123W        W93603  27.614  41.378   4.690
28124W        W93604   1.859  31.012   4.809
28125W        W93605  39.897  16.215  13.046
28126W        W93606  41.826  36.462   0.742
28127W        W93607  40.846  42.298  14.962
28128W        W93608  28.056  38.055  11.927
28129W        W93609  36.381   3.842  13.838
28130W        W93610  40.323  35.095   1.825
28131W        W93611  12.170  20.564   1.384
28132W        W93612  42.506  34.092  12.024
28133W        W93613  29.550  18.071   2.762
28134W        W93614   8.218  29.989   0.904
28135W        W93615  28.650  25.091  10.931
28136W        W93616  36.998  36.379   3.744
28137W        W93617   1.907  35.905   4.147
28138W        W93618  16.755   9.814   3.289
28139W        W93619  24.641  43.319  10.967
28140W        W93620   6.902  27.609  12.361
28141W        W93621   9.702   9.273  11.591
28142W        W93622  31.909   1.398  13.981
28143W        W93623   7.901  43.272  14.362
28144W        W93624   6.917   2.345   4.792
28145W        W93625  23.558  44.993  13.407
28146W        W93626  35.431  17.163  10.427
28147W        W93627  22.052  10.143   2.836
28148W        W93628   1.834  26.568   0.363
28149W        W93629  30.021  36.993   0.898
28150W        W93630  11.647  14.731   3.816
28151W        W93631  10.713   4.752   2.715
28152W        W93632  13.332  23.044  10.488
28153W        W93633  29.625  21.528  14.303
28154W        W93634  27.610  42.454  12.421
28155W        W93635  23.713   7.334  13.824
28156W        W93636  13.727  34.103  10.079
28157W        W93637  38.941   6.688   1.446
28158W        W93638  41.836   8.244  14.793
28159W        W93639  37.015  15.318   0.832
28160W        W93640   1.344  36.895  12.574
28161W        W93641  44.796   5.235   0.377
28162W        W93642   8.758   4.796  12.507
28163W        W93643  17.230  23.082   1.920
28164W        W93644  17.202   9.292  10.532
28165W        W93645  25.186  30.029   4.715
28166W        W93646  19.214   7.698  12.394
28167W        W93647  30.585  22.083  13.821
28168W        W93648  29.030  23.111   2.248
28169W        W93649   5.875  25.095  11.375
28170W        W93650  37.406   1.332   0.775
28171W        W93651  43.767   2.906   1.440
28172W        W93652  21.228  15.781  14.815
28173W        W93653  31.010  27.140  13.913
28174W        W93654   2.371  24.718   3.773
28175W        W93655   6.775  23.180   3.668
28176W        W93656  34.049  24.696   4.626
28177W        W93657   7.375  37.996  11.428
28178W        W93658  12.660   7.752  13.054
28179W        W93659  25.660  24.672   2.775
28180W        W93660  44.872  31.541   4.169
28181W        W93661  26.968   2.262  14.963
28182W        W93662  29.964  24.066  14.928
28183W        W93663   8.374  10.762   3.311
28184W        W93664  19.690  24.513  14.442
28185W        W93665  26.606  35.965   3.672
28186W        W93666   7.783   7.907  12.095
28187W        W93667  14.169  19.557   0.846
28188W        W93668  29.095  31.500   2.673
28189W        W93669  20.724  23.499  13.841
28190W        W93670  44.978  26.551   0.761
28191W        W93671  22.732  41.496  14.800
28192W        W93672  25.073  34.426   1.355
28193W        W93673  23.504   1.281   1.848
28194W        W93674  14.639  42.291  14.941
28195W        W93675   7.232  30.023   1.747
28196W        W93676  37.399  14.239   4.706
28197W        W93677   2.459   0.827   2.778
28198W        W93678  23.028  10.260  12.477
28199W        W93679  38.350  17.711  11.541
28200W        W93680  40.352  33.556   4.680
28201W        W93681  17.217  21.073  13.339
28202W        W93682  38.555  16.604  12.529
28203W        W93683  24.596  41.409  14.466
28204W        W93684  16.305  17.260  12.092
28205W        W93685  40.896  39.049   2.288
28206W        W93686  38.352  26.079   3.715
28207W        W93687  16.678  43.801   3.169
28208W        W93688  17.658  40.381   1.310
28209W        W93689  35.518   8.221  14.786
28210W        W93690  29.510   0.969   4.817
28211W        W93691  33.963   4.359  13.486
28212W        W93692  36.450  18.211   2.389
28213W        W93693  11.139  10.273  14.975
28214W        W93694  43.373  39.837  13.024
28215W        W93695  30.514  20.034  14.010
28216W        W93696  26.623  32.436  11.466
28217W        W93697  22.590  30.431   5.103
28218W        W93698  25.523  23.541  11.951
28219W        W93699   2.796  27.664   3.181
28220W        W93700  18.144  36.909  11.559
28221W        W93701  23.643  27.568   4.731
28222W        W93702  35.479  32.609   4.658
28223W        W93703   3.837  38.504   0.740
28224W        W93704  14.203  33.555  11.885
28225W        W93705   2.932  42.834  10.125
28226W        W93706   5.248  18.148  11.406
28227W        W93707  24.195   4.255  13.063
28228W        W93708  26.103  11.654   1.426
28229W        W93709  13.307  22.501   4.778
28230W        W93710  43.765  13.615   1.418
28231W        W93711  17.796   9.150  11.454
28232W        W93712   1.951  13.165  13.534
28233W        W93713  33.006  24.540  11.447
28234W        W93714   7.207  14.595   1.845
28235W        W93715  28.977  19.081  12.340
28236W        W93716   7.729   4.417   0.475
28237W        W93717  23.582  21.254   2.367
28238W        W93718  26.093  31.126   0.729
28239W        W93719   4.853  27.471  11.053
28240W        W93720   7.848  33.996   2.740
28241W        W93721  25.110   4.920  13.989
28242W        W93722  12.351  18.134   0.957
28243W        W93723   5.756  25.543   3.806
28244W        W93724  29.619  22.035   3.250
28245W        W93725  17.635  32.493   4.750
28246W        W93726  27.582  14.143  12.063
28247W        W93727  30.069   1.896   2.846
28248W        W93728  12.198   0.854   0.293
28249W        W93729  43.943  36.907  13.843
28250W        W93730   8.767   4.941   0.371
28251W        W93731  29.483  24.160  14.886
28252W        W93732  12.844  27.145   2.883
28253W        W93733  28.984  16.187  11.997
28254W        W93734  13.732  28.988  13.818
28255W        W93735  19.122  14.150   3.839
28256W        W93736   8.223  13.694  14.794
28257W        W93737   2.458  17.102  12.075
28258W        W93738  28.090   3.950  13.959
28259W        W93739  19.197  35.528  13.910
28260W        W93740  26.165  21.714  10.914
28261W        W93741  22.602  43.848   3.300
28262W        W93742  23.727  15.706  14.012
28263W        W93743  18.770  38.041  10.994
28264W        W93744  38.477   1.266   3.220
28265W        W93745  20.169  32.415   0.249
28266W        W93746  38.875  34.973  12.826
28267W        W93747  41.026  19.763   9.924
28268W        W93748  12.715  28.006   2.192
28269W        W93749   7.835  25.210  12.388
28270W        W93750  19.249  24.046   1.344
28271W        W93751  25.969  11.146  11.518
28272W        W93752   8.832  19.152  14.854
28273W        W93753  12.834  42.833  12.065
28274W        W93754  40.801  22.529  12.920
28275W        W93755  14.192  44.904  10.547
28276W        W93756  14.655  41.538  10.498
28277W        W93757  14.188  10.757  10.574
28278W        W93758  23.507  31.603  11.412
28279W        W93759   7.377  41.309  13.503
28280W        W93760   1.825  42.439  11.944
28281W        W93761  13.153   5.876  10.958
28282W        W93762  33.929  37.900  14.792
28283W        W93763  26.476  19.572   0.908
28284W        W93764   2.378  12.311  13.409
28285W        W93765  11.243   8.307  12.559
28286W        W93766  42.000  15.168  12.543
28287W        W93767   6.676   9.174   3.851
28288W        W93768   8.228  18.189   0.895
28289W        W93769  22.634  42.854   4.253
28290W        W93770   2.959  18.263   3.353
28291W        W93771  38.028  26.103  12.988
28292W        W93772  17.103  41.879  11.903
28293W        W93773   9.267  11.343   0.805
28294W        W93774  35.001  39.530   3.183
28295W        W93775  40.315  32.910  11.459
28296W        W93776  11.641   5.781   3.290
28297W        W93777  12.702  20.128   2.683
28298W        W93778  36.881   5.215   1.425
28299W        W93779  20.762  29.034  14.804
28300W        W93780   7.228  38.991  14.485
28301W        W93781   5.252  31.104  12.474
28302W        W93782  15.799  26.615  13.960
28303W        W93783   9.359  33.130   1.698
28304W        W93784   5.793  29.989   2.211
28305W        W93785  11.851  42.397   1.214
28306W        W93786  40.506  16.810   3.786
28307W        W93787   8.769   0.941  12.466
28308W        W93788  42.815  42.840   0.905
28309W        W93789  31.582  35.399  13.989
28310W        W93790   1.835  33.102  12.868
28311W        W93791   9.323   6.373  12.471
28312W        W93792  18.566   5.379  12.380
28313W        W93793  19.139   0.820   4.734
28314W        W93794  31.125  36.921  11.476
28315W        W93795  38.974   2.386   4.800
28316W        W93796  20.173  16.636  14.387
28317W        W93797  33.083   0.293   3.219
28318W        W93798  31.077   3.416   1.927
28319W        W93799  31.631   6.347   4.784
28320W        W93800  32.521  32.948  11.506
28321W        W93801  13.272   4.379   3.674
28322W        W93802  28.157  35.953  12.964
28323W        W93803  19.776  29.456  11.544
28324W        W93804  25.552  30.616  13.798
28325W        W93805  21.201  43.994  10.555
28326W        W93806  23.595  13.702  13.508
28327W        W93807  16.214  36.945  13.445
28328W        W93808  29.135  38.954  14.317
28329W        W93809  43.337   2.858  13.865
28330W        W93810  38.552  33.996   3.819
28331W        W93811  37.451  36.902   2.193
28332W        W93812  15.776  37.830  10.140
28333W        W93813  35.577  20.211   2.869
28334W        W93814   0.323  34.525   1.255
28335W        W93815  38.492  24.154  11.945
28336W        W93816  19.647   9.702  11.486
28337W        W93817   9.176   5.918  13.391
28338W        W93818  28.164  36.569  12.440
28339W        W93819   0.383   9.216   4.346
28340W        W93820  31.560  20.536   3.697
28341W        W93821  30.532   4.416  14.780
28342W        W93822  16.696  10.638  12.420
28343W        W93823  36.522  43.904  13.010
28344W        W93824  27.484   9.674   2.389
28345W        W93825   2.327  29.649  10.428
28346W        W93826  18.755  19.102   3.867
28347W        W93827   6.241  14.202   4.774
28348W        W93828   5.738  10.193  13.807
28349W        W93829  20.546  38.927   2.714
28350W        W93830  41.421  24.605   4.152
28351W        W93831   1.734  20.621   4.243
28352W        W93832   8.811  28.497  10.542
28353W        W93833   9.175  41.310  12.375
28354W        W93834  11.321   8.295  13.333
28355W        W93835   9.367  31.136   0.817
28356W        W93836   6.364  38.879  12.556
28357W        W93837  14.612  12.215   9.973
28358W        W93838  25.618   3.725   4.810
28359W        W93839  11.774  39.984  12.351
28360W        W93840  15.746  10.869   4.192
28361W        W93841  18.691  42.827   2.892
28362W        W93842  18.710   7.738  10.906
28363W        W93843  43.354  16.147  11.929
28364W        W93844  42.363  39.027   2.737
28365W        W93845  36.940  33.915   2.318
28366W        W93846  22.160   3.913   2.280
28367W        W93847  41.892   1.856   1.744
28368W        W93848  34.074  15.256   1.443
28369W        W93849  32.447  34.960  12.844
28370W        W93850   4.401  44.000  14.306
28371W        W93851   8.784   7.354  13.906
28372W        W93852   1.889  11.255  12.541
28373W        W93853  28.948  29.593   0.943
28374W        W93854  32.089   6.779  11.396
28375W        W93855  20.224  19.249   1.865
28376W        W93856  39.020  20.567  13.472
28377W        W93857  21.640  30.936   1.733
28378W        W93858  21.020  30.554  11.935
28379W        W93859  18.169  43.359  12.368
28380W        W93860  16.181   1.479   0.938
28381W        W93861  16.176  23.566   0.450
28382W        W93862  36.997  11.172  10.412
28383W        W93863  31.528  23.673  10.628
28384W        W93864  26.041  24.645   3.666
28385W        W93865  10.374  23.584   3.216
28386W        W93866   2.325  33.086   1.830
28387W        W93867  29.139  30.442   0.349
28388W        W93868  33.584  41.441   2.304
28389W        W93869  33.981  19.082   2.814
28390W        W93870  44.444  29.967   4.303
28391W        W93871  12.648  14.687  13.977
28392W        W93872  43.918  22.719   3.170
28393W        W93873  35.540  35.580   3.837
28394W        W93874   5.277  32.931  11.899
28395W        W93875  17.270  25.070  10.988
28396W        W93876   7.333   8.223  12.905
28397W        W93877  40.400  23.727  11.408
28398W        W93878   5.916   4.338  10.581
28399W        W93879  17.220  23.704  12.390
28400W        W93880  20.116  21.082   4.734
28401W        W93881  36.535  37.918   3.852
28402W        W93882  41.872  44.774  14.470
28403W        W93883  22.166   1.352   1.901
28404W        W93884  34.578  25.126  13.959
28405W        W93885  20.266  32.555   1.755
28406W        W93886  38.989  30.579  10.944
28407W        W93887  44.944  43.780  11.502
28408W        W93888  25.106  36.471   3.348
28409W        W93889   7.902   6.265  11.962
28410W        W93890  13.209  34.922  13.916
28411W        W93891  30.043  11.665   2.272
28412W        W93892  14.620  44.864  12.559
28413W        W93893  34.532  22.172   3.319
28414W        W93894  40.473  38.394  14.336
28415W        W93895  18.749  16.161  14.484
28416W        W93896  13.635  34.943   1.859
28417W        W93897   0.493   8.185   1.880
28418W        W93898   5.311  18.212   0.380
28419W        W93899   9.277  43.989  10.442
28420W        W93900   3.917   1.768  12.909
28421W        W93901  42.842  21.126   4.709
28422W        W93902  20.571  21.042   1.741
28423W        W93903  18.631  24.180  10.981
28424W        W93904  21.649  40.005  12.034
28425W        W93905  42.029   2.900   2.890
28426W        W93906  22.571  25.543   0.791
28427W        W93907  25.636   0.386  12.368
28428W        W93908  29.615   3.407  10.125
28429W        W93909   2.800  17.086   2.234
28430W        W93910  14.709  20.662   0.923
28431W        W93911  24.176  38.562   4.171
28432W        W93912  32.996  28.556  12.036
28433W        W93913   3.791  30.579  10.527
28434W        W93914  27.055  11.861  10.934
28435W        W93915  39.837   7.670  11.051
28436W        W93916   2.471  41.391   2.855
28437W        W93917  25.063   4.803   3.750
28438W        W93918   7.899  43.942  12.431
28439W        W93919  25.609  36.346   1.870
28440W        W93920  38.877  20.225   3.714
28441W        W93921  40.486   0.255   3.278
28442W        W93922  44.999  23.497  11.058
28443W        W93923  12.667  27.173  13.487
28444W        W93924   3.380  33.955   0.395
28445W        W93925  21.574   2.955   0.393
28446W        W93926  31.974  21.050   3.797
28447W        W93927  31.963   8.249   2.379
28448W        W93928   9.650   5.231  12.411
28449W        W93929  29.028  16.598   3.180
28450W        W93930  43.340  21.255   3.309
28451W        W93931   8.709  26.129   2.662
28452W        W93932  21.169  36.087   2.195
28453W        W93933  32.567  30.657   5.263
28454W        W93934  24.505  35.926  11.977
28455W        W93935  20.043  11.129  14.871
28456W        W93936  34.904  12.132   3.163
28457W        W93937   5.411  31.044   1.894
28458W        W93938   8.846  22.735   4.641
28459W        W93939  28.945  41.335  13.445
28460W        W93940  40.028  16.245  12.441
28461W        W93941  31.093  40.449   0.339
28462W        W93942  44.862   2.428  13.862
28463W        W93943   5.766  15.087   0.748
28464W        W93944   6.284   3.873   0.321
28465W        W93945  22.596  25.144   2.285
28466W        W93946  23.643  39.320   1.912
28467W        W93947   8.179  20.220   3.185
28468W        W93948  38.376  36.574   0.738
28469W        W93949  23.643  40.036  10.927
28470W        W93950   2.882  13.234   3.189
28471W        W93951  15.276  18.611  12.839
28472W        W93952  31.415  38.926   2.254
28473W        W93953  18.073  33.071   4.694
28474W        W93954  14.733  17.771   4.194
28475W        W93955  44.949  42.026   4.699
28476W        W93956   8.302   8.773   4.803
28477W        W93957  44.349  27.139  11.080
28478W        W93958   3.876   6.426   3.855
28479W        W93959  13.732  32.930   0.328
28480W        W93960  28.060  16.169  13.398
28481W        W93961  10.243  12.623   2.680
28482W        W93962   7.895  27.138  12.872
28483W        W93963   5.805   4.313   4.177
28484W        W93964   3.866  44.380   1.327
28485W        W93965  18.709   9.357  10.422
28486W        W93966  19.243  25.135   0.331
28487W        W93967   2.795  15.192  13.532
28488W        W93968  29.950  30.475   1.694
28489W        W93969   1.850  31.527   2.399
28490W        W93970  19.740  21.588   0.368
28491W        W93971   5.845   5.846   4.241
28492W        W93972  13.816  10.154   3.384
28493W        W93973   4.869  35.519   3.750
28494W        W93974  10.305   3.430  12.829
28495W        W93975  33.075   2.928  12.394
28496W        W93976  28.549  26.052  12.418
28497W        W93977  43.964   0.804  11.444
28498W        W93978  25.565  16.300   2.669
28499W        W93979   7.398   6.371   0.287
28500W        W93980   0.348  13.136  13.463
28501W        W93981  24.063  44.428   2.384
28502W        W93982   1.320   3.886  10.408
28503W        W93983  36.537  13.162  11.104
28504W        W93984  31.500  44.794   2.414
28505W        W93985  27.467   9.217  13.452
28506W        W93986  40.012  39.355   3.348
28507W        W93987  36.891  43.337  11.870
28508W        W93988  23.003  38.848  14.920
28509W        W93989  42.439  42.410   3.734
28510W        W93990   9.786  18.773  12.578
28511W        W93991  29.596  40.020  11.899
28512W        W93992  35.988  24.635   2.246
28513W        W93993   6.713  44.320   4.224
28514W        W93994  38.500  30.523   3.774
28515W        W93995   3.231  19.668  11.496
28516W        W93996  40.835  14.309  13.433
28517W        W93997   4.439  10.353   4.710
28518W        W93998  23.657  35.987   3.832
28519W        W93999  40.411  31.044   1.253
28520W        W94000   6.296  42.007  13.463
28521W        W94001  19.613   8.390  12.940
28522W        W94002  10.752  44.755   3.726
28523W        W94003  29.995   4.701  12.555
28524W        W94004  21.633   3.365  13.871
28525W        W94005  29.589   7.267   4.154
28526W        W94006  44.416  22.026   3.859
28527W        W94007  17.144   6.803  13.526
28528W        W94008   2.229  19.215  13.449
28529W        W94009  26.591  20.167   0.755
28530W        W94010  17.099  11.715   3.807
28531W        W94011   2.823  20.559  13.965
28532W        W94012  36.091  10.302  10.431
28533W        W94013   3.918  25.176   4.119
28534W        W94014  32.481  33.453   4.636
28535W        W94015  32.925   2.276   1.433
28536W        W94016   6.396  24.534   3.768
28537W        W94017   9.341  18.678   4.684
28538W        W94018  21.164  17.601   4.693
28539W        W94019  11.339  35.064   0.345
28540W        W94020   5.233   5.700   0.958
28541W        W94021  21.738  28.556  10.069
28542W        W94022  22.508   0.951   0.894
28543W        W94023  24.489  10.802  13.005
28544W        W94024  18.654  23.533   0.840
28545W        W94025  15.612  10.187  13.380
28546W        W94026  12.779  10.844   3.373
28547W        W94027  22.184  31.514  11.011
28548W        W94028  15.816  42.440  12.359
28549W        W94029  33.467  44.371  12.401
28550W        W94030   6.810  24.646   3.226
28551W        W94031  19.764   3.818   4.755
28552W        W94032  17.276  43.003   2.678
28553W        W94033  26.166  39.533  11.474
28554W        W94034   6.694  40.426  14.411
28555W        W94035   8.367  43.885  13.405
28556W        W94036  10.650  25.517   3.380
28557W        W94037   6.411   3.444   2.717
28558W        W94038  28.989   5.735   1.898
28559W        W94039  17.677  33.471  11.869
28560W        W94040   0.441  24.984  12.041
28561W        W94041  12.345  29.626   3.768
28562W        W94042  39.324   9.826  11.532
28563W        W94043  15.618  19.273  14.460
28564W        W94044  38.070  38.533   4.131
28565W        W94045  41.293  38.950   0.350
28566W        W94046  11.629  13.747  11.110
28567W        W94047  30.621  40.512   0.885
28568W        W94048   0.362  18.126   1.363
28569W        W94049  29.065   0.277  11.862
28570W        W94050  29.494   3.223  12.443
28571W        W94051  13.158  44.792   3.194
28572W        W94052  13.166  17.069   4.289
28573W        W94053   0.394  19.074  10.971
28574W        W94054  17.218  36.984   1.906
28575W        W94055   5.688  25.522  10.533
28576W        W94056  31.599  31.405   1.907
28577W        W94057  30.648  34.036  11.435
28578W        W94058  35.874  16.567  14.343
28579W        W94059  27.500   6.808   2.855
28580W        W94060   1.365  25.996  14.907
28581W        W94061  11.254  25.072  11.389
28582W        W94062  25.142  14.227  12.052
28583W        W94063  10.862  30.507   1.354
28584W        W94064  29.163  41.907   4.742
28585W        W94065   1.399  15.140  10.453
28586W        W94066  29.946  36.366   0.432
28587W        W94067  22.616  23.671   3.298
28588W        W94068   7.415  43.820  12.872
28589W        W94069  25.706  29.150  12.384
28590W        W94070   8.235  11.146   3.666
28591W        W94071   3.300  32.591  13.522
28592W        W94072  34.040   8.395  12.367
28593W        W94073   4.337   9.280   1.357
28594W        W94074  19.552  23.639  12.523
28595W        W94075  41.477  43.936  13.839
28596W        W94076  23.576  17.106   3.339
28597W        W94077  44.981  10.697   0.781
28598W        W94078  11.850  28.157  10.411
28599W        W94079  34.882  41.301  13.335
28600W        W94080  29.473   2.333  13.992
28601W        W94081  11.346  13.633  12.496
28602W        W94082  25.703   5.915   1.289
28603W        W94083  19.612  11.787  11.605
28604W        W94084  33.895  40.547   4.675
28605W        W94085  39.928  17.220  12.839
28606W        W94086  24.149  37.467  14.426
28607W        W94087  20.273  23.604  14.488
28608W        W94088  26.106  10.748   4.222
28609W        W94089  26.193  40.308  12.542
28610W        W94090  43.381  41.952  11.102
28611W        W94091  22.686   3.937  10.464
28612W        W94092  40.505  35.906  13.934
28613W        W94093   5.356  41.849   2.759
28614W        W94094   9.837   5.861  12.553
28615W        W94095  31.099  28.630   0.243
28616W        W94096  16.145  40.422   4.195
28617W        W94097   3.449  18.782   1.214
28618W        W94098  39.823  15.703  13.914
28619W        W94099  18.725  39.943   1.823
28620W        W94100  28.080   9.863  10.910
28621W        W94101  44.495  17.615  11.036
28622W        W94102  21.253  15.171  14.321
28623W        W94103  32.562  42.008   4.652
28624W        W94104  39.433   9.878  10.445
28625W        W94105  16.195  18.251  12.482
28626W        W94106  40.382   1.826  13.861
28627W        W94107  13.234   8.708  13.820
28628W        W94108  13.309   9.263   1.771
28629W        W94109  42.935   6.335  11.416
28630W        W94110  23.601   7.389  12.915
28631W        W94111  17.101  35.487   1.716
28632W        W94112  26.026  35.056  13.807
28633W        W94113  41.497  21.262   4.821
28634W        W94114  24.086  29.175  11.406
28635W        W94115  10.787  26.581   1.355
28636W        W94116  10.291  43.420   3.717
28637W        W94117  17.655  34.073   1.695
28638W        W94118  32.117  33.429  11.934
28639W        W94119   3.864  40.962  12.017
28640W        W94120   7.265   7.196   1.850
28641W        W94121   0.913  27.626   1.303
28642W        W94122  19.770  44.866  13.366
28643W        W94123  40.864  12.847   4.826
28644W        W94124  39.517  16.726  13.931
28645W        W94125  22.240  16.232   0.347
28646W        W94126  32.958  39.840  12.996
28647W        W94127  28.083   0.827  10.448
28648W        W94128  17.703  15.221   4.274
28649W        W94129  11.652  10.163   0.964
28650W        W94130  34.885   7.813  14.434
28651W        W94131  41.474  13.175   2.722
28652W        W94132  26.161   6.349   4.256
28653W        W94133  17.282  20.240  12.016
28654W        W94134  10.142  26.172   1.860
28655W        W94135  42.798  15.807  14.014
28656W        W94136  38.406  40.416  10.970
28657W        W94137   8.225   2.240  13.033
28658W        W94138  34.614  19.267   3.281
28659W        W94139  44.422  18.594  13.923
28660W        W94140  36.943  25.164   3.378
28661W        W94141  27.470  25.634  11.066
28662W        W94142  18.764  38.371   4.274
28663W        W94143  41.365  30.155  10.422
28664W        W94144  39.414  33.484   4.606
28665W        W94145  12.278  34.568  14.297
28666W        W94146  37.028  30.549   1.276
28667W        W94147  31.084  11.697  10.895
28668W        W94148   9.281  35.007  12.468
28669W        W94149   9.382  34.091   1.750
28670W        W94150  24.686   3.392   2.221
28671W        W94151  43.895  25.977   1.791
28672W        W94152   9.296  38.383   0.737
28673W        W94153  41.836  42.942   3.710
28674W        W94154  40.907  40.331  11.556
28675W        W94155  14.325   6.878   1.815
28676W        W94156  12.857  13.213   2.738
28677W        W94157  37.492   8.695   1.894
28678W        W94158   0.373   0.319  14.417
28679W        W94159   7.250  30.164   2.776
28680W        W94160  26.639  25.500  10.407
28681W        W94161   3.246  32.519  14.990
28682W        W94162  43.767   2.922   2.709
28683W        W94163  24.059   6.697   3.272
28684W        W94164   3.727   9.850  12.914
28685W        W94165  15.238  32.959   1.406
28686W        W94166  10.876  34.997  11.089
28687W        W94167   8.246  15.093   1.213
28688W        W94168  33.984  28.597   1.391
28689W        W94169  16.647   0.946   0.387
28690W        W94170  19.706   8.826   4.656
28691W        W94171  36.553  34.982  12.911
28692W        W94172  35.949   6.256  12.975
28693W        W94173  27.162  30.082   1.305
28694W        W94174  18.197  40.393  11.862
28695W        W94175  23.104  27.516  13.899
28696W        W94176  15.087  19.769   2.729
28697W        W94177  34.064  13.157   2.799
28698W        W94178   2.858  37.400  10.985
28699W        W94179  43.881  15.247   4.163
28700W        W94180  28.544  33.589   4.644
28701W        W94181   7.354   4.708   2.738
28702W        W94182   0.915  20.713   1.264
28703W        W94183  23.011  13.143  13.976
28704W        W94184  17.603  12.727   3.668
28705W        W94185  18.123  19.654  11.441
28706W        W94186   8.690   6.694  14.879
28707W        W94187  28.183  41.866  10.502
28708W        W94188  14.694   2.278   3.368
28709W        W94189  40.910  10.171  12.039
28710W        W94190   3.940   7.389  11.059
28711W        W94191  17.284  42.386  11.495
28712W        W94192  32.009   9.173  10.574
28713W        W94193  11.730  31.911   5.158
28714W        W94194  14.333   5.313   3.319
28715W        W94195  18.685  21.132   0.921
28716W        W94196   9.687  26.160  11.477
28717W        W94197  21.164   3.431  12.835
28718W        W94198  28.945  14.669  13.933
28719W        W94199  22.602  31.153  13.341
28720W        W94200  30.638  40.391  12.844
28721W        W94201   3.424  38.459  12.485
28722W        W94202  15.629  33.572   2.813
28723W        W94203  33.498  12.195  10.624
28724W        W94204  20.050  25.566   2.257
28725W        W94205  33.403   4.900   2.385
28726W        W94206  41.818   6.263   1.388
28727W        W94207   2.825  27.094  11.082
28728W        W94208  38.460  20.676   4.268
28729W        W94209  12.134  14.792  14.339
28730W        W94210  38.050   0.413  13.471
28731W        W94211  28.133   4.934   5.214
28732W        W94212  35.481  21.236  13.874
28733W        W94213   1.841   9.727  13.890
28734W        W94214  22.171  25.978   1.270
28735W        W94215  24.163   6.416  14.388
28736W        W94216  35.012  41.009  14.465
28737W        W94217  10.339  24.199   5.269
28738W        W94218  41.987  15.191  14.950
28739W        W94219  10.362  16.131   4.660
28740W        W94220   5.240  14.639  12.020
28741W        W94221  37.348  18.273  12.540
28742W        W94222  11.347  18.165  13.859
28743W        W94223  13.318  17.072  12.045
28744W        W94224  10.752  17.101  13.795
28745W        W94225  14.630  14.781   3.249
28746W        W94226  26.644  37.540   1.901
28747W        W94227  41.320  39.973   0.345
28748W        W94228   9.684   7.702  13.896
28749W        W94229   8.337  35.362  13.516
28750W        W94230  27.149  31.422  11.034
28751W        W94231  15.143   2.272  13.448
28752W        W94232  37.471  12.261   1.226
28753W        W94233  12.706  38.542   0.327
28754W        W94234  35.870  20.660  14.308
28755W        W94235  26.127   8.861  12.385
28756W        W94236  38.033  17.065  10.511
28757W        W94237  29.068  26.038  13.867
28758W        W94238  18.110   5.425  12.986
28759W        W94239  19.053  12.709  13.053
28760W        W94240  39.345  29.487   2.739
28761W        W94241  38.874  34.973  11.488
28762W        W94242  44.346  34.437   0.824
28763W        W94243  25.155  13.806   0.789
28764W        W94244  38.371   5.898   1.233
28765W        W94245  29.460  37.957  14.846
28766W        W94246   5.198  36.866   4.269
28767W        W94247   3.746  19.067   2.846
28768W        W94248  26.531  34.447   2.736
28769W        W94249  21.713  34.914  13.045
28770W        W94250  33.883   3.804  11.932
28771W        W94251  37.539   1.867   1.284
28772W        W94252  19.153   1.245   1.391
28773W        W94253  37.844  39.950   2.771
28774W        W94254   0.838  32.408  14.312
28775W        W94255  37.377  27.961  14.795
28776W        W94256  16.718  28.996   1.921
28777W        W94257   5.374  17.635   2.299
28778W        W94258  44.819  14.695   4.338
28779W        W94259  12.825  15.757  11.547
28780W        W94260   0.466  37.011   4.613
28781W        W94261  38.974  19.635  13.825
28782W        W94262  42.963  41.995   3.757
28783W        W94263  42.799  17.290   2.254
28784W        W94264  20.686  39.380  12.070
28785W        W94265  37.370  21.752  13.853
28786W        W94266  42.293  19.091   1.226
28787W        W94267  24.161  19.246   2.807
28788W        W94268  36.493   5.818  10.644
28789W        W94269  31.523  43.411   4.317
28790W        W94270   2.240   0.839  11.597
28791W        W94271  25.986  43.291  14.507
28792W        W94272   6.792  43.860  14.961
28793W        W94273  29.166  13.296  10.420
28794W        W94274  44.470  12.726  14.435
28795W        W94275   5.328  13.758   0.791
28796W        W94276  13.276   4.787  12.086
28797W        W94277  44.845  39.405   4.672
28798W        W94278  18.283   9.847   1.301
28799W        W94279  15.812   9.259   4.724
28800W        W94280  38.929  20.167   4.777
28801W        W94281  33.564  23.527   9.965
28802W        W94282  34.575  34.096  12.048
28803W        W94283  42.376  43.485  14.465
28804W        W94284  13.661  16.689  12.479
28805W        W94285  22.620  21.055  10.638
28806W        W94286  24.554  34.879   2.294
28807W        W94287  27.446   7.767  14.477
28808W        W94288  35.452  38.538   4.597
28809W        W94289  39.363  22.586   0.957
28810W        W94290  24.028  16.144   2.191
28811W        W94291  38.488  30.003  14.291
28812W        W94292  28.998  36.091   4.676
28813W        W94293  34.520  40.032   0.928
28814W        W94294  27.631  16.132  10.609
28815W        W94295  41.034  43.842   2.264
28816W        W94296  13.143   3.839   2.844
28817W        W94297  37.429  26.079  12.914
28818W        W94298  16.210  22.073  11.547
28819W        W94299  26.656   3.837   4.786
28820W        W94300  35.488  26.182  10.966
28821W        W94301  35.032  23.552   3.701
28822W        W94302  19.780  36.904  13.883
28823W        W94303   2.467  13.226   0.815
28824W        W94304   6.683  29.918  13.387
28825W        W94305  39.392  21.677   4.151
28826W        W94306   9.151  31.464   2.778
28827W        W94307   6.376   9.827   2.748
28828W        W94308  31.074  11.797  14.937
28829W        W94309  18.621  36.098  10.916
28830W        W94310  42.813  12.702   1.258
28831W        W94311  15.669   7.389  13.470
28832W        W94312  34.927  23.992   0.406
28833W        W94313  21.638  21.156  13.815
28834W        W94314  36.078  34.064  10.931
28835W        W94315  11.136  25.166  13.393
28836W        W94316  40.908   5.214  12.004
28837W        W94317  35.597  35.930   2.241
28838W        W94318   9.743  37.002  14.840
28839W        W94319   4.272   1.962  13.326
28840W        W94320  19.046  21.709   0.786
28841W        W94321   0.862   1.906  12.440
28842W        W94322  38.330  37.438   2.382
28843W        W94323   9.247  28.163   4.769
28844W        W94324  33.967  21.656  11.907
28845W        W94325  37.079  20.559  11.468
28846W        W94326   5.690  25.558   1.311
28847W        W94327  22.083  11.357   0.809
28848W        W94328   1.818  40.938  12.502
28849W        W94329  19.606   6.691  11.522
28850W        W94330  30.459  27.508  13.358
28851W        W94331  20.769   8.899  13.034
28852W        W94332  10.636   7.345  13.802
28853W        W94333  16.641  19.231  12.896
28854W        W94334  44.789  23.013   2.355
28855W        W94335  15.239  25.595  12.564
28856W        W94336   3.270  42.894  14.389
28857W        W94337   4.723  12.338   1.698
28858W        W94338  44.386   7.368   0.451
28859W        W94339  10.360  27.501  13.528
28860W        W94340  43.279  43.283   2.812
28861W        W94341  26.086  29.988   1.449
28862W        W94342  16.569  17.237   0.854
28863W        W94343  34.427  27.136  10.971
28864W        W94344   4.904  22.169  13.379
28865W        W94345  18.187   5.814  14.335
28866W        W94346   0.846  35.877   1.436
28867W        W94347  40.497  33.955   3.229
28868W        W94348  27.186  36.928   0.827
28869W        W94349  10.760  20.166  12.048
28870W        W94350  24.178  10.255  12.487
28871W        W94351  20.727  24.191   0.436
28872W        W94352  31.028   2.949  10.424
28873W        W94353   7.281  11.667   4.319
28874W        W94354   3.872   6.698   0.348
28875W        W94355  15.748  12.360  14.416
28876W        W94356  22.148  10.801   0.748
28877W        W94357   0.968  29.520  14.501
28878W        W94358  25.117   3.371   1.872
28879W        W94359  25.475  33.467   0.773
28880W        W94360  24.606  12.164   0.458
28881W        W94361  16.240  44.459   2.349
28882W        W94362  12.244  35.976   3.742
28883W        W94363   9.221   1.259  11.581
28884W        W94364  32.991   0.394  10.537
28885W        W94365  26.078  16.634  12.942
28886W        W94366  27.097  33.474   1.436
28887W        W94367   7.854  35.107  10.621
28888W        W94368  41.928  10.751   3.312
28889W        W94369   1.969   7.213  13.384
28890W        W94370   2.456  34.039  13.934
28891W        W94371  23.082  42.869   5.584
28892W        W94372  15.651  16.103  14.501
28893W        W94373   7.375  27.588   1.351
28894W        W94374  23.650  41.893   0.483
28895W        W94375   8.357   4.405  13.530
28896W        W94376   4.711  22.647  11.033
28897W        W94377  13.344   2.240   3.387
28898W        W94378  10.870  13.208   3.280
28899W        W94379  11.192  14.215  12.515
28900W        W94380  36.435  15.643  11.089
28901W        W94381  32.952  25.077   3.311
28902W        W94382  19.753  38.446  12.871
28903W        W94383  37.033   6.329   1.785
28904W        W94384  22.248  27.470  13.399
28905W        W94385  27.084   6.921  11.466
28906W        W94386  25.624  21.597  11.964
28907W        W94387  42.791  39.476  12.825
28908W        W94388  28.528  10.268   4.767
28909W        W94389   1.757  34.112  13.541
28910W        W94390  31.968  21.518  13.351
28911W        W94391  33.434  17.124   2.350
28912W        W94392  10.672  24.128  13.015
28913W        W94393  20.631  29.936   4.682
28914W        W94394  39.961  22.506   2.806
28915W        W94395   2.243  41.524  14.957
28916W        W94396  41.988  26.486  13.869
28917W        W94397  26.017  42.821   0.825
28918W        W94398   2.421  42.366  10.612
28919W        W94399  14.262  22.163  13.437
28920W        W94400  13.155  25.033   2.824
28921W        W94401  25.581  19.066  13.026
28922W        W94402  37.853  16.230  13.438
28923W        W94403  12.731  18.770   3.374
28924W        W94404  37.428   2.880   4.675
28925W        W94405  23.179   1.927  11.862
28926W        W94406  28.612  24.209  12.860
28927W        W94407  14.161  28.952   4.680
28928W        W94408   3.920   7.778   4.762
28929W        W94409   8.365   2.749   2.685
28930W        W94410   1.477  26.202   4.671
28931W        W94411  38.564  16.209   2.241
28932W        W94412   0.974  23.002   4.168
28933W        W94413  28.468   5.281  14.280
28934W        W94414  14.690  43.778   5.702
28935W        W94415  30.047  28.648  13.443
28936W        W94416  22.239  11.681   4.220
28937W        W94417   8.716  27.165  14.505
28938W        W94418  37.841  16.312  13.849
28939W        W94419  24.155  37.977   1.299
28940W        W94420   9.267  38.531   3.375
28941W        W94421  29.606  43.427  11.534
28942W        W94422  28.441  15.099  13.329
28943W        W94423  13.111  38.563   1.249
28944W        W94424  23.634  36.548   4.753
28945W        W94425  38.412  22.552   4.126
28946W        W94426  30.942  37.509  11.923
28947W        W94427  35.577  36.347   0.349
28948W        W94428  30.915  21.719  13.311
28949W        W94429   6.714  40.810   1.718
28950W        W94430  13.107  28.186  13.022
28951W        W94431  35.471  25.013   4.344
28952W        W94432  13.305  41.802  13.851
28953W        W94433  28.437  40.912   3.761
28954W        W94434   4.340  19.601   5.227
28955W        W94435  18.757  17.722  11.863
28956W        W94436  18.107   2.411  11.963
28957W        W94437   1.477   4.418   4.628
28958W        W94438  42.309  34.865   4.348
28959W        W94439   4.833  25.486   1.338
28960W        W94440   3.447  32.928   3.345
28961W        W94441   4.398  44.358  13.332
28962W        W94442  32.926   0.879  13.493
28963W        W94443   2.831  41.365   1.715
28964W        W94444  12.241  17.658   0.818
28965W        W94445  37.525  24.645  11.419
28966W        W94446  36.389  44.350  13.372
28967W        W94447  39.365  38.389  14.323
28968W        W94448  15.681  40.974   2.737
28969W        W94449  34.945  16.239   0.444
28970W        W94450  10.318  42.431   1.396
28971W        W94451   7.302   3.835  11.554
28972W        W94452  41.988  20.177   1.312
28973W        W94453  33.922  14.284  13.022
28974W        W94454   1.257  19.644  14.793
28975W        W94455  13.285  41.815   1.755
28976W        W94456   0.755  28.042   5.153
28977W        W94457  26.579  31.002  11.010
28978W        W94458  22.128  10.820  14.020
28979W        W94459  17.157  44.819  10.612
28980W        W94460  19.729   3.230   1.909
28981W        W94461   3.428  37.941   3.747
28982W        W94462  24.680   4.261  12.450
28983W        W94463  14.746   3.765   3.742
28984W        W94464   1.245  28.586  14.394
28985W        W94465   5.276   6.720  12.577
28986W        W94466  11.238  23.583   0.297
28987W        W94467  30.159  44.835  10.533
28988W        W94468   2.794  17.736  14.980
28989W        W94469  33.541   5.695  11.479
28990W        W94470  10.764   4.785   0.268
28991W        W94471  29.146  16.076   0.840
28992W        W94472  19.561  25.004   4.752
28993W        W94473  44.782  35.550   4.775
28994W        W94474  32.469   1.336  11.453
28995W        W94475  41.337  41.339   2.381
28996W        W94476  30.457  21.681  10.549
28997W        W94477  13.154  36.579  14.873
28998W        W94478  24.988   5.728   2.347
28999W        W94479  19.580   4.751  14.276
29000W        W94480   4.828  33.970  13.821
29001W        W94481  39.355  35.039  14.502
29002W        W94482  30.570  29.107  10.607
29003W        W94483  20.644  34.072   0.853
29004W        W94484   0.319  40.395  12.530
29005W        W94485  12.660  18.097   4.690
29006W        W94486  43.365  37.862   2.415
29007W        W94487  44.910  22.553  10.971
29008W        W94488  25.000  35.382   1.927
29009W        W94489  44.494  40.023  12.981
29010W        W94490  22.027  30.122   1.844
29011W        W94491   1.306  11.632  12.970
29012W        W94492  22.105   7.674  14.911
29013W        W94493   1.809  38.432  11.409
29014W        W94494  39.433  31.637  12.578
29015W        W94495  25.549  41.357   2.406
29016W        W94496  31.056  32.605   2.800
29017W        W94497  32.981   0.844   4.320
29018W        W94498  17.627  30.536  11.414
29019W        W94499   6.288  44.962  13.884
29020W        W94500  22.723  12.854   0.270
29021W        W94501  33.010  27.096  13.409
29022W        W94502  44.418   3.348   0.302
29023W        W94503  39.431  10.334  11.005
29024W        W94504   7.722   1.469  11.075
29025W        W94505   0.751  36.552  12.075
29026W        W94506   8.869  22.189   0.317
29027W        W94507  33.080  41.301  14.360
29028W        W94508   2.375   3.875   1.876
29029W        W94509  10.642  35.467  13.469
29030W        W94510  25.644  32.626  12.896
29031W        W94511   7.326   9.364   4.751
29032W        W94512  20.606  15.229  10.898
29033W        W94513  39.319  15.256  12.428
29034W        W94514   4.745  14.277   2.718
29035W        W94515  15.223   5.315  11.496
29036W        W94516  34.874  41.363  14.499
29037W        W94517  26.040  16.620   4.716
29038W        W94518   0.363   9.849  13.402
29039W        W94519   2.381  39.380   4.195
29040W        W94520  18.550  44.415  12.576
29041W        W94521   9.334  42.799  11.452
29042W        W94522  30.006  40.453  14.888
29043W        W94523  27.062   5.228   1.448
29044W        W94524  27.136   4.271  14.486
29045W        W94525  40.458  32.518  10.602
29046W        W94526  26.046   7.739   3.763
29047W        W94527   8.812  17.141   3.306
29048W        W94528  27.682  10.759   4.676
29049W        W94529  24.679  30.104  14.826
29050W        W94530  25.989   6.381   0.817
29051W        W94531   4.742   5.775  11.472
29052W        W94532  43.283   7.266   0.479
29053W        W94533  13.124  39.002   0.843
29054W        W94534  38.416  14.317   4.340
29055W        W94535  17.659  23.200  10.977
29056W        W94536   2.429  20.741  12.570
29057W        W94537  20.114  35.542  11.000
29058W        W94538  21.195  36.995   0.293
29059W        W94539  19.257   9.195  13.815
29060W        W94540  36.475   4.394  14.447
29061W        W94541  14.250  42.793   4.761
29062W        W94542  38.897   5.247  11.588
29063W        W94543   2.861  40.984  13.312
29064W        W94544  29.602  25.551  10.566
29065W        W94545  36.955   8.848  14.371
29066W        W94546  38.044  24.132  13.836
29067W        W94547  37.427  37.550  11.062
29068W        W94548  16.572  29.588  13.911
29069W        W94549  27.163  36.497  10.970
29070W        W94550  18.756   8.759  11.553
29071W        W94551  13.726  42.288   1.715
29072W        W94552  17.755  41.331   3.664
29073W        W94553   9.239  29.140  14.840
29074W        W94554   5.925  36.869   4.781
29075W        W94555   3.907  42.965  10.602
29076W        W94556  27.532  39.824   1.889
29077W        W94557  25.071  43.387   3.683
29078W        W94558   3.719   8.276   4.598
29079W        W94559  27.559   9.882  10.606
29080W        W94560  21.529  24.077  14.394
29081W        W94561  42.433  22.532  12.964
29082W        W94562  31.984   4.856  11.882
29083W        W94563   9.232  15.313   2.203
29084W        W94564  28.090   4.258  12.364
29085W        W94565   5.386  21.178  14.978
29086W        W94566  19.226   0.380  12.402
29087W        W94567  39.424   2.891   2.810
29088W        W94568  29.977  15.752   0.327
29089W        W94569  23.709  43.356  13.986
29090W        W94570  41.973  32.889  10.439
29091W        W94571  18.206  32.077  11.104
29092W        W94572  15.610  28.173   5.142
29093W        W94573  29.050  23.632   2.375
29094W        W94574  14.820  18.774   1.221
29095W        W94575  16.196   8.313  10.542
29096W        W94576  24.577  38.561   3.300
29097W        W94577  29.647  17.214   2.395
29098W        W94578  11.273  18.258   3.201
29099W        W94579  26.169  38.970  10.473
29100W        W94580  39.559  11.846  11.551
29101W        W94581  33.108  14.764  10.636
29102W        W94582  23.734   2.305  12.973
29103W        W94583  30.104  29.573   1.896
29104W        W94584  44.926  37.435  13.407
29105W        W94585  31.078  34.026  10.969
29106W        W94586   5.852   5.315  13.529
29107W        W94587   3.870   5.871   4.304
29108W        W94588  38.530  27.081  11.587
29109W        W94589  38.839   3.823   0.411
29110W        W94590  35.962   8.795   0.820
29111W        W94591  35.574  21.528  13.455
29112W        W94592  34.922  36.518  10.992
29113W        W94593   7.215  10.356  14.481
29114W        W94594  43.437   6.243   4.341
29115W        W94595  33.929   0.847   1.783
29116W        W94596   4.321  32.583   4.352
29117W        W94597  33.004  22.150   0.391
29118W        W94598  22.231  43.338   0.844
29119W        W94599  37.427  35.454  10.950
29120W        W94600  22.239  23.717   0.458
29121W        W94601  38.491  36.971  14.325
29122W        W94602  20.631  39.991  14.767
29123W        W94603  28.089   8.246  10.914
29124W        W94604   8.856  44.275  12.921
29125W        W94605  24.166  21.753   1.447
29126W        W94606  22.165  14.225  12.948
29127W        W94607  23.565  35.098  14.780
29128W        W94608  44.808  26.094   4.839
29129W        W94609  33.060  33.066   2.869
29130W        W94610  12.678  17.179   1.438
29131W        W94611  25.967  12.343   3.352
29132W        W94612  44.438  37.434  14.853
29133W        W94613  30.143  24.608   4.189
29134W        W94614  13.719   1.303  12.919
29135W        W94615   1.338   7.391   2.385
29136W        W94616  21.056  17.618  14.441
29137W        W94617  21.230  19.201  10.991
29138W        W94618  15.749  40.418   4.202
29139W        W94619   4.367  21.644  10.490
29140W        W94620  37.553  27.638   3.263
29141W        W94621  44.399  23.142   3.818
29142W        W94622  12.768  28.954   3.852
29143W        W94623  33.064  25.626  12.402
29144W        W94624  26.521  39.902  11.012
29145W        W94625  13.112  17.068   0.325
29146W        W94626  43.857   1.967  11.084
29147W        W94627  10.293  30.936   2.696
29148W        W94628  10.715  23.012   4.765
29149W        W94629  27.678  29.634  10.959
29150W        W94630   5.788  43.279   2.712
29151W        W94631  44.260  24.490  13.430
29152W        W94632   2.886  10.265  14.485
29153W        W94633  24.102  39.998   0.767
29154W        W94634  23.073   7.338   3.331
29155W        W94635  17.698  37.860   0.406
29156W        W94636  20.560  16.787   4.670
29157W        W94637  21.140  23.610  11.563
29158W        W94638   4.383  19.546   3.177
29159W        W94639  19.674   0.248   2.385
29160W        W94640  40.803  17.131   5.178
29161W        W94641  18.129  20.196   3.763
29162W        W94642  37.862  23.664  10.487
29163W        W94643  19.647   7.273   2.284
29164W        W94644  14.138  42.411  14.363
29165W        W94645  41.857  15.739   1.904
29166W        W94646  25.690  27.957  10.110
29167W        W94647  39.915  24.117  12.025
29168W        W94648  28.610  32.507  12.898
29169W        W94649   8.817  11.226  12.517
29170W        W94650  38.500  44.323  11.927
29171W        W94651  31.514  40.924   2.705
29172W        W94652  18.095  39.043   0.797
29173W        W94653  19.093  43.867   2.350
29174W        W94654  33.626  38.007  12.404
29175W        W94655  29.599  40.990  13.399
29176W        W94656  17.090   1.455   0.768
29177W        W94657  39.859  21.094  13.822
29178W        W94658  36.009  38.353   2.760
29179W        W94659  34.446  42.521   2.794
29180W        W94660   2.730  43.786  12.347
29181W        W94661  17.232  17.730  12.476
29182W        W94662  37.886  13.308  13.057
29183W        W94663  11.692  25.504   1.817
29184W        W94664  11.309   9.238   1.697
29185W        W94665  38.383  16.757  13.861
29186W        W94666  21.250   0.830   2.702
29187W        W94667  29.952  43.769   4.114
29188W        W94668  34.921  25.658  11.423
29189W        W94669   5.728   2.381   4.687
29190W        W94670  15.689   0.742  10.594
29191W        W94671  11.847  11.780   3.156
29192W        W94672  18.723  31.568   3.210
29193W        W94673  29.163   2.800  13.865
29194W        W94674  35.582  34.614   3.731
29195W        W94675  32.889  42.309  14.373
29196W        W94676  31.128  35.458   0.915
29197W        W94677   0.868   5.806   1.423
29198W        W94678  20.273   0.399   3.651
29199W        W94679   6.191  23.714  11.955
29200W        W94680   4.882  22.707   0.277
29201W        W94681  16.081   6.736   2.847
29202W        W94682  38.887   4.763   1.901
29203W        W94683  34.386   8.864  12.979
29204W        W94684  31.060  39.813   2.889
29205W        W94685  26.628  39.527  13.368
29206W        W94686   6.819  40.467   1.797
29207W        W94687  42.810  26.492  11.068
29208W        W94688  43.948   9.805   0.937
29209W        W94689  11.239  40.002  14.439
29210W        W94690   1.868  34.868   9.972
29211W        W94691   0.796   8.390  11.545
29212W        W94692  36.939  40.025  10.414
29213W        W94693  34.033  26.156  14.774
29214W        W94694  27.048  22.626  11.528
29215W        W94695  15.636  36.574   1.712
29216W        W94696  43.865  24.538  10.551
29217W        W94697  12.843   8.682   0.318
29218W        W94698   6.765  16.187  14.430
29219W        W94699   1.898  32.109   1.323
29220W        W94700  14.100  16.709  14.457
29221W        W94701   0.827  12.309   4.703
29222W        W94702  36.845  31.407   0.923
29223W        W94703   3.320  38.540   2.317
29224W        W94704   5.402  20.590   3.282
29225W        W94705  43.391   4.308   1.415
29226W        W94706  27.553  24.974  14.784
29227W        W94707   5.801   9.742  14.471
29228W        W94708  33.587  25.495  14.358
29229W        W94709  20.741  13.160   4.235
29230W        W94710  30.971  18.284  11.979
29231W        W94711   9.224  30.551  13.001
29232W        W94712  35.103   4.853  14.862
29233W        W94713  12.731  39.332   1.236
29234W        W94714  30.083  24.485   1.253
29235W        W94715   9.174  16.094   1.400
29236W        W94716  13.702  13.756   0.945
29237W        W94717  22.011  25.614  10.904
29238W        W94718  23.582  44.431   1.716
29239W        W94719   1.878  25.516  14.400
29240W        W94720  25.560  35.073   1.220
29241W        W94721  35.926  33.399  13.381
29242W        W94722  24.139  33.055  11.117
29243W        W94723   6.782  30.930  11.376
29244W        W94724  39.001  23.523   1.318
29245W        W94725  35.880  10.636  13.517
29246W        W94726  20.041  37.434  12.084
29247W        W94727   9.739   1.779   3.857
29248W        W94728  14.304  39.396  14.344
29249W        W94729  42.350  26.689  14.312
29250W        W94730  11.763  15.258   3.822
29251W        W94731  23.648  27.555  11.606
29252W        W94732   7.264  42.449   3.709
29253W        W94733  13.259   0.776   3.800
29254W        W94734  28.636   4.820  14.426
29255W        W94735  35.978  17.307   3.153
29256W        W94736   4.450  40.846  13.835
29257W        W94737  32.001  24.639   1.846
29258W        W94738  24.148  38.981  14.766
29259W        W94739   0.403  38.044   2.830
29260W        W94740  38.337   3.736  11.115
29261W        W94741  24.715  13.176  14.821
29262W        W94742  33.890  43.934  13.804
29263W        W94743  11.157  13.233  12.382
29264W        W94744  35.012  11.758  13.970
29265W        W94745  25.481  12.189   1.895
29266W        W94746   4.767   9.279  10.554
29267W        W94747  20.723   1.361   2.323
29268W        W94748  12.647  17.222  11.508
29269W        W94749  22.996   3.294  13.392
29270W        W94750  21.252  19.699  14.838
29271W        W94751  27.565  39.944   5.229
29272W        W94752  20.070  10.805  12.940
29273W        W94753  14.770  20.637   4.197
29274W        W94754  44.495   5.695  11.399
29275W        W94755  32.513  30.952   3.652
29276W        W94756  26.540  12.709  11.417
29277W        W94757   1.955  34.571  13.505
29278W        W94758  41.978   2.300   1.708
29279W        W94759  29.165  39.853   2.737
29280W        W94760  33.002  28.636   1.900
29281W        W94761  36.509  37.357   3.853
29282W        W94762  18.098  30.093   0.402
29283W        W94763   8.256  20.591   0.747
29284W        W94764  12.286  26.123  11.554
29285W        W94765   3.345  44.390   3.248
29286W        W94766   5.827  14.588  13.871
29287W        W94767  37.083  34.496   3.381
29288W        W94768  42.028  17.069  12.403
29289W        W94769  38.522  13.350   1.354
29290W        W94770   3.833   1.432  10.512
29291W        W94771   5.299  10.283   2.769
29292W        W94772  27.526  20.647   3.319
29293W        W94773  29.080   0.933  13.423
29294W        W94774   2.283  29.523  12.882
29295W        W94775   8.232  31.008   4.192
29296W        W94776  25.652  32.500  10.554
29297W        W94777   3.911  26.196   4.658
29298W        W94778   4.258  24.658   2.299
29299W        W94779   9.777  14.274   2.847
29300W        W94780   2.938  18.196   3.714
29301W        W94781  33.401  29.057   3.849
29302W        W94782  30.552  34.546  14.976
29303W        W94783  18.108  24.647  10.418
29304W        W94784  28.019  34.006   4.801
29305W        W94785  35.393  28.478   4.640
29306W        W94786   9.208   7.309  14.463
29307W        W94787  12.260  37.338   3.717
29308W        W94788  35.412  24.129   2.200
29309W        W94789  39.990  34.595  14.315
29310W        W94790   6.294  11.177  14.463
29311W        W94791  37.004  40.835   4.669
29312W        W94792  29.162   1.320   3.667
29313W        W94793  38.932  31.057   0.242
29314W        W94794  32.563   8.330  11.399
29315W        W94795  35.561  27.590   4.183
29316W        W94796  25.131  27.671   0.906
29317W        W94797  43.288  34.470  12.538
29318W        W94798  17.599  28.082  12.999
29319W        W94799  22.169   5.911  10.056
29320W        W94800  10.794   9.290   3.851
29321W        W94801   3.300  44.944   4.791
29322W        W94802  42.396  37.873   0.907
29323W        W94803   2.277  31.529   0.332
29324W        W94804  15.218  15.816  12.892
29325W        W94805  39.390   2.409  11.127
29326W        W94806  22.120   6.321   3.682
29327W        W94807  28.567  17.157  14.387
29328W        W94808  28.164  40.395   3.239
29329W        W94809  39.852   4.285  14.490
29330W        W94810  12.761  40.507  11.992
29331W        W94811  35.106  30.504   0.476
29332W        W94812  23.044   5.413   1.254
29333W        W94813  32.122  23.984  14.837
29334W        W94814  37.540  19.277  10.999
29335W        W94815  44.819   1.908  14.941
29336W        W94816   2.755   7.676  14.352
29337W        W94817  42.992  32.051   3.373
29338W        W94818   7.329  22.052   3.661
29339W        W94819   1.470  41.377   2.192
29340W        W94820  34.924  13.609  11.107
29341W        W94821   1.382  41.836  12.000
29342W        W94822  26.190   5.714  10.492
29343W        W94823  23.000  11.234  12.469
29344W        W94824  20.156  16.755  11.921
29345W        W94825  29.959  35.032   1.343
29346W        W94826  41.847  18.115  14.930
29347W        W94827  28.598  13.151   4.291
29348W        W94828   3.241  13.255   2.902
29349W        W94829  40.958   7.887   4.825
29350W        W94830  37.080  36.354  10.588
29351W        W94831  43.015  23.204  14.444
29352W        W94832  10.746  13.610  14.338
29353W        W94833  34.904  23.605  14.331
29354W        W94834  30.449  22.501   4.254
29355W        W94835  21.116   1.872   3.235
29356W        W94836  21.652   2.870  14.914
29357W        W94837  17.080   5.240  11.396
29358W        W94838  28.469  15.744  10.421
29359W        W94839  37.495  34.578  13.328
29360W        W94840  29.531   0.817   2.252
29361W        W94841  34.969  30.108  11.035
29362W        W94842  29.551  38.822   4.300
29363W        W94843  12.788  34.517  11.410
29364W        W94844  44.969  29.979   2.788
29365W        W94845  43.018  41.937  14.929
29366W        W94846   3.814  37.995  11.033
29367W        W94847   1.258  32.637  10.994
29368W        W94848   3.237  38.371   2.866
29369W        W94849  20.623  43.313  10.424
29370W        W94850  36.363  33.024   3.821
29371W        W94851  37.441  42.469   4.694
29372W        W94852   9.858  13.257   0.454
29373W        W94853  31.117  24.549   2.693
29374W        W94854  34.477  40.803  14.780
29375W        W94855  44.838  12.810   0.805
29376W        W94856  26.010  41.836   3.293
29377W        W94857  42.410  20.674   2.902
29378W        W94858  22.666   0.292  14.435
29379W        W94859  30.504  13.670  13.483
29380W        W94860  30.133  21.747  13.336
29381W        W94861  32.976  34.919   3.385
29382W        W94862  37.475  40.898  14.767
29383W        W94863  26.963   2.446   3.296
29384W        W94864  27.024   2.853   0.943
29385W        W94865  44.381   9.184   3.661
29386W        W94866  39.384   0.908  13.927
29387W        W94867  31.089   8.403   0.385
29388W        W94868  26.659  39.482   4.698
29389W        W94869  20.114  27.483   5.226
29390W        W94870  40.001   6.326   0.744
29391W        W94871   8.864  39.361  11.904
29392W        W94872  35.924  26.691   1.260
29393W        W94873  35.582   8.837   4.351
29394W        W94874  10.666  35.055  11.468
29395W        W94875  42.890  25.209   3.277
29396W        W94876  27.117  28.008   1.213
29397W        W94877  14.283   0.923  11.443
29398W        W94878  12.628  12.675   0.483
29399W        W94879  37.050  43.789  13.370
29400W        W94880  38.513   8.831  12.468
29401W        W94881  25.569  15.209  12.562
29402W        W94882  37.042   3.217   3.793
29403W        W94883  44.985  27.998   0.363
29404W        W94884  23.545  31.931  12.830
29405W        W94885   9.783  34.481   3.695
29406W        W94886  37.458  39.519  13.367
29407W        W94887  27.578  27.564   1.846
29408W        W94888  42.022   8.195  12.824
29409W        W94889  35.925  22.077   1.381
29410W        W94890  10.362  14.219   0.422
29411W        W94891   1.425  18.680   2.391
29412W        W94892  21.073  25.072   4.275
29413W        W94893  42.023  21.021  12.508
29414W        W94894  21.654  44.834  13.867
29415W        W94895  14.178  18.133  10.991
29416W        W94896   3.871  20.743   4.296
29417W        W94897   3.916  12.673  13.423
29418W        W94898  29.602  24.059   3.771
29419W        W94899  33.594  29.538  10.897
29420W        W94900   7.726  27.139   1.799
29421W        W94901   2.303  37.469  11.909
29422W        W94902   0.388   3.454   2.308
29423W        W94903  34.453  31.588  14.830
29424W        W94904  15.190   9.169   2.296
29425W        W94905  33.894  29.663   1.855
29426W        W94906   1.880  31.595   4.206
29427W        W94907   3.255   7.862   4.192
29428W        W94908   8.868   5.882  10.644
29429W        W94909  21.191   2.271   1.699
29430W        W94910   6.836  13.218  14.515
29431W        W94911   6.247  36.968   1.233
29432W        W94912   7.866  24.043  13.892
29433W        W94913  42.410   8.320   9.572
29434W        W94914  28.623  36.964   2.207
29435W        W94915  31.580  32.464  10.968
29436W        W94916  36.534  39.939   3.368
29437W        W94917  18.751   7.214   0.731
29438W        W94918  41.491  27.610  10.992
29439W        W94919   8.376  25.033  11.082
29440W        W94920  20.583  34.447  11.421
29441W        W94921  28.492  19.664  13.470
29442W        W94922  31.411  30.588   2.802
29443W        W94923   8.813  39.047   3.704
29444W        W94924  41.406  34.078  14.838
29445W        W94925  12.745  34.032  12.023
29446W        W94926  25.114  39.877  14.842
29447W        W94927  19.583   3.845  11.581
29448W        W94928  10.786  33.433   3.337
29449W        W94929  42.834  25.615  14.391
29450W        W94930  32.520  42.884   3.369
29451W        W94931  35.436  20.747  11.433
29452W        W94932   6.745  41.814  13.957
29453W        W94933  16.309  25.700   3.350
29454W        W94934   7.711  31.059  14.946
29455W        W94935  24.071  10.825   3.708
29456W        W94936   1.795  39.465  10.417
29457W        W94937  15.763  23.195   1.769
29458W        W94938  21.722  30.422  11.100
29459W        W94939  27.663  39.328   0.861
29460W        W94940   7.848   3.458  12.826
29461W        W94941  40.467  41.791   2.738
29462W        W94942  10.639   8.662   0.834
29463W        W94943  27.579  43.791  14.513
29464W        W94944  22.565  31.487   1.261
29465W        W94945   6.919  25.136  11.595
29466W        W94946  29.918  10.169   4.708
29467W        W94947  10.748  18.753   0.939
29468W        W94948   4.383  11.348   1.887
29469W        W94949  10.263  34.865   5.252
29470W        W94950  28.630  38.946  11.046
29471W        W94951  33.483  25.156   1.295
29472W        W94952  30.623  26.554   2.662
29473W        W94953  11.720   5.290   0.902
29474W        W94954  33.423  28.130   3.796
29475W        W94955  24.046   2.733   3.716
29476W        W94956  18.234   9.796  10.630
29477W        W94957  11.296   5.284  11.517
29478W        W94958   7.822   0.933   2.408
29479W        W94959  27.614   2.785  14.906
29480W        W94960  30.582  29.024   2.311
29481W        W94961   3.943  16.779  13.361
29482W        W94962   9.289  36.525  11.588
29483W        W94963  28.134  21.228  14.315
29484W        W94964  30.132  29.447   1.421
29485W        W94965   0.926  17.572   4.708
29486W        W94966  16.744  31.129  12.533
29487W        W94967   0.459  28.662   0.335
29488W        W94968  10.196   6.281  11.508
29489W        W94969   9.252  15.736   2.672
29490W        W94970  23.142  20.762  12.872
29491W        W94971  31.083  14.298   0.253
29492W        W94972  10.785   3.743  12.981
29493W        W94973  34.410  10.283   3.655
29494W        W94974  15.639  18.720  14.897
29495W        W94975  43.455  27.161   2.324
29496W        W94976  40.889  29.574   4.702
29497W        W94977  37.888  12.668   0.395
29498W        W94978  31.440  16.143  12.347
29499W        W94979  28.666  18.604  14.410
29500W        W94980   3.716   9.366   4.763
29501W        W94981  16.075  20.076   4.724
29502W        W94982   2.747   8.194   0.855
29503W        W94983  31.487  11.836  10.545
29504W        W94984   8.355  22.089   3.866
29505W        W94985  38.046  19.736  13.852
29506W        W94986   7.193  26.106  11.942
29507W        W94987  14.629  30.983   1.922
29508W        W94988   3.216  26.087  13.446
29509W        W94989   1.454  36.526   0.447
29510W        W94990   7.330   9.724  11.953
29511W        W94991  16.302   9.262  12.941
29512W        W94992  34.035  27.659  11.556
29513W        W94993   6.369  11.227  12.854
29514W        W94994   5.797  25.048   2.346
29515W        W94995  10.685   3.234   2.745
29516W        W94996   5.708  44.330   0.840
29517W        W94997  22.126  18.599  13.873
29518W        W94998  34.900  34.495   0.371
29519W        W94999  11.284   5.733  14.842
29520W        W95000  12.347  34.959  12.344
29521W        W95001  38.922  10.303  12.967
29522W        W95002   9.661  18.106  12.832
29523W        W95003  23.084  17.737   2.894
29524W        W95004  40.534   7.787  12.865
29525W        W95005  38.019   6.731   3.167
29526W        W95006  44.401  29.058   1.758
29527W        W95007  18.684  11.213  14.476
29528W        W95008  22.083  42.408  11.384
29529W        W95009   0.479  16.782   4.172
29530W        W95010  24.132   2.240   0.360
29531W        W95011   9.885  44.989  13.900
29532W        W95012  30.030  24.153  10.639
29533W        W95013  28.180  25.091  13.311
29534W        W95014  28.937  36.528  13.958
29535W        W95015   8.748   5.403   3.146
29536W        W95016  38.931  29.117   2.820
29537W        W95017  27.484  16.185  13.497
29538W        W95018  22.636  20.642   9.963
29539W        W95019  22.133  39.368   2.409
29540W        W95020  33.537   4.840   5.258
29541W        W95021  22.127  10.175   5.299
29542W        W95022   0.775   9.874   4.354
29543W        W95023  23.221  34.547  13.955
29544W        W95024   5.409  36.526  13.402
29545W        W95025  39.534   7.783   1.898
29546W        W95026  19.746  44.861  11.863
29547W        W95027  38.548   2.862  13.811
29548W        W95028  15.650   9.161  11.914
29549W        W95029  31.501  29.472   3.833
29550W        W95030   8.800  10.776   0.466
29551W        W95031  29.423  23.716   1.264
29552W        W95032   0.258   6.745  11.053
29553W        W95033   4.272  24.007  11.880
29554W        W95034   5.759  20.616  12.016
29555W        W95035  19.258   9.172  14.875
29556W        W95036  14.678  29.983   4.811
29557W        W95037  42.302  31.642   2.397
29558W        W95038  39.910  41.028  11.885
29559W        W95039   6.711   4.722  13.438
29560W        W95040  11.704   5.326  13.038
29561W        W95041  38.876  16.078   0.752
29562W        W95042   0.357  13.348  10.909
29563W        W95043   7.667  17.611   1.387
29564W        W95044  12.772  14.329   3.868
29565W        W95045  29.941  11.230   1.243
29566W        W95046  37.050  34.493  11.109
29567W        W95047  24.600  15.106   1.252
29568W        W95048  38.963  25.671   2.202
29569W        W95049  43.504  17.302   3.180
29570W        W95050  23.733  42.026  13.498
29571W        W95051  15.100  39.457   1.744
29572W        W95052   7.358  29.629  12.955
29573W        W95053  16.120   7.888   2.280
29574W        W95054  10.778  12.185   4.605
29575W        W95055  12.742  40.402  10.904
29576W        W95056  38.820  17.124   2.818
29577W        W95057  11.188  17.236   3.771
29578W        W95058  27.057  40.032   1.247
29579W        W95059   7.712   3.754   2.409
29580W        W95060   6.702  42.377   3.278
29581W        W95061  44.453  13.218   4.678
29582W        W95062  33.069  16.307  12.552
29583W        W95063  40.482  10.338  13.962
29584W        W95064  33.938  41.898   4.328
29585W        W95065  15.750   5.210  14.806
29586W        W95066   0.891   9.846  10.974
29587W        W95067  44.963  11.348  14.325
29588W        W95068  43.981  34.582   4.328
29589W        W95069   1.319  10.814   3.341
29590W        W95070   0.337  40.854   1.436
29591W        W95071   6.311   1.451   0.817
29592W        W95072  13.612  27.506  11.993
29593W        W95073   0.932  11.675  10.499
29594W        W95074   0.905  22.677   0.763
29595W        W95075  29.479  18.731  14.919
29596W        W95076  24.145  23.163   2.282
29597W        W95077  16.192  21.756   3.850
29598W        W95078  25.065  13.305   1.780
29599W        W95079   1.938  25.014  11.937
29600W        W95080  20.067  42.426   3.757
29601W        W95081  32.442  38.385  13.034
29602W        W95082   7.363  19.242   0.465
29603W        W95083   8.671   5.239   4.136
29604W        W95084   2.904  34.478  13.450
29605W        W95085  23.191  36.373   0.327
29606W        W95086  20.271  38.844   5.318
29607W        W95087  41.943  28.091  12.066
29608W        W95088  24.129   7.391  13.542
29609W        W95089  35.035  22.611   0.287
29610W        W95090  17.757  23.522   2.746
29611W        W95091  18.053  35.953   2.299
29612W        W95092   7.749   9.266  10.539
29613W        W95093   9.236   2.469   2.753
29614W        W95094  12.288  29.549   1.734
29615W        W95095  27.450   4.720  13.026
29616W        W95096  18.609  19.220  12.997
29617W        W95097  24.980  24.150  13.839
29618W        W95098  42.485  11.731   3.380
29619W        W95099  12.128  17.177  11.880
29620W        W95100  36.995   0.760  14.356
29621W        W95101  35.414  15.818  13.949
29622W        W95102  39.854  32.511   4.238
29623W        W95103  27.011  41.357  13.487
29624W        W95104  10.219   9.242  12.908
29625W        W95105  16.717  23.489  12.439
29626W        W95106   9.688  23.152   1.322
29627W        W95107  18.579  11.735  12.413
29628W        W95108  25.086  31.546   2.855
29629W        W95109   5.320  11.806   3.336
29630W        W95110   2.800   9.866  10.566
29631W        W95111  39.325  33.020  13.045
29632W        W95112  36.928   3.322  11.587
29633W        W95113  20.685  30.559   1.252
29634W        W95114  20.263  21.079   3.356
29635W        W95115  33.596  14.152  10.106
29636W        W95116  15.707  16.603  13.926
29637W        W95117  41.003   9.207  13.888
29638W        W95118  42.983  41.980   4.290
29639W        W95119  37.864   2.362  14.404
29640W        W95120  34.462  30.458  13.858
29641W        W95121  36.426  19.690  12.381
29642W        W95122  28.077  25.518   4.837
29643W        W95123   4.362  18.246   4.744
29644W        W95124  20.725  38.952  10.414
29645W        W95125  16.306  12.759   3.737
29646W        W95126  27.020  43.370   1.829
29647W        W95127  11.745  35.919   0.251
29648W        W95128  34.430  30.919   1.378
29649W        W95129   1.866   3.745   3.699
29650W        W95130  24.658  44.356  13.547
29651W        W95131  34.941  19.578   3.780
29652W        W95132  23.040  19.190  10.963
29653W        W95133  14.791  32.578  14.010
29654W        W95134  35.488  24.082   3.189
29655W        W95135  32.978  12.335  11.397
29656W        W95136  31.548  36.979   0.268
29657W        W95137  16.615  12.260   4.195
29658W        W95138  26.979  20.686  12.048
29659W        W95139  11.346  26.107   2.740
29660W        W95140   5.306  43.329   0.864
29661W        W95141  43.937  43.364   3.684
29662W        W95142  24.973  42.807   2.180
29663W        W95143   5.392   9.272  11.415
29664W        W95144  12.815   0.831   4.597
29665W        W95145  15.313  21.031   0.245
29666W        W95146  36.372  13.814  11.855
29667W        W95147  36.586  39.053   1.868
29668W        W95148   0.456  18.285   2.681
29669W        W95149  12.253  31.579   4.797
29670W        W95150  39.976  20.029  11.540
29671W        W95151  42.491  12.652  14.790
29672W        W95152  17.627   6.793   1.842
29673W        W95153  11.723  18.104   1.372
29674W        W95154  29.620   3.241  10.521
29675W        W95155   8.832  31.943  14.445
29676W        W95156  16.570  22.225  14.352
29677W        W95157   6.372   1.397   2.406
29678W        W95158  38.479  33.096   4.342
29679W        W95159  17.074  12.294   3.153
29680W        W95160   1.770  31.635  14.445
29681W        W95161  27.665  20.229   0.910
29682W        W95162  39.060  32.558  10.025
29683W        W95163   8.819  34.935   3.252
29684W        W95164  30.926  32.446  14.348
29685W        W95165  19.633   4.764   2.388
29686W        W95166  34.500  27.079   1.932
29687W        W95167  31.936   6.418  11.599
29688W        W95168  32.911  40.355   1.702
29689W        W95169  10.842   7.206   1.872
29690W        W95170  22.175  33.928   4.338
29691W        W95171  11.801  42.375  14.829
29692W        W95172  14.765   9.175  13.812
29693W        W95173   0.273   1.413   0.305
29694W        W95174  35.999  26.456   0.809
29695W        W95175  32.489  43.866   2.802
29696W        W95176  39.505  14.098  13.882
29697W        W95177   6.804  15.772   4.334
29698W        W95178  41.898  32.436   3.687
29699W        W95179   9.666  38.480  10.467
29700W        W95180   6.877   9.854   0.893
29701W        W95181  44.316  35.589   3.336
29702W        W95182  27.043  12.733  10.635
29703W        W95183  11.641  25.576  10.469
29704W        W95184  24.007  30.480   4.623
29705W        W95185  26.172  20.106   0.442
29706W        W95186  27.624  44.423   0.253
29707W        W95187   4.806  23.696   9.969
29708W        W95188  29.121  27.063  13.316
29709W        W95189  35.434  18.619  10.641
29710W        W95190  20.559  30.533  13.838
29711W        W95191  10.705   1.807  13.977
29712W        W95192   0.339  19.595  11.424
29713W        W95193   9.308   7.818   0.858
29714W        W95194  28.636  37.866   0.905
29715W        W95195   8.248  11.788   4.303
29716W        W95196  23.610   9.248  11.918
29717W        W95197  13.230  16.303   3.261
29718W        W95198  34.578  30.992  10.630
29719W        W95199  24.538  24.182   1.349
29720W        W95200  43.969  15.736  12.855
29721W        W95201   3.845  20.161   3.374
29722W        W95202  27.575   8.369   0.749
29723W        W95203  11.743  19.115  13.052
29724W        W95204  17.266  30.617  12.415
29725W        W95205  14.268  26.059   1.765
29726W        W95206  44.375  29.161  11.391
29727W        W95207  26.117  44.936   1.337
29728W        W95208  18.209  28.165   1.855
29729W        W95209  12.743  23.236  13.308
29730W        W95210  33.998  41.522  10.944
29731W        W95211   8.798  19.107  10.544
29732W        W95212  38.888   1.933  14.921
29733W        W95213  12.308   7.385  10.415
29734W        W95214   4.421  44.879  14.893
29735W        W95215   3.736  12.767   4.196
29736W        W95216   1.907   6.896  11.522
29737W        W95217  20.095  35.385   3.164
29738W        W95218  27.589  43.918   4.629
29739W        W95219  22.524  28.501  12.383
29740W        W95220  20.274  38.471  14.975
29741W        W95221  12.803   9.321  13.444
29742W        W95222   5.773  43.844   0.940
29743W        W95223   8.172   4.878  11.912
29744W        W95224  31.585   3.893  13.994
29745W        W95225  15.211   2.226  10.629
29746W        W95226  11.716   6.769  13.879
29747W        W95227  19.578  15.803  11.373
29748W        W95228  37.414  27.686  10.491
29749W        W95229  17.755  18.644   2.274
29750W        W95230  40.961  33.455  14.958
29751W        W95231  18.721   4.856  12.072
29752W        W95232  19.625  43.910  11.894
29753W        W95233   9.703  39.450  11.437
29754W        W95234  10.732  27.045   2.890
29755W        W95235  42.461  35.914   4.734
29756W        W95236  38.035   6.892   4.778
29757W        W95237  36.985   3.408  12.492
29758W        W95238  26.525  41.495   0.327
29759W        W95239  23.107  20.244   3.705
29760W        W95240   5.406  32.548   2.851
29761W        W95241  10.231  15.821   5.191
29762W        W95242   5.345  22.142   0.854
29763W        W95243  19.223  43.366   4.757
29764W        W95244  44.872  20.538   4.737
29765W        W95245  11.127   8.683  13.897
29766W        W95246  30.536  20.624   4.691
29767W        W95247  21.696  21.565   2.238
29768W        W95248  32.538  14.824   2.878
29769W        W95249  34.025  12.773  12.858
29770W        W95250  17.189   2.813  11.572
29771W        W95251  22.713  14.334   5.136
29772W        W95252  32.071  41.978   1.421
29773W        W95253   1.326  25.051  13.882
29774W        W95254  12.165  27.114  11.607
29775W        W95255  31.591  24.153   1.801
29776W        W95256   1.873  41.306  13.807
29777W        W95257  43.339  18.117   3.758
29778W        W95258   0.321  19.067   2.824
29779W        W95259  34.042   4.420   2.407
29780W        W95260  30.155  15.736   4.608
29781W        W95261  26.107  10.285   4.628
29782W        W95262  37.087  24.151  13.016
29783W        W95263  20.272   7.385   5.144
29784W        W95264  30.523   4.356  12.952
29785W        W95265  23.060  44.874  11.462
29786W        W95266  12.757  21.674   4.298
29787W        W95267  25.012  19.139   3.351
29788W        W95268  35.487  27.451   0.903
29789W        W95269  11.752   9.364   1.296
29790W        W95270  15.751  13.690  11.995
29791W        W95271  35.509  23.564   0.246
29792W        W95272  11.241  41.502  11.972
29793W        W95273   9.215   9.686   0.921
29794W        W95274   4.807  33.928   1.420
29795W        W95275  29.014   4.893   0.859
29796W        W95276  32.902  29.633   1.835
29797W        W95277   1.352  28.624  12.979
29798W        W95278  27.948   6.731  11.102
29799W        W95279  10.778   5.823   3.226
29800W        W95280  30.968  31.964   5.233
29801W        W95281  21.213  10.708   3.861
29802W        W95282  40.977  28.136  12.967
29803W        W95283  41.529   6.912  11.039
29804W        W95284  18.206   3.380  12.488
29805W        W95285   1.840  19.257  11.104
29806W        W95286   6.205  44.412  12.035
29807W        W95287  19.263  15.094   2.280
29808W        W95288  14.624  30.997   1.330
29809W        W95289  42.380   3.317   0.783
29810W        W95290  19.566   1.747   1.778
29811W        W95291  41.518   1.435  13.319
29812W        W95292  17.073  41.872   5.093
29813W        W95293   5.815  31.610  12.837
29814W        W95294  35.592  31.066   2.390
29815W        W95295   4.299  41.041  12.341
29816W        W95296  13.649  39.451  13.332
29817W        W95297  35.567  35.410  11.505
29818W        W95298  34.597  15.287   2.340
29819W        W95299   9.349  41.982  14.436
29820W        W95300  41.433  35.525  11.880
29821W        W95301   9.833  17.586   4.221
29822W        W95302  39.869  24.048   3.207
29823W        W95303   8.767  39.854  10.898
29824W        W95304  16.747  19.594   3.781
29825W        W95305  40.910  10.755   1.778
29826W        W95306  15.137  10.768  13.853
29827W        W95307  38.385  12.735  11.967
29828W        W95308  20.647  15.766   2.873
29829W        W95309  18.106  18.051  12.563
29830W        W95310  17.722  26.999  14.809
29831W        W95311  22.570  12.618  13.958
29832W        W95312  18.264  35.545  13.319
29833W        W95313  17.254  37.949   3.698
29834W        W95314  22.108  34.053  13.309
29835W        W95315  26.677  27.549   0.339
29836W        W95316  18.098  18.122   0.793
29837W        W95317   0.289  26.968   1.442
29838W        W95318  33.105  19.746   2.812
29839W        W95319  39.326  41.953   3.804
29840W        W95320  44.435  28.500   0.878
29841W        W95321  13.812  19.544   5.278
29842W        W95322  40.373  18.153  11.073
29843W        W95323  24.074  23.622  13.502
29844W        W95324   2.900  31.018  14.479
29845W        W95325  17.781  33.065  12.378
29846W        W95326  39.876  15.242  12.963
29847W        W95327   7.195  32.560   3.196
29848W        W95328  35.474   9.664   4.803
29849W        W95329  28.933  15.268  14.784
29850W        W95330  24.205   7.749   3.386
29851W        W95331   2.845   3.710   3.285
29852W        W95332  18.648  39.422   1.341
29853W        W95333  17.264   0.315   0.402
29854W        W95334  29.918  17.239  11.457
29855W        W95335  39.840  29.591   4.278
29856W        W95336  24.610  36.034  14.006
29857W        W95337  37.081  30.969   2.384
29858W        W95338   6.788  43.779  13.955
29859W        W95339   9.750  42.798  12.454
29860W        W95340  36.543   3.837   1.696
29861W        W95341  36.485  17.122  14.803
29862W        W95342  12.238  40.889   1.934
29863W        W95343  31.140   8.748  13.010
29864W        W95344  13.689   6.278   4.836
29865W        W95345  38.995  38.327   1.907
29866W        W95346   4.269   7.357  12.983
29867W        W95347  20.594  44.412  13.942
29868W        W95348  18.208  35.509  10.135
29869W        W95349   0.797  29.959   0.428
29870W        W95350   0.316  20.525  11.972
29871W        W95351  21.706   6.753  13.810
29872W        W95352  11.149   7.672  12.426
29873W        W95353   3.311   6.261   1.309
29874W        W95354  36.870  35.549   2.294
29875W        W95355   5.310  12.763   2.303
29876W        W95356  22.589  40.370   0.329
29877W        W95357  13.694   7.242  10.903
29878W        W95358  16.293   3.815  12.460
29879W        W95359  42.023   0.393  11.511
29880W        W95360  14.818  33.399  13.864
29881W        W95361   2.852   3.738  10.574
29882W        W95362  34.944  37.029   3.717
29883W        W95363  43.777  13.310   3.197
29884W        W95364  24.718  14.738  10.991
29885W        W95365  38.409  27.522   0.427
29886W        W95366  16.730   0.347   1.385
29887W        W95367  14.196  20.582  11.448
29888W        W95368  33.423  13.633   0.398
29889W        W95369  17.700  30.976  13.453
29890W        W95370   4.708  29.024   3.310
29891W        W95371   7.306  18.781   0.876
29892W        W95372  34.020  40.524  14.838
29893W        W95373   0.445  12.695   3.363
29894W        W95374  38.361  40.443   1.899
29895W        W95375   5.931   5.703   0.435
29896W        W95376   0.485   9.819   3.328
29897W        W95377  15.624  14.663   0.730
29898W        W95378  32.984  12.797  11.865
29899W        W95379  25.122  20.219  12.861
29900W        W95380  14.668   4.808   1.222
29901W        W95381   1.931  14.777   1.236
29902W        W95382   6.800  16.612   1.798
29903W        W95383   8.787  44.883   2.272
29904W        W95384   4.830  16.566   0.802
29905W        W95385  16.112   1.763   1.381
29906W        W95386   8.664   1.816   3.657
29907W        W95387  23.065  11.285   4.646
29908W        W95388  12.616  31.028   0.877
29909W        W95389  43.814  42.014   0.255
29910W        W95390  25.217  11.853   4.121
29911W        W95391   6.818  20.685   1.794
29912W        W95392  26.169  25.125   1.375
29913W        W95393  19.206  22.743   3.283
29914W        W95394  29.989   0.277  10.415
29915W        W95395   6.420  13.644   3.696
29916W        W95396  15.329  33.447   5.742
29917W        W95397   4.732   9.378   3.346
29918W        W95398   1.791   5.693  11.413
29919W        W95399   3.933   0.831  10.538
29920W        W95400  22.070  41.302   1.876
29921W        W95401   9.261  40.948  14.805
29922W        W95402  28.450   9.173  12.496
29923W        W95403  28.945  28.558   4.126
29924W        W95404   7.771   6.311   5.139
29925W        W95405   1.855  21.648   0.316
29926W        W95406  42.522   9.703   3.385
29927W        W95407  36.540  21.550   2.294
29928W        W95408  14.261   4.342  13.489
29929W        W95409  12.250   1.772   0.828
29930W        W95410  12.768  22.521   2.274
29931W        W95411  22.598   4.822  12.436
29932W        W95412   1.943  29.018  14.961
29933W        W95413  34.991  24.194  13.889
29934W        W95414   4.818  33.442   2.745
29935W        W95415  42.992   9.174   0.957
29936W        W95416  39.434   4.346   3.329
29937W        W95417  28.503  21.214   4.637
29938W        W95418  41.491  21.529  11.429
29939W        W95419  39.489  20.174   2.861
29940W        W95420  23.658  26.686  12.090
29941W        W95421  17.201  28.930   0.439
29942W        W95422  39.397  33.932  11.904
29943W        W95423  11.258  27.489  12.952
29944W        W95424  22.714  41.979  11.403
29945W        W95425  44.478  31.462  10.155
29946W        W95426  32.078  28.150  14.767
29947W        W95427  31.911  12.627   0.401
29948W        W95428  13.241  13.685   2.892
29949W        W95429  25.593  10.214  14.786
29950W        W95430  36.571   1.890   2.816
29951W        W95431  16.169  40.875   5.151
29952W        W95432  42.345  16.746   9.472
29953W        W95433  26.655  36.842  12.886
29954W        W95434  26.056   4.871   0.750
29955W        W95435   3.251  44.009  12.830
29956W        W95436  17.231   8.201  10.894
29957W        W95437  43.467   6.832   2.833
29958W        W95438   3.911   9.776   2.270
29959W        W95439  25.124   2.362  11.483
29960W        W95440  19.142  39.878   4.709
29961W        W95441  35.006  19.102  12.919
29962W        W95442  11.723  30.414   0.419
29963W        W95443  11.818  34.116   4.649
29964W        W95444  20.599  25.990   4.329
29965W        W95445  40.438  23.060  11.097
29966W        W95446   7.698  25.543   0.363
29967W        W95447   7.318  25.051  10.501
29968W        W95448  26.672  32.989   2.760
29969W        W95449  22.028  12.195  10.981
29970W        W95450  42.438  24.055  11.388
29971W        W95451  34.581   6.730   3.290
29972W        W95452  42.918  10.377   0.400
29973W        W95453  29.171   6.354  13.530
29974W        W95454  42.995  23.138  12.858
29975W        W95455   7.297  34.928   5.134
29976W        W95456   0.796  25.634  13.991
29977W        W95457  29.957  38.353  11.028
29978W        W95458  21.641  12.717  14.408
29979W        W95459  23.190  32.026  14.460
29980W        W95460  42.889   9.226   1.794
29981W        W95461  25.647  41.532   3.843
29982W        W95462   3.837  11.642   0.327
29983W        W95463   3.368  20.189  12.521
29984W        W95464  40.418  15.319   2.263
29985W        W95465  26.487   2.842  14.399
29986W        W95466  34.966  40.838   1.808
29987W        W95467  20.128  12.358   3.671
29988W        W95468  44.374  27.545   2.361
29989W        W95469   9.810   1.818  11.911
29990W        W95470  29.968  24.078   2.370
29991W        W95471  16.114   7.754  11.098
29992W        W95472  17.158  41.488  10.493
29993W        W95473   0.812   1.337  12.907
29994W        W95474  44.411  25.673  13.436
29995W        W95475  22.698   6.853  10.100
29996W        W95476  10.384  31.495  13.380
29997W        W95477  16.134   7.326  13.851
29998W        W95478  43.322  35.419  14.877
29999W        W95479   5.770  32.042   1.717
30000W        W95480   2.287   6.791  13.355
30001W        W95481  33.884  23.696  14.892
30002W        W95482   1.859  42.403   4.346
30003W        W95483  44.960  31.513   1.709
30004W        W95484  26.059   0.365  10.891
30005W        W95485   4.282   2.336   2.379
30006W        W95486  28.672  37.531  13.373
30007W        W95487  25.137  44.805  12.394
30008W        W95488   7.409  20.713  13.023
30009W        W95489  28.015  34.510  10.605
30010W        W95490  35.885  28.452   0.761
30011W        W95491  30.517  25.713   2.813
30012W        W95492  36.546  18.547   0.867
30013W        W95493  40.019  31.924   2.784
30014W        W95494   7.713  39.507  11.386
30015W        W95495  11.152  35.550  14.825
30016W        W95496  25.020  25.204   3.386
30017W        W95497   1.778  22.534  12.943
30018W        W95498  33.571  30.956   0.911
30019W        W95499  38.933  26.635   3.256
30020W        W95500  18.216  44.326   0.302
30021W        W95501  16.585   4.810  14.904
30022W        W95502   6.333   2.346  11.391
30023W        W95503  19.071  40.363  14.442
30024W        W95504   5.714  35.561   2.350
30025W        W95505  40.502  23.581   0.917
30026W        W95506  22.707  22.557   1.363
30027W        W95507  14.707  25.168  12.979
30028W        W95508  26.475  11.241  11.869
30029W        W95509  39.982  29.081  12.827
30030W        W95510  32.997  18.096   1.849
30031W        W95511  42.351  12.216  14.388
30032W        W95512  35.917  41.001   2.872
30033W        W95513  43.800   6.861  13.340
30034W        W95514  37.019  22.239  11.980
30035W        W95515  38.502  10.744   2.208
30036W        W95516  23.086  39.316   3.244
30037W        W95517  44.310  24.163   4.822
30038W        W95518   0.925  37.010  10.567
30039W        W95519   2.827  37.994  14.800
30040W        W95520   8.725  40.845  14.357
30041W        W95521   2.771  33.572   1.364
30042W        W95522   4.396  31.513   1.741
30043W        W95523  37.405  10.670  13.463
30044W        W95524   3.308  13.187  10.458
30045W        W95525   7.880  39.323   4.177
30046W        W95526  14.811   8.322   2.756
30047W        W95527  40.427  29.495   1.359
30048W        W95528  26.078  27.511  11.441
30049W        W95529  24.661   1.434   2.351
30050W        W95530  35.602   5.700   3.851
30051W        W95531  23.173  41.993  14.283
30052W        W95532  11.259  41.506  12.525
30053W        W95533  21.117  32.885  12.823
30054W        W95534  36.965   8.239   3.836
30055W        W95535   2.818  36.394  10.626
30056W        W95536   9.151   2.854   1.809
30057W        W95537  24.062  31.423  10.421
30058W        W95538  22.634  29.444   4.660
30059W        W95539  43.486   8.693   2.717
30060W        W95540  19.538  33.098   4.341
30061W        W95541  11.830  17.118  14.384
30062W        W95542  26.512  44.897  13.867
30063W        W95543  20.250   8.338  11.479
30064W        W95544  23.103  28.474  11.090
30065W        W95545  11.677  21.652   0.777
30066W        W95546  10.380   9.688  13.037
30067W        W95547   6.207  39.410   3.254
30068W        W95548  15.637  41.800  13.058
30069W        W95549  24.718  29.603   2.844
30070W        W95550   1.249  16.300  13.798
30071W        W95551  23.503  18.166  12.448
30072W        W95552  44.355  18.781   0.462
30073W        W95553  20.265   0.391   2.883
30074W        W95554   8.900  15.282   3.660
30075W        W95555  39.823  10.320  14.812
30076W        W95556  23.056   3.217   4.790
30077W        W95557  39.447  43.002   2.312
30078W        W95558  39.015  31.133   2.241
30079W        W95559  25.995  44.906  14.017
30080W        W95560   8.374  29.129   3.211
30081W        W95561  43.387  27.532  11.029
30082W        W95562  41.980  35.480  14.280
30083W        W95563   0.923  30.955  14.420
30084W        W95564  23.148  18.583  14.842
30085W        W95565  33.997   1.462  12.008
30086W        W95566  28.581  12.728  11.562
30087W        W95567  16.113  39.891  12.826
30088W        W95568  23.234  35.039   3.243
30089W        W95569   4.848  35.557   1.923
30090W        W95570  28.006  43.326  13.343
30091W        W95571  32.461  16.772   2.733
30092W        W95572  33.447  36.843   0.899
30093W        W95573  27.136  44.984   4.327
30094W        W95574  42.465   3.320  12.542
30095W        W95575   6.904   3.446   0.744
30096W        W95576  13.697  16.646   3.790
30097W        W95577  38.940   7.696  14.958
30098W        W95578  29.561   7.747  12.857
30099W        W95579  22.534   2.741  13.966
30100W        W95580   1.467  40.498   1.765
30101W        W95581   5.340  35.882  13.823
30102W        W95582  37.468  44.486   5.293
30103W        W95583   5.263   9.663  13.938
30104W        W95584   9.258  16.716  10.940
30105W        W95585  20.665  32.897   0.267
30106W        W95586   5.928  18.714  10.947
30107W        W95587  37.877   1.437  10.605
30108W        W95588  21.205  42.496  12.074
30109W        W95589  10.366  34.916  14.296
30110W        W95590  28.482  44.420   2.831
30111W        W95591  33.428  29.500  14.310
30112W        W95592  31.499  16.673  13.888
30113W        W95593  16.670   0.978   4.302
30114W        W95594  36.346   9.385   3.157
30115W        W95595  29.958  19.074   2.325
30116W        W95596  42.901  12.855  12.363
30117W        W95597  25.989  41.900  13.980
30118W        W95598   3.371  22.637  11.989
30119W        W95599  35.501   3.724   0.862
30120W        W95600  25.467  30.053   3.314
30121W        W95601  24.640  33.600  13.545
30122W        W95602  24.548  10.747  13.515
30123W        W95603  27.954   1.276   1.362
30124W        W95604  20.656  12.283   4.214
30125W        W95605  19.597   3.306   0.744
30126W        W95606  27.062  36.854   3.729
30127W        W95607  14.224  31.963  11.575
30128W        W95608  35.886  30.928  10.514
30129W        W95609  34.583  23.597  14.505
30130W        W95610  40.377  10.152  13.370
30131W        W95611   9.830  14.760   0.404
30132W        W95612  24.571  17.734  13.425
30133W        W95613  43.854   1.470  10.525
30134W        W95614  21.093  40.335   2.779
30135W        W95615   7.844  10.656   4.722
30136W        W95616  24.536  31.037  14.482
30137W        W95617  44.998  25.516   3.784
30138W        W95618  24.625  26.538   3.688
30139W        W95619  23.720  20.715   4.782
30140W        W95620  18.619  25.191  13.542
30141W        W95621  16.796  33.567   4.744
30142W        W95622  23.034  18.580   3.299
30143W        W95623  37.352  22.059   3.211
30144W        W95624   7.334  15.603   3.652
30145W        W95625  29.014  14.163   0.760
30146W        W95626  18.104  32.931  14.886
30147W        W95627  39.874   6.901   4.273
30148W        W95628  23.241  30.614  14.339
30149W        W95629  16.188  15.631  11.542
30150W        W95630  17.568   4.317   4.611
30151W        W95631  32.020   0.931  12.453
30152W        W95632  21.719  34.937   0.867
30153W        W95633  15.317  37.027   0.340
30154W        W95634  14.700  20.677  14.984
30155W        W95635  34.591  15.187   3.697
30156W        W95636  34.390  39.949   2.681
30157W        W95637   1.815  33.388  12.932
30158W        W95638  37.017  23.097  11.543
30159W        W95639  17.630   7.416  12.848
30160W        W95640  15.799   9.273   1.770
30161W        W95641  37.382  42.516   3.266
30162W        W95642  41.022  28.033   3.358
30163W        W95643  18.121  30.557   1.788
30164W        W95644  25.584  44.454   2.876
30165W        W95645  32.132  30.610  14.942
30166W        W95646  18.251  30.133   1.914
30167W        W95647  26.030  20.717  11.468
30168W        W95648  25.570  38.444  14.961
30169W        W95649  14.173  28.509  13.312
30170W        W95650  35.904  22.508   3.742
30171W        W95651  10.234  13.710   3.377
30172W        W95652   8.735  44.347  11.067
30173W        W95653   0.447  44.874  10.607
30174W        W95654  35.932   3.387   0.889
30175W        W95655   8.778  36.567  11.959
30176W        W95656  34.911  29.059   3.219
30177W        W95657   3.220  16.749   1.331
30178W        W95658  19.207  28.662   5.622
30179W        W95659  24.152  15.167   0.794
30180W        W95660  31.455  37.417  11.595
30181W        W95661  12.763  44.494  14.383
30182W        W95662  30.618   9.744  13.974
30183W        W95663  44.866   1.462   2.870
30184W        W95664  31.121  34.098   2.297
30185W        W95665  24.138  22.013   3.225
30186W        W95666  22.711   1.801   3.754
30187W        W95667  39.477  24.975  11.504
30188W        W95668   8.750   6.239   1.251
30189W        W95669  26.551  26.558  12.028
30190W        W95670   8.291   3.268   1.878
30191W        W95671  27.510  43.433   2.692
30192W        W95672   0.290  28.477   4.198
30193W        W95673   4.432  25.510   0.268
30194W        W95674  30.010  44.907   0.294
30195W        W95675  34.912  34.910   2.258
30196W        W95676  18.573   1.760  12.835
30197W        W95677  18.557  37.947  13.997
30198W        W95678   6.846  14.150   1.412
30199W        W95679  30.539  23.118   1.719
30200W        W95680   4.325  10.371   3.839
30201W        W95681  43.438   4.320  10.512
30202W        W95682  32.563   2.957   1.803
30203W        W95683   3.448  17.108   3.690
30204W        W95684  23.123   9.378   2.247
30205W        W95685  39.394  23.639  11.047
30206W        W95686  13.736   7.294   3.225
30207W        W95687  38.903  29.461  14.389
30208W        W95688  23.663  24.103   4.734
30209W        W95689  33.427   8.685  10.076
30210W        W95690  13.626  11.187   3.809
30211W        W95691   5.343  38.862  14.362
30212W        W95692  41.871  44.498  11.547
30213W        W95693  26.207  17.162   2.763
30214W        W95694  13.707  32.493   3.702
30215W        W95695  15.122  25.602  14.500
30216W        W95696   8.241  42.856  13.935
30217W        W95697  29.000  30.545   1.332
30218W        W95698  16.711  19.757  11.014
30219W        W95699  44.947  39.939  14.306
30220W        W95700   9.248  18.099   2.327
30221W        W95701   1.914   0.310   0.797
30222W        W95702   2.902  32.522   3.351
30223W        W95703  27.536   0.411   1.451
30224W        W95704  23.200  26.606  14.344
30225W        W95705  33.624  32.998  11.394
30226W        W95706  38.326  28.534  10.605
30227W        W95707  33.557   9.842   0.773
30228W        W95708  23.617  32.523   3.853
30229W        W95709  12.729  29.975   4.136
30230W        W95710  12.153  15.819   2.899
30231W        W95711  36.863  13.112   2.729
30232W        W95712  22.061  36.531   1.213
30233W        W95713  38.435  23.677  11.874
30234W        W95714  32.913  26.124  13.453
30235W        W95715  41.335  12.326   2.831
30236W        W95716  41.349  12.169   0.958
30237W        W95717   4.782   0.340   2.261
30238W        W95718  18.108   5.409   0.304
30239W        W95719  30.491  31.117   4.277
30240W        W95720  32.075  37.378  13.495
30241W        W95721  13.805  29.543  11.424
30242W        W95722   0.926  31.613  10.526
30243W        W95723  42.998   6.357   4.293
30244W        W95724  17.306  28.579  11.372
30245W        W95725   7.315  31.039   4.158
30246W        W95726  39.457   9.237   0.427
30247W        W95727  19.056  40.900  14.869
30248W        W95728  29.562  42.920  10.985
30249W        W95729  35.856  15.650   1.294
30250W        W95730  23.131   1.319   5.605
30251W        W95731  28.583  21.205  13.832
30252W        W95732   5.249   5.843   4.337
30253W        W95733  29.156  41.322   2.184
30254W        W95734  29.104  44.873   1.922
30255W        W95735  31.978  41.995  14.002
30256W        W95736   1.948  22.194   3.255
30257W        W95737  35.980  41.421   4.153
30258W        W95738  10.722  34.949   0.945
30259W        W95739  18.687  25.101  14.878
30260W        W95740  26.144  25.188  11.440
30261W        W95741  27.082  35.567   0.244
30262W        W95742  20.168  30.083  12.848
30263W        W95743   4.367  21.116  12.486
30264W        W95744  39.470  25.502  12.890
30265W        W95745   0.878   4.844   4.177
30266W        W95746   3.865  37.453   1.376
30267W        W95747  44.791  10.178   2.351
30268W        W95748   9.310  12.122  11.922
30269W        W95749  37.451  43.472   3.682
30270W        W95750  31.932   2.791  11.044
30271W        W95751   7.362   7.778  13.459
30272W        W95752   3.834  35.493  13.372
30273W        W95753  14.236  30.950   0.260
30274W        W95754  13.722  30.061   3.230
30275W        W95755  33.461  19.686  12.895
30276W        W95756   1.759  40.824   4.242
30277W        W95757  39.041   8.747   4.265
30278W        W95758  34.015  30.931   0.365
30279W        W95759  23.605  30.963   0.403
30280W        W95760  39.966  17.663  12.412
30281W        W95761  35.411  43.930   2.857
30282W        W95762  18.275  15.234   4.183
30283W        W95763   5.436  13.602  10.937
30284W        W95764   1.920  33.016  10.135
30285W        W95765  27.456   7.870  10.628
30286W        W95766  43.424  36.026  13.874
30287W        W95767  27.098   2.399   4.313
30288W        W95768  35.457   8.707  10.621
30289W        W95769  18.174  28.005  13.324
30290W        W95770  39.483  11.328  13.907
30291W        W95771  26.601  29.556   2.324
30292W        W95772  12.762  41.934  11.476
30293W        W95773  42.496  16.190   2.668
30294W        W95774  30.987  24.721   0.779
30295W        W95775  11.322  26.507   1.250
30296W        W95776   8.217   7.786  14.346
30297W        W95777   8.746  34.575   0.429
30298W        W95778  30.502   1.973  13.311
30299W        W95779  23.106  37.025   3.708
30300W        W95780  16.094  36.507  13.511
30301W        W95781  10.169   5.253   2.751
30302W        W95782  25.099   1.892  13.997
30303W        W95783  15.208  15.776  12.561
30304W        W95784  16.162  26.184  11.498
30305W        W95785  17.577  38.870  11.898
30306W        W95786  18.745  24.193  11.918
30307W        W95787  32.918  28.473   4.772
30308W        W95788  37.503  15.192  14.496
30309W        W95789  28.979  11.793   4.632
30310W        W95790   7.328  29.563   2.810
30311W        W95791   2.280  16.127   3.172
30312W        W95792  36.848  21.197   1.257
30313W        W95793  16.771  16.604   2.881
30314W        W95794  18.291  37.994  11.082
30315W        W95795  40.872  10.255   0.331
30316W        W95796  30.528  27.051  14.426
30317W        W95797  37.494  16.800   1.877
30318W        W95798  37.916   4.429   2.898
30319W        W95799  30.449  20.544  13.011
30320W        W95800  39.924  37.899  11.958
30321W        W95801   8.770  14.297   0.902
30322W        W95802  39.809  25.201  14.499
30323W        W95803  42.473   9.383  14.414
30324W        W95804  29.099  25.979   1.392
30325W        W95805   7.844  27.016  13.489
30326W        W95806  36.911  42.870   2.394
30327W        W95807  42.438  15.185   4.121
30328W        W95808  43.941  40.337   3.338
30329W        W95809  33.577  26.026   4.237
30330W        W95810  10.274  41.932   4.685
30331W        W95811  25.587  35.554  10.557
30332W        W95812  20.759  20.751   4.803
30333W        W95813   3.872   7.341   4.208
30334W        W95814  28.576  20.216  10.889
30335W        W95815  14.762  17.599  11.381
30336W        W95816  27.085  29.552   1.882
30337W        W95817   7.875  30.653   1.420
30338W        W95818  29.593  10.820   3.265
30339W        W95819  43.870  40.967  14.806
30340W        W95820  27.967  12.713   1.330
30341W        W95821  13.314  30.585   5.303
30342W        W95822  33.598  31.121  12.455
30343W        W95823  16.577  19.061   0.744
30344W        W95824   5.700  39.871   4.777
30345W        W95825   3.863   8.233   3.744
30346W        W95826   4.897  30.989  14.802
30347W        W95827  19.776  42.436   3.776
30348W        W95828   7.887  11.833  10.902
30349W        W95829  13.804  17.658   2.752
30350W        W95830  20.663  35.395   0.378
30351W        W95831  38.408   3.727  11.884
30352W        W95832  42.519  36.010   3.245
30353W        W95833  17.201  38.886  11.059
30354W        W95834  33.537  40.944  13.432
30355W        W95835  11.743  42.519  14.429
30356W        W95836  21.757  29.563  13.961
30357W        W95837  38.482  41.010   1.871
30358W        W95838   1.365   7.897  14.473
30359W        W95839  44.962  42.920  14.826
30360W        W95840  43.770  27.686  13.496
30361W        W95841  29.528  11.674   1.863
30362W        W95842  39.851  24.613  11.609
30363W        W95843  40.805   1.436   1.296
30364W        W95844  23.128  27.151   2.730
30365W        W95845  34.887  42.951  14.964
30366W        W95846  25.215  12.685   3.152
30367W        W95847   6.253  17.296  14.941
30368W        W95848  24.557  15.323   2.683
30369W        W95849  28.105  34.593  12.454
30370W        W95850  32.393  38.518  11.601
30371W        W95851  42.942  23.054   3.838
30372W        W95852   9.189  10.317   4.774
30373W        W95853   1.382   3.271  12.083
30374W        W95854  34.071   4.431   0.251
30375W        W95855  35.988  24.615  14.460
30376W        W95856  42.850  30.064  13.837
30377W        W95857  11.350  15.687  14.898
30378W        W95858  34.012  44.904   1.321
30379W        W95859  32.392  44.811   3.732
30380W        W95860  16.115  32.533   3.762
30381W        W95861  15.781   7.889   0.796
30382W        W95862  18.786  22.676   1.760
30383W        W95863  24.087  22.157   2.250
30384W        W95864  33.482  44.466   4.344
30385W        W95865  40.879  35.569  11.511
30386W        W95866  27.977  42.954  13.388
30387W        W95867  17.197  15.120   2.674
30388W        W95868   3.921  41.952   4.250
30389W        W95869  18.061  24.003   1.349
30390W        W95870  16.256  29.027  11.464
30391W        W95871  23.690  20.587  11.013
30392W        W95872  28.567  33.460  13.470
30393W        W95873  38.004   1.389  14.971
30394W        W95874  35.014   7.791   0.270
30395W        W95875  17.098  11.740   1.337
30396W        W95876   7.761  36.857  11.050
30397W        W95877   0.872  10.147  11.964
30398W        W95878  10.731  38.840  11.063
30399W        W95879  27.663  24.077  12.417
30400W        W95880  28.182   0.778   5.229
30401W        W95881  40.540  35.967  13.388
30402W        W95882  18.545  10.710  14.846
30403W        W95883   8.381   2.263   3.707
30404W        W95884   0.805   8.342   1.347
30405W        W95885   9.239   4.706  14.286
30406W        W95886  36.886   7.679   0.766
30407W        W95887  26.673  37.979  11.885
30408W        W95888   6.216  44.926  13.334
30409W        W95889   3.270  38.853  11.518
30410W        W95890   3.873  18.744   1.420
30411W        W95891  39.810  41.931  11.980
30412W        W95892  39.996  15.168  14.459
30413W        W95893  16.249  26.532  14.363
30414W        W95894  37.915  23.146  13.499
30415W        W95895   6.413  15.814   0.307
30416W        W95896  13.145   5.419   0.817
30417W        W95897  37.356  44.304  13.490
30418W        W95898  20.134  25.963   3.317
30419W        W95899  16.220   4.869   1.349
30420W        W95900  11.137  32.574   2.808
30421W        W95901  28.597  42.920   2.755
30422W        W95902  20.685  11.625   0.912
30423W        W95903   3.852  13.202   0.904
30424W        W95904  37.571  35.597  12.050
30425W        W95905  43.455  16.609   1.285
30426W        W95906  28.606   5.805  11.053
30427W        W95907  17.570  10.212   2.418
30428W        W95908  40.812  43.403   3.762
30429W        W95909  20.571  28.589   3.666
30430W        W95910  11.849  35.872   1.253
30431W        W95911  25.115  11.240   4.278
30432W        W95912   4.837  33.497   1.881
30433W        W95913  15.273  43.305  10.058
30434W        W95914  38.948  14.781   2.379
30435W        W95915  42.411  31.952  12.964
30436W        W95916  42.378  35.098   2.208
30437W        W95917  19.698  38.838  14.928
30438W        W95918   1.743   7.300  12.559
30439W        W95919  38.337   8.208   0.400
30440W        W95920   9.335  28.127   4.198
30441W        W95921  37.892  20.694  11.583
30442W        W95922  26.665  21.734  12.063
30443W        W95923  36.434  33.460   4.341
30444W        W95924  17.655  33.075  13.973
30445W        W95925  29.096  28.617  10.913
30446W        W95926  41.846  22.047   1.745
30447W        W95927   7.311  16.183  12.880
30448W        W95928  19.670  35.438  12.081
30449W        W95929  34.465  39.316   3.748
30450W        W95930   8.216   4.835  14.002
30451W        W95931  16.606  26.461  11.380
30452W        W95932  39.863  21.631  10.986
30453W        W95933  31.530   7.896  12.906
30454W        W95934  16.185  35.598  14.793
30455W        W95935   1.904  34.443   4.278
30456W        W95936  41.951  36.418   2.735
30457W        W95937  33.017  15.220  11.120
30458W        W95938   8.191   0.752   0.771
30459W        W95939  30.136  13.266   3.365
30460W        W95940  39.832  42.298   4.127
30461W        W95941  38.019  39.427   1.227
30462W        W95942  25.561  22.613  12.854
30463W        W95943   2.952  20.094   3.750
30464W        W95944  24.131   8.162  12.340
30465W        W95945  23.693  34.036   0.410
30466W        W95946  23.725  17.200  10.912
30467W        W95947  44.870  34.505  10.558
30468W        W95948  40.456  29.056   2.183
30469W        W95949  24.703  32.421  12.068
30470W        W95950  39.952  12.754   2.895
30471W        W95951  38.367  15.802   4.653
30472W        W95952  20.135  13.299   2.369
30473W        W95953  21.563  25.531  13.309
30474W        W95954  28.074  43.399  13.930
30475W        W95955  31.999  12.655  14.973
30476W        W95956   5.193   9.275  11.011
30477W        W95957   2.369  14.622   2.901
30478W        W95958  42.350  25.108  10.476
30479W        W95959  37.515  12.219  12.560
30480W        W95960  30.458  18.206  14.440
30481W        W95961  39.347  15.772  13.868
30482W        W95962  42.897  43.435   3.868
30483W        W95963   1.938  36.927   4.708
30484W        W95964   1.939  15.260   4.695
30485W        W95965  13.144  41.521  11.015
30486W        W95966   2.340  30.103   2.383
30487W        W95967  22.661  43.971  11.031
30488W        W95968   6.357  35.526  13.882
30489W        W95969  28.470  11.307  13.947
30490W        W95970  20.752  40.840   3.237
30491W        W95971   5.366  25.554  12.898
30492W        W95972   6.780  16.134   1.282
30493W        W95973  21.700  18.683   3.657
30494W        W95974  15.710   0.402   3.669
30495W        W95975  24.532  10.766  11.585
30496W        W95976   9.191  19.284   3.840
30497W        W95977   5.426  38.449   4.173
30498W        W95978   5.383  34.551  11.061
30499W        W95979  34.899  37.037  13.986
30500W        W95980  21.737  30.054   4.714
30501W        W95981  18.667  16.196   3.691
30502W        W95982  32.613   0.253   3.654
30503W        W95983   7.702   4.413   0.877
30504W        W95984   6.267   4.905  13.913
30505W        W95985  42.943  26.122   4.272
30506W        W95986  43.311  30.611  11.100
30507W        W95987  30.970  26.133   4.326
30508W        W95988  43.349  23.168   4.200
30509W        W95989   1.313  31.600   1.827
30510W        W95990  14.727  27.488  12.391
30511W        W95991  20.138   1.242   0.821
30512W        W95992  30.038  15.103   0.826
30513W        W95993  14.331   1.768   3.336
30514W        W95994  15.207  18.052  14.514
30515W        W95995  27.658   9.816   0.356
30516W        W95996   3.370  27.477   2.350
30517W        W95997  44.404  12.641   2.376
30518W        W95998   8.190  39.559   4.231
30519W        W95999  43.331  28.664   3.307
30520W        W96000   9.157  12.166   3.838
30521W        W96001  14.216   6.415  12.415
30522W        W96002  11.866  15.214  12.397
30523W        W96003  22.587  29.573   0.290
30524W        W96004  42.464  42.782  11.517
30525W        W96005   9.759  15.264  14.965
30526W        W96006  13.252  11.304  14.290
30527W        W96007  32.101  19.573   3.802
30528W        W96008  43.419  44.794  11.075
30529W        W96009  44.386  35.562   0.917
30530W        W96010  17.259  41.396  12.376
30531W        W96011  44.986   0.275   4.665
30532W        W96012  18.119   7.255  13.952
30533W        W96013   9.382  12.690   9.942
30534W        W96014  33.547  11.657   3.752
30535W        W96015  41.981  29.554  10.559
30536W        W96016  29.446  30.610   2.872
30537W        W96017   2.966   2.803  11.483
30538W        W96018  44.993  31.970   1.918
30539W        W96019  22.611  23.549  14.814
30540W        W96020  15.821  26.165   2.877
30541W        W96021   0.892   0.950   2.342
30542W        W96022  27.950  40.513   1.817
30543W        W96023   8.261  41.827  11.439
30544W        W96024  35.527  41.507   2.890
30545W        W96025  33.108  36.858   3.186
30546W        W96026  15.794  21.241  10.470
30547W        W96027  34.901   0.414   3.744
30548W        W96028  26.484  38.883   5.272
30549W        W96029  19.046   2.760   4.206
30550W        W96030  12.729  29.138   0.914
30551W        W96031  32.612  12.174   2.411
30552W        W96032   3.712   9.744   3.774
30553W        W96033   1.973   3.805  14.308
30554W        W96034  30.416  40.476  12.049
30555W        W96035  36.965  16.241   3.804
30556W        W96036  28.536  16.606  12.438
30557W        W96037  17.606  33.007   1.377
30558W        W96038  11.167  21.540  11.482
30559W        W96039  39.466  31.937   0.323
30560W        W96040  37.038  20.203   0.244
30561W        W96041  17.263  10.278   3.215
30562W        W96042  24.051  32.465  13.850
30563W        W96043   4.215  30.956   4.173
30564W        W96044  43.011  13.328   2.723
30565W        W96045  32.899  40.516  11.427
30566W        W96046  24.640  21.700  14.438
30567W        W96047  34.063   1.347  14.936
30568W        W96048   7.273   1.278  11.896
30569W        W96049  40.349  38.531  11.904
30570W        W96050  28.975  38.931   0.360
30571W        W96051  34.522  31.974  12.976
30572W        W96052  34.056  40.868   1.754
30573W        W96053  44.281   3.251  14.444
30574W        W96054  29.003   3.731  11.001
30575W        W96055  38.509  39.436   1.933
30576W        W96056  15.222  25.066  14.975
30577W        W96057  37.973   0.837  11.425
30578W        W96058   6.823  38.959  11.472
30579W        W96059  44.995  10.659  12.070
30580W        W96060   0.462  28.463   4.775
30581W        W96061   3.357  11.701   1.858
30582W        W96062  42.886  41.825  12.493
30583W        W96063  23.561  20.559  11.567
30584W        W96064  44.791  20.738  12.038
30585W        W96065  25.516  10.301   2.199
30586W        W96066   0.782  35.937  11.432
30587W        W96067  41.934   2.748  12.383
30588W        W96068  34.584  11.623   2.207
30589W        W96069  37.408   4.315   4.806
30590W        W96070  28.044  10.314   3.219
30591W        W96071  27.171  17.109   1.281
30592W        W96072  30.605  43.490  14.862
30593W        W96073  27.955   4.427  12.866
30594W        W96074  43.323  30.589  11.976
30595W        W96075  15.194  21.623  10.967
30596W        W96076  41.484  41.846  12.579
30597W        W96077  22.688  13.116   0.458
30598W        W96078  12.702  31.034   1.369
30599W        W96079  10.292  33.430   0.761
30600W        W96080  13.291   7.391  14.794
30601W        W96081  16.265  41.828   2.686
30602W        W96082  42.827  11.677  13.523
30603W        W96083   9.791  38.361   4.680
30604W        W96084   3.408  24.119  14.381
30605W        W96085   0.831  38.424  14.362
30606W        W96086  42.356  17.663  11.947
30607W        W96087  17.137  11.856   3.257
30608W        W96088  36.407  42.785  11.570
30609W        W96089  31.942  14.743   0.964
30610W        W96090  38.507   1.863  14.506
30611W        W96091  31.524  10.654  13.865
30612W        W96092  31.928   8.674  12.928
30613W        W96093  28.621   3.849  13.339
30614W        W96094  19.700  18.622  11.109
30615W        W96095  21.645   6.313  10.092
30616W        W96096  41.328   8.309  13.991
30617W        W96097   3.908  13.743  14.285
30618W        W96098  14.225  18.246  13.895
30619W        W96099   6.778  33.418   3.862
30620W        W96100  39.372  34.446  13.476
30621W        W96101  33.968  38.005   1.315
30622W        W96102  42.873  33.960  11.031
30623W        W96103  26.958  37.353   0.408
30624W        W96104  42.970   3.921  11.554
30625W        W96105   3.403  11.696  13.387
30626W        W96106  28.550   1.245   4.287
30627W        W96107   0.802  12.722  10.045
30628W        W96108  25.057  16.205   1.404
30629W        W96109  25.515  23.717   9.955
30630W        W96110  17.090  23.192  12.426
30631W        W96111  33.007  12.298   1.800
30632W        W96112  10.346   7.813   3.718
30633W        W96113   2.404  25.551   4.773
30634W        W96114   4.762  29.088   1.884
30635W        W96115  32.921  20.252   4.175
30636W        W96116  16.116  41.441  14.278
30637W        W96117  35.553  38.955   3.154
30638W        W96118  23.011  14.161  10.519
30639W        W96119  14.173  28.071   1.856
30640W        W96120   1.877  36.942  14.422
30641W        W96121  41.820  22.535   4.199
30642W        W96122  44.434  32.895   4.779
30643W        W96123  43.479  43.908  13.801
30644W        W96124  30.541   2.260   3.760
30645W        W96125  28.550  44.791  12.415
30646W        W96126  32.483  35.567   4.825
30647W        W96127  29.983  10.320  12.045
30648W        W96128  10.360  23.554  11.460
30649W        W96129   4.909  30.562  14.295
30650W        W96130  24.588  35.417  14.449
30651W        W96131  41.867   2.445   4.261
30652W        W96132   5.234   6.304   2.721
30653W        W96133  35.945  25.598   5.144
30654W        W96134  26.105  34.897   4.615
30655W        W96135  33.531  37.358  14.884
30656W        W96136   1.942  15.230   1.359
30657W        W96137  40.456  43.821  12.908
30658W        W96138  23.118  44.893   2.246
30659W        W96139   6.917  19.727   1.378
30660W        W96140   6.227  44.320  10.901
30661W        W96141   7.909  32.910  13.990
30662W        W96142  26.669  39.492  11.947
30663W        W96143  42.893  15.621  12.055
30664W        W96144  31.460  43.284  11.449
30665W        W96145  20.656  23.617   2.354
30666W        W96146  14.339  17.195   3.381
30667W        W96147   2.357  34.083  14.503
30668W        W96148  40.376  19.130  12.890
30669W        W96149  24.589  30.004  13.800
30670W        W96150  26.493  11.862   3.274
30671W        W96151  26.075  13.318  12.090
30672W        W96152  37.353  31.473   0.759
30673W        W96153  34.958  24.674   3.165
30674W        W96154  18.253   2.927   4.192
30675W        W96155  16.192  17.754  13.064
30676W        W96156  31.899  23.206  10.429
30677W        W96157  21.536  22.655   3.173
30678W        W96158  16.717  44.478  12.898
30679W        W96159  25.603   7.211  13.844
30680W        W96160  11.798  15.641  14.499
30681W        W96161  33.035  10.300   4.296
30682W        W96162  31.049  32.987  13.042
30683W        W96163   5.354  30.557   2.373
30684W        W96164  42.987  44.901   3.653
30685W        W96165  17.242  23.603   0.827
30686W        W96166  10.363  19.177  10.586
30687W        W96167  24.113  19.689  13.384
30688W        W96168  34.089   1.791   0.378
30689W        W96169  17.084  39.054  13.400
30690W        W96170   8.242   2.250   1.909
30691W        W96171  14.201  17.275   0.395
30692W        W96172  12.306  34.083   4.348
30693W        W96173   5.851  33.417   3.738
30694W        W96174  11.780  31.581   0.845
30695W        W96175  25.203   3.802   3.800
30696W        W96176  44.377  27.975  13.921
30697W        W96177  40.866  35.422  12.493
30698W        W96178  19.734  34.372  14.980
30699W        W96179  38.027  30.039   4.713
30700W        W96180   2.875  17.574   1.365
30701W        W96181   2.384   7.396  10.617
30702W        W96182   5.222  25.471   4.347
30703W        W96183  21.128  24.712  14.893
30704W        W96184   2.397  20.253   3.346
30705W        W96185  38.423  10.355  11.022
30706W        W96186   4.327   4.444  14.784
30707W        W96187  39.839  43.897  13.050
30708W        W96188   4.398   6.686   3.256
30709W        W96189  32.929  21.696   3.245
30710W        W96190  30.451  13.264   4.832
30711W        W96191  17.643   9.330   3.854
30712W        W96192  25.653  21.098   0.287
30713W        W96193  27.498   7.785   3.296
30714W        W96194  28.952  41.457   4.291
30715W        W96195  16.238  19.081   0.854
30716W        W96196  19.644  32.996  11.467
30717W        W96197  30.507  44.348   3.340
30718W        W96198   6.314  41.323   4.295
30719W        W96199  36.571  30.987  14.013
30720W        W96200  41.464  28.467  10.981
30721W        W96201  39.322   1.477  11.935
30722W        W96202  34.469  32.603  11.490
30723W        W96203  18.241  19.144  12.964
30724W        W96204  31.102  41.999   5.095
30725W        W96205  21.194  15.086  12.365
30726W        W96206  32.507  21.142  13.322
30727W        W96207  23.630  17.778   2.761
30728W        W96208   1.738  34.898   0.814
30729W        W96209  25.111  32.447  12.860
30730W        W96210  20.728  22.706   0.392
30731W        W96211   9.238  32.128  13.030
30732W        W96212  34.108  38.977   3.801
30733W        W96213  41.445  35.588   3.322
30734W        W96214  34.976  37.936   1.235
30735W        W96215  16.778   8.356   2.816
30736W        W96216  32.108   4.403   0.842
30737W        W96217   4.240  18.591  14.882
30738W        W96218  12.345   0.449  14.883
30739W        W96219  17.705  41.326  13.834
30740W        W96220  38.373  26.159  10.610
30741W        W96221  22.655  16.155  14.513
30742W        W96222  21.214  37.937   1.794
30743W        W96223  15.703  32.459  14.844
30744W        W96224  13.797  43.021  13.899
30745W        W96225  35.934  39.003  14.767
30746W        W96226   8.324  18.140   3.730
30747W        W96227  11.218   1.242  14.893
30748W        W96228  44.272  40.909   2.717
30749W        W96229  10.255  32.140   2.365
30750W        W96230  21.548  44.901   0.318
30751W        W96231  36.975  10.211   1.315
30752W        W96232  17.278  42.775  13.321
30753W        W96233  22.076   4.321   2.334
30754W        W96234   1.896   5.245  11.986
30755W        W96235  30.155  26.651  13.401
30756W        W96236  12.206  13.833  14.382
30757W        W96237  41.536   3.904  10.117
30758W        W96238  40.547  27.459   2.696
30759W        W96239  20.654  26.036   1.715
30760W        W96240   7.261  16.219   3.871
30761W        W96241  12.851  38.915   0.894
30762W        W96242  15.753  14.619  14.995
30763W        W96243  16.781   7.709  10.567
30764W        W96244   1.340   3.954   4.262
30765W        W96245  25.994  10.792  14.396
30766W        W96246   9.373  22.216  12.419
30767W        W96247  16.569  22.122   4.185
30768W        W96248   6.202  19.780  10.615
30769W        W96249  31.442   3.752  12.987
30770W        W96250   7.812  32.099  14.978
30771W        W96251  21.205  19.625   1.332
30772W        W96252  24.031  26.196  12.912
30773W        W96253   0.832  36.959   3.841
30774W        W96254  34.432  14.285   4.115
30775W        W96255   3.897  11.335   2.886
30776W        W96256   8.190  23.643   2.787
30777W        W96257  11.673  35.466  12.513
30778W        W96258  38.488  23.142   4.168
30779W        W96259  41.025  26.652   2.413
30780W        W96260  17.596  36.990  14.426
30781W        W96261  42.329  40.005   0.780
30782W        W96262  44.757  28.552   4.265
30783W        W96263  17.631  30.973  14.761
30784W        W96264  20.232  13.228  11.499
30785W        W96265  15.774  26.536   1.219
30786W        W96266  28.468  22.119  14.874
30787W        W96267  31.638  42.368   2.707
30788W        W96268  31.633  31.956   2.223
30789W        W96269   3.219  23.067  12.094
30790W        W96270  28.566   5.886  14.409
30791W        W96271  28.176  26.144   3.758
30792W        W96272  15.819  32.135   1.820
30793W        W96273  41.904   1.913   4.683
30794W        W96274   3.758   6.182   1.345
30795W        W96275  41.399   1.384   0.902
30796W        W96276  17.753  19.213  10.912
30797W        W96277  23.188  42.008  14.873
30798W        W96278  34.880  14.189  14.944
30799W        W96279  39.374  20.587   2.893
30800W        W96280   9.298  14.245  13.364
30801W        W96281  28.077  30.977  10.920
30802W        W96282  10.323  27.518   3.822
30803W        W96283  41.031  16.612  11.556
30804W        W96284  27.001  41.330   3.766
30805W        W96285  44.389  30.528   2.903
30806W        W96286  23.099  12.219  14.886
30807W        W96287  11.734  32.096  14.415
30808W        W96288  36.910  29.966  10.621
30809W        W96289  32.895  35.859   1.381
30810W        W96290  10.785  24.205   1.410
30811W        W96291  30.100  28.593  14.863
30812W        W96292  27.968  38.359  11.545
30813W        W96293  25.612   0.782  13.867
30814W        W96294  37.388  22.566  12.542
30815W        W96295  19.283  22.165  13.992
30816W        W96296   6.824  33.939   2.670
30817W        W96297  20.249  44.397  14.820
30818W        W96298  17.778   5.735  14.515
30819W        W96299  17.178  17.796   2.778
30820W        W96300  27.672  10.797   3.782
30821W        W96301  35.008   3.714  10.906
30822W        W96302  44.475  18.755   1.262
30823W        W96303  37.454  32.925  12.562
30824W        W96304   0.969  12.331   2.705
30825W        W96305  21.237  27.534   1.891
30826W        W96306  29.543  12.330   4.735
30827W        W96307   2.962  24.654   1.823
30828W        W96308  15.657  21.574  12.546
30829W        W96309  23.572  30.935  11.027
30830W        W96310   7.295  13.314  13.882
30831W        W96311   5.923  40.414  14.897
30832W        W96312   1.268  39.326  14.464
30833W        W96313  41.415  44.262  14.940
30834W        W96314   4.871  28.057   1.772
30835W        W96315  40.403   5.238  11.557
30836W        W96316  37.549   2.238   4.803
30837W        W96317  34.059  42.806  12.462
30838W        W96318  33.526  33.539  11.885
30839W        W96319   8.225  28.011  13.449
30840W        W96320  10.783  38.434   2.868
30841W        W96321  18.268  17.227  11.125
30842W        W96322  36.393   7.403   4.294
30843W        W96323  35.453  41.002  12.031
30844W        W96324  12.221  28.529   3.869
30845W        W96325  23.535   9.332   0.477
30846W        W96326  23.056   8.184   0.859
30847W        W96327  27.575  25.064  13.384
30848W        W96328  13.680  16.124  13.824
30849W        W96329  41.930  25.053   2.264
30850W        W96330  22.560  41.817  12.360
30851W        W96331  23.685   1.784   2.875
30852W        W96332  15.742  12.337  12.455
30853W        W96333  35.052  13.228   1.302
30854W        W96334  36.439  14.788   1.784
30855W        W96335  42.781  26.983   1.315
30856W        W96336  28.052   5.931  11.939
30857W        W96337  39.350  32.945  10.494
30858W        W96338   8.851  24.508   0.348
30859W        W96339  17.557  19.700  11.383
30860W        W96340  35.440  10.309   2.272
30861W        W96341  36.484  35.878   0.252
30862W        W96342  13.128  30.597   4.205
30863W        W96343   5.925  20.128   2.795
30864W        W96344  43.786  15.592  12.373
30865W        W96345  22.684   9.279  11.608
30866W        W96346   6.682  36.845  13.039
30867W        W96347   5.886  12.235   2.369
30868W        W96348  35.372  26.106   3.367
30869W        W96349  42.937  10.364   1.917
30870W        W96350  24.207  18.270  13.354
30871W        W96351  14.115  33.048   1.849
30872W        W96352   6.391  21.644  12.894
30873W        W96353   1.887  28.081   3.737
30874W        W96354   7.415  14.622  12.889
30875W        W96355   6.882  17.093  13.348
30876W        W96356  36.098  17.657   0.355
30877W        W96357   8.882  16.156  11.033
30878W        W96358  28.025   1.812   2.842
30879W        W96359  37.360  25.674  10.416
30880W        W96360  21.731  27.667   2.718
30881W        W96361  10.144  25.536  12.049
30882W        W96362  26.501   2.438  11.523
30883W        W96363   9.818   7.824  11.497
30884W        W96364   3.730  22.534  12.352
30885W        W96365  29.965   5.256  13.999
30886W        W96366  13.111  36.086   5.164
30887W        W96367   2.471  19.153   2.837
30888W        W96368  27.527  10.267   1.761
30889W        W96369   9.251  15.179  11.035
30890W        W96370  26.645  12.344   4.723
30891W        W96371  43.486  20.698   2.679
30892W        W96372  10.765  21.680  10.964
30893W        W96373  16.669  40.830  11.994
30894W        W96374  12.326  10.686   0.299
30895W        W96375   5.385  32.933  13.509
30896W        W96376  22.183   9.380  12.532
30897W        W96377  13.674  15.209  11.901
30898W        W96378  34.389  43.772   1.336
30899W        W96379  10.375  42.994  12.048
30900W        W96380  32.446   8.311  13.503
30901W        W96381  14.640  24.720   0.922
30902W        W96382  23.179   0.433  13.871
30903W        W96383   4.228  26.574  10.538
30904W        W96384  24.663  11.328  10.928
30905W        W96385  32.913  28.113  13.052
30906W        W96386  17.305  43.274   0.291
30907W        W96387  13.325  44.415  13.403
30908W        W96388   2.874   0.756   2.287
30909W        W96389   1.839  24.187   5.182
30910W        W96390  32.033   4.388   3.686
30911W        W96391  34.094  21.526  14.890
30912W        W96392  21.617  37.924  12.547
30913W        W96393  24.629  19.710   0.320
30914W        W96394  14.208  15.208   9.920
30915W        W96395  21.567  35.070   4.123
30916W        W96396  34.916  31.007   0.265
30917W        W96397  21.143  18.191  14.419
30918W        W96398  42.504  32.530  14.506
30919W        W96399   6.720  28.147   3.694
30920W        W96400  30.596  15.783  14.931
30921W        W96401  34.868  33.395  11.077
30922W        W96402  35.946   9.863  14.833
30923W        W96403  13.320  12.244  13.814
30924W        W96404  30.914  11.261  11.480
30925W        W96405  23.225   9.367  13.878
30926W        W96406   1.406  27.192  12.560
30927W        W96407  42.022  37.013   4.647
30928W        W96408  40.936  24.161   4.292
30929W        W96409  32.141  16.092  10.923
30930W        W96410  10.245  26.631  14.330
30931W        W96411  18.235  17.582   1.782
30932W        W96412  35.106   2.275  10.964
30933W        W96413  39.877  17.171   1.878
30934W        W96414  28.520  11.792  14.015
30935W        W96415  29.054  10.691   3.843
30936W        W96416   7.294  20.076  10.641
30937W        W96417  12.699  11.343  14.469
30938W        W96418   1.859   5.323   2.370
30939W        W96419  18.231  36.529  14.919
30940W        W96420  23.144  40.347   4.318
30941W        W96421  27.644  10.727   2.271
30942W        W96422  23.697  22.194  11.061
30943W        W96423   4.299  28.998  13.981
30944W        W96424  19.205  16.241  11.447
30945W        W96425  37.972  28.940   2.829
30946W        W96426  28.031  22.574  10.940
30947W        W96427  14.648  16.092   2.717
30948W        W96428  34.970   3.428   2.252
30949W        W96429   3.394   2.353  10.972
30950W        W96430   5.363  20.145   2.680
30951W        W96431  24.651  16.103   2.877
30952W        W96432  12.249  12.267   4.135
30953W        W96433   2.895   4.762  12.471
30954W        W96434  17.231  39.346  11.473
30955W        W96435   9.325  16.643  12.544
30956W        W96436  17.111  29.959  13.481
30957W        W96437  14.743  20.696   3.856
30958W        W96438  38.030  23.597  13.541
30959W        W96439  25.570  35.990  14.880
30960W        W96440  16.212  28.579   3.782
30961W        W96441   9.780  19.631  12.006
30962W        W96442   4.366  41.400  12.406
30963W        W96443  27.460  16.621  11.436
30964W        W96444  25.605  37.913  14.804
30965W        W96445  15.656  28.956   3.791
30966W        W96446  34.924  44.852  11.122
30967W        W96447  32.121  34.070   1.227
30968W        W96448  27.975  30.467  12.022
30969W        W96449  32.529  24.032  12.924
30970W        W96450  27.946  15.736   0.409
30971W        W96451  11.211   1.913   3.184
30972W        W96452  44.989  31.137  12.477
30973W        W96453  13.178   4.289  13.036
30974W        W96454  31.952  24.063   3.365
30975W        W96455   1.292   8.793   1.840
30976W        W96456   6.914  33.474   4.624
30977W        W96457  44.997  34.446  11.546
30978W        W96458   9.680   5.420   2.258
30979W        W96459   7.185  17.795  11.607
30980W        W96460   2.463  42.796  13.308
30981W        W96461  40.933   6.737  14.803
30982W        W96462  27.656  22.130  11.421
30983W        W96463  10.315  25.043  13.012
30984W        W96464  21.047   4.211  12.040
30985W        W96465  26.508  11.672  14.393
30986W        W96466  19.642   9.810   1.833
30987W        W96467   5.345  43.299   3.241
30988W        W96468  21.218  14.665   0.369
30989W        W96469  40.813  25.997  11.989
30990W        W96470  20.633   6.912   0.925
30991W        W96471  18.196  36.874   2.875
30992W        W96472  23.555  33.446   3.823
30993W        W96473  41.898   1.324  12.467
30994W        W96474  42.461   3.428  14.365
30995W        W96475   8.838   0.830  10.528
30996W        W96476  44.814   0.780  13.964
30997W        W96477   3.955  32.088  11.568
30998W        W96478  32.588  40.434  11.596
30999W        W96479  39.864  16.813   0.921
31000W        W96480   3.823  14.195  11.417
31001W        W96481  14.755  35.448   1.366
31002W        W96482   9.317  40.444  11.378
31003W        W96483   7.258  18.123   3.817
31004W        W96484  27.139   4.911  11.467
31005W        W96485  18.621  33.394  13.486
31006W        W96486  40.804  41.828   1.791
31007W        W96487  17.185  33.994   3.869
31008W        W96488  41.966  18.109  11.574
31009W        W96489  12.711  13.672   9.534
31010W        W96490  40.374  10.697   1.798
31011W        W96491  14.307  35.522   3.179
31012W        W96492  42.903  34.070   0.850
31013W        W96493  41.035  28.993  13.381
31014W        W96494  38.530  44.380  14.993
31015W        W96495  29.588  39.556   0.386
31016W        W96496  34.922  18.760  12.073
31017W        W96497  44.283  11.304   2.231
31018W        W96498  11.300  35.367  12.039
31019W        W96499  26.206  44.843  10.952
31020W        W96500  19.275   0.494  14.826
31021W        W96501  22.657  11.244  10.954
31022W        W96502   8.176   2.287  14.455
31023W        W96503   7.249  14.235   4.197
31024W        W96504   1.251  23.582  11.520
31025W        W96505   2.954  24.678   4.605
31026W        W96506   7.793  32.085  10.537
31027W        W96507  40.799  26.574  11.551
31028W        W96508   6.362  40.544  12.039
31029W        W96509  39.884  35.357  11.475
31030W        W96510  44.379  34.949   2.351
31031W        W96511  31.634  11.662   2.221
31032W        W96512  11.796  12.635  13.420
31033W        W96513  26.499  38.032  13.820
31034W        W96514  32.943  42.976   1.374
31035W        W96515  11.759  44.960   0.463
31036W        W96516  15.726  21.729  14.905
31037W        W96517  31.622  29.000  13.335
31038W        W96518  10.647  32.112  10.487
31039W        W96519  17.661  34.877   2.260
31040W        W96520  34.978  32.620   3.353
31041W        W96521  42.028  20.125  14.905
31042W        W96522  12.320  15.757   0.946
31043W        W96523   8.824  38.047  12.861
31044W        W96524   0.318  37.355  14.403
31045W        W96525  35.453  30.924   4.650
31046W        W96526  35.077   6.351   3.742
31047W        W96527   1.924  17.731   2.357
31048W        W96528  21.708  13.187  11.913
31049W        W96529  14.271   3.733  12.574
31050W        W96530   2.448  28.079   2.829
31051W        W96531  26.969  24.656   2.390
31052W        W96532  28.960   0.383   1.319
31053W        W96533  40.027  39.486  12.904
31054W        W96534   9.726   3.943   2.333
31055W        W96535  14.276  34.002  14.458
31056W        W96536  36.843  42.984   4.305
31057W        W96537  24.986  15.607  11.518
31058W        W96538  28.111  33.113   4.334
31059W        W96539   8.342  21.103  11.436
31060W        W96540  25.483  24.061   1.774
31061W        W96541  39.967  15.758   2.350
31062W        W96542  28.031  29.112   2.266
31063W        W96543  30.928  18.615   4.340
31064W        W96544   8.345  28.175  11.435
31065W        W96545  42.029  35.984  14.488
31066W        W96546   3.249   8.310   2.307
31067W        W96547  12.749  43.889   9.933
31068W        W96548   6.843  43.488  11.524
31069W        W96549   3.340  14.753   0.961
31070W        W96550  38.539  37.503  10.538
31071W        W96551  13.292   4.308   0.811
31072W        W96552   1.367  19.215   1.430
31073W        W96553  19.139  12.354  10.915
31074W        W96554  20.049  25.683   4.751
31075W        W96555   4.353  16.153   4.293
31076W        W96556  36.450  21.650  14.300
31077W        W96557  38.909  26.586  14.970
31078W        W96558  19.051  28.044   2.407
31079W        W96559  40.913  34.074  10.562
31080W        W96560  13.794  41.939  12.870
31081W        W96561  44.264  26.134   2.371
31082W        W96562  17.062  26.673   1.890
31083W        W96563  10.650   0.796   4.336
31084W        W96564   3.828   4.830  12.925
31085W        W96565  42.420   9.305  13.820
31086W        W96566  24.717  22.706   3.795
31087W        W96567  42.836  24.551  11.478
31088W        W96568  25.708  36.417  13.966
31089W        W96569  22.647  13.318   2.696
31090W        W96570  37.062   0.377  11.859
31091W        W96571  43.345   0.842   2.286
31092W        W96572  42.781  17.703  14.367
31093W        W96573  22.742  36.454   0.891
31094W        W96574  34.407  25.596   2.819
31095W        W96575   8.794  29.645  13.798
31096W        W96576  44.775  34.507  11.123
31097W        W96577   0.318  44.803   4.164
31098W        W96578  20.604  15.279   3.322
31099W        W96579  24.204   3.384   2.788
31100W        W96580  31.604  22.614  12.067
31101W        W96581  17.654  32.965  11.969
31102W        W96582   0.871  32.487  14.856
31103W        W96583  14.262  13.143   0.473
31104W        W96584  41.378  11.316   2.784
31105W        W96585   4.436  17.675  13.544
31106W        W96586  29.652  19.710   1.905
31107W        W96587  43.439  32.987  12.866
31108W        W96588  34.494  42.364  13.829
31109W        W96589   8.831  13.202   5.208
31110W        W96590  34.053  28.522   1.932
31111W        W96591  28.509  40.501   0.347
31112W        W96592  10.354  27.624   2.366
31113W        W96593  15.699  27.679  11.028
31114W        W96594  41.945  25.160   1.894
31115W        W96595   5.888   3.324   1.411
31116W        W96596   6.772  38.446  11.986
31117W        W96597   4.772  25.101  11.493
31118W        W96598   1.747  27.496  14.401
31119W        W96599  19.612  44.281  14.027
31120W        W96600  30.642  27.150  13.826
31121W        W96601  34.541  17.240  13.342
31122W        W96602  14.142  36.351   3.213
31123W        W96603  12.679  15.810  12.347
31124W        W96604  20.235  31.415   1.825
31125W        W96605   0.758  30.938  12.007
31126W        W96606   3.316  43.008  10.109
31127W        W96607   9.828  10.742   0.256
31128W        W96608  39.388  37.068   1.295
31129W        W96609  37.437  16.123   3.269
31130W        W96610   2.943   5.718   4.676
31131W        W96611  31.482   1.466   3.200
31132W        W96612  42.370   6.767  14.826
31133W        W96613  32.557  29.992   3.713
31134W        W96614  11.773  19.603  10.595
31135W        W96615   7.203  26.191   2.787
31136W        W96616   0.951  29.593   3.646
31137W        W96617   9.374  17.154   3.213
31138W        W96618   6.243   6.783   1.305
31139W        W96619  10.713  32.989  12.062
31140W        W96620  24.660  11.725   3.717
31141W        W96621  29.145  31.534   4.227
31142W        W96622  38.385  12.202   1.814
31143W        W96623  14.720  30.485   0.470
31144W        W96624   6.780  28.979   1.762
31145W        W96625  24.988  14.596  11.470
31146W        W96626  25.705   6.689   4.224
31147W        W96627  21.232  30.430   0.346
31148W        W96628  26.004  11.285   3.638
31149W        W96629   0.410  34.948  11.428
31150W        W96630  31.005  22.039  14.791
31151W        W96631   2.233  27.062   2.763
31152W        W96632  27.996  22.703   1.211
31153W        W96633  33.446   5.261  11.078
31154W        W96634  34.565  25.040  12.352
31155W        W96635   0.344  20.601   2.298
31156W        W96636  42.024  37.519   2.258
31157W        W96637   9.779   1.975  11.545
31158W        W96638  22.035  31.444   3.715
31159W        W96639  17.682  23.714   1.917
31160W        W96640  28.105  26.566  11.487
31161W        W96641  20.235   0.945   2.825
31162W        W96642  14.205  30.131  11.064
31163W        W96643  32.005  13.714  11.498
31164W        W96644  16.574  19.683   2.389
31165W        W96645  29.568  40.973  14.383
31166W        W96646  11.865  40.923   4.610
31167W        W96647  24.200  25.966  11.113
31168W        W96648  42.007  33.496   2.346
31169W        W96649  29.108  19.101  13.514
31170W        W96650  39.400  39.873  10.431
31171W        W96651  36.878  35.043   4.717
31172W        W96652   9.839  38.499  14.278
31173W        W96653  11.855  18.123  14.858
31174W        W96654  21.185  28.047  14.843
31175W        W96655  24.582  27.554  12.910
31176W        W96656  38.983  40.977  11.557
31177W        W96657  32.427  42.499  13.487
31178W        W96658  30.919  15.135   0.843
31179W        W96659  41.007  32.632   4.665
31180W        W96660  21.092  26.562  14.489
31181W        W96661  10.817  42.819  13.350
31182W        W96662  12.796  11.171  14.934
31183W        W96663  16.117   9.756  12.004
31184W        W96664  26.972   2.892  10.437
31185W        W96665  41.806  43.914   1.892
31186W        W96666  40.040   5.879   2.371
31187W        W96667  24.088  27.579  14.968
31188W        W96668  20.129  42.838   3.799
31189W        W96669  20.706  40.870   4.666
31190W        W96670  41.858  14.221   3.731
31191W        W96671  28.478  42.783  12.387
31192W        W96672  39.462  13.220  10.959
31193W        W96673  40.448  40.018  10.033
31194W        W96674  21.640   1.310   2.253
31195W        W96675  40.851  38.518   3.827
31196W        W96676  40.366  28.031  10.132
31197W        W96677   2.467   6.344  14.472
31198W        W96678  16.233  23.683  10.928
31199W        W96679  14.163  29.928  10.510
31200W        W96680  30.157  41.842   1.812
31201W        W96681  25.137   2.315   3.324
31202W        W96682   9.358   8.664   2.801
31203W        W96683  23.217  41.310   0.892
31204W        W96684   8.323  44.460  13.393
31205W        W96685  32.599  18.749  10.956
31206W        W96686  44.858  17.781  11.875
31207W        W96687  28.994  21.742   1.302
31208W        W96688  40.985  33.959  13.794
31209W        W96689  42.814   0.900  10.892
31210W        W96690   7.247   0.259   0.251
31211W        W96691  42.427  32.576  11.902
31212W        W96692  29.985  41.472   1.713
31213W        W96693  19.187  24.495   2.187
31214W        W96694  15.277   1.238  11.510
31215W        W96695  41.855   6.766   1.887
31216W        W96696   1.241  38.536  10.511
31217W        W96697  20.270  12.290  10.571
31218W        W96698   9.682  41.870   2.879
31219W        W96699  29.110  38.526  12.572
31220W        W96700  20.126  30.608  14.991
31221W        W96701  42.485  33.967  12.525
31222W        W96702  39.530  22.136   2.291
31223W        W96703   3.410  21.656   0.483
31224W        W96704  20.599  12.803  10.901
31225W        W96705  10.713  24.072   1.827
31226W        W96706  36.995   2.405  14.998
31227W        W96707   3.896  20.242   4.184
31228W        W96708  36.541  16.266   1.857
31229W        W96709  37.902  32.981   4.695
31230W        W96710  14.659  41.043   4.278
31231W        W96711   2.788  11.713   0.906
31232W        W96712  39.437  15.582  10.928
31233W        W96713  33.933  39.892   1.826
31234W        W96714  20.046  24.526  11.423
31235W        W96715  12.246  41.023  10.570
31236W        W96716   0.745  44.433  12.429
31237W        W96717  25.974  41.381   3.252
31238W        W96718  42.381  35.025  10.521
31239W        W96719  37.036  24.102  12.391
31240W        W96720  28.132   5.918   4.737
31241W        W96721  27.126  13.675  13.872
31242W        W96722  13.761   5.811  10.551
31243W        W96723  17.230  37.551   2.287
31244W        W96724   1.923  12.794  11.506
31245W        W96725   5.245  15.581  10.639
31246W        W96726  10.197  33.428  12.088
31247W        W96727  18.109  31.992  14.315
31248W        W96728   3.301  29.975   0.866
31249W        W96729  43.481  24.685   1.288
31250W        W96730  23.600  30.452  11.584
31251W        W96731  41.977  16.575  11.981
31252W        W96732  11.656  40.377   4.191
31253W        W96733  20.660  17.585   0.334
31254W        W96734   3.954  40.843   2.673
31255W        W96735  41.013  31.919  13.828
31256W        W96736   2.385  11.756   1.885
31257W        W96737   9.660   7.690   3.167
31258W        W96738  39.852  38.861  11.543
31259W        W96739  33.495  34.456  13.513
31260W        W96740  12.284   6.699  13.838
31261W        W96741   1.339  44.757  13.341
31262W        W96742  27.105  25.185   5.134
31263W        W96743  44.934   8.821   2.731
31264W        W96744  35.870  10.166   4.116
31265W        W96745  15.283  30.150   3.250
31266W        W96746   3.267  22.190   2.786
31267W        W96747  21.131   7.791   2.783
31268W        W96748  23.040   3.234  11.023
31269W        W96749  38.001   0.985   0.384
31270W        W96750  23.636  35.003   0.274
31271W        W96751  23.721  33.044  11.127
31272W        W96752  17.233  14.771  11.032
31273W        W96753  30.099  11.649  13.507
31274W        W96754  40.023  10.191   0.467
31275W        W96755  17.068   8.248  11.542
31276W        W96756  10.273   2.793  12.039
31277W        W96757  19.554  26.604  14.465
31278W        W96758  32.005  16.299  14.971
31279W        W96759  32.105  28.441  12.964
31280W        W96760  42.973  22.055   2.212
31281W        W96761  37.987  40.878   3.340
31282W        W96762   0.823  43.280  13.987
31283W        W96763  44.882   4.877  13.054
31284W        W96764  31.958  13.230  12.364
31285W        W96765  22.569  44.870   3.246
31286W        W96766  44.863  31.911   0.357
31287W        W96767  30.472  14.134   2.820
31288W        W96768   1.396   3.336  10.477
31289W        W96769   3.384  10.743   1.897
31290W        W96770  12.748  35.022  11.092
31291W        W96771  33.075  26.557  14.896
31292W        W96772  40.506  14.644   2.398
31293W        W96773   2.245  28.463  13.896
31294W        W96774   1.474  22.614   4.598
31295W        W96775  33.380   9.226   1.828
31296W        W96776   5.827  15.712  11.966
31297W        W96777  15.174  25.659  14.811
31298W        W96778  20.175  31.645   2.418
31299W        W96779  15.233  13.146  11.440
31300W        W96780  11.821  42.334   0.447
31301W        W96781  33.073  43.515  14.798
31302W        W96782  22.674  19.217   3.801
31303W        W96783  44.452  11.296   1.806
31304W        W96784  10.855  28.484  14.341
31305W        W96785  40.912   3.766  12.912
31306W        W96786   9.203  30.960  13.805
31307W        W96787  11.654  10.354  10.921
31308W        W96788  35.881  10.764  10.433
31309W        W96789  37.511  28.078  13.802
31310W        W96790  16.727  41.351   2.816
31311W        W96791   8.899   3.236  13.476
31312W        W96792  15.096  14.251  12.441
31313W        W96793   4.941   7.229  12.393
31314W        W96794  26.670  16.154   3.211
31315W        W96795  15.716  41.303  11.039
31316W        W96796  37.354  13.758   0.831
31317W        W96797  35.962  21.682  10.532
31318W        W96798   9.814  31.933   1.452
31319W        W96799  24.191  33.032  12.382
31320W        W96800  41.360  15.249  10.488
31321W        W96801   9.386  32.107   2.684
31322W        W96802   2.430  23.500  14.984
31323W        W96803  15.766  31.585   1.779
31324W        W96804  43.281   2.459  10.977
31325W        W96805  14.672   7.903   0.243
31326W        W96806   3.834  23.687  13.907
31327W        W96807  20.596  31.010   3.683
31328W        W96808  28.010   2.362  12.898
31329W        W96809  30.946  34.032   4.605
31330W        W96810  26.596  27.594   3.350
31331W        W96811  26.957  41.013  12.954
31332W        W96812  23.070  17.683  13.899
31333W        W96813   2.864  22.594   0.809
31334W        W96814  38.559  43.370   3.277
31335W        W96815  40.541  25.013  13.864
31336W        W96816  28.096   9.340   2.376
31337W        W96817  31.549   3.218   1.837
31338W        W96818  21.106  37.971  14.011
31339W        W96819   6.231  13.338  14.316
31340W        W96820   6.340  29.941  14.012
31341W        W96821   7.240  11.284   1.296
31342W        W96822   0.882  34.114  10.938
31343W        W96823  13.723  11.354  14.283
31344W        W96824   6.745  31.940  14.288
31345W        W96825  24.622  17.148   3.670
31346W        W96826  27.686  37.376   3.211
31347W        W96827  13.350  13.205   4.636
31348W        W96828  13.750  28.031  10.526
31349W        W96829  10.184   7.211  12.522
31350W        W96830  39.314   8.351  12.514
31351W        W96831  29.953  32.549   1.861
31352W        W96832  43.444  39.947  11.436
31353W        W96833  10.712   8.830  12.341
31354W        W96834  28.527  32.994   3.633
31355W        W96835   6.807  35.949  13.403
31356W        W96836  18.281  12.206  13.811
31357W        W96837   6.259  17.291  12.937
31358W        W96838  41.019  10.873   3.181
31359W        W96839  15.124  31.505   1.354
31360W        W96840   4.805  16.108   3.263
31361W        W96841  22.116  42.448  13.455
31362W        W96842  18.050  36.026  13.020
31363W        W96843  11.330  27.025  12.092
31364W        W96844  42.827  25.664   0.336
31365W        W96845  21.221  21.020   4.754
31366W        W96846  12.309  23.118   4.678
31367W        W96847   8.850  41.295   3.345
31368W        W96848   7.406  41.858   1.870
31369W        W96849   0.815  27.095  10.531
31370W        W96850  31.421  44.344  13.308
31371W        W96851  24.637  25.572   0.348
31372W        W96852  38.420  25.030  10.476
31373W        W96853  44.286  40.816   2.309
31374W        W96854   3.887  27.980  11.119
31375W        W96855  33.884   2.869  13.397
31376W        W96856  18.720  11.170   0.385
31377W        W96857  42.886   8.759  12.402
31378W        W96858  44.360  35.408  13.974
31379W        W96859   3.322  42.320   2.888
31380W        W96860  39.498  20.240  13.452
31381W        W96861   9.749   5.313  10.409
31382W        W96862  13.146  35.086   1.935
31383W        W96863  27.594  14.675  12.068
31384W        W96864   7.736  19.112   2.178
31385W        W96865  25.042  31.974  10.512
31386W        W96866  15.234  38.068   3.247
31387W        W96867   4.432  23.165   1.219
31388W        W96868  29.512  35.556  12.361
31389W        W96869  30.415   9.844   2.723
31390W        W96870  44.449  31.989   5.296
31391W        W96871  36.855   9.740  12.476
31392W        W96872  17.262  24.093   4.672
31393W        W96873  42.783  43.925   2.791
31394W        W96874  33.943   6.183  11.540
31395W        W96875  21.169  38.467   0.292
31396W        W96876  21.661  24.062   3.812
31397W        W96877  19.070  23.119  11.472
31398W        W96878   2.392   6.226   0.847
31399W        W96879   2.328  44.415  10.456
31400W        W96880  19.087  34.381  11.485
31401W        W96881   2.918  25.071  14.992
31402W        W96882   0.298  38.434   3.740
31403W        W96883   8.662  20.123   1.843
31404W        W96884  31.147  35.378   0.348
31405W        W96885  42.446  37.856  12.486
31406W        W96886   7.900  28.497   0.958
31407W        W96887  33.114  40.009   0.904
31408W        W96888  38.870  20.029   4.130
31409W        W96889  11.344  43.955   0.951
31410W        W96890   4.716  14.218   4.305
31411W        W96891  28.092   8.880  12.893
31412W        W96892  26.545   3.798   0.945
31413W        W96893  13.206  35.597   0.801
31414W        W96894  15.097  39.338  13.915
31415W        W96895  37.039  30.571   2.353
31416W        W96896   2.897  11.318  14.996
31417W        W96897  33.095   8.738   0.812
31418W        W96898  40.833   4.271   3.780
31419W        W96899  15.784  26.613   1.828
31420W        W96900   2.747   7.818   3.788
31421W        W96901  31.903  17.118  11.579
31422W        W96902  38.928  35.960   1.401
31423W        W96903  40.887   2.266  12.906
31424W        W96904  25.509  31.915  14.013
31425W        W96905  30.483  29.463  12.033
31426W        W96906   4.782   1.428   4.832
31427W        W96907  37.466  12.307   0.341
31428W        W96908  24.155   9.368  12.349
31429W        W96909  43.857   9.210   4.638
31430W        W96910  42.318  21.147   3.678
31431W        W96911  25.541  12.652   4.135
31432W        W96912  41.002  40.939   0.413
31433W        W96913  44.483  43.302   2.310
31434W        W96914  38.868  24.577   0.967
31435W        W96915  44.389   1.339   3.807
31436W        W96916   3.716   0.971  12.958
31437W        W96917  11.767   0.453  12.884
31438W        W96918   4.853   3.299  11.423
31439W        W96919   2.744  40.872   1.929
31440W        W96920  15.160  31.127  14.462
31441W        W96921   3.942  39.845   3.282
31442W        W96922   9.217  14.660   2.669
31443W        W96923  44.932   5.693   3.679
31444W        W96924  10.263  41.413   4.122
31445W        W96925  29.450   3.841  12.081
31446W        W96926  19.749  22.513   4.738
31447W        W96927  30.590  35.961   3.175
31448W        W96928   4.411   6.786  14.990
31449W        W96929  41.906   2.821  12.882
31450W        W96930  22.733  44.389   0.336
31451W        W96931  21.157  32.449   3.670
31452W        W96932  43.813  23.700  14.363
31453W        W96933  15.652  27.537   5.262
31454W        W96934  31.562   1.757   4.602
31455W        W96935  18.659  25.489   0.360
31456W        W96936  28.496  34.960   1.779
31457W        W96937   6.805   8.283   3.744
31458W        W96938  39.536   5.709  14.499
31459W        W96939   4.407  28.522  14.004
31460W        W96940  39.559  22.174  13.437
31461W        W96941  40.023  12.824   3.340
31462W        W96942   2.925  25.714  10.985
31463W        W96943  41.917  26.681   2.835
31464W        W96944  38.507  42.972  14.798
31465W        W96945   5.879  43.885   2.835
31466W        W96946  40.831   3.217  14.837
31467W        W96947  25.595  16.802  12.439
31468W        W96948  27.970  14.608  12.437
31469W        W96949  42.896  15.167  10.529
31470W        W96950  28.527  13.288  11.596
31471W        W96951   6.246  40.333   1.313
31472W        W96952   8.795  27.542  13.921
31473W        W96953  32.496  40.051  13.856
31474W        W96954  15.304  28.099   2.897
31475W        W96955  37.526  24.022   3.729
31476W        W96956  20.125   9.732  10.455
31477W        W96957   7.179  32.622   0.277
31478W        W96958  35.601   7.878   0.299
31479W        W96959  17.751  33.091   2.737
31480W        W96960  40.348  37.354  11.984
31481W        W96961   5.721  39.444   2.724
31482W        W96962  31.588  28.949  14.369
31483W        W96963   8.816   1.942   4.606
31484W        W96964   4.260  27.480   4.614
31485W        W96965  23.170  14.678  11.929
31486W        W96966   0.943  33.904   2.388
31487W        W96967  30.064   4.801  14.006
31488W        W96968  40.331  33.086   4.745
31489W        W96969  23.031  25.551  13.017
31490W        W96970  24.188  21.527   4.342
31491W        W96971  24.593  22.211   2.761
31492W        W96972  29.135  13.714   2.270
31493W        W96973   4.216  20.078   1.432
31494W        W96974  29.532  36.004   3.188
31495W        W96975  11.792  12.766  14.933
31496W        W96976  15.707  33.892   0.413
31497W        W96977   5.396  35.933  11.951
31498W        W96978  29.452  42.405   2.335
31499W        W96979  43.456  23.637   1.386
31500W        W96980   4.759  40.449  13.880
31501W        W96981  22.065  34.037   2.886
31502W        W96982  27.072   1.742  13.987
31503W        W96983  40.985   9.214   3.174
31504W        W96984  22.188  12.277  14.481
31505W        W96985  36.866   9.273   2.319
31506W        W96986  27.064  41.991   0.804
31507W        W96987  24.169   8.377  13.980
31508W        W96988  11.191   4.930  14.938
31509W        W96989  35.029  20.529   1.403
31510W        W96990  28.008  24.213   4.784
31511W        W96991  22.537   9.677   3.277
31512W        W96992  20.663  13.124  14.330
31513W        W96993  12.335   5.417  13.389
31514W        W96994   4.392   5.892  14.025
31515W        W96995   0.421  32.614  10.569
31516W        W96996  39.404  23.108  11.520
31517W        W96997  36.403  26.565   0.247
31518W        W96998  43.389  37.351  14.865
31519W        W96999  34.939  42.935  13.926
31520W        W97000  20.205  15.166   1.256
31521W        W97001  15.630  23.502  13.531
31522W        W97002  40.817  39.477  13.437
31523W        W97003  19.039  28.067   2.724
31524W        W97004  41.298  24.107  11.572
31525W        W97005  18.655   9.272   3.646
31526W        W97006   0.454  23.128  12.951
31527W        W97007   6.204   9.263   0.823
31528W        W97008  43.479  29.165   0.481
31529W        W97009  35.047  23.148   4.664
31530W        W97010  30.974  15.636   4.129
31531W        W97011  28.442  24.048  14.793
31532W        W97012   3.723  15.118  12.903
31533W        W97013  38.004  39.413  11.391
31534W        W97014  40.052  43.298  10.579
31535W        W97015  26.197  25.501  13.816
31536W        W97016  10.723  22.191  13.948
31537W        W97017  13.687   6.808  13.823
31538W        W97018  23.202  29.460   4.354
31539W        W97019  19.588   6.788  10.901
31540W        W97020  26.574  42.303  10.438
31541W        W97021  14.184  34.405   1.425
31542W        W97022  10.357  31.121   3.181
31543W        W97023  22.597   3.904   2.834
31544W        W97024  27.959  30.586   0.890
31545W        W97025  26.591  41.317   9.920
31546W        W97026   2.722  21.156  12.410
31547W        W97027  42.295  37.083   3.280
31548W        W97028  43.275   7.769   0.963
31549W        W97029  16.610   7.191   0.422
31550W        W97030  12.667  11.270  14.016
31551W        W97031  39.316  19.563  12.978
31552W        W97032   5.388  17.721   0.936
31553W        W97033  39.556  17.576   4.614
31554W        W97034  41.040  34.014  11.952
31555W        W97035   7.819   6.788   4.289
31556W        W97036   4.280   1.305   3.172
31557W        W97037  24.027   5.411   3.289
31558W        W97038   0.870  17.295   3.636
31559W        W97039  30.909  20.767  13.814
31560W        W97040  38.940   5.350  11.910
31561W        W97041  41.846   9.365   0.821
31562W        W97042  30.955  33.892  13.532
31563W        W97043   3.840  31.575   3.261
31564W        W97044  34.603   9.263  11.055
31565W        W97045   3.293  36.045   3.358
31566W        W97046  21.136  16.154  14.291
31567W        W97047  16.169  10.761   1.728
31568W        W97048  39.348  41.976   4.173
31569W        W97049  38.990   4.759  11.112
31570W        W97050  23.232   1.273   0.900
31571W        W97051  44.414  35.015   0.787
31572W        W97052  30.098  13.285   1.307
31573W        W97053  23.129  16.203  11.090
31574W        W97054  14.266  20.140  13.989
31575W        W97055  33.983   3.343  12.523
31576W        W97056   8.263  14.200  10.528
31577W        W97057  27.543  31.150  11.456
31578W        W97058  13.651   6.375   0.293
31579W        W97059   8.685   6.427  12.075
31580W        W97060  23.592   7.279  13.512
31581W        W97061  16.242  17.196  10.635
31582W        W97062  23.721   1.336   1.375
31583W        W97063  44.922  35.012   2.896
31584W        W97064  17.570   4.871   0.261
31585W        W97065  18.218  33.452   0.797
31586W        W97066   0.777  40.542   3.818
31587W        W97067   6.778  32.460   4.742
31588W        W97068   0.249  39.539  10.414
31589W        W97069  28.611  26.635  14.963
31590W        W97070  35.568  44.371  13.532
31591W        W97071   9.820  13.733  11.589
31592W        W97072  40.874   4.398   0.367
31593W        W97073   9.684  44.379   4.766
31594W        W97074  10.733  20.234  12.485
31595W        W97075   5.398  21.665  13.891
31596W        W97076  10.318  17.602  14.961
31597W        W97077  38.449  11.149   0.248
31598W        W97078  40.513  38.396  12.963
31599W        W97079  33.986  23.229  11.489
31600W        W97080  44.820  12.725   2.897
31601W        W97081   6.706  26.101   3.176
31602W        W97082  37.969  40.453   1.868
31603W        W97083  37.409  13.112   3.190
31604W        W97084   1.877  41.013  11.603
31605W        W97085   0.786  35.513   3.676
31606W        W97086  38.500   6.896   3.698
31607W        W97087  26.061  21.231  14.477
31608W        W97088   7.332  22.111   4.205
31609W        W97089  30.512  33.611   5.120
31610W        W97090  22.156  29.151  12.477
31611W        W97091  37.034  19.249   3.210
31612W        W97092  23.022  28.494  12.037
31613W        W97093  38.865  10.854  12.391
31614W        W97094  26.140   1.423  12.890
31615W        W97095  36.964  18.270   4.120
31616W        W97096  35.498  44.891  10.572
31617W        W97097  14.785  36.957  12.867
31618W        W97098  33.470  42.025   0.875
31619W        W97099  19.676  43.942  10.551
31620W        W97100   9.655  20.692   4.836
31621W        W97101  29.606  43.389  10.548
31622W        W97102   7.816  33.018   2.862
31623W        W97103  39.962  15.173   2.880
31624W        W97104  32.473   1.898  14.495
31625W        W97105  38.920  43.828  13.000
31626W        W97106  17.598  24.540  11.526
31627W        W97107  31.079  31.615   4.717
31628W        W97108  17.754  13.109  12.347
31629W        W97109  14.624  19.246   2.391
31630W        W97110  17.171  41.369   2.772
31631W        W97111   6.721   4.868  14.969
31632W        W97112  28.638  43.470  12.046
31633W        W97113  14.238  24.216  14.460
31634W        W97114  37.372  33.576  12.849
31635W        W97115   9.687  44.894  11.409
31636W        W97116  33.536  34.052  10.927
31637W        W97117   6.761  37.891  13.332
31638W        W97118  23.070  25.037   0.827
31639W        W97119  33.540   2.324   2.328
31640W        W97120   0.351  26.107  12.827
31641W        W97121  25.165  32.474  10.912
31642W        W97122  30.585  12.178   2.803
31643W        W97123   4.332  16.600   0.742
31644W        W97124   5.279  42.937  11.069
31645W        W97125  22.730  40.376   3.248
31646W        W97126  34.551  40.412   0.442
31647W        W97127  34.469  17.744   3.786
31648W        W97128  35.506   5.285   4.660
31649W        W97129  38.921  39.460   4.698
31650W        W97130   2.416   3.923  10.517
31651W        W97131   4.242   4.918  10.905
31652W        W97132  32.932  25.477  14.386
31653W        W97133   3.856  37.533   2.774
31654W        W97134   5.402   8.264  11.016
31655W        W97135   8.240  15.084   2.743
31656W        W97136  20.175  12.334  12.913
31657W        W97137  35.500  28.138  11.115
31658W        W97138  17.796  25.612   2.772
31659W        W97139  22.168  14.722  13.921
31660W        W97140  17.157  41.806  11.063
31661W        W97141  23.539  28.936   0.318
31662W        W97142  39.868  37.542   5.260
31663W        W97143  21.607   7.796   1.837
31664W        W97144  29.507  21.743   3.157
31665W        W97145  31.419  12.344  10.904
31666W        W97146  40.437   5.777   3.245
31667W        W97147  29.427   2.399   0.271
31668W        W97148  37.440  18.699  14.847
31669W        W97149   3.883   3.857   3.796
31670W        W97150  10.875  18.698   4.632
31671W        W97151  22.125  41.943   2.416
31672W        W97152  15.787  35.055   3.827
31673W        W97153  26.057  10.733  11.451
31674W        W97154  26.209   7.334  14.954
31675W        W97155  33.081  25.022   1.767
31676W        W97156  43.512  25.970   4.809
31677W        W97157  35.981   0.295  14.430
31678W        W97158  24.631   0.404   2.847
31679W        W97159  21.180  39.869   4.184
31680W        W97160  38.458  24.097   0.751
31681W        W97161   0.804  10.197   3.859
31682W        W97162  23.225  35.435  10.592
31683W        W97163  38.907  38.558  13.382
31684W        W97164  22.741  20.250  11.959
31685W        W97165  40.441  20.754   3.236
31686W        W97166  37.914  33.586  14.322
31687W        W97167  38.538  14.192   4.832
31688W        W97168  35.982  19.172   1.262
31689W        W97169  10.337  25.617  14.019
31690W        W97170  43.508  12.238   4.698
31691W        W97171  40.441  34.608  12.831
31692W        W97172  41.513   2.841   4.318
31693W        W97173  30.013  37.931  11.074
31694W        W97174  44.801   2.822  11.996
31695W        W97175   9.736  18.712   4.682
31696W        W97176   8.340  10.147  13.851
31697W        W97177  18.634  36.854   0.900
31698W        W97178  39.544  13.172  13.955
31699W        W97179   9.761  21.581  13.378
31700W        W97180   1.373  39.898  10.548
31701W        W97181  22.590   2.431   2.251
31702W        W97182   3.816  18.680  12.952
31703W        W97183  22.501   2.444  14.356
31704W        W97184   6.726   6.313   3.376
31705W        W97185   9.194  27.505   4.787
31706W        W97186   7.228  39.986  13.817
31707W        W97187  17.189  36.367   9.507
31708W        W97188  14.796  22.006   3.654
31709W        W97189   5.828  38.333   1.900
31710W        W97190  26.177  40.015  13.458
31711W        W97191  28.452  17.282  10.433
31712W        W97192  38.022  41.486  14.886
31713W        W97193  33.608  12.138  12.961
31714W        W97194  20.583  19.552  11.862
31715W        W97195  32.496  43.848  14.767
31716W        W97196   7.240   4.372  10.982
31717W        W97197  16.106   9.391   3.832
31718W        W97198  16.628   1.303   4.199
31719W        W97199  14.140  36.976   4.803
31720W        W97200  20.184  43.341  10.941
31721W        W97201  23.152   3.331   2.782
31722W        W97202  30.625  35.974  10.603
31723W        W97203  19.160  36.448   4.149
31724W        W97204  29.013   5.861   0.374
31725W        W97205   4.327  12.322   4.654
31726W        W97206  25.624   8.832   4.282
31727W        W97207   8.215   1.301   2.325
31728W        W97208  11.736   2.742  10.952
31729W        W97209  17.618  33.420  10.552
31730W        W97210  33.388  35.497   2.787
31731W        W97211  39.528  15.751  14.983
31732W        W97212   4.788  26.153   1.812
31733W        W97213   5.345   8.774  11.038
31734W        W97214   7.273  31.047   0.448
31735W        W97215   7.703  35.041  10.904
31736W        W97216  22.131  13.698  11.375
31737W        W97217  21.083  35.858  11.128
31738W        W97218  37.858  33.129   3.680
31739W        W97219  11.165  16.086  10.624
31740W        W97220  19.134   2.748   3.838
31741W        W97221  19.041  34.485   1.309
31742W        W97222   7.323  32.019   1.800
31743W        W97223  15.691  44.413   3.165
31744W        W97224  20.169  44.315  12.447
31745W        W97225  28.596   9.383   4.138
31746W        W97226  14.319  43.326   4.795
31747W        W97227  37.006  34.003  13.408
31748W        W97228  29.118  35.863   1.852
31749W        W97229   4.244  40.518   3.210
31750W        W97230  41.367   0.487  10.940
31751W        W97231  42.922  19.667   0.768
31752W        W97232   1.347  39.039  12.037
31753W        W97233   4.829  21.560  13.916
31754W        W97234   7.770  10.275   4.324
31755W        W97235   1.884  19.178  13.416
31756W        W97236  15.083   5.419   2.675
31757W        W97237  10.279   4.783  11.043
31758W        W97238  33.998  15.119   2.860
31759W        W97239  26.996  36.421  13.915
31760W        W97240  20.729  28.044   0.413
31761W        W97241  22.523  21.183  13.405
31762W        W97242  14.335  18.156  11.386
31763W        W97243   2.387   6.900   4.696
31764W        W97244  26.096  34.403   0.325
31765W        W97245  20.207  35.389   1.867
31766W        W97246  32.625  32.446  11.034
31767W        W97247  15.739  28.002  12.836
31768W        W97248  12.761  21.186   1.362
31769W        W97249  22.514   6.780   0.937
31770W        W97250   3.219   9.149   2.407
31771W        W97251  11.664  10.341   2.825
31772W        W97252  42.506  26.991  11.541
31773W        W97253   0.872   5.823  11.579
31774W        W97254  42.525  41.016   4.320
31775W        W97255   6.248   9.195  11.062
31776W        W97256  13.741  36.500  11.925
31777W        W97257  19.579  43.294  14.410
31778W        W97258  18.216  21.598   3.791
31779W        W97259  31.056  21.534   4.759
31780W        W97260  16.569   8.239   3.236
31781W        W97261  11.133  42.825  12.417
31782W        W97262  31.968  25.134  12.855
31783W        W97263  29.096  18.675   3.339
31784W        W97264  38.543  23.039  10.909
31785W        W97265  40.859  28.565  10.995
31786W        W97266  17.738  32.527  14.917
31787W        W97267  35.043  12.276  12.382
31788W        W97268  20.045  20.265   3.716
31789W        W97269   6.187   3.888  14.470
31790W        W97270  40.407  21.019  12.087
31791W        W97271  17.787  27.668  13.048
31792W        W97272  23.079  34.945   1.774
31793W        W97273   8.872  34.613  12.864
31794W        W97274  24.124  30.141   0.946
31795W        W97275  16.576  29.068   3.765
31796W        W97276  39.487  43.302   2.821
31797W        W97277  28.109  44.372  13.352
31798W        W97278  33.405  41.314   0.330
31799W        W97279  25.218   2.319   2.285
31800W        W97280  18.591  32.429  13.031
31801W        W97281  11.699   5.924  14.388
31802W        W97282  17.177  36.849   0.749
31803W        W97283  28.659  42.818  11.915
31804W        W97284  32.054  43.804  13.310
31805W        W97285   4.815  13.729  12.080
31806W        W97286  27.655  11.217  12.902
31807W        W97287  32.439  25.200  13.386
31808W        W97288  33.570  25.043   1.790
31809W        W97289  18.651  34.103   3.665
31810W        W97290  34.519   0.298  10.571
31811W        W97291  37.524  36.011  12.976
31812W        W97292  36.921  32.014   2.399
31813W        W97293  27.105  30.128  13.890
31814W        W97294  27.449  43.901   1.419
31815W        W97295  34.929  18.262   3.745
31816W        W97296  11.798  21.117   3.166
31817W        W97297  25.010  23.654  12.017
31818W        W97298   7.401  20.724  11.054
31819W        W97299  28.998  29.430   4.273
31820W        W97300  44.837  10.279   1.346
31821W        W97301  39.491  10.659  12.828
31822W        W97302  24.660  40.476   4.719
31823W        W97303  22.091   9.206  13.005
31824W        W97304  14.137  42.445  13.019
31825W        W97305  38.326  42.335  10.461
31826W        W97306  40.353  25.204   1.331
31827W        W97307  24.109  13.138  14.514
31828W        W97308   2.787   6.842  10.915
31829W        W97309   8.766  15.798  13.433
31830W        W97310  16.164  15.247   3.230
31831W        W97311  35.396  37.528   3.167
31832W        W97312  39.456   2.306   1.802
31833W        W97313  37.526  10.328   0.414
31834W        W97314  19.229  32.982  14.490
31835W        W97315   1.889  41.471   2.269
31836W        W97316  21.726  14.126  13.880
31837W        W97317   4.844  13.150   2.751
31838W        W97318  37.841  30.426  10.567
31839W        W97319  20.028  30.649  13.920
31840W        W97320   7.789   1.814  11.381
31841W        W97321   1.370   0.273  12.503
31842W        W97322  14.335   5.298   4.145
31843W        W97323   6.207  28.084   0.924
31844W        W97324  39.828  35.029   3.314
31845W        W97325  39.853   9.362   3.263
31846W        W97326  21.725  29.658   1.237
31847W        W97327  24.117   6.422   4.136
31848W        W97328  24.031  12.209   0.852
31849W        W97329  13.305  23.554  13.845
31850W        W97330  44.262  41.304   4.267
31851W        W97331  34.041  12.612  13.413
31852W        W97332  12.760  21.513  12.882
31853W        W97333  30.074   7.345   0.442
31854W        W97334   4.443   2.736  12.513
31855W        W97335  14.319  26.624   4.634
31856W        W97336  10.845  29.105  10.968
31857W        W97337  15.643   8.864  13.962
31858W        W97338  36.048  21.692   4.774
31859W        W97339  39.832  26.179   4.276
31860W        W97340  38.829  36.059  11.400
31861W        W97341  12.749   3.826  11.598
31862W        W97342  20.695  42.801   0.740
31863W        W97343  10.738  10.198   3.339
31864W        W97344  32.407  13.299   0.895
31865W        W97345  26.046  31.556  12.470
31866W        W97346  41.484  12.619  10.568
31867W        W97347  27.461  20.752  13.992
31868W        W97348  36.075  44.399   0.393
31869W        W97349  12.324  13.768  13.482
31870W        W97350  26.039  26.508  13.320
31871W        W97351  42.386  17.670   1.786
31872W        W97352  44.439  16.255   3.291
31873W        W97353  24.619  14.622  11.587
31874W        W97354   6.371  28.455   3.707
31875W        W97355  27.968  27.079   4.336
31876W        W97356  10.247   8.262   4.344
31877W        W97357  21.238  35.554  10.448
31878W        W97358  24.012  44.456  11.553
31879W        W97359  36.351  30.970   2.333
31880W        W97360   6.886   0.405  10.945
31881W        W97361  13.150   1.365  13.996
31882W        W97362   3.448  15.588  12.381
31883W        W97363   6.831  28.572   4.789
31884W        W97364   6.886  38.464  12.917
31885W        W97365  20.137  31.055   4.172
31886W        W97366  31.946  38.031   3.302
31887W        W97367  15.210  30.639  11.395
31888W        W97368  26.591  21.668  10.569
31889W        W97369   8.821  37.407  10.022
31890W        W97370   0.854  42.359  13.432
31891W        W97371  18.781  34.013   4.203
31892W        W97372   6.184  19.086   4.237
31893W        W97373  26.139  13.279  12.536
31894W        W97374  40.505  26.981   4.156
31895W        W97375  22.616  32.542  11.509
31896W        W97376  30.612  24.223   0.366
31897W        W97377  44.343   1.933   0.862
31898W        W97378  33.108  16.141  11.112
31899W        W97379  10.793   0.776  11.379
31900W        W97380   8.710   3.244  12.552
31901W        W97381  30.948  30.435  10.526
31902W        W97382  30.574  23.720  13.341
31903W        W97383  28.675  23.683  14.864
31904W        W97384   4.412  10.731  14.922
31905W        W97385  26.183  24.227   4.311
31906W        W97386  24.556  26.102   4.312
31907W        W97387  30.088  21.182   1.875
31908W        W97388  30.114  36.090   3.350
31909W        W97389  15.176   4.384  12.563
31910W        W97390  11.298  12.764   0.916
31911W        W97391  39.812   2.807  11.496
31912W        W97392  34.099  29.524  12.446
31913W        W97393  17.598  39.492  13.914
31914W        W97394  37.348  42.800   3.168
31915W        W97395  15.299  43.377   0.777
31916W        W97396  38.551   4.449   9.464
31917W        W97397  14.787  38.410   0.308
31918W        W97398  28.443   4.771  12.368
31919W        W97399   4.783  40.369   0.877
31920W        W97400  10.278  25.565  10.506
31921W        W97401  19.647  18.682  13.855
31922W        W97402   0.343  29.653   3.242
31923W        W97403  44.467  31.522  11.526
31924W        W97404   1.266  29.445   1.451
31925W        W97405  27.067   8.226   3.201
31926W        W97406   0.342  36.078   3.752
31927W        W97407  32.502   4.355   1.448
31928W        W97408  37.359  36.568  12.468
31929W        W97409   9.686   9.760   3.779
31930W        W97410  29.591  16.191  11.047
31931W        W97411  12.302   3.871   0.730
31932W        W97412  42.471  30.982  11.021
31933W        W97413  28.551  29.919  14.028
31934W        W97414   7.779  23.205   1.257
31935W        W97415  21.580  40.332  12.475
31936W        W97416   0.383   5.257  12.060
31937W        W97417  14.317  28.972  11.454
31938W        W97418  28.967   3.830   4.257
31939W        W97419  33.108  17.080   4.720
31940W        W97420  30.649  10.638  12.873
31941W        W97421  32.904  29.451  10.898
31942W        W97422   7.777  12.174   2.825
31943W        W97423   1.775  31.576  10.607
31944W        W97424   1.802  25.181  14.356
31945W        W97425  35.915  15.747   1.917
31946W        W97426  15.093  27.656   4.702
31947W        W97427  23.209   0.480  14.906
31948W        W97428   0.361  32.503   0.765
31949W        W97429  24.075   9.201  12.093
31950W        W97430  25.519  13.744   2.739
31951W        W97431  31.958  26.020  12.033
31952W        W97432  22.731   4.355   1.324
31953W        W97433   4.759  28.599   3.769
31954W        W97434  12.654   2.845   2.803
31955W        W97435  19.707  25.984  13.540
31956W        W97436   6.317  38.850  10.994
31957W        W97437  31.626  14.252   3.338
31958W        W97438  39.458  36.580  13.446
31959W        W97439  35.984  32.051   0.818
31960W        W97440  44.899  34.045  10.624
31961W        W97441  13.162  24.124  12.574
31962W        W97442   4.360  26.674   4.687
31963W        W97443   5.352  23.705   2.751
31964W        W97444  43.301  29.959  11.497
31965W        W97445  29.085  17.158   2.838
31966W        W97446   6.417  32.459   3.649
31967W        W97447  32.495  26.461  14.488
31968W        W97448   3.936  39.855  10.144
31969W        W97449  34.433  35.361   4.175
31970W        W97450  23.020  44.352  13.028
31971W        W97451  30.985  42.520  10.615
31972W        W97452  18.149   6.852   3.647
31973W        W97453   9.778  15.659   2.772
31974W        W97454  16.586  36.946  12.537
31975W        W97455   1.329   5.276  12.015
31976W        W97456  35.986   3.414  11.935
31977W        W97457  34.462  30.503   1.824
31978W        W97458  31.548  29.454   1.727
31979W        W97459   4.404  29.165   1.320
31980W        W97460  26.065  37.061  13.904
31981W        W97461   4.908  37.900   3.652
31982W        W97462  39.909  20.250  10.004
31983W        W97463  14.643  32.636  14.500
31984W        W97464  33.426   1.810   4.279
31985W        W97465   5.697   8.858   4.730
31986W        W97466  21.660  14.323  12.527
31987W        W97467   6.908  32.627   3.831
31988W        W97468  41.314  14.310  13.923
31989W        W97469  27.019  43.442  10.631
31990W        W97470  31.617  29.078  12.504
31991W        W97471  16.073  16.245   3.697
31992W        W97472   8.817  34.428  14.351
31993W        W97473  11.197  12.293   0.343
31994W        W97474  18.264  11.137  12.899
31995W        W97475   7.345  24.574  13.447
31996W        W97476  19.541   6.304  12.395
31997W        W97477  44.365  16.661   2.686
31998W        W97478  18.751   4.904   3.702
31999W        W97479  42.985  19.138  12.908
32000W        W97480  16.247  10.351  10.014
32001W        W97481  24.670   1.378  12.089
32002W        W97482  31.975  33.474   2.841
32003W        W97483   3.925  24.545   1.740
32004W        W97484  37.369  10.217   4.116
32005W        W97485  17.216  23.605  12.042
32006W        W97486  30.609  10.290   5.082
32007W        W97487  28.178   1.297   2.261
32008W        W97488   3.913  16.742  11.116
32009W        W97489  39.424  15.588  12.474
32010W        W97490  21.689   0.309   5.240
32011W        W97491  19.748  11.720   2.298
32012W        W97492  35.036  43.491  14.819
32013W        W97493   7.359  15.159  10.453
32014W        W97494   9.834   1.935  12.442
32015W        W97495  11.254  12.771   1.402
32016W        W97496  11.361  28.492   3.233
32017W        W97497  43.419  36.570   0.321
32018W        W97498  15.232  40.493  11.604
32019W        W97499  37.429   3.370  13.967
32020W        W97500  10.759   8.298  14.510
32021W        W97501  14.251  39.460   2.705
32022W        W97502   1.293  25.182   0.911
32023W        W97503   5.259  24.166  12.394
32024W        W97504  17.781   8.282  11.543
32025W        W97505  37.971  23.131   4.633
32026W        W97506  15.762  27.156  11.028
32027W        W97507  10.325  24.072  13.369
32028W        W97508  16.733  11.745  14.492
32029W        W97509  13.122   3.248   0.260
32030W        W97510   7.899  22.068   4.284
32031W        W97511   1.279   1.955  10.417
32032W        W97512  42.452  38.045   1.907
32033W        W97513  15.669  25.499   3.227
32034W        W97514  18.775  26.681   2.704
32035W        W97515  32.916   2.264  10.566
32036W        W97516  42.293  14.805  14.378
32037W        W97517  23.619  37.851   0.357
32038W        W97518  31.963   0.946  11.568
32039W        W97519  24.581  43.355   3.225
32040W        W97520  18.777   6.311  14.396
32041W        W97521  30.063  25.141   1.777
32042W        W97522  13.156  11.334   0.925
32043W        W97523  14.326  20.060  12.505
32044W        W97524  12.779   5.306  11.879
32045W        W97525   3.330  21.224  13.035
32046W        W97526   1.454  36.079   4.214
32047W        W97527   1.420  38.923  13.834
32048W        W97528   1.430  36.361  13.481
32049W        W97529  16.566  19.247   0.464
32050W        W97530  37.410  28.520   2.759
32051W        W97531  17.236   9.156  13.010
32052W        W97532   5.381   6.393  14.830
32053W        W97533  37.382  37.367  13.866
32054W        W97534  32.051  25.589  10.564
32055W        W97535  18.686   1.770  13.799
32056W        W97536  10.292  16.571   3.212
32057W        W97537  20.689  23.118  11.492
32058W        W97538  28.087  21.534  11.973
32059W        W97539  31.956  29.054  13.987
32060W        W97540  23.188  34.898   1.441
32061W        W97541  22.562  12.207  14.361
32062W        W97542  29.160  37.975  11.987
32063W        W97543  24.552   9.692   2.778
32064W        W97544  37.902   1.302   3.221
32065W        W97545   6.253  31.937  11.967
32066W        W97546  32.130  41.853   0.736
32067W        W97547   9.672   7.820   2.818
32068W        W97548  32.489   5.340   0.826
32069W        W97549   9.214  30.038  14.285
32070W        W97550   2.950  21.529   0.252
32071W        W97551  32.063  44.777   4.250
32072W        W97552  26.642  26.616  13.796
32073W        W97553  34.865  25.136  10.084
32074W        W97554  31.617  18.220   1.355
32075W        W97555  22.689  20.650   1.266
32076W        W97556  24.703  29.666  13.863
32077W        W97557  31.898  25.040   0.930
32078W        W97558   8.782  40.346  11.085
32079W        W97559  24.202   3.840  14.408
32080W        W97560  26.674  42.885   2.412
32081W        W97561  31.518  39.544   1.390
32082W        W97562  19.161  10.252   3.726
32083W        W97563  30.141  23.163   2.365
32084W        W97564  34.513  34.906  13.481
32085W        W97565   8.374  35.439   2.313
32086W        W97566  42.921  25.525  12.377
32087W        W97567  30.540  37.896   2.840
32088W        W97568   5.273   0.871   3.696
32089W        W97569  32.438   1.480   1.891
32090W        W97570  26.502  10.868  14.835
32091W        W97571  13.721  36.094   0.825
32092W        W97572  40.859  29.056   3.823
32093W        W97573  15.290  25.977  11.965
32094W        W97574  20.039  28.964  13.323
32095W        W97575  44.981  43.815   3.362
32096W        W97576  30.596   2.870   4.294
32097W        W97577  24.118   5.931  14.780
32098W        W97578   2.435  42.826  14.011
32099W        W97579  33.447  22.503   0.787
32100W        W97580  12.190  33.447   4.117
32101W        W97581   8.796  30.606  13.927
32102W        W97582  40.472  22.251   3.673
32103W        W97583  17.702  41.002   2.674
32104W        W97584  29.433  15.729   0.751
32105W        W97585  36.896  30.096   0.464
32106W        W97586  31.530  36.580  14.474
32107W        W97587  42.414  32.061  13.910
32108W        W97588  28.454   8.844  12.476
32109W        W97589  22.609  34.872   4.252
32110W        W97590  36.917  32.042   4.747
32111W        W97591  33.452  21.717  12.519
32112W        W97592  37.490  33.516  13.415
32113W        W97593  41.852  22.206  12.884
32114W        W97594  34.899  25.179   0.881
32115W        W97595  32.954  11.703  13.038
32116W        W97596  26.043  15.198  12.078
32117W        W97597  38.535  27.672   1.696
32118W        W97598  27.599   6.345  11.578
32119W        W97599  11.349  11.267   1.776
32120W        W97600  34.453  42.944   1.857
32121W        W97601  44.964  40.443   1.408
32122W        W97602   6.204  25.689   1.254
32123W        W97603  13.125  42.965  13.488
32124W        W97604   1.418  39.380   4.821
32125W        W97605  18.549  34.475   2.892
32126W        W97606   4.913  28.082   4.822
32127W        W97607  44.267  17.681  14.978
32128W        W97608   2.801   4.788  11.435
32129W        W97609  25.012  44.884   9.937
32130W        W97610   7.323  44.883  12.347
32131W        W97611  10.860  34.952  13.364
32132W        W97612  20.064  12.227  13.398
32133W        W97613  26.672   5.283   0.431
32134W        W97614   0.915  34.021   0.272
32135W        W97615  31.077  43.019  12.496
32136W        W97616  22.675   6.221   3.185
32137W        W97617   5.398  17.684   0.359
32138W        W97618  38.407  32.117   4.624
32139W        W97619   6.350   8.172   4.333
32140W        W97620  26.477  37.445  11.573
32141W        W97621  37.922  37.967   2.861
32142W        W97622  15.099   3.427   1.846
32143W        W97623  20.231  12.698  10.456
32144W        W97624   4.927   3.775  13.349
32145W        W97625  42.293  17.072   2.710
32146W        W97626  36.859  11.699   0.461
32147W        W97627  39.370  38.989  12.018
32148W        W97628  28.649  34.063   4.783
32149W        W97629  28.529  44.311   9.971
32150W        W97630   8.803   4.908   4.822
32151W        W97631  22.186  31.473  10.637
32152W        W97632  22.656  15.727   4.799
32153W        W97633  41.316   9.782  13.045
32154W        W97634   7.385   3.359   3.293
32155W        W97635  18.720  26.017   1.914
32156W        W97636   5.891  32.510   2.242
32157W        W97637  38.027  40.374   0.917
32158W        W97638  27.991  21.700  14.402
32159W        W97639  37.520   7.243  12.385
32160W        W97640   3.279  12.712   2.863
32161W        W97641  36.375  17.082   4.187
32162W        W97642  18.102   9.337  14.768
32163W        W97643   0.871   6.845   0.277
32164W        W97644  43.767  41.032  12.555
32165W        W97645  27.597  29.143   0.388
32166W        W97646  42.397   5.259   0.383
32167W        W97647  32.140   6.793  12.920
32168W        W97648  12.795  35.590   3.867
32169W        W97649   8.823  31.485  10.462
32170W        W97650  35.435  19.049   0.381
32171W        W97651  18.776  33.580   4.310
32172W        W97652  25.659  43.378   2.386
32173W        W97653   8.352  21.157  13.426
32174W        W97654   7.834  27.144   3.344
32175W        W97655  12.818  32.944  11.966
32176W        W97656   2.964  31.899   1.773
32177W        W97657  33.930   4.803   4.299
32178W        W97658  24.101  30.416   9.975
32179W        W97659  10.191  44.485   0.961
32180W        W97660  29.170   4.366   1.811
32181W        W97661  28.587   4.353  14.932
32182W        W97662   1.755   4.894  11.488
32183W        W97663   6.801  36.012  12.496
32184W        W97664  24.080  23.679   3.187
32185W        W97665   7.240  35.959  11.047
32186W        W97666  12.186  28.007   2.858
32187W        W97667   8.350  42.914  10.453
32188W        W97668  31.112  18.700   3.382
32189W        W97669  17.598   9.226   1.431
32190W        W97670  31.446  33.005  11.383
32191W        W97671  42.870  41.036  10.902
32192W        W97672   4.730  17.667  14.956
32193W        W97673  42.445  28.514   2.809
32194W        W97674  30.094   3.339   4.763
32195W        W97675  34.984  18.195   2.742
32196W        W97676  14.599  43.884   3.265
32197W        W97677  33.043  27.095   0.404
32198W        W97678  23.734  36.547  11.507
32199W        W97679  41.485  21.127   0.765
32200W        W97680  13.262  40.826   1.873
32201W        W97681   3.915   1.906  13.996
32202W        W97682  27.632  38.911   4.195
32203W        W97683  22.534  34.994   0.333
32204W        W97684  30.908   5.882   2.199
32205W        W97685  23.607  21.605  13.516
32206W        W97686  32.019  23.085  14.354
32207W        W97687  27.036  10.644   3.842
32208W        W97688   3.894   4.903   1.438
32209W        W97689  34.106  13.840   4.665
32210W        W97690  10.295   0.819   4.804
32211W        W97691  39.062  14.711  10.437
32212W        W97692  19.278  11.646   2.754
32213W        W97693   7.844   2.240   2.710
32214W        W97694  20.155   0.841  10.121
32215W        W97695   0.824  31.940  14.022
32216W        W97696   4.401   1.762  12.417
32217W        W97697  44.402   3.347   3.747
32218W        W97698  14.304  16.598   1.344
32219W        W97699  15.084  22.081   2.726
32220W        W97700  19.721  44.903  13.913
32221W        W97701  25.665  43.827   0.967
32222W        W97702  41.309  20.157   3.290
32223W        W97703   2.426  35.973   3.220
32224W        W97704   3.278  43.858  13.986
32225W        W97705   6.794  32.116  13.524
32226W        W97706  10.656   6.859   4.143
32227W        W97707  18.630  30.086   4.114
32228W        W97708   3.321  28.527  11.372
32229W        W97709  25.601  44.986   0.344
32230W        W97710  22.108  31.092  14.777
32231W        W97711   8.393  13.705   3.649
32232W        W97712   0.758  23.664  12.468
32233W        W97713   7.850  28.564  13.951
32234W        W97714  28.625   9.650   3.200
32235W        W97715  15.278  31.904   3.238
32236W        W97716  25.556  20.249   0.756
32237W        W97717  34.998   9.197   0.891
32238W        W97718  34.865  21.149  12.078
32239W        W97719  22.064  40.816  14.782
32240W        W97720  20.186  34.899  13.798
32241W        W97721  30.572  22.632  10.441
32242W        W97722  26.468  33.003   0.409
32243W        W97723  10.826   4.900  11.951
32244W        W97724   3.899  22.016  13.988
32245W        W97725  32.101  29.077   4.657
32246W        W97726  33.115  14.320   3.318
32247W        W97727  35.895  18.072   4.236
32248W        W97728   5.421  14.281   4.349
32249W        W97729  21.132  39.531   2.381
32250W        W97730  28.549  37.837  10.416
32251W        W97731  29.632  35.992   1.707
32252W        W97732  36.009  24.682   1.793
32253W        W97733  27.126  33.038  14.799
32254W        W97734  11.764  30.469   2.806
32255W        W97735   8.291  23.637  14.978
32256W        W97736  26.648  44.441   1.288
32257W        W97737  44.974  35.514   0.782
32258W        W97738  40.810  36.860  13.420
32259W        W97739  41.394  24.027  11.019
32260W        W97740  35.463   9.290   3.761
32261W        W97741  30.491  15.737  13.939
32262W        W97742   5.875  22.639  10.449
32263W        W97743  14.187   4.328   2.255
32264W        W97744  13.794  25.566   4.154
32265W        W97745   1.883  23.180   1.291
32266W        W97746   7.671  15.596   0.917
32267W        W97747  38.064  22.007  12.832
32268W        W97748  14.637   8.389   3.782
32269W        W97749  42.989   0.272   0.759
32270W        W97750  14.677  14.274   2.285
32271W        W97751  25.203   0.795  11.491
32272W        W97752  35.988  17.205  12.879
32273W        W97753  37.929  22.526  13.802
32274W        W97754  38.980  34.010  11.432
32275W        W97755  39.516  20.600   3.682
32276W        W97756  14.310   3.917  10.565
32277W        W97757  28.462  14.124   4.612
32278W        W97758  35.873  40.942   3.296
32279W        W97759  42.449  20.184  12.935
32280W        W97760  35.029   6.691   3.631
32281W        W97761  33.104  39.551   3.321
32282W        W97762  18.748  33.129   4.740
32283W        W97763   0.322  33.898   3.663
32284W        W97764  12.803  12.320   4.683
32285W        W97765  17.580   4.260  14.019
32286W        W97766  12.254  15.141   1.213
32287W        W97767  12.662  17.155  12.568
32288W        W97768  28.468   0.251  14.939
32289W        W97769   6.752  31.007  13.054
32290W        W97770  17.733  28.052   3.753
32291W        W97771  31.988  16.732   0.248
32292W        W97772  38.365  39.040   3.201
32293W        W97773   8.665  29.511  10.498
32294W        W97774  42.982  19.237   0.308
32295W        W97775  42.476  33.515   1.884
32296W        W97776   7.342   7.243   0.271
32297W        W97777  18.626  33.987   2.179
32298W        W97778  19.152  16.295  14.831
32299W        W97779  15.328  12.342  12.539
32300W        W97780   8.385  22.048  10.626
32301W        W97781  38.540   7.792   3.293
32302W        W97782  25.710   7.174   1.415
32303W        W97783  21.195   7.332  11.378
32304W        W97784   0.408  33.875  14.988
32305W        W97785  19.662  22.190  10.601
32306W        W97786   8.833  42.973   2.184
32307W        W97787  19.199  43.386  10.596
32308W        W97788  40.441  13.288  14.845
32309W        W97789  16.209  35.951   2.750
32310W        W97790  16.583  25.628  11.439
32311W        W97791   4.384  23.012   0.745
32312W        W97792   8.897  26.108  14.776
32313W        W97793  11.844  19.131  13.321
32314W        W97794  34.550  25.561   2.268
32315W        W97795  10.637  39.878  13.030
32316W        W97796  22.674   9.759   4.646
32317W        W97797  39.821  37.420   4.125
32318W        W97798  31.503  44.400   0.889
32319W        W97799  19.164  29.546  10.054
32320W        W97800  19.620  36.386  14.378
32321W        W97801  20.103  11.295   4.715
32322W        W97802  10.754  44.813  10.612
32323W        W97803  39.002   7.284  11.952
32324W        W97804  20.523   9.185  13.947
32325W        W97805  22.137  32.941   3.856
32326W        W97806  38.972  16.712   2.704
32327W        W97807  28.435  42.000  11.387
32328W        W97808  36.946  34.904  11.456
32329W        W97809  38.387  30.115   0.762
32330W        W97810  40.413  34.946   4.342
32331W        W97811   6.332   5.906  13.043
32332W        W97812  39.828  17.660  13.966
32333W        W97813  24.546  37.088   0.292
32334W        W97814  39.809  36.013   2.738
32335W        W97815  40.448  26.659  14.774
32336W        W97816  42.302   9.841   4.214
32337W        W97817  22.625  44.919  11.446
32338W        W97818   7.782  20.243   4.621
32339W        W97819  10.192  40.541   1.318
32340W        W97820  19.223  35.549   3.180
32341W        W97821  35.584  14.766   4.182
32342W        W97822  18.051  28.546   0.937
32343W        W97823  37.359  21.707   3.208
32344W        W97824  35.951  40.474   3.330
32345W        W97825  18.690  23.726  11.596
32346W        W97826  36.874  28.023  11.940
32347W        W97827   9.833  26.523  14.392
32348W        W97828  23.551  16.123  14.326
32349W        W97829  30.028  35.522   1.701
32350W        W97830  34.863  14.619   0.270
32351W        W97831  38.488  25.562   3.711
32352W        W97832  33.544  31.553  12.032
32353W        W97833   4.264  20.139   4.268
32354W        W97834   5.207  40.373  13.373
32355W        W97835  39.976  14.327  11.468
32356W        W97836  34.401  31.419   3.805
32357W        W97837  37.054  15.706  11.102
32358W        W97838  16.275   2.317   2.685
32359W        W97839   2.866   9.229   3.792
32360W        W97840   1.760  11.646  11.592
32361W        W97841   0.751  11.165  14.312
32362W        W97842  24.199  23.649  11.866
32363W        W97843   4.868   6.707  10.406
32364W        W97844   8.333   7.394  12.886
32365W        W97845  20.631  31.419   1.294
32366W        W97846   9.370  26.509   3.238
32367W        W97847  32.039  21.130  10.578
32368W        W97848  37.336  31.973   1.822
32369W        W97849  40.419  25.694   1.822
32370W        W97850  44.282  30.635  12.851
32371W        W97851  40.930  22.507  11.922
32372W        W97852  41.988  14.226   4.787
32373W        W97853   0.390  15.119  14.328
32374W        W97854  27.642  23.526   0.964
32375W        W97855  11.336  13.838   3.735
32376W        W97856  41.446  30.604   3.282
32377W        W97857  27.191  29.957  11.384
32378W        W97858  26.562  24.197   1.215
32379W        W97859  29.002  16.583  13.032
32380W        W97860   7.356  29.549  14.391
32381W        W97861   1.883  24.987  13.525
32382W        W97862   5.796  17.737  11.525
32383W        W97863  15.205  32.392  13.882
32384W        W97864  13.772  11.241   4.745
32385W        W97865   7.414   8.666   4.147
32386W        W97866   1.385   9.256   2.330
32387W        W97867   3.904  15.635  13.439
32388W        W97868  19.279  17.277  10.619
32389W        W97869  37.404  35.408  13.980
32390W        W97870  30.659  23.562   4.736
32391W        W97871  11.860  31.030  14.375
32392W        W97872  23.198  33.454   2.213
32393W        W97873   6.417  34.597   1.700
32394W        W97874  44.915  39.330   3.796
32395W        W97875   2.791  38.397  12.909
32396W        W97876  40.495  10.373   1.852
32397W        W97877  33.954   3.456   1.347
32398W        W97878  18.558  13.233  11.968
32399W        W97879   4.408  14.659   3.848
32400W        W97880  36.886  39.999   4.609
32401W        W97881  22.723   3.949   3.328
32402W        W97882  23.192   9.236  14.340
32403W        W97883   3.243  18.224   2.888
32404W        W97884   8.329  31.150  10.465
32405W        W97885  16.145  20.728   1.448
32406W        W97886   5.357  12.707  14.375
32407W        W97887  42.841  31.500  12.356
32408W        W97888  15.740  19.204   3.385
32409W        W97889  16.603  40.401   2.372
32410W        W97890  21.536  18.153   2.374
32411W        W97891  23.513  10.846   2.287
32412W        W97892   7.215   6.697  14.885
32413W        W97893  39.539  17.623  11.018
32414W        W97894  12.810  37.426   3.158
32415W        W97895  31.925   8.863  10.144
32416W        W97896  32.573  32.004   3.148
32417W        W97897  43.369  42.973  13.791
32418W        W97898  30.124  22.686   4.818
32419W        W97899  31.053  13.621  13.933
32420W        W97900  43.374  41.497   1.904
32421W        W97901  30.478   2.881  11.120
32422W        W97902   7.378  37.552  13.324
32423W        W97903   5.931  27.519   1.231
32424W        W97904  44.345   9.211   1.342
32425W        W97905  20.258  23.176   1.406
32426W        W97906   2.753  14.628  14.341
32427W        W97907   8.828  36.087  14.854
32428W        W97908   9.838   7.821  14.875
32429W        W97909  10.845   0.820  14.450
32430W        W97910  12.176  35.927  12.827
32431W        W97911  27.077  16.590  12.855
32432W        W97912  14.218  37.336   1.727
32433W        W97913  16.742  33.499  13.057
32434W        W97914  11.807  22.576  12.539
32435W        W97915  38.848  33.470  14.830
32436W        W97916  31.640  15.778  11.021
32437W        W97917  22.128  29.644   3.665
32438W        W97918   4.382  30.423  12.867
32439W        W97919  19.228  15.707   0.462
32440W        W97920  14.305  23.674  14.857
32441W        W97921  22.209   7.338  12.483
32442W        W97922  43.988  15.188  10.468
32443W        W97923  10.365  30.431   1.826
32444W        W97924  43.955  18.776  13.935
32445W        W97925   7.810  28.670  11.967
32446W        W97926  23.158  10.665  14.876
32447W        W97927   9.815  44.378   0.331
32448W        W97928  21.147  13.733   0.733
32449W        W97929   7.396  11.185  14.761
32450W        W97930  41.449  35.400   0.394
32451W        W97931  32.055  36.347   0.458
32452W        W97932  31.496  28.085   0.371
32453W        W97933  10.221   2.940  14.323
32454W        W97934  24.191  31.020   2.302
32455W        W97935  22.516  11.673   4.632
32456W        W97936  30.500  37.053   3.327
32457W        W97937  16.737  39.513   4.730
32458W        W97938   0.274  43.377  13.513
32459W        W97939  11.710  17.691  13.022
32460W        W97940  12.757  24.211  12.829
32461W        W97941  37.897  37.855  10.413
32462W        W97942  29.094  13.826  14.892
32463W        W97943   3.427  39.510   2.676
32464W        W97944  18.173  17.089  13.927
32465W        W97945  19.108  14.751  10.596
32466W        W97946  26.160  11.863   0.909
32467W        W97947  39.393   1.839   4.728
32468W        W97948  30.116   6.851   1.348
32469W        W97949  28.041  42.845  11.861
32470W        W97950  22.247  42.944   2.765
32471W        W97951  11.206  37.451  13.879
32472W        W97952  29.173  18.755   0.792
32473W        W97953  42.491   4.363  12.440
32474W        W97954  30.426  31.995   0.858
32475W        W97955  10.379   7.684   4.198
32476W        W97956  37.933  32.036   3.290
32477W        W97957   0.377  24.639   2.285
32478W        W97958  14.242  36.956   4.205
32479W        W97959  17.284  44.976   1.851
32480W        W97960  17.138  28.991   2.393
32481W        W97961  36.514  41.407  14.509
32482W        W97962  20.555  37.409  13.330
32483W        W97963  32.925   9.839   1.391
32484W        W97964  20.641  30.505   2.186
32485W        W97965  19.242  30.086  10.067
32486W        W97966  43.435  38.410  10.641
32487W        W97967  35.054  13.791   4.334
32488W        W97968   0.350  40.515   0.767
32489W        W97969  25.699  37.561  11.388
32490W        W97970   2.803  27.683  12.848
32491W        W97971  29.478   4.384   0.858
32492W        W97972   2.737  42.843   0.314
32493W        W97973  15.169  24.660  14.403
32494W        W97974  17.590   3.894  14.031
32495W        W97975   2.914  39.828   4.231
32496W        W97976  23.501   5.277   1.415
32497W        W97977  11.367  42.928  11.495
32498W        W97978  36.454  37.001   0.932
32499W        W97979  41.337  15.257  12.863
32500W        W97980  22.020  11.821  10.460
32501W        W97981  38.906  19.582  11.892
32502W        W97982  31.612  28.179  12.990
32503W        W97983  43.898  29.010  12.040
32504W        W97984   2.331  40.925  13.421
32505W        W97985  20.591  24.519   2.215
32506W        W97986  40.970  19.733   4.269
32507W        W97987  20.615  35.938   2.721
32508W        W97988  34.056  41.919   0.261
32509W        W97989  33.069  41.415  12.410
32510W        W97990  26.471  20.547   4.824
32511W        W97991  43.283  13.785  12.926
32512W        W97992  42.803  36.348   5.216
32513W        W97993  35.914   4.441  12.908
32514W        W97994   9.248  31.940  12.554
32515W        W97995   1.821   7.776   0.880
32516W        W97996  26.205   1.269  10.573
32517W        W97997   2.341   9.200   4.722
32518W        W97998  44.434  29.578  14.849
32519W        W97999  22.586  32.090  11.869
32520W        W98000  22.576  12.250   0.341
32521W        W98001  25.709  29.515   3.217
32522W        W98002   9.384  23.627   1.755
32523W        W98003  11.644   6.254   0.744
32524W        W98004  13.318   7.840  13.539
32525W        W98005  12.819  44.262  13.438
32526W        W98006   1.374   7.765  10.621
32527W        W98007  10.731  29.170   0.745
32528W        W98008   6.807  37.398  12.423
32529W        W98009  29.021  37.864  14.437
32530W        W98010  21.242  10.224  11.472
32531W        W98011  39.481  11.329  11.122
32532W        W98012  21.695   2.808   2.342
32533W        W98013   9.659  17.788  10.475
32534W        W98014  14.130  14.726   1.222
32535W        W98015   6.270  32.585   0.885
32536W        W98016   3.916   4.788   0.344
32537W        W98017  14.192   2.843   4.644
32538W        W98018  18.765  23.199  13.820
32539W        W98019   3.337  43.998   4.773
32540W        W98020  29.042   5.214   0.842
32541W        W98021  11.214  13.717  14.896
32542W        W98022  26.035  17.292  14.896
32543W        W98023   8.385  40.838   3.817
32544W        W98024   6.805  12.777   1.399
32545W        W98025   2.399  12.797   3.744
32546W        W98026  10.249  23.674   4.192
32547W        W98027  12.145  29.636  10.965
32548W        W98028  44.327   0.850  11.942
32549W        W98029  24.142  11.646   3.654
32550W        W98030  24.513  31.509   1.823
32551W        W98031  19.560  18.641   4.240
32552W        W98032  22.607  31.971   0.779
32553W        W98033  31.066  43.834  14.848
32554W        W98034  40.502   8.896   2.395
32555W        W98035  22.682  33.544  14.491
32556W        W98036  23.630   7.899   0.385
32557W        W98037   2.315  31.480  13.963
32558W        W98038  39.379   9.872  11.101
32559W        W98039  24.085  21.158   5.288
32560W        W98040  18.156   1.937  11.006
32561W        W98041  27.485  23.074   0.756
32562W        W98042  10.757  35.378   0.423
32563W        W98043  18.149  36.522   0.466
32564W        W98044  41.392  25.548  14.451
32565W        W98045  44.266  44.894   3.688
32566W        W98046  35.900   4.330   4.693
32567W        W98047   9.801  16.768   3.648
32568W        W98048  41.922  36.863   0.261
32569W        W98049  31.574  18.215   1.920
32570W        W98050  39.980  44.881  12.002
32571W        W98051  43.321  23.558  10.927
32572W        W98052  21.691  13.718  13.522
32573W        W98053   0.461  26.023  10.929
32574W        W98054  24.095   7.706  13.796
32575W        W98055  42.845  18.141  14.334
32576W        W98056   3.784  26.509   0.379
32577W        W98057  37.581  26.631  14.789
32578W        W98058   6.907  43.831   0.482
32579W        W98059  15.191  39.325  11.580
32580W        W98060   8.279  33.108   0.318
32581W        W98061  18.140  44.299  13.053
32582W        W98062  14.166  24.065  11.592
32583W        W98063  36.413  29.046   3.712
32584W        W98064  17.100   6.262   5.082
32585W        W98065  10.350  10.652  10.960
32586W        W98066  24.034  27.676   0.804
32587W        W98067  37.052   2.760  13.868
32588W        W98068  22.590  26.626   4.692
32589W        W98069  32.528   5.858   1.288
32590W        W98070   9.886  21.174  14.903
32591W        W98071  30.139  23.495   3.253
32592W        W98072  19.692  13.120   4.256
32593W        W98073  18.125  37.051   2.253
32594W        W98074   8.713  21.088   2.833
32595W        W98075  38.007  23.037  12.405
32596W        W98076  21.179  36.949   3.702
32597W        W98077  10.828   9.837  14.336
32598W        W98078  41.942  36.048  10.465
32599W        W98079   5.768  12.273   0.356
32600W        W98080   9.201  37.034   1.791
32601W        W98081  30.542  36.451  11.881
32602W        W98082  16.654  13.806   0.815
32603W        W98083  43.373  30.017  10.896
32604W        W98084  26.082   3.345   5.083
32605W        W98085  39.896  23.101   3.219
32606W        W98086   8.197  33.581   4.837
32607W        W98087   3.311  19.535  10.556
32608W        W98088  22.638  12.659   1.929
32609W        W98089   3.220  22.126  12.388
32610W        W98090  22.562   7.730   1.867
32611W        W98091   6.193  28.598  14.464
32612W        W98092  10.333  30.633   4.173
32613W        W98093  43.772  21.717   4.343
32614W        W98094  11.349  42.512   3.642
32615W        W98095  38.876  23.024   0.816
32616W        W98096   7.254   8.814   1.319
32617W        W98097  21.535  18.072   3.821
32618W        W98098   2.738  31.596   0.293
32619W        W98099  11.787  35.581   3.342
32620W        W98100  13.166  32.008  13.971
32621W        W98101  23.677  29.087  13.018
32622W        W98102  28.473  44.387   4.648
32623W        W98103  21.660  29.490  12.566
32624W        W98104  31.061   9.190  11.559
32625W        W98105   2.876  11.706   1.420
32626W        W98106  44.305  22.543   3.353
32627W        W98107  39.056  24.046  11.041
32628W        W98108  13.605  12.302   1.891
32629W        W98109   2.752  36.037   1.828
32630W        W98110   5.695  27.547  14.328
32631W        W98111  16.079  34.868   1.831
32632W        W98112  11.723  33.442  12.907
32633W        W98113  26.052  15.764   3.347
32634W        W98114  25.534  35.361  11.097
32635W        W98115  38.872  24.522  11.881
32636W        W98116  43.798   5.746  14.308
32637W        W98117   5.202  19.561   1.291
32638W        W98118   7.717  44.935   0.261
32639W        W98119  34.566  27.467   3.727
32640W        W98120  21.751  43.511   3.673
32641W        W98121  10.756  32.921  12.561
32642W        W98122  11.702  22.236   1.302
32643W        W98123  10.147  42.448   3.169
32644W        W98124  19.201   2.780  14.000
32645W        W98125   1.470  17.112   2.333
32646W        W98126  39.944  42.303   1.312
32647W        W98127   7.742  30.446  14.304
32648W        W98128  11.682  28.038   2.834
32649W        W98129  40.485   2.458   2.664
32650W        W98130  35.437  26.066   1.839
32651W        W98131  16.086  23.516  12.969
32652W        W98132  33.619  15.615  13.430
32653W        W98133  18.597  39.959   3.702
32654W        W98134  44.930  39.018  10.902
32655W        W98135  40.849  14.590  11.437
32656W        W98136  33.451  19.623   0.298
32657W        W98137  39.036  22.734   1.894
32658W        W98138  26.990  34.929  12.482
32659W        W98139  28.119  44.467   0.450
32660W        W98140  18.246  14.278  12.517
32661W        W98141  44.461  10.334   1.738
32662W        W98142   1.434  32.391   1.806
32663W        W98143  28.088  43.823   4.757
32664W        W98144   7.870  16.672   3.660
32665W        W98145  36.368  38.967   4.726
32666W        W98146   2.867  16.799  10.436
32667W        W98147  19.597  34.011   4.219
32668W        W98148  27.165  32.894  10.936
32669W        W98149  35.014  13.641   0.414
32670W        W98150  43.337  38.492  11.944
32671W        W98151  27.452   8.180  13.432
32672W        W98152   2.941   0.477  14.762
32673W        W98153  23.138  22.201   3.207
32674W        W98154  35.395  17.255   4.144
32675W        W98155  39.356  36.454   1.878
32676W        W98156  33.442  25.634   1.696
32677W        W98157  40.420  24.023   1.331
32678W        W98158  41.473  40.513  14.377
32679W        W98159  23.721  24.014  11.050
32680W        W98160  20.758   8.715   0.399
32681W        W98161  33.466  16.203  10.519
32682W        W98162  35.537  24.999   1.441
32683W        W98163  37.448   4.706   5.279
32684W        W98164   6.337   3.809   0.821
32685W        W98165   6.857   8.727  11.423
32686W        W98166  22.176   4.814   2.885
32687W        W98167   5.877  16.697   4.204
32688W        W98168  26.519   8.200  14.837
32689W        W98169   0.302  34.904  10.617
32690W        W98170   1.410   7.829  11.513
32691W        W98171  44.483  20.537  11.431
32692W        W98172  34.919  19.676  12.409
32693W        W98173  30.920  31.086   3.155
32694W        W98174  28.007   7.763   3.736
32695W        W98175  41.458  33.897  11.973
32696W        W98176   9.199  33.535  14.970
32697W        W98177  28.017  40.968  12.003
32698W        W98178  24.045  38.953   2.214
32699W        W98179  27.575  26.988   3.780
32700W        W98180  11.739  26.096   1.708
32701W        W98181  37.070  15.758  13.393
32702W        W98182  39.518   2.310   3.847
32703W        W98183   7.811  16.724   2.294
32704W        W98184  43.992  17.785  10.593
32705W        W98185  41.952  34.051  14.879
32706W        W98186  39.896   5.368   2.838
32707W        W98187  17.756  34.433   0.452
32708W        W98188  42.501  20.239  14.957
32709W        W98189  21.186  18.277  12.847
32710W        W98190   0.819  32.562  13.937
32711W        W98191  20.140  18.145  10.479
32712W        W98192   4.872  11.841  10.492
32713W        W98193  42.422  14.589   1.800
32714W        W98194  24.549  23.565  13.448
32715W        W98195  37.523  16.735   2.780
32716W        W98196  19.164   0.930  11.075
32717W        W98197  39.338  36.092  10.957
32718W        W98198   2.768  28.108  11.006
32719W        W98199  40.484  42.829   1.882
32720W        W98200  33.526  28.049   5.089
32721W        W98201   5.272   1.907  12.063
32722W        W98202  25.646   9.258  14.861
32723W        W98203  38.502  24.601  12.524
32724W        W98204  39.885  38.966  12.487
32725W        W98205  16.282  43.319   3.334
32726W        W98206   9.694  17.241  10.507
32727W        W98207   1.948  27.186  14.293
32728W        W98208  29.157  44.766   2.869
32729W        W98209  15.740  19.084  12.843
32730W        W98210  28.055  40.462  13.422
32731W        W98211  41.502  16.255   0.437
32732W        W98212   3.443  23.724  11.981
32733W        W98213  27.570  36.886   3.377
32734W        W98214  12.205  17.672   2.385
32735W        W98215  33.875  19.670  12.417
32736W        W98216  11.286  30.059   3.761
32737W        W98217  29.154  44.470  11.091
32738W        W98218  17.190  39.526   1.394
32739W        W98219   9.768  26.062  10.410
32740W        W98220  38.013  26.500  14.451
32741W        W98221   2.958   5.389   3.773
32742W        W98222  31.020  12.723   0.320
32743W        W98223  27.173  39.832   0.925
32744W        W98224  10.688  18.078  10.486
32745W        W98225   2.390  30.020  13.547
32746W        W98226  21.660   9.659   1.352
32747W        W98227   4.308  43.446   3.367
32748W        W98228   8.238  37.835   2.869
32749W        W98229   5.696  19.121  11.071
32750W        W98230   3.405  19.603   4.705
32751W        W98231  34.517  26.154   3.173
32752W        W98232  41.395  11.241   4.718
32753W        W98233  42.901  12.325  14.001
32754W        W98234  15.711   6.261   3.209
32755W        W98235  32.460  20.198   2.814
32756W        W98236   7.852  24.615   1.900
32757W        W98237  29.458  23.535   4.615
32758W        W98238   0.473   6.208  13.337
32759W        W98239  33.070  10.847  13.882
32760W        W98240  25.545  20.562   2.342
32761W        W98241  25.005   4.310   3.764
32762W        W98242  16.260  29.552  14.398
32763W        W98243   4.368  40.350   4.677
32764W        W98244   8.287   9.304   0.473
32765W        W98245  21.527  23.540   3.246
32766W        W98246   3.282   6.877  10.638
32767W        W98247  17.292  43.944  12.925
32768W        W98248   2.367   7.348   0.733
32769W        W98249  28.963  35.028  12.433
32770W        W98250   7.677  44.484   0.854
32771W        W98251  39.522  24.194  13.540
32772W        W98252   5.878  10.831   3.856
32773W        W98253   4.846   3.227   2.338
32774W        W98254  39.002  13.260   3.809
32775W        W98255  43.003   9.871   0.449
32776W        W98256  24.607   1.828  10.918
32777W        W98257  29.624  25.042  14.786
32778W        W98258   3.338  29.626  14.465
32779W        W98259  37.449  11.359  10.526
32780W        W98260  22.046  39.002   1.305
32781W        W98261  39.014  17.751   1.346
32782W        W98262   5.209   2.773   3.777
32783W        W98263   8.335  27.144  12.421
32784W        W98264  23.195  31.647  11.393
32785W        W98265  11.705  32.451   4.258
32786W        W98266  34.504  44.802   3.236
32787W        W98267  19.093  22.706  12.376
32788W        W98268  28.488  25.705   2.267
32789W        W98269   8.224  12.278   3.186
32790W        W98270   8.349  15.661   2.767
32791W        W98271  12.236  17.199   4.249
32792W        W98272  34.491  38.929   0.945
32793W        W98273  26.980  23.133   3.228
32794W        W98274  17.702  24.063   2.901
32795W        W98275  32.980  35.950  11.446
32796W        W98276  24.586   7.409  11.407
32797W        W98277  34.399   0.266  12.509
32798W        W98278  42.794  37.834   1.871
32799W        W98279  30.092  22.085  11.877
32800W        W98280  43.800  22.230   1.700
32801W        W98281  37.932  13.770  12.566
32802W        W98282  15.625  29.525  10.457
32803W        W98283  34.469   8.663   0.848
32804W        W98284  31.906  31.942  14.425
32805W        W98285  30.088  29.945   0.858
32806W        W98286  37.403  42.925  10.149
32807W        W98287  20.591  36.391   2.698
32808W        W98288   1.467   4.736  11.975
32809W        W98289   5.838  23.525   0.397
32810W        W98290  19.256  11.738  13.814
32811W        W98291   9.224  23.160   3.260
32812W        W98292   1.924  28.524  10.909
32813W        W98293   6.815  16.276  12.912
32814W        W98294  11.195   6.854  13.905
32815W        W98295   2.441   2.723  11.514
32816W        W98296  38.398  28.187  12.896
32817W        W98297   1.909  42.438   3.197
32818W        W98298  35.542  41.876   3.859
32819W        W98299  36.533  14.729   2.247
32820W        W98300  44.896  20.546  10.937
32821W        W98301  36.957   9.289  14.855
32822W        W98302   6.882  30.619   4.352
32823W        W98303  12.676  43.956   2.255
32824W        W98304   3.720  33.579  13.874
32825W        W98305  11.784  29.029  13.003
32826W        W98306  39.027  41.364   3.802
32827W        W98307  11.364  41.369   3.203
32828W        W98308  41.855  14.294  13.033
32829W        W98309  35.038   9.362   1.412
32830W        W98310  39.485   5.705   5.260
32831W        W98311   7.738   5.259   2.723
32832W        W98312  20.675  28.545  13.384
32833W        W98313  39.541   2.353  14.004
32834W        W98314   9.344  20.625  14.513
32835W        W98315  26.560  27.499   0.913
32836W        W98316   2.857   2.236  11.441
32837W        W98317  24.624  30.991   4.354
32838W        W98318  13.811   1.829   4.232
32839W        W98319  30.431   9.681   0.899
32840W        W98320  21.582  15.804  13.830
32841W        W98321  14.160  35.953  14.430
32842W        W98322  25.487  34.097  12.563
32843W        W98323  37.386  14.791  12.370
32844W        W98324  13.775  17.657   2.213
32845W        W98325  43.500  32.552   3.364
32846W        W98326  29.035   6.302  12.047
32847W        W98327  43.932  11.343   4.736
32848W        W98328  24.975  19.168   1.266
32849W        W98329  27.033  27.111   4.831
32850W        W98330  28.533  37.457  14.308
32851W        W98331   1.960  17.164   0.775
32852W        W98332  32.441  37.852   1.779
32853W        W98333  22.122  44.411   0.750
32854W        W98334  18.641  25.020  12.043
32855W        W98335  40.810  35.953  12.014
32856W        W98336  41.786  11.130   1.739
32857W        W98337  22.182  24.058  12.462
32858W        W98338  26.548  28.059   4.347
32859W        W98339  44.347   2.888  11.005
32860W        W98340  22.702   7.243  11.999
32861W        W98341  14.737   8.328  11.064
32862W        W98342  13.603  39.481   4.270
32863W        W98343  35.505   4.414  13.960
32864W        W98344   8.768   5.756  11.481
32865W        W98345  14.826  24.656   4.666
32866W        W98346  12.122  25.585  10.961
32867W        W98347   0.870  29.477  10.577
32868W        W98348  20.694  36.473  11.960
32869W        W98349  38.022  32.052   3.832
32870W        W98350  12.298  22.560  11.436
32871W        W98351  28.520  27.043   0.442
32872W        W98352  19.192  15.577  12.450
32873W        W98353  17.183   7.336   2.184
32874W        W98354   2.891   1.878   4.327
32875W        W98355  35.877  22.568   0.325
32876W        W98356   8.721  34.401  10.589
32877W        W98357  22.550  35.569   1.732
32878W        W98358  37.502  43.514   1.375
32879W        W98359  44.417  26.087   5.165
32880W        W98360  29.043  39.468  13.474
32881W        W98361   2.346   6.401   2.226
32882W        W98362  17.777  35.078   1.851
32883W        W98363   6.208  39.891  13.316
32884W        W98364  31.553  21.257   4.271
32885W        W98365  19.244   4.330   0.457
32886W        W98366  42.391  37.048   1.313
32887W        W98367  25.100  24.046  12.052
32888W        W98368  42.957  18.739  13.831
32889W        W98369  19.765  17.580   3.865
32890W        W98370  30.008  13.174  14.391
32891W        W98371  28.025  39.536   2.278
32892W        W98372  34.960  22.611  14.943
32893W        W98373  10.716  17.250  12.400
32894W        W98374   4.428  24.086   1.726
32895W        W98375  20.218  16.303  11.564
32896W        W98376  43.953  29.591  10.922
32897W        W98377  26.204  39.539  13.370
32898W        W98378  16.716   2.467  11.990
32899W        W98379  29.079   5.914  10.449
32900W        W98380  42.843  27.022  10.498
32901W        W98381  27.475  12.327   0.402
32902W        W98382  40.422  22.199   4.689
32903W        W98383  24.490  33.024   4.823
32904W        W98384  18.284  12.738  11.537
32905W        W98385  21.671  31.996   3.305
32906W        W98386  37.002  27.553   3.778
32907W        W98387   2.387  17.661   0.760
32908W        W98388  36.406  37.515   0.818
32909W        W98389  32.084   8.270  12.563
32910W        W98390  28.534  32.578  14.868
32911W        W98391  39.045  22.654   0.900
32912W        W98392   5.784  26.089   1.360
32913W        W98393  30.536  32.602  14.028
32914W        W98394   7.346  16.209   4.789
32915W        W98395  21.192   6.919  13.378
32916W        W98396  34.037  26.564  10.438
32917W        W98397   7.181  25.089  13.938
32918W        W98398   2.319  43.886   1.809
32919W        W98399  25.076  19.215   1.725
32920W        W98400  18.170  12.655   3.340
32921W        W98401  13.703  31.568   3.215
32922W        W98402  14.114   4.875  13.854
32923W        W98403  38.836  20.700   0.874
32924W        W98404  14.691  21.200   3.219
32925W        W98405  36.432  32.017  12.902
32926W        W98406   2.962   3.745  12.432
32927W        W98407  11.793   1.921   3.820
32928W        W98408  43.817   2.384   1.371
32929W        W98409  18.588   6.716   4.773
32930W        W98410  20.160  18.288   3.266
32931W        W98411   9.174  13.814  10.527
32932W        W98412   0.391  17.721   2.320
32933W        W98413   4.376   0.361  14.766
32934W        W98414  36.371  23.172  13.503
32935W        W98415  14.767   3.811  11.394
32936W        W98416  37.374  23.191  12.440
32937W        W98417  12.703  31.581   2.741
32938W        W98418  25.678  15.114   2.849
32939W        W98419  14.721  27.597  10.930
32940W        W98420  17.674  42.387   0.339
32941W        W98421  16.747  36.889  14.393
32942W        W98422  19.567  25.615   3.356
32943W        W98423  19.660  10.168  14.862
32944W        W98424  21.723  44.295  12.553
32945W        W98425  30.586   2.231   3.245
32946W        W98426  11.351  21.153   3.333
32947W        W98427  39.028  36.093   4.687
32948W        W98428  15.197  42.311   2.264
32949W        W98429   1.375  27.050   0.312
32950W        W98430   8.794   9.697   3.745
32951W        W98431   8.864  35.852   4.218
32952W        W98432  32.009   5.857  12.498
32953W        W98433  42.475  12.223  12.472
32954W        W98434   7.762  20.719   2.691
32955W        W98435  10.176  31.914   1.789
32956W        W98436  10.155  31.090   4.615
32957W        W98437  13.221  21.147  11.100
32958W        W98438  31.555  29.980   0.849
32959W        W98439   8.347  25.532  12.848
32960W        W98440   4.934  41.444  11.899
32961W        W98441  40.925  38.510   1.708
32962W        W98442  11.825  29.160  11.605
32963W        W98443  12.627  35.867   0.360
32964W        W98444  17.570  35.864   3.648
32965W        W98445   6.763   3.815  13.345
32966W        W98446  22.559  42.996   3.751
32967W        W98447  42.353  11.169  10.406
32968W        W98448   3.444  33.614  11.129
32969W        W98449  18.132  12.696   4.819
32970W        W98450  43.316  16.624   0.901
32971W        W98451   8.751  18.057  14.502
32972W        W98452   1.775  22.554   3.865
32973W        W98453  15.207  20.579  10.622
32974W        W98454  31.151  21.723  11.078
32975W        W98455  21.530  21.066  12.481
32976W        W98456  38.484  34.024   3.157
32977W        W98457  22.668  25.655   4.168
32978W        W98458  44.946  29.476   1.844
32979W        W98459   9.358  18.632  13.965
32980W        W98460  34.442  25.592  13.421
32981W        W98461  41.391  15.088   3.191
32982W        W98462   2.247   3.863  14.359
32983W        W98463  33.500  26.059   2.805
32984W        W98464   2.878  17.082  14.417
32985W        W98465  35.478   5.875   4.703
32986W        W98466   8.883  38.395  12.550
32987W        W98467   3.881  44.428   3.236
32988W        W98468   7.193  25.180   0.825
32989W        W98469  32.932  14.770  10.955
32990W        W98470   2.882  40.826  13.904
32991W        W98471  24.021  44.292   0.356
32992W        W98472  26.687   5.696   1.724
32993W        W98473   0.932  16.085   1.876
32994W        W98474  32.559  35.493  14.445
32995W        W98475  30.073  36.464  12.388
32996W        W98476   0.963  40.922   2.325
32997W        W98477  39.458  21.548  11.954
32998W        W98478  41.457  12.617  13.926
32999W        W98479  18.763  20.607  10.972
33000W        W98480  18.233  40.834   0.422
33001W        W98481  38.939  38.010   3.692
33002W        W98482  42.339  26.518   4.707
33003W        W98483  33.465  37.075  13.512
33004W        W98484  11.201   8.847  13.360
33005W        W98485   5.887  37.555   0.960
33006W        W98486  19.702   0.279   4.671
33007W        W98487   4.269  23.175   0.377
33008W        W98488  30.974   5.380  10.425
33009W        W98489  19.166  30.144   5.090
33010W        W98490  29.463  33.577   4.811
33011W        W98491  13.656  42.797  11.971
33012W        W98492   6.360  23.140   1.851
33013W        W98493  42.842  10.289   0.791
33014W        W98494  37.479  17.165  14.958
33015W        W98495  19.130  29.069   3.838
33016W        W98496   1.418   8.741  14.383
33017W        W98497  37.477  38.478  11.499
33018W        W98498   7.848  40.965   3.744
33019W        W98499  40.442   6.215   5.085
33020W        W98500  40.831  29.071   0.467
33021W        W98501  44.403  22.070   1.391
33022W        W98502   1.290  29.993  12.377
33023W        W98503  31.009  19.653  11.448
33024W        W98504  14.807   9.155  14.992
33025W        W98505  43.017  24.621   3.708
33026W        W98506  36.538   5.367   2.669
33027W        W98507  33.980  32.626   3.203
33028W        W98508  26.485  44.338   5.274
33029W        W98509  28.625   8.194  13.805
33030W        W98510   8.384  38.911  12.077
33031W        W98511   6.886  17.767   4.227
33032W        W98512  20.577  27.462  13.387
33033W        W98513  30.441  44.285   1.414
33034W        W98514  16.120  21.088   3.369
33035W        W98515  32.992  13.717   4.706
33036W        W98516  32.596  23.059   0.482
33037W        W98517  35.366  31.994   4.768
33038W        W98518  23.611  10.331   2.403
33039W        W98519   5.878  44.776  14.446
33040W        W98520   3.825  11.673   2.740
33041W        W98521   7.188  19.630   1.843
33042W        W98522  41.298  41.439  13.808
33043W        W98523  34.402  28.486   2.870
33044W        W98524   0.813  10.206  11.106
33045W        W98525  38.040  32.039  13.533
33046W        W98526  27.953   6.249  11.024
33047W        W98527  16.276  28.503   2.734
33048W        W98528  24.542  37.570  14.309
33049W        W98529   3.829  43.889  13.405
33050W        W98530  31.426   5.779   1.306
33051W        W98531  29.626  36.482  11.442
33052W        W98532  31.049  29.539   1.926
33053W        W98533  43.476  39.473  12.551
33054W        W98534  12.812  35.952   4.231
33055W        W98535  25.030  37.044   2.753
33056W        W98536   0.974  10.232  14.334
33057W        W98537   4.886  35.057   2.218
33058W        W98538  10.656  24.009   2.783
33059W        W98539   9.786  21.133   2.217
33060W        W98540  31.926  18.600  12.982
33061W        W98541  17.173  21.135   3.739
33062W        W98542   0.797  39.383   0.245
33063W        W98543   4.383  28.655   2.262
33064W        W98544  29.058  43.467   1.883
33065W        W98545  44.772  42.806  10.612
33066W        W98546  24.165  21.090   4.630
33067W        W98547  11.747  25.540  13.830
33068W        W98548  31.405   2.266   3.209
33069W        W98549  25.682   5.861  14.290
33070W        W98550  10.155  14.698  11.591
33071W        W98551  10.836  23.724   0.336
33072W        W98552  34.416  24.546  13.360
33073W        W98553  43.909  44.499   4.204
33074W        W98554   8.693  34.027  14.513
33075W        W98555   9.309  22.677   3.226
33076W        W98556  33.598   8.790  12.388
33077W        W98557  41.007  38.067   0.256
33078W        W98558  31.907   6.295  13.062
33079W        W98559  25.661  12.170  10.546
33080W        W98560   2.444  11.203   3.716
33081W        W98561  44.402  20.256   4.307
33082W        W98562  20.181   5.420  14.947
33083W        W98563  29.585  14.279   2.769
33084W        W98564  35.979   8.759   4.157
33085W        W98565   9.343   2.779  11.454
33086W        W98566  13.618  28.520  14.815
33087W        W98567   6.226  40.428   3.743
33088W        W98568   0.425  21.522   0.459
33089W        W98569  26.556  33.447   0.812
33090W        W98570  27.464   8.392   0.353
33091W        W98571  29.129   4.338   2.862
33092W        W98572  41.940  16.095   4.778
33093W        W98573  39.436  43.767  14.281
33094W        W98574  35.409  15.279  11.534
33095W        W98575  24.170  44.977  10.979
33096W        W98576  18.635  40.880  14.283
33097W        W98577  39.860   0.861  10.613
33098W        W98578  20.745  34.073  14.418
33099W        W98579  28.000   1.426   0.438
33100W        W98580  31.946  43.387   3.350
33101W        W98581  13.837   0.420   2.697
33102W        W98582  40.384  41.329   3.714
33103W        W98583  33.986  10.800  11.087
33104W        W98584   2.847   4.361  11.612
33105W        W98585  21.166  28.072   1.742
33106W        W98586  35.418  30.057   1.830
33107W        W98587   1.892   6.869  14.996
33108W        W98588  17.217  39.914  11.557
33109W        W98589  38.417  11.174   1.383
33110W        W98590  20.186  10.751  14.348
33111W        W98591   1.257   1.352   1.298
33112W        W98592   8.305  12.710   1.400
33113W        W98593  27.159  11.327  10.590
33114W        W98594  40.902   8.242  14.994
33115W        W98595  24.687  39.536   3.801
33116W        W98596  12.678  38.499  13.863
33117W        W98597  31.112  42.339   1.396
33118W        W98598  11.705   8.894   9.935
33119W        W98599  12.267   0.421   4.634
33120W        W98600  42.776   3.224  11.091
33121W        W98601  10.820  24.047   2.223
33122W        W98602  24.528  22.567   4.723
33123W        W98603  22.573  10.334   1.266
33124W        W98604   2.932  14.289   2.781
33125W        W98605  25.973  36.951   4.823
33126W        W98606  28.523   0.896  12.578
33127W        W98607   6.821  24.529  13.533
33128W        W98608   5.292  10.169   0.954
33129W        W98609   7.790  36.547  13.464
33130W        W98610  22.736  30.029   2.278
33131W        W98611  42.501  22.016  11.995
33132W        W98612  38.919   3.415  14.913
33133W        W98613  34.062  11.863   3.149
33134W        W98614  42.888  43.319   4.149
33135W        W98615   9.379  42.918  12.915
33136W        W98616  43.457  15.169  10.592
33137W        W98617   0.905  43.490  11.066
33138W        W98618  23.580  28.676  13.816
33139W        W98619  14.694  14.746   0.871
33140W        W98620  38.525  37.991  10.938
33141W        W98621  28.001  11.854   3.798
33142W        W98622  15.262  35.877  12.487
33143W        W98623  12.697  25.551   2.724
33144W        W98624   7.866  13.792   4.288
33145W        W98625   5.215  24.722   1.249
33146W        W98626  40.365  42.339  13.063
33147W        W98627  44.421  35.948  12.037
33148W        W98628  21.041  39.841  12.509
33149W        W98629  15.157  16.732   4.830
33150W        W98630  18.296  24.661   2.868
33151W        W98631  37.894  28.087   3.680
33152W        W98632  23.985  18.276  12.396
33153W        W98633  16.566   5.345  11.975
33154W        W98634  31.581  22.565  13.338
33155W        W98635  41.855   2.773  11.423
33156W        W98636  11.234  23.641  12.381
33157W        W98637  29.948  35.512  13.979
33158W        W98638  27.475  24.215  14.851
33159W        W98639   0.872   6.682   0.863
33160W        W98640  24.198  30.503   2.854
33161W        W98641  33.879  19.075  13.030
33162W        W98642  19.774  17.663  10.898
33163W        W98643  26.101  41.027  14.502
33164W        W98644  34.406  21.084  10.956
33165W        W98645  15.619  18.600   1.847
33166W        W98646  33.482  26.197   3.224
33167W        W98647   6.751   6.254   4.683
33168W        W98648  19.596  18.228  12.380
33169W        W98649  20.692  22.036   4.746
33170W        W98650  14.224  40.897  13.417
33171W        W98651  42.395  18.216   4.140
33172W        W98652  24.127   0.846  11.936
33173W        W98653   5.763  28.942  13.423
33174W        W98654  10.759  16.754  12.345
33175W        W98655   4.222  21.629   1.367
33176W        W98656  24.016  10.369  11.457
33177W        W98657  43.770  22.216  10.582
33178W        W98658  23.614   6.897   3.376
33179W        W98659  17.224  28.986   0.916
33180W        W98660  38.505   8.358   4.139
33181W        W98661   2.258  37.470  11.530
33182W        W98662   2.913  22.589  10.900
33183W        W98663  28.155  34.392   3.325
33184W        W98664  25.002  22.184  12.403
33185W        W98665  25.479  30.066  12.084
33186W        W98666  34.031  40.895  14.397
33187W        W98667  35.007  21.115   2.233
33188W        W98668  12.294  34.912   3.697
33189W        W98669  42.435   1.360  13.488
33190W        W98670  13.253  43.284  13.944
33191W        W98671  39.046   9.714   0.409
33192W        W98672  14.140  20.758  11.085
33193W        W98673  35.044  37.429   2.866
33194W        W98674  11.331  20.580  12.001
33195W        W98675  43.311  14.247  13.401
33196W        W98676   6.764  34.409  12.386
33197W        W98677  34.096  16.606   0.353
33198W        W98678  26.600  21.030  13.419
33199W        W98679  41.017  21.528   9.935
33200W        W98680  18.102  22.242  14.500
33201W        W98681  25.712   9.369   3.825
33202W        W98682  13.602  34.965  12.991
33203W        W98683  17.682   8.333   3.179
33204W        W98684  16.247  13.765  13.982
33205W        W98685   3.259   6.722   0.861
33206W        W98686   3.854  25.169   2.321
33207W        W98687  12.119  28.678  11.539
33208W        W98688  30.580  30.088  12.345
33209W        W98689  41.001  42.880   0.473
33210W        W98690   8.362  26.572   4.149
33211W        W98691  35.370  30.123   3.863
33212W        W98692   2.382  29.520  12.019
33213W        W98693  17.156  44.848   3.684
33214W        W98694  18.606   6.342  14.829
33215W        W98695  37.855  41.417   1.716
33216W        W98696  10.757   8.724  13.829
33217W        W98697  17.179  36.497  14.462
33218W        W98698  36.548  38.413   2.792
33219W        W98699  38.848  11.251   0.344
33220W        W98700  37.424  19.779  14.973
33221W        W98701  25.671   9.694  13.889
33222W        W98702  34.424  31.977   4.236
33223W        W98703   4.935  21.156  13.538
33224W        W98704  44.441  10.787  13.025
33225W        W98705  21.662  12.764  13.352
33226W        W98706  39.018  38.981   3.331
33227W        W98707  21.136   5.745   2.762
33228W        W98708   1.482  25.018   2.765
33229W        W98709   0.795  29.963   2.313
33230W        W98710  32.590   2.896   2.179
33231W        W98711  19.587  37.392   4.298
33232W        W98712  15.650  34.600  12.500
33233W        W98713  29.030   7.825   0.466
33234W        W98714  36.556   7.352  11.490
33235W        W98715  31.618  43.387   0.820
33236W        W98716  14.108  26.601   1.352
33237W        W98717  31.417  26.042  14.439
33238W        W98718  37.963  25.111  12.083
33239W        W98719   9.764  44.285  13.875
33240W        W98720  10.369  30.124  10.573
33241W        W98721  33.600  41.988   4.299
33242W        W98722  31.907  35.403  14.832
33243W        W98723  22.080  15.248  12.907
33244W        W98724   4.350  38.867  11.872
33245W        W98725  39.375  17.240  13.792
33246W        W98726  33.564  31.474   4.345
33247W        W98727  42.914  31.405   4.629
33248W        W98728  14.271   5.766   9.932
33249W        W98729  21.692  33.521   0.855
33250W        W98730  20.252  28.645  14.382
33251W        W98731  33.903  38.488   4.816
33252W        W98732  22.226  31.541   2.777
33253W        W98733   8.332   7.722   1.259
33254W        W98734  36.509  29.660  10.548
33255W        W98735  40.890  16.589   5.134
33256W        W98736   2.847  29.155   3.357
33257W        W98737  21.625  13.243  13.952
33258W        W98738  17.782  31.572  13.882
33259W        W98739  36.393  30.989   0.848
33260W        W98740  34.049  28.125   3.199
33261W        W98741  31.037  13.662  10.627
33262W        W98742  27.020  27.090   3.157
33263W        W98743  20.650  12.266  12.414
33264W        W98744   6.684  19.559   0.349
33265W        W98745  11.274  12.815   2.298
33266W        W98746  37.571  25.018   0.821
33267W        W98747  24.149  30.445   4.317
33268W        W98748  20.701  15.774   0.825
33269W        W98749  16.244  35.491   0.766
33270W        W98750   6.373  42.849   1.732
33271W        W98751  38.889  23.561  11.939
33272W        W98752  24.997   6.269  14.860
33273W        W98753  35.556  31.106   1.295
33274W        W98754  10.303  11.731   9.926
33275W        W98755  13.332  30.487  13.491
33276W        W98756  39.023   5.790   2.404
33277W        W98757  36.078  27.652   0.808
33278W        W98758  44.458  29.570   3.271
33279W        W98759  15.641  37.865   4.814
33280W        W98760  24.228   2.339  12.064
33281W        W98761  25.008  17.185  14.941
33282W        W98762  29.510   2.388  14.492
33283W        W98763  29.932  42.369   4.695
33284W        W98764   0.250   8.384   2.698
33285W        W98765  35.581   9.807  13.490
33286W        W98766  25.561  15.084  11.928
33287W        W98767  41.485   4.874  14.493
33288W        W98768  28.061  32.598   3.235
33289W        W98769   8.724  32.989  10.901
33290W        W98770  34.569   7.740   1.926
33291W        W98771   7.221  36.436  10.491
33292W        W98772  10.837  14.277   3.168
33293W        W98773   2.882  30.487   3.250
33294W        W98774   6.779  32.934   4.170
33295W        W98775  37.043  31.140  14.403
33296W        W98776   8.204  34.429  13.467
33297W        W98777  18.175   8.841   4.284
33298W        W98778  37.058  36.570  11.128
33299W        W98779  19.039   8.268   1.398
33300W        W98780  20.567  14.588   0.293
33301W        W98781  10.834  25.964  11.927
33302W        W98782  29.470  14.775  13.931
33303W        W98783  20.249  34.490  13.314
33304W        W98784  33.426  43.397   1.744
33305W        W98785  23.138  29.452  14.897
33306W        W98786  17.158  39.434  14.389
33307W        W98787  37.437  42.900   4.307
33308W        W98788  29.615  37.466  11.895
33309W        W98789  26.503   8.743  14.882
33310W        W98790  20.043  35.009  14.989
33311W        W98791   4.704   9.373   0.894
33312W        W98792  24.169  28.539   3.795
33313W        W98793  43.906  20.658   3.763
33314W        W98794  28.627  16.571   2.369
33315W        W98795  19.169   7.869   4.800
33316W        W98796  37.425  17.599  14.479
33317W        W98797  35.471   2.437   3.331
33318W        W98798  11.856  44.439   1.317
33319W        W98799  15.694  23.520  10.619
33320W        W98800  27.077  20.543   3.815
33321W        W98801   0.793  43.997  12.995
33322W        W98802   8.328   5.885  12.450
33323W        W98803  10.763  15.707  14.002
33324W        W98804  15.722   0.345   0.446
33325W        W98805   2.458  23.518  11.456
33326W        W98806  36.485  35.068  14.818
33327W        W98807   0.489  17.086   4.616
33328W        W98808  42.966  43.855  13.361
33329W        W98809   6.422  29.958  12.034
33330W        W98810   7.402  13.335  10.489
33331W        W98811  35.511   8.661   4.809
33332W        W98812  35.376   2.420  14.497
33333W        W98813  30.147  17.162   4.777
33334W        W98814  42.978  36.914  10.404
33335W        W98815  25.707   7.713  14.433
33336W        W98816  31.117  35.889   0.458
33337W        W98817  24.533  39.061   0.458
33338W        W98818  43.830  24.627   1.373
33339W        W98819  11.129  41.296  11.031
33340W        W98820  42.026   1.479   0.861
33341W        W98821  35.028  26.971  10.585
33342W        W98822  36.925   7.391  13.370
33343W        W98823  35.477  13.659  13.394
33344W        W98824   4.773  10.872  10.928
33345W        W98825  14.714   9.817   0.742
33346W        W98826   8.681  26.983  13.448
33347W        W98827   1.356   5.348   3.678
33348W        W98828   5.281  16.105  11.437
33349W        W98829   9.654  11.325  13.981
33350W        W98830  19.257  12.219   0.919
33351W        W98831   9.875   4.857   0.811
33352W        W98832   7.722  14.232  12.456
33353W        W98833   3.400  11.189  13.909
33354W        W98834   9.807  16.659  10.620
33355W        W98835   3.937  25.997  14.346
33356W        W98836  30.570  36.389   4.115
33357W        W98837  16.690  33.434  10.890
33358W        W98838   1.788   5.795  13.011
33359W        W98839  23.043  22.652  10.083
33360W        W98840  25.685  11.726  11.583
33361W        W98841   0.362  33.421   0.727
33362W        W98842  43.365  28.524  12.458
33363W        W98843  18.175   9.762  11.451
33364W        W98844  15.707  28.998   0.734
33365W        W98845  31.026  40.313  11.504
33366W        W98846   1.481   1.757   0.828
33367W        W98847  43.880   4.940   3.630
33368W        W98848  36.531   8.900   3.673
33369W        W98849  37.544  22.188   2.201
33370W        W98850  15.713  13.140   1.841
33371W        W98851  23.048  32.944   1.232
33372W        W98852   4.244  36.991  11.495
33373W        W98853  32.391  15.687  12.886
33374W        W98854  17.788  42.523  11.379
33375W        W98855   9.867   7.377   1.841
33376W        W98856  41.989  26.667   0.769
33377W        W98857  39.965  11.191  14.382
33378W        W98858  37.936  30.603   4.709
33379W        W98859  32.543  11.166   4.242
33380W        W98860   3.225  38.873  12.025
33381W        W98861  15.623  21.148   4.709
33382W        W98862  11.636  10.874  14.892
33383W        W98863  44.855  38.472  14.023
33384W        W98864   9.744  43.271  12.062
33385W        W98865  42.485  24.533   0.928
33386W        W98866  43.332  20.071  14.945
33387W        W98867  35.458  25.195   2.356
33388W        W98868  38.538  11.761   4.604
33389W        W98869  31.526  11.199   2.251
33390W        W98870  12.758  25.976   4.795
33391W        W98871  24.066  34.543  10.910
33392W        W98872  22.706  38.336  11.556
33393W        W98873  18.666  38.040  11.517
33394W        W98874  29.651  10.786   4.189
33395W        W98875  14.258   7.379  12.906
33396W        W98876  37.087  24.626   1.711
33397W        W98877  25.669  42.954   2.726
33398W        W98878  37.058   5.864   3.790
33399W        W98879  27.186  20.076  11.050
33400W        W98880  27.679  21.262  12.512
33401W        W98881  34.927  11.213  14.982
33402W        W98882  24.060   2.242  14.304
33403W        W98883  15.582   7.778  12.574
33404W        W98884  16.190  18.628   1.924
33405W        W98885   0.843  32.975  11.511
33406W        W98886  38.995  40.020   4.718
33407W        W98887   3.343  22.194   4.698
33408W        W98888  17.611  29.659   2.663
33409W        W98889   5.824  16.122  11.533
33410W        W98890  33.611  13.672   1.796
33411W        W98891   1.356  22.251   3.706
33412W        W98892  40.812  34.578  14.437
33413W        W98893   8.850  20.152   0.801
33414W        W98894   0.467  26.020  11.448
33415W        W98895  16.257  29.979   4.746
33416W        W98896  32.023  31.080   2.276
33417W        W98897   3.352   8.263   3.246
33418W        W98898   7.179  24.191  10.963
33419W        W98899  19.582   8.259  10.614
33420W        W98900  26.657  26.979  11.537
33421W        W98901  29.936  17.627   0.937
33422W        W98902  40.517   7.701   3.784
33423W        W98903  41.390  10.380   2.341
33424W        W98904  37.957  33.616   4.345
33425W        W98905  17.154  39.315  14.027
33426W        W98906   0.843   6.201  14.339
33427W        W98907  10.846   1.437  10.923
33428W        W98908  42.379  20.696  13.331
33429W        W98909  12.720  40.425  13.459
33430W        W98910   8.305  31.571  10.595
33431W        W98911  14.782   7.297  12.856
33432W        W98912   1.355  37.071   4.157
33433W        W98913  31.013  18.096   3.339
33434W        W98914  41.515  10.681  13.870
33435W        W98915   0.268  17.678   1.250
33436W        W98916  21.613  32.931  11.034
33437W        W98917  38.557   6.363   4.120
33438W        W98918  27.033  36.422  12.928
33439W        W98919  23.700  35.551   2.841
33440W        W98920  18.070  24.722  13.362
33441W        W98921  34.884  23.011  12.832
33442W        W98922  40.905  37.467  11.502
33443W        W98923  20.713  22.702  12.460
33444W        W98924  38.072   3.843  11.859
33445W        W98925   5.825  33.404   0.400
33446W        W98926  12.721  38.360   1.324
33447W        W98927  17.581   3.836  12.951
33448W        W98928  27.145   9.684   1.908
33449W        W98929   6.702   1.886   2.277
33450W        W98930  16.093  11.241   2.208
33451W        W98931  43.441   7.788  11.861
33452W        W98932   6.337  17.239  11.390
33453W        W98933   6.683   6.821   2.895
33454W        W98934  37.946  15.700  11.517
33455W        W98935  25.701  39.534   2.844
33456W        W98936  12.299  19.050  10.550
33457W        W98937  41.482  20.167   2.823
33458W        W98938  18.553  15.119   1.905
33459W        W98939  24.165  27.012  13.990
33460W        W98940  30.498  30.968  14.333
33461W        W98941   2.348   1.831   2.774
33462W        W98942  15.097  37.395   4.242
33463W        W98943   8.405  36.455  12.831
33464W        W98944   6.341  43.398  13.912
33465W        W98945  29.124  24.669  14.851
33466W        W98946  12.148  28.490   0.451
33467W        W98947  13.199  18.582   0.822
33468W        W98948   4.388  31.622  10.490
33469W        W98949  26.056  10.839   3.856
33470W        W98950   2.461  41.525   4.274
33471W        W98951  15.726  30.041   0.749
33472W        W98952  44.789   6.707   2.825
33473W        W98953  24.647  41.860  11.862
33474W        W98954  16.306  15.639  13.539
33475W        W98955  35.090  15.295  14.806
33476W        W98956   9.703  24.992  12.377
33477W        W98957  17.180   4.846   2.185
33478W        W98958  42.524  29.661   0.266
33479W        W98959   1.421  27.622   2.405
33480W        W98960  36.891  23.656   0.375
33481W        W98961  39.332   5.285  12.575
33482W        W98962  15.761  40.829   0.790
33483W        W98963  18.204  35.586   1.803
33484W        W98964  27.021  11.186   3.737
33485W        W98965  44.985  25.503   2.849
33486W        W98966  17.599  40.396   4.615
33487W        W98967   8.235  19.681  13.898
33488W        W98968  29.163  26.491  10.888
33489W        W98969  32.451  21.032   0.319
33490W        W98970  43.941  36.584  14.393
33491W        W98971  21.175   2.444  12.986
33492W        W98972  29.607  10.198  11.950
33493W        W98973  32.417  27.094  12.825
33494W        W98974  24.082  40.802  10.595
33495W        W98975  12.713  22.998  12.991
33496W        W98976   6.779  18.697   1.726
33497W        W98977   1.324  34.538   9.925
33498W        W98978  28.163  24.641   3.246
33499W        W98979   6.410  39.539  12.947
33500W        W98980  24.060  17.212  11.470
33501W        W98981  25.598   0.746   3.207
33502W        W98982  17.611  31.998   5.160
33503W        W98983  24.145  17.224   4.695
33504W        W98984  40.399   7.711  11.575
33505W        W98985  41.502  42.323   1.908
33506W        W98986  39.005  16.631   1.375
33507W        W98987  30.560   2.747   3.219
33508W        W98988  30.563  16.166   2.864
33509W        W98989  16.807  26.608  14.417
33510W        W98990   8.204  31.612  14.411
33511W        W98991  20.655  33.577   1.417
33512W        W98992   4.750  15.740  10.458
33513W        W98993  38.835   7.695   0.772
33514W        W98994  12.833  21.609  11.116
33515W        W98995  17.162  13.814  14.473
33516W        W98996  32.077   5.232   0.735
33517W        W98997  29.610  39.874   1.754
33518W        W98998  41.927  30.479  10.524
33519W        W98999   9.237  30.964  13.016
33520W        W99000  20.546  15.306   4.266
33521W        W99001  17.264  25.199   0.378
33522W        W99002   7.781  42.007   3.701
33523W        W99003  19.624  16.316  11.016
33524W        W99004  11.187  23.178   0.349
33525W        W99005  37.011  11.741   2.364
33526W        W99006   7.223   8.807  12.430
33527W        W99007  38.539   3.775   0.431
33528W        W99008   6.416   7.373   2.408
33529W        W99009  26.971  34.068  14.390
33530W        W99010  18.065  17.100   0.903
33531W        W99011   5.410  34.871  10.500
33532W        W99012  42.364  27.526   3.154
33533W        W99013   1.789   5.752   3.384
33534W        W99014  29.617  43.837  14.432
33535W        W99015  22.997  36.087  12.077
33536W        W99016  10.653  27.540  14.971
33537W        W99017  19.268  30.989   3.238
33538W        W99018  16.107  38.830   3.183
33539W        W99019   0.982   4.796   0.874
33540W        W99020  21.684  19.547   0.298
33541W        W99021  16.197  15.244  11.504
33542W        W99022  20.590  19.046  11.082
33543W        W99023  12.127  27.551  13.395
33544W        W99024  39.418  25.585   1.789
33545W        W99025  11.783  41.996   2.840
33546W        W99026  17.268  13.671   1.799
33547W        W99027  34.381  15.739   1.790
33548W        W99028  24.498  40.872   0.417
33549W        W99029  21.249   4.873   4.835
33550W        W99030  28.163  18.127  12.983
33551W        W99031  18.295   9.330  13.865
33552W        W99032  29.556  23.023  12.412
33553W        W99033  32.528  31.601  14.290
33554W        W99034  37.907   8.217  14.816
33555W        W99035   3.885  31.152   0.756
33556W        W99036  21.557  36.912   0.771
33557W        W99037   5.891  18.790  14.354
33558W        W99038  39.008  16.147  12.079
33559W        W99039   4.706  25.604   0.846
33560W        W99040  40.337  43.302   0.425
33561W        W99041  14.247   7.835  14.350
33562W        W99042  39.871  14.115  10.998
33563W        W99043   4.918  18.554  13.410
33564W        W99044  40.969  34.547   3.219
33565W        W99045  43.368  11.698   4.151
33566W        W99046  40.360  24.687   2.873
33567W        W99047  27.962   3.319  13.020
33568W        W99048  30.548  31.071  11.965
33569W        W99049  11.254   6.908  11.489
33570W        W99050   4.747   1.741  10.509
33571W        W99051   8.878  44.812   0.946
33572W        W99052  20.190  31.055  10.505
33573W        W99053  30.078  29.937   0.292
33574W        W99054   9.764  25.701   2.336
33575W        W99055  39.873  14.657  13.447
33576W        W99056  23.650  34.473   0.773
33577W        W99057  22.075  21.018   1.777
33578W        W99058   2.903  21.647  12.095
33579W        W99059  14.746  36.046  11.958
33580W        W99060   7.400   2.918  14.339
33581W        W99061   5.212  27.005   2.280
33582W        W99062   0.426  42.522  13.485
33583W        W99063  25.706  41.921   4.264
33584W        W99064  17.168   1.801  13.852
33585W        W99065  32.476   6.835   4.272
33586W        W99066  10.344  14.611   5.127
33587W        W99067  40.947  25.092   1.879
33588W        W99068  36.496  12.177   3.845
33589W        W99069  36.847   9.808   0.734
33590W        W99070   6.741  22.507  14.990
33591W        W99071  10.802  40.320   0.387
33592W        W99072  13.260  37.897  11.072
33593W        W99073  20.741   1.460  11.982
33594W        W99074  18.709  40.801   1.793
33595W        W99075  10.662  25.181   3.318
33596W        W99076   6.808   4.732   2.267
33597W        W99077  14.274  32.084   2.357
33598W        W99078  21.532  31.151  12.951
33599W        W99079  26.672  18.597   1.231
33600W        W99080   7.846   6.711   0.397
33601W        W99081   9.191  44.755  14.379
33602W        W99082  37.338   9.280  11.003
33603W        W99083  31.521  26.621   5.159
33604W        W99084  32.399  29.084   9.981
33605W        W99085  39.469  42.351   1.416
33606W        W99086   4.396  32.093   3.154
33607W        W99087  42.818   5.221  12.902
33608W        W99088  36.397  27.576  11.981
33609W        W99089   1.778  36.049   1.240
33610W        W99090   2.961  32.435   2.380
33611W        W99091  23.519  20.065  13.477
33612W        W99092  39.906  32.607   1.718
33613W        W99093   9.174  30.561   2.268
33614W        W99094   0.342  31.005   0.301
33615W        W99095  32.606  14.754  13.498
33616W        W99096  28.625   3.758  12.994
33617W        W99097  37.514  26.044   4.348
33618W        W99098  39.491  39.339  10.582
33619W        W99099   3.952  35.087   1.808
33620W        W99100  30.566   7.695  11.516
33621W        W99101  30.643   7.769  11.095
33622W        W99102  27.608  30.977   0.289
33623W        W99103  35.948  29.028  14.378
33624W        W99104   9.875   9.247  11.013
33625W        W99105  22.653  34.447  13.361
33626W        W99106  22.095  17.561   2.368
33627W        W99107   6.752  38.546  12.375
33628W        W99108  11.694   0.324  10.952
33629W        W99109  12.272  40.508  11.492
33630W        W99110  21.687  33.573  13.791
33631W        W99111   1.823   8.365   2.210
33632W        W99112  39.353  42.018   2.738
33633W        W99113  15.097  37.941   4.658
33634W        W99114  18.790  19.590   5.254
33635W        W99115  15.749  22.572   3.726
33636W        W99116  32.399   3.890  14.402
33637W        W99117  18.103  29.473   2.811
33638W        W99118  29.610  20.757   0.406
33639W        W99119  18.622  11.302  14.911
33640W        W99120  17.089   0.812   0.455
33641W        W99121  20.248  20.146   3.315
33642W        W99122  39.453  20.028   4.601
33643W        W99123  39.518   7.676   4.678
33644W        W99124   2.454  22.608  14.319
33645W        W99125  38.487   8.663  11.461
33646W        W99126   1.807  37.457  12.091
33647W        W99127  24.103  14.177  10.896
33648W        W99128  14.208  16.693   2.821
33649W        W99129  19.546  27.538  14.442
33650W        W99130   8.177  37.547  12.978
33651W        W99131  33.469   5.838  10.492
33652W        W99132  14.316  33.086   4.129
33653W        W99133  24.121  42.368  11.538
33654W        W99134   2.798  12.308   4.123
33655W        W99135  22.118  28.673   0.758
33656W        W99136  38.332  44.309  10.603
33657W        W99137   4.921  41.958   1.703
33658W        W99138  39.528  32.526  14.919
33659W        W99139  21.170  34.568   4.173
33660W        W99140  29.981   9.216   4.151
33661W        W99141  14.232  35.059  13.001
33662W        W99142   1.951   5.370  13.540
33663W        W99143  37.338  16.700  13.365
33664W        W99144   7.680   6.193  11.524
33665W        W99145   5.859  41.379   1.713
33666W        W99146  41.475   2.873  12.956
33667W        W99147  15.120  11.807  10.587
33668W        W99148  26.061   3.256   4.146
33669W        W99149  33.945  15.719  11.522
33670W        W99150  36.432   3.829   1.316
33671W        W99151  19.260  18.275   0.351
33672W        W99152  37.900   9.698   1.900
33673W        W99153   9.777   7.718  11.935
33674W        W99154   9.189   0.374   4.648
33675W        W99155  13.674  25.053   2.699
33676W        W99156  16.790  26.676   1.361
33677W        W99157  39.007   0.460   4.247
33678W        W99158   5.394   0.435   0.775
33679W        W99159  33.918  21.183   0.334
33680W        W99160   9.663   8.845   4.638
33681W        W99161  13.659  35.874  12.906
33682W        W99162   9.683  33.905  13.330
33683W        W99163   1.968  40.358   5.174
33684W        W99164  37.366  23.621  14.442
33685W        W99165  21.534  28.997  14.996
33686W        W99166   6.872  13.119   3.686
33687W        W99167  39.017   1.368  12.480
33688W        W99168  21.567  30.629   4.730
33689W        W99169  38.448  16.659  14.495
33690W        W99170  11.689  38.943  11.017
33691W        W99171   9.867  38.363  13.056
33692W        W99172   7.879  20.709  12.825
33693W        W99173  38.330  20.128  14.936
33694W        W99174   9.229  31.022   3.272
33695W        W99175  14.227  43.511  11.013
33696W        W99176  31.421  18.263  13.429
33697W        W99177   2.436  34.519  13.876
33698W        W99178  12.736  41.002   3.339
33699W        W99179  23.610   0.248  14.372
33700W        W99180  44.381  14.176  12.979
33701W        W99181  29.544  29.579   0.952
33702W        W99182  40.547   7.731  14.344
33703W        W99183   2.405  38.418   4.633
33704W        W99184  41.031  41.530  12.826
33705W        W99185   7.797  10.728  13.425
33706W        W99186   5.727   8.713  11.054
33707W        W99187  37.438   1.337  11.897
33708W        W99188  31.943  17.569   1.886
33709W        W99189  31.987  23.117   3.259
33710W        W99190  33.517  30.581  11.104
33711W        W99191  36.580  29.172  12.996
33712W        W99192  27.591  39.532   0.415
33713W        W99193  40.914  24.485   3.807
33714W        W99194  43.333  43.803   4.712
33715W        W99195  23.173   3.955  14.988
33716W        W99196  21.662  28.072  13.356
33717W        W99197   5.414  41.911  14.760
33718W        W99198  39.858  10.840  13.987
33719W        W99199  36.957  38.064   1.257
33720W        W99200   0.968  23.191   4.662
33721W        W99201  24.640  17.086   4.802
33722W        W99202   9.192  14.138  10.587
33723W        W99203   6.336  22.561   2.375
33724W        W99204  15.732   2.343   3.320
33725W        W99205   2.799  13.740   3.199
33726W        W99206  28.030  37.952  10.048
33727W        W99207  10.337  33.482   3.212
33728W        W99208   9.804  17.670   0.457
33729W        W99209  30.008   8.176  14.785
33730W        W99210   6.244  37.907  10.931
33731W        W99211  17.783  32.071   4.165
33732W        W99212  14.136  32.885   2.208
33733W        W99213  13.272  43.323  13.479
33734W        W99214  10.730  35.974  11.950
33735W        W99215  40.307   1.787  14.834
33736W        W99216  23.598  24.589  13.363
33737W        W99217  30.528  44.926  13.930
33738W        W99218  19.660   7.174  13.986
33739W        W99219  41.529  20.225  13.954
33740W        W99220  30.414  41.988   9.933
33741W        W99221  12.823  44.336   2.294
33742W        W99222  11.737  41.984   3.299
33743W        W99223  23.589   2.317  10.928
33744W        W99224   7.835  19.774   0.753
33745W        W99225  40.919  20.538  10.537
33746W        W99226  35.944   0.379  14.786
33747W        W99227  17.618   7.227   2.404
33748W        W99228  25.607   4.300  11.965
33749W        W99229  15.669  24.203   5.174
33750W        W99230  39.925   5.799  13.025
33751W        W99231  32.974  14.174  12.843
33752W        W99232  44.988  22.242   0.413
33753W        W99233  44.502  25.076   0.839
33754W        W99234  20.269  22.006  13.473
33755W        W99235  38.358  38.008  13.043
33756W        W99236   5.818  29.931   4.114
33757W        W99237  39.964   4.821   0.846
33758W        W99238  43.444  19.637  13.972
33759W        W99239  24.558  27.030  10.970
33760W        W99240  13.129  23.576   3.349
33761W        W99241   9.660  42.444   3.714
33762W        W99242  42.905  17.300   1.315
33763W        W99243   8.342  41.348  14.795
33764W        W99244   8.173  32.112  11.126
33765W        W99245   1.819  25.470  12.550
33766W        W99246  43.492   7.788   1.816
33767W        W99247  32.982  25.087   2.219
33768W        W99248  41.031  29.981  14.948
33769W        W99249  41.012  24.659  10.470
33770W        W99250   9.662   3.349   0.846
33771W        W99251   8.398  15.125   0.414
33772W        W99252  32.079   2.850  11.885
33773W        W99253  32.083  11.781   2.245
33774W        W99254  21.100  14.609  12.009
33775W        W99255  11.835   7.777  13.015
33776W        W99256  11.229   2.236  13.488
33777W        W99257  22.515   2.381  14.004
33778W        W99258  41.405  41.981  14.905
33779W        W99259  12.254   1.321  12.023
33780W        W99260  29.968  33.011  13.020
33781W        W99261  26.057  22.124   3.814
33782W        W99262  23.083  25.665  12.498
33783W        W99263  31.635  16.240  10.451
33784W        W99264   5.346   1.793   4.226
33785W        W99265  36.006  13.812   3.226
33786W        W99266  43.322  13.765  13.977
33787W        W99267  26.660  38.059  12.927
33788W        W99268  13.290  41.391  11.566
33789W        W99269   4.358   5.278  14.335
33790W        W99270   7.848   4.698   4.687
33791W        W99271  20.159  25.631   9.974
33792W        W99272  35.011  43.891   2.853
33793W        W99273  35.904  30.026  13.401
33794W        W99274   9.174  32.028   3.335
33795W        W99275   0.430   0.776  13.537
33796W        W99276  36.863  44.798  12.569
33797W        W99277   1.805  16.307   1.365
33798W        W99278  35.867  30.518  10.425
33799W        W99279  25.009  33.621  12.982
33800W        W99280   6.796  20.175  10.933
33801W        W99281   8.893  44.479  13.426
33802W        W99282   6.775  43.801   2.327
33803W        W99283   8.308  32.523  12.903
33804W        W99284  38.032  32.423  14.028
33805W        W99285  18.209  41.886  13.395
33806W        W99286  20.251  34.489  11.074
33807W        W99287  20.119  19.173  11.999
33808W        W99288  25.048  34.518  13.796
33809W        W99289  12.274  13.257   4.765
33810W        W99290  39.836   5.327   0.303
33811W        W99291  19.695   6.873   2.386
33812W        W99292  44.345  25.046   3.350
33813W        W99293   2.940  10.352   3.640
33814W        W99294  26.514   7.241  13.038
33815W        W99295  34.562  18.166   0.729
33816W        W99296  28.450  24.594   0.294
33817W        W99297   8.335  35.601  12.498
33818W        W99298  29.507  11.290  14.844
33819W        W99299  10.812  41.801   4.618
33820W        W99300  12.759  22.023  11.009
33821W        W99301   8.343  44.436  13.818
33822W        W99302  44.789  12.716  13.794
33823W        W99303  19.208  14.646  11.509
33824W        W99304  16.587  28.068   1.352
33825W        W99305  42.516  23.212   3.672
33826W        W99306  38.332  17.142   2.336
33827W        W99307  28.582   3.956   2.707
33828W        W99308  17.148  23.099   4.806
33829W        W99309   9.197  37.520   1.257
33830W        W99310  33.530  15.183  14.776
33831W        W99311  12.207  21.159   0.381
33832W        W99312  24.020   9.285  13.494
33833W        W99313  32.056  20.597   1.292
33834W        W99314  17.206  32.470   0.906
33835W        W99315  17.074  24.551  14.892
33836W        W99316  35.595   2.383   2.277
33837W        W99317  42.944  25.184  10.027
33838W        W99318  18.172  10.337   3.195
33839W        W99319  44.401  43.982   0.726
33840W        W99320   9.664  24.685  13.987
33841W        W99321  17.110  39.846   0.748
33842W        W99322  31.595   7.713   4.725
33843W        W99323  18.287   8.316  11.915
33844W        W99324  13.143  16.644   9.998
33845W        W99325  43.798  18.109   3.379
33846W        W99326  42.478   7.186   3.284
33847W        W99327   1.449  11.357  10.527
33848W        W99328  28.166   8.397  14.397
33849W        W99329  30.082  42.777   4.718
33850W        W99330  10.275  13.795   1.915
33851W        W99331  42.422   6.414   3.665
33852W        W99332  36.944  19.234   1.741
33853W        W99333  20.747  41.861   3.224
33854W        W99334  30.055   1.459   3.740
33855W        W99335  42.949  38.946   3.364
33856W        W99336  39.880   0.265  13.414
33857W        W99337   1.305  43.020  14.417
33858W        W99338   9.205  27.025   2.248
33859W        W99339  18.081  43.887   0.850
33860W        W99340  44.403  13.108  13.526
33861W        W99341  25.141  12.847  10.568
33862W        W99342   3.377  21.593   2.710
33863W        W99343   6.247  26.124   0.875
33864W        W99344  30.506   7.797   2.245
33865W        W99345   9.167  15.807   1.416
33866W        W99346  40.825  43.915   0.893
33867W        W99347  12.838  10.338   2.342
33868W        W99348  38.052  33.961  13.923
33869W        W99349  16.200   4.450   4.655
33870W        W99350  30.022  26.630   4.164
33871W        W99351   6.777  19.041   3.284
33872W        W99352  44.765  42.365   1.849
33873W        W99353  23.702  22.717   2.741
33874W        W99354  40.804   6.397  11.605
33875W        W99355  16.294  17.607   3.667
33876W        W99356   1.407  27.586  14.778
33877W        W99357  13.717  27.120  14.024
33878W        W99358  22.157  37.991   1.786
33879W        W99359   6.353  19.726   3.645
33880W        W99360  41.866  19.612   1.817
33881W        W99361  30.550  25.530   2.348
33882W        W99362  35.430  21.530  13.839
33883W        W99363  21.123  28.044  13.393
33884W        W99364  15.315  22.541   2.893
33885W        W99365  35.544  38.525  13.327
33886W        W99366  22.084  19.738   5.268
33887W        W99367  24.204  42.846   0.748
33888W        W99368  39.865  32.958   0.870
33889W        W99369  35.049  17.233   3.182
33890W        W99370  42.892   0.899   1.723
33891W        W99371  32.922   4.750  12.529
33892W        W99372  28.085  44.915  14.024
33893W        W99373  10.690  11.848  14.845
33894W        W99374  42.888  37.067   0.765
33895W        W99375  15.758  44.753  11.925
33896W        W99376  20.109  33.924  10.920
33897W        W99377  24.212   3.758  14.776
33898W        W99378   0.260  41.944   3.728
33899W        W99379  40.338  44.429   0.965
33900W        W99380  39.377  37.073   0.398
33901W        W99381  31.967  29.953   0.738
33902W        W99382  40.839  32.950  11.595
33903W        W99383  38.835  15.773   0.944
33904W        W99384  31.481  23.155   1.321
33905W        W99385  15.718  20.698  13.400
33906W        W99386  13.712  43.369   0.908
33907W        W99387   6.856  14.725   3.265
33908W        W99388  18.216   7.686  11.491
33909W        W99389  35.888  22.584  11.984
33910W        W99390   5.924  10.348  10.569
33911W        W99391   7.883   7.863   1.450
33912W        W99392  28.609  29.095   1.434
33913W        W99393  30.922  43.830   2.841
33914W        W99394   6.261  27.498   3.314
33915W        W99395  32.116   4.878  12.935
33916W        W99396  28.493  21.705   3.301
33917W        W99397   7.293  40.019   3.351
33918W        W99398  31.119  42.922   0.394
33919W        W99399  44.482  27.635  12.860
33920W        W99400  39.925  19.586  12.062
33921W        W99401  21.699   2.262  14.451
33922W        W99402   2.362   5.414  13.798
33923W        W99403  20.171  33.530   2.206
33924W        W99404  36.091   6.321   1.790
33925W        W99405   4.751  13.145   0.261
33926W        W99406  36.398  37.422   3.291
33927W        W99407  24.701   1.277  13.920
33928W        W99408  37.342  14.195  14.022
33929W        W99409   2.370   4.798  13.925
33930W        W99410  43.939  33.564   4.732
33931W        W99411   4.750  17.608   2.828
33932W        W99412   2.956  30.031   1.408
33933W        W99413  15.251  30.131  13.522
33934W        W99414  11.680  20.196   0.403
33935W        W99415   3.920  43.765  13.952
33936W        W99416  28.478  42.800  13.847
33937W        W99417  23.994  25.660  13.852
33938W        W99418  13.205  27.585  13.861
33939W        W99419  21.519  26.114  14.856
33940W        W99420  17.567  24.173   0.804
33941W        W99421  38.998  24.559  12.835
33942W        W99422  36.971  19.548  13.418
33943W        W99423  35.437   4.825   0.473
33944W        W99424   8.278   6.880   3.333
33945W        W99425  29.550  12.686   3.191
33946W        W99426   1.890   0.806  13.497
33947W        W99427  10.381  30.630   2.799
33948W        W99428  10.345  22.554   0.314
33949W        W99429  39.052   8.189  12.943
33950W        W99430  22.526  22.247  13.037
33951W        W99431   7.686  37.485  14.957
33952W        W99432  12.846  36.439  10.958
33953W        W99433  31.018  38.061   3.353
33954W        W99434  37.910  33.005  10.553
33955W        W99435  31.132   3.838   3.805
33956W        W99436   6.378  42.297  13.496
33957W        W99437   7.331  40.836  11.387
33958W        W99438  19.206  38.951  13.961
33959W        W99439  27.517  16.272   4.716
33960W        W99440  36.442  16.134   3.752
33961W        W99441  31.530  16.291   2.212
33962W        W99442  18.719  38.968  12.501
33963W        W99443  35.936  20.087  11.028
33964W        W99444  13.736   3.833  14.767
33965W        W99445  14.193  16.293   2.388
33966W        W99446  19.193  32.555  11.104
33967W        W99447  23.202  14.727   3.328
33968W        W99448   9.664  39.351   4.732
33969W        W99449  19.780   9.848   3.234
33970W        W99450  13.187  40.873  13.544
33971W        W99451  21.214   3.727   0.359
33972W        W99452  18.773  15.783   4.675
33973W        W99453  24.686  39.843  12.997
33974W        W99454   8.366  34.479   1.351
33975W        W99455   6.409  34.062   2.224
33976W        W99456   3.265  37.387  14.400
33977W        W99457  28.109   6.755   1.338
33978W        W99458  13.734  31.105   1.901
33979W        W99459  21.176  43.360   2.890
33980W        W99460  21.138   2.724  10.479
33981W        W99461  21.734   6.325   1.764
33982W        W99462  22.083  39.923  10.629
33983W        W99463   9.185  18.546   3.748
33984W        W99464  31.591  10.827   2.229
33985W        W99465  33.541   3.440  11.079
33986W        W99466  12.854  27.566   1.892
33987W        W99467  43.790   9.679   1.814
33988W        W99468  19.576  30.428   1.838
33989W        W99469  38.540  16.808  14.806
33990W        W99470  38.436  42.283  11.518
33991W        W99471   8.765  10.372  12.905
33992W        W99472  21.202  12.677  14.023
33993W        W99473  11.647   7.407  14.318
33994W        W99474   9.671   4.325  10.614
33995W        W99475  30.960   7.778  11.058
33996W        W99476  12.854  15.614   4.324
33997W        W99477  18.607  10.274   4.684
33998W        W99478  35.081  43.996  11.999
33999W        W99479  43.772   3.726   4.237
34000W        W99480  41.798  19.614  13.059
34001W        W99481  44.964   4.215   1.885
34002W        W99482  32.000  31.540   2.206
34003W        W99483  33.556  43.283  11.524
34004W        W99484  22.596   0.959   3.370
34005W        W99485  22.121  28.185  14.930
34006W        W99486  28.962   8.737  11.604
34007W        W99487   7.347  17.790  14.973
34008W        W99488  41.535  19.263  13.321
34009W        W99489  19.125   7.218  14.485
34010W        W99490  18.591  15.189   0.425
34011W        W99491  20.244  30.426   1.211
34012W        W99492  34.965  16.276   4.143
34013W        W99493   0.924  30.598  11.467
34014W        W99494  34.938  28.070   3.230
34015W        W99495  17.168  39.842   9.990
34016W        W99496   8.277  24.163   2.689
34017W        W99497   1.395  41.419  10.524
34018W        W99498  43.841  26.620   2.779
34019W        W99499  25.088  23.510  14.301
34020W        W99500  24.642  28.065   3.192
34021W        W99501  42.866  25.615  14.766
34022W        W99502  35.369  25.527   4.620
34023W        W99503  38.333  42.314   0.375
34024W        W99504  26.042   2.939   0.755
34025W        W99505  22.705  15.325   3.745
34026W        W99506  14.713  19.073   1.359
34027W        W99507   6.282  35.590   4.831
34028W        W99508  32.546  32.457   2.767
34029W        W99509  19.074  41.876  12.956
34030W        W99510  21.148  12.301  13.391
34031W        W99511   2.331  34.863   2.322
34032W        W99512  19.751  21.240  14.513
34033W        W99513   6.229  22.151  11.507
34034W        W99514  16.225  24.575   2.826
34035W        W99515  42.928  30.912   0.735
34036W        W99516  16.186   4.358   0.460
34037W        W99517  13.724   5.276   4.269
34038W        W99518  16.299  19.680   1.785
34039W        W99519  27.509  37.031  12.839
34040W        W99520  17.599  29.069   4.318
34041W        W99521   1.777  12.619   4.294
34042W        W99522   8.793  21.600  11.431
34043W        W99523  44.887  17.795  13.540
34044W        W99524  25.609   6.403  11.066
34045W        W99525  24.586  10.191  14.504
34046W        W99526   0.335  28.556  11.472
34047W        W99527   1.912  30.416   0.412
34048W        W99528  16.684  34.992   3.690
34049W        W99529  32.524  37.948  14.845
34050W        W99530  38.477  44.468   0.278
34051W        W99531  11.867  43.413  14.927
34052W        W99532   1.814  38.835  14.348
34053W        W99533  29.076  42.372  14.875
34054W        W99534   8.762  33.453   4.681
34055W        W99535  38.938  11.743  14.018
34056W        W99536  16.685  36.359  14.430
34057W        W99537  41.396   9.667   0.964
34058W        W99538   6.759  19.697   2.346
34059W        W99539  33.959  20.689   3.219
34060W        W99540  23.492  34.906   1.419
34061W        W99541  25.679  12.219   2.898
34062W        W99542  35.859   4.723  14.815
34063W        W99543   0.392  39.422   2.288
34064W        W99544   5.745  38.421  11.503
34065W        W99545  41.425   7.838   2.407
34066W        W99546  44.433   0.476   1.722
34067W        W99547   8.850  16.608   2.305
34068W        W99548   1.859  29.538   4.832
34069W        W99549  44.808  35.443  10.992
34070W        W99550  22.036  25.656   3.751
34071W        W99551  32.038  32.117   2.820
34072W        W99552  30.008   7.409   1.892
34073W        W99553  39.445   3.447  14.853
34074W        W99554   0.304   8.330   3.638
34075W        W99555  11.691   2.226   4.726
34076W        W99556  32.985   1.254   2.388
34077W        W99557  14.292   9.224   0.421
34078W        W99558  16.266  29.457   1.869
34079W        W99559  21.247  34.038   3.375
34080W        W99560  21.719  32.503  11.084
34081W        W99561  24.147  39.517   4.287
34082W        W99562  36.855  13.125  10.520
34083W        W99563  42.000  14.131   5.182
34084W        W99564  29.525  17.723   4.337
34085W        W99565  18.166  21.076  11.056
34086W        W99566  30.548  31.531  10.626
34087W        W99567   6.916  22.597  13.358
34088W        W99568   4.334  11.690   3.203
34089W        W99569  29.086  26.052   4.835
34090W        W99570   2.729  41.516   2.222
34091W        W99571  18.130  36.555   3.314
34092W        W99572  11.800  11.317  14.913
34093W        W99573  36.041  16.190   3.195
34094W        W99574  11.229  23.028  14.779
34095W        W99575  21.655  14.217  12.832
34096W        W99576   5.796  27.679   0.898
34097W        W99577  12.326   3.329   4.799
34098W        W99578   4.914  15.762   0.318
34099W        W99579   2.858  16.773   4.169
34100W        W99580  14.291  25.630   1.835
34101W        W99581  12.234  24.036  11.485
34102W        W99582  28.471  36.355   1.277
34103W        W99583  21.689  25.524   2.415
34104W        W99584   8.197  19.557   3.671
34105W        W99585  26.121  16.592  14.336
34106W        W99586  11.165  10.347  13.370
34107W        W99587  38.950  38.425   2.723
34108W        W99588  20.032  37.432  14.439
34109W        W99589  34.513  44.393   3.358
34110W        W99590  36.944  28.128   4.228
34111W        W99591  30.641  33.023   3.808
34112W        W99592  40.509  15.103   3.223
34113W        W99593  44.305  39.958   0.821
34114W        W99594  14.717  32.913   0.440
34115W        W99595  38.327  40.012  12.424
34116W        W99596  44.857   8.842  11.387
34117W        W99597  30.514  20.154   2.272
34118W        W99598  30.418  16.635  10.618
34119W        W99599  41.887   0.334   2.282
34120W        W99600  26.600  14.304  11.016
34121W        W99601  36.063  34.454  12.349
34122W        W99602  14.741  32.010  10.506
34123W        W99603  24.535  17.269   2.808
34124W        W99604  44.493   4.722   5.086
34125W        W99605  14.589  25.537  12.555
34126W        W99606   8.898   2.320  12.044
34127W        W99607  14.327  43.932  12.023
34128W        W99608  36.354  10.801   0.903
34129W        W99609   8.367  16.634   4.205
34130W        W99610  35.099  14.636  11.001
34131W        W99611   9.654   9.192   1.843
34132W        W99612  30.462  22.160  11.021
34133W        W99613  39.835   5.307  12.880
34134W        W99614  38.477  22.077  12.023
34135W        W99615  20.148   4.409  14.442
34136W        W99616  16.128  35.585  12.559
34137W        W99617   5.352  32.508  14.795
34138W        W99618  24.205  29.125  12.963
34139W        W99619  16.111  40.445  13.826
34140W        W99620  43.495   1.465   4.627
34141W        W99621  33.477  37.863   4.302
34142W        W99622  15.218  25.129   3.156
34143W        W99623  13.260   9.725   0.880
34144W        W99624  20.750  30.005  14.414
34145W        W99625  22.083  14.311  14.509
34146W        W99626  21.595  42.892  14.486
34147W        W99627  26.669  17.558   0.460
34148W        W99628   3.773  10.827  13.058
34149W        W99629   1.937  27.989   0.907
34150W        W99630   7.861  20.647  10.496
34151W        W99631  21.155  25.197   1.249
34152W        W99632  29.152  35.582  10.478
34153W        W99633   3.846   7.239   4.616
34154W        W99634  36.903  27.999   2.754
34155W        W99635  32.395   0.362  10.468
34156W        W99636  30.441  24.607  11.108
34157W        W99637  42.400  19.704   9.969
34158W        W99638   7.774  25.599   2.801
34159W        W99639  43.950  34.469  11.892
34160W        W99640  22.587  42.326   0.960
34161W        W99641  35.578  20.740   1.757
34162W        W99642  34.064  20.594   1.731
34163W        W99643  19.272  23.192   3.815
34164W        W99644  21.042  24.528   1.313
34165W        W99645  44.276  32.097   4.284
34166W        W99646  44.387  29.157  12.364
34167W        W99647  38.568   2.315  11.559
34168W        W99648  35.443  12.644  14.463
34169W        W99649  19.644  27.553   1.379
34170W        W99650  21.612  41.908  11.610
34171W        W99651  34.067   2.467  12.061
34172W        W99652  14.678  31.903  13.998
34173W        W99653  35.964   8.377  13.414
34174W        W99654  14.302  40.894   3.164
34175W        W99655  29.959  20.626  12.472
34176W        W99656  41.856   3.360  10.968
34177W        W99657  32.885  17.664   1.274
34178W        W99658  21.710   1.975   3.707
34179W        W99659  33.964  14.625  13.857
34180W        W99660  11.150   5.326   2.206
34181W        W99661   4.307  26.510   4.186
34182W        W99662  35.553   1.847  12.072
34183W        W99663  42.905  16.194   1.735
34184W        W99664  14.818   1.331  13.897
34185W        W99665  23.083   6.365   1.718
34186W        W99666  37.864  20.164  12.044
34187W        W99667   0.755  27.661  11.596
34188W        W99668  44.883  11.824  13.493
34189W        W99669   5.805   7.815  14.942
34190W        W99670  30.926  31.915  11.025
34191W        W99671  17.687   6.694  12.344
34192W        W99672   1.393  44.992  12.441
34193W        W99673  34.101  17.257  12.925
34194W        W99674   5.755   7.894   3.172
34195W        W99675  39.494  26.487  13.347
34196W        W99676  40.825  18.775   0.910
34197W        W99677  27.154  21.247   3.633
34198W        W99678   3.313  30.088   2.224
34199W        W99679  20.179   8.338  11.886
34200W        W99680  22.583  10.210  13.994
34201W        W99681  33.593  14.177  12.411
34202W        W99682  24.116  11.273  11.969
34203W        W99683  29.555  17.189  12.070
34204W        W99684  16.191  25.511   0.792
34205W        W99685  28.992  15.211   3.166
34206W        W99686  42.490  39.550   1.438
34207W        W99687  24.028  12.615   4.180
34208W        W99688   6.420   4.801   3.289
34209W        W99689  33.035  35.366  14.000
34210W        W99690  16.796  10.786   0.945
34211W        W99691   0.800  30.457  13.806
34212W        W99692  38.390   2.378  12.526
34213W        W99693  44.888  26.092  11.011
34214W        W99694  29.087  12.686  11.927
34215W        W99695  43.472  40.482  10.574
34216W        W99696  13.705  14.229   1.768
34217W        W99697  22.675  36.530  12.878
34218W        W99698  42.800  27.548   1.349
34219W        W99699   7.316   7.781   1.333
34220W        W99700  22.727  30.045  12.475
34221W        W99701   3.897  43.008  14.276
34222W        W99702  13.329   9.649   4.743
34223W        W99703   2.252  13.129  12.954
34224W        W99704  25.037  40.867  11.889
34225W        W99705  17.188  14.110  14.992
34226W        W99706  19.727  28.080   4.787
34227W        W99707  18.169  12.634  13.349
34228W        W99708  31.544   7.676   2.879
34229W        W99709  28.016  38.512   3.720
34230W        W99710  14.253   7.775  11.045
34231W        W99711  44.468  21.204   3.178
34232W        W99712  37.048  30.101  13.995
34233W        W99713  37.360   8.190   4.298
34234W        W99714  11.792  19.557  14.896
34235W        W99715  21.103  43.511   9.989
34236W        W99716  33.502  23.144  11.518
34237W        W99717  32.073  35.972   3.196
34238W        W99718  33.067  28.472   2.197
34239W        W99719  31.024   4.400   0.359
34240W        W99720  24.492   8.405   4.307
34241W        W99721  15.593  15.278   1.348
34242W        W99722  37.950  42.016  14.292
34243W        W99723   1.453   0.455   4.211
34244W        W99724  12.196  35.052   0.905
34245W        W99725  40.010  10.844   4.147
34246W        W99726  44.807  43.906   1.725
34247W        W99727  33.565  32.968   0.916
34248W        W99728   5.217   9.655  11.504
34249W        W99729  14.777  20.714  10.527
34250W        W99730   8.843   0.471  10.920
34251W        W99731  44.878  21.528   4.173
34252W        W99732  34.924  13.773  13.351
34253W        W99733  12.286  15.612   1.276
34254W        W99734  16.094  35.468  14.415
34255W        W99735  18.666  40.972  10.511
34256W        W99736   9.784   2.883  13.055
34257W        W99737   2.240  17.270   5.082
34258W        W99738  12.826  26.980  12.921
34259W        W99739  13.329  12.807   0.384
34260W        W99740  20.139  38.827  12.000
34261W        W99741  23.546  23.608   3.187
34262W        W99742  23.159  13.834  13.981
34263W        W99743  37.920  44.360  14.870
34264W        W99744  34.978  17.068   3.712
34265W        W99745  11.178  16.176  14.852
34266W        W99746   6.312   9.290   4.140
34267W        W99747   9.167  21.558  14.819
34268W        W99748  18.781  27.690   5.236
34269W        W99749  26.993   5.405   3.654
34270W        W99750  17.627   9.237  11.954
34271W        W99751  42.407  21.609   1.333
34272W        W99752  32.968   1.342  10.631
34273W        W99753  14.153  42.959  10.906
34274W        W99754   3.238  33.916   2.389
34275W        W99755  35.476  20.244   4.794
34276W        W99756  29.593  28.479   1.352
34277W        W99757  34.539  34.456   2.866
34278W        W99758  39.509   5.694  13.368
34279W        W99759   4.336  38.479   4.353
34280W        W99760  41.940  37.458  11.482
34281W        W99761  19.171  14.334   4.733
34282W        W99762  14.336  26.469  11.420
34283W        W99763   4.801  23.212   2.674
34284W        W99764   7.208  32.457  10.457
34285W        W99765   7.240   7.853   1.839
34286W        W99766  38.027  25.703  12.938
34287W        W99767  44.449  38.433   3.824
34288W        W99768  20.053   3.381  14.310
34289W        W99769  27.013  41.371   1.437
34290W        W99770  41.034   8.389   2.809
34291W        W99771  16.192  44.874   2.220
34292W        W99772  30.658  44.866   2.276
34293W        W99773  34.561  20.196  10.510
34294W        W99774  44.809  24.175   3.235
34295W        W99775  41.952  35.085   2.386
34296W        W99776  15.301  39.037  11.433
34297W        W99777  34.428   1.792  11.405
34298W        W99778   0.809  17.607   1.293
34299W        W99779  28.015   5.882   2.189
34300W        W99780   7.371  37.433  13.870
34301W        W99781   4.871   1.857   4.723
34302W        W99782  27.681  18.095   0.431
34303W        W99783  17.088   5.699   0.735
34304W        W99784   6.854   5.879   1.363
34305W        W99785  28.546   6.212   4.191
34306W        W99786  31.906   2.357   1.292
34307W        W99787  30.924  34.948   3.241
34308W        W99788  36.415  20.037  10.535
34309W        W99789  39.834  29.947  13.935
34310W        W99790  19.558  21.722   3.799
34311W        W99791   8.831   7.410  14.379
34312W        W99792  19.117  42.819   1.419
34313W        W99793  21.643  12.292  12.431
34314W        W99794  32.524   6.393  12.905
34315W        W99795  41.044  44.383  11.996
34316W        W99796  20.675  35.956   4.244
34317W        W99797  44.396   2.381   1.898
34318W        W99798   2.938  12.756  14.363
34319W        W99799  25.629  39.851  10.024
34320W        W99800  32.466   2.413  10.436
34321W        W99801  23.130  10.774   3.850
34322W        W99802  42.873   7.899  11.103
34323W        W99803  12.228  24.016  11.104
34324W        W99804   2.742  28.618  14.936
34325W        W99805  24.545   8.746   5.092
34326W        W99806  15.271  38.553   3.806
34327W        W99807  17.267   3.764   2.267
34328W        W99808  17.797  21.136  12.956
34329W        W99809  29.586  14.266   2.296
34330W        W99810  42.908  15.689  12.537
34331W        W99811  34.105  11.791  11.594
34332W        W99812  26.628   2.256  13.902
34333W        W99813  37.964  37.386  14.337
34334W        W99814   4.270  12.199  13.405
34335W        W99815  44.930  11.290   2.359
34336W        W99816  11.184   1.775   3.668
34337W        W99817  43.767  31.920  12.511
34338W        W99818  35.074  18.688  13.401
34339W        W99819   5.797  17.610  13.908
34340W        W99820  32.055  11.349  13.959
34341W        W99821  42.028  35.514   4.835
34342W        W99822  29.960   0.428   0.477
34343W        W99823  20.137  36.075   0.345
34344W        W99824  12.349  37.084  13.902
34345W        W99825   4.811  19.582  11.392
34346W        W99826  12.176   8.309   3.705
34347W        W99827   3.363  14.240   3.274
34348W        W99828  38.962  32.132  11.451
34349W        W99829  35.070  26.472  12.082
34350W        W99830  25.170  32.905  14.991
34351W        W99831  34.026  22.577   3.808
34352W        W99832   1.873  40.917  14.484
34353W        W99833   5.242  35.585   2.265
34354W        W99834   3.905  44.878  12.852
34355W        W99835  32.999   8.392   0.268
34356W        W99836  38.920  11.750   4.774
34357W        W99837  10.815  42.404   3.801
34358W        W99838  35.962  24.627   3.268
34359W        W99839   9.844   5.894   4.349
34360W        W99840  37.362  31.095   0.426
34361W        W99841  31.632  25.186   3.689
34362W        W99842  10.222  17.729   0.775
34363W        W99843  30.930  15.167  11.985
34364W        W99844  43.785   4.224   2.895
34365W        W99845  16.294  31.912  10.144
34366W        W99846  15.619  17.200  12.400
34367W        W99847   7.836  13.599   0.878
34368W        W99848  43.436  20.619  14.802
34369W        W99849  33.618  19.163   1.289
34370W        W99850   3.901  38.029   0.843
34371W        W99851  12.148  38.955   4.334
34372W        W99852  31.998  13.705   2.829
34373W        W99853  14.813  39.955  12.840
34374W        W99854   1.470  26.505  14.859
34375W        W99855  23.526   6.407  14.911
34376W        W99856  39.314  16.760  11.039
34377W        W99857  40.409  29.507   0.769
34378W        W99858   9.357  12.803  10.893
34379W        W99859  27.119  29.526   9.946
34380W        W99860  10.649   3.349  11.424
34381W        W99861  40.347  15.720  12.375
34382W        W99862  18.708  25.682   3.800
34383W        W99863  36.851  44.319   2.361
34384W        W99864  14.107  30.594   2.771
34385W        W99865  42.456  28.012   0.470
34386W        W99866  31.497   1.772   2.196
34387W        W99867   9.666   9.377   3.258
34388W        W99868  16.305  27.036  10.473
34389W        W99869   0.446   0.887   3.357
34390W        W99870  26.479  41.395   0.880
34391W        W99871  41.321   9.881  11.596
34392W        W99872  34.902  36.474  14.507
34393W        W99873  11.625  32.390  11.992
34394W        W99874  10.146   6.257  10.896
34395W        W99875   5.361  40.883   3.295
34396W        W99876  30.942   7.712   4.249
34397W        W99877  29.539  34.039  11.102
34398W        W99878  35.445  23.989  11.524
34399W        W99879   4.326   0.330   4.788
34400W        W99880  14.765  11.833   0.432
34401W        W99881  41.017  24.986  14.949
34402W        W99882  15.176   8.277  14.476
34403W        W99883   5.386   3.946   1.757
34404W        W99884  30.091  20.183  11.117
34405W        W99885   8.681  27.476   1.803
34406W        W99886  15.250  27.626  14.901
34407W        W99887  37.455   1.774  12.061
34408W        W99888  11.684  27.586  10.573
34409W        W99889   1.249  32.121  14.449
34410W        W99890   1.744  18.277   3.862
34411W        W99891  36.466   4.367   2.275
34412W        W99892   1.404  36.867   2.796
34413W        W99893  34.045  28.514   4.342
34414W        W99894   9.365  36.988   4.828
34415W        W99895   8.264  16.593  13.434
34416W        W99896  17.557  22.587   2.281
34417W        W99897  15.756  21.112   4.281
34418W        W99898   8.194  31.899  12.489
34419W        W99899  16.613  14.832   9.953
34420W        W99900  37.976   6.276   2.311
34421W        W99901   1.372  41.387   3.276
34422W        W99902  32.633  19.062  14.516
34423W        W99903   8.783  11.355   4.211
34424W        W99904  24.643  32.014   0.422
34425W        W99905  38.011  10.828   0.944
34426W        W99906  10.828  24.122   4.674
34427W        W99907   1.376  25.178  10.971
34428W        W99908  21.690   3.444   0.842
34429W        W99909  44.435  42.419  14.001
34430W        W99910  42.522  11.294   1.835
34431W        W99911  12.134  26.524   3.696
34432W        W99912  15.654  24.012  14.850
34433W        W99913  17.664  28.949   0.446
34434W        W99914  13.256  25.512   4.618
34435W        W99915  39.039  44.345   4.144
34436W        W99916  32.605  29.432  13.455
34437W        W99917   0.772  17.725   2.890
34438W        W99918  41.792  22.151   3.236
34439W        W99919  25.602  12.622  13.525
34440W        W99920   8.190  40.318  10.613
34441W        W99921  18.111  43.874  14.319
34442W        W99922  18.175   0.827  12.522
34443W        W99923  37.391  25.057   0.332
34444W        W99924  36.473   5.892   0.353
34445W        W99925  40.541  43.950   3.350
34446W        W99926  36.016  14.817  11.033
34447W        W99927  18.700  23.589   4.649
34448W        W99928   6.780  41.342  11.898
34449W        W99929  33.486  14.318   0.943
34450W        W99930  28.168  38.455  13.388
34451W        W99931  29.054   6.273   0.825
34452W        W99932  41.336  27.965   5.206
34453W        W99933  19.257  38.467   4.667
34454W        W99934  28.451  14.222   2.217
34455W        W99935  14.224  10.342   4.658
34456W        W99936  35.526  17.216   3.170
34457W        W99937   5.332  35.942  12.962
34458W        W99938  27.667  24.643   2.801
34459W        W99939   9.888  24.595  10.487
34460W        W99940  11.193  22.162  13.918
34461W        W99941  17.706  35.882  14.013
34462W        W99942  26.082  27.001   0.255
34463W        W99943  42.024  30.030  12.973
34464W        W99944  16.274  34.469   2.191
34465W        W99945  14.333   8.200  13.526
34466W        W99946  14.241  33.380  13.906
34467W        W99947  22.590  25.707  10.628
34468W        W99948  15.280   0.483   3.291
34469W        W99949  21.588  15.607   0.381
34470W        W99950   5.845  30.574  11.453
34471W        W99951  13.749   0.858   0.257
34472W        W99952  35.910  19.629   4.669
34473W        W99953  30.038  11.713   4.806
34474W        W99954  40.360  35.587   1.226
34475W        W99955  10.174  19.181   0.782
34476W        W99956  40.534  30.033  11.462
34477W        W99957  32.900  25.219  11.479
34478W        W99958  36.438  19.535  13.049
34479W        W99959  25.991  33.949  12.432
34480W        W99960   4.276  22.648   4.336
34481W        W99961  35.040  21.094  12.389
34482W        W99962  11.633  22.237  11.916
34483W        W99963  18.292   9.195  13.461
34484W        W99964  16.281  33.591   5.590
34485W        W99965  22.512  10.717   3.633
34486W        W99966  27.027  30.996  14.313
34487W        W99967  33.597  21.676   4.285
34488W        W99968  15.207  33.602   4.133
34489W        W99969  16.124  23.177   1.249
34490W        W99970  44.503  26.662  11.902
34491W        W99971  40.899  28.516   1.702
34492W        W99972  20.237  31.495  11.372
34493W        W99973  30.013  40.050  13.369
34494W        W99974   1.358   9.322  14.007
34495W        W99975  36.419  36.575   1.862
34496W        W99976  33.457  26.976  13.898
34497W        W99977  19.069  21.078   4.348
34498W        W99978  43.516  42.934   0.912
34499W        W99979   2.251   7.856   3.148
34500W        W99980  13.167  40.940   9.981
34501W        W99981  16.216  24.656  13.384
34502W        W99982   0.313   0.946  12.879
34503W        W99983  33.120  26.001  11.435
34504W        W99984  18.702  21.677  11.410
34505W        W99985  11.147  41.487   2.202
34506W        W99986  26.625  21.137  14.986
34507W        W99987  13.840   0.967  11.871
34508W        W99988  29.571  17.750  11.607
34509W        W99989  27.488  39.961   2.210
34510W        W99990  34.501   7.224  11.094
34511W        W99991   1.976  23.213  10.583
34512W        W99992   7.681  36.900   3.770
34513W        W99993  23.214   9.655  13.828
34514W        W99994  15.651   1.321  10.561
34515W        W99995  22.702  12.335  11.950
34516W        W99996  13.140   2.946  12.451
34517W        W99997  10.691  23.495  14.440
34518W        W99998  32.477  31.138  10.539
34519W        W99999  28.959  36.932  14.860
34520W        W    0  31.421  26.013  11.601
34521W        W    1  38.875  25.694   3.371
34522W        W    2  20.606  37.067  11.009
34523W        W    3  23.649  16.133   4.218
34524W        W    4  13.779  13.811  14.424
34525W        W    5  24.711  22.745  10.507
34526W        W    6   9.261  17.669   2.235
34527W        W    7  20.548  18.246  14.018
34528W        W    8  25.472   5.696   3.849
34529W        W    9  26.680  36.965   0.879
34530W        W   10   4.831  14.626   1.386
34531W        W   11   5.274  37.431   2.185
34532W        W   12   7.324  23.994  14.836
34533W        W   13  37.452  11.705  11.074
34534W        W   14   5.277  27.952   4.233
34535W        W   15  22.657  39.905   3.289
34536W        W   16  11.302  10.293  10.440
34537W        W   17  35.976  21.578   0.288
34538W        W   18  18.137  31.995  12.830
34539W        W   19   7.363  37.343   2.326
34540W        W   20  44.770   4.249  13.051
34541W        W   21  35.067  40.464  10.919
34542W        W   22  44.313   6.289  13.996
34543W        W   23  26.099  38.049   2.209
34544W        W   24  41.384  15.592  13.020
34545W        W   25  42.830   2.455   0.263
34546W        W   26   8.305  16.119   1.255
34547W        W   27  21.721  39.330   0.337
34548W        W   28  28.645  14.656   3.346
34549W        W   29   2.357  35.024   2.887
34550W        W   30  13.135  33.408   0.402
34551W        W   31  11.136  11.348   3.738
34552W        W   32  17.090   4.214   2.828
34553W        W   33  33.961  42.919   4.658
34554W        W   34  33.038  27.962  13.916
34555W        W   35  32.958   4.781   1.365
34556W        W   36  10.196  25.213  14.337
34557W        W   37  25.155  38.987  11.919
34558W        W   38  19.629  12.269   4.177
34559W        W   39  44.992   4.285  11.580
34560W        W   40  38.967  16.263   3.811
34561W        W   41   9.346   3.897   2.693
34562W        W   42  37.530  10.651  11.916
34563W        W   43  43.771   1.449   2.388
34564W        W   44  33.421   1.339   2.349
34565W        W   45  44.771  26.532  12.419
34566W        W   46   2.452  29.651  14.299
34567W        W   47  23.025  32.886  12.438
34568W        W   48  43.771  32.467   1.214
34569W        W   49  40.449   0.413  11.029
34570W        W   50  22.026  44.891   0.462
34571W        W   51  27.559  18.211  13.496
34572W        W   52  37.432  44.282  10.565
34573W        W   53  13.156  43.906   3.682
34574W        W   54  30.959   6.231   2.718
34575W        W   55  10.808  44.505   2.181
34576W        W   56  19.557  11.629   4.813
34577W        W   57  30.944   5.880  10.480
34578W        W   58   5.433  41.892   4.789
34579W        W   59  15.215  17.180   3.805
34580W        W   60  24.072   8.295  14.913
34581W        W   61  16.802  21.526  13.436
34582W        W   62  29.544   1.790  13.511
34583W        W   63  17.090  29.657   1.824
34584W        W   64  29.058   6.885  12.350
34585W        W   65  22.252  37.058  14.950
34586W        W   66  43.422  12.242   3.273
34587W        W   67  22.220  33.400  12.353
34588W        W   68   9.752  42.310  11.125
34589W        W   69  32.135  30.426   0.440
34590W        W   70  18.287   3.448   3.334
34591W        W   71  19.614  10.738   0.318
34592W        W   72  35.957  34.941  12.899
34593W        W   73   4.741  24.040  13.981
34594W        W   74  18.233  36.904   3.800
34595W        W   75  38.898  43.859  10.005
34596W        W   76  22.200  19.692  13.941
34597W        W   77   4.881  32.468  12.865
34598W        W   78  43.491  43.950   0.254
34599W        W   79  23.075  11.288  10.615
34600W        W   80  30.087  11.228   4.122
34601W        W   81  23.542  38.361  11.394
34602W        W   82  22.996  41.480  12.900
34603W        W   83   3.249  20.248   5.238
34604W        W   84  19.272  36.371   1.326
34605W        W   85   8.876   4.745  11.443
34606W        W   86  30.563  40.947  12.477
34607W        W   87  23.692  36.373   0.818
34608W        W   88  31.580  42.501  13.501
34609W        W   89   1.349  11.180   1.701
34610W        W   90   3.947  25.512   1.242
34611W        W   91  28.065   8.679  13.354
34612W        W   92  30.425  43.991  10.988
34613W        W   93  10.878  26.531  12.962
34614W        W   94  23.000  43.941   1.884
34615W        W   95  16.199  27.000  13.830
34616W        W   96   0.841  10.656  10.635
34617W        W   97  29.055  24.550  13.435
34618W        W   98  28.678  20.159  12.012
34619W        W   99  43.471   3.242   4.169
34620W        W  100  18.662  13.706   2.836
34621W        W  101  33.961  21.628   4.183
34622W        W  102  41.453  36.046  12.938
34623W        W  103  17.709  21.674  13.471
34624W        W  104  42.959  39.045  14.988
34625W        W  105  16.589  33.899  11.452
34626W        W  106  11.352  16.206  13.370
34627W        W  107  25.484  37.896   0.398
34628W        W  108  37.521  29.024  10.427
34629W        W  109   3.303   7.266   2.237
34630W        W  110  28.025  21.132  13.872
34631W        W  111  41.911  37.054   2.260
34632W        W  112  40.963  23.008  10.964
34633W        W  113   9.256  41.413  12.874
34634W        W  114  32.549   6.797   2.860
34635W        W  115   5.779   2.445   1.416
34636W        W  116   2.875   8.726  14.950
34637W        W  117  43.392  27.980   0.390
34638W        W  118   9.791  12.296  12.419
34639W        W  119  39.491  30.064  13.436
34640W        W  120  35.445  22.635  14.383
34641W        W  121  12.823  37.006   3.177
34642W        W  122  38.900  25.083   2.801
34643W        W  123  37.435  43.274   3.334
34644W        W  124   9.192  17.240  13.897
34645W        W  125  28.649  43.498  12.956
34646W        W  126  18.780  17.202   5.096
34647W        W  127  44.305  44.754   3.166
34648W        W  128   0.361  41.984  12.402
34649W        W  129  24.697  34.007  12.844
34650W        W  130  28.524  39.394  11.533
34651W        W  131  20.189  43.983  11.509
34652W        W  132   2.892  12.854   3.167
34653W        W  133  35.072  16.239  11.086
34654W        W  134  15.790  33.874  14.496
34655W        W  135  27.944  35.090   4.803
34656W        W  136  40.819  31.604   4.792
34657W        W  137  20.722  23.156  12.866
34658W        W  138  29.023  21.612   0.336
34659W        W  139  22.519  43.915  13.016
34660W        W  140  10.801   0.440  10.994
34661W        W  141  36.939  11.760   2.740
34662W        W  142  24.677  28.448  14.991
34663W        W  143  44.825  15.735  12.463
34664W        W  144  42.418  44.939  10.556
34665W        W  145  36.452  44.492  14.923
34666W        W  146  22.064  44.784   2.850
34667W        W  147  43.833  44.278  14.013
34668W        W  148  44.260  22.513   2.226
34669W        W  149   4.871  32.520  12.403
34670W        W  150  13.198  24.683   4.668
34671W        W  151  43.300  31.901  13.000
34672W        W  152  27.017  14.824   3.652
34673W        W  153  17.756  40.431   3.352
34674W        W  154  11.302  39.521  12.462
34675W        W  155   5.834  13.135  12.388
34676W        W  156  13.615  42.495   3.222
34677W        W  157  16.195  40.431   3.176
34678W        W  158  11.847  38.511   0.746
34679W        W  159  40.857   7.830  13.465
34680W        W  160  33.046  22.685   1.406
34681W        W  161  28.155   2.286   0.315
34682W        W  162   7.688  42.026   1.350
34683W        W  163  20.160  23.095  11.466
34684W        W  164  36.994  12.726  11.516
34685W        W  165  10.296  18.261  14.764
34686W        W  166  32.082   6.333   3.725
34687W        W  167  12.836  37.032   0.881
34688W        W  168  34.569   0.799  12.055
34689W        W  169   3.847  31.929   0.876
34690W        W  170   5.721   8.174   2.693
34691W        W  171   4.363   0.856   1.392
34692W        W  172  26.474  24.560   2.676
34693W        W  173   4.366  20.631   4.654
34694W        W  174  17.085  38.994   1.920
34695W        W  175  24.704   7.220   4.772
34696W        W  176  14.646  13.146  14.467
34697W        W  177  37.360   1.946   2.713
34698W        W  178   9.223  12.156  13.439
34699W        W  179  11.225   3.391   3.693
34700W        W  180   9.784   9.272   3.848
34701W        W  181  30.413  22.252  11.489
34702W        W  182  26.101  39.379   4.270
34703W        W  183  18.714  22.012  14.481
34704W        W  184  11.296   6.902  12.831
34705W        W  185  37.054  16.567   3.351
34706W        W  186  42.837   1.278  12.532
34707W        W  187  11.300  37.549  12.469
34708W        W  188  26.646  11.327   9.942
34709W        W  189  34.596  36.421   0.399
34710W        W  190  30.958   9.225  11.101
34711W        W  191   7.886  12.686  14.494
34712W        W  192   2.923  38.560  11.990
34713W        W  193  43.766  23.649  10.567
34714W        W  194  44.853  23.114  11.070
34715W        W  195  17.683  22.197   4.608
34716W        W  196  20.626  42.527  14.437
34717W        W  197  20.635  28.048   3.681
34718W        W  198  18.608  31.115  13.443
34719W        W  199   6.380   7.762  12.912
34720W        W  200  44.329  33.522   4.134
34721W        W  201  22.621  40.405  12.450
34722W        W  202  42.282  44.303   1.719
34723W        W  203   7.311  24.101   1.720
34724W        W  204  38.871  24.983   5.172
34725W        W  205   9.829   5.359   0.412
34726W        W  206  41.020   9.303  10.967
34727W        W  207   0.484  13.195   2.301
34728W        W  208  37.531  44.815   3.802
34729W        W  209  15.683  10.747  12.897
34730W        W  210  16.226   7.329   3.737
34731W        W  211  44.308  19.701  13.944
34732W        W  212  26.534  28.181  13.360
34733W        W  213   4.781  13.808  10.447
34734W        W  214  28.575   4.732  14.861
34735W        W  215  17.784  34.012   2.297
34736W        W  216   6.317  18.673   4.715
34737W        W  217  39.037   3.947  14.007
34738W        W  218  39.914  30.603  11.932
34739W        W  219  27.058  35.514  14.838
34740W        W  220  25.181  17.715   1.919
34741W        W  221  10.175  12.852  12.934
34742W        W  222  22.548  44.818   1.797
34743W        W  223  17.650  33.422  10.080
34744W        W  224  41.306  43.282  12.827
34745W        W  225  17.591  26.553  11.919
34746W        W  226  43.959  21.048  13.324
34747W        W  227  44.959   6.381  12.937
34748W        W  228  24.072  25.505   4.345
34749W        W  229   3.878  18.689  13.945
34750W        W  230  22.113  39.955  12.512
34751W        W  231  39.475  41.327   3.346
34752W        W  232  10.772   2.378  14.779
34753W        W  233  27.483  11.720   3.868
34754W        W  234   6.322   1.776   5.092
34755W        W  235  20.581   4.264   1.870
34756W        W  236   8.857  42.945  13.047
34757W        W  237  42.481   6.422  11.427
34758W        W  238  24.589  33.624   4.302
34759W        W  239   0.486  38.031   0.912
34760W        W  240  41.439  14.321  14.931
34761W        W  241  31.960  17.686  14.361
34762W        W  242  39.548  14.795  12.459
34763W        W  243  24.688  29.992   1.931
34764W        W  244  35.939  21.148  13.009
34765W        W  245  21.653   5.812  11.424
34766W        W  246  11.825  14.791   4.602
34767W        W  247  39.949   0.400   0.326
34768W        W  248  30.612   2.736  12.375
34769W        W  249  23.641   4.257  11.922
34770W        W  250   3.873   1.912   2.873
34771W        W  251  36.848  39.849  11.566
34772W        W  252  10.310   3.752  12.971
34773W        W  253  14.702  25.530  10.501
34774W        W  254   3.456  28.130  13.540
34775W        W  255   3.221  37.843   2.752
34776W        W  256  22.234   6.864  11.434
34777W        W  257  28.158  36.841  14.928
34778W        W  258  24.525  20.100  10.517
34779W        W  259   5.768  22.222  10.580
34780W        W  260   5.695   9.717   0.764
34781W        W  261  44.396  40.871  14.311
34782W        W  262  30.113  24.705   4.642
34783W        W  263  10.352  41.929   5.109
34784W        W  264  10.724  17.599   0.753
34785W        W  265  44.870  28.178  12.514
34786W        W  266  24.038  16.669   3.720
34787W        W  267  33.616   0.920   0.339
34788W        W  268   2.369  38.384  12.993
34789W        W  269   4.390   0.452   2.235
34790W        W  270  28.486  27.096  13.894
34791W        W  271  28.151  39.824  10.077
34792W        W  272   0.456  22.603   1.914
34793W        W  273  10.222  26.189   2.693
34794W        W  274   1.759  44.876  14.025
34795W        W  275  28.170  10.857  14.297
34796W        W  276  36.080  31.057  13.347
34797W        W  277  38.386  18.550   3.258
34798W        W  278  28.603   4.764  11.540
34799W        W  279  31.414  43.936  12.449
34800W        W  280  33.037  15.286  13.504
34801W        W  281   0.371  25.190  12.980
34802W        W  282  15.320   6.768  10.431
34803W        W  283  13.776  17.191   3.863
34804W        W  284  38.985   2.452  12.464
34805W        W  285   7.724   4.263  12.893
34806W        W  286   3.251  18.091   3.254
34807W        W  287  25.093  39.010   2.797
34808W        W  288  37.407  28.021  10.539
34809W        W  289  22.622  26.533  10.979
34810W        W  290  13.139   6.405  12.016
34811W        W  291  27.586  36.350   0.899
34812W        W  292  19.062  29.100  14.931
34813W        W  293  39.546  21.746   2.178
34814W        W  294   4.356   9.385  13.488
34815W        W  295  32.522  19.569   3.174
34816W        W  296  25.070  31.598  13.374
34817W        W  297  10.860  39.943   1.855
34818W        W  298   0.479  33.572  12.824
34819W        W  299  39.887  27.093  14.374
34820W        W  300  21.685  28.957   3.191
34821W        W  301  40.537  32.411   4.786
34822W        W  302  32.050  29.948   0.309
34823W        W  303  31.422   8.894   1.352
34824W        W  304  28.669  18.700   2.219
34825W        W  305  23.629  16.255  12.058
34826W        W  306  24.521  12.822   3.796
34827W        W  307  26.496  35.358  14.431
34828W        W  308  34.369  41.481  14.008
34829W        W  309  30.097   8.189  11.960
34830W        W  310   9.888  30.014  11.394
34831W        W  311  11.718   1.359   3.179
34832W        W  312  12.663  40.434   2.186
34833W        W  313  13.184  19.537   4.206
34834W        W  314  29.654  40.800  11.980
34835W        W  315  15.767   5.337  14.298
34836W        W  316  32.625   6.779   2.198
34837W        W  317  12.657   6.238  11.028
34838W        W  318   0.380  42.840   2.350
34839W        W  319   3.416   8.757   0.428
34840W        W  320  25.082   5.770   2.776
34841W        W  321  32.593  17.790  11.476
34842W        W  322  11.735  27.166   0.476
34843W        W  323  23.172  28.595   0.369
34844W        W  324  24.104  40.810   1.267
34845W        W  325  27.127   1.294   0.917
34846W        W  326  26.166  26.992  14.776
34847W        W  327  22.180   9.858  10.599
34848W        W  328  13.636  32.636  11.992
34849W        W  329  35.410  16.798   0.786
34850W        W  330  29.086   4.900  11.881
34851W        W  331   0.908  23.518   4.351
34852W        W  332  16.721  22.593  14.339
34853W        W  333  21.530   8.205  14.276
34854W        W  334  37.365  23.668   4.242
34855W        W  335  19.211  30.581   1.448
34856W        W  336  21.116  16.700  12.942
34857W        W  337   8.747  20.757   3.733
34858W        W  338  43.837  13.723   0.730
34859W        W  339  14.821  26.995   3.357
34860W        W  340  43.373  11.678  11.574
34861W        W  341  43.794  29.445  10.529
34862W        W  342  28.514  18.709   4.242
34863W        W  343  26.587  30.149   1.261
34864W        W  344  32.908  37.086   1.230
34865W        W  345  36.514  33.054  11.591
34866W        W  346  32.616  12.140  11.558
34867W        W  347  24.196  15.179   3.260
34868W        W  348  23.231  32.409   0.731
34869W        W  349  36.360  10.280  14.793
34870W        W  350  24.677  25.997  12.531
34871W        W  351  39.819  42.310   1.853
34872W        W  352  28.105  27.530   0.429
34873W        W  353  32.967  43.991   4.627
34874W        W  354  37.995  32.963   1.770
34875W        W  355  26.644  30.467   3.181
34876W        W  356  30.162  13.329  13.045
34877W        W  357   8.361   6.311   2.343
34878W        W  358  31.597   0.882  14.312
34879W        W  359  26.976   1.456  13.800
34880W        W  360   2.958   8.284  13.980
34881W        W  361  38.382   0.846  13.432
34882W        W  362   4.224  40.953  10.574
34883W        W  363  31.902  36.572  11.929
34884W        W  364  39.008  44.290   0.484
34885W        W  365  14.327  35.950  13.882
34886W        W  366  41.900  24.210  14.761
34887W        W  367  10.827  32.446   4.270
34888W        W  368  30.027   9.680   4.268
34889W        W  369  37.367  34.509  11.541
34890W        W  370  14.187  20.247  11.051
34891W        W  371  29.613   5.895  14.031
34892W        W  372  27.449  25.548  12.095
34893W        W  373  23.726  22.193   2.189
34894W        W  374  10.265  28.573   0.755
34895W        W  375  20.063  42.391   0.337
34896W        W  376  32.037   3.726   4.703
34897W        W  377   7.827  35.405   1.733
34898W        W  378  38.542  11.767   4.189
34899W        W  379   0.341  16.169  13.812
34900W        W  380   6.226  41.522  13.504
34901W        W  381  20.112  40.356   0.769
34902W        W  382  41.422   2.371  12.945
34903W        W  383  10.172   4.869  12.957
34904W        W  384  11.337  18.644  13.524
34905W        W  385  39.461   4.303   0.293
34906W        W  386  12.225   8.396  14.842
34907W        W  387  25.494  18.626   4.194
34908W        W  388  36.421  38.325  10.630
34909W        W  389  27.639  37.549   1.885
34910W        W  390  10.674  29.059   1.410
34911W        W  391  17.124  43.389   2.308
34912W        W  392  13.793  21.187  13.913
34913W        W  393  10.252  21.609  11.605
34914W        W  394  18.588   8.320  14.796
34915W        W  395  35.412  41.339  13.049
34916W        W  396  20.743  26.121   1.250
34917W        W  397  26.037   7.411   0.755
34918W        W  398  15.236  25.181   0.379
34919W        W  399  38.478  34.901   4.224
34920W        W  400  27.635  18.119   2.744
34921W        W  401  37.389  11.302  14.767
34922W        W  402  42.897   6.388   3.227
34923W        W  403   4.347  42.914  10.482
34924W        W  404   7.194  19.635  13.463
34925W        W  405  29.587  34.954   3.379
34926W        W  406  32.540  16.078  13.475
34927W        W  407  20.760  18.193   4.214
34928W        W  408  43.505   8.304  12.933
34929W        W  409  28.553  18.232   4.336
34930W        W  410  13.608  41.450  13.328
34931W        W  411  14.297  15.226   0.324
34932W        W  412  39.934   3.267   1.230
34933W        W  413  27.087  20.164   3.274
34934W        W  414  24.138   2.801  10.055
34935W        W  415  44.391  38.070   9.965
34936W        W  416  35.061   0.376  10.151
34937W        W  417  11.202  41.824  10.068
34938W        W  418  31.018   4.757  11.129
34939W        W  419  15.175  43.513  11.544
34940W        W  420  36.566  41.459   1.707
34941W        W  421  23.695  13.214   2.677
34942W        W  422  19.665  41.446   2.834
34943W        W  423  41.846  43.955  13.485
34944W        W  424  28.453  36.448  13.535
34945W        W  425  13.765  28.616   4.235
34946W        W  426  41.033  11.772   1.827
34947W        W  427  11.245  33.510   4.725
34948W        W  428  16.139   1.248  11.560
34949W        W  429   2.418  10.263   3.357
34950W        W  430  23.991  41.040   1.833
34951W        W  431   3.902   9.221  11.477
34952W        W  432  28.960  44.326  12.537
34953W        W  433   3.955   6.776  11.985
34954W        W  434  38.998  44.455  14.032
34955W        W  435  41.039   7.840  14.436
34956W        W  436  37.059   6.194   1.231
34957W        W  437  34.039  30.549  12.473
34958W        W  438  13.829  19.753   2.272
34959W        W  439   7.902  28.583  12.852
34960W        W  440  40.481  21.245   1.909
34961W        W  441  33.087  27.690   1.352
34962W        W  442  38.570  31.479  10.541
34963W        W  443  27.015  35.907   4.307
34964W        W  444  31.006  17.662   4.832
34965W        W  445  26.685  25.656   3.169
34966W        W  446  41.008  17.604  12.408
34967W        W  447  19.096  39.338   4.298
34968W        W  448  12.790   3.734   1.917
34969W        W  449  18.107  10.315  11.992
34970W        W  450   1.388  42.032  12.978
34971W        W  451  27.632  16.773  12.010
34972W        W  452   2.276  37.499  12.379
34973W        W  453  20.654  38.562  14.487
34974W        W  454  34.979   1.895  11.914
34975W        W  455  13.244  26.103  13.985
34976W        W  456  18.084  28.481  10.549
34977W        W  457  38.428  37.582  11.061
34978W        W  458  42.791  27.149   0.470
34979W        W  459  19.179   8.750   3.320
34980W        W  460  35.445   7.851   4.711
34981W        W  461  28.139  28.948  12.054
34982W        W  462  44.414  17.087  12.580
34983W        W  463  28.601  17.740   2.736
34984W        W  464  14.758  22.228  11.055
34985W        W  465   2.437   7.381   1.245
34986W        W  466  13.119  24.197   2.802
34987W        W  467  26.117  43.913  14.777
34988W        W  468   5.255  28.538  11.972
34989W        W  469   2.808  23.680   1.354
34990W        W  470  15.736  40.382  14.337
34991W        W  471  15.683  36.997   3.782
34992W        W  472   8.240  38.872   0.805
34993W        W  473  44.867   2.306   1.737
34994W        W  474  36.047  36.961  13.524
34995W        W  475  29.526  40.462   1.355
34996W        W  476   1.351  23.621   4.717
34997W        W  477   9.682  33.990  10.472
34998W        W  478  43.919   6.217  11.559
34999W        W  479  30.658  11.366  14.795
35000W        W  480  43.855  36.553   0.900
35001W        W  481  22.135  27.518   4.224
35002W        W  482  37.344   2.249   4.200
35003W        W  483  44.302   6.304  13.486
35004W        W  484  27.132  36.388   0.368
35005W        W  485  22.708  34.400  10.963
35006W        W  486  13.346  24.711  14.786
35007W        W  487   1.405  39.368   2.793
35008W        W  488  30.425  41.953  10.438
35009W        W  489  29.631  23.158   0.263
35010W        W  490  24.613  36.084  14.923
35011W        W  491  29.556  41.003   0.740
35012W        W  492   9.312  26.030   3.637
35013W        W  493  14.140  35.368  11.520
35014W        W  494  15.298  36.518  14.021
35015W        W  495  44.420  24.200   2.225
35016W        W  496  25.012  31.150   0.296
35017W        W  497  28.438  30.555   4.308
35018W        W  498  30.090  29.441   0.814
35019W        W  499  33.915  15.775  11.981
35020W        W  500  15.810   9.845  11.545
35021W        W  501   9.180   1.893   2.754
35022W        W  502   7.795  31.992   3.340
35023W        W  503   7.821  18.712  10.153
35024W        W  504  34.871  14.204   3.193
35025W        W  505  14.703  10.674  11.982
35026W        W  506   1.879  12.179  10.626
35027W        W  507  30.102  15.784   2.360
35028W        W  508  30.029   0.764  14.445
35029W        W  509   4.708  10.759  13.391
35030W        W  510  42.938  41.344   4.777
35031W        W  511  39.531  31.573  11.129
35032W        W  512  26.026  20.043  13.904
35033W        W  513   6.428  31.405   3.848
35034W        W  514   4.779  13.725   2.327
35035W        W  515   6.890  32.541   0.249
35036W        W  516  10.749  37.043   1.438
35037W        W  517  25.051  25.081  14.413
35038W        W  518  10.686   0.431   4.830
35039W        W  519  22.539  37.473  13.393
35040W        W  520  44.264   7.249   1.694
35041W        W  521  31.924  10.820  14.932
35042W        W  522  41.408  22.685   2.665
35043W        W  523  41.976  39.974   0.876
35044W        W  524  16.652  41.928   4.610
35045W        W  525  27.511  37.488  13.018
35046W        W  526  26.102  35.517  14.904
35047W        W  527  26.702  12.156   1.309
35048W        W  528  28.573  44.355  12.563
35049W        W  529  14.713  19.135   0.387
35050W        W  530  44.883  25.691  11.392
35051W        W  531   4.860  26.690  10.097
35052W        W  532  17.101   5.413   0.367
35053W        W  533  40.813  25.211   3.758
35054W        W  534   3.894  15.303   0.432
35055W        W  535  10.259  28.084   0.890
35056W        W  536  28.939  33.484   4.807
35057W        W  537  34.517   4.854   2.672
35058W        W  538  14.109  42.937  13.541
35059W        W  539  12.129  34.390   1.717
35060W        W  540  27.944  34.090   1.287
35061W        W  541  31.630  41.849   4.243
35062W        W  542  34.093  12.661   1.423
35063W        W  543  36.868  33.474   2.370
35064W        W  544  18.722  15.771  14.504
35065W        W  545  15.277   2.326   3.780
35066W        W  546  34.908  31.593  13.388
35067W        W  547   1.831  24.071  14.511
35068W        W  548   6.260  37.081  13.517
35069W        W  549  42.853   1.381   3.669
35070W        W  550  24.140  13.273  12.430
35071W        W  551  26.610  38.556   3.206
35072W        W  552  37.468   1.287  13.938
35073W        W  553  11.285  26.540  10.630
35074W        W  554  44.435  36.475  11.114
35075W        W  555  28.650  35.932   4.688
35076W        W  556   2.864  13.651   0.275
35077W        W  557  31.075   0.791  11.497
35078W        W  558  32.905  27.662  11.994
35079W        W  559  21.111  25.678  12.004
35080W        W  560  11.347   2.332  11.008
35081W        W  561  29.574  30.114  13.337
35082W        W  562  14.288   9.340  10.954
35083W        W  563  17.626  10.836  11.029
35084W        W  564  29.929  31.432   4.233
35085W        W  565  30.997  14.724   4.792
35086W        W  566   3.431  41.394  12.851
35087W        W  567   7.883   9.383   2.286
35088W        W  568  16.216  38.458   4.621
35089W        W  569  39.529  18.198  11.388
35090W        W  570  15.810   6.723   0.280
35091W        W  571  11.303  42.886   3.373
35092W        W  572   4.247  40.971   0.274
35093W        W  573  15.672  28.006  13.845
35094W        W  574  15.658   9.659  14.924
35095W        W  575  19.612   8.816  12.956
35096W        W  576  37.961  20.161   3.184
35097W        W  577  24.693  25.037   3.228
35098W        W  578  20.620  35.590  12.545
35099W        W  579  32.064   1.258  12.476
35100W        W  580  36.859   5.317   0.950
35101W        W  581  35.371  13.804  12.826
35102W        W  582  20.162  37.532   1.796
35103W        W  583  28.563   3.919   0.924
35104W        W  584  19.614  42.414   1.376
35105W        W  585  16.251  18.588  13.009
35106W        W  586  27.986  23.987  12.882
35107W        W  587  26.192  38.860  13.355
35108W        W  588   1.875   9.234  13.939
35109W        W  589  10.696   7.878   2.757
35110W        W  590  43.412  36.351  10.508
35111W        W  591  43.900  15.645   1.288
35112W        W  592  42.892   3.883  14.463
35113W        W  593  17.250   1.312  12.984
35114W        W  594   2.456  29.005   3.177
35115W        W  595  12.301  39.905   4.833
35116W        W  596   9.154   8.892   0.468
35117W        W  597   2.251  34.911  10.110
35118W        W  598  43.982   7.884  10.976
35119W        W  599  17.649  10.287  14.339
35120W        W  600  30.426  26.071   2.298
35121W        W  601   4.747  32.621   0.331
35122W        W  602  28.614   7.692   1.813
35123W        W  603  32.929   7.837  14.930
35124W        W  604  43.818  18.160   4.234
35125W        W  605  33.914  37.987   2.285
35126W        W  606   2.367  36.070   1.721
35127W        W  607  24.584   0.904  14.368
35128W        W  608  32.069  28.592  11.974
35129W        W  609   7.216  22.738  13.896
35130W        W  610  13.801   6.768   2.792
35131W        W  611  10.359  42.509   0.878
35132W        W  612   6.358   1.903   3.227
35133W        W  613   0.928  27.654  13.460
35134W        W  614  40.423  13.105   0.405
35135W        W  615   3.798  43.426  12.409
35136W        W  616  34.415  15.291  11.405
35137W        W  617  12.712  11.232  13.466
35138W        W  618   0.882  44.343  14.470
35139W        W  619   6.708  20.247  13.959
35140W        W  620  39.923  17.604   1.886
35141W        W  621  19.202  25.201  10.035
35142W        W  622  33.956   8.883  13.000
35143W        W  623   5.248   4.356  14.511
35144W        W  624  36.097   5.341  13.527
35145W        W  625  34.948  32.527   4.772
35146W        W  626  38.339   1.770  10.607
35147W        W  627  39.849  31.407   4.597
35148W        W  628   8.266  30.930   0.413
35149W        W  629  28.964  30.500  11.105
35150W        W  630  37.402  40.305   1.345
35151W        W  631  15.139   7.336   2.250
35152W        W  632  38.525  28.177  11.475
35153W        W  633   1.363  14.785   2.298
35154W        W  634  35.984  14.684   1.697
35155W        W  635  36.462  42.350   2.396
35156W        W  636  13.752  40.005  10.521
35157W        W  637   5.920  12.192  10.615
35158W        W  638   6.847  44.444  11.861
35159W        W  639  27.084   2.820   2.862
35160W        W  640  22.160   7.313   2.851
35161W        W  641  37.408  21.018   1.264
35162W        W  642  36.905  21.020   1.777
35163W        W  643  36.862   2.936   0.284
35164W        W  644  29.102  21.053   1.760
35165W        W  645  43.875  14.718  13.432
35166W        W  646  12.770  30.067  10.497
35167W        W  647  43.796   2.300  11.581
35168W        W  648  44.783  21.546   1.836
35169W        W  649  37.414  11.654   2.886
35170W        W  650  28.109   8.300  11.494
35171W        W  651  32.434  18.629  13.059
35172W        W  652  38.556  34.491  14.816
35173W        W  653  27.161  40.045  12.509
35174W        W  654   3.415  39.847  12.949
35175W        W  655   1.291  31.490   2.758
35176W        W  656  29.490  25.103  11.482
35177W        W  657   5.270  29.919   1.433
35178W        W  658  33.453  21.160   9.961
35179W        W  659  34.419  42.420  10.620
35180W        W  660  42.459  34.581  12.917
35181W        W  661  28.486   1.339  13.010
35182W        W  662   5.273  17.085   2.271
35183W        W  663   5.431  12.270   2.690
35184W        W  664  26.086   6.275  12.407
35185W        W  665  44.484  31.411   4.226
35186W        W  666   0.450  35.051   2.198
35187W        W  667  10.819  13.699   4.720
35188W        W  668  22.525   6.883  11.974
35189W        W  669   5.754   9.287  12.345
35190W        W  670  40.913  16.143  12.555
35191W        W  671  10.197  14.100   1.444
35192W        W  672   4.274  13.228   3.279
35193W        W  673  20.552  41.346  14.802
35194W        W  674   2.769   1.423  10.449
35195W        W  675  36.090  32.443   2.701
35196W        W  676  19.220  16.578   1.263
35197W        W  677   0.786  44.495  12.855
35198W        W  678   7.333  41.467  14.795
35199W        W  679  40.922   0.421  13.478
35200W        W  680   1.776  17.603   3.183
35201W        W  681  17.604  15.645  14.293
35202W        W  682  39.437  26.541  13.032
35203W        W  683  29.972  29.988  14.019
35204W        W  684  43.006   8.376   0.812
35205W        W  685  19.116  25.615  13.966
35206W        W  686  11.676  32.111   2.322
35207W        W  687  34.061  17.732  13.357
35208W        W  688   6.321   4.348  12.375
35209W        W  689  33.564  33.537  10.071
35210W        W  690  25.595  43.363   1.306
35211W        W  691   3.955  42.438  13.026
35212W        W  692   8.816   0.412  10.481
35213W        W  693  42.287  27.176   4.836
35214W        W  694   6.835  11.781   0.915
35215W        W  695  16.286  35.528   2.737
35216W        W  696  10.690   7.816   4.302
35217W        W  697  27.078  23.597   1.830
35218W        W  698   0.323   9.241   3.232
35219W        W  699  35.525  25.638   2.757
35220W        W  700  42.446  24.995   0.755
35221W        W  701   9.684  44.405  11.458
35222W        W  702  13.278   1.818   1.923
35223W        W  703  27.113  28.565  10.428
35224W        W  704  24.582   6.271  14.999
35225W        W  705  39.368   4.255  13.346
35226W        W  706  20.055  19.655  13.854
35227W        W  707  31.985  19.104   1.811
35228W        W  708  15.674  16.112   5.311
35229W        W  709  36.018  26.155   2.838
35230W        W  710  16.724   8.376  12.844
35231W        W  711  32.475   3.277  12.450
35232W        W  712  25.136  31.903   0.898
35233W        W  713  43.463  19.057  14.816
35234W        W  714   0.905  36.378  12.988
35235W        W  715  37.562  35.877  11.872
35236W        W  716  28.464  21.686   2.699
35237W        W  717  27.987  18.600   2.318
35238W        W  718  41.487  29.113   0.327
35239W        W  719  24.555  32.954  10.952
35240W        W  720  12.239  19.722   1.233
35241W        W  721  23.168   9.820   3.288
35242W        W  722  29.490  39.965   2.247
35243W        W  723  13.636  41.979  13.492
35244W        W  724  33.472  17.150  11.546
35245W        W  725  12.182  31.101   3.866
35246W        W  726  11.138   1.932  10.908
35247W        W  727   9.779  12.261   4.750
35248W        W  728  25.186  35.979  12.949
35249W        W  729   2.464  42.414  13.846
35250W        W  730  19.143  33.989  11.866
35251W        W  731   8.162  34.610  12.478
35252W        W  732   8.853  41.390  13.335
35253W        W  733  42.403  41.458  10.953
35254W        W  734  37.350  43.330   2.279
35255W        W  735   1.268   2.829   1.914
35256W        W  736  12.818   5.320   2.257
35257W        W  737   9.826  36.593  14.026
35258W        W  738  41.505  22.670   1.392
35259W        W  739  23.168  31.402   1.846
35260W        W  740  10.658   5.865  13.365
35261W        W  741  17.215   3.425   1.440
35262W        W  742  42.375  19.749   5.122
35263W        W  743  30.443  36.943   3.661
35264W        W  744   6.898  42.487  11.995
35265W        W  745  10.383  32.953   2.342
35266W        W  746   4.708  44.888  10.545
35267W        W  747  12.697   7.337   0.753
35268W        W  748  16.575  13.626   2.238
35269W        W  749  16.569  18.598  13.418
35270W        W  750   0.270   0.982  10.479
35271W        W  751  14.717  23.062   4.140
35272W        W  752  15.579   7.825  14.495
35273W        W  753  21.179   5.330   3.229
35274W        W  754  15.711  26.524   5.248
35275W        W  755  29.932  39.019  13.339
35276W        W  756  13.224  20.180   2.212
35277W        W  757  30.024  44.407  10.925
35278W        W  758  27.041  36.054   1.221
35279W        W  759  35.483  35.931   0.771
35280W        W  760  36.071  14.743   0.395
35281W        W  761  27.181   0.969   0.308
35282W        W  762   2.418  42.497  12.522
35283W        W  763  44.259  16.690  13.856
35284W        W  764  39.393  39.389   2.375
35285W        W  765  23.702   8.867   2.892
35286W        W  766  43.819  39.536  14.822
35287W        W  767  11.265  12.648   4.273
35288W        W  768   3.387   2.944   4.241
35289W        W  769  43.826  13.349   1.310
35290W        W  770   3.818  38.348   1.260
35291W        W  771  33.524  28.114  13.807
35292W        W  772   4.811  36.846   3.210
35293W        W  773  21.649   9.816  11.864
35294W        W  774  29.425   1.851  12.924
35295W        W  775  39.822   7.758   0.428
35296W        W  776   0.786   6.873   4.705
35297W        W  777  12.640  33.033   0.779
35298W        W  778  20.214   6.215  13.832
35299W        W  779  40.509   2.468   3.769
35300W        W  780  40.488  38.325   2.866
35301W        W  781  25.183  24.041   4.150
35302W        W  782  33.111   6.330  14.764
35303W        W  783  36.062  26.603   3.306
35304W        W  784   3.274   8.334  14.853
35305W        W  785  23.006   0.306  10.978
35306W        W  786   6.219   1.892   3.642
35307W        W  787  10.824   1.731   0.408
35308W        W  788  15.160  30.118   4.238
35309W        W  789  17.599  42.325   2.740
35310W        W  790  14.273   6.226   2.737
35311W        W  791  39.848  32.128   3.159
35312W        W  792  16.697  42.381   2.410
35313W        W  793  37.379  10.198  13.475
35314W        W  794   5.420   3.341  13.533
35315W        W  795  29.987  36.528  10.513
35316W        W  796  34.052  24.691   2.748
35317W        W  797  34.968  12.639  12.536
35318W        W  798  37.042  12.720  12.898
35319W        W  799  34.957  42.315  10.618
35320W        W  800  27.659  14.828   3.179
35321W        W  801  35.454  34.493  13.495
35322W        W  802  15.735  28.146  10.907
35323W        W  803   4.863   3.333  10.565
35324W        W  804  11.857  18.085   0.935
35325W        W  805  20.088   1.787  14.373
35326W        W  806  19.074  43.799  10.420
35327W        W  807  31.934   8.347  14.020
35328W        W  808  22.616  21.615  12.963
35329W        W  809  31.912  26.516  14.375
35330W        W  810   5.425  20.043  12.417
35331W        W  811  16.201  17.152   1.420
35332W        W  812  14.720  11.682   1.360
35333W        W  813  35.539  30.914  14.917
35334W        W  814   1.275   5.420   1.237
35335W        W  815  34.494  28.052  12.514
35336W        W  816  30.962  33.517   1.850
35337W        W  817  20.235   0.884   4.696
35338W        W  818  19.079   4.412  12.554
35339W        W  819  11.307   9.756  14.925
35340W        W  820  30.936  35.526  11.580
35341W        W  821   7.802   6.810  12.831
35342W        W  822  35.908  41.979   3.855
35343W        W  823   3.381   4.432  11.044
35344W        W  824  12.280  34.432  10.572
35345W        W  825   9.268   2.902   1.380
35346W        W  826  19.590  25.002  11.993
35347W        W  827  28.474  17.616   3.296
35348W        W  828  29.119  11.859   0.904
35349W        W  829  13.708  31.938   4.262
35350W        W  830  26.965   2.441  13.515
35351W        W  831  12.731   4.741   4.284
35352W        W  832  19.210  15.774   9.938
35353W        W  833  19.107  39.923   0.871
35354W        W  834  25.524  24.193  10.934
35355W        W  835  44.970  15.764  14.889
35356W        W  836  14.125  27.663  11.111
35357W        W  837   3.428  15.320  11.896
35358W        W  838  24.030  42.003  14.797
35359W        W  839  13.753  29.546  14.328
35360W        W  840  27.684  13.252  14.284
35361W        W  841  15.145  19.709  11.492
35362W        W  842  35.931  35.571   1.868
35363W        W  843   9.337  23.172  13.435
35364W        W  844   0.492   3.460   4.211
35365W        W  845  25.653  39.486  13.463
35366W        W  846   4.823  37.031  13.058
35367W        W  847  35.991  12.637  12.966
35368W        W  848  13.677  36.369   3.709
35369W        W  849  33.444  17.732  13.017
35370W        W  850   8.212   1.852   3.748
35371W        W  851  26.556  26.556   1.760
35372W        W  852  22.556  19.145  14.844
35373W        W  853   7.294   8.854   2.358
35374W        W  854  42.369  27.660   1.795
35375W        W  855  20.633   6.786  13.868
35376W        W  856  15.639  13.140   3.784
35377W        W  857  19.565  10.670   1.250
35378W        W  858   4.448   8.350  13.339
35379W        W  859   2.943   1.410   1.436
35380W        W  860  18.702   7.839   0.763
35381W        W  861   5.889  35.565  11.108
35382W        W  862  41.390   4.795  12.509
35383W        W  863  10.362   1.840   3.846
35384W        W  864   8.332  30.952   3.266
35385W        W  865  39.490   0.843   4.766
35386W        W  866  13.701  13.699   2.681
35387W        W  867  34.457  38.512   2.677
35388W        W  868   5.317  28.071  11.468
35389W        W  869  11.301  14.815   4.192
35390W        W  870   3.772  18.634   0.901
35391W        W  871  19.565   1.938   1.287
35392W        W  872   8.377  28.100   1.756
35393W        W  873  23.567  30.976   2.323
35394W        W  874  22.656  14.606  13.928
35395W        W  875   9.271   5.830   2.302
35396W        W  876  24.084  26.488  14.903
35397W        W  877  43.830  11.274   0.264
35398W        W  878  12.325  13.699  12.561
35399W        W  879   3.285  16.194  11.936
35400W        W  880  33.612  25.597  12.877
35401W        W  881   6.909  31.062   0.247
35402W        W  882  22.518  41.838  12.887
35403W        W  883   0.285  16.756  10.520
35404W        W  884   0.358  29.149  13.984
35405W        W  885  36.076   3.876   1.783
35406W        W  886  39.041  21.537  14.384
35407W        W  887  17.624  39.469   4.271
35408W        W  888  41.504  35.056  10.406
35409W        W  889  21.564  32.524  10.553
35410W        W  890  35.937  19.104  12.031
35411W        W  891  19.170   4.804   3.347
35412W        W  892  22.571  25.176  10.069
35413W        W  893  37.455   5.284   2.709
35414W        W  894  34.411  22.732  12.932
35415W        W  895  31.559  20.725  11.953
35416W        W  896  32.987  34.936  14.445
35417W        W  897  13.268  17.118   1.394
35418W        W  898  24.142  29.441   4.787
35419W        W  899  25.027  29.034   3.840
35420W        W  900   4.827  44.430  12.020
35421W        W  901  21.218  29.659  11.504
35422W        W  902   9.376  32.928  11.981
35423W        W  903  16.746   5.214  14.469
35424W        W  904  19.556  38.007  10.489
35425W        W  905  21.215  13.808   1.839
35426W        W  906  36.389   2.754  12.009
35427W        W  907  28.176  34.538  14.283
35428W        W  908   8.813  26.485   2.837
35429W        W  909  11.245  35.531   2.750
35430W        W  910  10.757  42.432  14.440
35431W        W  911   4.698  13.296  13.855
35432W        W  912  31.041   2.914   0.304
35433W        W  913   0.865  15.244   3.671
35434W        W  914  16.631   5.770  12.571
35435W        W  915  27.112  24.535  13.870
35436W        W  916   5.333  38.466   0.458
35437W        W  917   7.823   3.383   1.927
35438W        W  918  22.036  26.492  13.020
35439W        W  919  31.547  24.585  11.115
35440W        W  920   1.481  11.822   4.152
35441W        W  921  14.592  29.614  14.788
35442W        W  922   9.239  31.035   4.750
35443W        W  923  38.516  23.087  14.822
35444W        W  924  16.225  25.488  13.923
35445W        W  925  44.947  34.870   1.764
35446W        W  926  16.695  10.802   1.781
35447W        W  927   9.359   9.681  13.950
35448W        W  928  24.673  33.606  11.521
35449W        W  929  33.108  39.376  12.997
35450W        W  930   7.174   5.412  12.912
35451W        W  931   1.407  34.534   1.313
35452W        W  932  23.211  44.853   3.340
35453W        W  933   8.880  11.271  14.399
35454W        W  934  32.115  35.023   4.683
35455W        W  935  11.256   6.391   4.736
35456W        W  936  19.670  39.316   2.725
35457W        W  937  10.253  41.298  11.122
35458W        W  938  41.807  40.325  13.044
35459W        W  939  29.973   3.932   3.288
35460W        W  940  26.583  43.382  12.379
35461W        W  941  25.102   8.404   2.834
35462W        W  942   9.767  35.107  11.946
35463W        W  943  32.071  29.507   0.860
35464W        W  944  26.019   1.267   2.245
35465W        W  945  27.457   9.321  11.884
35466W        W  946  39.549  41.790  12.984
35467W        W  947   7.831  17.065   1.317
35468W        W  948  31.549  25.089  11.015
35469W        W  949  31.096  40.025   1.777
35470W        W  950   3.452   0.282  14.377
35471W        W  951  39.331  33.013  10.925
35472W        W  952   3.217  26.670  14.026
35473W        W  953  21.023   8.399   0.364
35474W        W  954  11.312   1.737  11.429
35475W        W  955  20.150   8.698   0.480
35476W        W  956  43.851  40.420  11.524
35477W        W  957  11.300  19.136   2.734
35478W        W  958  39.458   7.865  14.029
35479W        W  959  37.873  29.156  13.023
35480W        W  960  34.379   7.716  11.922
35481W        W  961  32.047  14.268   3.738
35482W        W  962  17.796  33.031   0.393
35483W        W  963  22.698  38.494  10.409
35484W        W  964  41.293  37.517   1.357
35485W        W  965   3.750  44.826  10.986
35486W        W  966  36.554  18.101   3.376
35487W        W  967   7.796  39.462  12.061
35488W        W  968  31.411  43.356  12.554
35489W        W  969  25.057  34.957   2.821
35490W        W  970  33.964   5.360  11.113
35491W        W  971  41.928  33.587  11.037
35492W        W  972  39.558  41.463  13.457
35493W        W  973  32.419  38.436   3.346
35494W        W  974   4.205   3.922  14.315
35495W        W  975   9.881  37.878   0.881
35496W        W  976  27.640  16.714   0.289
35497W        W  977  41.027  36.367   0.943
35498W        W  978  43.769  23.687   1.283
35499W        W  979  42.402  34.502   4.694
35500W        W  980  17.249  30.638   3.152
35501W        W  981  16.672  11.793  13.971
35502W        W  982  44.930  36.570  14.805
35503W        W  983  38.559  26.544  10.910
35504W        W  984  17.181  34.473  13.879
35505W        W  985  21.247  31.586   3.694
35506W        W  986  15.664   6.740  10.888
35507W        W  987  31.622  42.980   1.339
35508W        W  988   9.729  31.438   0.456
35509W        W  989   8.685  33.941   4.705
35510W        W  990   2.428   3.824   3.785
35511W        W  991  34.876  38.875  12.350
35512W        W  992  38.014  42.965   2.245
35513W        W  993   6.838  30.041   2.902
35514W        W  994  42.410  41.357  12.575
35515W        W  995   0.824   4.313   4.263
35516W        W  996  33.447   7.753   1.807
35517W        W  997  22.056  32.448  10.536
35518W        W  998  42.914   8.688  14.357
35519W        W  999  23.209  11.150  14.315
35520W        W 1000   5.271  18.632   4.237
35521W        W 1001  19.059  37.563  13.828
35522W        W 1002  16.083  43.985  11.371
35523W        W 1003  20.248  33.462  12.001
35524W        W 1004  15.131  42.499  13.859
35525W        W 1005  10.174  22.078  12.358
35526W        W 1006  24.003   2.756  10.996
35527W        W 1007  33.545  37.375   0.933
35528W        W 1008  19.659   1.418   1.257
35529W        W 1009  19.225  28.462  11.967
35530W        W 1010  43.863  16.803  10.488
35531W        W 1011  29.037   3.415   4.202
35532W        W 1012   5.219  36.392   0.813
35533W        W 1013  13.303  30.474  11.040
35534W        W 1014   2.257  25.577   1.696
35535W        W 1015   2.422   6.404   2.726
35536W        W 1016  28.506   6.182   0.357
35537W        W 1017   2.948   8.689  11.545
35538W        W 1018  22.540  26.532   3.842
35539W        W 1019  31.596  36.907   2.761
35540W        W 1020  30.412  18.278  11.999
35541W        W 1021  27.447  25.107  13.024
35542W        W 1022  41.037   9.193   0.731
35543W        W 1023  19.070  36.986   3.283
35544W        W 1024  16.774   7.841   0.246
35545W        W 1025  10.186   1.413  13.974
35546W        W 1026  20.123  25.217   2.848
35547W        W 1027   2.802   7.811   3.223
35548W        W 1028  36.949   0.751  13.814
35549W        W 1029  44.299  33.388  10.407
35550W        W 1030   6.396  24.580  14.486
35551W        W 1031   6.768  35.372   1.759
35552W        W 1032  24.498  18.775   3.362
35553W        W 1033  18.613  15.799   2.873
35554W        W 1034  17.085   1.255   1.408
35555W        W 1035   2.305  39.032   1.404
35556W        W 1036   4.788  39.996   4.664
35557W        W 1037  43.411  31.478   3.178
35558W        W 1038   7.214  11.270   3.800
35559W        W 1039  41.932  26.581  14.440
35560W        W 1040  27.959  28.017   5.093
35561W        W 1041  40.537   1.268   0.396
35562W        W 1042  29.050  12.643   2.220
35563W        W 1043  35.514  29.989   2.708
35564W        W 1044  23.214   0.946   3.775
35565W        W 1045  17.262  18.090  11.859
35566W        W 1046  14.329  24.978   3.838
35567W        W 1047   8.161  37.026  12.044
35568W        W 1048  12.140  37.852  10.956
35569W        W 1049  13.837  33.967  14.943
35570W        W 1050  26.012  18.774   0.786
35571W        W 1051   4.396   5.325  10.924
35572W        W 1052  17.681  29.165  13.060
35573W        W 1053  34.541  41.306  11.867
35574W        W 1054   9.175  22.026   2.727
35575W        W 1055  38.927  22.187   2.300
35576W        W 1056  16.127  24.627  14.899
35577W        W 1057  40.376   2.327   0.314
35578W        W 1058   6.699   2.328   0.438
35579W        W 1059  39.875  16.236   1.797
35580W        W 1060  38.416  31.014   2.720
35581W        W 1061  11.713   9.153   4.692
35582W        W 1062   2.796  11.782  12.998
35583W        W 1063  10.807   5.277  13.951
35584W        W 1064  26.595   0.850   3.677
35585W        W 1065   1.412  23.630  12.547
35586W        W 1066  29.999  33.545  14.352
35587W        W 1067  12.183   4.893   1.342
35588W        W 1068  12.745   5.267  14.318
35589W        W 1069  19.690  28.118   2.690
35590W        W 1070   6.818  24.580  14.431
35591W        W 1071   4.874   0.799  11.099
35592W        W 1072  36.879   0.339  13.920
35593W        W 1073  31.606  27.551   4.291
35594W        W 1074  12.720  38.500  13.468
35595W        W 1075  37.376  21.098   4.750
35596W        W 1076  31.510  19.200  14.919
35597W        W 1077   0.902  28.004  13.913
35598W        W 1078  40.457  11.283  10.608
35599W        W 1079  37.946  44.820   4.304
35600W        W 1080  28.059  19.126  13.947
35601W        W 1081   9.285  11.315  11.109
35602W        W 1082   6.259  20.589  13.923
35603W        W 1083  42.999  25.652  11.877
35604W        W 1084  32.106  31.897  10.076
35605W        W 1085   9.174  39.488   2.256
35606W        W 1086   8.710  44.813  11.544
35607W        W 1087  29.163  24.530   0.770
35608W        W 1088  25.964  31.009   4.116
35609W        W 1089   5.375   9.850  10.932
35610W        W 1090  42.928  10.263   2.748
35611W        W 1091  12.774  11.803  14.870
35612W        W 1092  33.612  32.506   1.708
35613W        W 1093   7.278   7.832   0.744
35614W        W 1094  37.010  18.631  10.418
35615W        W 1095  42.317  31.512  13.862
35616W        W 1096  25.093   4.382   2.712
35617W        W 1097  11.831   4.212   4.170
35618W        W 1098  17.086  32.438  10.968
35619W        W 1099  43.963  43.765  13.416
35620W        W 1100  28.503  16.164   3.638
35621W        W 1101  12.703  41.851   5.605
35622W        W 1102  43.830  42.815  12.090
35623W        W 1103  26.583  18.094   3.257
35624W        W 1104  20.123  25.001   0.450
35625W        W 1105   1.431  25.658   3.637
35626W        W 1106  34.512  32.469  10.988
35627W        W 1107  10.222  32.998  11.997
35628W        W 1108  44.493  41.529   1.854
35629W        W 1109  30.469  36.518  11.413
35630W        W 1110  16.566  35.357   3.642
35631W        W 1111  16.265   7.672  12.474
35632W        W 1112  22.206  23.699   3.720
35633W        W 1113  28.116  16.684  10.497
35634W        W 1114  16.733  27.638  11.390
35635W        W 1115   8.276  11.330   4.758
35636W        W 1116   9.711  41.498   0.834
35637W        W 1117  32.002   6.332   2.239
35638W        W 1118  19.057   5.438   2.419
35639W        W 1119  39.827  40.921   3.185
35640W        W 1120   0.394   5.697  14.859
35641W        W 1121  34.574  35.960   4.135
35642W        W 1122  37.412   1.915   4.724
35643W        W 1123  38.002  41.478  12.479
35644W        W 1124  24.013  26.031  12.044
35645W        W 1125  13.806  16.077   1.845
35646W        W 1126  32.006   2.300   5.141
35647W        W 1127  37.029   8.218  14.873
35648W        W 1128  19.736  30.484   2.300
35649W        W 1129  21.537  20.164  11.870
35650W        W 1130  22.142  30.585  13.869
35651W        W 1131  11.350  30.977   3.819
35652W        W 1132  40.007  33.994   3.191
35653W        W 1133  11.347  15.596   1.819
35654W        W 1134  12.165  37.558   0.870
35655W        W 1135  28.680  43.371  10.506
35656W        W 1136   7.256  13.809   0.278
35657W        W 1137   6.204  25.011  14.299
35658W        W 1138   7.667  18.146   2.799
35659W        W 1139  29.047  21.103   3.780
35660W        W 1140  29.920   4.383  10.614
35661W        W 1141  14.830  12.122  11.549
35662W        W 1142  23.720  39.817   0.799
35663W        W 1143  20.226  30.957   0.832
35664W        W 1144  34.549  15.635  10.575
35665W        W 1145   8.774  15.623   1.239
35666W        W 1146  42.961  34.928  13.007
35667W        W 1147  29.450  44.334  11.047
35668W        W 1148  38.875  29.012  14.952
35669W        W 1149  36.565  17.646   0.470
35670W        W 1150  33.909   3.424   0.907
35671W        W 1151   4.246   2.263  14.419
35672W        W 1152  42.904  12.132   4.173
35673W        W 1153  30.927  29.041  14.872
35674W        W 1154  40.397   0.875   3.765
35675W        W 1155  13.833  33.598   1.754
35676W        W 1156  19.120  43.321   0.939
35677W        W 1157  32.923  19.718   2.368
35678W        W 1158  34.892  12.752   2.196
35679W        W 1159  31.595  28.942   0.452
35680W        W 1160  15.249  30.569   4.619
35681W        W 1161  13.261  25.139   0.824
35682W        W 1162  42.946   0.862   1.301
35683W        W 1163  25.702  26.617  13.519
35684W        W 1164  31.915   0.270   3.227
35685W        W 1165  42.839   2.761   2.190
35686W        W 1166   3.737  31.990   5.284
35687W        W 1167  24.490   1.815   3.160
35688W        W 1168  35.973  23.660  13.932
35689W        W 1169   8.697  41.441  14.853
35690W        W 1170   8.762   6.369  13.931
35691W        W 1171  21.113  16.620   0.412
35692W        W 1172  36.348  34.386  12.453
35693W        W 1173  37.947   7.294  11.929
35694W        W 1174  36.369  18.225  10.644
35695W        W 1175   7.668  27.143   2.857
35696W        W 1176  14.297   2.263   0.805
35697W        W 1177  33.977  40.463   2.386
35698W        W 1178  17.677  17.713   0.418
35699W        W 1179  30.973  17.764  11.907
35700W        W 1180   9.804  19.144   0.925
35701W        W 1181  35.361  15.274  14.977
35702W        W 1182  18.717  37.507   2.405
35703W        W 1183   1.473   8.679  14.004
35704W        W 1184  17.237  18.143  13.908
35705W        W 1185   8.347  43.853  11.010
35706W        W 1186   7.903  12.337  11.573
35707W        W 1187  20.099  42.409  13.914
35708W        W 1188  14.284  11.228   4.228
35709W        W 1189  28.111  43.341  10.627
35710W        W 1190   8.881  40.978  10.445
35711W        W 1191  44.917  33.458  10.985
35712W        W 1192  20.632  34.097   3.668
35713W        W 1193  43.275  38.887  13.421
35714W        W 1194  20.606  19.069  13.846
35715W        W 1195  18.260  42.787  12.048
35716W        W 1196  34.434   9.824   4.340
35717W        W 1197  11.857  22.995  11.060
35718W        W 1198  10.674  34.955  12.936
35719W        W 1199  15.792  18.244  13.367
35720W        W 1200   1.870  12.173   3.646
35721W        W 1201   5.856   4.283  14.280
35722W        W 1202  31.088  11.627   1.773
35723W        W 1203   5.853   4.718  11.515
35724W        W 1204   8.873  42.381   0.399
35725W        W 1205  15.084  34.589  11.410
35726W        W 1206   0.900   5.722  10.483
35727W        W 1207  31.474  44.915  13.313
35728W        W 1208  16.775  25.021  11.021
35729W        W 1209  12.693  22.015  13.548
35730W        W 1210  17.185  42.787   1.709
35731W        W 1211  25.992  13.322   3.377
35732W        W 1212  30.506  27.946   2.853
35733W        W 1213  42.486  23.729  11.885
35734W        W 1214  15.156   7.750  11.003
35735W        W 1215  31.543  39.378   1.891
35736W        W 1216  26.479  10.743  11.969
35737W        W 1217  37.545  31.624   3.794
35738W        W 1218   0.260   6.813   0.926
35739W        W 1219  31.085  22.679   4.250
35740W        W 1220  43.411  43.482   1.214
35741W        W 1221  29.455  31.934   4.142
35742W        W 1222  21.144  37.017  13.404
35743W        W 1223   8.846  12.233  10.501
35744W        W 1224  39.451  23.560  12.050
35745W        W 1225  30.934   9.653  13.502
35746W        W 1226   7.734  28.662   1.914
35747W        W 1227   6.375   7.252   3.212
35748W        W 1228  23.001  31.599  11.068
35749W        W 1229  33.427  30.639  13.392
35750W        W 1230  25.080   3.929  14.400
35751W        W 1231  18.230   5.316   4.655
35752W        W 1232  10.341   4.747   0.261
35753W        W 1233  43.783  30.919  11.586
35754W        W 1234   7.775  37.554  13.373
35755W        W 1235  17.072  28.637   0.781
35756W        W 1236  12.175  16.242  11.035
35757W        W 1237  33.483  18.697   5.149
35758W        W 1238  37.963  20.713  13.004
35759W        W 1239  25.076  37.018  12.578
35760W        W 1240  34.521  32.095  14.462
35761W        W 1241   1.327  24.001   3.767
35762W        W 1242  21.633  15.289   1.430
35763W        W 1243   7.218  21.678  10.511
35764W        W 1244   7.882   5.381   4.281
35765W        W 1245  40.358  14.299   5.297
35766W        W 1246   4.329  24.544  13.490
35767W        W 1247  42.423  15.321  12.831
35768W        W 1248  24.669  24.625  11.975
35769W        W 1249  34.117  16.781   4.788
35770W        W 1250  17.725  19.168  11.503
35771W        W 1251  34.878   6.352   2.785
35772W        W 1252  16.757   2.834   3.301
35773W        W 1253  42.470  32.964  10.604
35774W        W 1254   9.181  43.349   3.814
35775W        W 1255  41.394  13.309   3.684
35776W        W 1256  12.753  25.582  10.894
35777W        W 1257  14.103   1.745   0.302
35778W        W 1258  32.930  42.370  12.476
35779W        W 1259  40.042  35.381   2.418
35780W        W 1260   2.356  16.648   0.842
35781W        W 1261  28.051  18.714  12.425
35782W        W 1262  16.637  20.632  10.405
35783W        W 1263  22.151  28.135   3.672
35784W        W 1264  40.525  14.167   0.737
35785W        W 1265  26.201  39.438  12.421
35786W        W 1266  44.861   1.938   5.284
35787W        W 1267  33.609  16.725  12.394
35788W        W 1268  11.792  39.015  14.764
35789W        W 1269  31.611   2.274   2.805
35790W        W 1270  43.944   7.320   0.905
35791W        W 1271  32.137  25.564   2.763
35792W        W 1272  19.107  29.592   2.358
35793W        W 1273  32.600  34.532  13.417
35794W        W 1274  11.373  12.343   2.302
35795W        W 1275  23.605   1.446   3.330
35796W        W 1276  26.676  33.475   4.735
35797W        W 1277   7.244  23.618   4.786
35798W        W 1278  32.089  29.517  10.907
35799W        W 1279  39.972  22.734  14.462
35800W        W 1280   7.193   6.208  12.423
35801W        W 1281   0.774  13.170  13.482
35802W        W 1282  22.143   6.699   9.512
35803W        W 1283  25.667  42.812   2.356
35804W        W 1284   6.367  42.306   3.311
35805W        W 1285  23.074  14.780  13.006
35806W        W 1286   4.723  43.850   1.349
35807W        W 1287   3.914   2.772  11.413
35808W        W 1288  34.435  43.497   3.758
35809W        W 1289  20.753  23.608  10.570
35810W        W 1290   7.181  22.620  11.586
35811W        W 1291   7.375   4.801  13.435
35812W        W 1292  20.693  29.572  14.943
35813W        W 1293  31.423   1.735  14.006
35814W        W 1294  19.132  12.182   4.261
35815W        W 1295  14.145  29.614  12.032
35816W        W 1296   9.217  28.137  14.455
35817W        W 1297  29.990  27.605   4.233
35818W        W 1298  27.502  20.587  14.509
35819W        W 1299  29.923  20.748   0.858
35820W        W 1300  42.784   4.307  14.510
35821W        W 1301  17.760  16.654   3.329
35822W        W 1302  14.218  37.966   1.341
35823W        W 1303  22.544  18.619  14.443
35824W        W 1304  40.011  23.219   2.808
35825W        W 1305  43.901  23.023   0.752
35826W        W 1306  17.084   0.785   5.248
35827W        W 1307  29.116  23.717   3.759
35828W        W 1308  22.603  38.505  11.995
35829W        W 1309  17.798   3.343   4.824
35830W        W 1310  23.142  13.149  11.948
35831W        W 1311  37.839  31.496  12.389
35832W        W 1312  42.902   8.328  14.794
35833W        W 1313  31.574   5.298  13.010
35834W        W 1314  44.357  25.085  10.051
35835W        W 1315  31.621  41.513  13.888
35836W        W 1316  14.127   3.828  11.386
35837W        W 1317  33.070  24.689  13.990
35838W        W 1318  36.517  24.207   4.143
35839W        W 1319  21.100   4.301  11.125
35840W        W 1320   9.723   2.939   2.812
35841W        W 1321  41.937  36.058   2.351
35842W        W 1322   6.845  41.518   3.850
35843W        W 1323  26.208  42.022   3.740
35844W        W 1324  25.157  43.887   9.996
35845W        W 1325  36.589  31.539   2.684
35846W        W 1326  31.589  15.741   4.250
35847W        W 1327  12.724  38.066  11.919
35848W        W 1328   2.426   5.913  13.498
35849W        W 1329  14.628   7.727  11.428
35850W        W 1330  31.636  29.927   4.805
35851W        W 1331  13.809  17.664   1.795
35852W        W 1332  11.224  28.553  11.408
35853W        W 1333   3.338  36.080   4.660
35854W        W 1334   6.769   0.492   4.314
35855W        W 1335   4.852  34.935   0.837
35856W        W 1336  37.077  36.977  13.025
35857W        W 1337  43.425  13.804  11.943
35858W        W 1338  25.617  28.094  14.339
35859W        W 1339   8.326  28.668  13.346
35860W        W 1340  43.922  41.823  11.542
35861W        W 1341  10.840  29.110  13.887
35862W        W 1342  40.435  24.146   4.612
35863W        W 1343   4.858  20.062  14.934
35864W        W 1344  29.049  43.858   2.317
35865W        W 1345  37.515  40.027  11.569
35866W        W 1346  17.149  37.572   1.266
35867W        W 1347   6.706  37.863   2.699
35868W        W 1348  14.113  18.101  12.426
35869W        W 1349  20.637  35.932  14.785
35870W        W 1350   9.887  34.395  14.902
35871W        W 1351   2.352  41.883   0.875
35872W        W 1352  33.944  42.877  14.344
35873W        W 1353  44.883   7.304   2.673
35874W        W 1354  41.979  40.862  13.956
35875W        W 1355  29.432   6.913  13.934
35876W        W 1356  37.072   5.421   0.474
35877W        W 1357   4.400  35.939  11.611
35878W        W 1358  42.963  28.173   3.819
35879W        W 1359  12.236   4.842   4.248
35880W        W 1360   7.392  23.157  13.855
35881W        W 1361   6.806  26.014   1.269
35882W        W 1362   1.458  41.017  13.487
35883W        W 1363   6.365   0.772   2.754
35884W        W 1364  31.512  17.076  12.925
35885W        W 1365   8.851  12.786   0.264
35886W        W 1366  17.654  21.082   2.776
35887W        W 1367  14.168  30.052   1.802
35888W        W 1368  11.277  11.186  13.844
35889W        W 1369  15.328  16.278  12.418
35890W        W 1370   2.421   5.857   0.301
35891W        W 1371  34.596  27.687  14.776
35892W        W 1372  16.223  10.686   4.280
35893W        W 1373  15.768   7.694   1.228
35894W        W 1374  18.564  18.262   0.292
35895W        W 1375  30.528  41.796   3.242
35896W        W 1376  16.712   5.257  10.487
35897W        W 1377  20.654   6.780   2.346
35898W        W 1378  29.028   2.249   0.923
35899W        W 1379  11.331  10.671  13.001
35900W        W 1380  39.845  35.061   1.849
35901W        W 1381  12.246  27.626   2.278
35902W        W 1382  36.592  34.080  14.279
35903W        W 1383  41.878   8.781   2.406
35904W        W 1384  12.199  18.262  12.988
35905W        W 1385  30.047  23.060   0.442
35906W        W 1386  36.554  15.287   4.121
35907W        W 1387  32.514  24.993  10.550
35908W        W 1388  19.639  39.911   1.740
35909W        W 1389  22.618  39.911   0.827
35910W        W 1390  33.912  38.827  12.482
35911W        W 1391  13.266  30.511   3.270
35912W        W 1392  22.245   2.770  14.327
35913W        W 1393   7.764  36.553  11.590
35914W        W 1394  14.784   2.858  11.044
35915W        W 1395  18.727  32.888  12.534
35916W        W 1396  13.344  29.150  10.505
35917W        W 1397  43.449  27.011  10.922
35918W        W 1398  34.979  15.695   1.232
35919W        W 1399  30.492  39.009  13.538
35920W        W 1400  35.904   4.824  12.867
35921W        W 1401  40.419   3.357   3.730
35922W        W 1402  11.802  34.549  10.537
35923W        W 1403  31.635  15.215  10.511
35924W        W 1404  19.678  27.548  13.916
35925W        W 1405  25.537  17.063   2.225
35926W        W 1406  39.462  33.065   0.858
35927W        W 1407   5.837  33.127  14.993
35928W        W 1408  18.697  25.152  10.085
35929W        W 1409  40.909   4.374   1.303
35930W        W 1410  16.259  19.197  13.801
35931W        W 1411  43.811  42.390  10.596
35932W        W 1412   4.345  44.846  11.975
35933W        W 1413  10.772   3.285   2.252
35934W        W 1414   3.768  27.546  10.429
35935W        W 1415  22.128  27.091   3.331
35936W        W 1416   0.813  19.574   0.942
35937W        W 1417   0.936  25.553   4.716
35938W        W 1418  37.541  23.048   1.282
35939W        W 1419  30.658  37.942  13.046
35940W        W 1420  36.027  36.026   4.752
35941W        W 1421  10.138  19.664   4.776
35942W        W 1422  28.567  33.624  11.534
35943W        W 1423  20.058  28.472   4.281
35944W        W 1424  44.895  13.743   1.838
35945W        W 1425   2.823  13.756  10.998
35946W        W 1426   7.227  18.195   1.378
35947W        W 1427  25.620   9.699   0.866
35948W        W 1428  32.906  30.133  12.385
35949W        W 1429  21.650  17.202   3.860
35950W        W 1430  30.945  36.997  12.915
35951W        W 1431  13.756  13.612   1.792
35952W        W 1432  39.901  42.781   2.204
35953W        W 1433  27.496  17.581   2.218
35954W        W 1434   3.817  43.890   0.393
35955W        W 1435  22.010  10.308  11.108
35956W        W 1436  26.669  14.150   0.336
35957W        W 1437  39.961  41.943   4.166
35958W        W 1438  15.690  38.982  10.893
35959W        W 1439   0.444   1.355   2.414
35960W        W 1440  43.397  34.582   1.424
35961W        W 1441  35.938   0.973   3.716
35962W        W 1442  30.968  30.638  12.449
35963W        W 1443  43.926  18.710  12.375
35964W        W 1444  15.113  10.648   3.215
35965W        W 1445   1.324  16.291   0.403
35966W        W 1446  33.909  42.925  10.909
35967W        W 1447  23.729  42.419  14.937
35968W        W 1448  23.001  12.157   3.207
35969W        W 1449  42.884  44.374  11.492
35970W        W 1450  22.243  43.352  11.984
35971W        W 1451  26.643  22.068  13.331
35972W        W 1452  24.682  18.729  11.029
35973W        W 1453   9.256  33.016  12.351
35974W        W 1454  41.506  44.376   2.290
35975W        W 1455  22.635  37.068  14.454
35976W        W 1456   6.308  19.688   0.754
35977W        W 1457  28.631  19.092  12.509
35978W        W 1458  34.550  11.168  12.872
35979W        W 1459  39.818   8.761  10.611
35980W        W 1460  12.814  44.466   4.329
35981W        W 1461  11.360   7.799   0.401
35982W        W 1462   4.800   5.930   3.860
35983W        W 1463   6.300   8.792  11.020
35984W        W 1464   5.705  11.795   2.200
35985W        W 1465  44.810  28.023   4.658
35986W        W 1466  36.931   6.311   3.161
35987W        W 1467  44.768  11.277   0.427
35988W        W 1468  13.144  13.646  14.962
35989W        W 1469  43.389  12.685  12.824
35990W        W 1470   0.983   9.687   2.846
35991W        W 1471  32.452  11.220   2.898
35992W        W 1472  19.646  42.785   1.330
35993W        W 1473   0.364  30.960  10.946
35994W        W 1474  32.523  18.222   1.415
35995W        W 1475  31.420  36.535   1.913
35996W        W 1476  41.000  24.496   2.227
35997W        W 1477  41.368  31.085   0.363
35998W        W 1478  27.640  34.990   3.379
35999W        W 1479  42.943  27.087  13.001
36000W        W 1480  19.283  17.066   1.282
36001W        W 1481   8.800  26.158   0.889
36002W        W 1482  44.007   1.270  11.932
36003W        W 1483  22.687  32.528   2.847
36004W        W 1484  12.285  30.518  11.549
36005W        W 1485  18.187  14.102  13.906
36006W        W 1486  26.502   2.327  14.364
36007W        W 1487  14.831  40.374   5.750
36008W        W 1488   1.268  15.730   3.699
36009W        W 1489   3.753  29.148   0.926
36010W        W 1490  14.653  10.874  12.903
36011W        W 1491  18.135  33.448   2.692
36012W        W 1492  41.833  17.664   3.179
36013W        W 1493  20.584   1.827  14.853
36014W        W 1494  31.019  31.605  13.064
36015W        W 1495   1.354  43.482  11.115
36016W        W 1496  23.032  21.621  13.530
36017W        W 1497  32.394  17.240   3.794
36018W        W 1498   5.348  17.307  12.485
36019W        W 1499   6.409  34.404  13.016
36020W        W 1500  44.328  41.365   4.710
36021W        W 1501  25.577  21.252  12.926
36022W        W 1502   9.803   8.225  12.035
36023W        W 1503  20.249  34.614   3.306
36024W        W 1504  33.015  36.355   1.919
36025W        W 1505  11.781  31.507   4.702
36026W        W 1506  21.245  13.750   0.335
36027W        W 1507  20.679  22.715  12.925
36028W        W 1508   3.237  34.373  12.832
36029W        W 1509  36.402  17.696  14.365
36030W        W 1510  29.056   8.292  10.593
36031W        W 1511   8.710  23.008  12.004
36032W        W 1512   5.424  32.495  13.026
36033W        W 1513  36.355  28.529   2.396
36034W        W 1514  30.065  44.359   4.691
36035W        W 1515  38.981   7.763   4.339
36036W        W 1516  44.322  21.611  12.850
36037W        W 1517  20.660   7.906  14.914
36038W        W 1518  26.031  22.237   2.373
36039W        W 1519  28.007  23.577  10.097
36040W        W 1520  35.363   2.428   0.767
36041W        W 1521   8.829  26.556  13.969
36042W        W 1522  35.025  10.721   3.837
36043W        W 1523  16.600  30.967  12.846
36044W        W 1524  17.607   7.270   3.350
36045W        W 1525   5.776   1.844  11.129
36046W        W 1526  13.621   7.745  10.959
36047W        W 1527  44.852  19.621   4.158
36048W        W 1528   7.312  12.686  11.052
36049W        W 1529  20.040   6.352  11.526
36050W        W 1530  28.968   1.471  11.867
36051W        W 1531   0.801  14.618   4.168
36052W        W 1532  35.877   8.756  13.009
36053W        W 1533  20.245  43.863   0.481
36054W        W 1534  20.761  33.433   4.199
36055W        W 1535   3.288  19.762  14.495
36056W        W 1536  10.305  42.439  13.489
36057W        W 1537  36.584   1.824   0.379
36058W        W 1538  13.657  21.232   0.823
36059W        W 1539  16.782  13.289   2.782
36060W        W 1540  40.466  35.454   3.749
36061W        W 1541  25.126  29.561   0.356
36062W        W 1542  12.170   2.245  12.842
36063W        W 1543  14.284  44.383  11.407
36064W        W 1544  43.281  10.746   4.122
36065W        W 1545   7.315  10.202  13.364
36066W        W 1546   0.465   3.354   1.330
36067W        W 1547  26.171  32.112  12.439
36068W        W 1548  39.949   5.349  11.919
36069W        W 1549  14.630   7.331   2.786
36070W        W 1550  21.203   5.252  10.505
36071W        W 1551  25.510  41.338  10.427
36072W        W 1552  10.863  13.245   4.753
36073W        W 1553  38.444  37.378  14.822
36074W        W 1554  43.004  34.023   1.822
36075W        W 1555  25.123  36.858  11.384
36076W        W 1556  36.513  17.106  10.046
36077W        W 1557  19.247  39.028   1.882
36078W        W 1558   9.388  12.724  12.581
36079W        W 1559   3.908  13.297   2.684
36080W        W 1560   8.374  32.552   2.838
36081W        W 1561  17.635   1.900  11.408
36082W        W 1562   6.685  24.985   1.903
36083W        W 1563  39.859  15.139  12.378
36084W        W 1564  33.625  37.078  14.984
36085W        W 1565   4.295  31.493   4.335
36086W        W 1566  38.009  14.123  10.425
36087W        W 1567  43.803  11.228   0.806
36088W        W 1568   3.216  28.150   4.700
36089W        W 1569  33.551  32.976  10.915
36090W        W 1570  17.254  23.641   2.260
36091W        W 1571  31.963  26.009   2.871
36092W        W 1572  13.642  26.105  10.992
36093W        W 1573   9.301  35.007   0.382
36094W        W 1574  15.679  43.809   3.697
36095W        W 1575  21.169  27.975  14.504
36096W        W 1576   4.302  25.104  10.508
36097W        W 1577  29.428  23.553  12.046
36098W        W 1578  39.957  43.376   2.334
36099W        W 1579  44.275  21.512  14.989
36100W        W 1580  38.477  41.526  11.415
36101W        W 1581  35.034   5.792  11.511
36102W        W 1582  21.515  11.720   3.692
36103W        W 1583  14.769  29.009  10.947
36104W        W 1584  20.110  22.714  14.347
36105W        W 1585  20.069  16.221   4.598
36106W        W 1586   0.780  23.204  12.916
36107W        W 1587   2.868  37.370   3.191
36108W        W 1588  35.937  40.819  10.565
36109W        W 1589  43.823  11.664  13.867
36110W        W 1590  35.431   8.895  13.804
36111W        W 1591  25.534  25.042  12.901
36112W        W 1592  23.150  41.326   5.257
36113W        W 1593  20.241  40.444  12.496
36114W        W 1594  42.013  24.629  12.986
36115W        W 1595  37.522  34.974   4.214
36116W        W 1596   4.423  25.528  14.315
36117W        W 1597  37.854   7.766  12.074
36118W        W 1598  12.219  36.465  12.546
36119W        W 1599  34.868  20.726  10.621
36120W        W 1600   7.810  23.186   3.350
36121W        W 1601  25.216  20.122  12.084
36122W        W 1602  38.053  10.152  14.285
36123W        W 1603  38.853   7.717   2.397
36124W        W 1604  41.984   7.813   3.828
36125W        W 1605   3.253  35.434  12.482
36126W        W 1606  26.046  27.525  12.515
36127W        W 1607  18.201  31.610   0.782
36128W        W 1608  34.057   0.429  11.973
36129W        W 1609  40.911  11.287  10.407
36130W        W 1610  28.984  37.016   0.805
36131W        W 1611   0.369  42.028   3.267
36132W        W 1612  13.159  19.117  13.864
36133W        W 1613  44.956  35.874   1.236
36134W        W 1614  27.123   0.476  14.831
36135W        W 1615  18.076  10.714  12.936
36136W        W 1616   4.700  42.519   2.274
36137W        W 1617   0.315   8.263   0.738
36138W        W 1618  15.238  41.307   1.379
36139W        W 1619   3.745  31.469  12.501
36140W        W 1620  34.557  19.270  13.804
36141W        W 1621  36.886   9.276  10.983
36142W        W 1622   8.185  15.603   1.273
36143W        W 1623  27.625  43.943  13.925
36144W        W 1624  12.743   4.911   2.741
36145W        W 1625  23.205  15.215   4.707
36146W        W 1626  30.918  19.221  10.586
36147W        W 1627  37.481   1.408   3.788
36148W        W 1628  18.263  16.777  13.822
36149W        W 1629   0.266  38.870  11.416
36150W        W 1630  21.624  32.058  11.483
36151W        W 1631  16.311   2.961   1.212
36152W        W 1632  29.483  21.025   4.677
36153W        W 1633  37.088   2.338  10.460
36154W        W 1634  32.525   7.765   4.799
36155W        W 1635   1.836  11.868  11.090
36156W        W 1636  10.673  37.575  11.079
36157W        W 1637  23.999  33.548   5.110
36158W        W 1638   4.272  30.441  11.014
36159W        W 1639  38.928  23.518  13.795
36160W        W 1640   6.766   6.693   2.313
36161W        W 1641  21.744  39.914  13.525
36162W        W 1642  42.803  20.215   5.232
36163W        W 1643   4.755  34.976   3.384
36164W        W 1644  22.642   0.382  13.313
36165W        W 1645  35.106  27.567  11.921
36166W        W 1646   4.801   7.673  14.974
36167W        W 1647  12.332  31.553   1.853
36168W        W 1648   5.300  39.421   4.173
36169W        W 1649  36.508  31.647  11.857
36170W        W 1650   7.823  33.942  12.091
36171W        W 1651  36.038  37.994   0.282
36172W        W 1652  21.255  33.504   4.268
36173W        W 1653  28.951  15.152  13.050
36174W        W 1654  17.265  21.246   0.933
36175W        W 1655  39.025  36.420   4.343
36176W        W 1656  39.469  37.445  11.916
36177W        W 1657  25.146  19.780  12.459
36178W        W 1658  32.472  44.305   3.207
36179W        W 1659  28.070  29.088  10.428
36180W        W 1660  34.031  31.961  12.913
36181W        W 1661   7.795  22.614   4.739
36182W        W 1662  37.875   6.297   3.164
36183W        W 1663   5.913  17.643   4.635
36184W        W 1664  44.426   9.719   2.205
36185W        W 1665  41.361  27.665   0.834
36186W        W 1666  25.487   8.384   3.709
36187W        W 1667  39.976  44.339   0.837
36188W        W 1668  36.953  40.533  14.278
36189W        W 1669  31.592  32.612   4.156
36190W        W 1670  33.884  26.497  14.809
36191W        W 1671  38.515  28.585  14.884
36192W        W 1672  23.614  29.157   4.799
36193W        W 1673  21.073  33.423   2.204
36194W        W 1674  11.809  41.004  12.851
36195W        W 1675  30.422   9.647   4.674
36196W        W 1676  26.467  12.746  12.348
36197W        W 1677  35.524  34.954  14.368
36198W        W 1678  41.405   3.739   1.890
36199W        W 1679  36.059  28.161   4.781
36200W        W 1680  22.008  16.246   4.727
36201W        W 1681  17.132  35.009  12.007
36202W        W 1682  36.567  36.053  10.532
36203W        W 1683  42.027   3.889   1.218
36204W        W 1684   4.768  41.829   1.393
36205W        W 1685  29.644  30.527  14.275
36206W        W 1686  26.479  28.150  11.093
36207W        W 1687   3.832  41.919  13.495
36208W        W 1688  14.598  36.845  12.553
36209W        W 1689  16.179   4.873   0.890
36210W        W 1690  39.554   0.325  12.565
36211W        W 1691  14.619  37.347  12.068
36212W        W 1692   5.696  30.934  12.484
36213W        W 1693  43.359   2.334  13.491
36214W        W 1694   0.381  14.226  11.903
36215W        W 1695   1.837   1.345   4.324
36216W        W 1696  32.040   9.732   0.326
36217W        W 1697  35.412  34.984   0.430
36218W        W 1698   5.777   6.281  12.971
36219W        W 1699  28.953   5.930   0.911
36220W        W 1700   8.244  43.890   4.295
36221W        W 1701  32.626  35.493   0.371
36222W        W 1702   0.282   3.741   3.676
36223W        W 1703  28.105  10.312  14.508
36224W        W 1704  24.986  33.104   1.884
36225W        W 1705  32.424  21.202  14.281
36226W        W 1706   4.366  39.065  10.905
36227W        W 1707  25.165   8.691   1.729
36228W        W 1708   2.835   8.316  10.476
36229W        W 1709  26.599   1.735  10.495
36230W        W 1710   9.840  34.941   0.307
36231W        W 1711  23.214  11.217   2.854
36232W        W 1712   8.699  15.287   1.759
36233W        W 1713  27.093  16.635   3.815
36234W        W 1714  10.329  12.250   2.240
36235W        W 1715  26.124  23.229  11.543
36236W        W 1716   0.744  11.291   0.852
36237W        W 1717  29.564  13.715  12.345
36238W        W 1718  16.175   9.378   1.884
36239W        W 1719  38.975   4.741   0.885
36240W        W 1720   2.867   2.388  12.467
36241W        W 1721  19.165   7.756  13.488
36242W        W 1722   6.787  18.657  13.847
36243W        W 1723  25.552  36.391  12.093
36244W        W 1724  36.561   7.303   1.315
36245W        W 1725  29.644  24.574   4.215
36246W        W 1726  11.624   9.775   2.850
36247W        W 1727  40.967   4.903   0.867
36248W        W 1728  27.662  32.118   2.805
36249W        W 1729  15.595  30.608   3.322
36250W        W 1730  23.677  28.187  10.959
36251W        W 1731  43.776  25.026   4.189
36252W        W 1732  35.968  43.443   1.302
36253W        W 1733   1.416  15.614  11.519
36254W        W 1734  25.199   5.276  14.944
36255W        W 1735  13.327  33.918   4.299
36256W        W 1736  31.941  13.707  13.856
36257W        W 1737  34.607   8.323  13.431
36258W        W 1738  26.086   4.742   3.652
36259W        W 1739  38.862   7.720  11.533
36260W        W 1740   8.371  28.944   2.691
36261W        W 1741  41.427  18.196  14.023
36262W        W 1742  16.638  23.064  13.952
36263W        W 1743  43.326  40.812   2.729
36264W        W 1744  20.714  27.960   0.790
36265W        W 1745   8.247  34.542  13.851
36266W        W 1746   5.814  43.342   2.366
36267W        W 1747  44.997  10.204  14.900
36268W        W 1748  17.280  23.534   4.153
36269W        W 1749   1.771  35.540   4.716
36270W        W 1750  34.880   3.927  11.380
36271W        W 1751  31.023  37.922  12.342
36272W        W 1752  38.994  35.501   0.350
36273W        W 1753   0.804  30.627   3.845
36274W        W 1754  42.315  39.324   0.379
36275W        W 1755  26.091   6.328  10.408
36276W        W 1756  19.737   1.764  10.954
36277W        W 1757  21.569   1.882   0.265
36278W        W 1758  23.597   3.939   0.417
36279W        W 1759  40.799  30.955   4.147
36280W        W 1760  42.813  43.772  10.579
36281W        W 1761   3.855  40.334  12.878
36282W        W 1762  16.697  20.123  11.915
36283W        W 1763  21.537   1.387  12.393
36284W        W 1764  37.875  24.621  13.057
36285W        W 1765  43.473  26.090  12.059
36286W        W 1766  14.760   8.667  10.098
36287W        W 1767  44.442   1.375  14.765
36288W        W 1768  16.682  12.227  13.433
36289W        W 1769  21.513   0.803   2.692
36290W        W 1770  23.233  38.432  11.454
36291W        W 1771  37.547   4.915   1.711
36292W        W 1772  11.867  14.280   5.185
36293W        W 1773  36.883  23.636  13.408
36294W        W 1774   0.444  28.954   2.850
36295W        W 1775  18.130   8.821   3.737
36296W        W 1776   5.207  35.931   1.763
36297W        W 1777  35.069  27.991  13.356
36298W        W 1778  37.504  36.462  14.285
36299W        W 1779  24.554  33.996  10.444
36300W        W 1780  38.033   7.318  13.943
36301W        W 1781  29.159  34.577  11.440
36302W        W 1782  12.271  21.194   3.857
36303W        W 1783   2.924  38.980  13.537
36304W        W 1784  13.704   1.299  10.928
36305W        W 1785  32.416  21.153  13.846
36306W        W 1786  42.346  34.379   2.383
36307W        W 1787  42.504  43.920   4.780
36308W        W 1788  17.676  38.379  10.560
36309W        W 1789  34.940  27.033  11.903
36310W        W 1790  14.807   5.267   4.608
36311W        W 1791  17.166  29.631   1.294
36312W        W 1792   9.645  30.645   3.734
36313W        W 1793  38.951   6.687  12.916
36314W        W 1794  26.032  20.670  13.805
36315W        W 1795  12.830  29.441  12.978
36316W        W 1796  29.015  13.813  11.024
36317W        W 1797  41.993  26.065   3.853
36318W        W 1798   0.765  16.128  14.805
36319W        W 1799  22.592  19.615  14.313
36320W        W 1800  33.973  38.434  10.517
36321W        W 1801  34.931   5.878  14.809
36322W        W 1802  19.263  31.552  13.409
36323W        W 1803   4.227  12.281  14.349
36324W        W 1804  25.507  26.153   2.391
36325W        W 1805   2.894  36.427   3.196
36326W        W 1806  21.169  22.561   4.634
36327W        W 1807  40.468  31.017  14.437
36328W        W 1808  40.005   8.822   2.249
36329W        W 1809   2.853  11.784  13.465
36330W        W 1810   3.715  26.694   1.215
36331W        W 1811  16.607  26.161  12.579
36332W        W 1812  15.578   5.792  10.128
36333W        W 1813  28.031  40.465  13.811
36334W        W 1814   6.207   5.780   1.414
36335W        W 1815   4.854  28.475  12.382
36336W        W 1816   3.831   2.796  10.901
36337W        W 1817  34.006  17.115  14.028
36338W        W 1818  16.684   8.682   1.838
36339W        W 1819  16.291  37.393  13.941
36340W        W 1820   1.350  22.111  12.049
36341W        W 1821  10.781  42.296  12.457
36342W        W 1822  13.243  19.610  12.517
36343W        W 1823   3.379  16.730  11.099
36344W        W 1824  14.220   9.203  12.840
36345W        W 1825  31.958  25.156  11.873
36346W        W 1826  29.054   8.270  12.567
36347W        W 1827  40.445   2.937  12.975
36348W        W 1828  31.603  41.439  13.399
36349W        W 1829  18.180  23.009  13.052
36350W        W 1830  24.144  28.027   4.260
36351W        W 1831  32.906  35.110  11.049
36352W        W 1832  34.597  13.287  13.389
36353W        W 1833  31.938  34.892  14.968
36354W        W 1834   8.219   7.325  14.451
36355W        W 1835  41.959   5.240  13.006
36356W        W 1836  43.905  15.197   2.412
36357W        W 1837  23.188  25.046   4.600
36358W        W 1838  36.511  33.502   1.929
36359W        W 1839  34.992  31.929   3.696
36360W        W 1840  19.553  23.062  10.939
36361W        W 1841  28.525  26.473  12.882
36362W        W 1842  38.378  23.538  11.062
36363W        W 1843   2.347  32.506  10.578
36364W        W 1844   2.369  32.602   4.702
36365W        W 1845   1.938  11.371  12.950
36366W        W 1846  37.519   7.325   4.816
36367W        W 1847  28.018   0.892   1.311
36368W        W 1848  32.954   4.332   4.690
36369W        W 1849  15.591   1.753   2.835
36370W        W 1850  31.130  34.979   4.667
36371W        W 1851  26.952  15.624  13.485
36372W        W 1852  32.928  27.562  10.469
36373W        W 1853  31.024  13.732   0.284
36374W        W 1854   8.249  37.997   4.652
36375W        W 1855  31.004  38.325   5.098
36376W        W 1856  17.272  36.392   1.890
36377W        W 1857   4.265  23.178  12.945
36378W        W 1858  38.833  11.797  11.039
36379W        W 1859  15.820  32.135  13.388
36380W        W 1860   4.224  30.987   1.858
36381W        W 1861  34.975  44.420   4.734
36382W        W 1862  19.552  42.951  10.428
36383W        W 1863   4.799  39.421  11.882
36384W        W 1864  38.056  36.540  12.574
36385W        W 1865  41.911  30.526   3.239
36386W        W 1866  20.609  37.862   0.824
36387W        W 1867  34.998  33.957   2.362
36388W        W 1868   2.269   4.428   4.815
36389W        W 1869  18.093  19.646  12.480
36390W        W 1870  26.166  17.153   4.734
36391W        W 1871  11.763  35.401  11.931
36392W        W 1872  24.537  36.898   3.174
36393W        W 1873  42.337  39.485  12.372
36394W        W 1874  38.570  13.601   2.868
36395W        W 1875  19.058  10.283   1.754
36396W        W 1876  26.475  44.354  11.522
36397W        W 1877   5.711  40.312   2.274
36398W        W 1878  40.306  35.488  10.523
36399W        W 1879  14.147  36.438  11.124
36400W        W 1880  40.410  38.423  12.477
36401W        W 1881   6.312  35.884   0.766
36402W        W 1882   5.893  23.571   4.185
36403W        W 1883  44.437  42.362  11.528
36404W        W 1884  26.016  10.202  14.484
36405W        W 1885   2.729  18.095  14.310
36406W        W 1886  10.255   9.726   0.272
36407W        W 1887  21.747   4.871  12.923
36408W        W 1888  40.377   7.834   3.354
36409W        W 1889  15.695  37.035   2.358
36410W        W 1890  14.166  40.336  12.512
36411W        W 1891  34.938   4.776  13.316
36412W        W 1892   4.764  38.449  13.967
36413W        W 1893  34.006  24.188  13.836
36414W        W 1894  17.120  20.727   1.822
36415W        W 1895   3.939   5.432   0.476
36416W        W 1896  10.253  29.567   0.853
36417W        W 1897  33.430   7.282   3.772
36418W        W 1898   8.670   0.919   5.139
36419W        W 1899  25.575  42.490   3.204
36420W        W 1900   7.896   3.890   4.691
36421W        W 1901   5.703  27.964  10.578
36422W        W 1902  38.862  12.838   3.852
36423W        W 1903  28.552   7.780  12.984
36424W        W 1904  39.861  35.001   0.751
36425W        W 1905  24.175  17.687  12.834
36426W        W 1906   0.919   7.776   4.275
36427W        W 1907  31.973  12.820  11.106
36428W        W 1908  36.005  30.571   2.320
36429W        W 1909  41.006  21.520  12.837
36430W        W 1910  16.756  16.745   2.366
36431W        W 1911   4.305  41.367   3.772
36432W        W 1912  10.830   7.711   3.247
36433W        W 1913  26.585  15.596   3.754
36434W        W 1914  17.124  32.960   3.338
36435W        W 1915  24.515  36.445   0.399
36436W        W 1916  40.456   9.244  11.401
36437W        W 1917  32.397  11.686   3.818
36438W        W 1918   8.807   0.251  14.437
36439W        W 1919   0.300  30.116   3.312
36440W        W 1920  19.716  31.020   0.744
36441W        W 1921  36.080   2.355   1.774
36442W        W 1922  12.167  42.379   0.746
36443W        W 1923  35.980  11.709   3.650
36444W        W 1924  40.893  39.900   4.185
36445W        W 1925  11.169   6.698   3.802
36446W        W 1926  23.592  22.662   3.814
36447W        W 1927   8.685  17.646   2.205
36448W        W 1928  42.929   7.292   1.212
36449W        W 1929  30.005   1.919  12.407
36450W        W 1930  37.074  17.769  12.855
36451W        W 1931  23.552  37.475   2.348
36452W        W 1932  25.194  13.840   3.807
36453W        W 1933  26.952  27.656  13.047
36454W        W 1934  22.673  15.137  14.969
36455W        W 1935  35.462  42.950   1.300
36456W        W 1936  37.537  15.257   3.770
36457W        W 1937   9.193   3.843  11.500
36458W        W 1938  30.430  35.024  13.864
36459W        W 1939  34.104  40.443  10.640
36460W        W 1940  44.470   3.720  14.992
36461W        W 1941  31.612  17.194  12.375
36462W        W 1942  33.993  19.281  12.450
36463W        W 1943  12.799  23.711  11.105
36464W        W 1944  29.536  44.339  11.985
36465W        W 1945  32.019  12.132   4.822
36466W        W 1946   1.459  19.586  11.053
36467W        W 1947  29.920  12.628  12.872
36468W        W 1948  39.408  22.729   2.221
36469W        W 1949  40.305  42.516   1.900
36470W        W 1950   5.203   6.866  10.477
36471W        W 1951  30.457  27.145   4.322
36472W        W 1952  14.745  29.637   1.706
36473W        W 1953  27.483   0.751  13.350
36474W        W 1954  32.920  34.492  14.760
36475W        W 1955  44.502  19.058   3.689
36476W        W 1956  40.017  43.424  14.373
36477W        W 1957  41.411  23.171   1.226
36478W        W 1958  41.826   2.428  14.391
36479W        W 1959  29.488  44.860   0.875
36480W        W 1960  18.274   3.401   2.301
36481W        W 1961  11.351   0.976   3.818
36482W        W 1962   5.892  24.036  11.528
36483W        W 1963  20.750  27.622  12.942
36484W        W 1964  29.459  21.634   4.196
36485W        W 1965  16.776  35.507  10.472
36486W        W 1966  30.604  25.122   0.780
36487W        W 1967   7.349  44.942   4.702
36488W        W 1968  33.442  11.857   4.188
36489W        W 1969   9.394   8.774   1.271
36490W        W 1970   8.405  41.905   2.779
36491W        W 1971  22.694  21.182  12.480
36492W        W 1972   4.427  12.776   3.687
36493W        W 1973  21.264  24.183   1.389
36494W        W 1974  34.038  22.737  14.964
36495W        W 1975  33.430  16.689  13.382
36496W        W 1976  27.497  17.165  11.584
36497W        W 1977  16.223   1.335  10.435
36498W        W 1978  43.339   0.396   1.363
36499W        W 1979  40.047   3.760  14.302
36500W        W 1980  35.989  35.376  13.877
36501W        W 1981  37.992  42.318   2.363
36502W        W 1982  30.136  14.624  12.418
36503W        W 1983  11.831   3.267  13.897
36504W        W 1984   1.906  27.642   2.790
36505W        W 1985  24.210  36.592   1.734
36506W        W 1986  21.034   4.718   0.278
36507W        W 1987  17.066  10.170  13.057
36508W        W 1988   0.428  40.872  11.451
36509W        W 1989  22.068   7.908   2.665
36510W        W 1990   8.818  36.036   1.852
36511W        W 1991  38.480  31.934   4.181
36512W        W 1992  44.461  20.043   2.279
36513W        W 1993  43.948  19.757  12.427
36514W        W 1994  32.497   8.820  12.469
36515W        W 1995  20.687  21.055   1.356
36516W        W 1996  43.902  21.044   0.484
36517W        W 1997   2.876  11.359  12.507
36518W        W 1998  35.432  13.656  12.488
36519W        W 1999  39.977   2.808   0.363
36520W        W 2000  39.526  36.870   2.857
36521W        W 2001  31.095   9.323   4.609
36522W        W 2002   1.792  36.058  11.609
36523W        W 2003  29.023  31.969   1.450
36524W        W 2004  25.515   3.242   1.284
36525W        W 2005  11.223   0.427  14.799
36526W        W 2006  34.941  28.516   0.764
36527W        W 2007  32.109  27.612   9.927
36528W        W 2008   4.869  23.215  12.841
36529W        W 2009  43.884  27.007  11.403
36530W        W 2010  20.734   4.907   1.876
36531W        W 2011   8.835  25.525  14.458
36532W        W 2012  13.826   1.874   2.213
36533W        W 2013   3.879  30.920   4.286
36534W        W 2014   1.788  30.986   0.299
36535W        W 2015   2.321  34.561  12.579
36536W        W 2016  25.189   9.854  13.063
36537W        W 2017  19.683  12.815   2.873
36538W        W 2018  27.048  28.141   4.190
36539W        W 2019  37.405  27.947  11.076
36540W        W 2020  39.472  34.979   3.147
36541W        W 2021   5.750   1.819  14.278
36542W        W 2022  44.985  10.218   0.910
36543W        W 2023  43.427  11.631   0.392
36544W        W 2024   0.395  40.799   3.345
36545W        W 2025   7.853  13.732  11.565
36546W        W 2026  24.987   9.873   4.740
36547W        W 2027   3.381  34.910  14.872
36548W        W 2028  13.713  31.068   4.803
36549W        W 2029  25.509   4.714   5.244
36550W        W 2030  34.385  32.007   9.981
36551W        W 2031   3.922   0.746   0.795
36552W        W 2032   1.806  33.484  13.460
36553W        W 2033  27.672  37.939  10.974
36554W        W 2034  28.616  23.547   5.227
36555W        W 2035  20.548  28.127  12.835
36556W        W 2036  22.192  39.485  13.521
36557W        W 2037   0.906  17.584   0.873
36558W        W 2038  28.932  27.606  13.801
36559W        W 2039  30.970  38.327   1.421
36560W        W 2040  17.708  10.141   4.639
36561W        W 2041   0.358  23.721   2.785
36562W        W 2042  20.108  14.630  10.917
36563W        W 2043  43.949  16.144   1.838
36564W        W 2044  18.094  27.138   1.414
36565W        W 2045  35.066  19.682   2.832
36566W        W 2046  13.105  41.925  11.384
36567W        W 2047  44.798  15.811   4.642
36568W        W 2048  35.956  23.619  14.964
36569W        W 2049   8.670  17.127  12.056
36570W        W 2050  17.157  20.524  14.472
36571W        W 2051  10.244   2.225  11.874
36572W        W 2052  15.615  32.102  11.587
36573W        W 2053  39.319  28.624   1.744
36574W        W 2054   2.781   6.371  14.459
36575W        W 2055  25.982  22.606   1.262
36576W        W 2056  44.908   1.833   1.398
36577W        W 2057  20.144  33.556   5.280
36578W        W 2058   8.245  38.885  10.615
36579W        W 2059   9.171  39.938  13.463
36580W        W 2060  19.245  12.142  11.499
36581W        W 2061  24.050  14.324   0.848
36582W        W 2062  21.626  40.318  10.452
36583W        W 2063  42.294  34.905  11.972
36584W        W 2064  11.859  15.647  10.600
36585W        W 2065  39.525  22.669  11.971
36586W        W 2066  40.798  42.405  11.571
36587W        W 2067  33.500  27.942  10.909
36588W        W 2068   3.449  29.941   1.925
36589W        W 2069  15.095   3.805   4.675
36590W        W 2070  34.547  19.758  11.056
36591W        W 2071  38.421  25.697   0.369
36592W        W 2072  26.506  24.152  12.092
36593W        W 2073  37.003  30.488  13.322
36594W        W 2074  24.602  12.358   2.408
36595W        W 2075  31.477  34.407   3.194
36596W        W 2076  36.515  24.065  12.543
36597W        W 2077  33.449  15.204  13.517
36598W        W 2078   8.684  39.042   0.456
36599W        W 2079   1.281  31.144  14.353
36600W        W 2080  19.722  21.741  13.000
36601W        W 2081  35.520  44.891  14.782
36602W        W 2082  20.174   2.300  11.026
36603W        W 2083   6.303   4.813   0.918
36604W        W 2084  32.092  41.458   3.636
36605W        W 2085  40.539  10.776   4.342
36606W        W 2086  12.637  34.475   4.610
36607W        W 2087  25.138  30.562  12.490
36608W        W 2088  26.619  18.670   1.817
36609W        W 2089  37.013  10.730  14.335
36610W        W 2090  40.403  32.129   2.718
36611W        W 2091   6.295  21.077  10.502
36612W        W 2092  31.422  40.501  13.429
36613W        W 2093  38.061  11.711   1.763
36614W        W 2094  13.604  37.842  12.440
36615W        W 2095  13.294  37.562   2.239
36616W        W 2096  10.326  24.686  14.409
36617W        W 2097  40.921  35.557   3.744
36618W        W 2098   6.260  37.054  11.993
36619W        W 2099  26.968  42.887   1.849
36620W        W 2100  19.716  30.617   0.354
36621W        W 2101  26.545   8.247   2.365
36622W        W 2102  38.559  32.456   4.273
36623W        W 2103  27.188  38.359  12.573
36624W        W 2104   1.918  17.192   1.402
36625W        W 2105  25.074  29.648  11.920
36626W        W 2106  20.138  22.032  12.034
36627W        W 2107   9.312  12.658  13.353
36628W        W 2108  22.146  31.923  12.926
36629W        W 2109  19.758  31.955  14.854
36630W        W 2110  39.322  12.245  13.813
36631W        W 2111  17.720  44.394  14.420
36632W        W 2112  44.818   6.742  12.358
36633W        W 2113  25.605  41.457  14.850
36634W        W 2114  23.213  40.857  14.026
36635W        W 2115  30.522  27.048   4.615
36636W        W 2116   8.663  40.502   0.922
36637W        W 2117  11.724  17.132   2.193
36638W        W 2118  39.893  23.008  14.281
36639W        W 2119  36.887  10.836  13.526
36640W        W 2120  11.823  23.592   2.886
36641W        W 2121  42.347  25.527  10.914
36642W        W 2122  32.896  10.271   1.326
36643W        W 2123   7.394   2.460   2.901
36644W        W 2124  19.223  28.508  14.891
36645W        W 2125  36.959  39.943  13.955
36646W        W 2126  21.128   5.210  11.467
36647W        W 2127  16.629  31.016   2.865
36648W        W 2128  30.048  21.059  13.878
36649W        W 2129  31.420   7.791  10.908
36650W        W 2130  24.977  41.850  13.881
36651W        W 2131  19.250  37.830   4.171
36652W        W 2132  28.026  37.405  11.934
36653W        W 2133  34.379  36.467  14.443
36654W        W 2134   6.810  31.963   4.683
36655W        W 2135  22.066  26.192   0.747
36656W        W 2136  27.967  31.646   2.781
36657W        W 2137  20.577  11.676  12.979
36658W        W 2138  34.546  33.017  14.387
36659W        W 2139   1.237  41.523  14.372
36660W        W 2140   5.211  24.120  10.524
36661W        W 2141  37.363  33.525   4.229
36662W        W 2142   0.471  42.810  13.992
36663W        W 2143  37.527  27.620   1.273
36664W        W 2144  12.344   6.273   2.721
36665W        W 2145  34.013   3.889   0.442
36666W        W 2146  28.490   1.960   5.087
36667W        W 2147   1.824   5.726  10.957
36668W        W 2148  16.723  35.915   2.727
36669W        W 2149  18.751  27.552   1.695
36670W        W 2150   3.276   5.417   3.298
36671W        W 2151   1.885  39.528   0.320
36672W        W 2152  21.233  11.214  12.027
36673W        W 2153  18.168   4.394   4.280
36674W        W 2154  20.525  30.522   3.289
36675W        W 2155   5.230  43.375   1.864
36676W        W 2156  25.529  16.102  14.419
36677W        W 2157  17.574   3.735  12.575
36678W        W 2158  36.982  19.058  13.820
36679W        W 2159   6.363   6.784  13.861
36680W        W 2160   7.204  40.893   3.249
36681W        W 2161  24.061  43.485   3.171
36682W        W 2162   9.684  39.458   0.894
36683W        W 2163  20.727   5.749   1.303
36684W        W 2164  40.051  11.187  14.966
36685W        W 2165   1.786  29.540   1.387
36686W        W 2166  32.014  43.437  12.834
36687W        W 2167   5.230  20.533   1.728
36688W        W 2168  17.620  34.027   2.847
36689W        W 2169   6.813  25.561   1.929
36690W        W 2170  26.604  13.672   3.348
36691W        W 2171  23.539  34.904   3.327
36692W        W 2172   4.944   3.318  13.990
36693W        W 2173  40.822  15.651   4.229
36694W        W 2174  11.171  32.011   3.850
36695W        W 2175  30.453  36.931  12.952
36696W        W 2176   8.758  20.218  12.025
36697W        W 2177  14.748  18.058  13.889
36698W        W 2178   9.763   4.373   1.326
36699W        W 2179  13.197  40.515  10.580
36700W        W 2180  44.974  31.627  14.280
36701W        W 2181  40.981  41.537  13.799
36702W        W 2182  35.368   6.416  14.978
36703W        W 2183   2.948  25.036  13.409
36704W        W 2184  33.055  15.284   4.672
36705W        W 2185   5.417  37.851   0.432
36706W        W 2186  42.954  25.632   0.807
36707W        W 2187   1.399  13.642  12.544
36708W        W 2188  10.864  36.446   0.868
36709W        W 2189  11.625   6.249  14.811
36710W        W 2190  15.674  44.968  14.307
36711W        W 2191  37.937   2.822   3.805
36712W        W 2192  23.159   3.331   9.976
36713W        W 2193   3.806  27.513   3.844
36714W        W 2194   4.443  24.092   3.754
36715W        W 2195  13.119   1.306   2.893
36716W        W 2196   5.345   0.789  12.370
36717W        W 2197   0.842  15.111  11.946
36718W        W 2198  17.147  13.612  10.949
36719W        W 2199  17.063   4.281  14.896
36720W        W 2200   3.318  13.675   3.718
36721W        W 2201  13.610  11.233   3.334
36722W        W 2202  32.630  31.119  13.826
36723W        W 2203   5.708  30.427   3.723
36724W        W 2204   9.351  24.153  11.965
36725W        W 2205  34.374   4.401  13.836
36726W        W 2206  42.446  17.104  10.909
36727W        W 2207  22.230  21.513  12.844
36728W        W 2208  36.576  30.587   0.297
36729W        W 2209  44.928  44.479  12.454
36730W        W 2210  26.049  27.469   0.244
36731W        W 2211  28.445  17.735   1.228
36732W        W 2212  27.528  41.368  12.951
36733W        W 2213  14.114  42.355   4.668
36734W        W 2214  42.937  19.594  14.329
36735W        W 2215  23.174   0.937   4.669
36736W        W 2216  20.610  15.224   0.324
36737W        W 2217  37.012  11.855  14.004
36738W        W 2218  22.125  10.293   4.634
36739W        W 2219  37.078  25.201   2.884
36740W        W 2220  26.577  29.035   2.315
36741W        W 2221   2.412  38.505   2.311
36742W        W 2222  11.639  33.127   4.315
36743W        W 2223  38.819  33.007  14.032
36744W        W 2224   4.782  29.518  12.942
36745W        W 2225  18.555  16.102   1.311
36746W        W 2226  19.756   5.732  10.004
36747W        W 2227  35.433  29.966   1.274
36748W        W 2228  42.985  24.110  12.953
36749W        W 2229  39.386  16.629  10.539
36750W        W 2230  41.974  35.378  12.343
36751W        W 2231  31.427   5.797  13.865
36752W        W 2232   0.795   1.850   1.273
36753W        W 2233  33.525  30.478   2.754
36754W        W 2234  18.739   3.778   0.838
36755W        W 2235  25.517   9.770  11.096
36756W        W 2236  26.652   7.868   4.827
36757W        W 2237  33.446  39.367   5.173
36758W        W 2238  16.163  35.434  13.849
36759W        W 2239  33.615  12.243   4.316
36760W        W 2240  23.675   0.455  13.812
36761W        W 2241   2.816  39.460   3.286
36762W        W 2242   6.402   0.846   5.240
36763W        W 2243  36.358  26.628   3.695
36764W        W 2244  16.233  19.725   5.110
36765W        W 2245  40.445  28.010  14.872
36766W        W 2246  22.093   2.266   4.194
36767W        W 2247  15.670   9.236  10.497
36768W        W 2248  15.274  30.001   0.296
36769W        W 2249  34.064  20.593   0.843
36770W        W 2250  33.409  40.960   0.297
36771W        W 2251  21.644  40.830  14.781
36772W        W 2252  43.319  37.472  11.935
36773W        W 2253   3.347  24.517  12.904
36774W        W 2254   4.818  43.908   3.264
36775W        W 2255   6.723  14.313   1.776
36776W        W 2256   1.403  20.664   1.407
36777W        W 2257   7.347  11.866  12.402
36778W        W 2258  18.598   1.835  14.425
36779W        W 2259  43.453  39.004  14.297
36780W        W 2260   9.841  25.598   1.919
36781W        W 2261   0.773   5.826  10.931
36782W        W 2262  30.462  35.440  10.989
36783W        W 2263   1.765  43.273  11.553
36784W        W 2264  44.410  34.949  13.496
36785W        W 2265   7.778   4.842  10.940
36786W        W 2266  28.009  42.506   4.635
36787W        W 2267   6.703  13.307   1.830
36788W        W 2268  24.679   2.958  13.003
36789W        W 2269  34.889  25.124  10.414
36790W        W 2270   1.791  31.026  10.590
36791W        W 2271  33.406  40.031  13.402
36792W        W 2272  17.629   4.212   3.248
36793W        W 2273  30.464  13.306  12.858
36794W        W 2274  41.403   5.844   5.196
36795W        W 2275  19.551  14.193  14.813
36796W        W 2276   3.421  31.548  13.477
36797W        W 2277   1.743  20.231   3.718
36798W        W 2278  10.853   3.851  11.492
36799W        W 2279   9.292   8.404   2.883
36800W        W 2280  36.451  17.634  12.383
36801W        W 2281   7.844   3.812   3.725
36802W        W 2282  28.080  22.228  12.399
36803W        W 2283  14.104   0.860  11.964
36804W        W 2284  26.658   1.781  13.384
36805W        W 2285  25.061   5.750  10.507
36806W        W 2286  39.980   7.835  15.000
36807W        W 2287   5.865  23.034  14.498
36808W        W 2288   8.206  40.800   0.312
36809W        W 2289  19.174  17.227   3.253
36810W        W 2290  31.125  29.946  13.990
36811W        W 2291  19.703  10.865  11.500
36812W        W 2292  19.699  17.600  13.369
36813W        W 2293   3.871  35.387   3.814
36814W        W 2294   4.718  27.680  11.865
36815W        W 2295  16.808  17.152  10.927
36816W        W 2296  11.663  41.877  14.914
36817W        W 2297   6.421  27.678   3.853
36818W        W 2298  24.006  18.750  11.932
36819W        W 2299  28.056  44.362   1.405
36820W        W 2300  27.591  38.349   1.756
36821W        W 2301   8.775  24.489   4.316
36822W        W 2302   7.363  27.462   2.815
36823W        W 2303  14.727  15.140   0.373
36824W        W 2304  43.971  41.388   3.243
36825W        W 2305  39.510   8.785   4.322
36826W        W 2306  16.206   8.325   4.238
36827W        W 2307  14.190  20.046   0.754
36828W        W 2308  23.521  23.657  10.593
36829W        W 2309   1.968  12.166  11.893
36830W        W 2310  21.757  15.102  10.918
36831W        W 2311  41.316  13.767  10.408
36832W        W 2312  23.526   6.802  13.387
36833W        W 2313  12.217  29.119   1.369
36834W        W 2314   1.777  12.132  11.528
36835W        W 2315   3.871   5.776  13.487
36836W        W 2316   1.270   1.442   4.254
36837W        W 2317  43.435  25.533   1.759
36838W        W 2318  23.706  33.488  11.918
36839W        W 2319  13.676  25.125   3.713
36840W        W 2320  23.997  40.495   4.351
36841W        W 2321  29.437  14.786   2.395
36842W        W 2322  29.975   1.363   1.719
36843W        W 2323  20.578  16.105  14.468
36844W        W 2324  31.010  37.930   1.901
36845W        W 2325  43.943  32.585   0.842
36846W        W 2326  33.526  22.705  13.544
36847W        W 2327  20.089   2.342  11.486
36848W        W 2328   3.829  23.039  14.325
36849W        W 2329  20.269  42.504  13.532
36850W        W 2330   3.436  35.533   5.157
36851W        W 2331  33.512  34.949  10.438
36852W        W 2332  39.875  19.102  13.317
36853W        W 2333  23.613  44.762  12.496
36854W        W 2334  10.703  22.129   2.734
36855W        W 2335  41.815   5.252  13.343
36856W        W 2336  17.078  32.605   0.254
36857W        W 2337  40.410  30.447  13.936
36858W        W 2338   2.307  24.714  11.403
36859W        W 2339  19.212  34.100   2.690
36860W        W 2340   3.317  11.301   4.646
36861W        W 2341  36.528  30.076   3.163
36862W        W 2342  11.204   1.946  12.419
36863W        W 2343   2.891   4.449   3.374
36864W        W 2344  17.621  39.020  10.439
36865W        W 2345  15.277  31.938  10.459
36866W        W 2346  37.546  16.160  14.280
36867W        W 2347  15.301  25.158  11.934
36868W        W 2348  30.980  37.971   5.797
36869W        W 2349   5.322  30.085  13.897
36870W        W 2350  11.364  40.516  11.893
36871W        W 2351  19.201  19.220   4.318
36872W        W 2352  25.483  17.798   4.667
36873W        W 2353   2.951  43.771   3.863
36874W        W 2354  35.107   5.299   0.763
36875W        W 2355  12.266  43.957  14.473
36876W        W 2356  28.590   7.242   1.927
36877W        W 2357  10.748   3.423   5.256
36878W        W 2358  20.082   3.715   2.779
36879W        W 2359  19.745  11.662   1.709
36880W        W 2360  30.983   2.383   3.822
36881W        W 2361  11.732  15.140  11.866
36882W        W 2362  14.755  15.185   2.178
36883W        W 2363  22.711  19.238   0.910
36884W        W 2364  44.975   7.198  13.999
36885W        W 2365  20.683  16.610   2.760
36886W        W 2366  21.049  25.114   2.282
36887W        W 2367  23.209  19.272  13.822
36888W        W 2368  11.788  29.491  12.943
36889W        W 2369  41.505  36.397  14.946
36890W        W 2370   2.893  39.473  11.504
36891W        W 2371  34.582  35.524  12.055
36892W        W 2372  40.531  17.211  10.552
36893W        W 2373   3.801  17.186  11.382
36894W        W 2374  12.745   0.744  13.441
36895W        W 2375  39.039  35.507  13.506
36896W        W 2376   1.427  33.125  12.559
36897W        W 2377  40.018  15.762   0.958
36898W        W 2378  10.751  27.048   0.257
36899W        W 2379   4.780  37.556  12.030
36900W        W 2380  38.880  39.476   0.965
36901W        W 2381   7.218  12.187  13.481
36902W        W 2382  42.344  22.193  14.504
36903W        W 2383  12.784  38.924   1.410
36904W        W 2384  18.276  42.830   2.675
36905W        W 2385  39.941  36.580  11.045
36906W        W 2386   1.760   9.324  14.452
36907W        W 2387  10.858  10.777  10.922
36908W        W 2388  19.585  24.111   4.140
36909W        W 2389   4.811  20.034   1.414
36910W        W 2390  34.084   8.721   3.736
36911W        W 2391   3.932  32.030  13.494
36912W        W 2392   5.272  29.648   2.728
36913W        W 2393  12.205  34.556   4.817
36914W        W 2394   6.769  37.964   1.866
36915W        W 2395  34.070   5.759   4.222
36916W        W 2396  29.605  26.542  12.979
36917W        W 2397  22.209  24.722  14.933
36918W        W 2398   4.220  27.031  14.857
36919W        W 2399   8.363   4.389  12.830
36920W        W 2400  42.376  25.611  14.920
36921W        W 2401  23.610   1.275   0.459
36922W        W 2402  33.876  38.827   4.274
36923W        W 2403  17.647  20.209  14.818
36924W        W 2404  25.028  34.014   3.812
36925W        W 2405  37.350  28.435   4.733
36926W        W 2406  20.172  42.974  12.090
36927W        W 2407   1.286  35.423   2.668
36928W        W 2408  29.029   4.315   4.154
36929W        W 2409   1.377  44.365   2.187
36930W        W 2410  21.656   9.888   0.477
36931W        W 2411  38.377  12.828   4.320
36932W        W 2412  10.828   2.873   3.148
36933W        W 2413  19.060  14.165  13.820
36934W        W 2414  44.005   7.677   4.696
36935W        W 2415  23.704   6.420  13.027
36936W        W 2416  16.085  21.555  11.922
36937W        W 2417  30.488   7.391   0.435
36938W        W 2418   8.793  39.026   1.737
36939W        W 2419  17.061  10.760   3.148
36940W        W 2420  17.290  23.082   2.365
36941W        W 2421  34.377  25.472   1.876
36942W        W 2422  11.177  44.905  11.124
36943W        W 2423   8.257  29.055  10.557
36944W        W 2424  33.612  37.564   1.318
36945W        W 2425   4.817  33.954  14.299
36946W        W 2426   2.276  27.470   4.330
36947W        W 2427  22.020  14.336  10.587
36948W        W 2428  10.714  35.865   1.374
36949W        W 2429   0.489  33.988   1.346
36950W        W 2430  38.963  13.732   4.122
36951W        W 2431  37.912  25.978  14.406
36952W        W 2432   7.739  17.685  14.436
36953W        W 2433  10.805  41.340  13.892
36954W        W 2434   9.727  15.787  13.971
36955W        W 2435  44.932  26.004  13.944
36956W        W 2436   0.328   1.762  11.110
36957W        W 2437  34.585  13.289   1.835
36958W        W 2438  19.072  14.673  12.840
36959W        W 2439  32.920   9.669   2.372
36960W        W 2440  39.481   7.224   2.696
36961W        W 2441   9.865   7.875   1.254
36962W        W 2442  42.033   7.292   0.807
36963W        W 2443   1.464  23.219   4.207
36964W        W 2444  34.954  38.455   4.168
36965W        W 2445  25.697  23.187   3.302
36966W        W 2446  43.424   6.282   0.387
36967W        W 2447  13.193  26.004  13.060
36968W        W 2448   0.429  38.846   0.249
36969W        W 2449  38.365   1.277  12.041
36970W        W 2450   9.300  42.916  10.635
36971W        W 2451   8.307  33.990  12.065
36972W        W 2452   2.324  29.571   5.313
36973W        W 2453  10.225  23.019   2.699
36974W        W 2454  21.540  12.847   1.718
36975W        W 2455  13.234  29.613   3.206
36976W        W 2456   5.286  10.644   0.446
36977W        W 2457  27.946  11.159   2.815
36978W        W 2458   4.758  35.480  12.894
36979W        W 2459  17.774  33.523   2.290
36980W        W 2460  19.080  15.121   2.716
36981W        W 2461   2.365  10.654  13.900
36982W        W 2462  24.998  28.664   0.953
36983W        W 2463  12.682  18.124  10.473
36984W        W 2464  23.528  31.558  12.970
36985W        W 2465  19.568  41.904   5.088
36986W        W 2466  22.241  31.056  11.868
36987W        W 2467  44.857  24.584   4.289
36988W        W 2468  24.676  13.272   1.268
36989W        W 2469  36.571  39.846  12.418
36990W        W 2470  40.363  11.746  10.579
36991W        W 2471   7.313  41.828  10.529
36992W        W 2472  37.537  16.603  12.957
36993W        W 2473  37.908  16.778   2.687
36994W        W 2474  44.873   1.461   0.761
36995W        W 2475  38.036  39.954   1.440
36996W        W 2476  12.812  37.996   2.753
36997W        W 2477  18.208  13.121  14.784
36998W        W 2478   5.737   2.352  11.926
36999W        W 2479  31.016   2.847  12.369
37000W        W 2480   6.328   2.431   3.823
37001W        W 2481  26.144  29.427  13.003
37002W        W 2482   9.172  19.592   3.868
37003W        W 2483  35.928  42.400   1.854
37004W        W 2484  20.749  26.468   0.781
37005W        W 2485  38.931  44.886  12.927
37006W        W 2486  27.081   1.418  14.476
37007W        W 2487  26.051   6.888  14.025
37008W        W 2488  27.997   1.372  14.469
37009W        W 2489  10.666   4.361   1.852
37010W        W 2490  35.962   2.438  11.883
37011W        W 2491   9.689  25.094  14.452
37012W        W 2492  10.210  34.456  13.360
37013W        W 2493  23.577  34.117  13.382
37014W        W 2494  36.038  26.191  10.557
37015W        W 2495  18.255   9.359  14.333
37016W        W 2496  42.919  35.071   4.784
37017W        W 2497  32.071   8.186   3.256
37018W        W 2498  10.276  42.823   0.736
37019W        W 2499   7.665  23.631   0.398
37020W        W 2500  19.733  42.301  10.581
37021W        W 2501  23.108  21.608   3.751
37022W        W 2502   9.307  27.033  13.913
37023W        W 2503  18.106  29.954   9.938
37024W        W 2504  12.245  12.785  13.917
37025W        W 2505  24.558   1.483  11.109
37026W        W 2506   7.416   6.715  13.944
37027W        W 2507  25.587  15.304  14.292
37028W        W 2508  44.928  42.316   4.694
37029W        W 2509  28.450  19.195   1.815
37030W        W 2510  13.753  29.970   1.816
37031W        W 2511   4.819  29.981  12.094
37032W        W 2512  30.482   3.320   1.810
37033W        W 2513  20.097   9.382  14.874
37034W        W 2514  30.026  28.163  12.450
37035W        W 2515   5.197  21.645   4.820
37036W        W 2516  19.245  26.169   0.938
37037W        W 2517  30.654  15.676  12.968
37038W        W 2518  44.505  13.706  13.866
37039W        W 2519  12.755   3.217  10.531
37040W        W 2520   3.748  40.384   2.822
37041W        W 2521  30.119   1.458  12.878
37042W        W 2522  34.057   9.221   0.406
37043W        W 2523   9.225   0.750  10.105
37044W        W 2524  22.154  28.554   1.375
37045W        W 2525   1.943  25.073   4.157
37046W        W 2526  18.115  40.336  12.487
37047W        W 2527  23.677  40.437  10.513
37048W        W 2528  33.007  22.698  11.601
37049W        W 2529  23.227  16.162   4.266
37050W        W 2530  12.687  24.683  13.864
37051W        W 2531  21.087  32.142   3.845
37052W        W 2532  26.501  43.845   0.473
37053W        W 2533  31.148   9.192   0.399
37054W        W 2534  22.183  27.052  10.629
37055W        W 2535  38.397  18.739   4.790
37056W        W 2536  22.575  31.110   3.366
37057W        W 2537   6.812  11.695   4.197
37058W        W 2538  38.436  40.409  13.859
37059W        W 2539  28.573  29.168  13.367
37060W        W 2540  44.767  26.473   1.359
37061W        W 2541  17.775   5.347   4.716
37062W        W 2542   0.432  33.895  13.371
37063W        W 2543  11.260   4.830   0.411
37064W        W 2544  32.541  26.702  11.967
37065W        W 2545  12.816  44.263   1.332
37066W        W 2546   1.776  41.807  11.593
37067W        W 2547   3.844  15.293  14.866
37068W        W 2548  20.652   4.913  13.315
37069W        W 2549  14.194  43.324  12.558
37070W        W 2550  36.929  29.440   0.268
37071W        W 2551  24.617  21.661  13.387
37072W        W 2552  37.577  28.173   3.671
37073W        W 2553  21.111   2.273   0.417
37074W        W 2554   1.939  40.830  13.938
37075W        W 2555  14.325  27.663  13.318
37076W        W 2556  22.726  30.548   0.872
37077W        W 2557  12.162  18.758   3.209
37078W        W 2558   0.867   1.408  13.411
37079W        W 2559   5.836  29.538   2.310
37080W        W 2560   3.883  18.690   4.601
37081W        W 2561  11.734  19.671  13.895
37082W        W 2562  36.988  29.965  12.017
37083W        W 2563  41.994  41.364  14.883
37084W        W 2564  33.438   7.360   4.273
37085W        W 2565  11.252  36.948  10.472
37086W        W 2566  23.984  22.030  11.571
37087W        W 2567  12.346  13.834   1.826
37088W        W 2568   4.763  32.486  10.476
37089W        W 2569   6.756   7.251  13.989
37090W        W 2570  25.564   1.436   0.936
37091W        W 2571   8.831  26.172  10.461
37092W        W 2572   4.316  44.811   1.231
37093W        W 2573   0.436  37.345  11.895
37094W        W 2574  13.786  17.563  11.585
37095W        W 2575  21.226  32.136  14.970
37096W        W 2576  39.929  35.993   0.872
37097W        W 2577  28.625  28.939   4.297
37098W        W 2578  12.727  24.073   1.918
37099W        W 2579  43.399  30.993   1.855
37100W        W 2580   6.264   7.834   1.319
37101W        W 2581  17.180  39.906   3.250
37102W        W 2582  40.481   8.259   4.319
37103W        W 2583  37.960  28.051   1.307
37104W        W 2584  40.887  39.814   3.679
37105W        W 2585  30.613  25.982  13.502
37106W        W 2586  24.593  33.112  11.600
37107W        W 2587  43.983  36.887   0.926
37108W        W 2588  35.099  14.296   0.362
37109W        W 2589   2.760  11.206  14.434
37110W        W 2590  39.960  13.271   3.866
37111W        W 2591   0.468  21.233   4.224
37112W        W 2592  11.340  29.078   4.118
37113W        W 2593  24.108  26.592  11.082
37114W        W 2594  34.592  33.891   2.389
37115W        W 2595  42.345  15.256   2.853
37116W        W 2596  44.923   4.829  14.364
37117W        W 2597  28.571  19.672   0.866
37118W        W 2598  35.502  13.651  11.578
37119W        W 2599  16.107  27.944   3.824
37120W        W 2600  25.139  30.141   4.266
37121W        W 2601  13.736   0.916   3.637
37122W        W 2602  44.442  31.526  13.533
37123W        W 2603  16.706  35.977   5.253
37124W        W 2604   4.406  25.186   3.238
37125W        W 2605   8.182   8.784   1.799
37126W        W 2606  36.893  39.333  13.924
37127W        W 2607  40.868   8.330  13.465
37128W        W 2608   3.229   9.358   1.327
37129W        W 2609   2.318   4.410  11.504
37130W        W 2610  18.288  24.690   0.426
37131W        W 2611  43.849  25.661  11.589
37132W        W 2612  16.223  21.198   4.192
37133W        W 2613  44.472  15.321   4.599
37134W        W 2614  42.945   5.750  14.907
37135W        W 2615  21.531  40.517  14.785
37136W        W 2616  25.167  30.539  12.083
37137W        W 2617   8.717  11.369  12.032
37138W        W 2618  20.688   8.681   5.624
37139W        W 2619  37.845  21.614   1.736
37140W        W 2620  30.152  17.570  12.882
37141W        W 2621  15.693  10.669  11.005
37142W        W 2622  16.213  35.943  14.466
37143W        W 2623  34.980  33.120   4.603
37144W        W 2624  31.043   8.204   1.908
37145W        W 2625  11.169   8.215   1.420
37146W        W 2626  32.982  17.714   0.260
37147W        W 2627  25.681  18.555  10.447
37148W        W 2628  33.127  30.453  11.984
37149W        W 2629  20.717   7.411   5.320
37150W        W 2630  10.274  40.332   1.831
37151W        W 2631  37.347  28.092  11.948
37152W        W 2632   1.378  20.144  10.962
37153W        W 2633  14.159   8.768   1.337
37154W        W 2634  13.123   5.789  10.540
37155W        W 2635   9.726   0.285  14.835
37156W        W 2636   1.421  11.748   1.846
37157W        W 2637   6.859  27.129  13.910
37158W        W 2638  22.207  36.089  10.530
37159W        W 2639  12.644  32.966   4.797
37160W        W 2640  35.584  17.578  13.799
37161W        W 2641  36.973  16.106  11.597
37162W        W 2642  23.044  40.797  11.544
37163W        W 2643   6.334   4.286  11.061
37164W        W 2644   7.690  10.235   5.091
37165W        W 2645  29.993  10.339  14.499
37166W        W 2646  21.529  17.302   0.806
37167W        W 2647   7.264  33.955  11.003
37168W        W 2648  33.080  43.890  14.279
37169W        W 2649  19.257  43.370   2.765
37170W        W 2650  17.199  35.014  11.428
37171W        W 2651   7.268  18.158   4.598
37172W        W 2652   0.951  21.028  10.417
37173W        W 2653   9.221  27.512   0.960
37174W        W 2654  35.080  41.483   4.737
37175W        W 2655  39.524  21.516  14.785
37176W        W 2656  33.915  13.318   2.253
37177W        W 2657  22.629   8.288   1.910
37178W        W 2658  19.745  32.055  12.477
37179W        W 2659  11.789  37.579  14.959
37180W        W 2660   5.217  27.545   2.275
37181W        W 2661  25.139   5.264   0.295
37182W        W 2662  21.017  32.953  11.513
37183W        W 2663  10.380  15.136   3.679
37184W        W 2664  12.244  14.307  14.931
37185W        W 2665  21.660  14.289   3.187
37186W        W 2666  25.572   9.746  12.578
37187W        W 2667  32.984   7.253   4.654
37188W        W 2668  37.060  36.931   0.949
37189W        W 2669  36.473   4.823  12.057
37190W        W 2670  36.525  19.244   0.381
37191W        W 2671  35.496  15.695   0.334
37192W        W 2672  15.147   1.360  11.121
37193W        W 2673  27.109  36.521   4.351
37194W        W 2674  23.220  36.934  10.565
37195W        W 2675  23.051  32.044  12.468
37196W        W 2676   0.888  44.761  14.354
37197W        W 2677  42.790  33.575  14.493
37198W        W 2678  17.103  36.534  14.800
37199W        W 2679   5.881  21.601   3.830
37200W        W 2680   2.453  16.732   4.123
37201W        W 2681  12.712  44.918  12.083
37202W        W 2682  14.645  33.126   0.920
37203W        W 2683   5.329  27.965   1.285
37204W        W 2684  41.317  20.218   0.450
37205W        W 2685  37.079  20.579   4.177
37206W        W 2686  15.581  37.530   5.281
37207W        W 2687  12.724  17.662   3.152
37208W        W 2688  37.507  29.992  14.362
37209W        W 2689  25.553  22.138  10.928
37210W        W 2690  41.942  44.776   4.837
37211W        W 2691   1.906  25.088   2.390
37212W        W 2692  14.155  38.399  13.883
37213W        W 2693  14.258  19.260  11.393
37214W        W 2694   0.280   5.722   4.799
37215W        W 2695  24.514  39.903  13.507
37216W        W 2696  38.032  40.969  12.527
37217W        W 2697  41.428  37.958   0.920
37218W        W 2698   1.934   3.422   2.860
37219W        W 2699   6.283  25.545   1.704
37220W        W 2700  27.984  14.138   1.804
37221W        W 2701  28.633  26.041  11.037
37222W        W 2702  19.107  10.273  10.930
37223W        W 2703   9.793  24.001   3.366
37224W        W 2704  33.126  25.136  13.335
37225W        W 2705  26.543  32.886   4.748
37226W        W 2706  34.094  20.204   0.942
37227W        W 2707  35.486  23.051   3.753
37228W        W 2708  19.170  28.618   2.717
37229W        W 2709  12.843  12.170  13.368
37230W        W 2710   3.807  28.009  12.548
37231W        W 2711  23.998  14.199  13.940
37232W        W 2712   2.245  34.590  13.309
37233W        W 2713  11.735  27.078   4.189
37234W        W 2714  11.341   0.855  14.366
37235W        W 2715  22.553   3.336   3.848
37236W        W 2716  18.658  22.096   2.283
37237W        W 2717   7.281  26.490  12.936
37238W        W 2718  29.428  41.428   2.374
37239W        W 2719   4.757  15.642  12.947
37240W        W 2720   2.384  12.629  10.404
37241W        W 2721  28.455   5.274   3.820
37242W        W 2722  41.909  19.284  14.825
37243W        W 2723  35.919   9.784   2.867
37244W        W 2724   7.737  10.837   2.880
37245W        W 2725  29.508  16.597  14.444
37246W        W 2726  10.170  32.057  11.495
37247W        W 2727  19.065  35.587  11.524
37248W        W 2728  26.641  27.576   2.204
37249W        W 2729  29.111   9.737  12.828
37250W        W 2730  28.129  38.424  10.474
37251W        W 2731  20.626  13.690  12.060
37252W        W 2732  33.019  20.124   3.847
37253W        W 2733  41.364  22.117  14.795
37254W        W 2734  14.623  26.992   4.738
37255W        W 2735  20.095  31.458  13.969
37256W        W 2736  39.404  26.155   0.476
37257W        W 2737  31.943  15.672  14.023
37258W        W 2738  12.290  20.058   4.126
37259W        W 2739  38.936  44.851   2.354
37260W        W 2740  40.479  42.521   1.390
37261W        W 2741  14.214  32.051   0.763
37262W        W 2742  22.703  41.452  12.002
37263W        W 2743   9.234  30.554   5.226
37264W        W 2744  33.409  34.440  12.430
37265W        W 2745   7.241   0.375  11.460
37266W        W 2746   0.372  42.997  11.431
37267W        W 2747  11.299  28.530  12.072
37268W        W 2748   2.743   1.295   2.267
37269W        W 2749  17.294   4.737  10.643
37270W        W 2750  24.678   7.898  10.632
37271W        W 2751  39.414  43.310   4.775
37272W        W 2752   9.244  26.955   1.866
37273W        W 2753  10.806   3.286  10.608
37274W        W 2754  11.161  27.667   2.751
37275W        W 2755  35.429  31.470  11.015
37276W        W 2756  37.435   9.888  11.058
37277W        W 2757  33.116  27.050  14.495
37278W        W 2758  40.376  15.685   2.355
37279W        W 2759   3.768  35.990  11.607
37280W        W 2760   9.670  32.916   2.734
37281W        W 2761  16.799   6.394   0.359
37282W        W 2762  18.195  43.876  11.949
37283W        W 2763  21.625  31.021   4.134
37284W        W 2764  24.674   8.835   3.659
37285W        W 2765  36.080  32.071  14.426
37286W        W 2766   6.904  35.582   4.348
37287W        W 2767  22.510  19.135  10.406
37288W        W 2768  28.549   5.864   1.895
37289W        W 2769   5.766  31.996  11.527
37290W        W 2770  24.228  28.616   2.344
37291W        W 2771  37.566  17.592  10.616
37292W        W 2772  18.689  41.508   2.836
37293W        W 2773  12.825  15.307  13.509
37294W        W 2774  26.087   5.204   0.757
37295W        W 2775  10.352  20.541   3.858
37296W        W 2776  34.466  10.333  12.898
37297W        W 2777  41.023  43.853   3.690
37298W        W 2778  11.731  25.079   2.809
37299W        W 2779   3.871   9.708   1.852
37300W        W 2780  23.019  21.659   1.354
37301W        W 2781  11.363  36.923   1.372
37302W        W 2782  11.149   4.340  12.497
37303W        W 2783   6.850   2.238   3.370
37304W        W 2784  12.204  35.032   4.665
37305W        W 2785  44.365   8.235   3.152
37306W        W 2786  22.692  17.697   4.285
37307W        W 2787  24.983  28.973  12.395
37308W        W 2788  40.816  15.804   0.751
37309W        W 2789  35.493  43.299  10.430
37310W        W 2790  38.911   3.903  12.376
37311W        W 2791  34.372  42.967  11.598
37312W        W 2792   0.892   3.251  11.604
37313W        W 2793  12.343  39.374  14.938
37314W        W 2794   9.796  29.061   3.737
37315W        W 2795  27.028   8.778   3.658
37316W        W 2796  43.020  27.147   4.207
37317W        W 2797  30.472  32.433  11.562
37318W        W 2798  39.475  40.498   4.127
37319W        W 2799   2.446  10.653  14.315
37320W        W 2800  12.295   5.916  13.329
37321W        W 2801  29.107  14.291  13.357
37322W        W 2802  26.187   3.752   4.332
37323W        W 2803  40.038  29.952   4.233
37324W        W 2804   1.339   5.806   4.349
37325W        W 2805  28.976  40.901  12.016
37326W        W 2806  14.698  42.403  14.323
37327W        W 2807  29.160  10.149   0.830
37328W        W 2808  10.710  11.691   0.928
37329W        W 2809  32.111  27.516   4.739
37330W        W 2810  31.616   2.268  11.395
37331W        W 2811  38.887  20.718  12.839
37332W        W 2812  43.454  11.794   3.187
37333W        W 2813  39.004  38.521  10.418
37334W        W 2814   9.721   7.212  14.471
37335W        W 2815  32.897  32.941  13.843
37336W        W 2816  34.488  19.648  10.498
37337W        W 2817  30.585  36.894  14.325
37338W        W 2818  17.066  10.304  12.047
37339W        W 2819   6.770  23.072  10.956
37340W        W 2820   0.812   2.325   4.302
37341W        W 2821  14.751   3.259  14.384
37342W        W 2822  40.992  24.066  12.922
37343W        W 2823  42.804  24.658   1.339
37344W        W 2824   9.853  43.805  12.044
37345W        W 2825   8.242  10.703   4.756
37346W        W 2826  36.041   7.180  10.442
37347W        W 2827  11.626  39.372   0.443
37348W        W 2828  34.534  35.954   1.836
37349W        W 2829  26.650  18.753   2.410
37350W        W 2830  20.189  11.356   0.444
37351W        W 2831  22.712  34.970   2.290
37352W        W 2832  24.205  42.340   3.842
37353W        W 2833  22.019  13.641  10.573
37354W        W 2834  26.179  23.141   2.301
37355W        W 2835  41.457  41.293  13.495
37356W        W 2836  41.852  36.051   1.425
37357W        W 2837  29.165  11.771   3.344
37358W        W 2838   1.327  44.959  10.408
37359W        W 2839  39.949  35.024  12.339
37360W        W 2840  12.183  42.355  14.444
37361W        W 2841  23.629   5.934  13.320
37362W        W 2842  41.946  23.009  14.911
37363W        W 2843   6.207  11.867   3.320
37364W        W 2844  22.732  23.055   2.402
37365W        W 2845  35.943   0.986   3.210
37366W        W 2846  37.435  26.594   5.286
37367W        W 2847  25.645  10.848   0.924
37368W        W 2848  12.342  13.775   4.654
37369W        W 2849  21.188  17.785   1.369
37370W        W 2850  39.027   3.764   2.380
37371W        W 2851  24.485  36.955  14.881
37372W        W 2852  24.621   3.341  13.388
37373W        W 2853  44.993  26.165   3.712
37374W        W 2854   3.802  36.989   1.259
37375W        W 2855  35.572   0.322   3.702
37376W        W 2856  10.190  35.948   4.692
37377W        W 2857  32.578  26.141   2.679
37378W        W 2858  19.039  19.134   4.821
37379W        W 2859  37.388  26.471   2.276
37380W        W 2860  29.547  35.511  11.394
37381W        W 2861  28.633  43.406   2.855
37382W        W 2862  16.779  30.614   1.893
37383W        W 2863   0.945  42.801   1.727
37384W        W 2864  16.313   9.266   1.317
37385W        W 2865  38.521  11.624  13.863
37386W        W 2866  18.075  31.939  13.858
37387W        W 2867  37.905  29.034  13.543
37388W        W 2868  42.449  23.026  11.938
37389W        W 2869  15.232  31.514   3.801
37390W        W 2870  32.393  18.544  13.853
37391W        W 2871  13.709  19.169  12.498
37392W        W 2872   5.293  38.380  13.532
37393W        W 2873  27.604  40.888   1.832
37394W        W 2874  40.890  32.556  11.485
37395W        W 2875  10.330   0.294   3.792
37396W        W 2876  37.398   4.256  10.412
37397W        W 2877   0.765  35.009  12.487
37398W        W 2878   2.390  21.247   0.291
37399W        W 2879  38.040  34.111   0.920
37400W        W 2880  44.450  19.690  10.103
37401W        W 2881   0.840  27.540   2.673
37402W        W 2882  31.565  12.844   4.745
37403W        W 2883  31.581   5.926   4.705
37404W        W 2884  17.170   8.209   2.840
37405W        W 2885  23.645  33.497   0.882
37406W        W 2886  20.587   2.374   3.860
37407W        W 2887   0.252  28.949   1.215
37408W        W 2888  31.645  16.792   2.351
37409W        W 2889  25.536   7.365   5.270
37410W        W 2890  19.181  32.085  14.972
37411W        W 2891  36.410  42.519  10.517
37412W        W 2892  20.556  17.734  14.813
37413W        W 2893  25.699   0.761   3.664
37414W        W 2894  12.191  24.647  14.436
37415W        W 2895  39.935  15.674  10.617
37416W        W 2896  25.207  30.606  14.325
37417W        W 2897   1.275  40.310   4.193
37418W        W 2898  41.372  18.057   1.819
37419W        W 2899  30.963  38.072  12.079
37420W        W 2900   4.803  25.039  11.109
37421W        W 2901  39.543  37.372   1.249
37422W        W 2902  31.114  29.985   2.179
37423W        W 2903  40.437   5.730  12.028
37424W        W 2904  43.019  32.527  14.337
37425W        W 2905  41.536  44.009   2.677
37426W        W 2906  22.173  37.372   2.351
37427W        W 2907  17.306   6.252   3.779
37428W        W 2908  34.957  39.509   2.241
37429W        W 2909  16.102  28.977  13.799
37430W        W 2910  36.893   4.867  11.603
37431W        W 2911  35.557  19.095  11.086
37432W        W 2912  29.149  30.533  12.046
37433W        W 2913  14.781   6.824  14.996
37434W        W 2914  34.031  36.862  10.527
37435W        W 2915  28.034  12.149  13.401
37436W        W 2916  18.680  14.216   1.846
37437W        W 2917  12.128  16.575   0.258
37438W        W 2918   0.275  18.217   0.399
37439W        W 2919  27.968   2.923  13.487
37440W        W 2920   8.806   5.261  14.434
37441W        W 2921  17.764  37.887  11.020
37442W        W 2922   5.313  17.230  13.966
37443W        W 2923  36.907  44.412   4.782
37444W        W 2924  14.625   2.425  14.878
37445W        W 2925  16.747  40.844   1.731
37446W        W 2926  18.552   3.334   2.399
37447W        W 2927  38.498  15.635   1.934
37448W        W 2928  37.367  20.241   5.205
37449W        W 2929  10.188  40.979  14.909
37450W        W 2930  39.049  33.564   2.410
37451W        W 2931   5.343  23.624  10.889
37452W        W 2932  31.112  11.828  12.996
37453W        W 2933  38.480  28.962   4.823
37454W        W 2934   7.681  19.248   3.643
37455W        W 2935  40.321  33.918  11.906
37456W        W 2936  40.376  15.578   4.836
37457W        W 2937   4.262   0.940  11.539
37458W        W 2938  32.061  43.972  10.627
37459W        W 2939  36.970   7.867   4.818
37460W        W 2940  30.483   7.409  13.815
37461W        W 2941  24.560  37.866   3.316
37462W        W 2942  35.439   6.828   3.292
37463W        W 2943  28.062  25.482   4.273
37464W        W 2944   7.362   7.415  12.343
37465W        W 2945  44.427   1.902  14.512
37466W        W 2946  14.745  35.078   9.484
37467W        W 2947   6.421  29.505  14.910
37468W        W 2948  21.095  18.644   3.863
37469W        W 2949  28.475  14.183  13.844
37470W        W 2950  44.009  24.657   2.794
37471W        W 2951   6.877  32.484  10.554
37472W        W 2952  25.032   0.788   3.297
37473W        W 2953  39.358  41.813   1.854
37474W        W 2954  21.623   4.213  12.362
37475W        W 2955   4.750  12.805  11.600
37476W        W 2956  13.830  10.643   0.439
37477W        W 2957  17.786  18.055  13.809
37478W        W 2958  17.192   9.153  10.147
37479W        W 2959  23.043  21.167  11.377
37480W        W 2960  35.446  35.969  11.970
37481W        W 2961  12.162  24.999  13.457
37482W        W 2962   8.170  16.731  12.530
37483W        W 2963  44.866  41.372  11.442
37484W        W 2964  35.550  20.613  10.414
37485W        W 2965  32.922  14.819   2.269
37486W        W 2966  36.906  20.690   0.737
37487W        W 2967  38.020  44.754   3.380
37488W        W 2968  35.045  10.209   1.737
37489W        W 2969  12.303   4.881  14.369
37490W        W 2970  27.658  41.472   1.738
37491W        W 2971  40.891   6.389   3.216
37492W        W 2972  25.152  44.913   0.400
37493W        W 2973   1.350  25.711  12.379
37494W        W 2974  12.195  21.710  14.767
37495W        W 2975   6.901  10.824  13.415
37496W        W 2976  44.884  14.679  11.436
37497W        W 2977   5.300  39.034   1.337
37498W        W 2978  15.113  41.392  11.509
37499W        W 2979  32.116  32.431  12.530
37500W        W 2980   9.756  14.641   2.198
37501W        W 2981  33.070  27.528  14.503
37502W        W 2982  12.312  28.647  13.958
37503W        W 2983  19.159  33.430   0.796
37504W        W 2984  35.880  42.363   0.310
37505W        W 2985  40.411  41.813  13.035
37506W        W 2986   7.837   4.811   1.433
37507W        W 2987   5.404  29.462   4.833
37508W        W 2988   2.242  24.202  12.874
37509W        W 2989  23.550  41.009  12.371
37510W        W 2990  33.010  38.912  10.932
37511W        W 2991   6.808   1.735  14.478
37512W        W 2992  31.524  23.534   3.811
37513W        W 2993  35.029  29.932   4.225
37514W        W 2994   9.689  33.071   3.847
37515W        W 2995   2.425  19.538   0.762
37516W        W 2996   5.212  14.232  12.949
37517W        W 2997  14.230  38.461  11.070
37518W        W 2998  24.558  11.245   2.839
37519W        W 2999   0.915   1.333   4.622
37520W        W 3000  24.709  29.172   1.757
37521W        W 3001   1.853  23.172   3.259
37522W        W 3002  38.856  15.314   1.284
37523W        W 3003  37.489  18.158   1.778
37524W        W 3004  21.698  32.926   4.220
37525W        W 3005  21.032  30.132  13.485
37526W        W 3006  25.073   3.896  10.469
37527W        W 3007  15.618  40.515  14.888
37528W        W 3008   7.211   6.912  13.537
37529W        W 3009   9.380  30.141  12.579
37530W        W 3010  29.643  32.116  12.572
37531W        W 3011  10.819  38.481   1.250
37532W        W 3012  22.042  30.122  13.386
37533W        W 3013  11.334  37.948   2.237
37534W        W 3014   6.866  34.926   3.763
37535W        W 3015  11.802  16.733   4.316
37536W        W 3016  33.118  23.137  12.489
37537W        W 3017   7.284  33.886   1.337
37538W        W 3018  30.032  43.380  12.874
37539W        W 3019  42.889  12.262   4.632
37540W        W 3020  34.071  20.662  12.506
37541W        W 3021  26.047   8.210  13.491
37542W        W 3022  16.255  39.406  11.904
37543W        W 3023   6.713  12.324   4.628
37544W        W 3024  29.922  27.117  14.385
37545W        W 3025  19.651   8.801   0.738
37546W        W 3026  18.086  43.901  11.445
37547W        W 3027  17.145  16.681  12.538
37548W        W 3028  14.652  37.067   0.456
37549W        W 3029  20.717  11.137  11.869
37550W        W 3030   4.748  15.214   0.855
37551W        W 3031  33.129  19.227  12.450
37552W        W 3032  36.017   1.361  11.087
37553W        W 3033   7.353  32.887  12.344
37554W        W 3034  22.743  15.645  10.463
37555W        W 3035  14.230  43.950  12.875
37556W        W 3036  31.057  19.671   1.885
37557W        W 3037  32.976  38.922   2.736
37558W        W 3038  16.657  27.611   4.702
37559W        W 3039  17.699  25.506   3.764
37560W        W 3040  44.899  25.484  14.838
37561W        W 3041  13.168   2.317  14.405
37562W        W 3042  29.665   8.372   3.307
37563W        W 3043   7.364   3.237  14.974
37564W        W 3044  26.600  38.062  14.906
37565W        W 3045  23.216  23.075  11.516
37566W        W 3046  15.107  27.138   3.157
37567W        W 3047  22.734   5.902   4.345
37568W        W 3048  14.624  41.911  11.905
37569W        W 3049   6.371  28.547  13.377
37570W        W 3050   1.752  37.968  14.007
37571W        W 3051   8.831   9.167  14.304
37572W        W 3052  31.103  19.190  13.912
37573W        W 3053  33.966   0.360  10.465
37574W        W 3054  21.721  38.520   3.851
37575W        W 3055   9.301   9.715   1.711
37576W        W 3056  39.479  18.552  11.556
37577W        W 3057   4.828  15.175   3.670
37578W        W 3058  13.719   0.925  14.825
37579W        W 3059  13.720  12.338   0.365
37580W        W 3060   0.895  42.385  11.409
37581W        W 3061   4.740   0.766  14.023
37582W        W 3062  14.825  39.333   0.248
37583W        W 3063   0.853  11.691   4.811
37584W        W 3064  31.026   2.898   1.870
37585W        W 3065   2.231  29.103   1.394
37586W        W 3066  35.531  41.534  10.421
37587W        W 3067  23.550   3.409   3.812
37588W        W 3068  10.239  25.042  11.478
37589W        W 3069  14.100  12.731   2.282
37590W        W 3070  42.453  15.758  10.568
37591W        W 3071  26.035  42.942   2.243
37592W        W 3072  29.993  30.044  11.021
37593W        W 3073  17.212  23.090   0.273
37594W        W 3074  19.166  40.033   1.813
37595W        W 3075  11.823  41.832   1.439
37596W        W 3076  16.640  32.457   1.823
37597W        W 3077  10.355  16.606   3.731
37598W        W 3078  37.842  12.263   2.186
37599W        W 3079  31.128  42.803   2.807
37600W        W 3080  14.096  21.258   0.288
37601W        W 3081  21.515  25.080  11.565
37602W        W 3082  16.233  42.361   2.259
37603W        W 3083  15.282   3.799   2.756
37604W        W 3084  37.891  24.525  10.512
37605W        W 3085  43.378  12.754  13.447
37606W        W 3086  22.702  18.755  13.810
37607W        W 3087  32.083  35.048   1.227
37608W        W 3088  34.410  35.447   2.867
37609W        W 3089  16.805   0.447   2.224
37610W        W 3090  10.702   5.408  14.950
37611W        W 3091  37.834  32.977   4.207
37612W        W 3092  35.897  27.161   0.393
37613W        W 3093  27.128  18.686   4.700
37614W        W 3094  24.120   0.433   5.773
37615W        W 3095  23.696   9.258  10.081
37616W        W 3096  42.487   8.225  12.995
37617W        W 3097  44.871  36.456  13.344
37618W        W 3098  27.142  13.724   4.146
37619W        W 3099  43.459  19.268  13.545
37620W        W 3100   8.869  17.162  14.798
37621W        W 3101  10.218  43.279   4.616
37622W        W 3102  22.140  32.978   1.836
37623W        W 3103  39.055  25.066  13.397
37624W        W 3104  29.536  11.262   0.962
37625W        W 3105  33.396  26.573  14.784
37626W        W 3106   0.831  41.819  13.409
37627W        W 3107  25.132  39.929  12.908
37628W        W 3108  41.315  21.124   1.926
37629W        W 3109  35.366  38.480   2.729
37630W        W 3110  34.564  21.749  14.845
37631W        W 3111  43.418  16.618  13.850
37632W        W 3112   3.936  27.551  13.967
37633W        W 3113  10.808   1.844   4.621
37634W        W 3114   2.243  33.590  14.969
37635W        W 3115  22.151   3.250   2.671
37636W        W 3116   6.196  38.910   1.258
37637W        W 3117   9.748  13.627   3.692
37638W        W 3118  22.594  35.020  13.521
37639W        W 3119  44.938  28.964  11.479
37640W        W 3120  11.840  17.558  13.442
37641W        W 3121  17.640  31.468   3.871
37642W        W 3122  13.657  26.095  13.843
37643W        W 3123  34.928   8.842   4.613
37644W        W 3124  23.025  29.940   0.426
37645W        W 3125  39.353  10.203   2.770
37646W        W 3126  27.151  42.521   3.709
37647W        W 3127   8.162  20.032   0.442
37648W        W 3128  12.352  42.321  11.457
37649W        W 3129  35.898   6.230   2.305
37650W        W 3130  41.427  35.013   1.321
37651W        W 3131   1.394  15.600   4.238
37652W        W 3132  28.055  19.630   9.920
37653W        W 3133  17.145  38.065   4.798
37654W        W 3134   7.350  14.137  11.381
37655W        W 3135  32.595  12.835  10.430
37656W        W 3136  30.621  10.300  13.972
37657W        W 3137   6.391  43.800   2.318
37658W        W 3138  39.422  21.716   2.684
37659W        W 3139  31.550  44.272   3.375
37660W        W 3140  27.006  18.219   4.688
37661W        W 3141  44.936  13.311   1.395
37662W        W 3142  25.145  34.948  13.389
37663W        W 3143   5.259  10.152  13.904
37664W        W 3144  33.876  43.287  14.430
37665W        W 3145  12.337  31.487   3.732
37666W        W 3146  18.161   9.882  13.408
37667W        W 3147  42.428  35.422   1.231
37668W        W 3148  16.130  32.496   0.735
37669W        W 3149  25.594  39.456  14.299
37670W        W 3150   4.718  19.630  13.366
37671W        W 3151  17.600  37.489   4.255
37672W        W 3152  30.095  30.516  12.505
37673W        W 3153  36.950  26.991   0.364
37674W        W 3154   7.334  26.526  11.492
37675W        W 3155  18.678  35.077   0.894
37676W        W 3156  15.313  44.785  12.459
37677W        W 3157  15.624  26.631  11.925
37678W        W 3158  38.973  29.423   3.337
37679W        W 3159  22.563  41.999  12.088
37680W        W 3160   6.306   7.840   0.870
37681W        W 3161   4.924  12.723   1.270
37682W        W 3162  34.965  27.635   2.238
37683W        W 3163   2.395   9.283   1.839
37684W        W 3164  12.824   8.235   0.887
37685W        W 3165  37.399  25.710  12.364
37686W        W 3166  29.017  25.658   1.279
37687W        W 3167  30.093   9.745   2.846
37688W        W 3168  41.373   5.402   0.483
37689W        W 3169  41.897  14.323   0.824
37690W        W 3170  36.383  40.939   0.277
37691W        W 3171  33.417  30.548   3.645
37692W        W 3172   5.213  23.651  13.928
37693W        W 3173  30.572  38.409   4.304
37694W        W 3174  36.569  12.718  10.478
37695W        W 3175   9.180   1.375   2.234
37696W        W 3176  27.664  20.189   1.893
37697W        W 3177  24.545  32.065  12.985
37698W        W 3178   6.873  34.049  11.511
37699W        W 3179   3.785  10.706  13.437
37700W        W 3180  34.912   1.897   4.129
37701W        W 3181   6.238  44.468   1.230
37702W        W 3182   5.753  38.923  11.411
37703W        W 3183  34.391  20.708   0.353
37704W        W 3184  38.384   1.350   1.311
37705W        W 3185  43.381  22.617   3.695
37706W        W 3186  26.996  34.518  11.603
37707W        W 3187  20.258  28.494  14.798
37708W        W 3188   1.438  36.970  14.403
37709W        W 3189  27.078  10.760  11.377
37710W        W 3190  42.389  32.022  11.915
37711W        W 3191   7.298  19.099   2.221
37712W        W 3192  26.185  34.993  14.919
37713W        W 3193  36.972  14.337   3.269
37714W        W 3194  11.717  30.098   4.820
37715W        W 3195  20.106   3.258  10.413
37716W        W 3196   1.283  36.440   0.743
37717W        W 3197   1.961  13.615   4.825
37718W        W 3198   0.977  43.972  12.021
37719W        W 3199   8.185   0.864  14.925
37720W        W 3200  13.601   8.339   3.289
37721W        W 3201  25.483  43.466  13.793
37722W        W 3202  24.507  38.397  13.918
37723W        W 3203  14.725  34.071  11.054
37724W        W 3204  34.517   5.284  10.616
37725W        W 3205  28.178  28.648  11.943
37726W        W 3206  29.090  19.582  11.606
37727W        W 3207  29.666  24.643   1.739
37728W        W 3208  10.632  31.923   5.234
37729W        W 3209  33.905  27.126  14.916
37730W        W 3210   8.827  34.547   2.692
37731W        W 3211  14.321  44.282  13.418
37732W        W 3212  30.570  22.048   0.916
37733W        W 3213  42.852  27.016   4.838
37734W        W 3214  39.315  10.784  10.637
37735W        W 3215  10.871  43.804   0.375
37736W        W 3216  16.318  43.299  13.838
37737W        W 3217  25.995   4.889  11.938
37738W        W 3218  27.979  18.163   2.716
37739W        W 3219  23.206   3.266   0.848
37740W        W 3220   9.323   4.739  12.848
37741W        W 3221   6.278  29.152  10.964
37742W        W 3222  14.272  19.612   4.271
37743W        W 3223  22.031   4.885   3.172
37744W        W 3224  14.279  18.280  10.637
37745W        W 3225  35.469  12.217  10.456
37746W        W 3226  43.286  23.529   0.311
37747W        W 3227  41.415  16.795  13.951
37748W        W 3228  37.447  23.086  14.919
37749W        W 3229  33.526  37.474  10.468
37750W        W 3230  30.126  21.707   2.220
37751W        W 3231  40.474  17.068   3.303
37752W        W 3232  33.563  34.548   3.292
37753W        W 3233   1.406  38.455  12.048
37754W        W 3234  13.751  37.519  14.905
37755W        W 3235  23.169  15.715  13.035
37756W        W 3236  28.981  41.036   2.672
37757W        W 3237   5.809  39.383   1.746
37758W        W 3238  39.453   1.941   0.822
37759W        W 3239  10.761  33.077  14.513
37760W        W 3240  41.478   0.809   3.706
37761W        W 3241  22.525  20.192   3.692
37762W        W 3242  19.280  34.109  12.372
37763W        W 3243  11.313  24.140   2.679
37764W        W 3244  25.153  16.582  14.962
37765W        W 3245  10.768  24.185  11.114
37766W        W 3246  25.593  22.711   1.788
37767W        W 3247  25.636   2.925  13.795
37768W        W 3248  22.524  14.336  13.946
37769W        W 3249  11.368   9.727  12.484
37770W        W 3250   2.350   6.711  10.608
37771W        W 3251  13.687  19.175  13.503
37772W        W 3252  40.361  30.644  14.901
37773W        W 3253  28.094  41.022   0.945
37774W        W 3254  30.421  17.592  10.573
37775W        W 3255  33.453   0.336  14.799
37776W        W 3256  25.682   1.449   3.306
37777W        W 3257   1.845  17.561  13.346
37778W        W 3258  11.209  23.095   4.774
37779W        W 3259  28.104  30.127   1.731
37780W        W 3260  30.061   4.314  13.436
37781W        W 3261  21.523  37.416   2.297
37782W        W 3262   3.434  36.018   2.714
37783W        W 3263  43.958  36.390  10.894
37784W        W 3264  15.734  37.418   4.232
37785W        W 3265  35.957  35.432  13.437
37786W        W 3266  26.698  38.428  11.063
37787W        W 3267  17.601   5.708   1.380
37788W        W 3268   7.174  10.848   3.360
37789W        W 3269   2.264   2.892  14.769
37790W        W 3270  15.162  20.582  12.829
37791W        W 3271  17.118  16.131   1.358
37792W        W 3272  14.219  13.658  12.343
37793W        W 3273  27.560  34.497   0.824
37794W        W 3274  36.039   8.280   4.697
37795W        W 3275  30.055  29.152  13.376
37796W        W 3276  43.508  14.311  11.390
37797W        W 3277  14.724  16.682  10.479
37798W        W 3278  18.193  22.156  13.922
37799W        W 3279  28.999  28.949  14.298
37800W        W 3280  42.964  26.097   3.681
37801W        W 3281  33.875  43.878   0.311
37802W        W 3282  10.340  24.010  10.583
37803W        W 3283  39.908  36.874  12.342
37804W        W 3284  13.719  37.396   4.289
37805W        W 3285   4.933   4.349  11.487
37806W        W 3286   3.299  38.338  12.017
37807W        W 3287  28.054  11.127  10.611
37808W        W 3288   8.257   7.847   3.262
37809W        W 3289  42.029  39.364   2.336
37810W        W 3290   0.363  26.518  11.903
37811W        W 3291   6.710  29.964   4.830
37812W        W 3292  21.589  14.708  14.929
37813W        W 3293   3.729  22.152   3.819
37814W        W 3294   2.906  16.776  12.468
37815W        W 3295  22.631  41.030  11.043
37816W        W 3296  24.490  27.054   1.843
37817W        W 3297  25.117   7.721   0.416
37818W        W 3298  22.623  15.675  11.518
37819W        W 3299  44.411   9.729   1.271
37820W        W 3300  11.811  18.635  13.035
37821W        W 3301  13.131  41.414   2.802
37822W        W 3302  31.599  19.663   2.267
37823W        W 3303  25.528  44.958   1.753
37824W        W 3304  13.325  41.352  10.414
37825W        W 3305   7.839  35.999  14.283
37826W        W 3306  31.106  10.826  11.007
37827W        W 3307  39.375  14.167   4.231
37828W        W 3308  23.092  10.740  10.052
37829W        W 3309  16.294  16.723  10.508
37830W        W 3310  11.714   4.429   1.927
37831W        W 3311  27.117  39.830  14.385
37832W        W 3312  41.863  14.166  10.127
37833W        W 3313  15.294  35.930  13.960
37834W        W 3314  12.343   2.270   0.902
37835W        W 3315  10.649  31.468   0.326
37836W        W 3316  43.331  28.169  14.417
37837W        W 3317  18.164  13.665   1.343
37838W        W 3318  42.461  13.833  12.443
37839W        W 3319  29.499  34.920  12.505
37840W        W 3320  39.053  39.019   0.762
37841W        W 3321  39.031  16.296   3.339
37842W        W 3322  31.918  23.707  14.456
37843W        W 3323   5.320  29.934  14.403
37844W        W 3324  34.401  26.068  11.900
37845W        W 3325  26.979  21.260  14.477
37846W        W 3326  15.286   5.736  10.475
37847W        W 3327   8.796  27.466  10.921
37848W        W 3328  14.154   1.758  11.033
37849W        W 3329  43.781   8.324  10.554
37850W        W 3330  44.769  16.150  10.577
37851W        W 3331  41.820  15.760  13.531
37852W        W 3332  11.683  42.334   9.627
37853W        W 3333  40.370  14.147  13.921
37854W        W 3334  24.505   1.871   2.700
37855W        W 3335  27.454  11.841  14.955
37856W        W 3336  11.836   4.700  10.451
37857W        W 3337   8.793  37.894  14.953
37858W        W 3338   6.756  23.208  13.308
37859W        W 3339  28.502   9.324   3.185
37860W        W 3340  33.934  15.591  13.478
37861W        W 3341  23.997  25.080  14.833
37862W        W 3342   3.383  40.964   3.359
37863W        W 3343  20.523  23.731  11.583
37864W        W 3344   6.252  10.359   5.249
37865W        W 3345  40.997  20.670   0.292
37866W        W 3346  30.006  43.764   0.864
37867W        W 3347  34.417  32.600  13.919
37868W        W 3348   9.754  22.643   1.309
37869W        W 3349   8.167   7.177   0.427
37870W        W 3350   6.706  21.603   4.167
37871W        W 3351  39.334  42.899  14.858
37872W        W 3352  23.508  42.967   4.259
37873W        W 3353  37.520  18.789   3.189
37874W        W 3354   2.897  17.234   1.858
37875W        W 3355  15.171  22.201   3.173
37876W        W 3356   3.325  43.405   3.662
37877W        W 3357  32.911  41.451  10.431
37878W        W 3358   2.263  31.912   4.816
37879W        W 3359  14.278  27.009  14.389
37880W        W 3360  28.645  12.214  10.932
37881W        W 3361  35.896  28.044   3.254
37882W        W 3362  40.439   8.215  12.375
37883W        W 3363  13.226   5.708  14.830
37884W        W 3364  41.876   0.942   4.660
37885W        W 3365  20.088  36.504  14.975
37886W        W 3366  40.816  31.898  14.890
37887W        W 3367  31.917  39.401   1.308
37888W        W 3368   7.328  16.149   2.787
37889W        W 3369  22.086   2.960   4.812
37890W        W 3370  34.443  33.478  14.925
37891W        W 3371  10.831  24.506  11.396
37892W        W 3372  13.630  23.555  14.804
37893W        W 3373  26.507   9.762   2.230
37894W        W 3374  14.691  33.482  12.467
37895W        W 3375  24.213   0.778  14.849
37896W        W 3376  22.174  12.279  13.054
37897W        W 3377  15.191  38.532   0.897
37898W        W 3378  31.012  13.211   4.829
37899W        W 3379   3.952  16.170  12.516
37900W        W 3380  39.556  24.200   3.669
37901W        W 3381  38.464  15.795   2.776
37902W        W 3382   1.852   5.816  10.452
37903W        W 3383   0.934  42.919   5.276
37904W        W 3384  13.323  37.923  10.539
37905W        W 3385  25.028  41.435  13.442
37906W        W 3386  11.153  38.382   2.322
37907W        W 3387   4.299  42.297   1.797
37908W        W 3388   4.392  36.524  12.891
37909W        W 3389  33.513   8.300   2.312
37910W        W 3390  30.115  17.263   4.289
37911W        W 3391  32.437  10.827   1.411
37912W        W 3392  17.574  23.060  12.390
37913W        W 3393  15.213  36.367   3.251
37914W        W 3394  35.893  41.325  12.378
37915W        W 3395  17.129  28.111   2.403
37916W        W 3396  43.869  40.505   1.748
37917W        W 3397   5.339   7.235   4.195
37918W        W 3398  18.776  44.375  13.466
37919W        W 3399  11.372  42.417  10.452
37920W        W 3400  15.643   1.791  10.102
37921W        W 3401  13.211  18.559  13.494
37922W        W 3402   8.808  38.895  13.047
37923W        W 3403   4.785  20.063   3.315
37924W        W 3404   2.962  34.503  12.390
37925W        W 3405  20.244  26.547  13.877
37926W        W 3406   6.828  14.777  11.957
37927W        W 3407  31.975  23.189   2.239
37928W        W 3408  36.910  15.698   3.209
37929W        W 3409   7.684   4.207  13.369
37930W        W 3410  28.075  43.888  13.336
37931W        W 3411  26.072  37.355  12.009
37932W        W 3412  32.092  13.699  13.482
37933W        W 3413  36.460  40.400  10.460
37934W        W 3414  19.077  42.319   0.347
37935W        W 3415  14.302   3.329   3.255
37936W        W 3416  18.713   5.199  13.413
37937W        W 3417  22.659  29.602  12.561
37938W        W 3418  43.910  33.948   2.809
37939W        W 3419   7.850  30.061  14.351
37940W        W 3420   9.216   9.734   2.235
37941W        W 3421   9.321  28.476   3.740
37942W        W 3422  42.468  33.129  11.510
37943W        W 3423  28.170  31.597  14.459
37944W        W 3424  11.263  36.592   4.247
37945W        W 3425  15.144  43.001   2.791
37946W        W 3426  18.177  16.704  11.019
37947W        W 3427  24.170   6.811   3.720
37948W        W 3428  43.861  29.441   4.160
37949W        W 3429   5.242   3.922   3.758
37950W        W 3430  36.863  26.467   1.742
37951W        W 3431  41.428  36.024  13.903
37952W        W 3432  25.559   5.259   1.845
37953W        W 3433   7.896  44.800   3.798
37954W        W 3434  31.467  23.122   2.710
37955W        W 3435   6.254  10.696  14.351
37956W        W 3436  29.427  27.593  14.022
37957W        W 3437   7.246  10.775   3.837
37958W        W 3438  41.389  18.080   2.191
37959W        W 3439  19.698  32.444  14.423
37960W        W 3440  16.100  18.563  10.448
37961W        W 3441  43.914  23.190  12.073
37962W        W 3442  15.741  24.630  14.489
37963W        W 3443  31.954  23.672  11.991
37964W        W 3444  38.068  43.460   0.285
37965W        W 3445  36.380   4.730   4.343
37966W        W 3446  13.610   5.794   1.868
37967W        W 3447  11.715  36.487   4.664
37968W        W 3448   0.950  37.875   4.305
37969W        W 3449  42.980  31.011  10.553
37970W        W 3450  18.632  21.085  11.599
37971W        W 3451  39.810  16.208  14.503
37972W        W 3452   1.914  26.623  13.327
37973W        W 3453  42.519  23.116  13.939
37974W        W 3454   1.244   6.787  13.948
37975W        W 3455  23.692  35.034   1.805
37976W        W 3456  23.624  10.190  14.292
37977W        W 3457  30.628  16.618  14.012
37978W        W 3458  11.754  15.697  10.915
37979W        W 3459   6.810  21.529   2.297
37980W        W 3460   0.935  20.161   4.788
37981W        W 3461   7.693  35.592   0.826
37982W        W 3462  19.163  36.902   3.670
37983W        W 3463  40.891  32.029  13.022
37984W        W 3464  12.279  10.141   3.658
37985W        W 3465  20.128  13.182  14.320
37986W        W 3466   3.763  25.536  12.075
37987W        W 3467  22.194  31.079  12.987
37988W        W 3468  41.537  21.185   3.356
37989W        W 3469  38.062  30.988   4.623
37990W        W 3470  39.061  34.536   5.096
37991W        W 3471  36.897  24.599  12.955
37992W        W 3472  31.979   4.781   9.963
37993W        W 3473  16.100  19.749  14.413
37994W        W 3474  18.176  26.456  13.335
37995W        W 3475  15.602  18.700  10.020
37996W        W 3476  30.554  28.104   1.870
37997W        W 3477   1.310  40.847   0.803
37998W        W 3478  43.818  42.473  14.779
37999W        W 3479  38.952  41.853  11.087
38000W        W 3480  13.624  30.596   3.731
38001W        W 3481  15.242  36.841   1.810
38002W        W 3482   8.849  14.324   0.369
38003W        W 3483  32.059   8.769  12.355
38004W        W 3484  13.826  25.096  11.109
38005W        W 3485  44.314  10.831   0.382
38006W        W 3486   9.743  43.784   4.606
38007W        W 3487  26.624  21.597   5.281
38008W        W 3488  22.224  28.086   0.274
38009W        W 3489   9.698  19.225  12.086
38010W        W 3490  35.400  18.105   4.309
38011W        W 3491  44.498  21.675  10.612
38012W        W 3492  28.043  19.680   1.738
38013W        W 3493  36.979  37.479   2.760
38014W        W 3494  11.353  18.265   1.907
38015W        W 3495  27.659  22.156   2.405
38016W        W 3496  11.810  25.612   2.687
38017W        W 3497  25.979  16.079  12.538
38018W        W 3498  33.557  31.922  13.791
38019W        W 3499   3.937  25.141  11.382
38020W        W 3500  10.151   3.906   0.344
38021W        W 3501   0.756   7.322   0.951
38022W        W 3502  13.675  30.549  12.520
38023W        W 3503  33.513  12.724  12.068
38024W        W 3504  13.622  35.099   1.287
38025W        W 3505   1.420  22.239   0.882
38026W        W 3506  23.103  31.613   2.408
38027W        W 3507   7.260   7.187   4.205
38028W        W 3508  20.191   3.881  12.019
38029W        W 3509  19.118  36.351  14.011
38030W        W 3510  14.123  10.256  11.031
38031W        W 3511  15.176  23.194  10.630
38032W        W 3512  10.164   1.290  14.972
38033W        W 3513  31.945  14.126   4.301
38034W        W 3514   3.322   3.241  11.979
38035W        W 3515  10.660  18.117  13.025
38036W        W 3516  34.020  36.055  13.440
38037W        W 3517  15.696   7.407   2.881
38038W        W 3518  40.431  12.137   2.731
38039W        W 3519  10.658  14.147   5.168
38040W        W 3520  34.058  39.935   4.683
38041W        W 3521  14.671   8.813   1.447
38042W        W 3522   7.272  19.764  11.872
38043W        W 3523  16.599  14.831   5.629
38044W        W 3524   2.842  24.725  11.977
38045W        W 3525  16.174  24.519   0.773
38046W        W 3526  13.736   1.943  13.875
38047W        W 3527  14.289  18.640   0.418
38048W        W 3528  28.641   9.209  10.959
38049W        W 3529  43.464  43.965   2.675
38050W        W 3530  40.349  33.935   2.774
38051W        W 3531   7.271  11.207  14.496
38052W        W 3532  29.512  10.765   2.788
38053W        W 3533  31.078  36.409   1.376
38054W        W 3534  44.763  39.025   1.885
38055W        W 3535  24.976  33.989  11.928
38056W        W 3536  44.826  15.127  13.869
38057W        W 3537  39.821   1.943  13.401
38058W        W 3538   0.891  33.404   3.716
38059W        W 3539   5.817  14.750   2.393
38060W        W 3540  31.485  43.969  14.938
38061W        W 3541  38.425  14.597   2.711
38062W        W 3542  22.133  18.656   3.374
38063W        W 3543   3.951  14.615   0.353
38064W        W 3544   3.743   5.317   3.343
38065W        W 3545  23.104   1.922  10.114
38066W        W 3546  37.495  23.203  13.027
38067W        W 3547  26.115  35.087  12.467
38068W        W 3548  16.219  27.965   3.367
38069W        W 3549  33.967  20.234   4.155
38070W        W 3550   3.358  12.301  10.935
38071W        W 3551   4.933  39.338   1.302
38072W        W 3552  15.606   9.371  12.387
38073W        W 3553  35.973  41.480   3.721
38074W        W 3554   1.930  10.216   2.899
38075W        W 3555   4.779   2.407   5.149
38076W        W 3556   7.680  12.289   0.255
38077W        W 3557  18.671  10.839   2.718
38078W        W 3558  39.489  44.386   2.279
38079W        W 3559   6.281   7.691   2.217
38080W        W 3560  27.517  17.578   0.406
38081W        W 3561  20.236  41.484  11.444
38082W        W 3562   6.412  41.867   2.721
38083W        W 3563   0.748  33.013   0.935
38084W        W 3564  24.976  10.186  13.949
38085W        W 3565  42.477  11.160  11.564
38086W        W 3566  36.363  20.192   2.792
38087W        W 3567  21.690  17.798   4.193
38088W        W 3568  31.012  40.385  14.478
38089W        W 3569  23.733   4.772   3.248
38090W        W 3570   0.338  43.804   0.278
38091W        W 3571  16.623   6.255  10.422
38092W        W 3572  10.138  18.677  13.405
38093W        W 3573  38.565   4.268  12.953
38094W        W 3574  24.653  42.321   1.397
38095W        W 3575   3.729  13.736  12.970
38096W        W 3576  14.147   8.869  13.953
38097W        W 3577   8.299  30.616   1.224
38098W        W 3578  23.642  12.643   1.725
38099W        W 3579   2.780  33.603  12.438
38100W        W 3580  26.669   8.275  12.507
38101W        W 3581  37.941  27.017  10.597
38102W        W 3582  40.538  32.441   0.392
38103W        W 3583  17.692  43.340   1.747
38104W        W 3584  19.566  32.413   4.759
38105W        W 3585  21.234   3.218   3.710
38106W        W 3586  13.243  21.734  10.585
38107W        W 3587  16.169  21.223  10.533
38108W        W 3588   3.406  43.968  12.005
38109W        W 3589   1.321  40.315   2.724
38110W        W 3590  11.701  25.504   9.982
38111W        W 3591  35.048  39.395   1.371
38112W        W 3592  39.842  37.843   3.229
38113W        W 3593  13.726   9.219   2.235
38114W        W 3594  15.224   5.778   4.675
38115W        W 3595   7.277  32.533  14.831
38116W        W 3596  18.277  35.485  12.465
38117W        W 3597   6.283  37.453   9.983
38118W        W 3598  40.328   2.423   0.791
38119W        W 3599   0.356  42.777   2.891
38120W        W 3600  24.529  35.094  10.504
38121W        W 3601   6.810  34.986  14.780
38122W        W 3602  18.651  33.528  10.970
38123W        W 3603   9.848  13.260   2.349
38124W        W 3604   8.176   2.746  12.371
38125W        W 3605  19.224   5.837   3.343
38126W        W 3606  33.394  35.411   0.397
38127W        W 3607  38.967  18.165  12.026
38128W        W 3608   1.768   1.357   3.706
38129W        W 3609   4.844   7.188  10.591
38130W        W 3610  20.070  15.813  13.807
38131W        W 3611  43.313  39.516   0.360
38132W        W 3612  35.878  24.034  12.431
38133W        W 3613   1.872  10.768   2.404
38134W        W 3614  23.726   9.374  12.343
38135W        W 3615  15.605  22.678   1.774
38136W        W 3616   9.176  20.556   2.307
38137W        W 3617   7.847  15.146  11.091
38138W        W 3618  14.186  34.992   0.298
38139W        W 3619  23.653  27.144   1.430
38140W        W 3620  12.195  10.238  11.919
38141W        W 3621  44.939  42.396   4.130
38142W        W 3622   6.242   6.759  13.374
38143W        W 3623  36.368  31.144  12.961
38144W        W 3624   8.655  39.980  10.619
38145W        W 3625  10.307  14.599  12.341
38146W        W 3626   0.295  10.227   2.793
38147W        W 3627  26.658   1.944   3.800
38148W        W 3628   3.843  23.651   2.246
38149W        W 3629  12.167   1.300  14.504
38150W        W 3630   1.897   7.177   3.207
38151W        W 3631  22.681  11.661  10.122
38152W        W 3632   5.813  41.844   0.331
38153W        W 3633  31.958  41.790  10.611
38154W        W 3634  28.094   8.702  14.885
38155W        W 3635  43.420   4.708  12.451
38156W        W 3636   4.439  37.494  11.441
38157W        W 3637  11.211  34.383   2.386
38158W        W 3638  18.786  36.399   4.206
38159W        W 3639  41.944  25.568   1.284
38160W        W 3640  23.231  26.681  13.489
38161W        W 3641  23.055   5.717  12.361
38162W        W 3642  34.502  27.523  14.373
38163W        W 3643  39.015  33.434   0.904
38164W        W 3644  38.008  10.771  10.627
38165W        W 3645  38.989  14.186  14.319
38166W        W 3646   8.880   6.388  13.332
38167W        W 3647   5.777  31.529  14.793
38168W        W 3648  27.187  33.875  13.393
38169W        W 3649  21.191  25.050   3.387
38170W        W 3650  20.722  16.744  13.892
38171W        W 3651  29.075  41.408   3.285
38172W        W 3652  32.515  16.654   2.230
38173W        W 3653   3.939  22.641  14.883
38174W        W 3654  37.895  14.282   0.877
38175W        W 3655  34.572  39.870   3.699
38176W        W 3656  12.358  35.420  11.931
38177W        W 3657   4.312  37.983  13.056
38178W        W 3658  44.887  14.738  10.966
38179W        W 3659  19.118  39.433   3.694
38180W        W 3660  42.875  14.747   3.281
38181W        W 3661  29.938  11.657  13.798
38182W        W 3662   1.962  35.553  11.532
38183W        W 3663  26.047  18.619   2.738
38184W        W 3664   8.188   9.850   3.161
38185W        W 3665  33.970  14.113  11.973
38186W        W 3666  10.155  30.621   5.113
38187W        W 3667  15.327  42.427  14.916
38188W        W 3668  39.819  23.701  13.368
38189W        W 3669  35.374  39.849   4.718
38190W        W 3670  32.460  23.043  11.466
38191W        W 3671  28.053  40.917   1.250
38192W        W 3672  11.642  37.883   3.842
38193W        W 3673   2.942  22.134  14.987
38194W        W 3674  34.495  43.917   4.183
38195W        W 3675  34.040  36.059   0.747
38196W        W 3676  30.129   9.373   1.406
38197W        W 3677   3.327  34.900   0.942
38198W        W 3678  23.495  44.427  14.505
38199W        W 3679  19.599  13.241  12.912
38200W        W 3680  19.157  42.508   4.212
38201W        W 3681  13.732  33.510  14.505
38202W        W 3682   5.202  31.545   0.946
38203W        W 3683  17.207   0.351  12.960
38204W        W 3684  41.514  14.301   0.884
38205W        W 3685  13.140  23.130   0.324
38206W        W 3686  35.086   0.491  11.466
38207W        W 3687  36.958  39.487  13.328
38208W        W 3688  23.011   3.830  10.429
38209W        W 3689  35.530  25.617  14.354
38210W        W 3690   7.278  39.851   4.644
38211W        W 3691   0.289  19.186  11.452
38212W        W 3692  18.642  32.506  11.990
38213W        W 3693  34.427   3.258  14.508
38214W        W 3694  10.802  43.336  13.023
38215W        W 3695  10.841  25.548   1.419
38216W        W 3696   9.329  21.037  10.599
38217W        W 3697  34.075  18.622  13.466
38218W        W 3698   3.951  14.732   1.388
38219W        W 3699  40.456  10.319   0.890
38220W        W 3700  37.067  32.042  13.974
38221W        W 3701  33.009  35.576   3.258
38222W        W 3702  21.236   4.921  11.465
38223W        W 3703   5.747  44.423  12.384
38224W        W 3704   6.273  28.972  11.404
38225W        W 3705  11.675  21.642  13.434
38226W        W 3706   9.301  12.169   0.868
38227W        W 3707  44.260   8.760   1.872
38228W        W 3708  36.885  36.935   3.223
38229W        W 3709   4.910  10.205   1.737
38230W        W 3710  44.307   0.809   5.249
38231W        W 3711  35.601  35.917   3.634
38232W        W 3712  40.028  27.178  10.892
38233W        W 3713  42.523  15.325  14.768
38234W        W 3714   0.744  43.354  13.444
38235W        W 3715  33.398  32.408   2.779
38236W        W 3716  28.664  19.600   5.316
38237W        W 3717   6.878   2.259   1.430
38238W        W 3718  38.878   5.761   1.838
38239W        W 3719   0.366  32.093   3.344
38240W        W 3720  15.664  43.860  11.055
38241W        W 3721  22.153   0.947  12.069
38242W        W 3722   1.799   4.322  12.950
38243W        W 3723  14.615  12.150   2.274
38244W        W 3724  25.158  42.919  10.951
38245W        W 3725   3.788  28.130   1.876
38246W        W 3726   6.318  15.140  14.856
38247W        W 3727  37.020  27.657  12.080
38248W        W 3728  13.340  13.625   5.308
38249W        W 3729  14.319  40.544  13.969
38250W        W 3730  18.584  22.555  12.889
38251W        W 3731  28.569  22.656  14.358
38252W        W 3732   2.859  35.891   0.747
38253W        W 3733  37.022  39.824  13.313
38254W        W 3734  41.532  11.716   2.292
38255W        W 3735   5.200  13.764  10.465
38256W        W 3736  17.735  38.855   4.290
38257W        W 3737  30.449  21.091  12.889
38258W        W 3738  35.059   9.840   2.790
38259W        W 3739  36.413   4.847  13.887
38260W        W 3740  35.549  29.151  13.449
38261W        W 3741  24.724  20.589  10.519
38262W        W 3742   8.244   3.841  10.943
38263W        W 3743  13.717  36.937  10.511
38264W        W 3744  15.614  16.650  10.611
38265W        W 3745  12.775  36.422   4.820
38266W        W 3746  19.044  35.025  11.962
38267W        W 3747  16.793  30.434   2.805
38268W        W 3748  39.944  37.028  13.887
38269W        W 3749   6.856  33.075  10.633
38270W        W 3750  11.174  29.973  13.882
38271W        W 3751   6.289   8.698   3.758
38272W        W 3752   8.727  11.313   3.768
38273W        W 3753  32.055  24.185   4.219
38274W        W 3754   5.367  33.561  14.992
38275W        W 3755  11.245  44.342  14.475
38276W        W 3756   2.896  38.995  10.958
38277W        W 3757   0.921   4.274   0.819
38278W        W 3758   8.878  25.610  10.636
38279W        W 3759   9.389  40.517   2.727
38280W        W 3760  15.244  20.074   3.308
38281W        W 3761  26.146  11.157   0.442
38282W        W 3762  20.587  14.121  13.420
38283W        W 3763  32.559  40.421   0.775
38284W        W 3764  17.557   0.460  10.634
38285W        W 3765  19.580   6.902  10.624
38286W        W 3766  37.875  11.310  13.980
38287W        W 3767  22.690   2.781   3.221
38288W        W 3768  18.173  23.040  11.594
38289W        W 3769  44.008  39.840  14.006
38290W        W 3770  33.571   5.783  11.029
38291W        W 3771   8.782  34.900   4.195
38292W        W 3772  30.089  21.031   0.361
38293W        W 3773  36.015  16.249  14.503
38294W        W 3774   1.404  32.465   0.867
38295W        W 3775  34.580  38.023  14.504
38296W        W 3776  34.897   1.841   1.698
38297W        W 3777  24.139  29.978   3.300
38298W        W 3778   2.936  11.247   4.609
38299W        W 3779  38.843  16.749  10.909
38300W        W 3780  17.092   4.323  14.366
38301W        W 3781  27.452  34.455  14.286
38302W        W 3782   5.241  17.204   3.189
38303W        W 3783  13.659  39.416  11.378
38304W        W 3784  16.723  23.110   0.263
38305W        W 3785  43.392  19.683   0.802
38306W        W 3786  10.817  33.945   4.276
38307W        W 3787  26.031   9.795  14.366
38308W        W 3788  19.178  42.796  14.868
38309W        W 3789  38.875  32.914  13.511
38310W        W 3790   4.862  40.932  12.568
38311W        W 3791  21.631   5.211  14.987
38312W        W 3792   2.233  33.492   0.418
38313W        W 3793  19.150  37.848   2.832
38314W        W 3794  37.415  25.469  14.490
38315W        W 3795  24.626  13.129   2.830
38316W        W 3796  15.176   5.279   4.118
38317W        W 3797  29.934  44.356   3.833
38318W        W 3798  44.837  12.329  10.465
38319W        W 3799  16.093   4.323  13.534
38320W        W 3800  16.272  19.104   3.236
38321W        W 3801  29.558   0.487   3.808
38322W        W 3802  12.664  14.769   3.151
38323W        W 3803  42.818  30.424  13.471
38324W        W 3804  27.573  29.945   4.726
38325W        W 3805  11.807  15.649   3.322
38326W        W 3806  10.738  43.459   1.442
38327W        W 3807  31.570   3.798   2.356
38328W        W 3808  44.349  20.563   3.644
38329W        W 3809  15.115   4.906   1.336
38330W        W 3810  26.641  38.485  11.537
38331W        W 3811   0.421  16.196  12.917
38332W        W 3812  35.979  44.468  11.070
38333W        W 3813  39.023  19.083   0.871
38334W        W 3814  12.308  42.381   2.356
38335W        W 3815  16.200   2.910   1.876
38336W        W 3816   0.419  18.750  12.038
38337W        W 3817  13.697  16.619  11.589
38338W        W 3818  41.027  11.695  10.998
38339W        W 3819   9.394   0.886   4.604
38340W        W 3820  29.592   2.261   2.321
38341W        W 3821  20.603  16.299   0.390
38342W        W 3822  30.529  38.002   0.360
38343W        W 3823  23.497  42.402  14.341
38344W        W 3824   3.943  35.074   2.763
38345W        W 3825  35.511   6.268  10.448
38346W        W 3826  43.470  39.423   2.875
38347W        W 3827  31.131  37.861  10.639
38348W        W 3828  22.706  34.539   3.672
38349W        W 3829  35.068  36.586   4.294
38350W        W 3830  25.601  27.168   3.159
38351W        W 3831  29.458  13.221  10.427
38352W        W 3832  44.296  23.231  13.945
38353W        W 3833  29.157  35.949   3.704
38354W        W 3834   5.277  11.811   1.789
38355W        W 3835  26.094  11.789   1.729
38356W        W 3836  17.163  17.762  11.612
38357W        W 3837  44.999   6.840  11.408
38358W        W 3838  37.921  27.987  10.141
38359W        W 3839   9.823  31.525   1.933
38360W        W 3840   9.844  37.951  14.875
38361W        W 3841  10.310  44.412   3.694
38362W        W 3842  26.490  42.912  14.813
38363W        W 3843  33.035  22.092  10.454
38364W        W 3844   1.821  35.067  14.875
38365W        W 3845   3.345  31.484   0.782
38366W        W 3846  25.613  22.101   2.185
38367W        W 3847  39.809  43.840   1.410
38368W        W 3848  43.905  20.067   4.265
38369W        W 3849  40.909  30.041   3.274
38370W        W 3850  29.098  18.169  12.995
38371W        W 3851  26.204  40.404  11.123
38372W        W 3852  35.031  28.171  14.416
38373W        W 3853  42.942  11.656   1.369
38374W        W 3854  39.316  12.349   3.762
38375W        W 3855  41.359  11.188  14.292
38376W        W 3856  12.766  12.853  12.996
38377W        W 3857  35.899  34.010  13.500
38378W        W 3858  13.348  21.156   3.364
38379W        W 3859  10.303  43.960  14.764
38380W        W 3860  10.189  33.887   4.343
38381W        W 3861  20.116  31.642  14.385
38382W        W 3862   4.808  22.248  10.606
38383W        W 3863  41.402   8.831  12.355
38384W        W 3864   3.367  24.039  11.968
38385W        W 3865  33.542  33.546  12.855
38386W        W 3866  22.033  43.852   2.329
38387W        W 3867   8.297   4.768  14.837
38388W        W 3868  11.637  22.725   0.831
38389W        W 3869  40.328   7.252  13.499
38390W        W 3870  17.767  15.230  11.513
38391W        W 3871   2.348  36.540  11.953
38392W        W 3872  25.202  31.017  11.061
38393W        W 3873  29.434   0.264  13.474
38394W        W 3874  39.960  26.617  14.447
38395W        W 3875  34.921  39.001  13.933
38396W        W 3876  27.110  10.745   4.799
38397W        W 3877  17.165  19.621  10.536
38398W        W 3878   9.259   0.816  14.430
38399W        W 3879  22.137   5.695   3.285
38400W        W 3880  37.904  25.539   3.648
38401W        W 3881  10.325  22.251   4.161
38402W        W 3882  21.129  27.484   0.425
38403W        W 3883  13.175  40.375  14.332
38404W        W 3884  42.798   6.214   0.481
38405W        W 3885  13.718   8.215   4.316
38406W        W 3886   1.959  40.468   3.746
38407W        W 3887  30.920  40.328  14.792
38408W        W 3888  13.258   3.809   0.304
38409W        W 3889  11.346   9.261   4.616
38410W        W 3890  37.072  43.994  13.989
38411W        W 3891   2.298   9.270  13.479
38412W        W 3892  38.940  21.203   2.663
38413W        W 3893  40.033   1.274   3.768
38414W        W 3894  38.379  10.804   3.762
38415W        W 3895  29.504   9.273  11.524
38416W        W 3896  14.638  28.064   1.371
38417W        W 3897   8.891  21.098   0.836
38418W        W 3898  41.919  29.592   9.994
38419W        W 3899  26.686  35.984  12.885
38420W        W 3900   1.355  23.695   3.685
38421W        W 3901  12.152  26.519  12.079
38422W        W 3902  24.190  40.992  13.860
38423W        W 3903   6.277  33.925  12.514
38424W        W 3904   2.416  44.406   3.665
38425W        W 3905  34.911   5.845   1.325
38426W        W 3906  38.046  11.215   0.309
38427W        W 3907  11.798  24.539  14.785
38428W        W 3908   9.824  24.193  12.406
38429W        W 3909  36.373  26.021   3.646
38430W        W 3910  34.575  14.304  14.841
38431W        W 3911  14.608  19.190   0.737
38432W        W 3912  34.087  42.417   0.769
38433W        W 3913  11.865  34.379  13.021
38434W        W 3914   7.227   6.267  13.845
38435W        W 3915   4.873  18.235   5.081
38436W        W 3916  21.527   7.171  13.343
38437W        W 3917   7.294  15.615  14.808
38438W        W 3918  36.565  27.008   2.323
38439W        W 3919  42.464  15.242   0.767
38440W        W 3920  30.467  42.404  10.944
38441W        W 3921  18.603  35.942  11.410
38442W        W 3922  24.608  16.200  13.458
38443W        W 3923  33.387   0.458  11.567
38444W        W 3924  26.090  23.072   1.413
38445W        W 3925  17.215  34.469  14.345
38446W        W 3926  15.210   5.287  10.407
38447W        W 3927  10.186  36.920   2.673
38448W        W 3928  19.639   5.285   1.261
38449W        W 3929   6.224  41.796  11.865
38450W        W 3930  36.554  41.319   4.287
38451W        W 3931   6.206  11.276   4.124
38452W        W 3932  27.471   8.287   3.250
38453W        W 3933  33.576   7.260   2.717
38454W        W 3934   7.341  18.093  14.929
38455W        W 3935  15.605  42.792  12.421
38456W        W 3936  24.579  24.568  11.018
38457W        W 3937   9.245  14.706  12.070
38458W        W 3938   2.816  16.291   2.213
38459W        W 3939  41.426  14.645   2.262
38460W        W 3940   3.413  35.109  11.985
38461W        W 3941  33.500  10.825  12.573
38462W        W 3942  10.215  24.093   2.839
38463W        W 3943  19.175  21.622   2.791
38464W        W 3944   3.375  23.093  13.412
38465W        W 3945  26.200  44.398   1.336
38466W        W 3946  41.801  16.312  14.893
38467W        W 3947  28.932  41.482  13.023
38468W        W 3948   4.852  16.612  10.008
38469W        W 3949  14.805  19.533  11.585
38470W        W 3950   7.745  35.596  14.357
38471W        W 3951   3.871  10.634  12.345
38472W        W 3952  43.455   9.834  11.425
38473W        W 3953  41.498  29.464  12.899
38474W        W 3954  31.547   0.425  14.967
38475W        W 3955  28.164  24.655  11.547
38476W        W 3956  32.609   1.446   0.794
38477W        W 3957  33.590  42.313  10.545
38478W        W 3958  23.570  21.572  14.414
38479W        W 3959  29.634  18.647  12.045
38480W        W 3960   7.290  32.492  13.391
38481W        W 3961   2.833  31.640   4.802
38482W        W 3962   1.824   0.866   1.928
38483W        W 3963  16.308  41.524  12.086
38484W        W 3964  30.502  26.572   1.718
38485W        W 3965  10.261  43.350  11.378
38486W        W 3966   0.350  19.663  13.526
38487W        W 3967   6.182  25.966  14.003
38488W        W 3968   6.216   2.357  13.853
38489W        W 3969  35.574   1.405  11.994
38490W        W 3970  27.091  25.601  11.597
38491W        W 3971  24.080  32.044   3.195
38492W        W 3972  42.407  30.462   4.619
38493W        W 3973  12.809  14.227  11.950
38494W        W 3974  33.588  18.614   0.372
38495W        W 3975  39.939   8.374   1.880
38496W        W 3976   9.285  20.144  14.448
38497W        W 3977  37.362  33.564  14.394
38498W        W 3978   2.793  44.292   1.293
38499W        W 3979  42.804  22.220  14.877
38500W        W 3980  30.958  44.321  14.296
38501W        W 3981  19.562  24.528  10.416
38502W        W 3982   4.721   3.447   4.258
38503W        W 3983  17.138   1.450   2.255
38504W        W 3984  38.549  33.406  12.950
38505W        W 3985  26.485   0.846  12.536
38506W        W 3986  28.626  21.169  14.422
38507W        W 3987  40.377  27.607   3.231
38508W        W 3988  23.640  11.228  13.501
38509W        W 3989   9.153  25.083  12.972
38510W        W 3990  30.108   9.330   4.651
38511W        W 3991  43.871   4.874  12.916
38512W        W 3992  26.131   2.270   0.484
38513W        W 3993   1.274   2.441   3.350
38514W        W 3994  23.502  28.047  11.943
38515W        W 3995  35.451  37.557  14.808
38516W        W 3996  19.661  11.717   2.860
38517W        W 3997  31.493   6.765   2.749
38518W        W 3998  17.108   9.190   4.676
38519W        W 3999   0.437  19.538   1.227
38520W        W 4000   7.690   7.822   3.380
38521W        W 4001  35.958  41.346   4.627
38522W        W 4002  31.897  15.132  12.070
38523W        W 4003  41.864  10.183   4.754
38524W        W 4004  20.558   0.301   1.430
38525W        W 4005  18.289  35.561   4.763
38526W        W 4006  40.418  18.704   3.838
38527W        W 4007  15.225   8.796  12.457
38528W        W 4008  28.097  35.947  10.932
38529W        W 4009  12.359  16.759   2.229
38530W        W 4010   1.281  27.520  12.035
38531W        W 4011  31.593   5.283  13.886
38532W        W 4012   9.298   9.233  12.911
38533W        W 4013   0.747   6.270  13.806
38534W        W 4014  22.069   3.313   3.218
38535W        W 4015   0.822   3.794  11.098
38536W        W 4016   9.839   5.422   0.741
38537W        W 4017  20.727  19.240   1.277
38538W        W 4018  35.098  38.981   5.236
38539W        W 4019  42.359  42.522   1.288
38540W        W 4020  10.666  36.030  10.417
38541W        W 4021  24.228   5.718   9.935
38542W        W 4022  26.476   1.934  12.840
38543W        W 4023   0.830  11.156  13.939
38544W        W 4024  17.113   9.728  11.591
38545W        W 4025  20.209  21.727  14.414
38546W        W 4026  14.649  23.108  10.588
38547W        W 4027  18.710  12.230  13.442
38548W        W 4028  39.492   1.427   0.242
38549W        W 4029  30.992  31.107  10.969
38550W        W 4030   2.288  28.988  12.461
38551W        W 4031  38.543  42.376  13.322
38552W        W 4032   9.316  18.589   3.383
38553W        W 4033  32.032  22.043  14.276
38554W        W 4034  23.594  25.478  10.998
38555W        W 4035  15.690  23.585   0.932
38556W        W 4036  17.611  20.150  13.007
38557W        W 4037  10.345  41.354   2.183
38558W        W 4038  26.589  32.407  11.073
38559W        W 4039  14.226   1.844  10.601
38560W        W 4040  44.395  15.196  14.912
38561W        W 4041   8.762  17.697   3.247
38562W        W 4042  36.077  37.503  11.390
38563W        W 4043  17.192   9.185   0.407
38564W        W 4044  18.600  21.238  12.461
38565W        W 4045  35.375   3.219  11.972
38566W        W 4046  28.932  40.461  13.503
38567W        W 4047  36.985   7.369  14.453
38568W        W 4048  25.552  16.205   4.835
38569W        W 4049  32.042   2.747  13.475
38570W        W 4050   4.349  21.042  13.993
38571W        W 4051  10.173  40.895   4.791
38572W        W 4052  35.434  15.814   2.724
38573W        W 4053   8.781   1.297  12.402
38574W        W 4054   7.378  14.802   1.449
38575W        W 4055  40.899  27.950   2.695
38576W        W 4056  15.274  10.865   4.676
38577W        W 4057  38.946  12.197   3.277
38578W        W 4058  20.628  30.605  12.083
38579W        W 4059  10.853   8.186  14.888
38580W        W 4060  33.979  37.386   1.221
38581W        W 4061  43.454  39.492  14.372
38582W        W 4062  28.532  23.082  11.916
38583W        W 4063  17.732  24.055  14.840
38584W        W 4064  39.371  30.557  13.375
38585W        W 4065  33.550  15.104  10.594
38586W        W 4066  15.781   5.412  14.024
38587W        W 4067   2.460  17.088   4.292
38588W        W 4068  20.691  21.099   0.895
38589W        W 4069   3.775  10.316  14.279
38590W        W 4070  30.472  37.050  14.978
38591W        W 4071   5.241  43.890   0.911
38592W        W 4072   3.292  25.207  13.936
38593W        W 4073  30.920  19.664  10.490
38594W        W 4074  17.190  40.984  13.988
38595W        W 4075  34.002  20.740  14.995
38596W        W 4076  43.871  41.514  13.951
38597W        W 4077   5.415  23.036   3.221
38598W        W 4078  14.156  26.698   3.220
38599W        W 4079  14.741   3.268   3.306
38600W        W 4080   5.216  42.026  12.909
38601W        W 4081  38.489  28.443   0.773
38602W        W 4082  44.345  16.670  12.852
38603W        W 4083  19.076  29.128  12.067
38604W        W 4084   8.705  42.497   2.414
38605W        W 4085  15.100  36.083  14.335
38606W        W 4086   3.724  35.503   2.789
38607W        W 4087  40.365   3.234  14.477
38608W        W 4088  44.881   9.795  10.413
38609W        W 4089  40.023   9.752   0.300
38610W        W 4090  36.956   0.314   2.372
38611W        W 4091  33.073  21.033  13.940
38612W        W 4092   2.346   2.357   3.643
38613W        W 4093  27.139  12.225   0.813
38614W        W 4094  16.638  34.888   3.244
38615W        W 4095  41.027   7.741   1.214
38616W        W 4096  12.308  26.136   0.866
38617W        W 4097  20.161  11.322  12.865
38618W        W 4098   7.215  27.651   0.274
38619W        W 4099  44.297  33.429   3.794
38620W        W 4100  16.620   6.708   2.388
38621W        W 4101  25.964  29.474   3.850
38622W        W 4102  37.864  38.437  14.868
38623W        W 4103  18.760  14.701  10.450
38624W        W 4104  26.191  10.643   4.600
38625W        W 4105  32.953  13.180   1.746
38626W        W 4106  32.436  13.268  11.869
38627W        W 4107  24.170  24.077  11.877
38628W        W 4108  21.525  21.158  11.912
38629W        W 4109   2.468  43.281  10.540
38630W        W 4110   5.692  36.571  14.287
38631W        W 4111  10.878  30.560  12.942
38632W        W 4112  44.948   5.315   2.679
38633W        W 4113  24.487  40.962  14.896
38634W        W 4114  25.152  33.587   0.763
38635W        W 4115  42.344  44.498  13.973
38636W        W 4116  36.078  24.629  11.017
38637W        W 4117  27.997  39.343   1.260
38638W        W 4118  13.655  18.150  11.574
38639W        W 4119  37.490  25.041   1.771
38640W        W 4120  32.022   2.946   2.892
38641W        W 4121  38.345   4.868   2.897
38642W        W 4122  41.421  38.975  11.404
38643W        W 4123  38.332  14.260  13.055
38644W        W 4124  15.212  28.640   4.123
38645W        W 4125  32.978  39.528   0.776
38646W        W 4126  27.542  34.372  12.855
38647W        W 4127  27.094   2.835  14.477
38648W        W 4128  18.122  31.023  10.516
38649W        W 4129  13.812  44.350   4.324
38650W        W 4130  24.588  36.971   4.244
38651W        W 4131   9.222  28.642   1.892
38652W        W 4132  31.623  21.703  13.872
38653W        W 4133  14.746  42.838   4.322
38654W        W 4134  32.975  18.727  14.423
38655W        W 4135   0.948  29.637  12.898
38656W        W 4136  40.846  25.486   3.861
38657W        W 4137   4.282  39.001   1.909
38658W        W 4138  20.092   5.869   4.753
38659W        W 4139   4.248  17.160  11.996
38660W        W 4140  15.608  30.452  14.492
38661W        W 4141  12.213  40.884   3.220
38662W        W 4142   8.697  33.501   5.307
38663W        W 4143   6.219  42.506  11.527
38664W        W 4144   6.900  29.536  10.562
38665W        W 4145  40.050  38.459  13.932
38666W        W 4146   1.404  26.505   3.194
38667W        W 4147   8.179   8.160   0.947
38668W        W 4148  24.207  19.741  14.953
38669W        W 4149  36.416  39.380  13.446
38670W        W 4150  34.094  10.275  14.344
38671W        W 4151  41.443  40.317  14.781
38672W        W 4152  38.482  23.671  13.919
38673W        W 4153  17.218  22.225  14.010
38674W        W 4154   4.293  37.063  12.085
38675W        W 4155  40.941  26.543  13.047
38676W        W 4156  23.511   4.705   2.837
38677W        W 4157  28.124  43.512   1.301
38678W        W 4158  39.336  16.684   1.722
38679W        W 4159  42.302  19.210  14.372
38680W        W 4160  27.484  13.775  12.369
38681W        W 4161  22.206   9.854   0.854
38682W        W 4162  34.435  18.767   1.381
38683W        W 4163  38.934  10.852  13.518
38684W        W 4164  22.655  37.853  13.003
38685W        W 4165  22.548  30.104   1.397
38686W        W 4166  44.843  15.103  12.045
38687W        W 4167  39.367  42.458   3.309
38688W        W 4168  15.192  41.907  13.861
38689W        W 4169  30.041  16.590  12.975
38690W        W 4170  10.289   3.264  13.825
38691W        W 4171  40.966  38.938   0.441
38692W        W 4172   5.861  36.539  10.560
38693W        W 4173  33.558  21.583  11.935
38694W        W 4174  20.590  28.940  11.384
38695W        W 4175  35.445  35.089   0.852
38696W        W 4176  34.067  39.455  14.903
38697W        W 4177  43.867  34.980   1.438
38698W        W 4178  12.203  29.027  13.876
38699W        W 4179  17.711  31.616  13.316
38700W        W 4180  22.562  42.304  14.813
38701W        W 4181  41.531  33.058   2.733
38702W        W 4182  43.419  41.536   3.834
38703W        W 4183  17.282  41.986   4.610
38704W        W 4184   6.812   4.265  13.463
38705W        W 4185  38.535   0.247   0.280
38706W        W 4186  32.624   7.825  13.360
38707W        W 4187  10.174  43.441   0.403
38708W        W 4188  22.139  16.188   1.865
38709W        W 4189  13.628  28.530  12.571
38710W        W 4190   1.431  39.442  12.576
38711W        W 4191  42.313   8.403  10.989
38712W        W 4192  18.597   6.295   1.250
38713W        W 4193  12.646  18.789   2.730
38714W        W 4194  34.054  26.188  13.410
38715W        W 4195   4.346  10.152  10.906
38716W        W 4196   2.441  30.418   5.203
38717W        W 4197  37.571  23.705  13.880
38718W        W 4198  13.161   3.350   4.231
38719W        W 4199  29.957  41.044  12.578
38720W        W 4200  16.318  27.502  14.857
38721W        W 4201  20.596  13.161  10.928
38722W        W 4202  39.868  22.565  11.856
38723W        W 4203  36.937  17.798   3.373
38724W        W 4204  17.587  27.511   3.249
38725W        W 4205   8.297  42.354   0.375
38726W        W 4206  37.449  10.769   4.661
38727W        W 4207  27.956   1.803   0.859
38728W        W 4208  44.464  11.645  10.414
38729W        W 4209  21.700  29.498  13.010
38730W        W 4210  17.119  44.844   3.308
38731W        W 4211  33.930  34.507  14.325
38732W        W 4212  16.631  25.576   3.167
38733W        W 4213  29.160  34.095   0.821
38734W        W 4214   2.427  24.019  14.366
38735W        W 4215  27.113  31.144  12.844
38736W        W 4216  14.146  41.352  11.526
38737W        W 4217  34.400  19.047  12.834
38738W        W 4218  44.353  43.934   3.750
38739W        W 4219  20.724   0.294   3.707
38740W        W 4220  22.129  30.604   0.277
38741W        W 4221  41.502  34.472  11.997
38742W        W 4222  22.727   2.903   4.834
38743W        W 4223  35.479  32.612  12.400
38744W        W 4224   0.408  19.110   1.338
38745W        W 4225  15.149   9.322   3.829
38746W        W 4226  32.993  12.766  12.358
38747W        W 4227  16.082   1.813   2.317
38748W        W 4228  20.579  10.693  11.950
38749W        W 4229   5.336  34.465   2.793
38750W        W 4230  28.666  18.635  13.918
38751W        W 4231  22.639   9.725  13.919
38752W        W 4232  32.524   2.789  12.856
38753W        W 4233  44.449  21.137  10.929
38754W        W 4234  25.157  32.125   3.369
38755W        W 4235  30.630  39.852  13.362
38756W        W 4236   8.849   0.944  13.332
38757W        W 4237  44.333   8.887  10.959
38758W        W 4238  35.443  35.947  13.426
38759W        W 4239  32.978  21.249   2.298
38760W        W 4240  40.471   6.733   2.385
38761W        W 4241  28.615  38.904   3.235
38762W        W 4242   6.905  28.585  10.469
38763W        W 4243   9.246   4.271  11.412
38764W        W 4244  37.039   3.853  10.599
38765W        W 4245  21.608  15.802  11.511
38766W        W 4246  39.936  34.471  12.418
38767W        W 4247  18.548  38.074  13.417
38768W        W 4248  18.244   2.823  13.864
38769W        W 4249  40.957  10.655   2.697
38770W        W 4250  33.025  31.010  12.507
38771W        W 4251   0.877  22.240   4.764
38772W        W 4252  20.071  20.717  12.922
38773W        W 4253  30.084  36.921   0.392
38774W        W 4254  44.292  40.482   4.314
38775W        W 4255  26.026  12.638   4.297
38776W        W 4256  37.067  22.142   1.733
38777W        W 4257  29.105  31.998  10.954
38778W        W 4258  16.766   6.275  14.829
38779W        W 4259  26.203   2.389   2.289
38780W        W 4260  15.161  33.901   1.385
38781W        W 4261  22.647  21.216  14.492
38782W        W 4262  34.497  11.691   2.699
38783W        W 4263  12.812  17.660   3.844
38784W        W 4264   0.330  30.959   2.228
38785W        W 4265   5.879   4.789   3.253
38786W        W 4266  30.610  11.347   3.257
38787W        W 4267  34.413  23.132   1.293
38788W        W 4268  40.314  41.473  14.365
38789W        W 4269  38.514   8.823   2.388
38790W        W 4270   1.814  43.867  12.005
38791W        W 4271  29.050  35.071  14.371
38792W        W 4272   2.409  41.922  14.796
38793W        W 4273  39.965  25.625  11.554
38794W        W 4274  23.503  36.083   0.470
38795W        W 4275  41.349   7.338  11.446
38796W        W 4276  36.880   8.288  10.517
38797W        W 4277  40.388   1.447   1.766
38798W        W 4278  33.079  14.679  14.862
38799W        W 4279  44.355  44.501   1.300
38800W        W 4280  29.924  38.515   5.118
38801W        W 4281  44.930   9.151  12.452
38802W        W 4282  26.693  29.043  11.913
38803W        W 4283  44.865  17.101  12.407
38804W        W 4284  19.755  25.965   0.812
38805W        W 4285  12.651  17.641   1.429
38806W        W 4286  25.026  17.257  11.435
38807W        W 4287  10.871   8.386  14.023
38808W        W 4288   8.190   2.273   0.838
38809W        W 4289  12.747  44.818   4.183
38810W        W 4290   0.450  38.053  11.918
38811W        W 4291  44.375  32.531  10.134
38812W        W 4292  38.034  22.529   2.188
38813W        W 4293  22.542  41.838  10.539
38814W        W 4294   7.259  21.191   0.320
38815W        W 4295  15.126   4.264   2.859
38816W        W 4296  26.530  42.807  10.439
38817W        W 4297   4.431  25.661  11.015
38818W        W 4298  39.457  30.909  14.847
38819W        W 4299  35.961  15.152  14.430
38820W        W 4300   0.429  11.661   0.356
38821W        W 4301  40.313  36.427   4.743
38822W        W 4302  13.128  13.760   4.176
38823W        W 4303   4.294  38.430  12.870
38824W        W 4304  14.298  37.910  14.791
38825W        W 4305  36.377  15.126  13.465
38826W        W 4306  35.943  34.962   3.762
38827W        W 4307  18.724  31.024   3.733
38828W        W 4308  34.379  23.005  11.437
38829W        W 4309  28.446   8.321  14.389
38830W        W 4310  35.022   3.783  10.477
38831W        W 4311   0.968  11.744  10.075
38832W        W 4312  10.154  36.089   2.668
38833W        W 4313  13.260  37.460  14.439
38834W        W 4314  11.676   7.234  10.605
38835W        W 4315  25.650   9.317   3.163
38836W        W 4316  28.547  44.311   1.263
38837W        W 4317  29.598  40.006   3.660
38838W        W 4318  34.409  35.394   3.714
38839W        W 4319  36.063  16.756  12.987
38840W        W 4320  23.058  42.927   0.788
38841W        W 4321  33.452  25.056   4.318
38842W        W 4322  29.044  35.547   1.427
38843W        W 4323  40.508  23.059  14.292
38844W        W 4324  27.947   8.745  10.907
38845W        W 4325   4.250  24.493   0.849
38846W        W 4326  22.530  23.570  13.052
38847W        W 4327  23.610   5.857  11.936
38848W        W 4328  12.617   7.847  11.392
38849W        W 4329  39.048   7.673   1.448
38850W        W 4330  12.654  39.553   2.415
38851W        W 4331   6.310  44.969  11.008
38852W        W 4332   5.371  21.198   3.216
38853W        W 4333  24.554  14.132   0.926
38854W        W 4334  14.259  43.775  14.020
38855W        W 4335  33.926  32.899  14.936
38856W        W 4336  39.501  13.229  13.332
38857W        W 4337  19.093   9.704  10.899
38858W        W 4338  22.233  28.142  12.467
38859W        W 4339  22.626   5.368   4.648
38860W        W 4340   8.309  36.872   3.633
38861W        W 4341  20.191   2.810  12.457
38862W        W 4342  39.963  14.594  14.506
38863W        W 4343  33.419  12.214   2.285
38864W        W 4344   0.769   6.681  14.027
38865W        W 4345  29.622  23.152   3.686
38866W        W 4346  33.514  29.605  13.020
38867W        W 4347   8.318  26.107  12.435
38868W        W 4348  42.016  13.652   3.640
38869W        W 4349  28.667  30.587   1.793
38870W        W 4350  39.887  11.370   3.731
38871W        W 4351  24.134  12.312   2.688
38872W        W 4352  20.631  40.368   1.226
38873W        W 4353  39.059  41.514  10.091
38874W        W 4354   5.778   7.757   2.704
38875W        W 4355  26.004  10.841  10.527
38876W        W 4356  37.833  23.027   3.703
38877W        W 4357  17.698  39.319  13.061
38878W        W 4358  24.209   9.746  10.622
38879W        W 4359  13.838  24.609   4.187
38880W        W 4360  39.921  38.479  11.428
38881W        W 4361  13.347   1.854  12.573
38882W        W 4362  37.445   6.403   3.707
38883W        W 4363  23.198   6.823   4.121
38884W        W 4364  29.005  26.550  14.353
38885W        W 4365  19.744   8.868  10.551
38886W        W 4366  21.192   0.785  11.996
38887W        W 4367   8.891   0.363   0.836
38888W        W 4368  11.165  16.200  13.802
38889W        W 4369  34.524  14.800   0.398
38890W        W 4370   4.408  29.087   2.685
38891W        W 4371   2.925  35.567   4.221
38892W        W 4372   3.250   8.781   2.770
38893W        W 4373  29.127  22.626   2.186
38894W        W 4374  41.463  30.961   2.188
38895W        W 4375  28.024  27.622  12.083
38896W        W 4376  31.453  32.105  13.895
38897W        W 4377  11.677  28.471  11.930
38898W        W 4378  20.565  27.505   1.913
38899W        W 4379   3.711  40.046  10.899
38900W        W 4380   4.862   0.976  10.092
38901W        W 4381  33.481  20.750   4.671
38902W        W 4382  34.582   7.883   2.831
38903W        W 4383  17.735   0.390   0.967
38904W        W 4384  18.062   7.734   1.835
38905W        W 4385   7.293  17.630   1.229
38906W        W 4386  12.849   5.912   3.293
38907W        W 4387   6.871  34.546   1.927
38908W        W 4388  16.755  15.698   0.774
38909W        W 4389  42.289   6.320  14.360
38910W        W 4390   7.719   6.394   1.302
38911W        W 4391  25.608  18.289  10.425
38912W        W 4392  10.197   7.679  14.806
38913W        W 4393  16.790  23.108   3.249
38914W        W 4394  34.933  10.279  13.904
38915W        W 4395   0.983  16.282  13.921
38916W        W 4396  10.344  39.545  11.547
38917W        W 4397  24.083  11.295   2.775
38918W        W 4398  13.271  38.461  13.383
38919W        W 4399  35.933  33.403  12.395
38920W        W 4400   8.710  22.012   4.228
38921W        W 4401   3.284  37.958  12.404
38922W        W 4402   6.422  25.217   2.399
38923W        W 4403   8.683  25.478   0.801
38924W        W 4404  17.160  41.981   1.777
38925W        W 4405  26.510  33.614  14.493
38926W        W 4406  17.796  35.029  14.396
38927W        W 4407  44.384  10.847  13.499
38928W        W 4408  17.711  31.993   0.904
38929W        W 4409  42.951  23.621  10.432
38930W        W 4410  34.499  42.970  11.044
38931W        W 4411  17.219  12.302  11.403
38932W        W 4412  30.136   9.722   2.400
38933W        W 4413   0.409  43.865  11.112
38934W        W 4414  36.444  30.620   2.699
38935W        W 4415  12.749  34.584  12.540
38936W        W 4416  24.213  39.062   4.293
38937W        W 4417  44.776   1.440   4.341
38938W        W 4418  13.233  28.564   2.878
38939W        W 4419  42.786  21.017   2.888
38940W        W 4420   8.271  19.059  11.048
38941W        W 4421  35.904  29.974  13.820
38942W        W 4422  30.572   0.881  13.490
38943W        W 4423  32.929  43.404  12.934
38944W        W 4424  16.197   6.253   3.862
38945W        W 4425  14.763  44.894  11.578
38946W        W 4426  31.466  11.222   2.819
38947W        W 4427  13.236  16.148   4.755
38948W        W 4428   7.225  31.479   3.332
38949W        W 4429  29.594  36.935  11.046
38950W        W 4430  30.636   5.718  11.515
38951W        W 4431  19.581   1.452  12.909
38952W        W 4432   4.905  39.366   1.854
38953W        W 4433  36.897  28.038  12.997
38954W        W 4434  22.217  14.645  14.394
38955W        W 4435  29.538  22.601   4.635
38956W        W 4436  34.946  33.412   5.268
38957W        W 4437   7.773  12.221   3.866
38958W        W 4438  16.252  13.819   1.441
38959W        W 4439  22.649  21.746   1.901
38960W        W 4440  27.092  43.450   3.273
38961W        W 4441   0.892  28.484  13.307
38962W        W 4442   9.656  23.578   0.365
38963W        W 4443  39.995  10.771   3.187
38964W        W 4444  37.446  37.002  12.938
38965W        W 4445   9.867  18.676  14.957
38966W        W 4446  26.105   1.470  14.005
38967W        W 4447   6.733  35.593  13.979
38968W        W 4448   0.308  36.865   0.456
38969W        W 4449   5.927   0.385  11.108
38970W        W 4450  17.062   2.406   4.233
38971W        W 4451  42.983  23.728  11.389
38972W        W 4452  30.100   6.769  12.512
38973W        W 4453  27.558  26.563   2.670
38974W        W 4454  22.567  35.929  13.969
38975W        W 4455  40.867  11.863  13.334
38976W        W 4456  35.440  38.432  11.412
38977W        W 4457  30.475  38.435   4.620
38978W        W 4458  14.661  43.401  12.832
38979W        W 4459  34.375  30.558  12.341
38980W        W 4460  22.504  20.735  13.986
38981W        W 4461   5.923   4.209   2.854
38982W        W 4462   2.781  32.443  14.300
38983W        W 4463  34.487  42.995   4.724
38984W        W 4464   0.758  32.112  10.455
38985W        W 4465   3.953  34.035   1.924
38986W        W 4466  15.198  29.657   3.630
38987W        W 4467  20.566  43.874  10.088
38988W        W 4468  29.013  17.296  13.969
38989W        W 4469  15.165  32.561   0.848
38990W        W 4470  13.658   7.693   2.206
38991W        W 4471  43.850  23.128   2.400
38992W        W 4472  22.212  39.858  11.500
38993W        W 4473  28.090   1.378   4.641
38994W        W 4474  39.993  17.115   4.196
38995W        W 4475  36.469  14.166  13.957
38996W        W 4476  29.505   7.275  11.403
38997W        W 4477   6.832  13.825  13.527
38998W        W 4478   1.277  16.727  12.521
38999W        W 4479  25.149  20.582  13.318
39000W        W 4480  33.570  11.767   2.317
39001W        W 4481   0.922  28.459  11.877
39002W        W 4482  36.867  10.831  10.493
39003W        W 4483   9.333   7.867  12.461
39004W        W 4484   5.388  16.288   2.348
39005W        W 4485   8.789  35.935   1.265
39006W        W 4486  15.169   8.396  13.055
39007W        W 4487   3.717   2.304  11.423
39008W        W 4488  12.735  32.989   2.206
39009W        W 4489  41.878  34.485  12.847
39010W        W 4490  12.261  24.172   1.353
39011W        W 4491  37.835   2.411   1.234
39012W        W 4492  22.089  11.260  13.485
39013W        W 4493  26.548  35.074  11.416
39014W        W 4494   0.305  28.935   3.665
39015W        W 4495  39.043  44.003   1.240
39016W        W 4496  11.842  29.962  13.990
39017W        W 4497  10.841  23.226   3.849
39018W        W 4498   8.839  12.797   0.837
39019W        W 4499  34.041  40.848  13.525
39020W        W 4500  22.086  19.202  10.477
39021W        W 4501  34.060  23.154  12.849
39022W        W 4502  26.549  40.493   3.358
39023W        W 4503   4.855  14.717  13.410
39024W        W 4504   6.787  15.194  10.613
39025W        W 4505   1.271  11.275  12.020
39026W        W 4506  25.145   4.735  11.882
39027W        W 4507  43.390  34.377  10.941
39028W        W 4508  34.962  31.093   4.340
39029W        W 4509  29.510  28.999  14.972
39030W        W 4510   0.463   7.697  11.873
39031W        W 4511  29.076  23.151  13.376
39032W        W 4512  33.532  31.121  12.983
39033W        W 4513   9.698  33.489  14.478
39034W        W 4514  44.431   9.318  10.566
39035W        W 4515   6.883  30.059   1.230
39036W        W 4516  35.071  16.760   3.380
39037W        W 4517  21.728  11.641   0.365
39038W        W 4518   6.268  12.610  13.441
39039W        W 4519  13.636   7.734  11.978
39040W        W 4520  17.303  36.462   3.808
39041W        W 4521  41.452  24.071   3.352
39042W        W 4522  25.046  19.696  14.388
39043W        W 4523  25.096  17.743   4.279
39044W        W 4524   6.234  44.265   3.161
39045W        W 4525  36.446  31.005   2.774
39046W        W 4526  42.405  43.323   4.354
39047W        W 4527  25.043  13.610   4.691
39048W        W 4528  15.632  31.102   4.668
39049W        W 4529   8.792   2.857  13.509
39050W        W 4530  12.704  15.746   2.233
39051W        W 4531  40.954  24.540   4.343
39052W        W 4532  38.994  31.020   3.376
39053W        W 4533  33.478  19.768   2.279
39054W        W 4534  17.239  22.123  14.464
39055W        W 4535  27.169   2.354  12.868
39056W        W 4536  10.342  11.133  13.425
39057W        W 4537  19.582  41.962  14.031
39058W        W 4538  25.149  14.136  12.917
39059W        W 4539  35.384  27.608  12.035
39060W        W 4540  19.119  13.838   1.924
39061W        W 4541  13.184  15.097   2.321
39062W        W 4542  24.000   0.462   9.514
39063W        W 4543   4.405  37.851   4.222
39064W        W 4544  24.505  24.013  12.551
39065W        W 4545  17.776  13.612   0.850
39066W        W 4546  33.466  10.712   1.825
39067W        W 4547  37.980  24.201   4.346
39068W        W 4548  33.618  17.624  12.364
39069W        W 4549  40.309  43.356   3.659
39070W        W 4550  29.572  13.239   3.691
39071W        W 4551  10.823   0.383   3.733
39072W        W 4552  10.330  37.976  11.998
39073W        W 4553   3.900   5.370   4.709
39074W        W 4554  44.334  40.803   0.828
39075W        W 4555  16.623  31.592  13.048
39076W        W 4556  24.187   8.856   2.720
39077W        W 4557  41.018   3.889  13.505
39078W        W 4558  29.514   3.894  12.999
39079W        W 4559  31.505  22.740  14.791
39080W        W 4560  31.899  10.874  14.473
39081W        W 4561  10.761  39.042   0.888
39082W        W 4562  19.043  23.083   0.913
39083W        W 4563  34.393  39.827  10.447
39084W        W 4564  41.860  23.153  14.288
39085W        W 4565  28.612   2.822   0.257
39086W        W 4566   5.362  30.446  13.003
39087W        W 4567  37.916  33.467   3.169
39088W        W 4568  14.682  17.646   2.796
39089W        W 4569  11.697  33.063   0.359
39090W        W 4570   2.899  13.793  12.578
39091W        W 4571  32.998  37.943  14.804
39092W        W 4572  14.631   0.959   3.278
39093W        W 4573  13.616   5.912   2.293
39094W        W 4574  25.646  28.503  14.363
39095W        W 4575  37.534   7.323   0.441
39096W        W 4576  11.149  43.508  12.896
39097W        W 4577  17.705  41.892   2.858
39098W        W 4578  33.130   8.210   4.343
39099W        W 4579  26.488  12.266   2.805
39100W        W 4580  31.091  28.468   1.756
39101W        W 4581  17.166  25.010   1.249
39102W        W 4582  13.161  40.896   5.145
39103W        W 4583   5.372   2.739   0.420
39104W        W 4584  11.238   2.870   2.180
39105W        W 4585  16.254   6.217  13.059
39106W        W 4586  44.003  30.913   4.284
39107W        W 4587   4.370  28.666   0.851
39108W        W 4588  14.310  41.974   5.599
39109W        W 4589   2.947   4.358  13.429
39110W        W 4590  32.576  19.672   4.644
39111W        W 4591  33.565   4.797   3.702
39112W        W 4592  14.237  34.865  10.143
39113W        W 4593  10.790  11.703   4.141
39114W        W 4594  41.442  34.957   1.887
39115W        W 4595  16.618  40.386   4.832
39116W        W 4596  40.423  27.015  14.887
39117W        W 4597  22.660  39.945   0.451
39118W        W 4598  33.507  30.466   4.147
39119W        W 4599  23.032   1.410  12.562
39120W        W 4600   1.468  23.019  11.512
39121W        W 4601  36.403   5.308   0.834
39122W        W 4602  41.525  44.991   2.875
39123W        W 4603  26.015  26.199   4.196
39124W        W 4604  27.626  43.438   1.249
39125W        W 4605   4.728  37.993   1.226
39126W        W 4606  42.782  10.295  14.029
39127W        W 4607  43.343  28.168   1.782
39128W        W 4608   1.404  34.979   0.833
39129W        W 4609  26.186  37.909  14.807
39130W        W 4610  26.591  35.410  10.416
39131W        W 4611  20.666   4.295  13.035
39132W        W 4612  13.646  14.119   0.898
39133W        W 4613  35.496   7.911  12.008
39134W        W 4614  44.438  41.362  14.462
39135W        W 4615   0.387  35.372  13.325
39136W        W 4616  15.706   6.222  12.885
39137W        W 4617  39.496   5.700   2.266
39138W        W 4618   5.316  33.502   3.168
39139W        W 4619   1.334   7.835  13.946
39140W        W 4620  32.980   2.300   3.387
39141W        W 4621   4.254  10.661   1.772
39142W        W 4622  35.921  28.467  13.342
39143W        W 4623   5.262   8.244  14.001
39144W        W 4624   0.401  35.894   1.756
39145W        W 4625  17.275   0.886  12.076
39146W        W 4626  13.266  20.668   0.388
39147W        W 4627  27.598   7.274   3.311
39148W        W 4628  30.101  12.770   2.830
39149W        W 4629  31.589  22.553  12.958
39150W        W 4630  44.810  25.119   3.741
39151W        W 4631  15.107   0.781  13.860
39152W        W 4632   0.783  12.828  11.609
39153W        W 4633  39.470  37.070   4.812
39154W        W 4634  20.220   2.893   4.725
39155W        W 4635  32.032  11.233   4.308
39156W        W 4636  28.657   6.695  11.002
39157W        W 4637  30.097  21.558  12.937
39158W        W 4638  22.107   0.314  13.390
39159W        W 4639  37.410  21.519  10.645
39160W        W 4640  39.366   8.885   3.807
39161W        W 4641  14.589  15.265  11.428
39162W        W 4642   7.318   2.461  12.885
39163W        W 4643  30.107  26.113   4.813
39164W        W 4644   2.834  19.553  12.950
39165W        W 4645  38.430  18.143  14.865
39166W        W 4646  21.205  24.581  12.395
39167W        W 4647   5.859  27.544  11.992
39168W        W 4648   8.309  43.018   0.867
39169W        W 4649  40.942  36.376   0.258
39170W        W 4650  14.808  34.593   9.530
39171W        W 4651   0.315  19.256   3.294
39172W        W 4652  33.037   3.425  14.874
39173W        W 4653  37.854   9.173  12.458
39174W        W 4654  44.956  21.707   2.806
39175W        W 4655  38.055  33.991   1.365
39176W        W 4656   6.848  15.304  14.874
39177W        W 4657  23.663  28.623   3.322
39178W        W 4658  23.572  42.283   2.848
39179W        W 4659  23.698  39.060  10.502
39180W        W 4660  34.578  26.588  11.521
39181W        W 4661  30.638  36.476   4.611
39182W        W 4662  29.447  33.435  12.461
39183W        W 4663  42.938   6.376  14.373
39184W        W 4664  34.042  38.982   2.226
39185W        W 4665  31.025  29.148   4.133
39186W        W 4666  28.510  39.550  14.856
39187W        W 4667  23.017  41.938   0.326
39188W        W 4668  32.426   9.365  12.389
39189W        W 4669  28.512   5.343   4.760
39190W        W 4670  16.619  43.997   4.351
39191W        W 4671  39.845  36.432   4.699
39192W        W 4672  24.690  16.661  12.376
39193W        W 4673  34.476  30.442  14.775
39194W        W 4674  41.360  41.411  12.374
39195W        W 4675   6.677  27.943   2.388
39196W        W 4676  13.230  38.847  11.933
39197W        W 4677   2.888  19.258  11.893
39198W        W 4678  24.680  41.886  11.382
39199W        W 4679   2.368  17.586  11.874
39200W        W 4680  14.243  40.040   5.260
39201W        W 4681  39.354   7.872  11.898
39202W        W 4682  36.087  15.740   4.122
39203W        W 4683  15.795  25.160  12.374
39204W        W 4684   6.307  28.660  13.947
39205W        W 4685   1.883  26.992  11.892
39206W        W 4686  43.869  10.635   2.787
39207W        W 4687  28.155  17.698   2.396
39208W        W 4688  19.770  40.995   3.825
39209W        W 4689  35.595   7.403  14.414
39210W        W 4690  39.045  14.108   2.861
39211W        W 4691   9.242  23.578   0.876
39212W        W 4692  31.038  22.544  13.498
39213W        W 4693   5.319   2.798   1.349
39214W        W 4694  40.346  35.049   0.960
39215W        W 4695  15.680  28.094  14.890
39216W        W 4696   8.306  22.574   2.825
39217W        W 4697  28.157  27.446  11.411
39218W        W 4698  17.660  25.005  10.931
39219W        W 4699  25.488  24.705  11.514
39220W        W 4700   1.886  30.950   2.705
39221W        W 4701   9.192  29.057   0.814
39222W        W 4702  35.528  35.475  10.494
39223W        W 4703  17.598  40.375   0.901
39224W        W 4704  20.606   3.754  13.845
39225W        W 4705   3.767  30.915   3.631
39226W        W 4706  27.087  26.522   3.314
39227W        W 4707  15.214   5.295   2.403
39228W        W 4708  43.334  33.071  14.466
39229W        W 4709  11.848   3.286  14.993
39230W        W 4710  20.652  27.154  11.042
39231W        W 4711  28.171  34.373   2.294
39232W        W 4712  22.235  35.952   4.115
39233W        W 4713  21.087  11.821  11.880
39234W        W 4714  24.533  16.120   2.327
39235W        W 4715  35.936  41.000  12.399
39236W        W 4716  31.647  17.779   2.674
39237W        W 4717  10.155  37.539  10.114
39238W        W 4718  41.917  38.453   0.791
39239W        W 4719  13.136  16.672  14.511
39240W        W 4720  42.929  33.567   0.912
39241W        W 4721  22.619  33.535   1.900
39242W        W 4722  37.569  26.542  10.922
39243W        W 4723  33.524   2.747  14.318
39244W        W 4724   1.369  29.104   2.407
39245W        W 4725  13.315  11.341   4.226
39246W        W 4726  13.292   4.300   1.346
39247W        W 4727  11.219  38.946  12.907
39248W        W 4728   2.772  30.014   0.919
39249W        W 4729   9.846  38.953   2.808
39250W        W 4730  14.112  13.761   2.337
39251W        W 4731  43.866   8.783   1.773
39252W        W 4732  37.547  11.278   2.415
39253W        W 4733  16.766  29.010  10.512
39254W        W 4734  25.508  21.612   4.718
39255W        W 4735  19.599  36.903   2.296
39256W        W 4736  26.597  43.870   2.216
39257W        W 4737   7.694  16.738  11.537
39258W        W 4738  23.059  13.656   2.717
39259W        W 4739   0.855  11.730  13.850
39260W        W 4740   2.805  11.633  10.601
39261W        W 4741  28.532  27.491  10.547
39262W        W 4742  23.090  43.912   0.410
39263W        W 4743  33.081  22.159  10.976
39264W        W 4744   4.429   3.254   0.290
39265W        W 4745  15.268  43.863   1.920
39266W        W 4746   7.681  27.974   2.841
39267W        W 4747  26.031  34.407   3.320
39268W        W 4748  22.027   3.229   4.153
39269W        W 4749   5.392   5.747  14.488
39270W        W 4750  17.643  14.814  13.537
39271W        W 4751  29.445  27.573  11.901
39272W        W 4752   5.831  42.791  11.121
39273W        W 4753  35.882   5.334   1.761
39274W        W 4754  19.711  29.048  12.877
39275W        W 4755  28.966  24.139  13.523
39276W        W 4756   6.373  12.798   4.794
39277W        W 4757  25.602  20.194   1.711
39278W        W 4758  30.086  20.647  13.923
39279W        W 4759  11.761  35.484   1.310
39280W        W 4760  16.310  22.127  13.943
39281W        W 4761   3.399  15.709  13.477
39282W        W 4762  14.727   8.835  14.842
39283W        W 4763   4.317   3.353   4.763
39284W        W 4764  12.304  38.519   1.295
39285W        W 4765   8.163  23.701   0.906
39286W        W 4766  33.403  15.579   0.873
39287W        W 4767  36.021   9.150   2.728
39288W        W 4768  32.548   5.300  12.925
39289W        W 4769  33.130  20.126  14.865
39290W        W 4770  43.385  43.852  12.909
39291W        W 4771  30.487  15.749   0.280
39292W        W 4772  43.322  19.094  13.870
39293W        W 4773  15.224  24.563  11.582
39294W        W 4774   5.421   4.780   3.695
39295W        W 4775  44.756  41.412  13.392
39296W        W 4776  11.356  20.144   1.873
39297W        W 4777  14.249  30.129   4.798
39298W        W 4778  11.821   9.699  13.908
39299W        W 4779  20.183  10.230  11.421
39300W        W 4780  26.024  13.694  13.440
39301W        W 4781  17.208  17.061  12.428
39302W        W 4782  37.475  20.708  13.899
39303W        W 4783  17.645   3.301  14.000
39304W        W 4784  42.789  18.559  12.460
39305W        W 4785   6.337  43.877   0.924
39306W        W 4786  27.685  30.993   1.434
39307W        W 4787   5.387  15.262   0.306
39308W        W 4788   1.332  26.107   3.149
39309W        W 4789  29.625  20.619  12.829
39310W        W 4790  41.514   1.423   3.691
39311W        W 4791  34.890  36.022   2.755
39312W        W 4792  27.084  10.380  11.499
39313W        W 4793  44.009   5.359   3.172
39314W        W 4794   0.884  17.105   2.872
39315W        W 4795  36.075  37.470  12.561
39316W        W 4796  28.037  24.601  11.951
39317W        W 4797  23.049  39.323  14.028
39318W        W 4798  10.649  31.041   4.248
39319W        W 4799  29.503  33.511  11.551
39320W        W 4800  39.313  36.593   1.251
39321W        W 4801   4.378   1.837   2.794
39322W        W 4802  21.256  12.806  12.981
39323W        W 4803  23.191   2.226   2.789
39324W        W 4804  42.371  43.009   4.215
39325W        W 4805   6.413   5.262   0.325
39326W        W 4806  12.136   0.971   2.890
39327W        W 4807  16.301  24.035   1.901
39328W        W 4808  26.499   3.844  12.474
39329W        W 4809  41.795  14.226  10.455
39330W        W 4810   5.737   6.224  13.338
39331W        W 4811   5.806  14.642  10.911
39332W        W 4812  17.157   2.772  10.978
39333W        W 4813   6.404  44.842   4.606
39334W        W 4814  17.195   2.416  11.978
39335W        W 4815  11.688  14.180  10.515
39336W        W 4816  31.642  36.936   1.226
39337W        W 4817  42.281  28.979   2.685
39338W        W 4818  12.612  15.250   0.810
39339W        W 4819  30.025  26.475   1.724
39340W        W 4820  17.223   6.408  13.012
39341W        W 4821  35.869  15.642  12.963
39342W        W 4822  27.107  20.587   4.324
39343W        W 4823  42.298  29.015   4.745
39344W        W 4824  14.774  32.915  13.548
39345W        W 4825  11.781   3.224   3.273
39346W        W 4826  34.412  22.566   4.245
39347W        W 4827   9.197  26.131  10.454
39348W        W 4828   8.348  21.225   0.894
39349W        W 4829  25.607  22.728   0.327
39350W        W 4830   6.871  23.204  14.800
39351W        W 4831  43.386  10.238   1.771
39352W        W 4832  30.573  10.306  10.143
39353W        W 4833   6.701  15.188   3.343
39354W        W 4834  29.968   5.691  12.063
39355W        W 4835  26.074   5.767   2.850
39356W        W 4836  27.968  12.797   4.763
39357W        W 4837   1.330   4.722  11.590
39358W        W 4838  43.363  10.802   3.312
39359W        W 4839  30.944  16.080  13.001
39360W        W 4840  33.026  33.965  14.435
39361W        W 4841   9.717  16.289   2.714
39362W        W 4842  43.296   2.412   3.832
39363W        W 4843  34.504   7.832  12.942
39364W        W 4844  21.663  24.661  12.918
39365W        W 4845  35.916  23.132   2.249
39366W        W 4846  20.063   2.789   2.398
39367W        W 4847  36.987   6.259  11.059
39368W        W 4848  15.300  43.815  13.805
39369W        W 4849  29.009  36.992  13.890
39370W        W 4850   9.735  31.955   2.858
39371W        W 4851  22.505  19.625   0.785
39372W        W 4852   5.399  29.087  12.075
39373W        W 4853  23.196  18.661  13.815
39374W        W 4854  15.756   7.700   3.692
39375W        W 4855   7.835  32.601  11.542
39376W        W 4856   7.202  38.486   2.782
39377W        W 4857  30.453  18.554  14.511
39378W        W 4858  39.421   8.824   4.817
39379W        W 4859  28.175   3.888   2.313
39380W        W 4860   7.682  10.791   0.887
39381W        W 4861  31.554  35.987   1.735
39382W        W 4862  22.167  29.147  11.397
39383W        W 4863  37.909  32.093  13.793
39384W        W 4864   4.407  39.955  10.556
39385W        W 4865  32.444  44.429  10.066
39386W        W 4866   1.826  29.581  14.771
39387W        W 4867  41.795  23.694  11.979
39388W        W 4868   1.467  30.076  13.865
39389W        W 4869  25.563  24.049   2.678
39390W        W 4870  30.951  22.570  14.488
39391W        W 4871  16.137  23.033  13.450
39392W        W 4872   8.880   1.396   4.723
39393W        W 4873  17.107   6.325  13.467
39394W        W 4874  15.086  17.287   4.186
39395W        W 4875   2.429  34.110   0.936
39396W        W 4876  10.730  28.002  10.553
39397W        W 4877   6.705  39.054   2.207
39398W        W 4878  24.974  14.163   2.255
39399W        W 4879  38.407  43.426   4.646
39400W        W 4880  39.064  40.481   1.864
39401W        W 4881  12.725   1.438   2.187
39402W        W 4882  16.745  19.563  14.504
39403W        W 4883  21.683  36.912  13.833
39404W        W 4884  20.706  10.240  13.816
39405W        W 4885  40.525  38.501  11.126
39406W        W 4886   1.826  14.331  13.535
39407W        W 4887   7.355  25.020  11.491
39408W        W 4888   1.318  32.897  11.940
39409W        W 4889  34.930   9.268  12.457
39410W        W 4890   7.402  38.418  10.518
39411W        W 4891  35.532  11.833   1.448
39412W        W 4892  38.027  22.008  10.588
39413W        W 4893  43.896  43.818  10.604
39414W        W 4894   9.392  13.660  14.304
39415W        W 4895  42.881  34.868   0.792
39416W        W 4896  36.077  38.406   1.323
39417W        W 4897  18.704  27.616  13.914
39418W        W 4898  26.994   1.384  11.862
39419W        W 4899  41.000  38.950  12.834
39420W        W 4900  37.933  21.612  12.065
39421W        W 4901  21.071  27.691   3.840
39422W        W 4902  41.899  41.412  14.291
39423W        W 4903  39.854  34.382   0.909
39424W        W 4904   9.390   4.752   0.338
39425W        W 4905  15.166  26.607  14.766
39426W        W 4906  39.553   9.288   4.349
39427W        W 4907  20.619   0.266  11.984
39428W        W 4908  26.096  34.399  10.412
39429W        W 4909  27.139  34.425  10.562
39430W        W 4910  27.011  20.571   4.733
39431W        W 4911  27.054   0.446   4.609
39432W        W 4912  12.640  40.345   1.306
39433W        W 4913  41.012  15.282   4.307
39434W        W 4914  16.677  35.391  14.385
39435W        W 4915  21.153  40.548   2.230
39436W        W 4916  37.834   9.768   0.364
39437W        W 4917  16.251   2.865  10.943
39438W        W 4918  14.166  24.479  12.499
39439W        W 4919   3.394  19.576  13.411
39440W        W 4920   2.911   3.785   0.960
39441W        W 4921  41.939  18.740   0.339
39442W        W 4922  11.365  39.970   1.252
39443W        W 4923  37.874   6.807   4.199
39444W        W 4924  44.969  30.557  11.858
39445W        W 4925  44.400   7.205  13.906
39446W        W 4926   8.292  30.162  12.414
39447W        W 4927  41.376  35.965   1.923
39448W        W 4928  43.846  39.499   2.889
39449W        W 4929  42.920  44.346   9.994
39450W        W 4930   6.365  24.701  12.880
39451W        W 4931  32.625   9.306   1.732
39452W        W 4932   9.733  17.260   2.275
39453W        W 4933  30.020  16.686   2.211
39454W        W 4934  36.984  11.218   2.189
39455W        W 4935  38.042  11.778  10.951
39456W        W 4936  37.968   6.824  14.452
39457W        W 4937  18.067  19.091   3.363
39458W        W 4938  41.300  12.133   0.398
39459W        W 4939   3.406   2.831   1.245
39460W        W 4940   4.782   4.322  13.504
39461W        W 4941  13.734  33.959   4.817
39462W        W 4942  34.415  39.890   1.292
39463W        W 4943  37.400   3.859   1.713
39464W        W 4944   4.911   7.801   2.382
39465W        W 4945  14.252  21.736   4.632
39466W        W 4946  44.825  31.598   2.242
39467W        W 4947  12.313  40.024  11.969
39468W        W 4948  37.533  27.616   2.399
39469W        W 4949   7.674  23.160   1.698
39470W        W 4950   6.409  22.705   1.286
39471W        W 4951   6.297  28.633  12.959
39472W        W 4952  31.453  30.511  10.924
39473W        W 4953  30.519   8.322   3.662
39474W        W 4954  10.269   2.237  11.444
39475W        W 4955  32.609  23.576   3.828
39476W        W 4956   7.287  36.437   4.323
39477W        W 4957  13.705   4.849   3.254
39478W        W 4958  16.641   4.320  12.431
39479W        W 4959   0.441  12.713   2.854
39480W        W 4960  32.629  27.460  13.433
39481W        W 4961  25.155  24.171   0.321
39482W        W 4962  14.272  37.408  10.121
39483W        W 4963  25.109  30.147  12.531
39484W        W 4964  39.995  13.191  11.899
39485W        W 4965  27.026  23.008   4.807
39486W        W 4966  37.937  10.139   1.421
39487W        W 4967  35.556  17.268   2.315
39488W        W 4968  39.001  37.836   3.210
39489W        W 4969  12.814   9.181   3.764
39490W        W 4970  11.177  18.728   4.231
39491W        W 4971  33.992  38.381  12.954
39492W        W 4972  28.114  24.130   0.349
39493W        W 4973  33.999  23.015   0.484
39494W        W 4974  27.092  14.188   0.364
39495W        W 4975  44.878   6.384  12.404
39496W        W 4976   9.789  31.981  12.414
39497W        W 4977  22.239  17.114   1.926
39498W        W 4978   4.922  20.737   4.664
39499W        W 4979  22.211  34.394   4.155
39500W        W 4980  41.307  40.351  11.561
39501W        W 4981  19.255  39.041   3.244
39502W        W 4982  33.511  35.412  13.342
39503W        W 4983  10.382  32.412  14.444
39504W        W 4984  21.726   9.180   3.351
39505W        W 4985  42.865  29.565   4.185
39506W        W 4986  13.770  28.137   4.763
39507W        W 4987  43.368   5.844   4.282
39508W        W 4988  22.704  41.335   0.770
39509W        W 4989  37.962  31.092  12.577
39510W        W 4990  40.507  21.095  10.980
39511W        W 4991  26.570  23.706   4.311
39512W        W 4992  21.712  25.145  11.880
39513W        W 4993  37.854  18.693   2.696
39514W        W 4994   8.346  41.293   2.178
39515W        W 4995  43.506  22.182   2.671
39516W        W 4996  12.352  14.781   4.811
39517W        W 4997  37.907  11.788  12.493
39518W        W 4998   8.744   5.801   1.339
39519W        W 4999  13.325  26.700   5.089
39520W        W 5000  36.939  15.779  14.370
39521W        W 5001  40.448   6.759  10.587
39522W        W 5002  24.199  39.941   3.321
39523W        W 5003  43.771  39.933  14.430
39524W        W 5004  34.015   6.761  11.869
39525W        W 5005  29.533  19.641  10.084
39526W        W 5006  16.226  33.999   1.285
39527W        W 5007  29.653  19.763  14.919
39528W        W 5008  31.095   6.357   1.393
39529W        W 5009  44.307   7.393  14.782
39530W        W 5010  33.456  25.206  13.901
39531W        W 5011  36.541  29.971  12.549
39532W        W 5012  14.202   8.684  12.988
39533W        W 5013  34.064   4.803  10.146
39534W        W 5014  16.185  16.602   5.312
39535W        W 5015  23.725   2.470  11.511
39536W        W 5016  21.642  26.063  10.414
39537W        W 5017   2.460   2.744   2.411
39538W        W 5018   0.984  30.046  12.933
39539W        W 5019  30.468  28.164  10.572
39540W        W 5020  40.357  38.906  12.547
39541W        W 5021  30.919   5.407  11.027
39542W        W 5022  26.061  44.978   0.727
39543W        W 5023  20.085   4.347  12.383
39544W        W 5024  39.327   6.341  10.946
39545W        W 5025  11.743  22.736   3.347
39546W        W 5026  32.635  17.691  12.009
39547W        W 5027  32.584  34.396   4.715
39548W        W 5028  24.087  25.670  14.356
39549W        W 5029  17.596  34.581   1.433
39550W        W 5030  29.535  32.452  11.956
39551W        W 5031  12.676  31.478  13.909
39552W        W 5032   9.825  37.061   4.736
39553W        W 5033   0.344  10.705  11.378
39554W        W 5034  15.105  25.531  10.445
39555W        W 5035  32.615  37.516   4.770
39556W        W 5036   8.327  25.217   2.895
39557W        W 5037   3.408  44.811  10.971
39558W        W 5038  39.506  28.676   2.760
39559W        W 5039  18.608   0.328   1.306
39560W        W 5040  19.109  28.949   4.837
39561W        W 5041   4.249  32.125  12.878
39562W        W 5042   2.954  23.659  10.925
39563W        W 5043  22.182  41.923   0.243
39564W        W 5044  43.276  29.926   4.288
39565W        W 5045  19.670  30.032   0.956
39566W        W 5046  28.487  12.646   0.952
39567W        W 5047  34.433   9.242   3.235
39568W        W 5048  41.481  25.094  14.950
39569W        W 5049  15.129  23.052  13.382
39570W        W 5050  16.274  41.953   2.316
39571W        W 5051  44.818   1.298  11.593
39572W        W 5052  21.261  42.865  11.537
39573W        W 5053   6.290   7.258   1.272
39574W        W 5054  32.136  12.821   4.187
39575W        W 5055  11.787  25.136  13.911
39576W        W 5056  44.278  17.247   1.415
39577W        W 5057  40.527   7.359  14.812
39578W        W 5058  16.652   9.153   2.836
39579W        W 5059   0.784  12.795  11.936
39580W        W 5060  31.594  16.583   4.675
39581W        W 5061  39.944   6.203   3.680
39582W        W 5062   1.874  38.994  12.836
39583W        W 5063   0.433  39.339   4.310
39584W        W 5064  33.119  26.177  14.938
39585W        W 5065  14.303  36.554  14.841
39586W        W 5066  18.738  29.550  13.465
39587W        W 5067  16.170  44.887  13.977
39588W        W 5068  26.167  39.432   2.203
39589W        W 5069   3.891  22.053   1.433
39590W        W 5070  22.131   3.393  12.456
39591W        W 5071  36.577   9.673   1.405
39592W        W 5072  19.142   3.355  11.560
39593W        W 5073   1.767  13.762   0.467
39594W        W 5074  24.524   1.767  13.807
39595W        W 5075  43.990  33.906  10.893
39596W        W 5076   5.265   8.676  11.954
39597W        W 5077   5.336   7.215  12.053
39598W        W 5078  30.560   3.250   9.969
39599W        W 5079  27.483   3.827   0.755
39600W        W 5080   4.803  38.912   1.222
39601W        W 5081  23.126   4.319   4.324
39602W        W 5082  39.479   9.695   1.225
39603W        W 5083   0.250  30.103   1.313
39604W        W 5084  14.780  19.726   9.989
39605W        W 5085  38.881   7.814   2.790
39606W        W 5086  12.231   6.883   0.370
39607W        W 5087  32.066  37.932   0.832
39608W        W 5088  20.228  32.962  14.798
39609W        W 5089   2.395  38.996   3.870
39610W        W 5090  31.958   2.736  14.776
39611W        W 5091   2.910  25.965  11.418
39612W        W 5092   7.292   8.247  14.384
39613W        W 5093  42.017  20.143   3.150
39614W        W 5094  10.142   8.745   3.235
39615W        W 5095  44.283   2.878  13.485
39616W        W 5096  40.913  13.619   3.683
39617W        W 5097  38.519  33.983  11.903
39618W        W 5098  42.426  23.722   3.311
39619W        W 5099  44.009  30.589  12.529
39620W        W 5100  39.501  21.233   1.253
39621W        W 5101  32.014  17.197  12.424
39622W        W 5102  13.188   6.415   0.428
39623W        W 5103  15.317  28.680  14.475
39624W        W 5104  26.046  44.461  10.645
39625W        W 5105  27.461  23.168  13.802
39626W        W 5106  30.541  26.683  12.085
39627W        W 5107   2.416  34.068   3.750
39628W        W 5108   8.842  17.295   0.368
39629W        W 5109  19.065  10.220  14.795
39630W        W 5110   0.280  36.019   0.426
39631W        W 5111   2.448   7.206   4.811
39632W        W 5112  21.681  18.757   0.274
39633W        W 5113  42.337  29.582   4.709
39634W        W 5114  18.753  26.158  10.593
39635W        W 5115  28.495  11.142  11.476
39636W        W 5116  35.469  40.378   0.876
39637W        W 5117  35.864  36.517  11.472
39638W        W 5118  32.062  27.130   1.856
39639W        W 5119  37.484   8.761  11.083
39640W        W 5120  42.501  35.966  11.992
39641W        W 5121   1.400   7.724   0.815
39642W        W 5122  40.312   3.754  13.445
39643W        W 5123  11.748  33.091  10.992
39644W        W 5124  35.962  10.297   2.827
39645W        W 5125  18.294  28.096  12.455
39646W        W 5126  26.170  16.612  11.061
39647W        W 5127  26.503   7.688  13.512
39648W        W 5128  21.230   6.760  14.893
39649W        W 5129  37.511  20.558   5.311
39650W        W 5130  43.874  19.178  14.418
39651W        W 5131   4.223  35.520   4.729
39652W        W 5132  14.280  37.972  12.053
39653W        W 5133  26.955  23.102   3.854
39654W        W 5134  29.071   6.889   4.320
39655W        W 5135  37.423  12.231   2.839
39656W        W 5136  34.051   9.816  11.858
39657W        W 5137  13.793  28.525  10.446
39658W        W 5138  10.708  15.701   3.269
39659W        W 5139  40.356  13.217   4.649
39660W        W 5140  41.528  16.091  10.505
39661W        W 5141   8.759  42.928  11.980
39662W        W 5142  17.623  29.454  11.372
39663W        W 5143  20.204  39.998   3.370
39664W        W 5144  25.568  28.543  14.864
39665W        W 5145  44.446  23.547  10.119
39666W        W 5146   4.704  41.946  14.804
39667W        W 5147  32.477   5.723  14.796
39668W        W 5148  36.873  42.888   1.256
39669W        W 5149  36.549  17.610   1.267
39670W        W 5150  15.231  14.735  10.914
39671W        W 5151  16.100  25.187  10.508
39672W        W 5152   8.246   8.844  10.984
39673W        W 5153  10.205  27.135  10.606
39674W        W 5154   2.725  43.959   3.340
39675W        W 5155  41.331  23.198  12.576
39676W        W 5156  10.670  17.715  12.010
39677W        W 5157  41.927  21.177   3.777
39678W        W 5158   2.268  41.871  10.494
39679W        W 5159   9.651  11.283  11.515
39680W        W 5160  34.942   2.431  11.542
39681W        W 5161  11.200   8.263  12.921
39682W        W 5162   0.376   1.286  10.441
39683W        W 5163  29.020  11.183  12.537
39684W        W 5164  28.155  22.732  10.073
39685W        W 5165  17.723  28.443  11.954
39686W        W 5166   6.746  14.166   2.690
39687W        W 5167  17.680   0.891  14.441
39688W        W 5168  36.516  27.616   3.327
39689W        W 5169   7.730  10.201  14.867
39690W        W 5170  33.969   0.818  12.505
39691W        W 5171  44.292   6.774   3.836
39692W        W 5172  10.276   8.865  10.543
39693W        W 5173  15.314  14.237   4.139
39694W        W 5174  44.834  38.850  14.370
39695W        W 5175  37.396  19.536   3.774
39696W        W 5176   6.402  29.545  13.977
39697W        W 5177  38.883  26.081   3.345
39698W        W 5178  39.387  31.969  14.909
39699W        W 5179  12.332  33.057   0.756
39700W        W 5180  28.051  10.815   2.681
39701W        W 5181  42.974  31.932  14.473
39702W        W 5182  16.649  36.928   0.920
39703W        W 5183  34.398   9.687   3.653
39704W        W 5184  19.248  41.966   0.466
39705W        W 5185  14.334  35.372  10.071
39706W        W 5186  17.605  43.298   0.805
39707W        W 5187  24.639  21.073  12.837
39708W        W 5188  42.028   1.478  11.981
39709W        W 5189  17.787  32.996  11.520
39710W        W 5190   0.797  24.181  11.561
39711W        W 5191  29.436  20.079   4.303
39712W        W 5192   8.703  26.562  12.509
39713W        W 5193   1.418  20.767   3.289
39714W        W 5194  42.869  40.046  13.315
39715W        W 5195  33.986  27.483  12.852
39716W        W 5196  10.303  40.406  11.117
39717W        W 5197  25.185  38.393  13.932
39718W        W 5198  13.344  22.693   5.138
39719W        W 5199  31.624  34.085   4.173
39720W        W 5200  26.530  21.699  12.859
39721W        W 5201  37.935  24.130   2.321
39722W        W 5202  10.841   5.769   4.752
39723W        W 5203  29.613  22.092   0.860
39724W        W 5204   8.851  38.978  11.903
39725W        W 5205  21.241  26.034  11.969
39726W        W 5206  21.531  28.147  12.415
39727W        W 5207  29.998   9.313  12.068
39728W        W 5208  32.945   5.791   3.239
39729W        W 5209  42.835  10.682  12.569
39730W        W 5210  16.171  37.929  11.940
39731W        W 5211  27.155  14.760  12.003
39732W        W 5212  39.323  33.379   1.224
39733W        W 5213   6.249  12.771  11.035
39734W        W 5214  39.978   3.410   2.319
39735W        W 5215  29.083  29.085   0.398
39736W        W 5216  23.233   7.734   1.396
39737W        W 5217  11.780  29.495   9.997
39738W        W 5218   5.295   8.707  11.564
39739W        W 5219  20.102  22.564  13.470
39740W        W 5220   0.410  21.612   0.921
39741W        W 5221  35.013  30.994  14.888
39742W        W 5222  22.076  25.525   2.896
39743W        W 5223  30.097  41.907  14.338
39744W        W 5224  17.797  24.212  13.523
39745W        W 5225  28.533  35.409   4.601
39746W        W 5226   3.858   5.193  12.553
39747W        W 5227  44.421   9.393  13.388
39748W        W 5228  11.628  11.221  11.585
39749W        W 5229   1.954  28.112  11.482
39750W        W 5230  12.227  24.086   3.828
39751W        W 5231  33.984  37.474   4.211
39752W        W 5232  40.936   8.324   1.753
39753W        W 5233  25.997   0.378   2.263
39754W        W 5234  41.794  32.139   5.140
39755W        W 5235  16.292  20.706  12.424
39756W        W 5236   2.423   4.245   1.350
39757W        W 5237  15.191  16.245   5.268
39758W        W 5238   4.361  18.163  13.468
39759W        W 5239  20.597   6.681   3.744
39760W        W 5240  40.326  35.565   0.275
39761W        W 5241  18.264  20.225   2.288
39762W        W 5242  29.060   9.289   2.898
39763W        W 5243  17.300   8.334   3.844
39764W        W 5244  25.000   5.303  12.429
39765W        W 5245  37.078  32.096   4.188
39766W        W 5246  24.488  39.056  13.906
39767W        W 5247   9.700  43.488  14.313
39768W        W 5248  31.150  34.370  10.916
39769W        W 5249   2.325  25.628  14.967
39770W        W 5250  19.203  25.504   2.311
39771W        W 5251  25.661  25.207  14.343
39772W        W 5252  40.304  25.048  13.309
39773W        W 5253   8.311  34.971  12.838
39774W        W 5254  25.104  18.654  13.814
39775W        W 5255   8.245   8.737  11.476
39776W        W 5256  37.368  27.036   0.898
39777W        W 5257  10.699  11.311   4.255
39778W        W 5258  20.102  18.192   3.694
39779W        W 5259  19.620  36.000   2.870
39780W        W 5260   2.305  30.074   4.742
39781W        W 5261  14.147  19.198   1.279
39782W        W 5262   9.661  19.180   1.872
39783W        W 5263   7.708  11.709  14.305
39784W        W 5264  38.927  29.540  10.916
39785W        W 5265  23.655  25.625   3.271
39786W        W 5266  27.648  42.287   3.674
39787W        W 5267   8.752  34.557   4.232
39788W        W 5268  38.010  44.832  14.946
39789W        W 5269  11.218  41.020  13.841
39790W        W 5270  25.612  19.563   2.230
39791W        W 5271   9.289  27.018  14.949
39792W        W 5272  40.838  24.627   1.748
39793W        W 5273   2.327  11.635  10.027
39794W        W 5274  16.681  41.352   4.303
39795W        W 5275  38.446   5.920  13.013
39796W        W 5276  12.201  28.181   3.316
39797W        W 5277   9.794  35.507   2.784
39798W        W 5278  26.148  36.017   1.879
39799W        W 5279  22.633  26.083  14.917
39800W        W 5280  13.282  40.975   9.496
39801W        W 5281  39.407  30.004   3.815
39802W        W 5282  11.693  20.051  14.016
39803W        W 5283  29.543  11.319  12.489
39804W        W 5284  35.049  35.080   3.842
39805W        W 5285  16.687  28.970  12.076
39806W        W 5286  26.700  42.779   3.338
39807W        W 5287  17.179  37.572  11.516
39808W        W 5288  12.282  15.205   0.942
39809W        W 5289  15.761  16.777   0.433
39810W        W 5290  33.513   1.276  13.957
39811W        W 5291   8.704  21.684  13.422
39812W        W 5292  24.645   7.838   0.397
39813W        W 5293  10.311  40.518   3.233
39814W        W 5294  35.082  27.453   4.805
39815W        W 5295   7.408  31.422   4.615
39816W        W 5296  13.245   3.461  11.529
39817W        W 5297  11.785  20.569   3.199
39818W        W 5298  35.984  23.528  11.432
39819W        W 5299  33.624   3.866   2.375
39820W        W 5300  34.022   7.227  10.897
39821W        W 5301  21.190  14.820  11.604
39822W        W 5302   8.765  28.551   3.828
39823W        W 5303  38.391  11.856   1.418
39824W        W 5304   0.359  22.601  11.405
39825W        W 5305  35.461  17.746  10.598
39826W        W 5306  14.730  40.536   4.339
39827W        W 5307  16.718  30.635  10.951
39828W        W 5308  18.611  36.526  12.034
39829W        W 5309  32.524  15.305  13.919
39830W        W 5310   3.328   8.762  12.054
39831W        W 5311  31.098  30.973  14.932
39832W        W 5312   7.331  22.078  14.028
39833W        W 5313  43.014   8.354  12.997
39834W        W 5314  41.999   8.787  12.078
39835W        W 5315  17.761  12.310   1.704
39836W        W 5316  19.717  32.415   2.272
39837W        W 5317   5.224   4.809  14.992
39838W        W 5318  32.104  11.281  13.461
39839W        W 5319  25.096  38.988  11.100
39840W        W 5320  20.135  24.591   0.331
39841W        W 5321  44.771  17.273   3.698
39842W        W 5322  21.747  24.014  14.995
39843W        W 5323  40.399   7.895   2.209
39844W        W 5324  42.946  36.932  11.430
39845W        W 5325  44.422   1.860   4.294
39846W        W 5326  42.395  25.144   2.662
39847W        W 5327  33.104  43.996  11.474
39848W        W 5328  26.472   9.887   3.300
39849W        W 5329  11.217  13.639   2.188
39850W        W 5330  23.120  42.317   2.860
39851W        W 5331  44.401  25.684  11.471
39852W        W 5332  18.229  13.287   3.822
39853W        W 5333   5.217  16.571   3.220
39854W        W 5334  18.089  30.642  11.458
39855W        W 5335  40.339  16.593   4.831
39856W        W 5336  23.996  27.622   1.758
39857W        W 5337  39.006  10.197   1.807
39858W        W 5338   8.224  10.761   0.883
39859W        W 5339  18.266   1.743   1.886
39860W        W 5340  23.098  30.462   2.688
39861W        W 5341  33.436  33.566   0.421
39862W        W 5342  20.590  22.558  10.501
39863W        W 5343  34.502   6.304   0.829
39864W        W 5344  42.329  39.434  13.829
39865W        W 5345   8.225  15.810  11.032
39866W        W 5346  39.508   7.239   1.284
39867W        W 5347  22.020   2.465  14.785
39868W        W 5348  37.420   5.796   1.288
39869W        W 5349  30.416  13.159   0.762
39870W        W 5350  17.088   8.184  12.417
39871W        W 5351  11.350   3.916  12.935
39872W        W 5352   0.392  38.395   1.402
39873W        W 5353   0.765   5.325  11.991
39874W        W 5354  19.280   8.391  13.530
39875W        W 5355  19.653  33.093   3.178
39876W        W 5356  39.953  38.057   0.871
39877W        W 5357  31.097  34.995   2.307
39878W        W 5358  31.593  26.020  13.015
39879W        W 5359  16.211  37.488  11.499
39880W        W 5360  27.568  34.438  11.437
39881W        W 5361  35.864  31.949  12.998
39882W        W 5362  41.367   0.973   2.347
39883W        W 5363  38.510  35.091  11.429
39884W        W 5364  36.896  36.569   2.887
39885W        W 5365  43.822  12.341  12.365
39886W        W 5366  38.878  41.318  14.913
39887W        W 5367   6.335  30.146   2.733
39888W        W 5368  22.540   5.875   1.909
39889W        W 5369  31.535  34.523   1.431
39890W        W 5370  26.114  44.278  14.825
39891W        W 5371  21.035  39.993  12.938
39892W        W 5372  35.103  25.215   1.869
39893W        W 5373   0.858   5.703   3.360
39894W        W 5374  31.553  15.648  11.459
39895W        W 5375  44.485  18.670   1.935
39896W        W 5376   4.246  14.747   1.293
39897W        W 5377  34.385   8.850  14.472
39898W        W 5378  31.008   3.711  12.908
39899W        W 5379  40.801   9.322  11.510
39900W        W 5380   3.944  38.849  14.398
39901W        W 5381  38.521  39.924   0.807
39902W        W 5382  12.657  36.953  10.950
39903W        W 5383  33.437  43.483   0.905
39904W        W 5384  19.074   2.297  11.088
39905W        W 5385   4.902  22.039   3.286
39906W        W 5386  44.494  22.200   2.211
39907W        W 5387   1.796  13.775   3.662
39908W        W 5388  29.967  39.479   0.875
39909W        W 5389  35.461  12.307   1.269
39910W        W 5390   8.860  13.657   1.880
39911W        W 5391  37.891   9.654   1.365
39912W        W 5392   8.889  19.692   2.783
39913W        W 5393  18.710  44.483   5.300
39914W        W 5394   1.255  10.180  14.501
39915W        W 5395  36.959  30.602   3.220
39916W        W 5396  20.066  33.127   0.397
39917W        W 5397   5.281  21.652   4.201
39918W        W 5398  39.504  30.628  10.635
39919W        W 5399   0.949  29.923   0.813
39920W        W 5400  18.150  37.349  11.986
39921W        W 5401  13.793  28.017   1.297
39922W        W 5402  24.724  44.836   0.904
39923W        W 5403  18.295  10.276   5.214
39924W        W 5404  42.833  27.158   3.800
39925W        W 5405  16.292  26.633   9.967
39926W        W 5406  25.214  33.097   2.722
39927W        W 5407  13.246   0.800   0.935
39928W        W 5408  10.315  17.650   4.682
39929W        W 5409  44.853  23.491  12.871
39930W        W 5410   8.656   0.902  10.894
39931W        W 5411   6.413  24.012   5.200
39932W        W 5412   3.458   8.237   0.744
39933W        W 5413  19.602  23.064   2.307
39934W        W 5414  11.774  18.760  13.323
39935W        W 5415   0.881  40.848   0.324
39936W        W 5416  34.475   5.877  14.501
39937W        W 5417  18.229   8.726  11.121
39938W        W 5418  32.035  37.410   1.759
39939W        W 5419  32.576  12.196  11.021
39940W        W 5420  14.756  30.507  11.612
39941W        W 5421  20.570  40.519  14.028
39942W        W 5422  30.601  21.126  12.047
39943W        W 5423  10.848  10.159   0.339
39944W        W 5424  26.648   3.357  14.304
39945W        W 5425  37.848  13.334   3.148
39946W        W 5426  16.317  10.335   3.773
39947W        W 5427  44.280  22.518   4.140
39948W        W 5428  10.758   9.872   3.349
39949W        W 5429   3.759  22.032  12.571
39950W        W 5430  43.794  40.352  12.040
39951W        W 5431  38.506  36.978   2.417
39952W        W 5432  30.467  33.608   2.191
39953W        W 5433  38.467  25.029  12.479
39954W        W 5434   8.876  17.789   4.611
39955W        W 5435  37.408  15.264  12.083
39956W        W 5436   4.832  42.814   3.217
39957W        W 5437  11.726  42.485   4.696
39958W        W 5438  31.935  14.223  13.007
39959W        W 5439  44.850   4.354   3.694
39960W        W 5440  40.323  41.994  10.955
39961W        W 5441   2.311  27.675   0.427
39962W        W 5442  17.203  11.204   1.812
39963W        W 5443   2.314  11.140  11.588
39964W        W 5444   9.190   4.237   4.668
39965W        W 5445  39.998  31.513  12.899
39966W        W 5446   0.940  43.781  10.538
39967W        W 5447  26.163   7.902  11.561
39968W        W 5448  18.096  32.090   0.339
39969W        W 5449  12.287  38.974  10.085
39970W        W 5450  22.630  15.199   0.328
39971W        W 5451  42.519  15.188  11.456
39972W        W 5452   1.442  25.149   1.383
39973W        W 5453  25.013  39.989   4.767
39974W        W 5454  20.543  40.039  13.949
39975W        W 5455  24.178   5.241  12.947
39976W        W 5456  16.078  13.191   3.250
39977W        W 5457   4.253  14.161  13.359
39978W        W 5458  35.481  29.590   4.119
39979W        W 5459  43.461  10.876   4.780
39980W        W 5460  32.039  25.507   1.900
39981W        W 5461  37.531   7.196  11.412
39982W        W 5462   1.371  43.450   3.326
39983W        W 5463  14.182  38.063  12.994
39984W        W 5464  18.545  40.439  14.371
39985W        W 5465  24.177  15.123   1.906
39986W        W 5466  38.858  34.961   5.149
39987W        W 5467  43.453  15.212   2.249
39988W        W 5468  36.523  40.884  11.008
39989W        W 5469  15.235  21.670   2.713
39990W        W 5470  11.628   2.371  14.802
39991W        W 5471   7.302   2.376  14.302
39992W        W 5472  12.839   8.194  11.541
39993W        W 5473   0.296  12.324   0.808
39994W        W 5474  30.602  17.598  12.080
39995W        W 5475  11.183  14.647  13.531
39996W        W 5476  42.930  34.085  14.877
39997W        W 5477  41.417  21.578   1.932
39998W        W 5478  16.650  22.069  11.525
39999W        W 5479  20.116  36.475   2.721
40000W        W 5480   4.717  13.821   1.239
40001W        W 5481  42.384  41.009  10.560
40002W        W 5482  31.562  24.489  12.447
40003W        W 5483  27.073   4.266   2.291
40004W        W 5484  32.586  13.810  11.925
40005W        W 5485  18.079  34.052  11.570
40006W        W 5486   6.269  41.533   3.359
40007W        W 5487  26.594   4.866   2.416
40008W        W 5488  31.999  10.833  11.023
40009W        W 5489  29.578  20.254   1.342
40010W        W 5490  21.524  25.165   3.387
40011W        W 5491  33.122  25.499  10.941
40012W        W 5492  28.647  35.093   2.372
40013W        W 5493  35.488  12.743  11.378
40014W        W 5494  24.163  37.536   2.901
40015W        W 5495  29.549  41.374   0.263
40016W        W 5496  33.406  33.384  11.516
40017W        W 5497  26.559   4.699   3.198
40018W        W 5498  25.962  36.580   4.732
40019W        W 5499  22.562  29.150   0.456
40020W        W 5500  22.577  20.233   3.208
40021W        W 5501   3.441  13.823   1.404
40022W        W 5502  15.793  16.760   2.241
40023W        W 5503  34.866  10.667   4.824
40024W        W 5504  29.170  43.768   4.177
40025W        W 5505   7.250  35.414   1.239
40026W        W 5506  30.928  39.454  11.089
40027W        W 5507  27.967  23.192  12.844
40028W        W 5508  33.994  11.843   0.245
40029W        W 5509  13.157  24.721  13.503
40030W        W 5510  13.192  36.961  11.942
40031W        W 5511   9.806  43.438   4.695
40032W        W 5512  14.123  25.547  12.478
40033W        W 5513  44.481   1.242   1.769
40034W        W 5514  40.419  37.993  11.909
40035W        W 5515   4.402  30.558   4.837
40036W        W 5516   0.896  11.826  14.505
40037W        W 5517  36.011  14.289   4.180
40038W        W 5518  32.612  38.484  14.465
40039W        W 5519  37.007   5.756   1.264
40040W        W 5520  30.988  39.925   0.268
40041W        W 5521   2.245  15.294   0.351
40042W        W 5522   8.841  15.284   4.671
40043W        W 5523   3.301   6.710   2.388
40044W        W 5524   3.923   0.746  11.916
40045W        W 5525  34.401  29.631  11.910
40046W        W 5526  10.690   8.799   4.620
40047W        W 5527  11.670  14.678   0.341
40048W        W 5528  36.916  11.241   0.903
40049W        W 5529  13.839  39.443   0.377
40050W        W 5530  38.443  12.655  11.486
40051W        W 5531  20.242  23.113   1.722
40052W        W 5532  38.942   9.341  12.824
40053W        W 5533  40.463   3.804   5.210
40054W        W 5534  16.578  24.005   2.898
40055W        W 5535  41.943  26.469   4.158
40056W        W 5536  37.346  36.569   1.756
40057W        W 5537  16.081  21.757  12.565
40058W        W 5538   4.287  10.635  13.813
40059W        W 5539  34.103  31.498  10.923
40060W        W 5540   5.430  19.223   1.250
40061W        W 5541   8.204  44.383  14.826
40062W        W 5542  19.111  32.915  11.535
40063W        W 5543  13.328   1.245  12.462
40064W        W 5544   8.266   5.379   1.311
40065W        W 5545  44.277  33.381   4.785
40066W        W 5546  21.595  27.461   3.205
40067W        W 5547  41.519   9.746  13.820
40068W        W 5548   3.299  30.544  14.901
40069W        W 5549  33.956  11.706   3.837
40070W        W 5550  30.432  39.552  11.442
40071W        W 5551  21.180  25.576   1.836
40072W        W 5552   0.277  17.568  14.798
40073W        W 5553  26.481   0.356  11.580
40074W        W 5554  26.095  42.932   4.744
40075W        W 5555  23.012  10.826   0.752
40076W        W 5556  39.553  32.005  12.886
40077W        W 5557  37.348   4.916   3.348
40078W        W 5558  42.825  20.264   2.357
40079W        W 5559  36.410  33.462  12.862
40080W        W 5560   1.772  22.037  10.930
40081W        W 5561  32.577  31.583   3.348
40082W        W 5562  17.660   1.788   0.899
40083W        W 5563  37.943  39.954   3.646
40084W        W 5564  44.489  13.755   4.662
40085W        W 5565  19.657   3.289   2.249
40086W        W 5566  23.106  18.199   2.346
40087W        W 5567  25.706   9.384  12.532
40088W        W 5568   2.849  43.972  13.312
40089W        W 5569  44.858   4.805  12.448
40090W        W 5570  26.547  33.625   1.401
40091W        W 5571  26.526  35.859   3.378
40092W        W 5572  12.352  17.237   3.164
40093W        W 5573  38.919  23.538  10.534
40094W        W 5574   1.317  22.696  13.537
40095W        W 5575  41.829   9.822   2.401
40096W        W 5576   2.273  29.156  14.504
40097W        W 5577   6.787   1.772   3.276
40098W        W 5578  33.929  16.083  11.548
40099W        W 5579   8.236  40.476   2.897
40100W        W 5580  41.332  32.530  14.828
40101W        W 5581  33.404  15.587  11.014
40102W        W 5582  25.674  28.095  13.900
40103W        W 5583   2.839   0.441   4.764
40104W        W 5584  44.487  15.156   1.809
40105W        W 5585  22.632  14.606  12.933
40106W        W 5586  34.979  32.444   1.221
40107W        W 5587  31.907  19.173  10.518
40108W        W 5588  35.080  35.445   4.352
40109W        W 5589  40.906   6.868  11.603
40110W        W 5590  42.894  19.540  13.471
40111W        W 5591  17.254   6.359   2.752
40112W        W 5592  26.592  11.325   3.666
40113W        W 5593  30.989  35.478  13.049
40114W        W 5594   6.835   1.756  13.538
40115W        W 5595  12.321  35.467  13.332
40116W        W 5596  16.161  32.586   2.686
40117W        W 5597  11.340   5.721  10.625
40118W        W 5598  18.201   6.205  13.504
40119W        W 5599  16.139  16.134  14.466
40120W        W 5600  30.615  11.730   0.847
40121W        W 5601  38.550  14.230   1.910
40122W        W 5602  33.538  26.686  13.850
40123W        W 5603  23.728  23.100   1.264
40124W        W 5604  19.169  41.796  12.035
40125W        W 5605   6.825  21.578   3.263
40126W        W 5606  44.391  37.979  10.947
40127W        W 5607  43.999  11.843  12.063
40128W        W 5608  44.409   0.263   3.704
40129W        W 5609  23.197  42.386  12.342
40130W        W 5610  39.834  31.517   2.368
40131W        W 5611   1.956  12.278  14.278
40132W        W 5612  11.816   2.333   0.447
40133W        W 5613   7.223  35.426  14.024
40134W        W 5614  14.296   1.794   0.841
40135W        W 5615  35.385  18.775   2.886
40136W        W 5616  17.106  17.555   4.118
40137W        W 5617  34.923   5.239  12.477
40138W        W 5618   0.368   5.799  13.034
40139W        W 5619  17.133  33.402  11.599
40140W        W 5620  16.675   9.710  12.955
40141W        W 5621  26.554   2.751  12.414
40142W        W 5622   4.791  26.523  14.778
40143W        W 5623  26.573  22.621   2.346
40144W        W 5624  22.221  24.082   1.882
40145W        W 5625  27.115  40.900  10.563
40146W        W 5626  10.142  35.858   4.176
40147W        W 5627  11.754   6.885   1.803
40148W        W 5628  23.183  42.477   5.129
40149W        W 5629  28.452  38.450   9.968
40150W        W 5630  44.289  32.912  11.905
40151W        W 5631  21.078   9.667  10.459
40152W        W 5632  32.997  33.588   1.813
40153W        W 5633  29.493  28.466   0.844
40154W        W 5634  37.460  24.497  10.634
40155W        W 5635  10.308  21.208  13.932
40156W        W 5636  26.048  35.361  11.034
40157W        W 5637   6.399  34.954   4.336
40158W        W 5638  34.019  34.472  14.873
40159W        W 5639   7.828  41.445  12.390
40160W        W 5640  10.865  16.191   2.188
40161W        W 5641  35.041  35.386  13.926
40162W        W 5642  34.003  12.853   4.191
40163W        W 5643  11.829  16.103  11.024
40164W        W 5644  35.917  42.455   4.690
40165W        W 5645  11.711  43.959  10.923
40166W        W 5646  24.638  23.010  12.066
40167W        W 5647  13.769  34.022   2.388
40168W        W 5648  14.698  44.458   3.278
40169W        W 5649  22.570   5.232   1.369
40170W        W 5650  42.893  20.696  14.291
40171W        W 5651  40.054  12.749   4.650
40172W        W 5652  36.351  10.777   2.779
40173W        W 5653  44.976  36.553  13.049
40174W        W 5654  35.492  27.997  14.845
40175W        W 5655  17.163  15.795   1.838
40176W        W 5656  18.629  44.304   1.259
40177W        W 5657  42.334  13.771   2.296
40178W        W 5658  44.406   2.874  14.400
40179W        W 5659  43.358  32.542  13.853
40180W        W 5660  32.566  38.504   0.860
40181W        W 5661  24.571  25.544  13.796
40182W        W 5662   2.760  43.790   2.795
40183W        W 5663  27.607  34.607   2.824
40184W        W 5664   0.768  39.889  10.968
40185W        W 5665   1.934  25.120   0.277
40186W        W 5666  30.562  38.055   1.239
40187W        W 5667  28.071  10.194  11.385
40188W        W 5668  21.564   2.723  11.378
40189W        W 5669  21.568  26.162   0.274
40190W        W 5670   6.414   9.321   1.715
40191W        W 5671  27.119  15.094   4.197
40192W        W 5672  11.239  36.387   3.647
40193W        W 5673  19.232  11.295  11.940
40194W        W 5674  28.461  22.038   2.742
40195W        W 5675  33.097  18.786  11.127
40196W        W 5676  43.308  36.970  14.876
40197W        W 5677  42.404   0.462   0.918
40198W        W 5678  28.446  41.523   1.863
40199W        W 5679  22.069  33.917  12.558
40200W        W 5680   4.819  24.606  13.532
40201W        W 5681  20.736  23.145   1.757
40202W        W 5682  26.614  32.116   2.754
40203W        W 5683  42.003  30.153   4.739
40204W        W 5684  24.571  14.271   1.783
40205W        W 5685  39.484  13.244   4.213
40206W        W 5686  16.643  39.477   1.879
40207W        W 5687  10.874  21.517  14.017
40208W        W 5688  13.265  38.011   3.870
40209W        W 5689   2.724  40.426   1.383
40210W        W 5690  18.222  34.491   2.843
40211W        W 5691  33.129  13.845  14.841
40212W        W 5692   9.729  39.975  13.322
40213W        W 5693  35.546  14.277  10.955
40214W        W 5694   4.343   8.211   2.696
40215W        W 5695  19.075  34.407  13.963
40216W        W 5696   6.754   6.409  12.925
40217W        W 5697  15.749   6.757  12.081
40218W        W 5698  32.434  35.014   9.931
40219W        W 5699  34.081  20.729   2.411
40220W        W 5700  33.991  27.604   1.408
40221W        W 5701  25.064  36.879   4.129
40222W        W 5702   5.748   4.435  14.805
40223W        W 5703  14.334  36.518   1.247
40224W        W 5704  20.045  39.875  10.634
40225W        W 5705  15.108  39.392  10.915
40226W        W 5706  28.458  16.073  12.989
40227W        W 5707  34.952   2.769   4.296
40228W        W 5708  25.080  31.143   4.300
40229W        W 5709  35.567   7.406   4.790
40230W        W 5710  25.614   7.681   5.244
40231W        W 5711  17.763   2.876  12.883
40232W        W 5712  17.796  29.103  13.894
40233W        W 5713  40.944   5.860   2.411
40234W        W 5714  44.399   2.952   3.666
40235W        W 5715   1.240  23.701  10.463
40236W        W 5716  18.783  43.020   0.250
40237W        W 5717  44.481  25.659   0.783
40238W        W 5718   6.217  33.612  10.889
40239W        W 5719  31.909   9.259   2.375
40240W        W 5720  44.468  16.723   1.244
40241W        W 5721   8.741  42.416  12.900
40242W        W 5722  44.784  25.510  13.366
40243W        W 5723  37.047  22.018  14.448
40244W        W 5724  29.167  10.715  11.432
40245W        W 5725   1.425  44.004   3.147
40246W        W 5726   1.369  31.629   1.417
40247W        W 5727  41.397   3.784   4.225
40248W        W 5728  12.119  27.536   0.470
40249W        W 5729  24.625   7.343  12.438
40250W        W 5730  41.840  37.066   3.664
40251W        W 5731   3.283  29.025  14.412
40252W        W 5732   9.348   8.336  12.975
40253W        W 5733  37.008  18.587  11.881
40254W        W 5734  33.059  24.603  12.999
40255W        W 5735  37.933  15.150   0.305
40256W        W 5736  29.601   4.900  12.498
40257W        W 5737   2.729   3.353   4.632
40258W        W 5738   1.378   6.214   0.739
40259W        W 5739  31.974  28.516   3.189
40260W        W 5740  14.798  26.015   4.217
40261W        W 5741  21.742  24.644  13.441
40262W        W 5742  19.166  40.430   1.736
40263W        W 5743  32.006  30.060   3.149
40264W        W 5744  30.908  27.607  13.456
40265W        W 5745  27.605  23.609  12.840
40266W        W 5746   0.892  18.180   9.945
40267W        W 5747  43.012  25.624   4.237
40268W        W 5748  13.297  22.147   1.867
40269W        W 5749   7.797  44.460  10.614
40270W        W 5750  38.420   6.704  11.031
40271W        W 5751  32.474  30.597   0.955
40272W        W 5752  12.203  29.440  12.353
40273W        W 5753   4.797  10.378   2.244
40274W        W 5754   3.446  18.724  12.857
40275W        W 5755  27.055  37.942   0.772
40276W        W 5756  43.981   3.819  11.388
40277W        W 5757  21.043  37.898  14.797
40278W        W 5758  30.533  20.088   4.754
40279W        W 5759  34.540  17.644   0.316
40280W        W 5760  15.601  42.418   4.117
40281W        W 5761   6.411  36.002   0.316
40282W        W 5762   7.193   4.787  12.849
40283W        W 5763   1.789  11.286   4.173
40284W        W 5764   4.901  35.527   2.191
40285W        W 5765  18.064  23.522   0.907
40286W        W 5766  41.500  12.802   1.821
40287W        W 5767   7.340  16.767   3.306
40288W        W 5768  31.940  37.419  11.868
40289W        W 5769  23.170  43.884   4.824
40290W        W 5770  19.284  17.577   3.785
40291W        W 5771   0.809   4.276  14.419
40292W        W 5772  11.670  17.179   2.881
40293W        W 5773  21.656  31.901  14.886
40294W        W 5774  20.646   9.698   2.307
40295W        W 5775  27.074   3.394  13.872
40296W        W 5776  16.802  25.644   1.796
40297W        W 5777   4.744  11.657   1.389
40298W        W 5778  41.443  40.009  13.984
40299W        W 5779   0.923  39.027   3.778
40300W        W 5780  20.705  40.950  12.861
40301W        W 5781  39.470  30.154  14.465
40302W        W 5782  34.863   5.755  10.096
40303W        W 5783  39.972   2.453   2.418
40304W        W 5784   9.867  36.474  10.463
40305W        W 5785  18.265   3.792  14.324
40306W        W 5786  30.090  11.195   2.818
40307W        W 5787  41.876  11.840   0.299
40308W        W 5788  26.683  12.162  11.033
40309W        W 5789  27.499  13.643  12.892
40310W        W 5790  30.107   8.699  14.377
40311W        W 5791  24.085  42.919  10.440
40312W        W 5792   0.832   9.298  11.562
40313W        W 5793  19.654  29.946  13.407
40314W        W 5794  21.640  10.158  11.500
40315W        W 5795  26.526  12.710  13.918
40316W        W 5796  21.694   1.420  13.897
40317W        W 5797   4.787  19.232   3.271
40318W        W 5798  23.130  23.627  12.036
40319W        W 5799   7.174  26.663  14.351
40320W        W 5800  40.970  20.039  12.001
40321W        W 5801   4.389  40.396   4.195
40322W        W 5802  12.758  31.042   4.184
40323W        W 5803  28.004  22.746   5.210
40324W        W 5804  30.627  11.186   0.387
40325W        W 5805  34.986  39.411  14.349
40326W        W 5806   1.394  19.188  11.937
40327W        W 5807   7.830  22.721  11.884
40328W        W 5808  43.491  12.321   2.784
40329W        W 5809  25.590   6.306   1.313
40330W        W 5810  31.090   0.792   1.759
40331W        W 5811  41.337   6.238   2.301
40332W        W 5812  35.017  42.802  10.009
40333W        W 5813  29.001  27.150   3.828
40334W        W 5814  27.194  22.526  10.915
40335W        W 5815  23.038  14.810   1.350
40336W        W 5816  28.129   9.708   0.431
40337W        W 5817  11.718  10.325   1.770
40338W        W 5818  16.659  31.915   4.323
40339W        W 5819  31.902  25.121   5.128
40340W        W 5820  32.635  39.817  14.841
40341W        W 5821   8.806  19.270   2.356
40342W        W 5822  28.460   0.346  11.911
40343W        W 5823   6.255  25.072   3.383
40344W        W 5824  26.663  22.111   2.231
40345W        W 5825  21.112  37.051   0.887
40346W        W 5826   0.472  10.832  10.987
40347W        W 5827  26.994   3.902   1.851
40348W        W 5828  36.483  37.974   2.806
40349W        W 5829   8.202  24.071   4.115
40350W        W 5830  37.440  41.339   1.890
40351W        W 5831   5.879  31.914  11.866
40352W        W 5832  39.962  39.407  11.968
40353W        W 5833  15.695  30.018   2.292
40354W        W 5834  39.539   6.352  12.498
40355W        W 5835  38.500  37.975   4.126
40356W        W 5836  44.904  12.170   1.774
40357W        W 5837   2.946   8.160   4.265
40358W        W 5838  35.037   1.249   0.906
40359W        W 5839  20.092   8.852   2.260
40360W        W 5840  34.987  11.222   1.808
40361W        W 5841   2.764  23.189  14.937
40362W        W 5842  17.214  32.462   4.620
40363W        W 5843   9.389  24.535  11.539
40364W        W 5844  40.423  44.493   0.267
40365W        W 5845  13.817  23.020   0.335
40366W        W 5846  24.674  41.456  12.547
40367W        W 5847  31.524  26.103  11.961
40368W        W 5848  37.050  16.767  11.880
40369W        W 5849   7.411  38.959   0.370
40370W        W 5850  33.008  25.621   4.336
40371W        W 5851  37.020  35.448  14.850
40372W        W 5852  32.555  26.009   1.294
40373W        W 5853  19.559   8.739  12.452
40374W        W 5854  21.570  16.799  14.861
40375W        W 5855  36.899  25.108  10.955
40376W        W 5856  12.157   0.871   3.231
40377W        W 5857  11.350  11.761  13.822
40378W        W 5858  41.346  19.731  13.057
40379W        W 5859  39.420  23.605   1.407
40380W        W 5860   4.884  24.108  14.827
40381W        W 5861  42.979   1.297   1.846
40382W        W 5862  18.193   1.810   4.683
40383W        W 5863   4.752   6.210   4.119
40384W        W 5864  20.664  12.817  10.554
40385W        W 5865  26.164  18.562  13.961
40386W        W 5866  35.869   4.311   3.636
40387W        W 5867  37.434  39.891   4.802
40388W        W 5868  28.961  32.936   2.217
40389W        W 5869  44.419  22.156  10.422
40390W        W 5870   4.810  34.950  10.022
40391W        W 5871  33.500   4.213   4.730
40392W        W 5872  29.561   6.775  10.890
40393W        W 5873  42.405   6.840   3.814
40394W        W 5874   0.326  29.510  11.482
40395W        W 5875  24.552  37.967  12.443
40396W        W 5876  22.623   3.801  13.443
40397W        W 5877  37.401  29.662  12.887
40398W        W 5878  40.993   8.883   5.167
40399W        W 5879  22.175  23.143   1.293
40400W        W 5880  44.984   1.338   2.302
40401W        W 5881  40.427  30.473  10.612
40402W        W 5882   0.985   0.328  11.584
40403W        W 5883   0.469  41.533  12.382
40404W        W 5884   8.878  25.608   3.331
40405W        W 5885  27.466  35.025   2.373
40406W        W 5886  25.215  27.190  11.460
40407W        W 5887  30.991  13.836   1.799
40408W        W 5888  29.037   0.414  13.792
40409W        W 5889  22.132  17.216  14.854
40410W        W 5890  17.640   7.754   3.327
40411W        W 5891   6.198   1.942   0.764
40412W        W 5892  19.670  16.589  11.530
40413W        W 5893  35.067  11.153  11.611
40414W        W 5894  32.593  30.451  14.919
40415W        W 5895  24.699  17.191  13.424
40416W        W 5896  40.913  22.619  11.498
40417W        W 5897   1.292   5.911   3.778
40418W        W 5898  30.059  39.398  13.420
40419W        W 5899  40.324  44.309  12.071
40420W        W 5900  14.762  20.216   1.733
40421W        W 5901  18.105  33.966  12.354
40422W        W 5902   1.238  36.425  11.108
40423W        W 5903   1.821   7.858  11.580
40424W        W 5904  38.868  18.225  13.019
40425W        W 5905  13.630  25.518   3.152
40426W        W 5906  10.871  12.748  12.957
40427W        W 5907  17.636  19.094   2.840
40428W        W 5908   7.682  19.754   5.188
40429W        W 5909  39.495  16.142   2.331
40430W        W 5910  35.085  44.379  14.935
40431W        W 5911  16.302  11.353  11.501
40432W        W 5912  36.441  23.038  14.952
40433W        W 5913  14.827  25.070   3.249
40434W        W 5914   2.430  16.806   4.766
40435W        W 5915   2.928  21.623  13.436
40436W        W 5916   9.171  34.388   3.150
40437W        W 5917  37.991   3.949  13.520
40438W        W 5918  29.462  23.125  11.084
40439W        W 5919   5.883  29.047   4.680
40440W        W 5920  11.255  27.012   1.375
40441W        W 5921   8.313  37.420  14.327
40442W        W 5922  43.398  44.813   2.235
40443W        W 5923  21.667   7.372   1.367
40444W        W 5924   8.771  27.114  12.516
40445W        W 5925  14.215  14.671   2.770
40446W        W 5926   5.261   9.213   4.131
40447W        W 5927  19.742   6.408  10.920
40448W        W 5928   2.852  35.508   3.205
40449W        W 5929   2.470  21.097   3.363
40450W        W 5930  27.636  42.395  13.379
40451W        W 5931  20.581   0.931   4.685
40452W        W 5932  38.504  43.981  12.978
40453W        W 5933  17.660   4.332  12.353
40454W        W 5934  44.763   7.314  14.340
40455W        W 5935  17.627  44.840   3.256
40456W        W 5936  20.695  38.029  14.778
40457W        W 5937   0.958  31.910  11.871
40458W        W 5938  21.206  32.545   0.771
40459W        W 5939  14.168  18.683   1.806
40460W        W 5940  38.346  20.720   2.365
40461W        W 5941  43.839  30.108  14.014
40462W        W 5942  14.156  26.663   5.286
40463W        W 5943   0.280  26.628  13.859
40464W        W 5944  12.181  39.940   0.448
40465W        W 5945  18.077  25.065   5.221
40466W        W 5946   8.223  32.450  12.386
40467W        W 5947  24.701  11.707   4.298
40468W        W 5948   0.970  34.005  10.141
40469W        W 5949  34.950   7.717   1.330
40470W        W 5950  29.623  38.547   2.254
40471W        W 5951   0.926  21.024   2.374
40472W        W 5952  16.735  20.232  10.978
40473W        W 5953   0.305  21.690  14.404
40474W        W 5954  30.480  31.008  14.782
40475W        W 5955   0.765  27.077  13.031
40476W        W 5956  33.522   1.874   5.304
40477W        W 5957  25.177   7.300  10.930
40478W        W 5958  23.601  25.151   2.188
40479W        W 5959  11.356  22.020  12.440
40480W        W 5960   1.314  32.941   1.786
40481W        W 5961  34.381  12.701   1.810
40482W        W 5962  44.305   6.837  12.579
40483W        W 5963  12.621  15.277  10.002
40484W        W 5964  36.415  29.542   5.130
40485W        W 5965  28.030  19.655  11.995
40486W        W 5966  14.227  30.628   2.365
40487W        W 5967  25.037  31.440  10.493
40488W        W 5968  16.183  27.045  11.391
40489W        W 5969  11.751  11.715  14.881
40490W        W 5970   0.940  27.626  12.972
40491W        W 5971   8.179   9.160   1.333
40492W        W 5972  21.685  42.896  13.424
40493W        W 5973  34.379  31.983   3.734
40494W        W 5974  31.112  37.550   5.138
40495W        W 5975   2.774  18.546   2.280
40496W        W 5976  31.136  33.574  10.529
40497W        W 5977  27.976  35.513   2.800
40498W        W 5978  25.672   1.754   0.848
40499W        W 5979  30.497  44.987   4.804
40500W        W 5980  43.881   9.664  10.505
40501W        W 5981  44.462  16.799   1.842
40502W        W 5982  20.562  24.006  14.354
40503W        W 5983  34.460  32.103   5.135
40504W        W 5984  15.295  44.346   1.872
40505W        W 5985  38.075   9.384  12.913
40506W        W 5986  34.444  19.184   1.833
40507W        W 5987  17.740  17.588  11.393
40508W        W 5988   1.905  15.604   1.316
40509W        W 5989  10.834   6.272   0.883
40510W        W 5990  31.910  34.081   0.854
40511W        W 5991   5.710  42.846   4.777
40512W        W 5992  29.968   5.306  12.553
40513W        W 5993  22.680  17.292   0.332
40514W        W 5994   3.435  38.526  11.048
40515W        W 5995   4.906  37.579  11.605
40516W        W 5996  23.498   0.966   2.813
40517W        W 5997  27.553  27.070  12.578
40518W        W 5998  25.026  18.707  10.579
40519W        W 5999  28.156  39.365  14.848
40520W        W 6000  29.584  26.521  10.547
40521W        W 6001  18.266  34.048   3.148
40522W        W 6002  40.824  15.649  14.315
40523W        W 6003  43.389  19.247   1.309
40524W        W 6004  39.394  34.572  12.978
40525W        W 6005   9.158  26.550  11.565
40526W        W 6006  32.405   4.803  10.052
40527W        W 6007  31.975  13.693   3.697
40528W        W 6008  42.385  12.633   3.684
40529W        W 6009  32.427  44.283  12.882
40530W        W 6010  18.711  31.029  11.599
40531W        W 6011  44.765  18.149  12.500
40532W        W 6012   9.829  12.800   2.207
40533W        W 6013  36.588  37.922  13.458
40534W        W 6014   5.313  14.693   2.844
40535W        W 6015   8.746  18.125   1.890
40536W        W 6016   5.767   4.882  14.357
40537W        W 6017  43.787   2.871  10.432
40538W        W 6018  36.850  37.366  10.970
40539W        W 6019  42.855  39.058   1.833
40540W        W 6020  35.014  24.489   3.834
40541W        W 6021   1.906  10.852   0.808
40542W        W 6022  10.666   4.442   0.881
40543W        W 6023  10.230   0.857   3.213
40544W        W 6024  17.293   2.929   2.235
40545W        W 6025   7.679  14.700   1.852
40546W        W 6026  23.557  32.092  12.026
40547W        W 6027   3.889   6.698  14.818
40548W        W 6028  39.473  19.230  13.497
40549W        W 6029   6.367  38.451  12.478
40550W        W 6030   1.962  29.922  11.470
40551W        W 6031  19.689  36.879   1.335
40552W        W 6032  20.610   3.452   5.168
40553W        W 6033  23.119  31.951   3.177
40554W        W 6034  12.663  22.529  11.501
40555W        W 6035  22.134  24.712  13.395
40556W        W 6036   4.893  22.250  11.033
40557W        W 6037   0.468   0.768  12.018
40558W        W 6038  27.501  41.015  11.409
40559W        W 6039  38.924  18.295  10.418
40560W        W 6040   7.315  36.551   3.783
40561W        W 6041   5.881  40.865  13.030
40562W        W 6042  34.067  11.168   3.350
40563W        W 6043  36.582  41.533   1.444
40564W        W 6044  20.159  21.024   2.347
40565W        W 6045  25.664  17.308   0.858
40566W        W 6046  39.392  38.408   1.847
40567W        W 6047  44.856  13.798  12.506
40568W        W 6048  43.270  13.232   4.776
40569W        W 6049  24.016  10.748   4.269
40570W        W 6050  37.892  25.124   3.654
40571W        W 6051  19.543  33.037  14.336
40572W        W 6052  41.835   8.771  13.337
40573W        W 6053  12.725  27.506  12.041
40574W        W 6054  16.695   1.947   4.819
40575W        W 6055   2.762  40.948   2.719
40576W        W 6056  11.861  36.479  13.505
40577W        W 6057  31.579  25.558   3.673
40578W        W 6058  11.339   6.725   0.943
40579W        W 6059  36.417  19.160   4.620
40580W        W 6060  39.333  34.460  11.996
40581W        W 6061  18.165  39.538   2.881
40582W        W 6062   0.924  29.646  12.391
40583W        W 6063  42.318  26.495   1.765
40584W        W 6064   7.289  22.622  12.847
40585W        W 6065   0.750  12.829   0.967
40586W        W 6066  39.963   0.914   3.328
40587W        W 6067   1.288  15.728  14.894
40588W        W 6068  15.251  22.690  13.526
40589W        W 6069  34.566  30.000  11.908
40590W        W 6070  36.395  22.585  11.887
40591W        W 6071  41.515  14.144  11.377
40592W        W 6072   4.338   5.364  13.508
40593W        W 6073  21.624  16.096   2.264
40594W        W 6074  39.478  37.508   0.463
40595W        W 6075   1.909  43.951  12.879
40596W        W 6076  13.760  28.165  14.375
40597W        W 6077  27.618  30.069   0.288
40598W        W 6078   2.301  10.361  14.305
40599W        W 6079  21.693  38.395  11.967
40600W        W 6080  26.471  39.854   1.216
40601W        W 6081   9.380  31.412  14.326
40602W        W 6082  14.783   9.396   2.328
40603W        W 6083  27.022  11.313  14.811
40604W        W 6084  31.055  38.834  14.021
40605W        W 6085  41.856  30.989   3.347
40606W        W 6086  34.077  25.167   1.365
40607W        W 6087  32.928  38.029   3.845
40608W        W 6088  36.567  30.462   0.769
40609W        W 6089  34.441  40.546   1.279
40610W        W 6090  39.516   3.248   3.697
40611W        W 6091  36.381  19.569   0.922
40612W        W 6092  27.988  12.309  14.934
40613W        W 6093  28.107  26.555  11.122
40614W        W 6094  37.024  15.292   1.264
40615W        W 6095  40.980  23.719  11.592
40616W        W 6096  10.252  16.078  12.081
40617W        W 6097  33.087   7.366  12.494
40618W        W 6098   7.191  36.917  12.961
40619W        W 6099  22.107  31.500  13.488
40620W        W 6100   7.412   8.224  10.940
40621W        W 6101   8.380  13.624  13.454
40622W        W 6102  18.592  40.383   0.482
40623W        W 6103   8.732   9.311   3.180
40624W        W 6104  36.990  18.086   0.858
40625W        W 6105  25.024   7.311  10.606
40626W        W 6106  39.456  16.727   4.660
40627W        W 6107   7.681  17.249   0.447
40628W        W 6108  42.837  29.036  13.932
40629W        W 6109  13.686  42.366   1.246
40630W        W 6110  27.980  15.269   0.482
40631W        W 6111  12.269  15.598   4.730
40632W        W 6112  30.515  35.083  11.087
40633W        W 6113   4.419  21.073  10.895
40634W        W 6114  18.170   6.390  12.965
40635W        W 6115   7.799  41.360   2.884
40636W        W 6116  44.810  35.972   2.827
40637W        W 6117  35.038  37.363   0.426
40638W        W 6118   7.761   0.377  14.429
40639W        W 6119  11.845  26.697   3.384
40640W        W 6120  38.984  17.559   0.450
40641W        W 6121  12.147  17.702  12.547
40642W        W 6122  35.404  14.798  14.831
40643W        W 6123   6.682  21.235   2.815
40644W        W 6124  14.298  37.908   0.328
40645W        W 6125  20.090  19.673   1.882
40646W        W 6126   9.383  27.677  13.350
40647W        W 6127  16.680  32.555   1.313
40648W        W 6128  11.776  14.212  14.324
40649W        W 6129   6.380  15.246   4.723
40650W        W 6130  18.201  20.036  13.861
40651W        W 6131   4.228  23.500  12.992
40652W        W 6132  28.658  24.716   4.318
40653W        W 6133  24.567  41.020  13.867
40654W        W 6134  33.432  34.482   2.822
40655W        W 6135  10.238  19.135   0.318
40656W        W 6136  17.251  15.236   3.240
40657W        W 6137  37.845  19.719   2.236
40658W        W 6138  42.422  32.139  14.874
40659W        W 6139  29.118  25.528   3.806
40660W        W 6140  40.993  25.503  13.867
40661W        W 6141   1.912  18.211   3.147
40662W        W 6142  29.621  35.468   1.881
40663W        W 6143  35.026   8.258   3.686
40664W        W 6144  32.415  27.174   2.850
40665W        W 6145  32.506   4.815   3.810
40666W        W 6146  40.032  41.418   4.199
40667W        W 6147  39.975  16.801  14.019
40668W        W 6148  35.901  31.466  12.854
40669W        W 6149  39.378  14.620   0.854
40670W        W 6150  20.246  37.903   1.359
40671W        W 6151  24.584  21.661   2.839
40672W        W 6152  11.745  38.989  13.955
40673W        W 6153   1.369  26.521   4.156
40674W        W 6154  19.716  31.557  11.561
40675W        W 6155   6.851  18.143  14.387
40676W        W 6156  10.349  35.589   5.136
40677W        W 6157  18.170  24.144   1.835
40678W        W 6158  31.638  36.582   4.801
40679W        W 6159   0.860   6.730   4.145
40680W        W 6160  26.564   4.712  10.916
40681W        W 6161  21.207   9.170  12.423
40682W        W 6162  30.064  20.242  12.089
40683W        W 6163   1.782  33.062  11.896
40684W        W 6164  11.656  13.241  14.774
40685W        W 6165  42.886   1.904   0.767
40686W        W 6166  34.398  16.137  14.512
40687W        W 6167  28.012  27.464  10.543
40688W        W 6168  25.107  36.930   3.304
40689W        W 6169  35.429  13.655  14.336
40690W        W 6170  10.653  13.777   0.779
40691W        W 6171  26.555  38.473  13.416
40692W        W 6172  14.724  23.626   2.202
40693W        W 6173  17.167  37.404   4.153
40694W        W 6174   6.850   2.739  13.026
40695W        W 6175  27.484   0.250  12.920
40696W        W 6176  34.381  18.245  12.838
40697W        W 6177   9.195   6.911   0.478
40698W        W 6178   6.755   8.867   2.179
40699W        W 6179  37.426  44.932  14.924
40700W        W 6180  32.090  16.204   4.253
40701W        W 6181  37.077   1.910   2.832
40702W        W 6182  29.025  40.460   2.373
40703W        W 6183  31.010  28.636   3.637
40704W        W 6184  43.868  29.972  12.481
40705W        W 6185   4.768  40.993   2.189
40706W        W 6186  33.435  30.492   0.954
40707W        W 6187  14.169  31.549   2.669
40708W        W 6188  39.343  18.578   1.286
40709W        W 6189   4.918   1.238  11.875
40710W        W 6190   1.410  31.600  14.831
40711W        W 6191  39.976  12.228  12.886
40712W        W 6192  27.513  11.674   4.267
40713W        W 6193  13.195  36.055  13.888
40714W        W 6194  33.974   6.249   4.211
40715W        W 6195  42.018  34.939  10.957
40716W        W 6196  41.500  34.909  13.460
40717W        W 6197  28.664  12.120   0.782
40718W        W 6198   2.417  29.115  11.557
40719W        W 6199   0.972  31.456  13.324
40720W        W 6200  21.206  32.113   1.742
40721W        W 6201  32.477  21.700  11.090
40722W        W 6202  17.084  20.660  11.419
40723W        W 6203  41.972  33.889  13.802
40724W        W 6204  32.402  11.821  11.505
40725W        W 6205  14.145  10.326  10.642
40726W        W 6206  42.475   9.196   2.790
40727W        W 6207  19.722  27.053  12.071
40728W        W 6208  28.638  23.181  11.399
40729W        W 6209   8.801  22.650   1.326
40730W        W 6210  38.891  19.083   1.933
40731W        W 6211  25.092  28.096  12.474
40732W        W 6212  44.860  22.670  10.643
40733W        W 6213  37.467   6.373  13.547
40734W        W 6214  27.024  15.675  14.473
40735W        W 6215  33.978   6.200   3.283
40736W        W 6216  27.147  35.903  12.557
40737W        W 6217  27.956  26.503  13.874
40738W        W 6218  37.579  43.415  14.339
40739W        W 6219  32.022  19.141  13.937
40740W        W 6220  13.238  13.760   1.852
40741W        W 6221   2.361  16.298   0.803
40742W        W 6222  29.968  30.132   1.718
40743W        W 6223  23.519   3.269  12.063
40744W        W 6224  13.759  26.592   4.788
40745W        W 6225  39.472  41.960   3.386
40746W        W 6226   9.832  19.278  10.526
40747W        W 6227  42.486  20.170   1.449
40748W        W 6228  20.699  34.399   4.254
40749W        W 6229  28.476  10.374   3.808
40750W        W 6230  35.016  33.940   0.867
40751W        W 6231  39.900  41.803   3.362
40752W        W 6232  21.635   2.346  13.344
40753W        W 6233  21.255  33.404   2.788
40754W        W 6234  10.261  44.915  14.014
40755W        W 6235  40.873  20.572   9.644
40756W        W 6236  24.571  12.132  13.385
40757W        W 6237  37.895  44.327  13.927
40758W        W 6238  15.303  36.032   1.753
40759W        W 6239  18.225  23.151   1.351
40760W        W 6240  10.260  38.415   2.841
40761W        W 6241  21.253  18.578  11.992
40762W        W 6242  36.963  10.791   0.348
40763W        W 6243   7.395  43.417  11.426
40764W        W 6244  41.354  41.943  11.045
40765W        W 6245  10.635  37.442   4.135
40766W        W 6246  28.981  44.395  11.583
40767W        W 6247  22.595  27.634  12.379
40768W        W 6248  30.969  36.953   3.842
40769W        W 6249  22.114   9.769   3.745
40770W        W 6250  18.055  38.562   4.760
40771W        W 6251  39.966  33.079  11.575
40772W        W 6252  21.535  23.124  12.883
40773W        W 6253  19.715   5.429  14.775
40774W        W 6254  15.288   4.377  10.893
40775W        W 6255  24.067  29.102   0.774
40776W        W 6256  37.851   5.826  10.888
40777W        W 6257  15.741  43.314  11.602
40778W        W 6258  10.808   3.360  12.450
40779W        W 6259  30.630  28.600  12.454
40780W        W 6260  14.158   5.743   0.925
40781W        W 6261  33.048  36.552   2.195
40782W        W 6262  24.153   1.965   2.250
40783W        W 6263  37.867   2.847   2.286
40784W        W 6264   4.253   4.852  14.463
40785W        W 6265  31.463  38.073  11.050
40786W        W 6266  15.777  14.133   0.318
40787W        W 6267  40.912  22.540  13.827
40788W        W 6268   0.254   2.236  12.083
40789W        W 6269  28.095  23.518   3.835
40790W        W 6270  23.031  38.445  13.973
40791W        W 6271  16.081   9.259  11.045
40792W        W 6272  16.114   7.306   0.390
40793W        W 6273  37.493  15.685  10.512
40794W        W 6274  33.578  37.497  10.035
40795W        W 6275  44.505  32.126  10.934
40796W        W 6276  11.328  35.586  14.380
40797W        W 6277  21.522  26.996  14.433
40798W        W 6278  42.516  40.852   1.223
40799W        W 6279   5.403   8.790  10.528
40800W        W 6280  37.967  10.145   4.600
40801W        W 6281  33.535   3.733  13.045
40802W        W 6282  28.097   9.376   4.230
40803W        W 6283  17.118  19.750  11.536
40804W        W 6284   7.340  33.597   3.768
40805W        W 6285  17.210  16.733   0.928
40806W        W 6286  23.598  10.668  12.055
40807W        W 6287  44.952  34.043   2.272
40808W        W 6288  34.874  26.643  12.373
40809W        W 6289  32.120  15.279  14.949
40810W        W 6290  11.218   1.359   2.351
40811W        W 6291  27.070  27.140  13.880
40812W        W 6292  26.481  40.432  13.867
40813W        W 6293  31.056  42.821   1.820
40814W        W 6294  23.030  15.598  14.834
40815W        W 6295  15.747  41.810  10.143
40816W        W 6296  17.061  34.512   1.842
40817W        W 6297  35.382  23.640  14.887
40818W        W 6298  26.629  10.189   4.155
40819W        W 6299  28.679   5.927  13.812
40820W        W 6300  23.579  13.149  13.862
40821W        W 6301   5.243   4.300  14.940
40822W        W 6302  40.833  12.679   3.837
40823W        W 6303  20.060   0.940   5.286
40824W        W 6304  23.545  42.893   3.353
40825W        W 6305  15.300   7.808   4.350
40826W        W 6306   1.754   9.332  12.878
40827W        W 6307   0.865  22.059   1.927
40828W        W 6308  32.602   0.325   0.404
40829W        W 6309   9.825  42.989  13.926
40830W        W 6310  27.667  26.977   4.808
40831W        W 6311  26.631  21.622   1.393
40832W        W 6312   0.258   9.754  10.536
40833W        W 6313  38.968  21.227   2.246
40834W        W 6314  19.187  16.193   2.849
40835W        W 6315  27.077  32.911   4.702
40836W        W 6316  28.634  31.042  13.852
40837W        W 6317   9.337   0.475   2.287
40838W        W 6318  29.152  16.113   0.293
40839W        W 6319  39.333  19.167   0.454
40840W        W 6320  34.013  11.732   0.952
40841W        W 6321  25.200  38.488   0.324
40842W        W 6322   8.225  18.704  14.289
40843W        W 6323  20.607   2.375  11.573
40844W        W 6324  42.782  40.817   3.739
40845W        W 6325   4.367  13.292  12.082
40846W        W 6326  44.964  22.057  13.060
40847W        W 6327  18.206   1.735  14.284
40848W        W 6328  23.617  36.977   4.341
40849W        W 6329  16.789  32.508  12.426
40850W        W 6330  26.581  22.713   4.686
40851W        W 6331   5.785  35.931  10.592
40852W        W 6332  33.008  13.787  11.474
40853W        W 6333   5.295   8.720   0.266
40854W        W 6334  38.840  30.521  10.546
40855W        W 6335  22.712   0.441   4.240
40856W        W 6336  12.202   6.231   4.820
40857W        W 6337  38.066   7.829   0.758
40858W        W 6338  25.012  30.987  12.094
40859W        W 6339  16.759   9.846  10.495
40860W        W 6340  44.997  39.518   1.747
40861W        W 6341  25.183  12.833  13.036
40862W        W 6342   8.807  30.938  12.357
40863W        W 6343  43.949  35.573  11.574
40864W        W 6344  14.299   2.242  11.981
40865W        W 6345   6.418   9.888  11.376
40866W        W 6346   2.301   7.782   4.721
40867W        W 6347  15.778  35.481  13.381
40868W        W 6348  41.002  23.611   3.255
40869W        W 6349   4.805  37.966  11.037
40870W        W 6350  23.141  10.686  14.011
40871W        W 6351   4.850  17.246   3.687
40872W        W 6352   5.213  39.978  10.595
40873W        W 6353  42.922  30.950   4.161
40874W        W 6354  32.474  29.092   5.165
40875W        W 6355  10.740  19.553   3.739
40876W        W 6356   6.825   4.821   3.781
40877W        W 6357  31.096  11.836   2.213
40878W        W 6358  14.333  29.462   3.868
40879W        W 6359  19.040  10.830  13.491
40880W        W 6360  22.705   7.264   4.188
40881W        W 6361  32.611  38.889  12.569
40882W        W 6362  36.960   8.759   2.796
40883W        W 6363  34.949  41.534  10.605
40884W        W 6364  22.164  24.617  11.927
40885W        W 6365  23.064  39.018   3.828
40886W        W 6366  43.383  17.133   2.409
40887W        W 6367  11.333   4.324   2.207
40888W        W 6368   6.369   9.182   3.342
40889W        W 6369   6.825  20.112  10.644
40890W        W 6370  28.586  35.524  11.603
40891W        W 6371   9.380  18.089   2.822
40892W        W 6372  39.366  27.491   3.718
40893W        W 6373  29.951  31.954   0.293
40894W        W 6374  25.496  34.495  10.556
40895W        W 6375  20.210  36.918   1.371
40896W        W 6376  27.122  41.884  11.993
40897W        W 6377  29.995  28.090  11.465
40898W        W 6378  13.339  19.759  13.477
40899W        W 6379   4.834   4.908   4.219
40900W        W 6380  19.666  16.738  13.905
40901W        W 6381  24.715  40.356  14.003
40902W        W 6382   2.281  39.491   0.921
40903W        W 6383  44.381  10.255   0.923
40904W        W 6384  33.004   4.405   0.909
40905W        W 6385  33.477  36.021  10.506
40906W        W 6386  21.232  41.860  10.966
40907W        W 6387   8.181  39.346  13.799
40908W        W 6388  37.920  32.069  14.456
40909W        W 6389  41.515  41.350   4.772
40910W        W 6390  25.644  29.175  13.032
40911W        W 6391  38.498   6.836  12.388
40912W        W 6392  42.450  42.837  13.332
40913W        W 6393  29.970  24.628  12.462
40914W        W 6394   9.217  37.454   0.871
40915W        W 6395  20.750  34.969   1.926
40916W        W 6396  29.614  27.044  14.976
40917W        W 6397  11.743   4.371  13.907
40918W        W 6398   2.273  26.674  10.589
40919W        W 6399  44.904  11.662   1.270
40920W        W 6400   1.460  25.667   4.272
40921W        W 6401  39.361  32.423   3.677
40922W        W 6402  37.462  40.999  13.928
40923W        W 6403  42.469  14.200   3.727
40924W        W 6404  28.057  39.363  10.467
40925W        W 6405  38.912   6.385   2.366
40926W        W 6406  15.108   0.888  10.467
40927W        W 6407  13.788  28.589   1.215
40928W        W 6408  23.104  38.915   0.428
40929W        W 6409  35.541  26.624   0.760
40930W        W 6410  31.574  10.305   1.284
40931W        W 6411  40.904   5.870   0.911
40932W        W 6412  24.504  32.101  11.430
40933W        W 6413  14.790  34.019  14.817
40934W        W 6414   1.403  15.273   3.216
40935W        W 6415  35.433   1.472   3.364
40936W        W 6416  44.926  25.496   4.807
40937W        W 6417  39.341  37.893   0.419
40938W        W 6418  30.596  14.757   3.658
40939W        W 6419  17.181  31.460  13.438
40940W        W 6420  41.379  29.670  13.882
40941W        W 6421  41.471  28.591  12.397
40942W        W 6422  24.162  31.530   1.236
40943W        W 6423  14.755  21.566   0.370
40944W        W 6424  36.538  42.796   0.928
40945W        W 6425  39.353  10.820  13.800
40946W        W 6426  19.539  29.169  14.279
40947W        W 6427  17.225  43.512  11.948
40948W        W 6428  40.828  38.394   0.874
40949W        W 6429   3.332   7.855  12.372
40950W        W 6430   0.929  24.555  11.510
40951W        W 6431   4.847  17.146  12.512
40952W        W 6432  40.493  20.215  13.335
40953W        W 6433   4.715  44.810  13.993
40954W        W 6434  17.585  30.086  10.612
40955W        W 6435  18.777  42.893  12.023
40956W        W 6436  43.853  28.439  14.898
40957W        W 6437  20.105  26.472  14.495
40958W        W 6438  15.153  44.348  12.468
40959W        W 6439   3.869   3.276   3.835
40960W        W 6440  10.692  41.852  13.883
40961W        W 6441  27.474  41.837  13.818
40962W        W 6442   0.478   5.817   1.434
40963W        W 6443  14.288  23.508  11.462
40964W        W 6444  18.591  34.606   0.415
40965W        W 6445  22.622  38.416   3.819
40966W        W 6446  42.319  27.163  13.477
40967W        W 6447   4.258  18.600  13.053
40968W        W 6448  16.311   3.933   3.806
40969W        W 6449  31.152  24.555  10.924
40970W        W 6450  13.783  34.872  14.506
40971W        W 6451  15.612  16.813   2.767
40972W        W 6452  12.182  19.545  12.430
40973W        W 6453  31.901  16.780   2.757
40974W        W 6454   0.794  42.354   2.790
40975W        W 6455  24.032  29.486  13.947
40976W        W 6456  11.150  12.164  14.759
40977W        W 6457   6.767  22.574   3.254
40978W        W 6458  21.581   5.811   2.782
40979W        W 6459  22.734  26.068   4.336
40980W        W 6460  39.959  17.695  13.326
40981W        W 6461  35.548   1.239  11.393
40982W        W 6462  41.878  34.609  14.290
40983W        W 6463   2.280  18.160   2.844
40984W        W 6464  21.713  21.027   1.769
40985W        W 6465   2.954  13.709  13.363
40986W        W 6466  23.588  11.801  12.410
40987W        W 6467  41.483  29.492  12.574
40988W        W 6468  34.421  23.221  10.900
40989W        W 6469  11.186  33.067  10.555
40990W        W 6470  13.169   6.206   1.769
40991W        W 6471  26.674  27.579  11.490
40992W        W 6472   3.833  34.458   1.807
40993W        W 6473  13.628  27.621   3.651
40994W        W 6474   5.332   7.417   0.316
40995W        W 6475  21.139  40.835   3.697
40996W        W 6476  43.951   4.906  12.530
40997W        W 6477  42.984   1.922  11.375
40998W        W 6478  30.417   5.721  14.937
40999W        W 6479  10.732  20.744   2.270
41000W        W 6480  43.983   5.853   4.666
41001W        W 6481  16.753   3.244   1.709
41002W        W 6482  13.678  26.051   1.717
41003W        W 6483  37.986   5.787   1.288
41004W        W 6484   5.714  21.210  10.156
41005W        W 6485  25.012  25.519   2.266
41006W        W 6486  43.958  14.640   0.418
41007W        W 6487   3.357   1.755   0.913
41008W        W 6488  36.572  18.082  13.816
41009W        W 6489   0.979  44.984  13.392
41010W        W 6490  23.009  19.220  12.389
41011W        W 6491  18.248  25.524   5.633
41012W        W 6492   8.371  11.776  14.356
41013W        W 6493  33.922  14.643   0.776
41014W        W 6494  35.471  41.800  12.460
41015W        W 6495  16.115  20.638  14.304
41016W        W 6496  29.045  26.041   3.671
41017W        W 6497  30.609   1.283  13.818
41018W        W 6498  22.606  39.860  13.477
41019W        W 6499   1.346  37.378  10.493
41020W        W 6500  38.827   1.280  12.077
41021W        W 6501  35.978  10.698  12.009
41022W        W 6502  35.962  32.943  12.435
41023W        W 6503  40.935  28.655   4.692
41024W        W 6504   8.392  16.259  14.877
41025W        W 6505  23.086  14.751  10.468
41026W        W 6506  16.770  18.112  14.440
41027W        W 6507   3.867  12.834  10.483
41028W        W 6508  17.786  35.952  12.972
41029W        W 6509  10.729  12.340  13.530
41030W        W 6510   0.474  41.799  14.966
41031W        W 6511  27.683  20.272  13.925
41032W        W 6512  33.626   9.335  13.873
41033W        W 6513  19.663  44.263   3.332
41034W        W 6514   0.337  41.976  11.969
41035W        W 6515  17.578  22.503   3.680
41036W        W 6516  20.113   2.395   4.260
41037W        W 6517  17.607  12.343   0.743
41038W        W 6518  14.120   5.371   0.339
41039W        W 6519  40.998  35.424  10.442
41040W        W 6520  42.822   5.241  14.368
41041W        W 6521  11.346  22.660   3.670
41042W        W 6522  42.285  33.438   3.152
41043W        W 6523  24.175  25.170   9.988
41044W        W 6524  18.778   5.838   4.313
41045W        W 6525  43.770  36.037   1.822
41046W        W 6526  16.152   4.709  14.818
41047W        W 6527  22.069  20.187   0.758
41048W        W 6528   8.329   1.361   4.790
41049W        W 6529   3.810  24.167  11.890
41050W        W 6530  15.194  11.340  10.568
41051W        W 6531  18.755  30.616  14.277
41052W        W 6532   4.776  40.838   3.332
41053W        W 6533  39.037   8.363  11.452
41054W        W 6534  38.437  38.933   1.307
41055W        W 6535  16.267  20.572   4.674
41056W        W 6536  10.823   7.314  12.927
41057W        W 6537  32.999  31.152  11.124
41058W        W 6538  12.176  34.978  14.315
41059W        W 6539  41.907   5.706   2.394
41060W        W 6540  38.863  36.841  11.602
41061W        W 6541  11.349  11.852   4.194
41062W        W 6542  31.637  44.799   1.334
41063W        W 6543  24.052  32.398   4.627
41064W        W 6544  24.715  26.163   3.698
41065W        W 6545  28.637  36.471  13.806
41066W        W 6546   4.241  10.297   2.735
41067W        W 6547  31.006   1.335  12.054
41068W        W 6548  13.146  21.683   3.804
41069W        W 6549  40.822  30.613   0.277
41070W        W 6550  24.093  17.276   4.255
41071W        W 6551  12.672  40.888  11.494
41072W        W 6552   9.818  23.644  12.931
41073W        W 6553  27.164  11.856  11.870
41074W        W 6554  36.990   6.355   4.683
41075W        W 6555  36.010   6.284  12.070
41076W        W 6556  41.331  42.296  10.587
41077W        W 6557  36.375  29.939  10.928
41078W        W 6558   7.904  27.636   1.859
41079W        W 6559   3.836  40.357   1.718
41080W        W 6560   4.395  43.913   2.763
41081W        W 6561  39.042  12.313   3.849
41082W        W 6562  24.691  44.993  13.805
41083W        W 6563  36.413   0.915   3.664
41084W        W 6564  25.050  43.293  12.983
41085W        W 6565  24.999  37.541   3.658
41086W        W 6566  19.641   9.804   0.284
41087W        W 6567  34.915  11.849   1.385
41088W        W 6568  16.748   0.766  10.587
41089W        W 6569  25.518  41.318  14.420
41090W        W 6570  14.648  29.924  11.977
41091W        W 6571  13.818  23.001   3.201
41092W        W 6572   9.826  20.057   1.925
41093W        W 6573  18.579  42.450   3.756
41094W        W 6574  29.101   9.871   4.159
41095W        W 6575  41.833  24.723   0.907
41096W        W 6576   1.306  31.070  13.366
41097W        W 6577  10.307  34.952   2.666
41098W        W 6578   9.859  44.920   3.247
41099W        W 6579  10.804  27.047   4.124
41100W        W 6580  19.094  16.811  13.015
41101W        W 6581   3.751  19.574   4.262
41102W        W 6582  44.415  31.491   2.396
41103W        W 6583  11.791   1.964   4.200
41104W        W 6584   0.278   1.800  14.281
41105W        W 6585  18.169  21.162  11.516
41106W        W 6586  39.065   5.930  12.473
41107W        W 6587   8.840  38.975   1.253
41108W        W 6588  11.161  42.381   1.754
41109W        W 6589   9.286   7.198  13.871
41110W        W 6590  10.870   9.660  12.940
41111W        W 6591  18.273   2.848  13.015
41112W        W 6592   9.760  37.517  13.489
41113W        W 6593  33.937  24.015  11.558
41114W        W 6594  28.127   3.378  11.998
41115W        W 6595  36.545  10.313   0.475
41116W        W 6596  24.096  25.643   3.289
41117W        W 6597  26.477  40.437  13.442
41118W        W 6598  16.161  26.650  14.852
41119W        W 6599  23.143  11.346  13.404
41120W        W 6600  27.166  26.161   2.231
41121W        W 6601  35.997  36.930   2.336
41122W        W 6602  15.310  34.917  14.286
41123W        W 6603  11.776  31.900   3.358
41124W        W 6604  40.854  26.005   2.765
41125W        W 6605  28.585  21.229   0.787
41126W        W 6606  23.102  36.501   1.317
41127W        W 6607  33.444  11.856  14.819
41128W        W 6608  30.445  13.648   4.752
41129W        W 6609  44.975  28.482  14.800
41130W        W 6610  10.349   7.743  14.510
41131W        W 6611  15.232  21.234  10.989
41132W        W 6612  35.525  32.074  12.454
41133W        W 6613  33.470  34.408  10.001
41134W        W 6614  25.008  26.562   1.927
41135W        W 6615  28.475  33.029   4.656
41136W        W 6616  25.638  39.851   1.905
41137W        W 6617  17.578   5.343  14.941
41138W        W 6618   1.751  19.606   0.480
41139W        W 6619  35.497  13.204  13.412
41140W        W 6620  12.170   1.976  13.903
41141W        W 6621  19.577  24.206  11.856
41142W        W 6622   9.881  14.155  10.606
41143W        W 6623  24.076  30.618   1.703
41144W        W 6624  37.532  43.384  14.862
41145W        W 6625  29.130  13.226   4.207
41146W        W 6626   0.830  43.818  11.105
41147W        W 6627   4.728  28.491   4.598
41148W        W 6628  41.862   4.715  12.927
41149W        W 6629  28.609  13.175  12.930
41150W        W 6630  29.561  11.344  12.040
41151W        W 6631  10.366   9.644  12.424
41152W        W 6632  10.798  15.239   4.773
41153W        W 6633  17.303  14.620   0.855
41154W        W 6634  32.968  25.205  11.917
41155W        W 6635  34.093  11.196  12.963
41156W        W 6636  35.010  38.919   3.189
41157W        W 6637  36.046  38.466   2.207
41158W        W 6638   2.743  10.261   0.342
41159W        W 6639  34.912   0.867   3.851
41160W        W 6640  22.229  26.207  12.976
41161W        W 6641   8.859  39.854  14.950
41162W        W 6642  35.426  24.546  14.455
41163W        W 6643  20.135  36.864   0.306
41164W        W 6644  37.898  31.413  14.823
41165W        W 6645  11.743  23.148   0.389
41166W        W 6646  11.187  16.299   2.396
41167W        W 6647  28.170   5.262   1.850
41168W        W 6648  38.968  29.458   0.435
41169W        W 6649  37.347  38.440   0.759
41170W        W 6650  30.518   4.736   0.251
41171W        W 6651   9.365  33.943   2.881
41172W        W 6652  20.677  21.546  10.539
41173W        W 6653  20.632  14.799   2.253
41174W        W 6654  29.159  25.052  14.464
41175W        W 6655  43.972  15.767  12.013
41176W        W 6656  31.979  13.842   0.242
41177W        W 6657  24.701   4.864   4.738
41178W        W 6658   4.923  30.506  13.836
41179W        W 6659   9.755  14.147   0.841
41180W        W 6660   0.341  44.800   1.449
41181W        W 6661  20.601  41.406   2.231
41182W        W 6662   2.260  21.164  14.903
41183W        W 6663  35.106  15.698  14.331
41184W        W 6664  19.705  12.848   1.718
41185W        W 6665  17.146   0.788   0.839
41186W        W 6666   3.929  33.510   3.688
41187W        W 6667  27.536  17.642   2.765
41188W        W 6668  24.559  14.135   3.724
41189W        W 6669  12.217  15.200  11.931
41190W        W 6670  16.139  30.414  12.968
41191W        W 6671   7.847  10.173  13.852
41192W        W 6672  12.151   3.361  13.859
41193W        W 6673  40.501   7.393   2.298
41194W        W 6674  19.695  16.805   2.899
41195W        W 6675  27.644  24.683  14.877
41196W        W 6676  30.912  43.470  12.019
41197W        W 6677   7.749  16.594   4.204
41198W        W 6678   5.397  43.953  13.864
41199W        W 6679  27.076  30.954   3.145
41200W        W 6680  37.564  12.271  10.945
41201W        W 6681  16.273  12.697   4.607
41202W        W 6682  11.863  34.537   1.280
41203W        W 6683   6.321  40.818   1.799
41204W        W 6684  15.270  35.452   1.886
41205W        W 6685   5.809  20.232  14.902
41206W        W 6686   7.364   5.733  14.496
41207W        W 6687  39.501   3.354  14.450
41208W        W 6688  40.546  14.744  13.507
41209W        W 6689  41.884  18.659   1.722
41210W        W 6690  32.924  28.122   2.416
41211W        W 6691  38.403  42.407   4.343
41212W        W 6692  24.002   4.227   2.851
41213W        W 6693  27.592   5.432  11.375
41214W        W 6694   8.292  10.313  13.025
41215W        W 6695  38.915   2.234  11.583
41216W        W 6696  41.356   9.172   3.684
41217W        W 6697  28.170  30.647  10.615
41218W        W 6698   5.234  26.191   3.832
41219W        W 6699  19.672  32.019  11.112
41220W        W 6700  43.860  33.088   4.710
41221W        W 6701  18.070  10.790  10.420
41222W        W 6702   5.264  41.428  13.516
41223W        W 6703   7.383  20.128   0.847
41224W        W 6704  15.589  28.538   2.852
41225W        W 6705   9.730  38.526   1.349
41226W        W 6706  43.448  42.522  14.840
41227W        W 6707  23.613  38.829   2.407
41228W        W 6708  20.165  37.039   4.673
41229W        W 6709  27.052  32.054  11.883
41230W        W 6710   4.916   2.403   0.279
41231W        W 6711  22.742  16.630  13.431
41232W        W 6712   9.861  36.089   2.842
41233W        W 6713   0.866  26.514  14.312
41234W        W 6714  41.997  15.716  14.032
41235W        W 6715  29.550  24.178   0.878
41236W        W 6716  15.212  13.280  14.349
41237W        W 6717   1.761   2.904   3.704
41238W        W 6718   5.797  25.632   4.173
41239W        W 6719  20.601  22.051  11.097
41240W        W 6720   4.757   3.317   9.929
41241W        W 6721   3.220  34.866  14.469
41242W        W 6722  37.567  24.024   1.830
41243W        W 6723  25.014   9.853  10.466
41244W        W 6724  20.185  39.541   2.870
41245W        W 6725   7.239  13.246   4.611
41246W        W 6726  20.039  33.394  14.801
41247W        W 6727  14.233  31.971   3.659
41248W        W 6728   7.333  10.732   1.836
41249W        W 6729   6.682  23.018   2.826
41250W        W 6730   4.449  12.682  13.488
41251W        W 6731  36.938  16.112   4.814
41252W        W 6732  31.573  35.887   2.370
41253W        W 6733   2.945  32.484  13.421
41254W        W 6734   4.359   8.189   3.223
41255W        W 6735  37.019  12.141   0.426
41256W        W 6736  27.177  23.031  12.950
41257W        W 6737  18.718  38.917  10.124
41258W        W 6738  17.303  23.220   4.196
41259W        W 6739  24.517  28.497  11.969
41260W        W 6740  13.599   8.204  12.035
41261W        W 6741  17.159  35.023   2.418
41262W        W 6742  29.007  31.540  10.935
41263W        W 6743  21.640   6.771   2.790
41264W        W 6744  28.977   1.754  12.458
41265W        W 6745  11.204   3.304   3.152
41266W        W 6746  19.729  29.061  11.915
41267W        W 6747  13.648  39.877   2.397
41268W        W 6748   5.753  43.347   3.190
41269W        W 6749  25.582  16.105  13.354
41270W        W 6750  42.945  12.718   4.192
41271W        W 6751  24.074  13.649   0.754
41272W        W 6752  33.098  39.906  11.432
41273W        W 6753  38.849  15.216   5.231
41274W        W 6754   2.294  10.344   2.818
41275W        W 6755  18.142  22.206  12.550
41276W        W 6756  13.272   6.872   2.304
41277W        W 6757   1.963  30.499  12.072
41278W        W 6758   8.826  10.216   1.838
41279W        W 6759   1.769  35.549  12.468
41280W        W 6760  10.874  10.243  14.029
41281W        W 6761   6.700  10.766   1.890
41282W        W 6762  24.158   8.202  11.401
41283W        W 6763   2.452  11.369   1.340
41284W        W 6764   6.410  36.385  11.042
41285W        W 6765  29.466   9.872  11.011
41286W        W 6766  18.261   0.368  14.464
41287W        W 6767  34.438  27.184  14.844
41288W        W 6768   1.425  37.043  11.507
41289W        W 6769  10.312  21.240   5.104
41290W        W 6770  25.002  37.986  13.453
41291W        W 6771  34.885  22.214   0.843
41292W        W 6772  25.079  41.456   1.309
41293W        W 6773  35.448  42.385   4.770
41294W        W 6774  26.535  24.033  11.430
41295W        W 6775  37.838   9.695  11.390
41296W        W 6776  14.593   0.744   1.261
41297W        W 6777   2.407   3.338  12.545
41298W        W 6778  12.782   9.386  13.926
41299W        W 6779   6.296   7.786   0.343
41300W        W 6780  43.301  32.471   3.681
41301W        W 6781   7.771  29.605   0.434
41302W        W 6782  40.916  42.869   2.410
41303W        W 6783  28.173  40.410  12.038
41304W        W 6784  19.764  36.461  12.415
41305W        W 6785   9.368  37.975   0.331
41306W        W 6786  12.315  13.692  11.114
41307W        W 6787  22.664  31.108  11.521
41308W        W 6788   1.737  15.138  13.430
41309W        W 6789  34.993  44.799   1.320
41310W        W 6790  40.039  29.614   4.793
41311W        W 6791  35.366  20.627   1.286
41312W        W 6792  16.654  16.647   3.290
41313W        W 6793  16.706  44.862   0.936
41314W        W 6794  43.784  28.668   0.329
41315W        W 6795  34.548  41.373  12.866
41316W        W 6796  28.083  43.405   1.777
41317W        W 6797  10.768  29.427   3.703
41318W        W 6798  44.439  13.790   1.927
41319W        W 6799   2.731  12.289  11.926
41320W        W 6800  28.544  40.854  10.907
41321W        W 6801   7.861  42.938  13.474
41322W        W 6802  36.462  21.262   5.132
41323W        W 6803  27.525  33.551  14.304
41324W        W 6804  43.859  12.221   1.813
41325W        W 6805  12.613  32.141   4.245
41326W        W 6806  43.493  12.794  12.069
41327W        W 6807  41.311  17.296  11.455
41328W        W 6808  17.740  22.628  11.938
41329W        W 6809   0.771  15.668   1.902
41330W        W 6810  19.115  20.249  12.570
41331W        W 6811  29.544  27.987  12.543
41332W        W 6812  30.645  37.048   4.239
41333W        W 6813  35.896  43.803   1.787
41334W        W 6814   6.392  39.046  14.786
41335W        W 6815  35.061  26.605   1.908
41336W        W 6816  37.086  32.053   1.774
41337W        W 6817   8.269  20.701  13.027
41338W        W 6818  14.214   9.667   2.305
41339W        W 6819  37.950  41.031   2.242
41340W        W 6820  24.152  32.116   3.734
41341W        W 6821  16.272  34.059  13.802
41342W        W 6822  20.215  24.986  11.475
41343W        W 6823   6.253   0.929  11.906
41344W        W 6824  30.978  14.136   1.821
41345W        W 6825  31.035  21.262   5.125
41346W        W 6826  43.293  17.237   4.701
41347W        W 6827  43.019  11.149   3.281
41348W        W 6828  34.460  37.405  11.598
41349W        W 6829  11.280  23.568   0.940
41350W        W 6830  13.136   8.734  10.439
41351W        W 6831  42.967   0.331  12.065
41352W        W 6832  36.081  34.900   1.934
41353W        W 6833  41.935  24.530   4.150
41354W        W 6834   5.800   2.436   4.346
41355W        W 6835  40.385  37.338   0.771
41356W        W 6836  36.005  27.643   1.872
41357W        W 6837  42.381   0.378  12.550
41358W        W 6838  22.195  27.622   2.223
41359W        W 6839  17.240  16.173  10.953
41360W        W 6840  43.481   8.678  12.862
41361W        W 6841  15.282   6.263  12.885
41362W        W 6842  28.039   4.777  14.962
41363W        W 6843  35.110  39.337  14.827
41364W        W 6844   8.258  34.490   3.769
41365W        W 6845  30.113  27.455   1.285
41366W        W 6846  14.811  17.111  13.824
41367W        W 6847  14.793   4.797   2.902
41368W        W 6848  15.240  31.441   1.901
41369W        W 6849  14.297  34.080  14.987
41370W        W 6850  26.574  29.988  12.985
41371W        W 6851  19.644  36.006  10.952
41372W        W 6852  40.337  34.117   0.348
41373W        W 6853  37.566  30.953   0.933
41374W        W 6854   9.245   2.811  13.844
41375W        W 6855  21.537  17.559  12.518
41376W        W 6856  13.758  30.926  11.917
41377W        W 6857  35.570  42.503   3.807
41378W        W 6858   2.297  35.938   0.411
41379W        W 6859  40.978  25.033   2.680
41380W        W 6860   0.408  20.621  14.327
41381W        W 6861  39.893  17.760   2.275
41382W        W 6862  23.179  41.316   1.384
41383W        W 6863  26.658  16.580  12.877
41384W        W 6864  28.676  37.471   1.842
41385W        W 6865  15.180  13.719   2.180
41386W        W 6866   0.257  14.698  13.376
41387W        W 6867   4.298  32.392  11.079
41388W        W 6868  23.018  40.911  12.038
41389W        W 6869  39.871   9.661   4.691
41390W        W 6870  27.506  24.083   0.747
41391W        W 6871  42.336   1.303  13.000
41392W        W 6872  32.406  19.730  11.503
41393W        W 6873  32.543  43.289   4.623
41394W        W 6874  31.083  16.660   2.737
41395W        W 6875  23.626  29.566  14.802
41396W        W 6876  33.024  12.304   0.410
41397W        W 6877   9.179  30.539  11.980
41398W        W 6878  39.875  28.530  11.100
41399W        W 6879  28.037  18.719  13.525
41400W        W 6880  34.084  15.616  14.469
41401W        W 6881  29.034  18.050  11.592
41402W        W 6882  14.701   1.942  14.947
41403W        W 6883  12.206   2.894  13.050
41404W        W 6884  14.229   5.252  14.304
41405W        W 6885  21.229   0.304   2.793
41406W        W 6886   6.384  28.587   2.843
41407W        W 6887  33.623  36.086  11.383
41408W        W 6888  41.393  32.038  11.987
41409W        W 6889  36.482  20.584   3.695
41410W        W 6890  21.071  14.189   1.265
41411W        W 6891   5.724  26.166  14.921
41412W        W 6892  44.463   1.830   9.987
41413W        W 6893  38.559  27.642   2.348
41414W        W 6894  10.181  26.060  13.420
41415W        W 6895  20.259  15.818   3.798
41416W        W 6896  31.965  11.742  13.034
41417W        W 6897   5.926  23.628  12.022
41418W        W 6898  43.900  38.829   3.230
41419W        W 6899  37.435  23.152   3.719
41420W        W 6900   5.325  17.148  13.350
41421W        W 6901   4.435   9.692  13.806
41422W        W 6902  20.048  32.925  11.041
41423W        W 6903  15.647   4.791  12.919
41424W        W 6904  11.791  13.196   4.263
41425W        W 6905   3.428   5.282   2.186
41426W        W 6906  22.113  28.516  12.399
41427W        W 6907  44.334  31.128  13.489
41428W        W 6908  27.665  17.770  14.406
41429W        W 6909  35.552  23.581   2.819
41430W        W 6910  27.105  21.592   0.792
41431W        W 6911  10.193   8.657   0.389
41432W        W 6912   3.801   7.417   2.290
41433W        W 6913  26.547  14.590  14.886
41434W        W 6914  23.734  42.957  10.432
41435W        W 6915  42.478  31.429   3.376
41436W        W 6916  20.709  42.020   2.692
41437W        W 6917   0.443   6.229   4.329
41438W        W 6918  22.576  28.437   3.284
41439W        W 6919  19.671  21.028   4.718
41440W        W 6920  26.602  15.278   3.822
41441W        W 6921  24.165  27.056   1.430
41442W        W 6922  22.220  35.413   2.729
41443W        W 6923  20.542   5.250   0.917
41444W        W 6924  29.976  37.084  10.894
41445W        W 6925   9.340  17.786   0.347
41446W        W 6926  24.196  39.489  13.012
41447W        W 6927  26.174  37.503   2.232
41448W        W 6928  20.220  24.206  11.607
41449W        W 6929   0.886  28.567   1.787
41450W        W 6930   9.349   5.789  10.420
41451W        W 6931  19.067   7.363  12.899
41452W        W 6932   5.298  39.314   4.787
41453W        W 6933  35.585  18.165  13.953
41454W        W 6934   9.703  30.071   0.412
41455W        W 6935   6.780  34.083  13.954
41456W        W 6936  15.653  22.030  10.122
41457W        W 6937  28.507   9.336  14.443
41458W        W 6938  10.733  17.066  11.043
41459W        W 6939  25.575  30.507  12.484
41460W        W 6940  24.122   1.843   0.425
41461W        W 6941   4.778  43.327  10.956
41462W        W 6942  10.298  30.975  10.568
41463W        W 6943  33.047  10.644   1.839
41464W        W 6944   8.213  40.997  10.575
41465W        W 6945  35.876   8.270  11.400
41466W        W 6946  28.614  30.522   4.727
41467W        W 6947   5.356  13.254   3.240
41468W        W 6948   3.292   6.793  11.011
41469W        W 6949  33.516   0.468  10.052
41470W        W 6950  28.143   4.339   0.964
41471W        W 6951  22.194  20.249  13.906
41472W        W 6952  13.776  26.200  14.498
41473W        W 6953  41.024  22.642   1.932
41474W        W 6954  42.424   6.786  14.309
41475W        W 6955  19.711   0.826   4.664
41476W        W 6956  27.174  28.936  11.540
41477W        W 6957  14.257  35.927  13.474
41478W        W 6958  18.257   9.210  12.405
41479W        W 6959  35.038  31.002  11.390
41480W        W 6960   1.916   2.288  14.832
41481W        W 6961  24.488  14.636  13.984
41482W        W 6962  17.082  21.696  14.811
41483W        W 6963  24.497  29.144   4.746
41484W        W 6964   1.903  19.048   4.354
41485W        W 6965  37.049  28.102  13.963
41486W        W 6966   6.390  41.435   3.698
41487W        W 6967  44.307  14.152  14.908
41488W        W 6968   4.773   5.930  14.388
41489W        W 6969  34.582  17.650   2.383
41490W        W 6970  10.635  11.289  10.478
41491W        W 6971  44.365   8.798  13.312
41492W        W 6972  21.580  41.309  11.027
41493W        W 6973  26.063  36.923   0.741
41494W        W 6974  21.572  11.260  11.955
41495W        W 6975  11.761  10.692  10.592
41496W        W 6976  23.151  22.724   0.747
41497W        W 6977  33.956  14.260  13.390
41498W        W 6978   3.412  32.039   3.332
41499W        W 6979  40.823  39.391   0.812
41500W        W 6980  39.885  38.451   0.861
41501W        W 6981  41.872  39.435  13.021
41502W        W 6982  40.016  43.949  14.321
41503W        W 6983  12.736  19.131   2.778
41504W        W 6984  44.917   3.857  12.027
41505W        W 6985  33.510  21.159   3.765
41506W        W 6986  42.474  11.161  14.471
41507W        W 6987  16.301  22.620  13.527
41508W        W 6988   8.274  27.151   3.268
41509W        W 6989  41.997   0.435   2.683
41510W        W 6990  11.645   5.419  14.808
41511W        W 6991   1.436  32.473   1.283
41512W        W 6992  22.567   5.415  10.460
41513W        W 6993   9.157   5.424  11.544
41514W        W 6994   0.342  34.012   2.815
41515W        W 6995  22.016   9.698  11.012
41516W        W 6996  14.198  19.613  13.520
41517W        W 6997  43.292  20.178   3.379
41518W        W 6998   2.230  24.697  14.788
41519W        W 6999  39.355  20.643  14.921
41520W        W 7000  15.654   6.367  11.085
41521W        W 7001  17.734  35.946   1.833
41522W        W 7002  30.573  31.456   3.291
41523W        W 7003  25.486  16.289  14.892
41524W        W 7004   0.353  25.039   3.167
41525W        W 7005  35.535   7.763  12.399
41526W        W 7006  26.187   4.349   3.213
41527W        W 7007  15.321   3.343  13.370
41528W        W 7008  32.593  34.874   1.720
41529W        W 7009  43.340  26.176  13.821
41530W        W 7010   4.262  29.587  10.639
41531W        W 7011  38.891  18.237   4.829
41532W        W 7012   1.738   5.714   0.909
41533W        W 7013  14.175   3.928   2.363
41534W        W 7014  27.103  14.187   1.345
41535W        W 7015   1.937  24.509  10.977
41536W        W 7016  34.501  21.089  11.414
41537W        W 7017   4.247  24.074  11.116
41538W        W 7018  24.979  19.113  13.865
41539W        W 7019  10.345  20.618   2.835
41540W        W 7020   1.341   8.385  10.455
41541W        W 7021  13.344  20.535   2.883
41542W        W 7022   2.445  33.116  12.052
41543W        W 7023  25.624  42.985  14.883
41544W        W 7024  24.583  28.661  13.442
41545W        W 7025   7.251  28.099  10.624
41546W        W 7026  42.421  42.780  13.969
41547W        W 7027  18.671  23.731  12.557
41548W        W 7028   5.884  18.767   4.180
41549W        W 7029   5.239  26.977  14.296
41550W        W 7030  21.523  32.636  12.343
41551W        W 7031  26.559   9.877  12.094
41552W        W 7032  23.187   3.384   1.295
41553W        W 7033   4.433   8.344   0.845
41554W        W 7034  26.634  26.022  11.080
41555W        W 7035  30.073   5.883  14.018
41556W        W 7036  31.463  43.347   2.312
41557W        W 7037  44.322   4.756   3.325
41558W        W 7038  23.154   7.747  13.928
41559W        W 7039  35.982  25.568   1.324
41560W        W 7040  32.426  29.078   0.871
41561W        W 7041  31.422   1.782   3.246
41562W        W 7042  34.609  27.541   4.820
41563W        W 7043  42.005  27.990  14.389
41564W        W 7044  30.482  24.651   3.824
41565W        W 7045  14.692  28.636  11.033
41566W        W 7046  39.321  23.618   1.911
41567W        W 7047   0.906  28.085   4.179
41568W        W 7048  35.414   0.437   4.188
41569W        W 7049   7.757   1.263  11.419
41570W        W 7050  12.121  38.403   2.256
41571W        W 7051  15.786  42.368   0.929
41572W        W 7052  39.819  35.404   0.439
41573W        W 7053  25.590  18.602  14.929
41574W        W 7054   1.350  44.380  11.978
41575W        W 7055  26.469  44.877   1.425
41576W        W 7056  33.089  40.524   1.290
41577W        W 7057   7.777  27.138   2.360
41578W        W 7058  11.258   2.795   4.157
41579W        W 7059  10.158  26.071  14.430
41580W        W 7060  37.351  20.687   2.841
41581W        W 7061  12.780  39.055   3.762
41582W        W 7062  11.353  23.160   3.870
41583W        W 7063  22.614  21.181   1.305
41584W        W 7064  25.205  15.255   4.705
41585W        W 7065  40.453  26.107   3.655
41586W        W 7066  37.543  20.050   1.836
41587W        W 7067  10.728  25.597   2.789
41588W        W 7068  19.696  16.657   4.616
41589W        W 7069   5.884  22.155  14.871
41590W        W 7070  23.497  44.956   0.769
41591W        W 7071   3.844  25.997  14.855
41592W        W 7072  17.199   3.316  12.829
41593W        W 7073   6.317  11.147  13.929
41594W        W 7074  14.260  39.944  10.408
41595W        W 7075  39.898  31.956  12.009
41596W        W 7076  33.919  38.435  14.359
41597W        W 7077  29.458  24.518   0.948
41598W        W 7078  35.512  10.242  12.862
41599W        W 7079  40.434   3.826  10.155
41600W        W 7080  14.816  17.076  10.487
41601W        W 7081  42.346  12.739  10.937
41602W        W 7082  18.546  35.081  13.422
41603W        W 7083  31.074  32.598  10.961
41604W        W 7084  16.792  36.082  14.376
41605W        W 7085  33.471  16.211   1.751
41606W        W 7086  14.304  25.529   2.824
41607W        W 7087  10.840  31.899  12.875
41608W        W 7088  40.844   9.809   2.317
41609W        W 7089   1.415  44.462   1.870
41610W        W 7090   1.959  26.035   3.331
41611W        W 7091  44.402  36.354  14.402
41612W        W 7092  29.142  40.030  13.327
41613W        W 7093  30.559  11.316  13.446
41614W        W 7094  21.162  32.981   1.794
41615W        W 7095   4.360  10.845  13.492
41616W        W 7096  11.683   9.800  12.924
41617W        W 7097   8.782   2.915   0.245
41618W        W 7098  12.147  20.683   3.684
41619W        W 7099  32.911  36.870   0.865
41620W        W 7100  22.059  14.206  11.881
41621W        W 7101   6.248  39.390   2.833
41622W        W 7102   1.898  10.202   1.234
41623W        W 7103   5.758  32.521  14.410
41624W        W 7104  21.616  19.097   1.711
41625W        W 7105  25.969  37.897   2.856
41626W        W 7106  21.246   1.737   1.329
41627W        W 7107   4.724  30.990  11.381
41628W        W 7108   3.255  43.012   0.768
41629W        W 7109   4.287  34.459   2.834
41630W        W 7110  38.512  37.850  10.551
41631W        W 7111  16.224  31.411   1.716
41632W        W 7112  37.545  29.115   3.168
41633W        W 7113  41.969  19.653   9.674
41634W        W 7114  10.769  31.143  12.868
41635W        W 7115  37.857   9.325   3.234
41636W        W 7116   6.696  31.967   3.774
41637W        W 7117   2.394  27.183  11.872
41638W        W 7118   4.934   8.673  10.586
41639W        W 7119  26.603   2.336   2.378
41640W        W 7120  24.158  28.063  12.438
41641W        W 7121  42.423  26.616   3.253
41642W        W 7122  31.142  25.044  10.049
41643W        W 7123   9.345   8.887  11.537
41644W        W 7124  12.226  16.093  13.520
41645W        W 7125  11.230   6.272   0.395
41646W        W 7126  41.378   6.204   1.252
41647W        W 7127  12.774  15.805  12.943
41648W        W 7128  26.097  23.080  12.024
41649W        W 7129  41.870  44.907   1.862
41650W        W 7130   0.276  19.174   0.781
41651W        W 7131  42.861  36.903  14.316
41652W        W 7132  10.280  34.080   3.327
41653W        W 7133  28.627  28.665  11.496
41654W        W 7134  40.952  32.129  13.374
41655W        W 7135   2.810   8.325   2.221
41656W        W 7136   7.735  14.171   4.280
41657W        W 7137  40.320  28.484  14.865
41658W        W 7138   8.404  37.003  13.006
41659W        W 7139  32.932  35.918  14.838
41660W        W 7140  36.564   3.800  14.323
41661W        W 7141  36.567   5.801   4.728
41662W        W 7142   1.356  21.576  12.416
41663W        W 7143  31.559   6.406  11.535
41664W        W 7144  13.256   7.228   5.200
41665W        W 7145  31.917  33.119  12.560
41666W        W 7146  34.977  32.546   3.839
41667W        W 7147   8.366   0.393  11.091
41668W        W 7148  37.983  12.160   4.726
41669W        W 7149  10.821   1.406   0.274
41670W        W 7150  43.451  32.500  10.960
41671W        W 7151  11.148  20.712   4.620
41672W        W 7152  35.456  16.744   1.881
41673W        W 7153  33.608  27.022  10.505
41674W        W 7154   7.245  15.638  11.422
41675W        W 7155  11.688   5.906  12.575
41676W        W 7156   4.312  23.548  11.071
41677W        W 7157  19.681  23.494   4.210
41678W        W 7158  26.991   6.917  14.952
41679W        W 7159  34.110   8.901  11.965
41680W        W 7160   9.708  11.859   1.819
41681W        W 7161   5.349  26.608   1.893
41682W        W 7162  40.444  28.444  12.018
41683W        W 7163  13.267  22.600   2.198
41684W        W 7164  12.331  21.539   4.259
41685W        W 7165  20.769   2.427  12.079
41686W        W 7166  26.159  32.097   3.818
41687W        W 7167  15.097  18.289  14.787
41688W        W 7168  31.599   9.252  10.557
41689W        W 7169  38.413  35.414   2.681
41690W        W 7170  29.986  13.682   4.825
41691W        W 7171   1.308  39.460   3.654
41692W        W 7172  13.293  33.931  12.340
41693W        W 7173   3.767  13.164  10.407
41694W        W 7174  31.600  24.161   3.286
41695W        W 7175  22.745  20.046   2.722
41696W        W 7176  23.600   5.264   0.388
41697W        W 7177  27.093  36.062   2.708
41698W        W 7178  12.122  12.853  12.015
41699W        W 7179  21.061   3.941  12.383
41700W        W 7180  25.709  10.835   4.296
41701W        W 7181  42.362  17.633   0.262
41702W        W 7182   8.347  29.095   0.954
41703W        W 7183  39.036   9.334  12.393
41704W        W 7184  30.651  42.364   3.185
41705W        W 7185  44.809  30.111   1.311
41706W        W 7186  40.438  22.522   2.413
41707W        W 7187  23.126  15.732   1.898
41708W        W 7188  44.878   8.226   2.859
41709W        W 7189  18.280  14.201  11.900
41710W        W 7190  21.655   1.308  11.516
41711W        W 7191  12.853  10.335  13.870
41712W        W 7192  30.501  38.435   0.463
41713W        W 7193   6.837  11.850   1.271
41714W        W 7194  21.200  34.380   1.698
41715W        W 7195  15.603   2.316   1.212
41716W        W 7196  12.321   0.484   3.281
41717W        W 7197  15.720  43.335  13.394
41718W        W 7198  12.153  27.007  12.509
41719W        W 7199  27.523  34.880  14.394
41720W        W 7200  13.227  32.591  11.390
41721W        W 7201   6.284  19.206   0.265
41722W        W 7202  13.270  18.226  10.945
41723W        W 7203  15.689  32.123  10.101
41724W        W 7204  19.733  13.218  10.448
41725W        W 7205  30.111  18.125  14.981
41726W        W 7206  18.643  18.608  13.028
41727W        W 7207  41.026   3.244  13.825
41728W        W 7208   6.772  20.748  11.936
41729W        W 7209  31.557   4.301   4.599
41730W        W 7210  40.802  31.032  11.393
41731W        W 7211  30.083  34.544  10.554
41732W        W 7212  21.039   3.390  10.074
41733W        W 7213  17.214  20.144  14.895
41734W        W 7214  19.749  40.035   4.597
41735W        W 7215  18.728  19.656  11.857
41736W        W 7216  27.084  40.521  10.587
41737W        W 7217  12.770  26.515   0.435
41738W        W 7218  24.518   0.790   5.095
41739W        W 7219  34.437   8.234  14.515
41740W        W 7220  16.751   5.821   2.286
41741W        W 7221  14.791  39.931   0.962
41742W        W 7222  29.148  16.566  11.505
41743W        W 7223  10.872   6.391  11.069
41744W        W 7224  29.129  25.046   2.769
41745W        W 7225  10.172  12.228  12.345
41746W        W 7226   8.725  17.562  12.575
41747W        W 7227  25.632  15.309  12.992
41748W        W 7228  13.240   6.242   2.793
41749W        W 7229  40.856  34.473   2.218
41750W        W 7230  27.527  15.121  12.462
41751W        W 7231  38.824  34.015   4.259
41752W        W 7232  14.615   4.861   4.283
41753W        W 7233  23.042   0.438  11.968
41754W        W 7234  17.194  24.599   0.368
41755W        W 7235   3.237   8.399  13.375
41756W        W 7236  40.054  21.171  12.983
41757W        W 7237  14.108  36.416   3.725
41758W        W 7238  20.131   4.228   0.285
41759W        W 7239  23.599   5.342   2.321
41760W        W 7240  39.870  37.913   4.667
41761W        W 7241   2.903  29.506   3.740
41762W        W 7242   0.363  17.662  11.881
41763W        W 7243  41.016   2.355   4.136
41764W        W 7244  15.172  15.325   2.671
41765W        W 7245  33.409  18.772  11.584
41766W        W 7246  16.254  36.867  13.988
41767W        W 7247  40.929  13.270   4.804
41768W        W 7248  32.445  21.601   1.788
41769W        W 7249  36.941   3.930   2.724
41770W        W 7250   5.905  37.076   0.411
41771W        W 7251   8.797   4.418   0.259
41772W        W 7252  10.313  41.008   1.757
41773W        W 7253  17.252  16.571   2.275
41774W        W 7254  29.570  36.442  10.579
41775W        W 7255  27.588   0.959  14.867
41776W        W 7256  40.952  42.995   1.421
41777W        W 7257  38.538  17.225  11.997
41778W        W 7258  39.362  15.724   0.410
41779W        W 7259   8.317  11.729   1.329
41780W        W 7260  17.220  38.370   0.950
41781W        W 7261   0.917  17.610   4.234
41782W        W 7262  23.237   1.426   3.758
41783W        W 7263   5.302  31.427  14.427
41784W        W 7264   1.800  40.462   2.351
41785W        W 7265  43.985   4.716   1.896
41786W        W 7266  12.151  11.688  10.905
41787W        W 7267  37.832  11.738   2.720
41788W        W 7268  21.229  19.712  12.017
41789W        W 7269  13.302  25.219  12.926
41790W        W 7270  27.965  25.008  12.559
41791W        W 7271  33.626  29.483   2.283
41792W        W 7272  37.966  20.682  10.583
41793W        W 7273  28.579  25.178   3.771
41794W        W 7274   0.448  31.089  14.310
41795W        W 7275  11.715  24.994  14.403
41796W        W 7276  11.857  21.686   9.929
41797W        W 7277  40.818  11.842   2.699
41798W        W 7278   3.301  44.458  12.934
41799W        W 7279  38.914  43.359   0.319
41800W        W 7280  32.983   0.440   1.714
41801W        W 7281  24.147  16.225  11.580
41802W        W 7282  34.609  17.226  11.861
41803W        W 7283  21.110  13.209   1.297
41804W        W 7284  12.616   9.329  12.996
41805W        W 7285   5.253  33.959   1.228
41806W        W 7286  42.367  39.331   1.935
41807W        W 7287  31.040  21.190   3.251
41808W        W 7288  32.984  39.889   1.433
41809W        W 7289  13.647  12.229   2.242
41810W        W 7290  29.062   9.654   4.739
41811W        W 7291  36.025  14.286   1.395
41812W        W 7292  40.541  25.681  14.511
41813W        W 7293  21.112  17.600  13.906
41814W        W 7294   4.761  11.317  14.942
41815W        W 7295  31.449  37.079  14.472
41816W        W 7296   9.736  42.414  11.476
41817W        W 7297  34.084  19.161   4.282
41818W        W 7298  33.882  27.611  13.339
41819W        W 7299  20.602  31.090   3.297
41820W        W 7300  34.561  23.234  14.388
41821W        W 7301  22.519  31.956   4.772
41822W        W 7302   4.439   9.885   2.230
41823W        W 7303  12.745   8.668   2.395
41824W        W 7304  43.448  34.012  13.794
41825W        W 7305   3.287  39.337  10.447
41826W        W 7306  37.891  11.155   4.178
41827W        W 7307  39.461   6.346  14.435
41828W        W 7308  43.858  18.547  13.032
41829W        W 7309  25.538  22.604  11.994
41830W        W 7310  21.133  37.836   3.261
41831W        W 7311  21.057  19.776   4.735
41832W        W 7312   4.320   5.308  14.885
41833W        W 7313  15.752  42.002   4.808
41834W        W 7314  16.282  34.505   1.254
41835W        W 7315   7.398  21.586   4.769
41836W        W 7316  43.467  28.186  11.400
41837W        W 7317   1.919  28.055   0.332
41838W        W 7318  23.203   0.248  12.493
41839W        W 7319   7.755   1.330  12.392
41840W        W 7320   0.811  16.772   3.158
41841W        W 7321   7.183   2.391   4.825
41842W        W 7322  19.678   8.745   3.662
41843W        W 7323  34.068   3.905   1.926
41844W        W 7324  11.832  14.157  13.993
41845W        W 7325  24.111  30.526   3.743
41846W        W 7326  31.480  43.005   4.713
41847W        W 7327  37.973  37.418  12.935
41848W        W 7328   3.749   8.224   0.335
41849W        W 7329  37.848  32.007  12.370
41850W        W 7330  10.830  35.531  14.387
41851W        W 7331   3.742  29.928   0.772
41852W        W 7332  24.063   2.360   4.639
41853W        W 7333  36.898  24.608  14.363
41854W        W 7334   0.446  34.416  12.830
41855W        W 7335   9.226  15.255   3.718
41856W        W 7336  44.434  29.089  13.537
41857W        W 7337   8.299  20.618   2.179
41858W        W 7338   0.855  20.545  12.029
41859W        W 7339  26.115   4.417   0.882
41860W        W 7340  34.045   8.394  10.983
41861W        W 7341  27.524  27.070  13.999
41862W        W 7342  21.749  21.539  11.986
41863W        W 7343  39.508  39.926   3.691
41864W        W 7344   1.748   6.303   0.914
41865W        W 7345  20.557   0.316   2.236
41866W        W 7346  28.531  16.770  13.802
41867W        W 7347   5.230   3.922   4.143
41868W        W 7348  30.949   4.713  10.455
41869W        W 7349  13.808   7.738   1.280
41870W        W 7350  35.093  10.699   1.350
41871W        W 7351  29.575  14.659   4.724
41872W        W 7352  37.950  13.233   1.232
41873W        W 7353  35.445  34.539  10.920
41874W        W 7354  42.287  35.002  13.482
41875W        W 7355  19.662  23.650  13.411
41876W        W 7356  32.476   3.831   1.865
41877W        W 7357  15.235  29.441  10.571
41878W        W 7358  35.903   8.747   0.415
41879W        W 7359  13.815  36.559   1.854
41880W        W 7360  28.664   0.916   2.761
41881W        W 7361  21.061  29.447  11.905
41882W        W 7362  21.048   2.442  14.857
41883W        W 7363   3.759   4.865  11.092
41884W        W 7364   9.870  40.029   0.266
41885W        W 7365  24.617  18.232  14.934
41886W        W 7366  30.111  44.306  13.318
41887W        W 7367  11.766   9.299  12.443
41888W        W 7368   8.830  22.743   0.855
41889W        W 7369  17.766  41.867   3.199
41890W        W 7370  41.039  29.134  13.053
41891W        W 7371  10.809   7.888  11.530
41892W        W 7372  13.766  32.961  14.502
41893W        W 7373  28.930   2.855  12.031
41894W        W 7374  11.800  30.020  12.949
41895W        W 7375  32.107   5.393  13.804
41896W        W 7376  10.647   5.377   3.287
41897W        W 7377  28.948  38.899   3.773
41898W        W 7378  24.688   4.363  14.380
41899W        W 7379  12.674   6.403  12.416
41900W        W 7380  38.821  20.572   0.470
41901W        W 7381  35.536  16.154   0.743
41902W        W 7382  34.438  31.010   2.268
41903W        W 7383   7.216  18.123  12.547
41904W        W 7384  14.278  10.639   3.724
41905W        W 7385   5.730  26.693  10.973
41906W        W 7386  40.963  35.604   2.890
41907W        W 7387  13.692   4.395  12.982
41908W        W 7388  25.020  44.262   2.693
41909W        W 7389   1.939  36.569   2.677
41910W        W 7390  44.878  29.148   3.854
41911W        W 7391  15.191  27.945   4.789
41912W        W 7392  26.700  13.112   0.316
41913W        W 7393  43.275  42.476  12.894
41914W        W 7394  24.587  12.813   3.283
41915W        W 7395   7.241  10.741  11.103
41916W        W 7396  31.605  41.789   2.828
41917W        W 7397  29.455  36.006  10.935
41918W        W 7398  14.728  40.545  10.137
41919W        W 7399  41.535   2.298   0.472
41920W        W 7400  41.998   8.298   1.354
41921W        W 7401   1.960  36.506   0.815
41922W        W 7402  17.684  35.003   5.715
41923W        W 7403  21.696  26.045   4.728
41924W        W 7404  26.026   9.832  12.830
41925W        W 7405  31.072   9.264   2.229
41926W        W 7406  14.160  38.944   1.361
41927W        W 7407  41.913  12.661  14.455
41928W        W 7408  33.520  31.529  13.015
41929W        W 7409  20.550  38.848  13.937
41930W        W 7410   3.896  36.082  10.003
41931W        W 7411  21.048  31.583   0.373
41932W        W 7412  37.407  30.452  12.517
41933W        W 7413  26.513  20.083   1.829
41934W        W 7414   5.421  17.713  11.539
41935W        W 7415  19.644  34.883   4.661
41936W        W 7416   9.194   0.842   3.748
41937W        W 7417  42.001   2.348   4.837
41938W        W 7418   6.890   1.896   4.818
41939W        W 7419   7.214  12.726   1.723
41940W        W 7420   3.760  17.566   3.868
41941W        W 7421  37.356  17.580  13.000
41942W        W 7422  21.758  19.705  13.804
41943W        W 7423  18.679  21.621   3.824
41944W        W 7424  41.799  31.418  13.845
41945W        W 7425  13.812   3.807   2.357
41946W        W 7426  19.070  17.792   1.333
41947W        W 7427  15.763  12.746   4.747
41948W        W 7428  33.549  43.440  11.119
41949W        W 7429  11.176  26.653  14.842
41950W        W 7430  22.133  42.780  11.961
41951W        W 7431  16.281  20.076  12.451
41952W        W 7432  40.533  12.165   4.675
41953W        W 7433  41.482  11.323   0.897
41954W        W 7434  44.775   4.868   1.432
41955W        W 7435  20.108  42.381  12.850
41956W        W 7436  34.892  25.527  13.802
41957W        W 7437   7.822  24.172   4.259
41958W        W 7438  25.600  34.537  14.395
41959W        W 7439   6.423  41.304   1.378
41960W        W 7440   4.778   0.345   2.873
41961W        W 7441  23.732   2.351   0.330
41962W        W 7442  23.151  12.693  13.349
41963W        W 7443   6.816  29.654   4.262
41964W        W 7444  27.667  15.747   1.842
41965W        W 7445  43.860  44.005   2.787
41966W        W 7446   1.827  34.580  13.933
41967W        W 7447  39.840  42.385  14.896
41968W        W 7448  33.995  32.911  11.909
41969W        W 7449  15.589  30.148   1.782
41970W        W 7450  27.968  35.854  12.057
41971W        W 7451   2.935   7.194  13.840
41972W        W 7452  17.065  40.883  13.544
41973W        W 7453  16.282  25.064  12.344
41974W        W 7454  24.115  21.250  10.151
41975W        W 7455  26.525  43.409  14.361
41976W        W 7456  36.463  35.964  13.433
41977W        W 7457   5.398  16.094   2.863
41978W        W 7458  38.038  31.924  10.156
41979W        W 7459  23.521  12.169  13.995
41980W        W 7460  37.086  23.011   1.332
41981W        W 7461  13.774  35.018   3.301
41982W        W 7462  38.335  34.604   2.198
41983W        W 7463  37.877  39.484   0.341
41984W        W 7464  30.040  17.673   3.276
41985W        W 7465  24.612  15.732   1.726
41986W        W 7466   6.813  20.090   2.763
41987W        W 7467  41.961  43.836  13.053
41988W        W 7468   1.257  39.549  13.981
41989W        W 7469  39.417  35.900   0.277
41990W        W 7470   2.798  44.345   1.924
41991W        W 7471  10.254  18.128   4.301
41992W        W 7472  25.679  39.423   3.339
41993W        W 7473  15.165   8.681  13.826
41994W        W 7474  16.083  21.605  13.396
41995W        W 7475   0.401  35.545   4.142
41996W        W 7476  38.044  18.097  13.873
41997W        W 7477  21.076  39.037  11.536
41998W        W 7478  21.089   8.830  14.951
41999W        W 7479   8.406  41.031   4.168
42000W        W 7480  22.712   4.877   2.883
42001W        W 7481  36.510   5.817   2.752
42002W        W 7482  12.216   9.776   2.374
42003W        W 7483   7.335  13.677  11.407
42004W        W 7484  23.002  18.682   1.283
42005W        W 7485  40.465  26.194   0.303
42006W        W 7486   7.206   2.900  13.848
42007W        W 7487  16.736  32.538   2.258
42008W        W 7488   5.257  23.198  11.585
42009W        W 7489   5.845  18.255  12.041
42010W        W 7490  32.978  16.158  11.524
42011W        W 7491   8.726   5.898   3.203
42012W        W 7492  21.200  19.777   1.739
42013W        W 7493   8.736  32.049   3.263
42014W        W 7494   7.304  15.735   0.255
42015W        W 7495  20.741  22.091  14.771
42016W        W 7496   9.213  32.409  10.534
42017W        W 7497  27.146   8.337  12.968
42018W        W 7498  40.532  10.140   2.330
42019W        W 7499  32.511  11.678   1.225
42020W        W 7500  39.382   3.338   0.958
42021W        W 7501  23.565  20.101   1.313
42022W        W 7502  10.227   9.329   4.222
42023W        W 7503   8.203  42.928   4.166
42024W        W 7504   6.375  22.229  13.831
42025W        W 7505  39.452  38.052   3.225
42026W        W 7506  37.928  12.173   0.466
42027W        W 7507  37.365  34.863  14.913
42028W        W 7508  38.560  11.191  12.927
42029W        W 7509  16.075  18.550  13.950
42030W        W 7510   9.235  43.346   0.886
42031W        W 7511  28.553  10.211  12.379
42032W        W 7512  37.545  43.845   3.839
42033W        W 7513   7.857  16.217  11.093
42034W        W 7514  25.592   7.826   5.603
42035W        W 7515  18.671  13.138   1.765
42036W        W 7516   6.380   9.721   2.238
42037W        W 7517  44.928  20.220  14.445
42038W        W 7518   3.916  30.509  11.585
42039W        W 7519  25.535  38.821  10.599
42040W        W 7520  32.090  41.009  10.060
42041W        W 7521  23.020  18.250   0.805
42042W        W 7522  11.269  31.459  14.791
42043W        W 7523  25.686  14.735  12.431
42044W        W 7524  12.223   3.446   1.322
42045W        W 7525  17.659  40.365   4.222
42046W        W 7526  24.722   5.217  13.927
42047W        W 7527  36.370   6.814   3.330
42048W        W 7528  17.264  29.149  12.052
42049W        W 7529  40.527  36.063  11.387
42050W        W 7530  26.692  25.499  13.382
42051W        W 7531  36.378  43.990   3.266
42052W        W 7532  16.150  23.164  14.353
42053W        W 7533   0.347  11.355   4.679
42054W        W 7534  32.500  21.737   3.228
42055W        W 7535  22.729  21.732   2.353
42056W        W 7536  13.748  24.492  14.433
42057W        W 7537   0.959  18.269   4.256
42058W        W 7538   3.864  31.515   5.318
42059W        W 7539  40.806  42.802  13.825
42060W        W 7540  11.224  44.856  11.871
42061W        W 7541  18.186  28.090  11.375
42062W        W 7542  24.563  17.143  12.872
42063W        W 7543  18.740  22.007  14.025
42064W        W 7544  33.941  20.221  13.525
42065W        W 7545  14.815  16.570   0.366
42066W        W 7546  13.276   8.310   0.351
42067W        W 7547  22.193   6.883  10.031
42068W        W 7548  19.572   3.433   4.766
42069W        W 7549  32.515   8.679   4.131
42070W        W 7550   1.843  35.042   2.218
42071W        W 7551  28.965   5.193  14.310
42072W        W 7552  38.005   9.219   0.905
42073W        W 7553  39.478  23.603   2.347
42074W        W 7554  30.540   0.273  12.884
42075W        W 7555  25.198  33.469   4.253
42076W        W 7556   9.696  44.886   1.828
42077W        W 7557  44.791  42.950   0.881
42078W        W 7558  35.089  31.601   0.935
42079W        W 7559   9.863   2.301   1.926
42080W        W 7560   8.822  17.600  10.978
42081W        W 7561   6.370   5.208   2.832
42082W        W 7562   2.773  42.031   0.765
42083W        W 7563  38.401  30.630   2.206
42084W        W 7564  31.632  14.803   0.905
42085W        W 7565  43.915  21.093  10.960
42086W        W 7566  26.018  42.974  11.024
42087W        W 7567  29.958  21.613  10.984
42088W        W 7568   0.898  23.181   0.475
42089W        W 7569  44.963  31.145   3.203
42090W        W 7570  29.135   8.219  12.961
42091W        W 7571  23.228   7.796  11.888
42092W        W 7572  38.536  40.525   0.462
42093W        W 7573  12.219  39.401  13.975
42094W        W 7574  42.321   3.251   1.837
42095W        W 7575  40.460  30.615   4.621
42096W        W 7576  18.177  39.346  11.404
42097W        W 7577   9.280  16.743   0.733
42098W        W 7578   1.791   3.340   0.785
42099W        W 7579   5.227  21.681   1.819
42100W        W 7580   0.362  12.210   2.709
42101W        W 7581  34.938  17.134  12.412
42102W        W 7582  28.155  16.188   2.779
42103W        W 7583  31.012  38.337   1.740
42104W        W 7584  21.713  24.695  14.880
42105W        W 7585  29.557  36.052   5.258
42106W        W 7586   3.336  37.356   3.157
42107W        W 7587  33.607  16.260  14.403
42108W        W 7588  28.153  12.313  13.817
42109W        W 7589   1.884  22.119  14.926
42110W        W 7590  43.377  24.149   3.633
42111W        W 7591  33.912  11.780   2.268
42112W        W 7592  39.545  17.598  10.633
42113W        W 7593  42.918   1.313  11.116
42114W        W 7594  27.143  33.385   0.793
42115W        W 7595  41.405  19.082   1.709
42116W        W 7596  44.496   5.760  10.982
42117W        W 7597  27.486  13.731   1.230
42118W        W 7598  27.063   0.848  10.423
42119W        W 7599  41.006  40.321   0.730
42120W        W 7600   5.795  16.190  13.809
42121W        W 7601  36.418   2.442   1.931
42122W        W 7602  36.018  14.142   2.713
42123W        W 7603   7.729  42.792   0.347
42124W        W 7604  25.571  28.976   1.810
42125W        W 7605  12.212  35.511  13.880
42126W        W 7606  21.080  14.285  11.560
42127W        W 7607  20.565  32.921   4.658
42128W        W 7608   3.793  16.279   4.640
42129W        W 7609  40.321  30.081  13.794
42130W        W 7610  21.725  24.504  10.893
42131W        W 7611  33.490  15.225   1.395
42132W        W 7612  31.069  36.926   2.371
42133W        W 7613  40.908   4.219  14.997
42134W        W 7614  22.673  33.607  13.020
42135W        W 7615  12.748  15.311  11.917
42136W        W 7616   3.931  13.221   3.334
42137W        W 7617  24.716  29.471   3.814
42138W        W 7618  30.014  25.471   2.418
42139W        W 7619   4.371  15.154   2.267
42140W        W 7620   5.861   8.316  10.996
42141W        W 7621   6.182  42.964  12.514
42142W        W 7622   3.753  17.785  11.612
42143W        W 7623  13.738  21.211  12.975
42144W        W 7624   0.923   6.348  13.335
42145W        W 7625  28.051   3.949  11.072
42146W        W 7626  13.230  27.158  13.312
42147W        W 7627  43.918  33.065  13.949
42148W        W 7628  22.041  10.233   3.355
42149W        W 7629  28.152  22.501  13.449
42150W        W 7630  19.065   2.355   1.906
42151W        W 7631   8.333   1.823  10.967
42152W        W 7632  26.988  22.685  14.779
42153W        W 7633  26.190   4.900   1.886
42154W        W 7634  10.220  36.456   3.164
42155W        W 7635  35.424  36.428  11.915
42156W        W 7636  27.555  20.754  13.422
42157W        W 7637  41.501  15.265  13.979
42158W        W 7638  42.801  13.107  12.478
42159W        W 7639  20.202   7.845  12.402
42160W        W 7640  28.487  44.467  11.968
42161W        W 7641  33.906   1.426  13.371
42162W        W 7642  40.891  11.169   0.258
42163W        W 7643   7.871  11.341  13.033
42164W        W 7644  25.543  22.567  14.389
42165W        W 7645   1.931  16.724  12.032
42166W        W 7646   4.233  36.422  13.863
42167W        W 7647  27.052  43.886   3.718
42168W        W 7648  44.810  36.386  11.862
42169W        W 7649  36.059  10.876   3.844
42170W        W 7650  18.062  34.109  13.050
42171W        W 7651  18.723  32.913  12.044
42172W        W 7652  43.468  15.709   0.264
42173W        W 7653  39.386   8.299  14.352
42174W        W 7654  31.951   8.245   4.813
42175W        W 7655  13.796  17.136   0.743
42176W        W 7656  19.150   9.191   0.428
42177W        W 7657  10.706  33.393  12.057
42178W        W 7658  25.133  28.638  13.961
42179W        W 7659  31.534  23.992  13.543
42180W        W 7660  30.639  23.587   4.251
42181W        W 7661  44.480  43.396   2.839
42182W        W 7662   5.889   2.250  10.554
42183W        W 7663  19.155  35.930   1.704
42184W        W 7664  20.752  18.159  12.842
42185W        W 7665   6.844  30.547   2.887
42186W        W 7666  14.678  22.642   0.255
42187W        W 7667  16.759  31.031   4.794
42188W        W 7668   3.323  27.512  13.390
42189W        W 7669   3.711  21.624  12.094
42190W        W 7670   1.930  10.275  13.460
42191W        W 7671   4.298  12.219  12.369
42192W        W 7672  42.409  30.650  12.024
42193W        W 7673   6.699   8.381   0.828
42194W        W 7674  40.986  31.960  14.485
42195W        W 7675  36.090  36.051  12.009
42196W        W 7676   0.889  13.205   4.125
42197W        W 7677   7.785  10.220  11.503
42198W        W 7678  17.718  44.773   1.391
42199W        W 7679   7.800  24.501  12.851
42200W        W 7680   6.185  22.591  14.896
42201W        W 7681  32.957  43.777  11.105
42202W        W 7682  25.670  42.923  11.991
42203W        W 7683   2.744  38.433   1.284
42204W        W 7684   2.351  35.563   1.299
42205W        W 7685   5.411  33.032   0.273
42206W        W 7686  18.652  21.545  13.403
42207W        W 7687   4.427  39.533   2.337
42208W        W 7688  35.913  19.691   0.252
42209W        W 7689   5.885  35.900  12.511
42210W        W 7690  34.097  44.904  13.004
42211W        W 7691  10.226  39.537  10.629
42212W        W 7692  22.639   1.883  10.498
42213W        W 7693  17.752  43.919  10.581
42214W        W 7694  35.067  29.151  11.925
42215W        W 7695  25.696  24.559   4.640
42216W        W 7696  40.449  27.454   1.255
42217W        W 7697  31.904  40.488  12.354
42218W        W 7698  27.447  11.140   2.223
42219W        W 7699  30.956  44.361   3.639
42220W        W 7700  10.229  31.111  12.347
42221W        W 7701  41.792  35.063  13.499
42222W        W 7702  36.848  13.812   3.715
42223W        W 7703  13.814  15.808  13.833
42224W        W 7704  24.500  37.472  12.067
42225W        W 7705   7.354  27.652  13.375
42226W        W 7706  32.084   4.816   4.211
42227W        W 7707   9.792   8.674  11.959
42228W        W 7708  10.275  10.208  11.875
42229W        W 7709   8.870  25.700  10.935
42230W        W 7710   6.231  21.082  13.025
42231W        W 7711   9.717  21.128  10.448
42232W        W 7712  42.334  18.779  14.432
42233W        W 7713  41.524   6.681  12.384
42234W        W 7714  13.199  10.734  13.507
42235W        W 7715  35.854  31.123   5.129
42236W        W 7716  38.553  41.012   4.169
42237W        W 7717  31.620  34.049   2.330
42238W        W 7718  16.682   7.277   2.351
42239W        W 7719  21.098  16.297   4.631
42240W        W 7720  29.089  26.470   4.643
42241W        W 7721   4.823  10.651   1.217
42242W        W 7722  10.298  20.208   0.266
42243W        W 7723   4.418   6.231  10.951
42244W        W 7724  11.665   2.794  11.919
42245W        W 7725  21.032  26.028  10.475
42246W        W 7726  29.455   5.742  11.406
42247W        W 7727   2.722  36.934   4.826
42248W        W 7728  20.547  18.546  13.320
42249W        W 7729  10.284   2.727  12.360
42250W        W 7730  31.150  12.760  12.035
42251W        W 7731  41.433  21.234  14.935
42252W        W 7732   6.837  33.897   1.386
42253W        W 7733   7.242  32.912  13.936
42254W        W 7734  12.220   2.899  10.953
42255W        W 7735  28.634   0.302   0.354
42256W        W 7736  40.040  36.976   3.253
42257W        W 7737  21.608   2.882  10.460
42258W        W 7738  29.921  35.911   1.407
42259W        W 7739  22.108  22.073  14.369
42260W        W 7740  42.475  38.866   4.612
42261W        W 7741  27.534  22.723   3.239
42262W        W 7742  11.195  17.150  10.567
42263W        W 7743  24.036  19.071  12.418
42264W        W 7744   9.670  40.325  10.914
42265W        W 7745   2.835   0.247  13.009
42266W        W 7746  32.086  34.071  13.015
42267W        W 7747  18.062  19.280  10.441
42268W        W 7748   6.834  18.291  10.999
42269W        W 7749   0.297   0.978   4.324
42270W        W 7750  21.164  31.607  13.840
42271W        W 7751  33.987   1.944   2.398
42272W        W 7752   0.816   5.354   1.254
42273W        W 7753  43.895  41.354  14.483
42274W        W 7754  23.597   9.856  10.563
42275W        W 7755  35.867   7.274  14.979
42276W        W 7756   1.953  38.392   3.240
42277W        W 7757  36.500  23.116   2.741
42278W        W 7758  28.496  42.794   0.944
42279W        W 7759  20.541  26.018  14.301
42280W        W 7760  44.362  23.592   2.706
42281W        W 7761  42.462  20.054  14.491
42282W        W 7762  38.482  32.987  12.352
42283W        W 7763  23.203  15.667   9.926
42284W        W 7764  25.067   0.399   1.448
42285W        W 7765  22.549   3.932  13.827
42286W        W 7766   4.781  32.915   0.867
42287W        W 7767  25.962  38.488  14.406
42288W        W 7768  40.342  40.051   0.759
42289W        W 7769   4.275  30.909  14.467
42290W        W 7770  24.086  23.230  11.604
42291W        W 7771  23.513  16.184   2.204
42292W        W 7772  21.690  27.565  11.952
42293W        W 7773   7.368  41.528  14.488
42294W        W 7774  21.517   3.303  13.317
42295W        W 7775  33.007  29.443  11.497
42296W        W 7776  13.110  31.936   5.136
42297W        W 7777  17.103  37.862   2.873
42298W        W 7778  32.564  28.941  14.410
42299W        W 7779  25.062  37.004  10.928
42300W        W 7780  25.574  17.226   1.347
42301W        W 7781  35.443  39.043  10.420
42302W        W 7782   3.766   5.722   0.885
42303W        W 7783  23.001  26.095  12.449
42304W        W 7784  37.021   4.302   4.334
42305W        W 7785  26.526  24.550   1.448
42306W        W 7786  25.177  30.123   1.916
42307W        W 7787  23.695  10.869   4.152
42308W        W 7788  37.433  17.102  11.110
42309W        W 7789  25.071  42.300   4.697
42310W        W 7790   6.402  36.021  14.304
42311W        W 7791   4.400   4.258   1.413
42312W        W 7792  16.612   0.324   1.824
42313W        W 7793  39.853  41.963  14.398
42314W        W 7794  41.884  16.269   1.344
42315W        W 7795   3.233  10.222  14.478
42316W        W 7796  40.030  33.422   0.367
42317W        W 7797   7.889  22.528  11.012
42318W        W 7798  17.572  27.977   4.623
42319W        W 7799  13.629  35.570   1.752
42320W        W 7800  12.783  11.634  10.640
42321W        W 7801   7.403  40.914   0.381
42322W        W 7802  39.436   7.375   3.164
42323W        W 7803  11.703  23.671   1.751
42324W        W 7804  12.361  33.892  11.510
42325W        W 7805   1.778  42.012  10.514
42326W        W 7806  32.935   9.358   4.114
42327W        W 7807   9.209   1.851   3.806
42328W        W 7808  33.082  17.209   0.961
42329W        W 7809   4.833  29.018   2.818
42330W        W 7810  35.550  33.561   1.862
42331W        W 7811  10.169  32.904   2.734
42332W        W 7812  30.494  37.516  13.517
42333W        W 7813  31.932  42.504  13.312
42334W        W 7814  22.245  41.834  12.909
42335W        W 7815  23.697  35.900  10.599
42336W        W 7816  42.307  24.196   2.413
42337W        W 7817   1.828   0.381  10.590
42338W        W 7818  11.723  20.716  13.966
42339W        W 7819  24.721  43.769  12.581
42340W        W 7820  31.915  37.371  14.978
42341W        W 7821  27.584  27.048   2.191
42342W        W 7822   2.435  41.035   3.722
42343W        W 7823  32.425  17.134  12.385
42344W        W 7824  17.672  24.665   3.663
42345W        W 7825  31.996   6.194  13.436
42346W        W 7826  20.121  13.182   0.281
42347W        W 7827   3.340  14.307   0.313
42348W        W 7828  36.482  18.783   2.879
42349W        W 7829  16.788   2.448   2.748
42350W        W 7830   6.824  36.543  10.927
42351W        W 7831  13.706  39.405  11.947
42352W        W 7832  33.606  25.555  10.916
42353W        W 7833  11.302  13.748  11.421
42354W        W 7834  26.673  19.202  12.960
42355W        W 7835  15.139  21.114   4.659
42356W        W 7836  40.416  27.449  10.900
42357W        W 7837  32.414   1.756   0.879
42358W        W 7838  17.222  32.535  14.479
42359W        W 7839  43.847   8.792  10.905
42360W        W 7840  24.516   2.790  11.993
42361W        W 7841  25.073  30.570   4.797
42362W        W 7842  30.520  22.596  12.503
42363W        W 7843   2.449  31.973  13.912
42364W        W 7844  14.273  15.255   1.323
42365W        W 7845  32.586   1.750   2.832
42366W        W 7846  37.341  17.654   2.233
42367W        W 7847  11.370  29.154  10.551
42368W        W 7848  13.726  23.109  10.484
42369W        W 7849  36.961  31.925   0.751
42370W        W 7850   9.710  41.447  12.080
42371W        W 7851  34.068  44.787  14.511
42372W        W 7852  12.271  20.257  10.606
42373W        W 7853   3.938   0.816   3.817
42374W        W 7854  24.210  41.864  11.393
42375W        W 7855   2.230   7.295  12.023
42376W        W 7856   8.759  31.908   3.867
42377W        W 7857  19.118  37.431  14.841
42378W        W 7858   7.672  44.295  13.943
42379W        W 7859   5.382  31.576  11.527
42380W        W 7860  44.857  32.981  12.971
42381W        W 7861  16.179  40.320   2.306
42382W        W 7862  39.822  11.362   2.871
42383W        W 7863  19.615  23.021   3.224
42384W        W 7864  15.732  12.239   4.653
42385W        W 7865   1.904  13.132   1.698
42386W        W 7866  29.918   8.819  14.852
42387W        W 7867  31.090  38.920   5.777
42388W        W 7868  19.542  41.336   4.746
42389W        W 7869  43.774  35.475   1.339
42390W        W 7870  44.494  32.591   4.748
42391W        W 7871  37.557   0.789   2.781
42392W        W 7872  13.344  25.626   1.429
42393W        W 7873  40.368  25.063  12.008
42394W        W 7874  28.987  27.522   3.267
42395W        W 7875  22.583   2.828  11.511
42396W        W 7876  19.636  28.565  11.487
42397W        W 7877  40.049  23.205   1.796
42398W        W 7878   8.271  34.871  13.940
42399W        W 7879  27.565  21.639  12.490
42400W        W 7880  31.521  16.215   1.772
42401W        W 7881  13.742  16.795  14.476
42402W        W 7882  19.566  38.554   3.799
42403W        W 7883  32.569  16.708  11.518
42404W        W 7884   1.816  43.905  12.347
42405W        W 7885   4.349  16.124  12.434
42406W        W 7886  23.545  36.846  12.923
42407W        W 7887  40.527  35.892   3.160
42408W        W 7888   1.372  37.879   2.355
42409W        W 7889   8.737   9.278   2.676
42410W        W 7890  27.527  38.009  14.854
42411W        W 7891  10.817   7.689  14.998
42412W        W 7892  39.905  29.635  10.547
42413W        W 7893  40.410  19.074  14.437
42414W        W 7894   5.397   8.887   5.208
42415W        W 7895  10.673  30.033  11.998
42416W        W 7896   1.395  21.640  13.816
42417W        W 7897  25.162  24.713  11.449
42418W        W 7898  40.018   1.275  13.502
42419W        W 7899  34.888   8.852  11.524
42420W        W 7900  29.122   4.828  10.937
42421W        W 7901  21.133  26.546  14.894
42422W        W 7902  19.095  36.495  10.903
42423W        W 7903  38.994  28.061  13.327
42424W        W 7904   1.240  23.228  14.803
42425W        W 7905  17.655  21.584  14.278
42426W        W 7906  34.586  39.513  13.471
42427W        W 7907   9.309  20.093  11.905
42428W        W 7908  18.655  11.299  12.532
42429W        W 7909  25.021  36.896  13.504
42430W        W 7910  40.490  34.078   4.232
42431W        W 7911  19.139  36.914   4.832
42432W        W 7912  26.170  33.480   0.744
42433W        W 7913  44.490  19.093   1.257
42434W        W 7914  10.253   1.282  12.021
42435W        W 7915  20.077  16.282  13.920
42436W        W 7916  33.917   8.335   2.692
42437W        W 7917   7.214  14.822   4.721
42438W        W 7918  44.465  25.967   3.672
42439W        W 7919  40.799  42.840  14.343
42440W        W 7920  38.056   7.829   0.468
42441W        W 7921  24.631  35.530   0.760
42442W        W 7922  39.482  27.176   4.207
42443W        W 7923   3.451  26.117  14.300
42444W        W 7924   6.807  14.109  10.446
42445W        W 7925  24.110  41.849   1.262
42446W        W 7926  43.768  19.728  12.926
42447W        W 7927  12.792  15.184  11.086
42448W        W 7928  34.051  29.043  14.476
42449W        W 7929   5.377  42.896   0.940
42450W        W 7930   4.874   9.818   2.822
42451W        W 7931  41.945  38.490  12.994
42452W        W 7932   3.283  26.201   3.195
42453W        W 7933  23.037  17.223   3.166
42454W        W 7934   3.925   8.264  12.062
42455W        W 7935  13.313  31.460   0.936
42456W        W 7936  38.349  39.316   2.311
42457W        W 7937  25.110  23.231   2.766
42458W        W 7938  35.563   5.290  12.939
42459W        W 7939  37.926  18.253   0.363
42460W        W 7940  17.264   8.219   1.766
42461W        W 7941   1.242   2.863  14.811
42462W        W 7942  44.766   8.254  13.515
42463W        W 7943  18.748  27.153   1.920
42464W        W 7944  23.499   6.784  13.876
42465W        W 7945  23.051   5.351  11.928
42466W        W 7946  31.152   4.244   4.779
42467W        W 7947  33.122  13.179  14.833
42468W        W 7948  14.244   9.364  12.454
42469W        W 7949  41.990  43.452  14.480
42470W        W 7950  19.163  39.365  12.093
42471W        W 7951   0.262   2.806  14.427
42472W        W 7952  12.145   5.369  12.916
42473W        W 7953   8.358  14.745  12.977
42474W        W 7954   9.670   7.820  10.574
42475W        W 7955  21.246  18.115  11.890
42476W        W 7956  12.662  37.964  11.492
42477W        W 7957  42.382  29.662  14.327
42478W        W 7958   1.970  12.813   1.852
42479W        W 7959  19.143  37.871   3.361
42480W        W 7960  29.021  39.013   1.261
42481W        W 7961  13.188  27.956   4.701
42482W        W 7962   4.710  12.253  11.063
42483W        W 7963  25.091  21.627  13.830
42484W        W 7964  43.984  44.437  12.860
42485W        W 7965  39.027   6.191   4.258
42486W        W 7966  42.802  28.002   1.840
42487W        W 7967  26.024  34.889  13.439
42488W        W 7968  23.230  29.988   2.684
42489W        W 7969  21.657   0.921  13.518
42490W        W 7970  22.055  13.742  14.763
42491W        W 7971  36.559   7.744  12.021
42492W        W 7972  22.235   9.709  11.554
42493W        W 7973  30.480   3.308   0.448
42494W        W 7974  29.669  28.955  13.802
42495W        W 7975   1.732  43.332   0.316
42496W        W 7976  13.340   8.692   2.205
42497W        W 7977  37.024  21.199   0.337
42498W        W 7978  33.515  17.651  11.555
42499W        W 7979  10.229  13.804   4.618
42500W        W 7980  30.953  32.028  14.883
42501W        W 7981   5.883  19.210  11.600
42502W        W 7982   0.433  14.172   4.303
42503W        W 7983  27.689   9.860  11.376
42504W        W 7984  13.169  11.652   1.213
42505W        W 7985  38.329  21.026  13.450
42506W        W 7986   2.782  13.770  12.941
42507W        W 7987  15.744  36.915   0.865
42508W        W 7988  44.922  22.690  14.504
42509W        W 7989  20.146   4.758   4.119
42510W        W 7990  19.081  21.707  14.806
42511W        W 7991  20.215   4.750  13.484
42512W        W 7992   3.412  33.524   0.454
42513W        W 7993  13.723  29.075   3.700
42514W        W 7994  26.117   7.220   2.372
42515W        W 7995  15.705  19.671   0.320
42516W        W 7996  44.812  25.085   2.412
42517W        W 7997  14.226  30.430   9.955
42518W        W 7998  29.575   4.812  12.936
42519W        W 7999   5.227  34.013  13.491
42520W        W 8000  28.564  33.468   1.238
42521W        W 8001  30.522  17.291   2.828
42522W        W 8002   9.767  24.984   0.322
42523W        W 8003   7.389  30.643   4.252
42524W        W 8004  24.985  25.648   2.824
42525W        W 8005  12.768  12.178  14.357
42526W        W 8006  43.428  40.442  14.025
42527W        W 8007  11.842  11.805   1.788
42528W        W 8008  31.550  10.638   0.851
42529W        W 8009  41.447  22.184  14.361
42530W        W 8010  40.887   0.419  11.123
42531W        W 8011  31.071   0.400  12.848
42532W        W 8012  41.463   9.251   2.224
42533W        W 8013  37.881  15.580  13.538
42534W        W 8014  25.657  12.681   2.202
42535W        W 8015  31.000  43.953  13.495
42536W        W 8016  26.498  13.639  11.976
42537W        W 8017  27.009  36.054   0.764
42538W        W 8018   8.810  20.184   4.648
42539W        W 8019  37.945   4.330  12.916
42540W        W 8020  30.075   7.766   2.216
42541W        W 8021  17.252  31.007  12.540
42542W        W 8022  29.424   6.214   4.795
42543W        W 8023  42.341  31.907  12.537
42544W        W 8024  12.623   9.195   3.236
42545W        W 8025  43.791  26.524   3.327
42546W        W 8026   7.180  25.181   2.340
42547W        W 8027  24.186  29.971   4.609
42548W        W 8028  14.246  18.182  13.415
42549W        W 8029  10.651  21.658   0.888
42550W        W 8030  19.100  35.563  11.011
42551W        W 8031  34.520  18.784  10.989
42552W        W 8032   9.270  43.004   2.818
42553W        W 8033  15.750  29.101   4.832
42554W        W 8034   8.850  37.923   5.305
42555W        W 8035   0.461  20.552   2.802
42556W        W 8036  22.696  18.291  10.064
42557W        W 8037  33.424  42.995   3.784
42558W        W 8038   9.207  35.923   0.853
42559W        W 8039  27.603  23.577  13.988
42560W        W 8040  11.290  38.477   1.859
42561W        W 8041  12.237  13.634   4.253
42562W        W 8042  25.517  17.656   2.224
42563W        W 8043  26.518  43.396   4.623
42564W        W 8044  44.474  39.438   3.720
42565W        W 8045  18.190  13.125  13.502
42566W        W 8046   6.251  23.514  13.063
42567W        W 8047  36.557  35.557  13.817
42568W        W 8048  16.212  12.782   1.336
42569W        W 8049  20.073  34.554   2.406
42570W        W 8050  12.760  35.582   1.702
42571W        W 8051  35.456  13.110  14.337
42572W        W 8052  21.179  39.867  10.096
42573W        W 8053  27.062  10.820   4.303
42574W        W 8054  40.049  13.204  14.286
42575W        W 8055  11.673  31.487  11.855
42576W        W 8056  37.453  26.116  12.003
42577W        W 8057  12.267  18.770  11.090
42578W        W 8058  13.773   9.224  11.387
42579W        W 8059  10.868   5.391   2.372
42580W        W 8060   6.777  39.984  13.817
42581W        W 8061   9.671  28.954  13.813
42582W        W 8062  21.584  41.937  14.960
42583W        W 8063  18.100  31.140   2.884
42584W        W 8064  11.718  31.985   2.694
42585W        W 8065  37.412  33.909   0.347
42586W        W 8066  17.141  12.360  13.019
42587W        W 8067  42.516  23.510   4.682
42588W        W 8068   0.306  18.105   3.671
42589W        W 8069  32.575   5.816   0.755
42590W        W 8070   7.371   1.427   3.318
42591W        W 8071  12.128  32.444   3.821
42592W        W 8072  31.046  12.635  13.024
42593W        W 8073  21.660  17.083   1.796
42594W        W 8074   0.829  14.261  14.849
42595W        W 8075  29.427  38.919   2.404
42596W        W 8076  29.552  28.613  12.848
42597W        W 8077  17.062   6.920   2.193
42598W        W 8078   3.917  33.879   3.326
42599W        W 8079   4.930  25.969   0.418
42600W        W 8080   5.433  10.354   9.956
42601W        W 8081   7.755  27.686  13.988
42602W        W 8082   9.830  26.189   3.363
42603W        W 8083  37.382  41.327   0.860
42604W        W 8084  10.299   1.950   0.400
42605W        W 8085  25.213  37.489  12.883
42606W        W 8086  25.567  24.103   0.250
42607W        W 8087  30.579   6.897   1.333
42608W        W 8088  25.691   8.786   1.705
42609W        W 8089   7.415  29.937   0.303
42610W        W 8090  40.332  24.167  10.969
42611W        W 8091  22.730  26.064   0.439
42612W        W 8092  40.443   9.168  14.962
42613W        W 8093  19.046   6.768   3.789
42614W        W 8094  20.213  25.563  13.819
42615W        W 8095  14.642  43.453   3.372
42616W        W 8096   5.857  39.454  14.850
42617W        W 8097  34.958  37.847  13.308
42618W        W 8098  23.588  23.178  11.549
42619W        W 8099  11.778  42.909  13.050
42620W        W 8100  17.558   2.242  11.564
42621W        W 8101  21.602  35.444  11.053
42622W        W 8102  30.518   6.905   2.798
42623W        W 8103  38.427  40.365   3.758
42624W        W 8104  26.198  23.579  10.475
42625W        W 8105  26.463   7.409  13.358
42626W        W 8106   6.793  10.283  10.405
42627W        W 8107  10.656  36.588   1.255
42628W        W 8108  16.164   4.274   0.882
42629W        W 8109  16.587   5.277   3.848
42630W        W 8110  13.721  22.028  10.519
42631W        W 8111   2.374  15.804  11.391
42632W        W 8112  32.535  12.645  14.412
42633W        W 8113  31.072  20.536   3.204
42634W        W 8114   9.844  40.886   4.185
42635W        W 8115  23.677  21.107  10.543
42636W        W 8116  16.777   6.247   2.885
42637W        W 8117   0.330  13.233   1.335
42638W        W 8118   0.901  40.395  13.396
42639W        W 8119  13.141  20.110  12.501
42640W        W 8120   8.783  37.839  10.521
42641W        W 8121  16.086  33.992   1.881
42642W        W 8122  24.719  13.305   0.897
42643W        W 8123  23.592  35.510  14.028
42644W        W 8124  30.641   1.925   2.370
42645W        W 8125  34.474   2.879  14.946
42646W        W 8126  41.969  32.038  11.468
42647W        W 8127   0.905  29.655  11.387
42648W        W 8128  13.266  28.502  14.839
42649W        W 8129  12.205   2.769   4.692
42650W        W 8130  35.862  28.173   0.257
42651W        W 8131  32.075  16.623  13.391
42652W        W 8132  35.944  26.033   1.434
42653W        W 8133   6.396   0.787  12.517
42654W        W 8134   4.401  17.252   4.257
42655W        W 8135  29.061   1.776  13.359
42656W        W 8136  44.275  21.556  12.030
42657W        W 8137  40.413  38.354   4.261
42658W        W 8138  23.017  38.886  11.464
42659W        W 8139  41.013  20.185   4.217
42660W        W 8140   3.416  18.115  13.482
42661W        W 8141  31.471  42.922  14.821
42662W        W 8142  23.664  33.499   1.217
42663W        W 8143   6.863  41.413   3.203
42664W        W 8144  43.810  18.737  10.529
42665W        W 8145  20.263   3.359  14.959
42666W        W 8146  11.838  28.657  10.958
42667W        W 8147  42.368  24.706  10.470
42668W        W 8148   2.766  38.936   0.950
42669W        W 8149  22.713  14.117  11.450
42670W        W 8150  44.784  17.688  10.497
42671W        W 8151   8.381  28.669   4.602
42672W        W 8152  39.994   4.421   1.716
42673W        W 8153  26.674  12.186  13.399
42674W        W 8154  21.176   1.862   0.734
42675W        W 8155  38.394  31.979  14.006
42676W        W 8156  36.898   3.325  13.372
42677W        W 8157  37.861   6.220   2.734
42678W        W 8158   9.279   3.247  14.458
42679W        W 8159  32.502   3.753  14.003
42680W        W 8160  24.185  29.663  12.824
42681W        W 8161  34.432   7.198   2.684
42682W        W 8162  11.661  27.016  12.969
42683W        W 8163  25.203   2.239   4.286
42684W        W 8164  33.385  30.977   4.646
42685W        W 8165  23.007  33.057   0.398
42686W        W 8166  39.943  39.317   4.715
42687W        W 8167  13.212  31.031   2.360
42688W        W 8168  10.757   4.344   4.243
42689W        W 8169  10.682   9.672  12.081
42690W        W 8170  16.310   3.802  14.467
42691W        W 8171  40.992  10.165   3.806
42692W        W 8172  12.685  39.001   4.135
42693W        W 8173  31.538  35.981   0.298
42694W        W 8174  11.740  38.483   2.861
42695W        W 8175   4.929  37.501   4.344
42696W        W 8176  39.977  30.049  14.839
42697W        W 8177  42.972   9.285   0.346
42698W        W 8178  20.638  31.959  10.560
42699W        W 8179  11.132  21.051  11.873
42700W        W 8180   4.942   7.177   2.847
42701W        W 8181  33.539   7.831   3.189
42702W        W 8182  35.055   1.322  12.556
42703W        W 8183  42.867  35.479  10.981
42704W        W 8184  33.588  44.765   4.115
42705W        W 8185   8.224  21.031   4.762
42706W        W 8186  35.463  23.557   4.782
42707W        W 8187  37.558  16.777   1.325
42708W        W 8188  10.655  21.103  12.454
42709W        W 8189   2.955  40.416  11.561
42710W        W 8190  20.728  29.483   3.171
42711W        W 8191  18.622  20.059   0.412
42712W        W 8192   7.327  35.881  14.821
42713W        W 8193   6.791  28.147  11.968
42714W        W 8194   3.749  12.724   3.363
42715W        W 8195   5.843  34.882  10.458
42716W        W 8196  30.483  12.258  10.515
42717W        W 8197  22.699   8.216   0.824
42718W        W 8198  22.686  18.272  12.891
42719W        W 8199  32.528  33.982   3.314
42720W        W 8200  19.104  42.920  11.961
42721W        W 8201  19.534  44.402  12.550
42722W        W 8202  28.521  10.786  13.480
42723W        W 8203  36.580  15.264  13.052
42724W        W 8204  14.601  19.561  11.893
42725W        W 8205  11.354  41.329   1.350
42726W        W 8206   9.804   6.680   2.704
42727W        W 8207   6.789   4.939  12.533
42728W        W 8208   6.832  44.789  14.803
42729W        W 8209  15.581  30.072   4.669
42730W        W 8210   4.760  33.066   1.438
42731W        W 8211   5.394   0.458  10.604
42732W        W 8212   9.814  15.106  11.587
42733W        W 8213   4.915  15.614  14.762
42734W        W 8214  42.521  18.753  10.973
42735W        W 8215  15.216  41.028  13.976
42736W        W 8216  29.074  30.515  13.330
42737W        W 8217  41.016   5.436   1.424
42738W        W 8218   9.687  17.632  12.958
42739W        W 8219  29.633  23.500   0.786
42740W        W 8220  33.021  29.143   2.215
42741W        W 8221  24.078  14.318   2.372
42742W        W 8222   0.305   4.865   3.861
42743W        W 8223  42.809   3.743   3.305
42744W        W 8224  22.170  39.369   1.861
42745W        W 8225   1.965  19.174  13.042
42746W        W 8226  18.112  19.777   1.705
42747W        W 8227   2.863   2.921  14.461
42748W        W 8228  30.078   3.424  10.060
42749W        W 8229   0.310  43.320  14.984
42750W        W 8230  27.008  22.017   1.871
42751W        W 8231   7.698   8.177  11.108
42752W        W 8232  14.143   7.368   0.745
42753W        W 8233  33.407   4.346   3.676
42754W        W 8234   7.372  12.785  13.957
42755W        W 8235  39.003   4.282  13.334
42756W        W 8236   3.264  37.580   2.248
42757W        W 8237  33.028  21.153  11.611
42758W        W 8238  32.493  32.041   2.343
42759W        W 8239  14.589   3.894   2.697
42760W        W 8240  25.476  42.775   4.113
42761W        W 8241  24.714   1.381   1.864
42762W        W 8242  18.155  43.787   1.923
42763W        W 8243  29.633  23.133  13.432
42764W        W 8244  41.509  38.548  12.999
42765W        W 8245  18.188  25.967   1.738
42766W        W 8246  12.710   4.891   4.750
42767W        W 8247  16.741  22.691  12.437
42768W        W 8248  36.932   1.835  12.966
42769W        W 8249   5.884  21.213   0.374
42770W        W 8250   2.816  35.515  14.391
42771W        W 8251  25.149  38.976  14.905
42772W        W 8252  36.535  42.371   1.815
42773W        W 8253   2.829   6.322  14.853
42774W        W 8254  37.863  13.624  12.063
42775W        W 8255  19.150  24.609  11.377
42776W        W 8256  15.121  26.581  11.881
42777W        W 8257   9.875   0.977  11.592
42778W        W 8258  30.420  16.214  11.434
42779W        W 8259  33.606  44.500   1.913
42780W        W 8260  35.921  27.650   2.224
42781W        W 8261  20.641   2.728   1.414
42782W        W 8262  15.083  12.740  12.460
42783W        W 8263   2.879  34.534  14.827
42784W        W 8264  15.229  26.961  11.935
42785W        W 8265  25.121  11.746  13.007
42786W        W 8266   8.298  29.623  14.999
42787W        W 8267  31.947   8.176   3.766
42788W        W 8268  28.021  24.061  13.920
42789W        W 8269  31.531  38.388  10.410
42790W        W 8270  42.439  43.786   0.812
42791W        W 8271  14.299  16.215   2.858
42792W        W 8272  42.957  44.812  14.825
42793W        W 8273  32.953   9.697   3.302
42794W        W 8274   0.839   8.299  11.916
42795W        W 8275  25.069  40.861  13.474
42796W        W 8276   8.222  22.027  12.353
42797W        W 8277  31.907   1.428   2.351
42798W        W 8278   8.303  36.922   0.351
42799W        W 8279   0.841  26.543  10.527
42800W        W 8280   7.899   8.831  11.420
42801W        W 8281  29.566  34.468  12.369
42802W        W 8282  13.617  33.101  11.952
42803W        W 8283  42.887  36.864  12.092
42804W        W 8284  21.173  14.704   2.807
42805W        W 8285  35.927  33.579   3.172
42806W        W 8286   2.293  16.684  13.375
42807W        W 8287   8.869  14.172  11.487
42808W        W 8288  19.699  40.432   4.605
42809W        W 8289   7.176  18.688   0.422
42810W        W 8290  38.946  38.849  14.893
42811W        W 8291  19.171  16.795   2.391
42812W        W 8292  18.741  33.899  11.917
42813W        W 8293   5.235   8.664  12.359
42814W        W 8294  32.084  27.624   1.929
42815W        W 8295  41.970   3.398  14.346
42816W        W 8296  29.631  13.130  14.938
42817W        W 8297  11.634   5.724   4.798
42818W        W 8298  21.043  26.027   2.413
42819W        W 8299   9.694  36.002  11.026
42820W        W 8300  43.773  41.313  13.325
42821W        W 8301  17.581  35.412   5.151
42822W        W 8302  24.636   0.911  10.555
42823W        W 8303  44.913  29.940  14.840
42824W        W 8304  17.660  13.158  11.043
42825W        W 8305   8.807   9.312   1.787
42826W        W 8306  18.105  21.552   2.666
42827W        W 8307  44.376  21.577  12.385
42828W        W 8308  26.058  35.965  14.858
42829W        W 8309  44.449   4.365  11.607
42830W        W 8310  25.214  36.067   4.666
42831W        W 8311  18.096  16.782   2.187
42832W        W 8312   1.878  41.864   4.351
42833W        W 8313  15.328   7.300  11.493
42834W        W 8314  31.463   6.698  14.843
42835W        W 8315  35.011  38.439   0.268
42836W        W 8316  34.084  38.047  14.510
42837W        W 8317  29.097  15.731  13.506
42838W        W 8318  16.785  19.587   5.214
42839W        W 8319  33.932  18.279   3.751
42840W        W 8320  27.971  31.520  11.897
42841W        W 8321  20.702  10.860  13.957
42842W        W 8322  21.543  27.104  10.528
42843W        W 8323   6.345  27.605  13.446
42844W        W 8324  26.655  15.632  12.897
42845W        W 8325   5.772  44.882  14.929
42846W        W 8326  11.794  35.583  11.577
42847W        W 8327  35.066  43.875   3.218
42848W        W 8328  29.012  12.291  13.419
42849W        W 8329  13.265  13.776   0.863
42850W        W 8330  10.291  24.086  11.909
42851W        W 8331  29.633   1.755  14.765
42852W        W 8332  38.853  39.556  14.307
42853W        W 8333   4.326  37.893  13.540
42854W        W 8334  30.431  19.646  11.116
42855W        W 8335  26.976  13.173  14.481
42856W        W 8336  31.620   3.383  11.066
42857W        W 8337  23.176  29.151   0.304
42858W        W 8338   7.801   5.889   1.431
42859W        W 8339  30.572   3.954  13.871
42860W        W 8340  12.738  13.325  10.988
42861W        W 8341   6.677  37.876  11.525
42862W        W 8342  39.419  32.952   1.348
42863W        W 8343  25.695  12.148   2.340
42864W        W 8344  23.211   5.701   3.677
42865W        W 8345   7.805   5.856  14.429
42866W        W 8346  35.973  30.436   3.694
42867W        W 8347   0.910  39.480  11.875
42868W        W 8348  38.530  33.550   0.308
42869W        W 8349  19.615  43.823  12.987
42870W        W 8350  22.550   7.670   2.747
42871W        W 8351  37.554  28.656   3.672
42872W        W 8352   8.886  43.804   4.733
42873W        W 8353  42.491  17.232   4.770
42874W        W 8354  40.938  22.196   1.914
42875W        W 8355  24.527  41.957   0.803
42876W        W 8356  39.447  11.778  13.929
42877W        W 8357   1.850  39.878   4.126
42878W        W 8358   2.456   9.644  12.340
42879W        W 8359  13.821   1.405   1.339
42880W        W 8360  27.942  34.533   0.792
42881W        W 8361   0.469   1.346  13.022
42882W        W 8362  27.501   6.808   4.297
42883W        W 8363  30.014  44.458   3.303
42884W        W 8364  23.663  12.627  11.976
42885W        W 8365   5.907  43.444   0.411
42886W        W 8366  16.681  24.670   3.807
42887W        W 8367   2.727   7.700  13.991
42888W        W 8368  43.323   5.902   4.605
42889W        W 8369  17.674  22.536  13.478
42890W        W 8370   9.692  38.958  10.991
42891W        W 8371  29.505   3.932  12.522
42892W        W 8372   9.669   7.226   2.708
42893W        W 8373   0.317  43.385   0.379
42894W        W 8374  15.219  23.631  13.350
42895W        W 8375  29.026   9.203   1.695
42896W        W 8376  31.050  29.026   4.735
42897W        W 8377   2.409  34.089  13.347
42898W        W 8378  23.201  28.173   4.312
42899W        W 8379  34.507  24.170   1.725
42900W        W 8380   4.348   6.212  13.499
42901W        W 8381  16.300  18.778   0.372
42902W        W 8382  21.123  33.449   5.302
42903W        W 8383   1.347  15.272   0.288
42904W        W 8384  27.633   1.808   4.719
42905W        W 8385  33.002  38.406   2.205
42906W        W 8386   8.175  25.652   1.815
42907W        W 8387   3.842  20.593  13.325
42908W        W 8388   7.811  38.016  14.876
42909W        W 8389  22.135   9.293   2.724
42910W        W 8390  36.918  42.300   1.896
42911W        W 8391  24.001  25.977  13.866
42912W        W 8392  41.298  21.590   0.819
42913W        W 8393  28.962  42.894  13.433
42914W        W 8394  15.224   8.310  11.010
42915W        W 8395   7.255  35.378  12.384
42916W        W 8396  10.765  22.595  13.524
42917W        W 8397  28.486  23.063  14.920
42918W        W 8398  36.058  36.040  13.323
42919W        W 8399  33.057  31.964   0.404
42920W        W 8400  17.618  25.048   3.792
42921W        W 8401  17.656  25.710   3.294
42922W        W 8402  10.783  25.144   3.771
42923W        W 8403  24.538  24.040  13.054
42924W        W 8404   9.187  42.407   3.645
42925W        W 8405  13.134  37.387  13.385
42926W        W 8406   5.834  10.198  14.836
42927W        W 8407   5.920  15.166  13.894
42928W        W 8408  21.076  40.447   0.292
42929W        W 8409  13.764  19.732  12.463
42930W        W 8410   9.864  26.109   1.391
42931W        W 8411  14.716  17.175   2.253
42932W        W 8412  10.248  36.496   1.769
42933W        W 8413  36.868   3.841   0.264
42934W        W 8414  25.110  20.269   1.411
42935W        W 8415  41.862   9.738   0.729
42936W        W 8416  12.358  11.236   0.469
42937W        W 8417  29.078  39.330   3.264
42938W        W 8418  38.999  31.901  13.007
42939W        W 8419   1.380  12.671   0.410
42940W        W 8420   8.246   8.710   5.171
42941W        W 8421   0.381  17.670  12.823
42942W        W 8422   4.784  40.880  11.918
42943W        W 8423  32.522  18.158   4.672
42944W        W 8424   0.468   7.793  12.970
42945W        W 8425   7.907  39.915   2.408
42946W        W 8426   1.831  30.464   0.791
42947W        W 8427   2.942  34.953  13.893
42948W        W 8428  20.127  44.948   2.783
42949W        W 8429   9.243  33.106  14.433
42950W        W 8430   4.803  20.561  13.947
42951W        W 8431  14.757  24.000   0.349
42952W        W 8432  13.805  37.929   2.352
42953W        W 8433  37.485  38.477  13.879
42954W        W 8434  20.765   9.858  10.499
42955W        W 8435  37.385  18.160  11.979
42956W        W 8436  20.108  21.166  14.848
42957W        W 8437  31.932  38.827   1.260
42958W        W 8438   0.948  44.861  12.976
42959W        W 8439  29.457  39.523   3.641
42960W        W 8440  44.855  18.658  13.994
42961W        W 8441  20.129  42.282   3.344
42962W        W 8442  37.337  14.749   4.822
42963W        W 8443   1.404  26.665   3.859
42964W        W 8444  14.639  25.480  10.907
42965W        W 8445  41.472  14.654   3.165
42966W        W 8446  29.006   1.890   0.849
42967W        W 8447  10.813   4.737  12.559
42968W        W 8448  34.546  37.987  13.374
42969W        W 8449  12.686   5.793   0.306
42970W        W 8450  12.150  23.128   1.431
42971W        W 8451  24.622  28.051   0.832
42972W        W 8452  10.768  29.067  12.931
42973W        W 8453  27.620   2.902   1.787
42974W        W 8454  33.934  44.264  12.842
42975W        W 8455  20.262  27.155  13.373
42976W        W 8456  14.249  22.014   4.639
42977W        W 8457  11.302   7.329  10.581
42978W        W 8458  34.550   1.824  11.936
42979W        W 8459  18.253  44.427   2.857
42980W        W 8460  33.968  39.489   2.788
42981W        W 8461   0.452  13.657  10.419
42982W        W 8462   2.381   2.236  13.535
42983W        W 8463   3.779  30.423  13.814
42984W        W 8464  24.085   1.746  11.385
42985W        W 8465   2.249  17.703  12.340
42986W        W 8466  10.864  17.269  12.057
42987W        W 8467   1.371  26.626  12.565
42988W        W 8468  38.877  43.770   4.667
42989W        W 8469  22.543  19.610   3.252
42990W        W 8470  18.117   5.801  14.820
42991W        W 8471  25.966  35.384  13.978
42992W        W 8472  20.237  39.882  11.593
42993W        W 8473  23.603  11.674   1.899
42994W        W 8474  31.575   7.813  11.432
42995W        W 8475  30.041   9.160  12.908
42996W        W 8476  23.492  26.074   3.159
42997W        W 8477   4.428  16.269   1.756
42998W        W 8478   8.675  10.248  10.107
42999W        W 8479   2.854  20.144  13.876
43000W        W 8480   6.198  10.828  14.783
43001W        W 8481  17.766   3.337   3.323
43002W        W 8482  15.741  23.219  10.955
43003W        W 8483  40.006   4.206   3.376
43004W        W 8484  30.957  33.083  14.759
43005W        W 8485  20.531  38.975   3.856
43006W        W 8486  26.208  39.430   0.734
43007W        W 8487  36.413   0.491  11.601
43008W        W 8488  31.064  26.523  13.004
43009W        W 8489  41.337   0.871  12.517
43010W        W 8490   8.654  40.451  13.062
43011W        W 8491  43.372  16.805   1.854
43012W        W 8492   4.840  33.386  11.503
43013W        W 8493  27.692  19.064   3.288
43014W        W 8494  36.911  17.664  14.793
43015W        W 8495  11.783  43.295  11.101
43016W        W 8496  30.934   3.819   1.378
43017W        W 8497  16.703  34.385  11.475
43018W        W 8498  26.959   1.925   1.348
43019W        W 8499   8.801   6.781   2.733
43020W        W 8500  17.263   3.389  11.417
43021W        W 8501  17.800  23.165  13.362
43022W        W 8502  27.008  19.722   0.868
43023W        W 8503  36.351   8.712   0.297
43024W        W 8504  26.980  38.534   2.312
43025W        W 8505  24.551  42.517   3.735
43026W        W 8506  37.854  24.128  13.319
43027W        W 8507  41.993  14.802   4.222
43028W        W 8508   1.473  12.831  13.009
43029W        W 8509   6.840   5.235  13.838
43030W        W 8510   0.329   0.770   1.213
43031W        W 8511   3.837  14.620  12.997
43032W        W 8512  10.238  41.439   0.398
43033W        W 8513  23.706  42.032   2.705
43034W        W 8514  23.623  37.931  14.984
43035W        W 8515  11.264  34.497  13.792
43036W        W 8516  44.382  20.702   2.758
43037W        W 8517  23.109  34.468   4.241
43038W        W 8518  44.403   5.358   1.906
43039W        W 8519  43.332   1.820  14.504
43040W        W 8520   4.301  44.817   3.276
43041W        W 8521   2.357  17.066  14.895
43042W        W 8522   3.254   7.789  11.990
43043W        W 8523  33.473  18.709   4.707
43044W        W 8524   1.921  40.513   0.839
43045W        W 8525  17.768  38.044  14.308
43046W        W 8526  44.429  29.474   4.599
43047W        W 8527   0.397  14.742   3.757
43048W        W 8528  33.387  25.132   3.827
43049W        W 8529  14.231  16.082   0.746
43050W        W 8530   2.784  10.158  12.480
43051W        W 8531   3.723   8.337  10.921
43052W        W 8532  10.733  28.539   3.822
43053W        W 8533  21.699  42.796   0.357
43054W        W 8534   6.327  20.654  11.049
43055W        W 8535  27.678  41.359  12.045
43056W        W 8536  10.332  10.877  12.091
43057W        W 8537  42.354  34.901   0.411
43058W        W 8538  26.141  34.597   4.602
43059W        W 8539   3.291  26.174   4.268
43060W        W 8540  32.073  29.442  13.936
43061W        W 8541  39.397  19.711   3.870
43062W        W 8542  44.259  16.080  10.147
43063W        W 8543  37.485   1.471  14.279
43064W        W 8544  40.303  19.566   3.786
43065W        W 8545  15.694  12.683  12.428
43066W        W 8546  42.894  28.949  13.001
43067W        W 8547  34.561   5.702   3.664
43068W        W 8548  29.134   8.368   3.767
43069W        W 8549  24.697  30.110   0.315
43070W        W 8550  36.881  11.677   3.847
43071W        W 8551  27.013  34.982  13.847
43072W        W 8552  22.592  15.213  14.295
43073W        W 8553  33.008  22.534   1.735
43074W        W 8554  27.975  19.142   1.364
43075W        W 8555   2.229  28.004   1.299
43076W        W 8556  44.324  26.032  14.786
43077W        W 8557  41.297  40.973   1.293
43078W        W 8558  12.291  11.841  13.515
43079W        W 8559  18.212  13.733  14.478
43080W        W 8560  28.482  31.088   3.818
43081W        W 8561   2.940  26.512  11.543
43082W        W 8562  26.149  35.498  10.641
43083W        W 8563  35.383   6.200   0.766
43084W        W 8564   8.774  41.887  13.311
43085W        W 8565   8.398  41.033  11.030
43086W        W 8566  26.537  36.948  10.544
43087W        W 8567   0.339  40.897  14.384
43088W        W 8568  35.443   1.345  12.463
43089W        W 8569  31.133  24.136  11.033
43090W        W 8570  25.507  24.615   0.289
43091W        W 8571  14.265  36.483  12.982
43092W        W 8572   7.769   9.813  10.570
43093W        W 8573   7.200   4.231  13.819
43094W        W 8574  31.595  21.515   2.186
43095W        W 8575   5.910   2.397  10.991
43096W        W 8576  26.188  38.550   0.339
43097W        W 8577  28.979  18.281   3.867
43098W        W 8578   9.753  26.543  13.334
43099W        W 8579  19.047  41.004  11.987
43100W        W 8580   4.342   0.442   3.779
43101W        W 8581  18.070  24.041  12.525
43102W        W 8582  37.371  12.694   4.127
43103W        W 8583  33.578  26.024  14.376
43104W        W 8584  22.731  26.568  12.054
43105W        W 8585  11.824  25.153   1.781
43106W        W 8586  36.916  16.609   2.827
43107W        W 8587  41.906  18.687   3.765
43108W        W 8588  12.626  31.551  11.472
43109W        W 8589  36.918  42.338   1.242
43110W        W 8590  15.185  12.680   4.703
43111W        W 8591  18.109  15.188  13.960
43112W        W 8592  13.270  12.298   0.452
43113W        W 8593   3.746  19.257  10.555
43114W        W 8594   5.874  30.103   4.805
43115W        W 8595  34.937  25.669  11.906
43116W        W 8596  42.883   1.286  11.559
43117W        W 8597   0.293  44.466  13.835
43118W        W 8598   3.460  17.170   2.670
43119W        W 8599  27.145  37.505   2.263
43120W        W 8600  13.745  10.638   2.711
43121W        W 8601  36.072   9.664   4.635
43122W        W 8602  41.804  25.688  11.462
43123W        W 8603  19.732  34.975  11.869
43124W        W 8604  22.699  40.302  11.968
43125W        W 8605  15.128  41.835   1.808
43126W        W 8606  38.380  30.651  12.093
43127W        W 8607  44.362  29.519  12.873
43128W        W 8608   5.358  15.222  12.836
43129W        W 8609  42.396   2.402  13.863
43130W        W 8610  11.844  15.577   0.942
43131W        W 8611  19.129  29.067   5.250
43132W        W 8612  27.095   5.318  10.576
43133W        W 8613   3.907  42.843   2.796
43134W        W 8614  15.268  30.574   1.721
43135W        W 8615  22.233  25.122  13.005
43136W        W 8616  19.223  10.760   1.935
43137W        W 8617   4.945  43.374   4.134
43138W        W 8618  34.986  38.962  14.864
43139W        W 8619  16.696  25.015   3.156
43140W        W 8620   2.464  29.042   3.778
43141W        W 8621  20.197  39.417  10.526
43142W        W 8622  43.796  37.436  10.478
43143W        W 8623  17.690  38.328  11.526
43144W        W 8624  42.499  38.497   4.769
43145W        W 8625  31.466  12.798   2.702
43146W        W 8626  22.126  27.547  12.027
43147W        W 8627  13.173   3.817   3.154
43148W        W 8628  44.263  14.810  11.542
43149W        W 8629  30.963  38.462  14.905
43150W        W 8630   0.760  22.066  12.476
43151W        W 8631  20.682  13.844   4.792
43152W        W 8632  16.111  32.406  11.016
43153W        W 8633  33.419   4.415   2.367
43154W        W 8634  19.598  38.331  12.562
43155W        W 8635  16.305  13.164   0.468
43156W        W 8636  32.021  44.984   1.248
43157W        W 8637  34.514  40.002   4.150
43158W        W 8638   6.714   5.361   4.313
43159W        W 8639  23.082  10.324  10.567
43160W        W 8640  13.635  26.488  12.946
43161W        W 8641  39.518  41.529  10.588
43162W        W 8642  13.823   9.168  12.929
43163W        W 8643  37.939  10.818   2.260
43164W        W 8644  38.988  16.155  14.307
43165W        W 8645  43.416  39.444  11.870
43166W        W 8646  18.734  28.503   2.367
43167W        W 8647  17.230   3.814  11.473
43168W        W 8648  41.837   8.721  10.625
43169W        W 8649  38.521  27.650  12.081
43170W        W 8650  36.093  44.451   3.712
43171W        W 8651  12.173  24.580   1.440
43172W        W 8652  23.174   2.865  12.079
43173W        W 8653  11.822  20.726   2.786
43174W        W 8654  43.416  29.492  12.029
43175W        W 8655  23.017  44.455  13.517
43176W        W 8656   9.368  35.578  10.420
43177W        W 8657   9.687  39.528  13.976
43178W        W 8658  31.539  19.178  14.015
43179W        W 8659  30.974  12.724  13.381
43180W        W 8660  24.996  43.897   1.859
43181W        W 8661  28.623  34.069   2.731
43182W        W 8662  15.634   3.384  12.363
43183W        W 8663  40.456  23.097   1.353
43184W        W 8664  22.573   5.757   0.474
43185W        W 8665  14.221  17.113  12.988
43186W        W 8666  15.668  42.883  14.758
43187W        W 8667  18.277  11.650  12.082
43188W        W 8668  26.488  34.035   0.437
43189W        W 8669  38.358  22.240   1.933
43190W        W 8670   4.725  42.898   0.390
43191W        W 8671  13.348  26.039   3.800
43192W        W 8672   6.741  29.627  12.850
43193W        W 8673  37.563  17.167   2.715
43194W        W 8674  21.616  19.193   3.303
43195W        W 8675  25.489  38.384  11.943
43196W        W 8676  27.044   8.773  14.417
43197W        W 8677  42.294   6.830   0.738
43198W        W 8678  12.293   8.806  11.493
43199W        W 8679  44.892  19.161  12.976
43200W        W 8680   7.821  26.565  13.522
43201W        W 8681  34.435  23.042   3.845
43202W        W 8682   6.895  26.494   1.743
43203W        W 8683  20.064  20.087  14.437
43204W        W 8684  18.151  22.054   3.239
43205W        W 8685  16.090  29.064   4.631
43206W        W 8686  17.774   0.796  12.861
43207W        W 8687   7.692  12.683  13.031
43208W        W 8688  40.980  14.777   0.899
43209W        W 8689   0.964  33.093   3.656
43210W        W 8690   6.913  23.142   0.837
43211W        W 8691  20.196  12.792   1.277
43212W        W 8692  18.551  17.663  13.860
43213W        W 8693  34.031  31.048   3.319
43214W        W 8694   8.735  10.827   1.336
43215W        W 8695  17.205  44.415  10.489
43216W        W 8696   0.313   2.329  10.544
43217W        W 8697  24.992  22.745  12.883
43218W        W 8698  34.424  44.830  12.353
43219W        W 8699  17.063  25.692  11.085
43220W        W 8700  44.801  34.037  13.975
43221W        W 8701  39.415  40.498  12.960
43222W        W 8702   1.735  37.378   4.207
43223W        W 8703   9.248  11.655  12.360
43224W        W 8704   5.889   0.807  12.364
43225W        W 8705   8.749   1.954  10.904
43226W        W 8706   8.719  21.608  14.950
43227W        W 8707  25.594   6.373  12.946
43228W        W 8708   9.679  36.536  11.095
43229W        W 8709  41.817   4.448  13.030
43230W        W 8710  15.138  28.136  12.053
43231W        W 8711  31.994   8.699   1.303
43232W        W 8712   7.759  13.161  14.337
43233W        W 8713  40.348  40.464  11.591
43234W        W 8714  38.557  15.236   4.310
43235W        W 8715   5.913   6.760  12.018
43236W        W 8716  35.917  38.543  11.117
43237W        W 8717   3.895  17.288  13.839
43238W        W 8718  28.114  34.452   0.330
43239W        W 8719  19.157  39.005   2.685
43240W        W 8720  23.574  31.989   0.462
43241W        W 8721  39.526  39.479  14.910
43242W        W 8722  35.467  25.511   4.255
43243W        W 8723  28.604  32.566  13.812
43244W        W 8724   8.763  37.367  14.447
43245W        W 8725  10.168  44.902   1.888
43246W        W 8726  44.498  29.585  10.622
43247W        W 8727   0.968   1.872   4.319
43248W        W 8728  17.671  28.173  12.018
43249W        W 8729   7.200  10.817  14.469
43250W        W 8730  43.776  26.643   1.837
43251W        W 8731  24.999  37.573   4.772
43252W        W 8732  23.035   3.807   3.311
43253W        W 8733  22.682  33.928  14.285
43254W        W 8734  24.026  35.384   1.218
43255W        W 8735  36.378  42.439  14.389
43256W        W 8736  39.977  25.006   0.452
43257W        W 8737  41.295  17.559  10.092
43258W        W 8738   8.184  10.272   3.367
43259W        W 8739  31.445   1.425  11.453
43260W        W 8740  25.120  18.778  13.449
43261W        W 8741  22.008  19.221   0.381
43262W        W 8742  41.298  21.584  12.473
43263W        W 8743  27.118   6.370  11.884
43264W        W 8744   0.861  41.992  14.476
43265W        W 8745  26.644  31.010   4.293
43266W        W 8746   2.812  17.714  13.801
43267W        W 8747  39.329  30.603   0.934
43268W        W 8748  44.434  40.865   0.333
43269W        W 8749  36.452  43.475   0.481
43270W        W 8750  17.283  34.962  13.917
43271W        W 8751  37.430  11.316   0.368
43272W        W 8752  24.024  23.666  13.033
43273W        W 8753  29.480  28.510  13.416
43274W        W 8754  43.927  20.686  13.518
43275W        W 8755   7.796  37.453   2.233
43276W        W 8756  29.987  12.613   3.840
43277W        W 8757  23.734   7.859  12.031
43278W        W 8758   1.844  14.300   1.855
43279W        W 8759  31.550  24.660   4.767
43280W        W 8760   3.254  38.329  13.535
43281W        W 8761  19.671  40.381  11.855
43282W        W 8762  22.185  41.470  12.041
43283W        W 8763  22.250   7.821   4.769
43284W        W 8764  38.872  43.438  13.459
43285W        W 8765  34.083  41.483  11.471
43286W        W 8766  21.749   0.318   3.656
43287W        W 8767  14.232   0.266  13.385
43288W        W 8768   5.214   7.769   0.796
43289W        W 8769  21.061  18.293   1.412
43290W        W 8770  12.719  34.087   0.297
43291W        W 8771  44.886   3.407  14.954
43292W        W 8772  34.094  31.475  13.992
43293W        W 8773   9.293  32.521  14.763
43294W        W 8774  24.686  35.874  12.908
43295W        W 8775  39.485  34.870  14.017
43296W        W 8776   0.878   9.738  12.358
43297W        W 8777  18.142  40.470  12.839
43298W        W 8778  35.007  28.507   4.620
43299W        W 8779  25.000  34.427   2.780
43300W        W 8780  20.173  21.214  11.419
43301W        W 8781  17.111  16.807  14.907
43302W        W 8782  38.517   5.903  11.954
43303W        W 8783   9.300  35.974   2.767
43304W        W 8784  44.459  29.510   5.287
43305W        W 8785  18.159   4.244   1.217
43306W        W 8786  14.706   4.330   1.416
43307W        W 8787  26.599  26.128  12.475
43308W        W 8788   5.748  21.529   4.797
43309W        W 8789  16.143  16.584  10.944
43310W        W 8790  11.260  38.961   2.296
43311W        W 8791   2.253   4.323   0.471
43312W        W 8792  42.938  21.114   3.381
43313W        W 8793  25.696  20.201  10.913
43314W        W 8794  24.503  36.921   4.709
43315W        W 8795  35.381  24.590   4.634
43316W        W 8796  41.033  21.185  12.977
43317W        W 8797  16.245  35.877   3.339
43318W        W 8798  16.607  29.969   4.802
43319W        W 8799  13.637  16.293  11.537
43320W        W 8800  34.610  40.012   3.247
43321W        W 8801  42.399  11.703   2.766
43322W        W 8802  29.602  41.843   1.893
43323W        W 8803  31.445  34.959   3.263
43324W        W 8804  23.708  14.696   2.890
43325W        W 8805  14.830  29.439   2.751
43326W        W 8806  18.114  14.801   1.217
43327W        W 8807  37.933  42.470  10.932
43328W        W 8808  42.997  24.487  11.112
43329W        W 8809   9.722  39.961  11.889
43330W        W 8810  35.928   4.810  10.486
43331W        W 8811  24.165   1.960  11.925
43332W        W 8812  41.516  39.560  14.443
43333W        W 8813  31.098  15.621  11.582
43334W        W 8814   9.820  44.312   1.818
43335W        W 8815  40.385  17.584   0.880
43336W        W 8816  11.693  14.123   3.374
43337W        W 8817   4.889  15.740  12.341
43338W        W 8818  23.114  39.327  14.780
43339W        W 8819  12.131  14.295   3.806
43340W        W 8820  25.118  27.107  13.472
43341W        W 8821  39.474  38.012   2.797
43342W        W 8822   0.898   3.846   0.469
43343W        W 8823  28.124  11.738   1.330
43344W        W 8824  36.486  13.738  12.429
43345W        W 8825  14.618  34.501   3.832
43346W        W 8826   7.777   7.879  13.393
43347W        W 8827  32.567  44.798   2.277
43348W        W 8828  35.403   8.789   5.217
43349W        W 8829  28.601  14.699  11.947
43350W        W 8830   3.445  36.419   4.819
43351W        W 8831  11.856  42.384   9.952
43352W        W 8832  38.062  38.459  13.386
43353W        W 8833  38.012   8.299   4.298
43354W        W 8834   9.880  39.465   3.751
43355W        W 8835  44.925  20.265  11.038
43356W        W 8836   3.758  20.651   3.679
43357W        W 8837   7.745  10.759   0.467
43358W        W 8838   4.317  19.063   4.206
43359W        W 8839  37.067  20.250  14.445
43360W        W 8840  30.542   6.333   1.371
43361W        W 8841  16.178  41.797  14.777
43362W        W 8842  11.151   1.325  13.838
43363W        W 8843  23.993   2.738  14.459
43364W        W 8844  29.574   0.985  14.920
43365W        W 8845  26.513  13.796   3.731
43366W        W 8846  29.918  16.651  11.490
43367W        W 8847  28.565  43.471   4.312
43368W        W 8848  43.995  20.032   1.288
43369W        W 8849   4.297  39.886  13.430
43370W        W 8850  22.717  30.617  12.920
43371W        W 8851  21.136  26.040   3.761
43372W        W 8852  34.024  34.419  13.428
43373W        W 8853  26.980   3.451  14.908
43374W        W 8854  15.810   1.870   1.309
43375W        W 8855  21.144   3.804  10.404
43376W        W 8856   5.712  10.355   1.728
43377W        W 8857  22.640  24.108  11.894
43378W        W 8858  13.631  20.751   2.694
43379W        W 8859  36.030  39.987   4.721
43380W        W 8860  40.470  32.447  14.276
43381W        W 8861   1.781  42.818  11.401
43382W        W 8862  30.452  36.898   2.351
43383W        W 8863  30.585  13.836   1.260
43384W        W 8864   0.295  20.248  10.538
43385W        W 8865  30.489  20.089   1.234
43386W        W 8866  14.207  40.918   2.230
43387W        W 8867  39.372   3.894  14.497
43388W        W 8868  24.974  13.126  11.540
43389W        W 8869  28.606   9.323  12.887
43390W        W 8870   5.758   0.781  14.289
43391W        W 8871  41.919  14.164  13.875
43392W        W 8872  21.067  26.495  10.425
43393W        W 8873  38.365  35.880  12.565
43394W        W 8874   0.988  35.584  14.326
43395W        W 8875  12.658  25.470   4.115
43396W        W 8876   3.360   7.855   1.363
43397W        W 8877  32.548  31.409   0.733
43398W        W 8878  24.103  19.121  14.494
43399W        W 8879   3.953  24.987  13.449
43400W        W 8880  25.535  30.446  13.312
43401W        W 8881  34.075  12.227  12.343
43402W        W 8882  38.031  16.694   2.383
43403W        W 8883  37.080   7.776   3.827
43404W        W 8884  10.224  15.685   2.336
43405W        W 8885  20.115  30.048  11.058
43406W        W 8886   6.367  14.665  12.401
43407W        W 8887  42.952  33.544   4.790
43408W        W 8888   5.841  21.533   0.275
43409W        W 8889  26.966  24.542   1.804
43410W        W 8890  26.139   6.789   0.347
43411W        W 8891  10.792  28.101  13.333
43412W        W 8892   3.247  28.056   1.736
43413W        W 8893  26.624  28.435   0.351
43414W        W 8894   3.429  44.291   0.820
43415W        W 8895   5.367  23.219  12.056
43416W        W 8896  23.031   9.159  11.466
43417W        W 8897   6.876  11.798   0.469
43418W        W 8898   8.840  17.769   2.749
43419W        W 8899  27.461  28.616   2.848
43420W        W 8900  17.557  17.194   1.224
43421W        W 8901  20.575  35.042  13.795
43422W        W 8902  18.121  40.014   0.834
43423W        W 8903  20.070  17.563  10.598
43424W        W 8904  17.580   0.292  14.907
43425W        W 8905  36.537   8.805   1.254
43426W        W 8906   7.213  31.113   0.765
43427W        W 8907  40.009  28.477   4.131
43428W        W 8908   8.246  28.667  11.590
43429W        W 8909  22.560   6.689   2.826
43430W        W 8910  14.712  27.131  11.434
43431W        W 8911   6.353  24.140  13.906
43432W        W 8912  44.279   7.678   3.215
43433W        W 8913   1.951   3.370  14.413
43434W        W 8914  29.485   5.283   3.718
43435W        W 8915   2.436  23.228  13.851
43436W        W 8916  37.382  15.708   0.350
43437W        W 8917  20.051  17.168  14.369
43438W        W 8918  19.661  42.962   2.366
43439W        W 8919  12.197  22.550  13.994
43440W        W 8920  17.255  19.088   0.259
43441W        W 8921  27.149  16.695  13.974
43442W        W 8922  14.735  42.460   2.306
43443W        W 8923   6.263  42.410   2.323
43444W        W 8924  17.125  31.612  11.383
43445W        W 8925  24.072   0.373  11.981
43446W        W 8926  44.888  37.502   0.282
43447W        W 8927   6.677  15.596  12.869
43448W        W 8928  16.207   4.281  10.890
43449W        W 8929  36.889  43.357  13.540
43450W        W 8930  34.610  43.944   2.260
43451W        W 8931  38.463  43.884  11.450
43452W        W 8932  26.615  37.536  13.457
43453W        W 8933  22.722  32.501  10.532
43454W        W 8934  40.976  42.787   5.166
43455W        W 8935  28.614  30.008   3.284
43456W        W 8936  12.219  28.626   1.905
43457W        W 8937  13.229  39.412  13.842
43458W        W 8938   9.289  30.122   3.785
43459W        W 8939  32.127   5.352  11.409
43460W        W 8940  40.887   2.941  14.319
43461W        W 8941  43.472   3.922  13.967
43462W        W 8942  35.971   9.743   0.421
43463W        W 8943  44.005  17.062   0.246
43464W        W 8944  19.604  20.271  10.425
43465W        W 8945  25.119  37.468  13.942
43466W        W 8946  16.692   5.764  14.426
43467W        W 8947  23.022  16.253   4.832
43468W        W 8948   2.323  34.381  12.992
43469W        W 8949  22.123  38.490  13.816
43470W        W 8950   0.964   5.701  12.455
43471W        W 8951  14.286   9.852   3.333
43472W        W 8952  20.250  39.452  10.946
43473W        W 8953  43.809   0.369   1.915
43474W        W 8954   7.275  33.414   5.099
43475W        W 8955  26.702   2.838   2.381
43476W        W 8956  37.340  44.949   1.405
43477W        W 8957  15.305  15.788   1.451
43478W        W 8958  28.000  35.486  11.015
43479W        W 8959  40.373  19.699   2.749
43480W        W 8960  33.961  39.436  10.133
43481W        W 8961  16.156   7.806   0.728
43482W        W 8962  44.310  30.543   1.439
43483W        W 8963  23.117  42.371   0.301
43484W        W 8964  13.320  39.541  12.882
43485W        W 8965   8.269  29.979   4.735
43486W        W 8966  14.817  26.998  13.865
43487W        W 8967   8.309  12.669  10.977
43488W        W 8968  11.270  42.447  13.792
43489W        W 8969  17.126  40.478  12.908
43490W        W 8970  20.621  31.471   2.187
43491W        W 8971   8.230  10.180   3.765
43492W        W 8972   1.337  34.420   0.765
43493W        W 8973   0.842   1.423  11.584
43494W        W 8974  23.053   7.200   0.438
43495W        W 8975  26.537  12.363   3.796
43496W        W 8976  31.488  21.138   2.733
43497W        W 8977  13.820   1.790   1.301
43498W        W 8978  30.031  33.131   4.310
43499W        W 8979  33.485  39.037   0.785
43500W        W 8980  34.919  17.294   2.345
43501W        W 8981  42.433  23.148   0.467
43502W        W 8982  28.156   3.730   4.735
43503W        W 8983  17.190  24.498   0.792
43504W        W 8984  21.120  41.496  12.429
43505W        W 8985  13.307  11.769  14.845
43506W        W 8986  41.839  39.496  11.973
43507W        W 8987   7.701  42.527   0.379
43508W        W 8988  40.519   1.732  11.976
43509W        W 8989  32.134   5.315  12.857
43510W        W 8990  23.660  42.284   0.352
43511W        W 8991  24.108  24.507  11.953
43512W        W 8992   6.189  19.664  14.930
43513W        W 8993  10.773  40.913   4.660
43514W        W 8994  38.422  38.920   3.655
43515W        W 8995  16.165   5.399   2.890
43516W        W 8996   3.215  34.890  13.950
43517W        W 8997  33.620  32.590  13.466
43518W        W 8998   0.758   6.814   3.302
43519W        W 8999  42.317  17.770   3.642
43520W        W 9000  35.419  31.000  10.892
43521W        W 9001  23.156  32.401  11.603
43522W        W 9002  15.621  34.028  13.425
43523W        W 9003   9.201   2.786   3.774
43524W        W 9004  25.208  21.653   3.357
43525W        W 9005  30.019  37.365  12.848
43526W        W 9006  36.358  22.640  11.560
43527W        W 9007  42.415  21.586  12.371
43528W        W 9008  36.523   5.747   3.709
43529W        W 9009  23.709   3.369  10.470
43530W        W 9010  25.667  22.239   2.742
43531W        W 9011  38.949  18.597  14.964
43532W        W 9012  28.561  15.725  11.604
43533W        W 9013  15.267   0.344   1.926
43534W        W 9014  25.527  36.437   4.687
43535W        W 9015  32.411  20.077  10.983
43536W        W 9016  11.176   9.764   3.794
43537W        W 9017  20.614  26.604  12.459
43538W        W 9018  27.956  36.065   2.811
43539W        W 9019  38.955  43.273   3.368
43540W        W 9020   5.836  41.512  12.013
43541W        W 9021  31.058   9.328  12.542
43542W        W 9022  19.767  11.175   4.146
43543W        W 9023  24.116  10.797  13.327
43544W        W 9024  39.963  41.890   1.346
43545W        W 9025  38.010  32.584   2.841
43546W        W 9026   9.186  18.764   0.453
43547W        W 9027  18.549  35.974  10.600
43548W        W 9028  29.008   2.455   2.823
43549W        W 9029  23.618  31.925   3.823
43550W        W 9030   8.826   2.382  11.037
43551W        W 9031  10.156   7.762   2.405
43552W        W 9032  19.648  24.052  11.584
43553W        W 9033  14.665  15.164   1.380
43554W        W 9034  39.358  13.602  14.819
43555W        W 9035  29.441  19.585  13.391
43556W        W 9036   8.388  31.510   0.894
43557W        W 9037  19.601  10.167  12.427
43558W        W 9038  41.466  16.092  12.410
43559W        W 9039  39.449  27.974   1.216
43560W        W 9040   3.714  26.560   2.294
43561W        W 9041  35.974  27.487   3.843
43562W        W 9042  32.910  43.901   1.890
43563W        W 9043  38.046  31.094  14.454
43564W        W 9044  13.283  35.944  11.047
43565W        W 9045  14.827  16.706   1.250
43566W        W 9046  40.499  34.468  12.011
43567W        W 9047  10.308  41.497   1.410
43568W        W 9048  39.344   5.401   1.874
43569W        W 9049  10.236  32.031  10.108
43570W        W 9050  36.035  19.124   1.734
43571W        W 9051  44.366  33.039   2.822
43572W        W 9052  17.275  30.012  11.460
43573W        W 9053  29.521  43.877  13.488
43574W        W 9054  30.936  43.491   4.207
43575W        W 9055  21.039   9.682  12.064
43576W        W 9056  32.011  25.595   0.756
43577W        W 9057  37.508  36.455  13.331
43578W        W 9058   9.807  40.347  12.535
43579W        W 9059  32.433  20.203   2.291
43580W        W 9060  30.515  27.106   1.719
43581W        W 9061  34.452  40.504  12.972
43582W        W 9062  44.935  31.987   3.343
43583W        W 9063  23.034  31.434   3.210
43584W        W 9064  10.863  11.146   3.147
43585W        W 9065  23.563   0.833   4.774
43586W        W 9066   5.797  37.010   0.753
43587W        W 9067  30.120  41.987  12.511
43588W        W 9068   6.230   2.816   0.343
43589W        W 9069  37.411  31.638   4.343
43590W        W 9070  14.131   3.328   4.717
43591W        W 9071  32.483  28.535  14.798
43592W        W 9072  20.051  31.927   4.816
43593W        W 9073  13.841   3.348  10.909
43594W        W 9074   3.426  26.039   0.911
43595W        W 9075  24.068  25.108  12.917
43596W        W 9076   7.268  41.911   4.803
43597W        W 9077   7.338  38.911  11.918
43598W        W 9078   9.361   4.323   3.662
43599W        W 9079  30.474  22.995  14.774
43600W        W 9080  33.892   5.264  10.464
43601W        W 9081   5.790  32.106  12.841
43602W        W 9082  17.064  17.161   4.303
43603W        W 9083  36.084  29.494  12.477
43604W        W 9084   3.280  24.197  13.842
43605W        W 9085  44.991  35.593   1.873
43606W        W 9086  34.433  28.004  14.784
43607W        W 9087  27.003  11.245   1.804
43608W        W 9088  20.122  16.185  10.992
43609W        W 9089  13.226  25.469  12.890
43610W        W 9090   4.722  43.010   2.897
43611W        W 9091  21.599  36.393   4.627
43612W        W 9092  43.473  11.241   4.192
43613W        W 9093  25.490  23.621  13.475
43614W        W 9094   3.233  34.383  11.544
43615W        W 9095   9.859   1.387   3.727
43616W        W 9096   2.965  42.500   3.836
43617W        W 9097   2.431  13.813  12.362
43618W        W 9098  13.203  37.506   1.866
43619W        W 9099  24.077  29.501  11.989
43620W        W 9100  27.601  44.896   4.123
43621W        W 9101  35.871  11.264   0.365
43622W        W 9102  41.499  22.188   3.790
43623W        W 9103  17.100   1.918   1.861
43624W        W 9104  16.757  22.551  11.467
43625W        W 9105   6.860  16.210   0.460
43626W        W 9106  38.409  36.045  14.809
43627W        W 9107  29.513   4.365  12.986
43628W        W 9108  32.895  36.480   2.844
43629W        W 9109   4.797  31.641  12.476
43630W        W 9110  13.838  10.355   4.697
43631W        W 9111  27.583  23.984   2.381
43632W        W 9112  26.481   4.821   5.286
43633W        W 9113  15.818   0.779   4.678
43634W        W 9114  30.483  35.487   4.257
43635W        W 9115   8.307  39.328  11.408
43636W        W 9116   6.239  20.554   4.600
43637W        W 9117  34.067  28.962  11.945
43638W        W 9118  37.535   8.875  10.112
43639W        W 9119  22.548   8.781  13.360
43640W        W 9120  31.597  15.095  13.367
43641W        W 9121  36.381  41.347   3.339
43642W        W 9122  42.459   6.255  12.568
43643W        W 9123  42.926  20.678  14.863
43644W        W 9124  42.025  33.092   0.882
43645W        W 9125  44.378  25.064  11.024
43646W        W 9126  27.987  30.496   4.307
43647W        W 9127  14.301   8.793  13.397
43648W        W 9128  36.496  14.688   0.287
43649W        W 9129   1.804  35.591   3.673
43650W        W 9130  36.068  34.611  11.902
43651W        W 9131  31.013  21.754  10.596
43652W        W 9132  24.724  10.274   2.812
43653W        W 9133  15.823  14.694  14.012
43654W        W 9134   0.311  19.665  14.877
43655W        W 9135  15.763   9.888  12.483
43656W        W 9136  26.963  28.006   9.975
43657W        W 9137   1.477  23.142  14.502
43658W        W 9138   1.346  29.065   0.429
43659W        W 9139  25.550  16.647  12.908
43660W        W 9140  10.803  44.956  14.498
43661W        W 9141   2.232  25.612   3.387
43662W        W 9142  37.489   9.646  13.471
43663W        W 9143  10.160  16.572  14.995
43664W        W 9144  11.771  37.457   4.621
43665W        W 9145   2.472  15.694  11.913
43666W        W 9146  35.054  38.885   1.799
43667W        W 9147   9.377  19.262   0.459
43668W        W 9148  34.937  22.679   4.130
43669W        W 9149  39.948  11.161   0.320
43670W        W 9150   5.417  39.998   0.801
43671W        W 9151  30.072  23.570   3.827
43672W        W 9152   1.765  28.617  12.981
43673W        W 9153   7.302   3.918  14.009
43674W        W 9154  23.108  29.998   3.666
43675W        W 9155  32.069  11.746   4.198
43676W        W 9156  12.189  42.022   2.730
43677W        W 9157  35.078  30.937   1.781
43678W        W 9158  12.305  16.812  12.393
43679W        W 9159  31.964  30.429   0.863
43680W        W 9160  32.500  33.073  13.972
43681W        W 9161  33.380  39.483   0.473
43682W        W 9162  19.718  24.616  13.852
43683W        W 9163  38.028  18.287   1.218
43684W        W 9164  28.582  39.415   2.825
43685W        W 9165  25.668  12.617   4.709
43686W        W 9166  24.507  25.168  12.422
43687W        W 9167  18.248  17.668   0.337
43688W        W 9168  29.175  31.006  12.967
43689W        W 9169  18.752   0.913   5.224
43690W        W 9170   8.168  32.423  13.495
43691W        W 9171   1.405  34.057  13.505
43692W        W 9172  26.086  14.184  10.965
43693W        W 9173  30.468  40.933  12.866
43694W        W 9174  10.825  12.136   0.963
43695W        W 9175  34.895  18.236  11.586
43696W        W 9176  27.109  21.048  13.809
43697W        W 9177  29.553   6.772  11.909
43698W        W 9178  31.562   4.278  14.326
43699W        W 9179  15.726  36.489  13.417
43700W        W 9180  42.344  31.002   3.656
43701W        W 9181   9.280  13.731  11.952
43702W        W 9182  32.460   4.360  11.584
43703W        W 9183  24.694  28.100   2.337
43704W        W 9184  21.705  33.442  11.955
43705W        W 9185   6.793   2.443   4.194
43706W        W 9186  39.516   9.852  12.530
43707W        W 9187  20.049  11.640   4.758
43708W        W 9188  27.162  40.531  14.386
43709W        W 9189   2.340  40.359   2.307
43710W        W 9190  32.535   2.386  11.420
43711W        W 9191  37.854   6.863  10.939
43712W        W 9192  17.272  23.687   1.861
43713W        W 9193  30.099  42.409  11.049
43714W        W 9194  40.316  25.086  14.916
43715W        W 9195  17.610  15.588   3.275
43716W        W 9196   0.903  26.523   4.633
43717W        W 9197  13.826   6.209   1.366
43718W        W 9198  33.527  13.278  12.917
43719W        W 9199   7.756  10.809   3.668
43720W        W 9200  23.544  19.221   3.202
43721W        W 9201   7.830  40.895   0.302
43722W        W 9202  44.915  13.608  10.609
43723W        W 9203   0.263  43.275   1.841
43724W        W 9204  27.597  33.580   0.375
43725W        W 9205  10.710   8.694   5.129
43726W        W 9206   8.674   8.858   1.338
43727W        W 9207  44.785  11.218  14.884
43728W        W 9208   1.806  21.166  12.476
43729W        W 9209  25.468   5.807   4.275
43730W        W 9210  32.406  44.401  11.127
43731W        W 9211  33.890  20.713  11.123
43732W        W 9212  13.240   9.651   4.169
43733W        W 9213  17.583  22.550  14.781
43734W        W 9214   0.358  36.061  11.086
43735W        W 9215  16.730  34.567   4.192
43736W        W 9216  15.814   2.465  11.511
43737W        W 9217  33.926   5.845  13.439
43738W        W 9218  31.029  15.728  12.052
43739W        W 9219  20.744  42.482  11.551
43740W        W 9220  41.870  11.828   2.891
43741W        W 9221  42.848  21.247  13.814
43742W        W 9222  31.126  17.737   4.339
43743W        W 9223  17.194   9.284   1.252
43744W        W 9224  17.237  28.104   3.207
43745W        W 9225  27.075   2.966  14.828
43746W        W 9226  29.624  10.236  12.562
43747W        W 9227  43.272  35.935  13.472
43748W        W 9228  18.710  28.142   1.449
43749W        W 9229  37.922  20.634  11.013
43750W        W 9230  10.139   9.253   2.279
43751W        W 9231  10.837  38.848  10.013
43752W        W 9232  42.343   5.386  10.988
43753W        W 9233   1.423  24.581   0.284
43754W        W 9234  31.072  11.263  14.858
43755W        W 9235  20.682   6.275   0.751
43756W        W 9236  28.649  37.378  11.497
43757W        W 9237   0.925   8.733  12.566
43758W        W 9238  34.570  27.485  14.025
43759W        W 9239  23.212  20.730  12.537
43760W        W 9240   8.333   1.275  14.984
43761W        W 9241  23.720  22.200  13.882
43762W        W 9242  19.049  35.373  13.463
43763W        W 9243  16.692  31.559  10.986
43764W        W 9244  22.174  19.666   2.735
43765W        W 9245  40.999  25.078  13.477
43766W        W 9246  31.626   0.862   4.284
43767W        W 9247  36.491  43.344  10.979
43768W        W 9248  38.041   7.276  11.445
43769W        W 9249  32.410  30.623  13.930
43770W        W 9250  43.380   9.843   4.666
43771W        W 9251   9.369  26.561  13.380
43772W        W 9252  44.497  18.133  12.074
43773W        W 9253   7.215  39.902   0.742
43774W        W 9254  26.594  21.669   0.874
43775W        W 9255  31.049  27.085   3.844
43776W        W 9256   2.949  25.093  14.394
43777W        W 9257  14.754   2.742   3.310
43778W        W 9258  40.373  26.984  10.912
43779W        W 9259  41.824  23.987  11.467
43780W        W 9260   3.872  19.628   5.232
43781W        W 9261  17.067  29.574  12.030
43782W        W 9262  15.206  29.172  11.985
43783W        W 9263  24.482  16.603   4.694
43784W        W 9264   2.827   9.392   4.808
43785W        W 9265  22.077  29.570  13.449
43786W        W 9266  15.283  26.605   1.768
43787W        W 9267  15.696   0.296  11.022
43788W        W 9268  35.427  25.197  10.908
43789W        W 9269  15.814   6.845  11.378
43790W        W 9270   7.388   5.195   1.432
43791W        W 9271   0.883  33.492  10.563
43792W        W 9272  42.942  12.344   1.226
43793W        W 9273   2.253  21.057  11.400
43794W        W 9274  23.523  39.336  13.898
43795W        W 9275  43.433  19.669   0.323
43796W        W 9276  42.831  14.297  12.835
43797W        W 9277   1.431  33.392   4.203
43798W        W 9278  13.600  42.967   0.886
43799W        W 9279  32.526  20.700   0.314
43800W        W 9280  14.320  26.511   0.386
43801W        W 9281  37.043  22.074   1.312
43802W        W 9282  10.168  12.721  12.555
43803W        W 9283  10.294  20.713  13.533
43804W        W 9284  35.425   4.256  10.546
43805W        W 9285  25.645   6.768  11.505
43806W        W 9286   1.334   9.252   0.790
43807W        W 9287   9.266  28.023  10.033
43808W        W 9288  36.464  40.805  12.494
43809W        W 9289   3.824   7.693  11.873
43810W        W 9290  23.220   6.796   2.812
43811W        W 9291   7.725  26.074  10.970
43812W        W 9292   3.845  36.098  14.408
43813W        W 9293   9.658   6.366   1.894
43814W        W 9294   2.882   1.810  11.608
43815W        W 9295  25.468   3.753   0.939
43816W        W 9296   9.753  16.703  12.046
43817W        W 9297  38.338  28.600  12.362
43818W        W 9298  32.060  33.439  14.449
43819W        W 9299  13.618  23.533   4.792
43820W        W 9300  24.046  41.496   0.291
43821W        W 9301  36.432  14.156   1.767
43822W        W 9302  14.310   5.711  12.920
43823W        W 9303   2.959  14.725   3.186
43824W        W 9304   9.800  21.557   2.221
43825W        W 9305  40.457  22.597  10.945
43826W        W 9306   0.888  44.970  11.468
43827W        W 9307  29.634  44.765  14.766
43828W        W 9308  23.129   8.236  12.920
43829W        W 9309   0.307  36.088  14.759
43830W        W 9310   6.899  12.820  12.062
43831W        W 9311  24.622  44.814  11.543
43832W        W 9312  26.701  34.875  13.307
43833W        W 9313  43.965  22.610   1.413
43834W        W 9314  44.494   5.389   4.113
43835W        W 9315  24.552  26.581   0.884
43836W        W 9316  13.809  40.366  12.823
43837W        W 9317  27.143  12.284   3.347
43838W        W 9318  15.226  25.150   2.203
43839W        W 9319  34.037   7.303   3.710
43840W        W 9320   2.814  32.905   0.300
43841W        W 9321  12.853  41.358  11.107
43842W        W 9322   3.407  24.041  12.459
43843W        W 9323   1.335  33.415   3.165
43844W        W 9324  13.301  42.781  11.958
43845W        W 9325  31.117  23.132  13.526
43846W        W 9326  10.763  43.803   0.868
43847W        W 9327  38.453  28.111   0.317
43848W        W 9328  42.928   2.428   1.381
43849W        W 9329  23.611  25.497   3.739
43850W        W 9330  16.727  10.714   3.359
43851W        W 9331  33.955  28.485  12.552
43852W        W 9332  12.278  39.402   2.353
43853W        W 9333  42.300  32.601   1.271
43854W        W 9334  19.162  33.966   0.948
43855W        W 9335  44.451  31.078   0.784
43856W        W 9336  21.705  31.561  13.792
43857W        W 9337  22.676  24.098  14.787
43858W        W 9338  14.643   2.413  14.429
43859W        W 9339  13.314  41.359   5.323
43860W        W 9340   4.819  30.567   1.302
43861W        W 9341   2.913   1.350   1.712
43862W        W 9342  39.034  14.266   1.242
43863W        W 9343  19.242  29.996  13.388
43864W        W 9344  19.051  44.269  10.631
43865W        W 9345   8.713  29.557  12.465
43866W        W 9346   7.313  19.636  11.389
43867W        W 9347  30.977  29.009   3.704
43868W        W 9348  12.118  26.484  12.826
43869W        W 9349   9.700  43.787   1.754
43870W        W 9350  36.367  20.753  14.285
43871W        W 9351  22.689  20.259  11.019
43872W        W 9352  10.308  34.109   1.745
43873W        W 9353  13.323  17.095  13.450
43874W        W 9354  40.995  29.650   2.215
43875W        W 9355   2.337  15.211   0.805
43876W        W 9356   4.764  29.046   0.309
43877W        W 9357  24.000   8.326   1.229
43878W        W 9358  37.990   1.818  11.940
43879W        W 9359  33.950  20.092  13.038
43880W        W 9360  23.719  34.002   1.223
43881W        W 9361  15.111  20.560  11.488
43882W        W 9362  32.409  12.707   0.412
43883W        W 9363  37.001   8.339  12.543
43884W        W 9364  22.578   1.912   0.824
43885W        W 9365  10.776  16.666  14.382
43886W        W 9366  15.274  39.375  12.830
43887W        W 9367   5.432  18.753  14.334
43888W        W 9368  33.548   6.421  13.048
43889W        W 9369  11.646  13.731   3.367
43890W        W 9370  24.628  17.667   0.799
43891W        W 9371   3.886   8.863   0.752
43892W        W 9372  29.978  26.182  10.515
43893W        W 9373  20.558  15.085  12.411
43894W        W 9374   0.772  15.683   4.172
43895W        W 9375  25.188  28.947  10.609
43896W        W 9376   4.925   9.222  12.823
43897W        W 9377  19.269  13.148   3.643
43898W        W 9378  12.272  17.662   4.798
43899W        W 9379  37.390  24.555   1.903
43900W        W 9380  10.246  33.581  14.374
43901W        W 9381   8.233  17.594   0.297
43902W        W 9382  15.264  38.073  11.954
43903W        W 9383  41.472  32.912  13.860
43904W        W 9384  40.990  16.187   0.265
43905W        W 9385   9.696  30.161  10.426
43906W        W 9386  10.272  15.282   2.784
43907W        W 9387  14.659  30.643   4.617
43908W        W 9388  28.062  17.221   4.625
43909W        W 9389  18.773  41.846  14.919
43910W        W 9390  38.900  28.626   1.736
43911W        W 9391  41.337  39.993   2.890
43912W        W 9392  10.742  37.456  12.359
43913W        W 9393   4.864   6.317   2.767
43914W        W 9394  24.188  35.529   0.389
43915W        W 9395  37.849  16.603   3.849
43916W        W 9396  35.430  31.553  11.871
43917W        W 9397   9.770  38.845  10.638
43918W        W 9398  15.246  22.650  14.793
43919W        W 9399  22.140  31.097   4.188
43920W        W 9400  11.661  34.093   2.808
43921W        W 9401  22.042  26.633   2.373
43922W        W 9402   6.211  19.265  11.094
43923W        W 9403  15.687  26.951   1.839
43924W        W 9404  31.145  40.946  12.867
43925W        W 9405  28.584  24.516   2.887
43926W        W 9406  21.031  28.054  13.830
43927W        W 9407  36.403  14.105   3.762
43928W        W 9408  28.461  33.921   0.454
43929W        W 9409   0.490  42.807  12.855
43930W        W 9410  14.679  17.093   2.881
43931W        W 9411  40.872  31.459  12.011
43932W        W 9412  25.161   1.888  12.548
43933W        W 9413  10.346  17.304   0.273
43934W        W 9414  15.767  21.213   2.764
43935W        W 9415   6.420  12.120  13.800
43936W        W 9416  43.920  24.586   3.837
43937W        W 9417  39.487  42.804   3.663
43938W        W 9418  44.389  36.896   3.711
43939W        W 9419   3.792   3.284   1.348
43940W        W 9420  13.621  24.715  13.012
43941W        W 9421  26.961  18.749   1.795
43942W        W 9422  15.585  43.769  11.601
43943W        W 9423  15.169  19.111   2.788
43944W        W 9424   8.295  37.841  10.621
43945W        W 9425   6.365  19.700  12.554
43946W        W 9426  16.736   2.900  11.541
43947W        W 9427   4.799  33.528  11.872
43948W        W 9428  10.139  32.050  14.945
43949W        W 9429  34.535   0.944  14.019
43950W        W 9430  24.096  21.088  11.968
43951W        W 9431  42.483   2.767  13.342
43952W        W 9432   9.352  39.560  10.948
43953W        W 9433   1.959  38.375  14.993
43954W        W 9434  13.807   7.846   1.867
43955W        W 9435  20.550  11.695   3.859
43956W        W 9436  27.118   3.332   0.859
43957W        W 9437  10.828  28.643   1.830
43958W        W 9438   2.902  42.461   4.294
43959W        W 9439  28.127  24.025  11.575
43960W        W 9440  26.624  21.712  14.002
43961W        W 9441   8.870  43.374   2.411
43962W        W 9442  10.715  41.412   4.619
43963W        W 9443  32.966  17.582  14.460
43964W        W 9444   6.264  26.059   1.711
43965W        W 9445   3.461  27.460   1.323
43966W        W 9446  19.558  13.735   3.798
43967W        W 9447  32.091  41.892  12.012
43968W        W 9448  38.019   1.878   2.371
43969W        W 9449  21.145  19.076  12.877
43970W        W 9450  27.600  41.991   4.166
43971W        W 9451   2.285  32.482  11.511
43972W        W 9452  15.694  40.377  10.572
43973W        W 9453  30.092  16.091  12.573
43974W        W 9454  14.276  38.399  13.310
43975W        W 9455  40.825  44.937   2.809
43976W        W 9456   9.839   9.668  11.433
43977W        W 9457  21.023   3.292  14.915
43978W        W 9458  11.271  34.454   0.307
43979W        W 9459  41.852   5.378  12.520
43980W        W 9460   6.226   0.480  14.951
43981W        W 9461  31.144  33.417  10.907
43982W        W 9462   1.454  20.213   1.355
43983W        W 9463  14.331   5.225  12.366
43984W        W 9464  17.693  32.524   2.873
43985W        W 9465  11.297   8.405   3.782
43986W        W 9466  40.011  11.763   0.842
43987W        W 9467   4.801  13.242   2.244
43988W        W 9468  39.830  32.133   1.840
43989W        W 9469   1.350  41.886   1.803
43990W        W 9470  19.685   2.362   0.447
43991W        W 9471  18.686  13.767  11.945
43992W        W 9472  15.216  32.474   4.618
43993W        W 9473  30.509   0.839  12.971
43994W        W 9474  21.177  12.685   1.377
43995W        W 9475   3.300  27.958  12.880
43996W        W 9476   3.269   1.824  13.364
43997W        W 9477   4.880  41.012   3.803
43998W        W 9478  21.151  10.821   2.233
43999W        W 9479   8.687  21.155  14.411
44000W        W 9480  30.577  20.720  13.999
44001W        W 9481  37.479  22.728   4.302
44002W        W 9482  10.242  23.662  13.491
44003W        W 9483   0.478  43.406  14.434
44004W        W 9484  31.932   4.220  12.493
44005W        W 9485  42.853  26.510   2.231
44006W        W 9486  37.983   1.449   4.603
44007W        W 9487  40.921   5.396  14.503
44008W        W 9488  26.131  44.271   3.841
44009W        W 9489  25.549   5.341   4.278
44010W        W 9490   2.468  29.030  14.921
44011W        W 9491  38.045  35.030   2.710
44012W        W 9492   6.863  25.637   1.234
44013W        W 9493  41.490  17.144   3.656
44014W        W 9494  33.521  44.779  11.502
44015W        W 9495  29.545  34.033  14.902
44016W        W 9496  43.445  29.640   1.882
44017W        W 9497   1.881  39.020  13.364
44018W        W 9498   0.389  43.280  14.023
44019W        W 9499  37.383  37.398   1.430
44020W        W 9500  22.139  40.400   3.155
44021W        W 9501  21.686  41.512  10.460
44022W        W 9502  36.085  19.566  14.308
44023W        W 9503   4.897  36.916   4.678
44024W        W 9504  37.945  17.666   1.347
44025W        W 9505  11.201   5.802   4.162
44026W        W 9506  30.135  22.164   2.405
44027W        W 9507  18.054   0.858  14.867
44028W        W 9508   3.948  35.524  11.529
44029W        W 9509  38.393  23.572  12.468
44030W        W 9510  31.444  30.982   2.271
44031W        W 9511  42.321  42.888   2.388
44032W        W 9512  41.975  12.146  12.972
44033W        W 9513  14.608  13.249  11.610
44034W        W 9514   7.414   6.230   2.202
44035W        W 9515  10.729  22.654   2.724
44036W        W 9516  15.650  38.956  13.448
44037W        W 9517   7.391  22.742  10.578
44038W        W 9518   3.920  13.762   4.607
44039W        W 9519  20.579  19.104  13.330
44040W        W 9520   4.356  11.861   3.711
44041W        W 9521  30.016   3.892  13.049
44042W        W 9522   7.245  15.686   3.344
44043W        W 9523  17.751  36.991   2.890
44044W        W 9524  19.744  15.626  13.534
44045W        W 9525  13.641   6.920   4.258
44046W        W 9526  35.559  13.771   4.824
44047W        W 9527  31.431  41.792   3.333
44048W        W 9528  13.296  29.477   0.812
44049W        W 9529  24.664  27.461   4.168
44050W        W 9530  28.618  27.510   0.247
44051W        W 9531  14.666  24.135  14.880
44052W        W 9532  21.078  23.210  13.388
44053W        W 9533  17.236  18.757  14.881
44054W        W 9534  33.034  23.622  14.981
44055W        W 9535  34.907  35.505  12.031
44056W        W 9536  39.544   8.391   4.706
44057W        W 9537  20.696  32.413  12.055
44058W        W 9538  37.931   8.177  11.502
44059W        W 9539  11.151  11.328   4.186
44060W        W 9540   3.809  10.725  10.908
44061W        W 9541  34.581   5.713  12.418
44062W        W 9542  41.915  17.099   1.779
44063W        W 9543   5.415  18.776  11.490
44064W        W 9544  32.522  17.295  12.987
44065W        W 9545   1.343  31.968  10.966
44066W        W 9546  12.704  34.022  13.531
44067W        W 9547  33.389  18.119  12.886
44068W        W 9548  32.961  25.010   4.623
44069W        W 9549  12.814  22.197  10.578
44070W        W 9550  44.965  27.597  12.867
44071W        W 9551  42.834  37.861   4.735
44072W        W 9552   8.163  44.367   2.401
44073W        W 9553  13.235  18.701  11.975
44074W        W 9554   3.883  28.620  13.360
44075W        W 9555  18.635   5.265  14.762
44076W        W 9556  21.567  17.658   1.279
44077W        W 9557  24.109  23.538  11.023
44078W        W 9558   1.745  24.515   4.665
44079W        W 9559   4.441  28.591  11.119
44080W        W 9560   2.356   6.686   3.221
44081W        W 9561   1.457  24.510   0.809
44082W        W 9562   8.705  35.050   3.818
44083W        W 9563  24.184  10.673  11.048
44084W        W 9564  34.029  24.058   3.191
44085W        W 9565   2.294   4.341  13.866
44086W        W 9566  23.011  44.274   1.831
44087W        W 9567  22.070  30.416   1.366
44088W        W 9568  12.784  29.984  12.907
44089W        W 9569   6.299  25.502  12.902
44090W        W 9570  29.666  34.465   1.372
44091W        W 9571  25.200  44.948  13.346
44092W        W 9572  39.050  22.071  14.453
44093W        W 9573  28.137  15.223  13.950
44094W        W 9574  36.483   1.323  13.795
44095W        W 9575   8.385  35.058  11.443
44096W        W 9576  33.446  40.502  13.976
44097W        W 9577   8.657   3.934  12.033
44098W        W 9578  14.340  38.917   0.867
44099W        W 9579  19.577   2.264   3.364
44100W        W 9580  42.937  32.026   3.775
44101W        W 9581  26.124  26.510   2.712
44102W        W 9582   2.767  35.601  11.031
44103W        W 9583   9.683   7.873  12.905
44104W        W 9584  26.558  34.920  14.899
44105W        W 9585  40.847  10.239   1.855
44106W        W 9586  35.426  44.950   0.386
44107W        W 9587  37.924  17.088  13.964
44108W        W 9588  17.752  42.868  13.358
44109W        W 9589   9.877  44.942   4.670
44110W        W 9590  14.126   6.761  14.996
44111W        W 9591  35.100  30.919   3.836
44112W        W 9592  18.761   0.347  12.383
44113W        W 9593   7.362  19.757   2.676
44114W        W 9594  21.750  39.330   1.804
44115W        W 9595  18.244   1.854   3.846
44116W        W 9596   4.884  43.272  10.059
44117W        W 9597  12.204  44.339   1.768
44118W        W 9598  29.975  21.601  14.993
44119W        W 9599  31.504  11.647  11.886
44120W        W 9600  10.651   1.381  13.432
44121W        W 9601  41.902  25.509   2.385
44122W        W 9602  27.037  41.358  12.959
44123W        W 9603  40.987  29.519   1.434
44124W        W 9604  19.769   2.767   1.860
44125W        W 9605   0.778  44.327  11.873
44126W        W 9606  28.976  22.181   2.828
44127W        W 9607  29.984  31.091   0.299
44128W        W 9608  33.125  15.589   3.241
44129W        W 9609  22.078  14.259   3.323
44130W        W 9610   4.771   3.798  11.391
44131W        W 9611  19.197  19.649  14.759
44132W        W 9612  34.120  20.202  13.956
44133W        W 9613  17.706  40.547  11.053
44134W        W 9614   4.825  25.592   2.211
44135W        W 9615  19.130   4.712  11.097
44136W        W 9616   3.275  13.347   3.745
44137W        W 9617  10.658   0.926  12.985
44138W        W 9618  10.330  25.020  13.851
44139W        W 9619  32.046  40.345  11.108
44140W        W 9620  15.320  30.435  12.922
44141W        W 9621  43.483  36.897   4.653
44142W        W 9622  37.070  22.727   3.176
44143W        W 9623   2.951  15.181  10.475
44144W        W 9624  32.060  34.515  12.391
44145W        W 9625  22.678  26.491  10.590
44146W        W 9626  30.505  44.372   4.782
44147W        W 9627  12.216  42.358   3.367
44148W        W 9628  18.719  38.358  11.484
44149W        W 9629  31.498  24.005  13.986
44150W        W 9630  37.460  29.559  12.573
44151W        W 9631  33.570  19.158   0.337
44152W        W 9632   0.780  15.747  11.104
44153W        W 9633  10.717  38.928  12.418
44154W        W 9634   3.839   7.739  12.829
44155W        W 9635  34.462  38.848  10.542
44156W        W 9636  40.311  24.089  12.862
44157W        W 9637  12.199   1.978  12.502
44158W        W 9638  44.310  44.452  10.417
44159W        W 9639  14.162   4.779  11.566
44160W        W 9640  23.046  33.480  13.007
44161W        W 9641  33.047  36.935  13.937
44162W        W 9642  38.523  19.650   1.703
44163W        W 9643  26.525  32.930  11.905
44164W        W 9644  23.005  11.294   0.892
44165W        W 9645  34.476   2.752   2.889
44166W        W 9646  41.411  10.790  10.504
44167W        W 9647  41.993  38.938  13.993
44168W        W 9648  34.384   4.888   3.831
44169W        W 9649  34.445  34.898  13.830
44170W        W 9650  41.891   1.324   3.178
44171W        W 9651  14.290  39.934   1.707
44172W        W 9652  14.675  39.021   4.674
44173W        W 9653  30.094  44.463  14.915
44174W        W 9654   1.432  32.132   1.822
44175W        W 9655   6.862   0.346  10.644
44176W        W 9656  11.324  38.906   3.382
44177W        W 9657  28.168  42.317   0.902
44178W        W 9658  33.474  40.023  14.920
44179W        W 9659   6.365  19.102   1.789
44180W        W 9660  23.031   6.881  13.358
44181W        W 9661  27.678  28.443   1.844
44182W        W 9662  16.759  21.263  11.912
44183W        W 9663   1.373  18.225  13.939
44184W        W 9664  41.300   2.872  11.907
44185W        W 9665   9.786  12.688   4.602
44186W        W 9666  22.570  14.331  14.465
44187W        W 9667   7.897  12.651   5.151
44188W        W 9668   4.283   1.366  10.474
44189W        W 9669   7.675  23.501  11.476
44190W        W 9670  12.724  13.217   0.410
44191W        W 9671  36.927  42.812  12.341
44192W        W 9672  43.898   1.898   3.642
44193W        W 9673  14.635  39.511   3.666
44194W        W 9674  40.337  37.907   2.202
44195W        W 9675  44.267  39.362  10.625
44196W        W 9676  11.184   8.819   4.334
44197W        W 9677  37.859  15.287   4.604
44198W        W 9678  41.899   2.235  14.960
44199W        W 9679   2.871  19.211   2.815
44200W        W 9680  43.901  28.650  12.086
44201W        W 9681  18.279  40.810  13.839
44202W        W 9682  32.086  16.172   0.960
44203W        W 9683  25.219  42.969  12.393
44204W        W 9684  19.080  25.049   2.399
44205W        W 9685  31.497   1.283   2.412
44206W        W 9686   7.844  38.510   1.814
44207W        W 9687  33.571  18.283  12.538
44208W        W 9688  28.938   6.427   4.777
44209W        W 9689  20.210  29.067  14.969
44210W        W 9690  17.664  36.549   4.602
44211W        W 9691  14.095  12.708  10.073
44212W        W 9692  43.349  39.365  10.455
44213W        W 9693  42.839   8.270  11.122
44214W        W 9694   4.755  37.893   0.302
44215W        W 9695  36.385  31.490  11.103
44216W        W 9696  24.093  32.031   2.673
44217W        W 9697  37.351  34.940   2.765
44218W        W 9698  44.505  40.857   1.885
44219W        W 9699  11.798  38.820  10.448
44220W        W 9700   5.347   3.457  14.006
44221W        W 9701  24.483  27.493   2.700
44222W        W 9702  19.648  38.934   0.403
44223W        W 9703  28.678   0.961  12.877
44224W        W 9704  44.393  43.792  14.891
44225W        W 9705  32.437   3.219   2.798
44226W        W 9706  31.452  38.401  14.468
44227W        W 9707   0.322   3.739  14.009
44228W        W 9708  43.007  14.264  10.975
44229W        W 9709  17.640   5.873   1.753
44230W        W 9710  26.691  22.624  12.566
44231W        W 9711  27.582   1.464   0.378
44232W        W 9712  34.977   2.866   2.814
44233W        W 9713  44.922   3.950   3.703
44234W        W 9714  34.599  38.937  12.018
44235W        W 9715  11.338   6.315  14.463
44236W        W 9716  18.736  25.618  14.384
44237W        W 9717  19.125  31.466   3.272
44238W        W 9718  24.018  33.010  13.802
44239W        W 9719  38.975  16.643  10.011
44240W        W 9720   8.816  14.821  10.946
44241W        W 9721  31.030  10.347   3.349
44242W        W 9722   6.216  13.224   2.405
44243W        W 9723  42.940  34.917  14.021
44244W        W 9724   0.462   5.426   2.795
44245W        W 9725  21.036  40.372   1.892
44246W        W 9726  25.179  36.495   2.811
44247W        W 9727   0.935  38.913   2.358
44248W        W 9728   3.782   0.493   3.659
44249W        W 9729   4.261   7.757  11.979
44250W        W 9730  18.692  26.495  10.934
44251W        W 9731  27.092   5.264   3.358
44252W        W 9732  30.618  26.073  14.412
44253W        W 9733  17.694   1.747   1.382
44254W        W 9734  20.151  37.941   2.315
44255W        W 9735  32.474  32.101  11.532
44256W        W 9736  36.078   8.824  10.901
44257W        W 9737  42.287  33.533  11.455
44258W        W 9738   0.294  44.434   1.753
44259W        W 9739  24.158  13.732   3.860
44260W        W 9740  20.125   4.319  13.887
44261W        W 9741  42.522  41.896   2.895
44262W        W 9742   6.198  40.496   1.790
44263W        W 9743  44.861  23.689  14.313
44264W        W 9744  33.955   4.862   0.801
44265W        W 9745  37.409  20.695   3.356
44266W        W 9746  36.029  11.270  13.828
44267W        W 9747  20.634   1.860   1.755
44268W        W 9748  16.596  38.977  11.547
44269W        W 9749  35.481   2.261  11.411
44270W        W 9750  34.454   1.348   1.771
44271W        W 9751  27.196  22.071  13.000
44272W        W 9752  33.626   6.846  12.010
44273W        W 9753  23.727  28.117  14.305
44274W        W 9754  10.156   2.269  13.453
44275W        W 9755   0.448   2.447  12.960
44276W        W 9756  11.282  22.667  10.632
44277W        W 9757  35.973  26.508  12.903
44278W        W 9758  38.409  36.544   2.739
44279W        W 9759  21.231  37.941   4.299
44280W        W 9760  11.350  18.079  14.789
44281W        W 9761   6.327  15.149   3.326
44282W        W 9762  26.693  33.513   1.733
44283W        W 9763  44.285  31.059  14.301
44284W        W 9764  15.600  37.544   2.790
44285W        W 9765  10.690   4.255  10.634
44286W        W 9766  41.391  42.387  10.926
44287W        W 9767   4.935  24.675   4.202
44288W        W 9768  37.035  31.006   1.326
44289W        W 9769   5.693  38.921   1.791
44290W        W 9770  44.312  35.054  12.968
44291W        W 9771  31.460  22.046   3.333
44292W        W 9772  15.653  28.102   0.465
44293W        W 9773  35.104   6.343   1.396
44294W        W 9774  41.427  12.166  13.891
44295W        W 9775  16.792   4.262   2.808
44296W        W 9776  14.290  30.461   0.817
44297W        W 9777  28.482  24.532   3.362
44298W        W 9778  15.769  16.316  12.854
44299W        W 9779  38.073   8.178   2.325
44300W        W 9780   1.808  13.672   3.349
44301W        W 9781  37.407  21.128  12.562
44302W        W 9782  26.161  30.451  14.982
44303W        W 9783  41.897  15.165  13.848
44304W        W 9784  28.166  42.840   3.330
44305W        W 9785  12.833  21.638   2.404
44306W        W 9786   0.401  32.992  13.429
44307W        W 9787  24.994   9.227   1.226
44308W        W 9788  35.984  42.370  11.966
44309W        W 9789  37.858  43.901   3.386
44310W        W 9790  43.490   5.815   2.184
44311W        W 9791  12.347  42.327   1.716
44312W        W 9792  23.076  22.527  10.965
44313W        W 9793   9.355  32.022  14.865
44314W        W 9794   0.383  23.663   3.856
44315W        W 9795  12.259  32.128   1.307
44316W        W 9796  26.971  31.065   0.828
44317W        W 9797  20.148   5.771  11.526
44318W        W 9798  14.632  42.417   1.292
44319W        W 9799  41.968  32.615   4.319
44320W        W 9800  35.934  13.750  14.369
44321W        W 9801  29.119  17.218   1.215
44322W        W 9802  43.314  32.550  11.573
44323W        W 9803  43.935  40.533  10.531
44324W        W 9804   5.862  13.121   3.635
44325W        W 9805  24.628  13.756  10.921
44326W        W 9806  16.722  42.798   4.298
44327W        W 9807  14.703  17.176  14.499
44328W        W 9808   2.420  32.565  10.150
44329W        W 9809   8.180  38.834  10.934
44330W        W 9810  22.544  25.476  14.913
44331W        W 9811   6.754   2.319  13.413
44332W        W 9812   3.327   4.406  13.911
44333W        W 9813  43.442  43.016   3.280
44334W        W 9814   0.948   7.866   2.672
44335W        W 9815  15.748  37.852  10.990
44336W        W 9816   7.265  43.316   4.824
44337W        W 9817  25.513  32.960   1.780
44338W        W 9818  33.400   5.297  12.046
44339W        W 9819  10.662  37.901   4.778
44340W        W 9820  37.469  27.575   2.817
44341W        W 9821   9.669  37.904  14.013
44342W        W 9822  12.722  33.055  14.426
44343W        W 9823  20.550   4.275  10.637
44344W        W 9824   1.830   0.744   4.690
44345W        W 9825  39.459  29.029   3.239
44346W        W 9826  43.980  19.662   9.969
44347W        W 9827  42.430  24.127  13.990
44348W        W 9828  16.787  13.114   5.117
44349W        W 9829  26.477  11.163   4.615
44350W        W 9830   2.732  33.473   2.256
44351W        W 9831  14.224  14.637   3.723
44352W        W 9832   4.265  29.023   0.801
44353W        W 9833  37.557  34.868  13.794
44354W        W 9834   2.865  37.885   3.856
44355W        W 9835   6.760  13.710   0.948
44356W        W 9836   7.386  32.088  10.894
44357W        W 9837  15.730  33.592   5.780
44358W        W 9838   1.280  21.087   1.814
44359W        W 9839  32.927   4.865   4.748
44360W        W 9840  23.728  36.587   3.236
44361W        W 9841  12.788   8.771  14.939
44362W        W 9842  28.975   7.357  11.546
44363W        W 9843  13.138  32.448   1.782
44364W        W 9844  11.295   8.393   0.349
44365W        W 9845  20.165  32.930  11.411
44366W        W 9846  17.248  12.679  11.459
44367W        W 9847  16.201  39.331   4.654
44368W        W 9848  33.453   8.771  14.374
44369W        W 9849  35.865  42.369  13.476
44370W        W 9850  34.518  36.400  11.546
44371W        W 9851  14.252  36.040   4.320
44372W        W 9852  35.479   9.276  14.900
44373W        W 9853  10.141  18.286   1.426
44374W        W 9854  36.885   2.886   2.359
44375W        W 9855  34.921  29.533  12.063
44376W        W 9856  32.922  11.774   2.363
44377W        W 9857  41.330  24.658   3.861
44378W        W 9858   2.780  41.943   4.662
44379W        W 9859  33.443   9.387   4.261
44380W        W 9860   6.840  43.334  12.512
44381W        W 9861  36.094  37.544  13.331
44382W        W 9862  17.082  33.063   1.883
44383W        W 9863  18.664  39.993   4.830
44384W        W 9864  14.266  20.544   3.676
44385W        W 9865  41.345  20.595  14.782
44386W        W 9866  34.578   7.762   4.786
44387W        W 9867  26.988  21.679   1.834
44388W        W 9868  29.075  32.619   1.910
44389W        W 9869  10.729  38.960  14.885
44390W        W 9870  31.469  23.561   4.666
44391W        W 9871  11.269   2.345   4.753
44392W        W 9872  13.647  12.211  12.927
44393W        W 9873  37.886  10.798  14.312
44394W        W 9874  38.053  44.771   4.725
44395W        W 9875  25.604  14.795   1.778
44396W        W 9876   4.255  39.968   0.840
44397W        W 9877  33.592  18.773  13.378
44398W        W 9878   5.409   0.270  11.906
44399W        W 9879  33.997   2.227  13.827
44400W        W 9880  39.983  14.715   1.327
44401W        W 9881  15.276  38.940   1.775
44402W        W 9882  28.468  36.523  10.631
44403W        W 9883  16.602   0.976  11.459
44404W        W 9884   2.907   9.157   1.417
44405W        W 9885  41.305  26.604   2.337
44406W        W 9886  34.511  39.517  11.076
44407W        W 9887  33.433  15.246  11.071
44408W        W 9888  16.300  25.603   0.433
44409W        W 9889  44.415  40.043  13.480
44410W        W 9890   0.367  15.699  13.946
44411W        W 9891  24.187  42.354  14.321
44412W        W 9892  30.604  43.493   4.815
44413W        W 9893  19.650  12.148  12.033
44414W        W 9894  22.503  36.467   3.693
44415W        W 9895   7.899  28.056  10.069
44416W        W 9896   9.347  20.195  12.374
44417W        W 9897  44.758  32.984   3.299
44418W        W 9898  36.042  32.527   4.685
44419W        W 9899  11.195  20.538  11.441
44420W        W 9900   2.437  30.033  10.891
44421W        W 9901  25.082  28.952   1.275
44422W        W 9902  37.566  30.911   2.868
44423W        W 9903   4.723  14.621   2.738
44424W        W 9904  15.197  31.619  10.498
44425W        W 9905   7.728  17.573  13.425
44426W        W 9906  26.997  38.432   4.646
44427W        W 9907  32.974  40.466  13.968
44428W        W 9908  44.970  16.082  13.391
44429W        W 9909   5.793  22.019   2.881
44430W        W 9910  25.494   5.214   0.460
44431W        W 9911  26.527  21.651  14.492
44432W        W 9912  27.093  19.655   4.266
44433W        W 9913   3.244  24.653   0.958
44434W        W 9914   0.264  12.788   3.717
44435W        W 9915  20.613  32.528   0.834
44436W        W 9916  31.012  20.127  11.558
44437W        W 9917  17.156  31.548   1.713
44438W        W 9918  18.260  14.635   4.201
44439W        W 9919  42.362  34.414  14.416
44440W        W 9920  41.510   1.776  12.554
44441W        W 9921   5.340   7.871  13.478
44442W        W 9922   3.794  36.567  13.321
44443W        W 9923  39.051  26.614  11.011
44444W        W 9924  41.507  17.700  10.444
44445W        W 9925  17.087   8.658  13.502
44446W        W 9926  37.026  39.368   3.807
44447W        W 9927  40.859  38.960  13.528
44448W        W 9928  33.399   7.276  14.486
44449W        W 9929  26.510  30.461   4.605
44450W        W 9930  39.424  10.384  13.379
44451W        W 9931  25.497  39.930   1.265
44452W        W 9932  30.570  23.542  11.917
44453W        W 9933  12.837   1.753  10.923
44454W        W 9934  24.504  42.948  12.363
44455W        W 9935  13.720   8.736  14.872
44456W        W 9936  25.105  44.396   2.210
44457W        W 9937  29.557   8.258   1.227
44458W        W 9938  18.166   7.845  13.325
44459W        W 9939  40.964  38.931  11.389
44460W        W 9940  26.489   1.894   2.404
44461W        W 9941  31.935  14.784  14.326
44462W        W 9942  43.326  16.716   2.361
44463W        W 9943  16.175  36.907   1.295
44464W        W 9944   9.765   8.195  11.399
44465W        W 9945   6.291  27.066  12.358
44466W        W 9946  22.604  21.058  13.003
44467W        W 9947  14.141  19.726   3.712
44468W        W 9948   1.749   8.224  13.908
44469W        W 9949  44.852  38.865   2.189
44470W        W 9950   3.828  31.616   9.474
44471W        W 9951   9.298  32.006  10.624
44472W        W 9952  29.175  38.872  13.362
44473W        W 9953   5.841  43.966   4.336
44474W        W 9954  32.921  36.913   1.925
44475W        W 9955  20.768  42.880  13.384
44476W        W 9956   8.376   9.846  13.479
44477W        W 9957  35.866  23.179   2.732
44478W        W 9958  43.959  19.760   0.951
44479W        W 9959  37.501  37.015   2.672
44480W        W 9960  22.089  31.601  14.005
44481W        W 9961  34.024  37.431  14.492
44482W        W 9962  30.436   4.430  11.877
44483W        W 9963  43.327   5.811   2.775
44484W        W 9964  30.428   6.765  13.912
44485W        W 9965  16.306  11.351  12.344
44486W        W 9966  24.204  12.360  11.948
44487W        W 9967  38.016  15.777   4.249
44488W        W 9968  18.101   7.236  11.606
44489W        W 9969  15.250  36.031  14.838
44490W        W 9970   1.844  32.925  14.994
44491W        W 9971  16.078   9.749   4.288
44492W        W 9972   9.660  10.247   3.803
44493W        W 9973  38.325  35.055  12.490
44494W        W 9974  32.591  26.156   4.656
44495W        W 9975  44.312   7.201  14.472
44496W        W 9976  32.890  17.625   0.750
44497W        W 9977  25.531   2.470  13.960
44498W        W 9978  42.495  43.787  11.467
44499W        W 9979  19.247  20.239  10.965
44500W        W 9980  35.083  18.598   2.373
44501W        W 9981  44.385  18.258  14.433
44502W        W 9982  44.505  15.649   5.237
44503W        W 9983  12.652  38.348   4.704
44504W        W 9984  31.538   5.818  12.078
44505W        W 9985  22.997  30.939  10.529
44506W        W 9986   2.235   5.216  12.894
44507W        W 9987   3.777  17.664  10.977
44508W        W 9988  35.069  18.598  11.611
44509W        W 9989   5.385  15.086  14.423
44510W        W 9990   2.302   3.458   0.397
44511W        W 9991  41.375  42.899   4.197
44512W        W 9992   3.797  14.761   2.382
44513W        W 9993  23.636  16.642   3.170
44514W        W 9994  37.362  15.680   4.323
44515W        W 9995   0.847   2.315  13.989
44516W        W 9996  41.443   7.796  13.928
44517W        W 9997   1.242  43.298  11.411
44518W        W 9998  33.038  14.647  11.903
44519W        W 9999  39.981  12.156   2.732
44520W        W10000  29.960   5.921   3.664
44521W        W10001  21.199   5.399   0.782
44522W        W10002  17.230  15.580  14.288
44523W        W10003  32.027  17.130  13.328
44524W        W10004   3.737  21.239   1.926
44525W        W10005  37.517   5.787  11.453
44526W        W10006  42.365   1.863   4.722
44527W        W10007  37.066   7.877  10.891
44528W        W10008  14.606  26.576   0.750
44529W        W10009  24.081   9.311   4.156
44530W        W10010  34.400   4.792  11.950
44531W        W10011  31.605  11.720  11.113
44532W        W10012  38.904  23.072  11.596
44533W        W10013  34.031  14.113   5.100
44534W        W10014   6.847  32.403  12.384
44535W        W10015  37.927  18.220  12.385
44536W        W10016  38.994  34.385   2.806
44537W        W10017   4.383  21.194  11.563
44538W        W10018  40.877  17.106  12.418
44539W        W10019  18.286  37.927   3.808
44540W        W10020  40.305  12.854   0.851
44541W        W10021  14.676  22.039  12.830
44542W        W10022  43.917   4.413  14.425
44543W        W10023  42.954   5.366   0.458
44544W        W10024  26.034  43.280   1.881
44545W        W10025  44.799   7.781  12.993
44546W        W10026   0.304  22.174   4.317
44547W        W10027  13.751  44.789   1.356
44548W        W10028  22.136  17.633   1.324
44549W        W10029  31.976  17.669   3.193
44550W        W10030  38.062  31.423   3.759
44551W        W10031   8.735  41.528  11.464
44552W        W10032  10.660  32.502   1.428
44553W        W10033  44.377  18.622   3.855
44554W        W10034  19.264   7.799  10.925
44555W        W10035   6.365  39.328   2.302
44556W        W10036  39.365  35.436   0.900
44557W        W10037  13.293   7.834   4.776
44558W        W10038  31.106  10.772  11.996
44559W        W10039   0.748  33.612  12.024
44560W        W10040  23.576  34.022   4.801
44561W        W10041  29.605  16.306   0.854
44562W        W10042  39.835  16.591  11.562
44563W        W10043  25.586   2.937  14.494
44564W        W10044  10.755  35.990  14.817
44565W        W10045   7.228   9.649   2.854
44566W        W10046  10.792   4.747   1.305
44567W        W10047   3.919  38.032  12.984
44568W        W10048  22.747  24.716   4.603
44569W        W10049  11.671  26.540  11.507
44570W        W10050   4.843  31.047   4.678
44571W        W10051   4.252  34.537   1.221
44572W        W10052   3.235  44.505   0.322
44573W        W10053   2.252  17.158   2.723
44574W        W10054  34.487   5.926   3.379
44575W        W10055   7.848  37.908   0.842
44576W        W10056   8.221  12.237   1.343
44577W        W10057  25.709  44.285   0.273
44578W        W10058   4.446  37.453   0.432
44579W        W10059  14.172   4.780   0.884
44580W        W10060  34.064  17.300   3.263
44581W        W10061  14.625  27.961   4.616
44582W        W10062   1.417  35.418   3.777
44583W        W10063  19.221  12.763  10.462
44584W        W10064  41.868   1.785   3.806
44585W        W10065  10.203   0.341  11.901
44586W        W10066  44.277  21.566   0.381
44587W        W10067  26.621  17.775  10.438
44588W        W10068   7.726  24.225   0.846
44589W        W10069  35.555  33.581   1.440
44590W        W10070   4.412  18.757  12.345
44591W        W10071  31.956  20.178   4.756
44592W        W10072  34.873  33.039  12.376
44593W        W10073  38.358  11.362   2.694
44594W        W10074  32.044  14.245   2.757
44595W        W10075  27.191  24.557  12.985
44596W        W10076  37.080  16.225  14.013
44597W        W10077  10.845  28.664  11.487
44598W        W10078   6.690  34.000   1.847
44599W        W10079   9.310  21.718  11.523
44600W        W10080  23.575   3.230  13.920
44601W        W10081   3.250   8.342  12.370
44602W        W10082   5.750  30.562  12.082
44603W        W10083   6.852  39.815   4.690
44604W        W10084  11.867   8.848  10.999
44605W        W10085  42.974   0.986   2.757
44606W        W10086  35.913  16.265   2.250
44607W        W10087  29.039  10.698   3.279
44608W        W10088  14.110  16.138  11.868
44609W        W10089  20.716  13.691   1.740
44610W        W10090  27.494  25.648   1.701
44611W        W10091   5.350   6.847  10.941
44612W        W10092   6.787  14.755  11.445
44613W        W10093  12.627  25.159   1.772
44614W        W10094  38.442  32.558   0.780
44615W        W10095  20.718  36.492   3.647
44616W        W10096   8.380  21.262  11.960
44617W        W10097  43.986  39.962  12.969
44618W        W10098  21.163  16.685  13.870
44619W        W10099  35.547  40.453  14.864
44620W        W10100  27.655  10.162  11.877
44621W        W10101   0.271   1.911  14.895
44622W        W10102  32.910  30.977   4.647
44623W        W10103  18.088  44.353  11.518
44624W        W10104   7.880  32.911  10.951
44625W        W10105  10.785  18.296   3.173
44626W        W10106  14.128  29.094  12.042
44627W        W10107   8.240   4.341   2.834
44628W        W10108  16.209  31.990   4.170
44629W        W10109  33.556  18.123   2.296
44630W        W10110  28.129  32.916  11.959
44631W        W10111   8.816  12.304  10.956
44632W        W10112  23.097  25.665   1.330
44633W        W10113  37.439  21.080   4.118
44634W        W10114  30.513  16.316   4.783
44635W        W10115  18.688  35.595  12.053
44636W        W10116  38.456  13.258  11.921
44637W        W10117   9.781  44.261   3.643
44638W        W10118  33.029   8.854   3.864
44639W        W10119  19.734  16.105   0.298
44640W        W10120  39.029  17.682  12.867
44641W        W10121   4.797  42.380   4.681
44642W        W10122  14.244  18.761  11.519
44643W        W10123   5.791   3.340  11.545
44644W        W10124  22.160  13.288  13.988
44645W        W10125   6.705  27.045  12.370
44646W        W10126   3.899  40.547  12.073
44647W        W10127  14.646  34.476  12.444
44648W        W10128  16.667  30.107   3.198
44649W        W10129  23.221  43.479  14.945
44650W        W10130  19.233  40.802   0.256
44651W        W10131  25.513  28.551   2.357
44652W        W10132  38.410  10.177   4.744
44653W        W10133   4.266   8.307  11.426
44654W        W10134  35.432   4.916   0.795
44655W        W10135  11.701  15.645   2.719
44656W        W10136  13.818   3.907   4.228
44657W        W10137   6.809  44.779  12.993
44658W        W10138  42.487  28.618   1.752
44659W        W10139  30.066  20.089  11.581
44660W        W10140  16.697  34.883  12.866
44661W        W10141   9.726  35.572  14.798
44662W        W10142  27.115  33.546  10.595
44663W        W10143  39.018   7.231   3.867
44664W        W10144  22.505  37.472   0.770
44665W        W10145  30.916   9.322   4.209
44666W        W10146  15.801  36.038  13.061
44667W        W10147  12.740  30.527   2.716
44668W        W10148  40.032  30.604  13.853
44669W        W10149  10.207  12.712  14.844
44670W        W10150  24.692  38.833   3.302
44671W        W10151  34.103  28.999  12.958
44672W        W10152  41.889  32.581  14.277
44673W        W10153  38.475  33.057  12.017
44674W        W10154  20.542   3.442  13.818
44675W        W10155  26.671   4.782   3.673
44676W        W10156  40.935  19.110   4.793
44677W        W10157   7.864   5.765   0.408
44678W        W10158   8.833  41.882   1.389
44679W        W10159   9.361  14.283   1.812
44680W        W10160  16.653  40.465  12.492
44681W        W10161  28.469  27.093   1.439
44682W        W10162  34.927   2.400   0.371
44683W        W10163  27.546  43.322  11.522
44684W        W10164  20.038  28.185  11.004
44685W        W10165  37.034  26.640  12.384
44686W        W10166  29.051  28.156  11.383
44687W        W10167  41.348  16.298   4.261
44688W        W10168  21.586  21.139   4.634
44689W        W10169  12.138  15.152  10.422
44690W        W10170  25.103  18.166  10.016
44691W        W10171  18.783  31.069  13.014
44692W        W10172  21.116  36.347   5.115
44693W        W10173  34.527   3.442   2.416
44694W        W10174  36.565   7.859  13.900
44695W        W10175   7.333   3.822   0.775
44696W        W10176  36.585  41.870  12.465
44697W        W10177  27.035   5.336   0.919
44698W        W10178  24.000   8.387  11.867
44699W        W10179  40.357  25.023   2.691
44700W        W10180  39.045   1.752  10.471
44701W        W10181  21.209  13.726  13.944
44702W        W10182  18.133   4.771  12.989
44703W        W10183   5.718  16.581  14.478
44704W        W10184  26.962  15.773   4.664
44705W        W10185  12.134  15.748  14.013
44706W        W10186  44.281   6.331  14.791
44707W        W10187  10.295   9.803   2.750
44708W        W10188  12.145  35.103   2.356
44709W        W10189  42.396   0.864   2.399
44710W        W10190  26.081  31.629  14.014
44711W        W10191  28.093  37.480   0.727
44712W        W10192  13.237  40.043   4.351
44713W        W10193  22.045   6.422   4.318
44714W        W10194  26.691  35.936   5.219
44715W        W10195  36.589  35.588   2.785
44716W        W10196   2.750   6.795   3.724
44717W        W10197  21.529  23.136   2.256
44718W        W10198  10.319  21.724   1.860
44719W        W10199   2.804  37.424   3.868
44720W        W10200  44.325   9.358   4.691
44721W        W10201  39.891  43.785  13.997
44722W        W10202  25.062   3.326  14.372
44723W        W10203  43.845  43.836  13.799
44724W        W10204   6.257  13.113  10.933
44725W        W10205   5.696  21.185  14.387
44726W        W10206  14.704  10.642  13.307
44727W        W10207   9.393   7.403   4.343
44728W        W10208  29.525  42.445  11.487
44729W        W10209  15.727   1.463   1.428
44730W        W10210  13.167  19.220  14.293
44731W        W10211  24.644  15.710   3.213
44732W        W10212  14.591  14.168  12.008
44733W        W10213  35.996  28.995   0.804
44734W        W10214  15.306  25.697  12.007
44735W        W10215  22.654  43.428  10.983
44736W        W10216  15.788  34.913   1.343
44737W        W10217  12.731  43.312   1.241
44738W        W10218   2.745  10.846   4.667
44739W        W10219   6.231  27.508  12.851
44740W        W10220  35.508  32.545  14.364
44741W        W10221  26.611   6.188  14.422
44742W        W10222  28.002   8.219  10.557
44743W        W10223  16.698  20.090  12.970
44744W        W10224   1.827  34.524  11.871
44745W        W10225   5.231  40.976   1.403
44746W        W10226  15.145  18.279   4.768
44747W        W10227   4.877  37.444   3.801
44748W        W10228  30.016  30.133   4.797
44749W        W10229   7.805  44.910  14.803
44750W        W10230  31.088  15.093  13.378
44751W        W10231   2.940  44.932   4.352
44752W        W10232  19.548  41.991   1.921
44753W        W10233  44.854  27.688  14.994
44754W        W10234  40.522  39.911  10.962
44755W        W10235  14.274  36.009   3.225
44756W        W10236  38.422  26.070   3.298
44757W        W10237   4.361   7.310  11.077
44758W        W10238  44.322  11.257  14.792
44759W        W10239   0.795  43.815   4.680
44760W        W10240   7.364  18.663  13.419
44761W        W10241   8.840   6.337   1.883
44762W        W10242   4.428  25.040   0.840
44763W        W10243   0.277  40.323  11.917
44764W        W10244  22.610  22.687  12.844
44765W        W10245   4.398  40.404  13.346
44766W        W10246  15.231  15.615   4.272
44767W        W10247  16.284  17.077  13.932
44768W        W10248  44.920  16.682  10.465
44769W        W10249  12.631  42.924  13.807
44770W        W10250  27.478  40.355   1.766
44771W        W10251   7.270  10.149   3.862
44772W        W10252  13.657  38.395   3.797
44773W        W10253  29.583  16.177   3.733
44774W        W10254   7.882   3.421   4.667
44775W        W10255  19.113  20.117  10.445
44776W        W10256  31.092  20.542   3.736
44777W        W10257  11.642  25.976   4.751
44778W        W10258  39.365  27.445  14.909
44779W        W10259  25.211  30.614  10.908
44780W        W10260  13.656  10.868  12.012
44781W        W10261   3.922   3.805  14.440
44782W        W10262  17.660   3.219  14.853
44783W        W10263  40.425  26.090   4.603
44784W        W10264   1.480  22.220   2.316
44785W        W10265  30.946  30.436  14.768
44786W        W10266  21.626  38.958   3.672
44787W        W10267   8.307  30.107  13.980
44788W        W10268  38.048  37.046   3.330
44789W        W10269  32.049  23.702   0.437
44790W        W10270  28.958  44.429   4.651
44791W        W10271  38.367   1.251  10.968
44792W        W10272  24.198   7.263  10.133
44793W        W10273  11.308  16.782  10.527
44794W        W10274   3.453  27.194  11.537
44795W        W10275  34.405   3.278  10.404
44796W        W10276  20.224  29.143  12.530
44797W        W10277  41.449  25.097  10.595
44798W        W10278  37.958  34.028  10.517
44799W        W10279  29.520  33.983   2.408
44800W        W10280  23.121  27.571  12.866
44801W        W10281   1.330  35.074   4.822
44802W        W10282  41.505  32.562   0.872
44803W        W10283  42.801   5.863   1.452
44804W        W10284  31.467  44.835  11.021
44805W        W10285  25.203  15.795  11.933
44806W        W10286  38.913  21.063   4.613
44807W        W10287  35.033  11.136   0.844
44808W        W10288  26.569   1.931   3.217
44809W        W10289   3.748  17.703  14.347
44810W        W10290  34.468  13.827  12.977
44811W        W10291  22.642  20.197  11.446
44812W        W10292   6.298  20.578   0.315
44813W        W10293  26.136   6.760  14.789
44814W        W10294   2.959   4.255  12.866
44815W        W10295  16.120  44.939   4.121
44816W        W10296   7.868  36.551  12.893
44817W        W10297  29.985  38.064   1.864
44818W        W10298  15.266   3.326  10.611
44819W        W10299  11.761   0.929   3.220
44820W        W10300  25.558  10.195   0.839
44821W        W10301  35.093   2.770  13.059
44822W        W10302  20.725  44.842   2.694
44823W        W10303  29.447  20.198   2.209
44824W        W10304  34.978  26.014   4.349
44825W        W10305  16.098  36.072  13.792
44826W        W10306  21.032  40.505   3.316
44827W        W10307  24.600   6.923   4.623
44828W        W10308  12.140  27.954   3.746
44829W        W10309  31.472  35.494  11.017
44830W        W10310  10.228   5.807   2.760
44831W        W10311   0.809  37.411  13.539
44832W        W10312  15.242  41.481   0.276
44833W        W10313  36.086  25.642  14.406
44834W        W10314  41.829   0.933  12.401
44835W        W10315  16.310  39.851   3.183
44836W        W10316  20.562  23.984  12.471
44837W        W10317  25.536  36.059   2.717
44838W        W10318  32.078  18.195  13.526
44839W        W10319  22.120  20.119  14.771
44840W        W10320  22.008   5.924  14.855
44841W        W10321  18.551   2.919  10.891
44842W        W10322  39.898  43.019   3.216
44843W        W10323  24.489   7.324   0.449
44844W        W10324  13.247  37.924  11.894
44845W        W10325  39.526  36.933  11.992
44846W        W10326  25.072  37.931   3.195
44847W        W10327  40.383   1.454  11.372
44848W        W10328  17.195  32.092   1.422
44849W        W10329  27.197  37.419  14.287
44850W        W10330  35.955   9.194  13.884
44851W        W10331  17.706   2.842   0.749
44852W        W10332  17.780  15.131   3.304
44853W        W10333  16.774  32.594   0.907
44854W        W10334  20.740  26.991  13.372
44855W        W10335  29.515  33.525   4.184
44856W        W10336  38.886  26.040   2.854
44857W        W10337  30.029  12.196  14.921
44858W        W10338  29.966   6.754   1.786
44859W        W10339  39.924  26.095  12.543
44860W        W10340   2.901  14.590   0.398
44861W        W10341   8.705  30.454  12.524
44862W        W10342  14.743  41.488   2.378
44863W        W10343  21.744  13.763   2.184
44864W        W10344   4.886  29.071   2.324
44865W        W10345  23.499  39.381   3.646
44866W        W10346  42.461  19.768   3.643
44867W        W10347  32.106  15.122   1.314
44868W        W10348  31.542  12.732  14.433
44869W        W10349  17.605  16.642   1.872
44870W        W10350  24.123  32.083  12.896
44871W        W10351  18.738  28.610   2.796
44872W        W10352  25.537  15.689  13.353
44873W        W10353  19.669  20.078   3.262
44874W        W10354  40.871  38.333  11.609
44875W        W10355  20.621  42.980  12.428
44876W        W10356   3.447  27.483   9.957
44877W        W10357   7.722  42.515  11.075
44878W        W10358  13.737  10.732  14.493
44879W        W10359  25.115   2.463  12.985
44880W        W10360  31.440  44.983  14.908
44881W        W10361   2.895  18.279  12.430
44882W        W10362  18.719  39.983   0.357
44883W        W10363  39.446   1.268   3.205
44884W        W10364  28.057  19.215   3.219
44885W        W10365  17.266  13.305   1.252
44886W        W10366   7.838  23.040   4.245
44887W        W10367   4.706  13.641   2.832
44888W        W10368  42.457  42.827  12.450
44889W        W10369  12.766   6.697  12.988
44890W        W10370  10.706  27.691   0.955
44891W        W10371  26.700  24.717   4.653
44892W        W10372  41.336  27.471   4.619
44893W        W10373  26.016   6.739   0.744
44894W        W10374   7.230   0.427  13.999
44895W        W10375  27.988  14.692   3.235
44896W        W10376  17.728  32.955   3.859
44897W        W10377  15.244  40.532  12.395
44898W        W10378  23.611   1.369  12.852
44899W        W10379   6.806  36.954   3.184
44900W        W10380  12.712  32.403  10.985
44901W        W10381  36.554   3.921   2.345
44902W        W10382  32.084  42.284   2.179
44903W        W10383  41.521  25.162   0.383
44904W        W10384  15.659  29.965  14.921
44905W        W10385   6.864  12.326  11.036
44906W        W10386  29.093  44.881   0.401
44907W        W10387  24.542  39.988  10.908
44908W        W10388  36.567  25.180   3.169
44909W        W10389   2.285  43.848   2.402
44910W        W10390   1.923   7.723  14.765
44911W        W10391  22.106  34.447   1.767
44912W        W10392  28.518  18.283  14.800
44913W        W10393  10.161  36.389   4.642
44914W        W10394  11.725  34.078   3.258
44915W        W10395  15.193   6.788  13.424
44916W        W10396  42.284  34.522   0.479
44917W        W10397  23.010  27.543   2.866
44918W        W10398  19.192  44.008  14.295
44919W        W10399  35.923  43.015   1.858
44920W        W10400   6.197  40.534   4.292
44921W        W10401  10.742  35.031   2.874
44922W        W10402  43.998   5.751  14.885
44923W        W10403  20.624  42.954   0.280
44924W        W10404   7.735   5.787   2.761
44925W        W10405  40.441  16.788   1.256
44926W        W10406  33.600  42.315  12.883
44927W        W10407  35.972  20.686  13.873
44928W        W10408   6.215   7.213   4.651
44929W        W10409   1.255  33.418   2.182
44930W        W10410  20.606  28.654  14.322
44931W        W10411  33.029   8.291  12.516
44932W        W10412  37.575  33.533  11.425
44933W        W10413   1.351  29.135  14.324
44934W        W10414  38.402  44.404  10.957
44935W        W10415  27.656  40.825   3.861
44936W        W10416  35.475  34.065   2.742
44937W        W10417  31.572  26.038  12.560
44938W        W10418  30.094  13.653  14.003
44939W        W10419   9.223  42.302   2.234
44940W        W10420   3.841   6.332   1.813
44941W        W10421   9.820  40.988  10.908
44942W        W10422  24.723  10.677   3.345
44943W        W10423   3.261  32.980  12.907
44944W        W10424  29.591  31.540   3.340
44945W        W10425  24.707  37.020   2.832
44946W        W10426   4.243  19.156  12.393
44947W        W10427  30.145   5.762  11.041
44948W        W10428  20.155   8.736  13.350
44949W        W10429  27.596  37.906   0.420
44950W        W10430  32.934  19.222   4.815
44951W        W10431   4.880  10.697   1.856
44952W        W10432   1.398  38.513   1.790
44953W        W10433  24.138  36.032   3.286
44954W        W10434   5.261  38.399  10.546
44955W        W10435  43.837  25.143  13.910
44956W        W10436  34.112   0.913  14.933
44957W        W10437   4.896   2.351   2.693
44958W        W10438   6.293  12.667   2.778
44959W        W10439  34.932  13.212   1.896
44960W        W10440  35.525  30.954   2.766
44961W        W10441  19.269  10.149   4.145
44962W        W10442  39.371  17.191   2.855
44963W        W10443  15.083  14.661   0.301
44964W        W10444  43.464   0.967  13.459
44965W        W10445  38.519  28.438   2.301
44966W        W10446  36.087  40.459  13.816
44967W        W10447  36.941   4.320   0.372
44968W        W10448  43.924   1.915   4.231
44969W        W10449   9.171  40.389  14.486
44970W        W10450  15.762  29.487   1.924
44971W        W10451  43.510  23.075   1.228
44972W        W10452  26.531  30.947   2.210
44973W        W10453  26.141  30.591  13.388
44974W        W10454   7.854  14.168  14.463
44975W        W10455  42.445  29.645   2.395
44976W        W10456  29.433   2.349  13.416
44977W        W10457  20.120  23.096   0.417
44978W        W10458  30.616  22.699   0.255
44979W        W10459  42.902  30.039   2.395
44980W        W10460  44.311  31.116   4.341
44981W        W10461  20.098  44.444  10.596
44982W        W10462   2.921   2.774   0.804
44983W        W10463  15.289   0.466   5.659
44984W        W10464  12.652  30.908  11.085
44985W        W10465  21.253   6.872   2.192
44986W        W10466  25.661  17.152  12.977
44987W        W10467  26.970  19.196   1.923
44988W        W10468  44.968  30.628   3.268
44989W        W10469   2.833  30.608  11.885
44990W        W10470  33.046   9.328   0.883
44991W        W10471  21.225  29.660   1.222
44992W        W10472  24.973  37.012  12.951
44993W        W10473  37.006   0.384   3.664
44994W        W10474  20.058  39.867  11.926
44995W        W10475   9.198   6.303   0.956
44996W        W10476  10.713  17.186   2.714
44997W        W10477   9.269  21.026  11.002
44998W        W10478  15.118   9.225   4.729
44999W        W10479  14.166  30.609  12.998
45000W        W10480  43.777  14.763   4.691
45001W        W10481  20.188   2.288   2.810
45002W        W10482   1.346  34.975   2.706
45003W        W10483  30.499  38.899   2.716
45004W        W10484   3.230  15.655  14.374
45005W        W10485  36.544  34.092   0.798
45006W        W10486  26.977   0.360   1.263
45007W        W10487  43.913  31.644   4.157
45008W        W10488  36.398  31.573  14.388
45009W        W10489  40.847  26.647  13.889
45010W        W10490  42.392  39.881   2.389
45011W        W10491  40.843  36.900  11.990
45012W        W10492  26.160  18.705  14.507
45013W        W10493  15.608  23.525  13.901
45014W        W10494  38.006   7.800  13.895
45015W        W10495  30.608   1.355   4.621
45016W        W10496  24.580  39.404  11.606
45017W        W10497  21.545  24.185   2.702
45018W        W10498   4.204  14.192   2.278
45019W        W10499  12.168  34.611  12.007
45020W        W10500  24.488  32.397   4.738
45021W        W10501  16.252   4.844  13.397
45022W        W10502  25.660  16.189  12.567
45023W        W10503   1.474  33.061   2.306
45024W        W10504   2.438  34.046   2.798
45025W        W10505   9.346  36.522  12.954
45026W        W10506  10.685   7.833  12.516
45027W        W10507  35.936  15.125   3.378
45028W        W10508  38.571   9.843   0.850
45029W        W10509  21.220  17.170   4.644
45030W        W10510  16.742   6.229  13.468
45031W        W10511  22.586  37.454  13.974
45032W        W10512  11.366  42.978   1.824
45033W        W10513  35.592  32.919   3.699
45034W        W10514   4.871  19.547   0.936
45035W        W10515   9.225   1.374   3.752
45036W        W10516  38.966  35.985  12.953
45037W        W10517  18.755  44.828  13.884
45038W        W10518  18.689   3.393  11.425
45039W        W10519   0.815  39.998   0.408
45040W        W10520  33.540   2.888   0.870
45041W        W10521  22.526  29.059  14.880
45042W        W10522  41.383   9.776  14.285
45043W        W10523  18.590  22.725  14.017
45044W        W10524  40.953  30.081  12.470
45045W        W10525  12.663  13.606   4.629
45046W        W10526  43.412   4.338   5.211
45047W        W10527  34.420  16.209  12.966
45048W        W10528  15.742   9.662   4.293
45049W        W10529  10.678  23.229  10.501
45050W        W10530  12.239  12.624   1.343
45051W        W10531  20.114  21.031  13.348
45052W        W10532  20.257   6.737   3.700
45053W        W10533   6.208  32.944   3.635
45054W        W10534  29.159  41.402  14.368
45055W        W10535   5.214  29.984  10.963
45056W        W10536  37.995  28.162  14.948
45057W        W10537  43.764  34.534  12.925
45058W        W10538  30.131  23.666  14.486
45059W        W10539  36.417  26.088   0.799
45060W        W10540  41.455  41.991  10.585
45061W        W10541  40.993  27.007  12.433
45062W        W10542  40.882  40.501   2.757
45063W        W10543   3.348  38.917   2.406
45064W        W10544  24.014  43.971   1.232
45065W        W10545  44.366  16.631  11.912
45066W        W10546  18.155   4.387  10.978
45067W        W10547  14.240  33.055   3.709
45068W        W10548  23.530   7.827   2.796
45069W        W10549   9.176   6.238   4.199
45070W        W10550  37.566  42.007  12.029
45071W        W10551  24.549  32.067  10.454
45072W        W10552   8.219   0.252   1.827
45073W        W10553  38.852  20.553   2.241
45074W        W10554  38.047   0.311  11.112
45075W        W10555  40.485  39.987   4.762
45076W        W10556   0.298   8.879   2.336
45077W        W10557   3.299   2.340  11.483
45078W        W10558  30.069  14.773   0.404
45079W        W10559   1.784  14.671   3.752
45080W        W10560  31.647  32.425  14.776
45081W        W10561  14.255  40.999  11.591
45082W        W10562  41.853  44.264  12.055
45083W        W10563  41.015   2.252   0.934
45084W        W10564  27.183  22.602  12.958
45085W        W10565  33.912  25.697  13.436
45086W        W10566  31.988   9.386  11.558
45087W        W10567  21.700  38.848  11.075
45088W        W10568   9.778  22.239   2.673
45089W        W10569   5.352  32.984  12.875
45090W        W10570   9.654  14.188  13.475
45091W        W10571  43.278  24.516  10.622
45092W        W10572  26.667  42.411   1.914
45093W        W10573  11.285  39.879   2.791
45094W        W10574  27.483  33.041  14.289
45095W        W10575  16.208  32.438   1.256
45096W        W10576   4.319  11.274  14.300
45097W        W10577  18.764  32.960  14.320
45098W        W10578  17.587   8.324  12.401
45099W        W10579   4.812   9.285  13.820
45100W        W10580  10.289  31.555   0.915
45101W        W10581  28.017  42.490  14.861
45102W        W10582  41.891  21.709   2.667
45103W        W10583   6.792  36.900   0.787
45104W        W10584  28.619  10.679  13.807
45105W        W10585  43.831  17.666   2.286
45106W        W10586  35.026  22.537   1.771
45107W        W10587  25.056  21.665  11.051
45108W        W10588  19.582  37.968  14.764
45109W        W10589   6.770   0.472  13.941
45110W        W10590  34.406  17.665   3.171
45111W        W10591   8.785   3.235  10.445
45112W        W10592  16.184  15.728   1.918
45113W        W10593  37.541  25.630  10.991
45114W        W10594  28.668  31.907   2.182
45115W        W10595  17.087  24.609  13.498
45116W        W10596   4.328  14.223   1.417
45117W        W10597   7.909   1.284   3.732
45118W        W10598  40.923  10.648  11.559
45119W        W10599  35.522  12.280   3.764
45120W        W10600   1.864  29.970   0.247
45121W        W10601  24.576  44.914   2.842
45122W        W10602  14.166  37.352   3.272
45123W        W10603   5.739  34.450   3.340
45124W        W10604   0.760  34.448   9.995
45125W        W10605  10.170  42.304   4.640
45126W        W10606  30.161   6.866  12.946
45127W        W10607   6.884  16.771   2.241
45128W        W10608  37.439  20.531   2.267
45129W        W10609  19.230   2.947  10.992
45130W        W10610  33.507  24.632  11.456
45131W        W10611   5.778  43.377  12.465
45132W        W10612  12.130   1.863   4.203
45133W        W10613  34.389  26.593  13.958
45134W        W10614  31.063   9.762   0.925
45135W        W10615  32.549  25.519  14.479
45136W        W10616  42.495   6.297   1.405
45137W        W10617  35.408  29.170  11.537
45138W        W10618   4.909  40.544  13.524
45139W        W10619  19.248  32.456   0.826
45140W        W10620  39.014  39.852  13.023
45141W        W10621  44.993  14.216   0.895
45142W        W10622  33.072  34.553  13.894
45143W        W10623  24.053   5.895   0.842
45144W        W10624  21.245   3.430  12.069
45145W        W10625  17.560  32.614  12.948
45146W        W10626  36.086  30.111   3.176
45147W        W10627  19.096  15.777   2.333
45148W        W10628  23.727  13.195   0.848
45149W        W10629  34.916  32.448  13.315
45150W        W10630  13.657  12.656   3.636
45151W        W10631  30.428  42.519   1.234
45152W        W10632  37.519  14.625  13.422
45153W        W10633  25.550  42.993  10.405
45154W        W10634  14.128  11.317  12.032
45155W        W10635  25.079  27.097  14.885
45156W        W10636  15.577  24.151  12.546
45157W        W10637  22.627  21.691  13.389
45158W        W10638  11.324  42.338   2.337
45159W        W10639  35.028   6.780  12.989
45160W        W10640   7.235  11.847   3.321
45161W        W10641  10.875  10.145  12.911
45162W        W10642  39.021  39.512   3.819
45163W        W10643  37.005  22.202   0.424
45164W        W10644  17.132  11.868  14.476
45165W        W10645  36.493  10.228  10.001
45166W        W10646   9.859  43.996   3.755
45167W        W10647  21.695   9.841  13.904
45168W        W10648  30.024  22.240  13.901
45169W        W10649   7.343  18.065  10.452
45170W        W10650  19.662   2.290   4.650
45171W        W10651  32.105   6.357  13.813
45172W        W10652  44.401   6.920  13.322
45173W        W10653  12.703  18.072   3.812
45174W        W10654  30.151  37.346   5.114
45175W        W10655  33.096  12.245  13.521
45176W        W10656  15.697  25.480  11.103
45177W        W10657  11.289  32.047   4.744
45178W        W10658  22.585   6.397  14.336
45179W        W10659  21.519   4.779  11.932
45180W        W10660   6.259  16.096   4.117
45181W        W10661  14.777  14.212   3.859
45182W        W10662  11.828   4.837   9.923
45183W        W10663  34.093  30.627  13.464
45184W        W10664  16.173   5.902  14.761
45185W        W10665   7.226  15.702   4.770
45186W        W10666  32.486   7.285   2.332
45187W        W10667  12.744   1.878  10.420
45188W        W10668  31.637  24.566   1.769
45189W        W10669   1.813  11.264  10.432
45190W        W10670  17.196   1.427  14.896
45191W        W10671  42.320  44.363  14.299
45192W        W10672  16.317  39.398   1.870
45193W        W10673  38.542  20.156   4.773
45194W        W10674  32.976  21.588   2.774
45195W        W10675   3.282  34.512  14.355
45196W        W10676  24.645  17.244  11.065
45197W        W10677  22.126  11.753  14.418
45198W        W10678   0.258  30.548  11.399
45199W        W10679  10.148   6.761   3.185
45200W        W10680  25.527  42.286  12.060
45201W        W10681   9.783  24.188   4.608
45202W        W10682  30.557  28.535  10.432
45203W        W10683   5.419  12.352   3.316
45204W        W10684  44.357  26.583  11.038
45205W        W10685  36.580  36.944   4.801
45206W        W10686  22.201  17.677   4.322
45207W        W10687  14.226  34.909  10.927
45208W        W10688  22.071  41.788   3.353
45209W        W10689   1.941  26.012   1.286
45210W        W10690   4.448   5.709  12.067
45211W        W10691   1.825   8.321  12.984
45212W        W10692  24.601  22.198  14.782
45213W        W10693  18.614   4.231   1.230
45214W        W10694  35.462  16.154  13.953
45215W        W10695  35.902  10.732   3.166
45216W        W10696  23.647   9.778  13.504
45217W        W10697  30.952  15.588   4.607
45218W        W10698  34.554  23.198  14.917
45219W        W10699  15.253  28.476   3.827
45220W        W10700  29.068   8.747  12.487
45221W        W10701  30.107   5.424   4.338
45222W        W10702   2.954  44.946  12.548
45223W        W10703  40.523  34.513  11.021
45224W        W10704   1.949  36.508  14.822
45225W        W10705  43.475  24.516   4.115
45226W        W10706  22.196   1.466   3.217
45227W        W10707   0.386  22.196  10.476
45228W        W10708  36.390  12.150  11.407
45229W        W10709  40.328  15.579  13.547
45230W        W10710   2.233  30.921   2.234
45231W        W10711  13.679  10.697  12.873
45232W        W10712   3.331  15.606   4.309
45233W        W10713  28.957  35.378   1.790
45234W        W10714  42.939  25.539   1.897
45235W        W10715  29.104  26.134  12.556
45236W        W10716  26.570  18.654  12.473
45237W        W10717  33.462   0.890  14.867
45238W        W10718   6.837  27.111   3.862
45239W        W10719  29.476  35.476   4.704
45240W        W10720  12.822   6.728  11.538
45241W        W10721  30.028  20.538   1.780
45242W        W10722  37.353  27.005  11.406
45243W        W10723   9.772   3.890  10.918
45244W        W10724  22.098  33.545   4.299
45245W        W10725  20.566  13.325  11.873
45246W        W10726  36.904  20.724  10.525
45247W        W10727  40.903  22.671   4.128
45248W        W10728  36.858  11.295  10.905
45249W        W10729  30.156  16.278  11.018
45250W        W10730  39.899  19.215   0.859
45251W        W10731  29.522  31.932   2.229
45252W        W10732  16.310  32.575   2.188
45253W        W10733   0.476   8.182  13.395
45254W        W10734   2.327  18.706  11.479
45255W        W10735   2.317  19.125  14.280
45256W        W10736  23.549  21.158   1.741
45257W        W10737   9.253  26.100  13.344
45258W        W10738  40.327  23.074   4.834
45259W        W10739   9.166  28.515  11.482
45260W        W10740   5.930  13.622  13.895
45261W        W10741   8.657  18.183   4.697
45262W        W10742  32.921  29.488   2.356
45263W        W10743  34.910  36.087  14.949
45264W        W10744  25.506  26.528   1.220
45265W        W10745  24.020  10.289   1.791
45266W        W10746  34.559  18.159   0.462
45267W        W10747  14.680  43.307  13.360
45268W        W10748  31.006  18.718  12.032
45269W        W10749  34.010   4.898  10.582
45270W        W10750   9.766   0.752   4.636
45271W        W10751   5.205   7.356  14.015
45272W        W10752   5.403   0.952   0.940
45273W        W10753  38.531  12.768  13.452
45274W        W10754  18.284  30.056   0.814
45275W        W10755   9.689  39.492   0.481
45276W        W10756   9.328  40.480   2.222
45277W        W10757  38.499   8.228  13.416
45278W        W10758  42.293  44.370   2.220
45279W        W10759  37.868  18.230  13.338
45280W        W10760  11.272  36.072   3.329
45281W        W10761  38.329  13.711   3.749
45282W        W10762  29.487  40.475   3.333
45283W        W10763  44.916  18.688   0.304
45284W        W10764  24.197   4.887  14.823
45285W        W10765  29.509  12.611  12.834
45286W        W10766  28.129   3.906   0.445
45287W        W10767  27.471  10.170  12.546
45288W        W10768  41.875  20.070   5.272
45289W        W10769   5.257   5.794  13.462
45290W        W10770  37.431  16.611  11.128
45291W        W10771   3.400   1.775  14.953
45292W        W10772   4.264  13.619   1.450
45293W        W10773  37.062  18.266   4.600
45294W        W10774  39.882   2.358   4.121
45295W        W10775  44.827  24.557   2.890
45296W        W10776  26.671  37.960   3.374
45297W        W10777  10.812   7.783   1.308
45298W        W10778  16.677  35.953  13.389
45299W        W10779  43.964  18.290  11.000
45300W        W10780  38.507  10.346   0.794
45301W        W10781  13.180  22.032   4.124
45302W        W10782  22.206   5.750   4.645
45303W        W10783  33.625   9.788   1.790
45304W        W10784  17.267  19.780  11.117
45305W        W10785  30.552  42.281  10.418
45306W        W10786  19.090  19.239   2.874
45307W        W10787  13.165  36.422  12.409
45308W        W10788   8.655  21.165  11.907
45309W        W10789  44.996   2.839  11.004
45310W        W10790  23.611  42.401   1.901
45311W        W10791  21.511  13.232   2.833
45312W        W10792   8.402   9.763   1.356
45313W        W10793  44.845  19.054  12.004
45314W        W10794  30.623  10.145  12.475
45315W        W10795  26.563  32.124   1.715
45316W        W10796  30.143  28.125   0.746
45317W        W10797  10.207  29.083  14.993
45318W        W10798  15.741  23.083  13.438
45319W        W10799  25.634  38.491  12.957
45320W        W10800  31.539  23.222   0.249
45321W        W10801  27.109  20.647   2.716
45322W        W10802  31.147  37.021   2.835
45323W        W10803  18.697  26.972  10.489
45324W        W10804   0.431  10.711  13.011
45325W        W10805  15.119  31.634  14.979
45326W        W10806  23.526   7.323   2.189
45327W        W10807  32.137  27.136  14.324
45328W        W10808  14.602   1.309   1.287
45329W        W10809  27.506  31.579  12.903
45330W        W10810  37.489  23.726  12.905
45331W        W10811  44.897  20.094   1.929
45332W        W10812  35.971  11.796  12.462
45333W        W10813   0.845  34.600   0.769
45334W        W10814  12.856  41.299  12.060
45335W        W10815  43.847  38.058   4.819
45336W        W10816  17.229   6.869  10.486
45337W        W10817  23.037  12.707   3.759
45338W        W10818   8.258  12.316   3.724
45339W        W10819  43.008   3.338   0.360
45340W        W10820  29.539  27.180   2.325
45341W        W10821  16.638   0.822  13.403
45342W        W10822  10.641  28.676  12.501
45343W        W10823  10.201  13.725  10.949
45344W        W10824   3.730  40.472   0.758
45345W        W10825   2.866  38.551  14.307
45346W        W10826   1.964   0.275   4.624
45347W        W10827  26.186  29.600  11.857
45348W        W10828  11.745  11.700   2.674
45349W        W10829  37.887  12.676   2.281
45350W        W10830  15.174  14.129   1.237
45351W        W10831   3.384  28.044  14.484
45352W        W10832  32.095  34.039   4.347
45353W        W10833  18.679   5.911  10.502
45354W        W10834  17.135  27.531  12.879
45355W        W10835  34.483   4.450  11.035
45356W        W10836  26.614  27.603  10.626
45357W        W10837   2.354  16.144  14.913
45358W        W10838  12.127  43.794  10.983
45359W        W10839  22.999  11.706   2.323
45360W        W10840  37.988  18.056  10.993
45361W        W10841  32.138  43.907   4.169
45362W        W10842  28.449  36.843  14.363
45363W        W10843  38.517  29.477  12.529
45364W        W10844  41.873   9.264  13.507
45365W        W10845  21.164  25.528  10.620
45366W        W10846  34.069   4.421   1.265
45367W        W10847  15.734  32.072   0.749
45368W        W10848  43.491  19.040   0.929
45369W        W10849  19.542  14.151   2.704
45370W        W10850  13.162   7.411   1.440
45371W        W10851   6.416   2.815  11.973
45372W        W10852   4.861   6.824  14.437
45373W        W10853  32.568  39.498   1.764
45374W        W10854  32.132  23.642   3.762
45375W        W10855   2.795  33.512  13.055
45376W        W10856  44.471  37.380   5.232
45377W        W10857  44.804  38.950  13.349
45378W        W10858  15.669  15.261  13.340
45379W        W10859  34.875  26.205  12.940
45380W        W10860  23.592   2.863  10.602
45381W        W10861  22.531  20.666  10.890
45382W        W10862  42.292  13.605   3.808
45383W        W10863   3.338  24.585   0.357
45384W        W10864  25.495  14.259   1.882
45385W        W10865  27.481  35.363  14.449
45386W        W10866  24.482  15.710  13.541
45387W        W10867   1.808  42.972   2.856
45388W        W10868  36.461   2.855   4.752
45389W        W10869  39.542  39.503   0.910
45390W        W10870  32.993  36.473  14.005
45391W        W10871  41.509   2.751  14.895
45392W        W10872  42.486  29.990  11.937
45393W        W10873   0.781  31.528   3.714
45394W        W10874  21.083   4.247   2.394
45395W        W10875  20.098  41.335   0.465
45396W        W10876  17.110   4.899   3.675
45397W        W10877   8.850  31.920   0.909
45398W        W10878  42.377  24.176  14.822
45399W        W10879  41.387   2.259   1.722
45400W        W10880  38.482  10.221   4.260
45401W        W10881  35.471   4.853  13.994
45402W        W10882  10.227  40.911  13.338
45403W        W10883   7.912  24.081   2.712
45404W        W10884  33.975   0.281  11.547
45405W        W10885  26.607  27.138   3.311
45406W        W10886  22.108  18.196  11.980
45407W        W10887  32.465  24.123   3.316
45408W        W10888  39.842  31.971  11.507
45409W        W10889  37.370  17.724   1.222
45410W        W10890   9.152   0.742  11.033
45411W        W10891  32.542  26.470   3.191
45412W        W10892   2.308  21.023   4.670
45413W        W10893  40.528  16.105  14.447
45414W        W10894  39.478  13.711   1.383
45415W        W10895   7.226  12.243   4.183
45416W        W10896  29.993  31.643   2.296
45417W        W10897  15.300  24.096  10.533
45418W        W10898   1.244  31.504  14.432
45419W        W10899  25.206  22.229  13.320
45420W        W10900  32.133  15.301   3.242
45421W        W10901  32.068  18.240  10.474
45422W        W10902  19.121   6.824  14.791
45423W        W10903  31.137  43.915   4.300
45424W        W10904  43.375  19.589  10.448
45425W        W10905  22.567  23.682   3.766
45426W        W10906  40.409   6.820  11.008
45427W        W10907   0.312  17.573  14.509
45428W        W10908   7.673   5.782   4.163
45429W        W10909  25.038  10.380  13.028
45430W        W10910  31.563  27.511  14.877
45431W        W10911  19.754  20.750   0.303
45432W        W10912  28.601  29.597  13.860
45433W        W10913  34.967  33.494  13.029
45434W        W10914  16.134  30.987  14.763
45435W        W10915  37.005   7.182  12.024
45436W        W10916  22.602   6.805  10.466
45437W        W10917  32.410  39.525   1.420
45438W        W10918  34.480  42.005  11.403
45439W        W10919  40.964  32.022  10.414
45440W        W10920  32.941  28.982  12.503
45441W        W10921  32.923   2.409  11.978
45442W        W10922  30.510  37.396   1.881
45443W        W10923   6.367   7.735  10.640
45444W        W10924  31.115  41.318   4.200
45445W        W10925  15.718   4.365  13.480
45446W        W10926   0.474  32.948   4.295
45447W        W10927  35.389   3.287   4.712
45448W        W10928  23.228  25.126   3.850
45449W        W10929   4.244  14.109  11.873
45450W        W10930  12.335  21.599   3.639
45451W        W10931  41.379   3.267  11.030
45452W        W10932  33.014   2.456  12.987
45453W        W10933  39.938  24.208   3.670
45454W        W10934  21.533   9.263  12.428
45455W        W10935  42.815  28.643   4.144
45456W        W10936  30.982  39.943  13.319
45457W        W10937  35.978   2.892  13.791
45458W        W10938  34.461   4.267   1.729
45459W        W10939  42.953   2.318  13.037
45460W        W10940  26.663  43.014   0.914
45461W        W10941  15.091  20.682   3.742
45462W        W10942  19.638  29.482  12.417
45463W        W10943  22.234  14.133  12.507
45464W        W10944  37.409  13.266  13.019
45465W        W10945   6.338  27.007   4.282
45466W        W10946  36.574  38.342  11.448
45467W        W10947  35.007   6.870   3.213
45468W        W10948   4.325  27.172   1.222
45469W        W10949  41.410  41.419  11.586
45470W        W10950  13.280  34.984   2.716
45471W        W10951  12.131  37.399   2.723
45472W        W10952  32.899  17.665   2.855
45473W        W10953  38.338  21.669  11.518
45474W        W10954  20.041  34.519   1.729
45475W        W10955  28.012  40.542   1.288
45476W        W10956  23.623  40.312   1.451
45477W        W10957   7.787  42.453  13.816
45478W        W10958   3.250  16.211  14.945
45479W        W10959  24.100  25.107   4.695
45480W        W10960  16.801   5.220  11.372
45481W        W10961  33.048  42.806   0.263
45482W        W10962  42.785  30.143  14.323
45483W        W10963  43.406  43.793  11.438
45484W        W10964   7.834  37.435   2.692
45485W        W10965  43.512  10.750  14.960
45486W        W10966  11.828  37.066   4.246
45487W        W10967  16.272  31.976  13.874
45488W        W10968  21.736   8.803   2.226
45489W        W10969  32.910  18.579  13.926
45490W        W10970  35.972  19.591  12.982
45491W        W10971  32.621  29.641  13.824
45492W        W10972  31.481  30.116   2.756
45493W        W10973  16.642  13.218   9.625
45494W        W10974  42.850  35.403  13.840
45495W        W10975   6.836  15.661  10.989
45496W        W10976   8.350   0.381  13.404
45497W        W10977   7.826  37.391  12.439
45498W        W10978  25.188  41.302  10.987
45499W        W10979  22.070  37.009  14.425
45500W        W10980  10.376  36.501  14.907
45501W        W10981  44.928  43.472  13.007
45502W        W10982  20.236  36.024   2.792
45503W        W10983  33.065   8.682  10.482
45504W        W10984  27.454  39.383   3.706
45505W        W10985  43.420  25.082   1.382
45506W        W10986  29.174  29.568  10.549
45507W        W10987  26.528   1.868   4.313
45508W        W10988  28.070  12.815  13.863
45509W        W10989  24.655  42.517  11.083
45510W        W10990   6.416  12.331   0.387
45511W        W10991  39.886  40.353   0.317
45512W        W10992  30.480  19.705   0.327
45513W        W10993  17.614   7.821  10.888
45514W        W10994  38.363   3.316  10.936
45515W        W10995  19.721  26.514  11.470
45516W        W10996  23.664  37.965   2.720
45517W        W10997   8.694  44.918   1.705
45518W        W10998  23.018  21.514  12.931
45519W        W10999  17.663  25.572  14.885
45520W        W11000   6.408   7.413  12.901
45521W        W11001  18.074   2.883   1.415
45522W        W11002  39.958  29.523  13.031
45523W        W11003  36.511  14.254  10.456
45524W        W11004  21.044   2.443   2.902
45525W        W11005  17.102  42.914  14.440
45526W        W11006  20.243  39.550   3.235
45527W        W11007  16.696  28.677  12.380
45528W        W11008  39.866  42.024   1.787
45529W        W11009  37.853  33.407  12.362
45530W        W11010  26.987  23.148   2.361
45531W        W11011  20.736  24.086  11.371
45532W        W11012  43.366  14.610   1.699
45533W        W11013  34.119   9.168  12.535
45534W        W11014  11.133  37.868   0.437
45535W        W11015  14.619  28.605   2.758
45536W        W11016   8.259  34.076   4.708
45537W        W11017  28.973  40.902   4.169
45538W        W11018  19.183  14.103  11.456
45539W        W11019  20.585  10.331  13.052
45540W        W11020   9.346  35.076   2.307
45541W        W11021  38.418  35.430   3.831
45542W        W11022  14.224  30.144   4.160
45543W        W11023  23.491  37.935  12.425
45544W        W11024  44.828   4.358  11.896
45545W        W11025  37.530  40.394   5.300
45546W        W11026  26.014  43.925   3.794
45547W        W11027  21.525  34.541   1.729
45548W        W11028  37.432  11.256   3.826
45549W        W11029  34.539  35.569  12.863
45550W        W11030   7.239  33.118   2.733
45551W        W11031  32.126  40.809   0.313
45552W        W11032  37.425  31.572  10.598
45553W        W11033  22.618  24.063   0.320
45554W        W11034  34.421  22.010   1.804
45555W        W11035   3.876  14.773  13.523
45556W        W11036  20.620  18.764   3.643
45557W        W11037  43.281  29.474  12.531
45558W        W11038  32.031  34.472   0.789
45559W        W11039  37.384  10.160  13.026
45560W        W11040  25.154  34.006  13.349
45561W        W11041  18.197  43.934  12.440
45562W        W11042  27.446  42.438  13.812
45563W        W11043  34.535  25.148  11.087
45564W        W11044  39.027  27.594   2.406
45565W        W11045  42.807  34.114   0.387
45566W        W11046  40.373  13.321   1.906
45567W        W11047  19.578   0.771   3.790
45568W        W11048  22.673  29.664   3.193
45569W        W11049  19.607  38.456   4.821
45570W        W11050  18.737  40.997   0.249
45571W        W11051  28.086  25.975   3.271
45572W        W11052  40.864  23.180  14.023
45573W        W11053  33.059  36.445   0.263
45574W        W11054  36.931   9.730  14.920
45575W        W11055  10.242   8.204   1.809
45576W        W11056  35.555   5.879  14.848
45577W        W11057  17.651   6.824  14.799
45578W        W11058   8.679  16.147  13.375
45579W        W11059  31.517  33.121   0.430
45580W        W11060   3.222   1.319   2.293
45581W        W11061  15.741  41.492  14.849
45582W        W11062  10.686  14.219  10.992
45583W        W11063  30.031  25.964  13.991
45584W        W11064  13.231  35.483  11.588
45585W        W11065  10.222  14.774   9.982
45586W        W11066   9.720  14.160   3.752
45587W        W11067  12.810   3.383   2.288
45588W        W11068  25.045  44.272   0.384
45589W        W11069  31.122  22.036  11.891
45590W        W11070  39.518   8.289  14.825
45591W        W11071  26.016  24.561   1.424
45592W        W11072  26.502  39.883   0.352
45593W        W11073  41.534  36.520   2.243
45594W        W11074   7.746  28.011  14.401
45595W        W11075   6.729  35.045  11.109
45596W        W11076  26.116   6.734   1.779
45597W        W11077  33.541  22.246  12.499
45598W        W11078  12.703  10.770   0.243
45599W        W11079  25.173  25.151   2.780
45600W        W11080  26.115  40.387   3.651
45601W        W11081  15.282  42.457  12.018
45602W        W11082  17.172  17.194   4.659
45603W        W11083  14.289  29.487   0.912
45604W        W11084  32.535  11.792   3.146
45605W        W11085  19.182  10.200   0.888
45606W        W11086  16.811  44.385  11.422
45607W        W11087  18.718  21.675  10.618
45608W        W11088  30.075  41.368   2.204
45609W        W11089  20.244  37.564  12.873
45610W        W11090  27.099  28.473  11.998
45611W        W11091   9.848  20.732  11.869
45612W        W11092  38.401  33.446   0.853
45613W        W11093  34.400   4.793   4.125
45614W        W11094  30.462  36.410  13.017
45615W        W11095  18.579  26.568  13.503
45616W        W11096   0.894  18.695  10.545
45617W        W11097  13.315  25.168  14.356
45618W        W11098  21.635  37.336  12.978
45619W        W11099  28.064  16.659   3.209
45620W        W11100  43.290  37.421  14.343
45621W        W11101  42.812  40.327  14.767
45622W        W11102  33.385  32.517   4.117
45623W        W11103   5.204   5.871  13.928
45624W        W11104  14.800   5.892   1.402
45625W        W11105   0.922   8.678  14.779
45626W        W11106  14.261  37.982   0.958
45627W        W11107  14.740  18.099  14.964
45628W        W11108  36.097   2.843   3.815
45629W        W11109   6.232   4.387  12.848
45630W        W11110  22.088   6.855  14.800
45631W        W11111  22.616  37.835   0.425
45632W        W11112  15.269  18.638  14.329
45633W        W11113   2.836  42.491  14.000
45634W        W11114  18.250  12.213   0.357
45635W        W11115  14.140  18.749  14.835
45636W        W11116  19.600  12.751  12.401
45637W        W11117   0.899   4.212  12.545
45638W        W11118  33.911  24.202   3.824
45639W        W11119   9.732   9.725   4.209
45640W        W11120  41.842  43.387  11.018
45641W        W11121  16.763   1.887   0.833
45642W        W11122  16.230  24.673  10.437
45643W        W11123  35.918  17.173   0.745
45644W        W11124  32.596   0.448   1.344
45645W        W11125  22.097   6.226  13.052
45646W        W11126  30.098  44.439   2.219
45647W        W11127   4.738  39.955  10.998
45648W        W11128  29.490  19.704   0.836
45649W        W11129  31.625   2.886  14.927
45650W        W11130  22.087  16.569   3.831
45651W        W11131  12.218  29.158  12.850
45652W        W11132  38.368  39.899  13.862
45653W        W11133  13.348  40.926   0.775
45654W        W11134  23.711   9.792  11.553
45655W        W11135  38.996  41.333   0.815
45656W        W11136   1.330  40.482  14.783
45657W        W11137  10.382  30.515  13.485
45658W        W11138  25.581  14.769   2.895
45659W        W11139  28.004   9.206   0.817
45660W        W11140   5.366  42.525   1.864
45661W        W11141  24.548  34.972   4.251
45662W        W11142   2.869  12.796  13.851
45663W        W11143  19.620  35.412  13.989
45664W        W11144   8.295  36.026  12.449
45665W        W11145  33.601   8.891   4.185
45666W        W11146  22.064   2.845  13.881
45667W        W11147   6.372  26.612   3.697
45668W        W11148   2.919   5.363  10.446
45669W        W11149   9.384  32.609   0.274
45670W        W11150  21.081  41.918   1.221
45671W        W11151  43.293  39.445   1.263
45672W        W11152  33.975   3.371   3.739
45673W        W11153  32.521  22.635  10.938
45674W        W11154  41.820  26.074   0.396
45675W        W11155  44.329   3.368  11.086
45676W        W11156   1.803  21.183  11.990
45677W        W11157  36.845   5.430  14.476
45678W        W11158  35.572  32.931  12.569
45679W        W11159   5.758  38.529  12.398
45680W        W11160  24.548   5.850  13.976
45681W        W11161  20.722  18.292  13.352
45682W        W11162  12.833  13.126   4.178
45683W        W11163   8.267  37.885   1.825
45684W        W11164  19.699  28.996   4.208
45685W        W11165  15.691   3.242  13.810
45686W        W11166  17.774   6.261  11.019
45687W        W11167  31.043  11.357   1.771
45688W        W11168  25.530  15.687   3.704
45689W        W11169  26.628   0.755   1.767
45690W        W11170   8.848  26.070   1.281
45691W        W11171  23.081  14.602   4.255
45692W        W11172  30.434   7.778   4.617
45693W        W11173  20.537  20.134   0.465
45694W        W11174   7.404  34.463  13.411
45695W        W11175  29.969  32.109   3.170
45696W        W11176   8.182   8.679   4.134
45697W        W11177  23.632   2.966  14.986
45698W        W11178  24.623  23.993   4.309
45699W        W11179  20.057  20.683   4.620
45700W        W11180   0.280  40.544   2.784
45701W        W11181  38.910  36.075   0.370
45702W        W11182   8.763  42.001  13.028
45703W        W11183   7.762  40.027   4.780
45704W        W11184  20.137   6.897  14.932
45705W        W11185   2.954  37.953   2.719
45706W        W11186  39.892  30.483   1.738
45707W        W11187  12.798   6.222   1.340
45708W        W11188  11.859  21.081   0.852
45709W        W11189  26.127  14.641  10.426
45710W        W11190  17.587  27.546  14.317
45711W        W11191   8.240   2.813  13.973
45712W        W11192  28.668  29.140   3.844
45713W        W11193  15.109  33.503   0.384
45714W        W11194  21.127   2.933   2.179
45715W        W11195  37.354  19.756   2.361
45716W        W11196  12.190  29.625   2.881
45717W        W11197  13.634  44.439  12.946
45718W        W11198  17.161  34.547  13.390
45719W        W11199  14.250  44.504  13.939
45720W        W11200  20.133  10.779   2.797
45721W        W11201  33.417  14.695   0.839
45722W        W11202   6.401  11.160   3.207
45723W        W11203  43.808  18.209  12.523
45724W        W11204  34.461  43.874   4.807
45725W        W11205  15.090  24.707   0.889
45726W        W11206  13.114  28.537  13.037
45727W        W11207   1.340  20.177   4.772
45728W        W11208   0.348  15.166  13.521
45729W        W11209  21.641   1.331  12.054
45730W        W11210  20.614   8.746   9.510
45731W        W11211  22.074  41.353   1.359
45732W        W11212  25.112  35.378  11.392
45733W        W11213   0.883  19.578  12.491
45734W        W11214   5.391  27.497  12.831
45735W        W11215  20.260  19.769   5.162
45736W        W11216  32.421  37.390   1.887
45737W        W11217  36.967  17.172   4.795
45738W        W11218  38.956  36.469  13.951
45739W        W11219  32.911  16.204  11.888
45740W        W11220  13.817  38.823   0.423
45741W        W11221  19.605  18.601  14.937
45742W        W11222   1.345   0.259   0.467
45743W        W11223  31.587  36.882   3.184
45744W        W11224  20.608   2.385  10.124
45745W        W11225   0.451  36.573   1.244
45746W        W11226  19.548  35.109  14.822
45747W        W11227   0.412  26.024  10.463
45748W        W11228   9.371   4.306   2.403
45749W        W11229  12.750   1.471  12.969
45750W        W11230  33.451   2.246   4.261
45751W        W11231   6.279  19.612   1.901
45752W        W11232  11.711  39.371   2.296
45753W        W11233   6.356  17.119  12.519
45754W        W11234  10.203  29.957   0.831
45755W        W11235  33.905  13.200   0.434
45756W        W11236  38.551  42.351   1.782
45757W        W11237  30.931  34.550  13.880
45758W        W11238  15.665   5.301  10.946
45759W        W11239  18.641   0.881   1.810
45760W        W11240  17.731  29.955   3.814
45761W        W11241  36.487   8.262  11.401
45762W        W11242  17.558  10.212   1.710
45763W        W11243  17.711  38.935  12.986
45764W        W11244  18.049   8.783   2.740
45765W        W11245  16.126  33.491   0.479
45766W        W11246  30.089  18.697  10.570
45767W        W11247  22.017  24.609  11.552
45768W        W11248   7.339   8.750   0.910
45769W        W11249  36.401  11.208   1.824
45770W        W11250  18.142  12.692  14.376
45771W        W11251  14.110  30.910   3.644
45772W        W11252  30.984  13.757  11.018
45773W        W11253  20.666  20.710  11.600
45774W        W11254  35.897  11.667  14.310
45775W        W11255  10.306  32.548  13.830
45776W        W11256  19.060   1.483   4.214
45777W        W11257   5.352  12.218  11.023
45778W        W11258  34.023  38.505   4.235
45779W        W11259   6.226   7.390  12.428
45780W        W11260  34.589  33.391   4.628
45781W        W11261   5.406  31.424  11.087
45782W        W11262  30.640  38.522  13.440
45783W        W11263   6.280  39.328   3.814
45784W        W11264  22.241  23.058  14.863
45785W        W11265  28.150   1.928   3.784
45786W        W11266  44.322  28.583   1.920
45787W        W11267  40.834  10.857   3.650
45788W        W11268  44.456  16.285  13.829
45789W        W11269   8.192  40.807  14.874
45790W        W11270  20.581   0.470   4.613
45791W        W11271  12.135   7.826  13.322
45792W        W11272  23.242  22.223  11.900
45793W        W11273  37.405  14.610   1.355
45794W        W11274  39.444   4.401  10.624
45795W        W11275  33.567  27.608   4.342
45796W        W11276  35.077   0.749  13.804
45797W        W11277  12.694  44.871   3.857
45798W        W11278  20.178  11.775   3.299
45799W        W11279  21.054  21.155  14.414
45800W        W11280  12.807  28.634   3.845
45801W        W11281  40.429  29.582  10.958
45802W        W11282  30.959   2.815  12.052
45803W        W11283  29.487  22.104  14.392
45804W        W11284  13.176  30.488   0.273
45805W        W11285  29.491  25.202   1.736
45806W        W11286  19.569  22.097   3.240
45807W        W11287  42.880  17.247  11.000
45808W        W11288  27.126  28.608   1.717
45809W        W11289  27.122  31.405  11.931
45810W        W11290  22.716  44.284   3.655
45811W        W11291   4.402  10.231  12.983
45812W        W11292   5.907  34.589  11.415
45813W        W11293  37.581  24.140   4.124
45814W        W11294   7.371  38.996  12.552
45815W        W11295  22.679  25.039   3.771
45816W        W11296  18.281   3.284   0.409
45817W        W11297  16.602  33.552  10.071
45818W        W11298  21.722  23.570   4.613
45819W        W11299  21.538  24.121   0.467
45820W        W11300  23.112  44.902  11.064
45821W        W11301   5.218  26.669  11.585
45822W        W11302  28.679  21.727  13.349
45823W        W11303  36.886  37.445   3.758
45824W        W11304  25.032  32.480   0.360
45825W        W11305  36.849   8.821   3.205
45826W        W11306   9.318  24.181  10.415
45827W        W11307   3.862   1.845  11.607
45828W        W11308  43.279  29.990   1.404
45829W        W11309  28.183   0.434  13.886
45830W        W11310  34.519  44.405  13.313
45831W        W11311   5.228   5.355  12.530
45832W        W11312  26.557  33.034   0.825
45833W        W11313   4.724  25.689  14.813
45834W        W11314   2.902  37.013  13.420
45835W        W11315  31.136  20.697  11.999
45836W        W11316   1.751  32.504   1.786
45837W        W11317   0.319   3.882   0.862
45838W        W11318   4.344  17.802  14.919
45839W        W11319   7.286  19.233   0.914
45840W        W11320  19.139  14.791   1.239
45841W        W11321  35.081  42.370   4.270
45842W        W11322  23.492  22.661  10.465
45843W        W11323  17.719  40.852   3.755
45844W        W11324  14.734  27.512   1.754
45845W        W11325  31.054  18.233  12.446
45846W        W11326  31.908  44.821   0.743
45847W        W11327  14.610  41.500   1.909
45848W        W11328  12.783   4.248   2.316
45849W        W11329  41.424  30.560  11.117
45850W        W11330  26.601   8.711  13.315
45851W        W11331   7.679  28.027   0.827
45852W        W11332  21.198  11.666  12.507
45853W        W11333  41.005  24.653   1.377
45854W        W11334  25.999  24.074  13.454
45855W        W11335  31.606  11.685  14.885
45856W        W11336   6.284  16.294  12.553
45857W        W11337  28.002  16.127   3.335
45858W        W11338  17.651  41.328  12.470
45859W        W11339  41.442  12.819  12.430
45860W        W11340   7.833  27.011   1.395
45861W        W11341  37.080  44.869   2.216
45862W        W11342  44.799   9.299  11.939
45863W        W11343   5.783   4.215   4.747
45864W        W11344  43.367   2.948  14.770
45865W        W11345  14.823   9.327  11.468
45866W        W11346  43.851  28.969   0.967
45867W        W11347   3.344  29.490   4.249
45868W        W11348   6.849   0.473   2.706
45869W        W11349  31.518  33.490  11.457
45870W        W11350  30.541  42.443   0.287
45871W        W11351   7.239  36.885   2.315
45872W        W11352  22.582  16.254   4.688
45873W        W11353  20.122  44.313   2.391
45874W        W11354  36.941  29.160  10.540
45875W        W11355  14.319  31.129  10.897
45876W        W11356  32.457  30.488  10.584
45877W        W11357  36.069   3.801  13.525
45878W        W11358  15.682  20.760   4.162
45879W        W11359  14.776  25.985   2.322
45880W        W11360  41.802  19.699  11.482
45881W        W11361  16.088   1.426   4.834
45882W        W11362  44.874  25.556  10.626
45883W        W11363  15.779  17.679   2.199
45884W        W11364  41.789  36.391   4.811
45885W        W11365   9.857  40.903  13.462
45886W        W11366  22.646  40.540  13.888
45887W        W11367  32.960  26.200   3.838
45888W        W11368  30.603   0.281   2.215
45889W        W11369  33.971  30.975   2.804
45890W        W11370  30.060  16.156   0.439
45891W        W11371  39.369  40.523   2.374
45892W        W11372  16.584   0.445  13.350
45893W        W11373  36.581  27.162  11.407
45894W        W11374   2.414  30.030  10.630
45895W        W11375  29.006   7.365   0.442
45896W        W11376  12.756  16.216   3.784
45897W        W11377  41.948   1.864  12.358
45898W        W11378  35.035  17.123   1.904
45899W        W11379   3.841  24.655  13.524
45900W        W11380  13.628  13.606  12.925
45901W        W11381  40.829  21.543  11.520
45902W        W11382  39.403   2.824   2.380
45903W        W11383   4.369  39.334   0.443
45904W        W11384  27.528  38.985   0.338
45905W        W11385  11.130  35.591  13.439
45906W        W11386   0.781  31.421   0.263
45907W        W11387  21.261  12.696  14.810
45908W        W11388  35.439  21.034  12.935
45909W        W11389  32.446  27.996   2.221
45910W        W11390  23.090  12.122   2.232
45911W        W11391   6.275  24.028  13.434
45912W        W11392  11.758  41.909  14.302
45913W        W11393  26.665  27.089   2.226
45914W        W11394  40.913  21.051  10.580
45915W        W11395   0.951  41.002   4.354
45916W        W11396   8.882   7.832   3.242
45917W        W11397  35.087  18.155   4.737
45918W        W11398  31.019   5.878   0.796
45919W        W11399  43.021  18.707   2.839
45920W        W11400  35.438  14.612   2.257
45921W        W11401  20.122  32.405  11.934
45922W        W11402  42.015  35.434   1.737
45923W        W11403  16.673   3.889  12.085
45924W        W11404  36.059  27.473  14.437
45925W        W11405  43.362  33.086   2.779
45926W        W11406   7.408  18.094  13.351
45927W        W11407  26.695   4.746  13.453
45928W        W11408  23.503  22.998   0.916
45929W        W11409  16.138  25.974  12.854
45930W        W11410  36.412  38.524   2.211
45931W        W11411  29.463  34.963   1.363
45932W        W11412   8.400   7.249  13.324
45933W        W11413  42.420  37.382  10.501
45934W        W11414  22.211  18.593  13.361
45935W        W11415  21.626   6.710   4.336
45936W        W11416  11.366  15.101   2.282
45937W        W11417   5.296  27.001   0.743
45938W        W11418  31.131  30.469  12.959
45939W        W11419   7.895  12.677   4.608
45940W        W11420   3.883  32.459  14.785
45941W        W11421   7.716  39.376   3.217
45942W        W11422   5.849  24.207  10.522
45943W        W11423   6.310  43.398   3.325
45944W        W11424  16.286   9.336   0.321
45945W        W11425  23.593  22.673  11.508
45946W        W11426  23.579  30.459  11.944
45947W        W11427  21.185  22.071  11.944
45948W        W11428  29.567   6.691   2.229
45949W        W11429  21.553  39.962   2.845
45950W        W11430   5.429   6.691  13.454
45951W        W11431  42.328  41.327  14.781
45952W        W11432  35.978  16.181  10.462
45953W        W11433  21.557  33.444  13.036
45954W        W11434  10.805  35.077   1.391
45955W        W11435  26.535  29.499  10.945
45956W        W11436  30.134  24.600   2.211
45957W        W11437  20.204  14.197   4.343
45958W        W11438  18.660  25.690   4.655
45959W        W11439  17.617  23.570   9.929
45960W        W11440  40.016  30.577  11.445
45961W        W11441   2.944   9.319   2.256
45962W        W11442  10.319  37.490   3.632
45963W        W11443  25.174   6.842   4.127
45964W        W11444   0.756   3.900  13.809
45965W        W11445   3.878  32.901  13.823
45966W        W11446  37.569  13.239  10.969
45967W        W11447  10.746   6.756  10.986
45968W        W11448  32.588  37.994   0.445
45969W        W11449  24.643  10.739  13.791
45970W        W11450  10.740  12.121  13.868
45971W        W11451   6.806  15.176  13.993
45972W        W11452  23.638   8.815   5.573
45973W        W11453  10.202  44.270   1.295
45974W        W11454  23.121  25.702   3.725
45975W        W11455  23.129   4.441   0.391
45976W        W11456  31.940  17.614  11.536
45977W        W11457  12.170  17.189   2.415
45978W        W11458  42.368  37.862  13.009
45979W        W11459  24.700  25.565   4.286
45980W        W11460  28.152  28.039   1.411
45981W        W11461  10.312  37.988  12.522
45982W        W11462   1.429   3.342  14.010
45983W        W11463  14.781  38.415  12.456
45984W        W11464   3.877  17.174  12.911
45985W        W11465  16.269   0.388   4.132
45986W        W11466   3.258  33.082   2.219
45987W        W11467  26.159   8.212   1.826
45988W        W11468   9.237  35.391  10.890
45989W        W11469   1.825  18.760   2.306
45990W        W11470   4.434  13.296  13.814
45991W        W11471   0.802  19.736  11.374
45992W        W11472   3.385   1.832   4.126
45993W        W11473  11.153   7.286  11.989
45994W        W11474   8.711  35.554   1.350
45995W        W11475  38.512  23.154  10.415
45996W        W11476  27.672  37.418  13.919
45997W        W11477  15.709  31.029   1.715
45998W        W11478   0.942  26.202  10.542
45999W        W11479  43.852   0.415  10.532
46000W        W11480  17.194  24.091  13.538
46001W        W11481   0.321   7.209  10.562
46002W        W11482  29.933  13.778  14.848
46003W        W11483  40.920  14.736   0.334
46004W        W11484  28.060  14.171   4.700
46005W        W11485  19.724  40.511   2.845
46006W        W11486  16.170  30.628  11.412
46007W        W11487  13.330  42.483   3.215
46008W        W11488   8.163  25.093  12.532
46009W        W11489  42.889   4.277   0.442
46010W        W11490  26.189  22.707   2.224
46011W        W11491  43.919  24.722   0.875
46012W        W11492   6.197  39.991   0.928
46013W        W11493  34.396  22.508   4.782
46014W        W11494  38.050   5.273   1.392
46015W        W11495  18.578   8.677  14.302
46016W        W11496  16.160  21.215  12.985
46017W        W11497  10.803  44.359   3.191
46018W        W11498  35.555  28.516   3.151
46019W        W11499  19.268  33.000  12.461
46020W        W11500  11.680  17.750   2.182
46021W        W11501  44.483  39.368   2.848
46022W        W11502  42.295  11.288  13.792
46023W        W11503  30.518   8.266   0.926
46024W        W11504  31.522  21.717   4.294
46025W        W11505  24.977  14.778  14.370
46026W        W11506  44.265  31.534   1.392
46027W        W11507  34.101  20.572   0.380
46028W        W11508   2.910  32.520  14.877
46029W        W11509  21.038   6.351  14.782
46030W        W11510  37.831   7.842  10.995
46031W        W11511  30.615  19.586  13.384
46032W        W11512   3.374  21.656   2.352
46033W        W11513   2.929   8.831   0.449
46034W        W11514  19.655  32.497   2.749
46035W        W11515  41.016  42.298  14.028
46036W        W11516  25.025   2.234   0.794
46037W        W11517  34.442  27.481   0.270
46038W        W11518   4.242  31.576  13.511
46039W        W11519  16.607  19.664  14.987
46040W        W11520   4.888  40.874   0.331
46041W        W11521   0.263  39.980   3.743
46042W        W11522  19.263  20.094   0.263
46043W        W11523  40.491  19.699   0.339
46044W        W11524   9.868   8.353   2.395
46045W        W11525   3.926  39.436   4.114
46046W        W11526  29.104  16.632  10.907
46047W        W11527  34.074   7.317  11.922
46048W        W11528   3.933  26.578  10.993
46049W        W11529  16.211   3.312   1.374
46050W        W11530  14.118  27.073  10.893
46051W        W11531  17.101   8.260   2.408
46052W        W11532   1.902   6.344  11.609
46053W        W11533  30.116   7.718  14.326
46054W        W11534  44.446  17.790   1.857
46055W        W11535  41.347  30.475   1.286
46056W        W11536  40.548  34.594  10.561
46057W        W11537  33.562   5.379   3.768
46058W        W11538  24.523  34.461   3.757
46059W        W11539   3.290  16.299  11.440
46060W        W11540  27.989  38.883   4.316
46061W        W11541   0.933  36.863   2.269
46062W        W11542  27.983  44.306   3.781
46063W        W11543  44.931  16.585  12.453
46064W        W11544  38.514  23.155  11.492
46065W        W11545  33.079   2.911   4.257
46066W        W11546  31.118  30.627  14.355
46067W        W11547  39.847  17.573   0.835
46068W        W11548  11.858  18.605   0.304
46069W        W11549  34.370   6.221  11.414
46070W        W11550   5.207  28.652   4.344
46071W        W11551  42.780  30.139  10.929
46072W        W11552  24.045  11.841  10.413
46073W        W11553  30.930  35.378   2.752
46074W        W11554  31.633  26.593  13.422
46075W        W11555  19.551  14.727   1.765
46076W        W11556  24.155  34.513   1.855
46077W        W11557   6.345   3.221  14.815
46078W        W11558   6.393  24.683   0.259
46079W        W11559  30.634  19.138  14.377
46080W        W11560   9.644  14.771  12.065
46081W        W11561  42.948   1.763  12.829
46082W        W11562   3.797  19.645  13.367
46083W        W11563   6.741  31.512  12.501
46084W        W11564  24.636  37.416   2.201
46085W        W11565  23.172  37.937  11.992
46086W        W11566  37.940   0.418   0.346
46087W        W11567  24.994  40.335   2.842
46088W        W11568  36.004   9.806   0.913
46089W        W11569  28.145  44.908   3.315
46090W        W11570  23.007  43.432   2.786
46091W        W11571  41.846  32.074  12.846
46092W        W11572  30.563   0.481  11.474
46093W        W11573   6.388   6.825  12.847
46094W        W11574  38.548  18.740   9.961
46095W        W11575   8.393  18.545  12.367
46096W        W11576   7.876  10.214   2.207
46097W        W11577  13.819  21.725   1.447
46098W        W11578  14.182   8.821   2.190
46099W        W11579   8.888  16.647   4.290
46100W        W11580  30.016  40.404   3.772
46101W        W11581  21.610  12.782   1.308
46102W        W11582  10.827  39.948   3.308
46103W        W11583  38.897  39.883  13.793
46104W        W11584   2.259  22.160  14.946
46105W        W11585  19.055  21.056  13.910
46106W        W11586   5.391  21.121   0.930
46107W        W11587  11.661  37.836   0.842
46108W        W11588  35.412  39.872   1.355
46109W        W11589  19.093  26.148  11.857
46110W        W11590   5.739  27.488   2.745
46111W        W11591   3.391  17.187  14.468
46112W        W11592  30.932  26.695   4.608
46113W        W11593  42.443  31.021  11.878
46114W        W11594  39.915  29.064   3.160
46115W        W11595  17.230  31.009  11.077
46116W        W11596  27.102  34.511  12.902
46117W        W11597  19.213  12.658  13.502
46118W        W11598  25.493  28.587   0.734
46119W        W11599  37.379  12.841  10.481
46120W        W11600  15.183  40.392  13.909
46121W        W11601  29.004  27.088  11.413
46122W        W11602  38.569  27.968  12.399
46123W        W11603  34.116  32.504   0.287
46124W        W11604  43.351  12.780   3.762
46125W        W11605  39.398  24.510   3.266
46126W        W11606   2.286   0.985  13.852
46127W        W11607  35.426  33.450  13.791
46128W        W11608  27.034  40.521  12.913
46129W        W11609  26.507   7.306  10.033
46130W        W11610  11.217  23.582   2.783
46131W        W11611  44.956  40.899   3.715
46132W        W11612   5.772  25.629   2.780
46133W        W11613   4.793  28.086   5.313
46134W        W11614  38.962  12.174   2.381
46135W        W11615  17.293  28.946  11.536
46136W        W11616  14.302  44.843  12.562
46137W        W11617  15.607  37.969   1.235
46138W        W11618  16.776  26.154  11.891
46139W        W11619  39.838  38.955   1.214
46140W        W11620  44.334  23.500   1.287
46141W        W11621  26.077  30.002   2.382
46142W        W11622  32.978  39.459  10.424
46143W        W11623  20.148  23.217  12.343
46144W        W11624  44.000  22.213   2.264
46145W        W11625  34.559  32.633   3.287
46146W        W11626  24.546  39.509   2.845
46147W        W11627   2.952   9.777   3.353
46148W        W11628  38.434   7.284   4.698
46149W        W11629  11.127  40.309  10.513
46150W        W11630  25.197  32.396  10.468
46151W        W11631  17.630  18.744  12.877
46152W        W11632  27.126  21.661   0.295
46153W        W11633  23.146  33.514  14.022
46154W        W11634  44.279  43.847  13.947
46155W        W11635  15.716   7.338  10.048
46156W        W11636  18.128   9.675   3.843
46157W        W11637  27.447   9.689   1.451
46158W        W11638  11.362  43.433   4.218
46159W        W11639  14.335   5.237   2.198
46160W        W11640  15.768  12.125  13.874
46161W        W11641   3.397   6.266  13.489
46162W        W11642   3.432   3.302   0.326
46163W        W11643  19.618  25.538  11.933
46164W        W11644   8.685  27.006  11.425
46165W        W11645  43.009  11.762   2.721
46166W        W11646   8.730   7.378  12.918
46167W        W11647  37.954  44.421   2.304
46168W        W11648  26.047   8.222  12.072
46169W        W11649  21.191  19.555  12.867
46170W        W11650  13.178  20.076  13.854
46171W        W11651  18.254  16.608  14.341
46172W        W11652  40.990  21.681  13.384
46173W        W11653  29.635   7.890   4.127
46174W        W11654  29.955  37.555  10.476
46175W        W11655  24.481  22.551  10.904
46176W        W11656  28.164   3.338  10.626
46177W        W11657  11.228  22.159   3.835
46178W        W11658  23.022  22.197   2.856
46179W        W11659  28.533   8.394   4.646
46180W        W11660  24.078   5.355   1.414
46181W        W11661  10.205   3.769  12.063
46182W        W11662  20.574  11.364   4.127
46183W        W11663  41.495  14.646   0.766
46184W        W11664   1.350  11.712  14.344
46185W        W11665  34.404  20.742  13.428
46186W        W11666  29.645  14.241  12.411
46187W        W11667  38.386  32.115   2.241
46188W        W11668  21.106  41.952  11.573
46189W        W11669  11.817   8.740   3.161
46190W        W11670  24.096  33.952   3.643
46191W        W11671  25.084   4.249  10.937
46192W        W11672   4.241  26.519  10.963
46193W        W11673   3.954  20.212   3.772
46194W        W11674  34.105  42.507   3.297
46195W        W11675   4.781   8.249  14.501
46196W        W11676  20.684  22.558   1.908
46197W        W11677  44.772   6.277  13.420
46198W        W11678  18.552  20.761  14.498
46199W        W11679  43.386  43.935   1.285
46200W        W11680  14.828  11.311   4.749
46201W        W11681  10.293  39.520  13.809
46202W        W11682  26.978  22.519  12.076
46203W        W11683  10.330  19.768  13.439
46204W        W11684   0.858  28.104  14.363
46205W        W11685  43.766  13.335   3.746
46206W        W11686  32.024  31.128   1.801
46207W        W11687  19.608  41.347   1.858
46208W        W11688  25.667  39.880   0.924
46209W        W11689  42.855  19.701   1.759
46210W        W11690  32.603  27.007   0.287
46211W        W11691  23.621  18.114   4.303
46212W        W11692  29.444  29.158  10.080
46213W        W11693  15.278   2.778   1.820
46214W        W11694   1.779  17.212   4.795
46215W        W11695   3.335  40.484   0.392
46216W        W11696  14.666  13.322   3.299
46217W        W11697  34.050  24.578  14.335
46218W        W11698  14.205  37.943  10.615
46219W        W11699  12.146  32.542   1.395
46220W        W11700  42.523  15.743  11.058
46221W        W11701  14.206  36.945  11.102
46222W        W11702  42.883  15.152   3.320
46223W        W11703   2.725  36.375  12.572
46224W        W11704   2.781   6.392  13.026
46225W        W11705  40.405   0.870   1.718
46226W        W11706  21.034  43.335   3.247
46227W        W11707  17.241  31.933  11.104
46228W        W11708   6.743  26.158  14.440
46229W        W11709  10.879  21.092   4.758
46230W        W11710  41.900   1.392   4.676
46231W        W11711  41.362  27.995  14.482
46232W        W11712  42.521  23.681  12.455
46233W        W11713  40.340  13.717  13.423
46234W        W11714  22.203  27.039  12.378
46235W        W11715   1.883  37.432   0.476
46236W        W11716  42.306   7.733   0.767
46237W        W11717  39.882  44.932  11.507
46238W        W11718  23.585  11.647   0.317
46239W        W11719   2.867  23.562   0.782
46240W        W11720  31.622  20.543   1.855
46241W        W11721  37.349   7.689   1.376
46242W        W11722  25.666  11.184  14.927
46243W        W11723   0.943   2.262   0.856
46244W        W11724  13.844  16.579   2.235
46245W        W11725  34.584  11.315   1.898
46246W        W11726  39.379  30.467  12.825
46247W        W11727  18.565  37.056   3.315
46248W        W11728  10.703  26.456   4.815
46249W        W11729   2.291   2.945   0.956
46250W        W11730  10.838  34.076   0.789
46251W        W11731  18.578  26.156   1.307
46252W        W11732  35.879  31.600   0.816
46253W        W11733   1.461  12.788  14.324
46254W        W11734  34.941  28.961  14.952
46255W        W11735  29.023  40.336   3.160
46256W        W11736  22.035  23.204  14.025
46257W        W11737   1.315  28.091   0.264
46258W        W11738   0.382  42.968   9.951
46259W        W11739  37.389  25.561  12.966
46260W        W11740  12.197  17.104  12.911
46261W        W11741  26.061  40.899  13.824
46262W        W11742  35.896   6.678   3.228
46263W        W11743  27.552  26.960  11.531
46264W        W11744  21.037  11.715   4.301
46265W        W11745  22.131  32.035   2.359
46266W        W11746  32.041  18.549   0.254
46267W        W11747  36.932   6.800   2.196
46268W        W11748  27.671  32.970  10.449
46269W        W11749  11.748   5.796   3.768
46270W        W11750   3.453  36.870   2.842
46271W        W11751   7.714  11.170   0.892
46272W        W11752  18.555   3.230   3.174
46273W        W11753  32.613  29.979  13.040
46274W        W11754   5.254  20.205   2.314
46275W        W11755  34.115  44.409  14.480
46276W        W11756  22.738   8.270  11.952
46277W        W11757  14.765  31.946   0.300
46278W        W11758  23.996  37.484   5.103
46279W        W11759  23.520  17.148  14.932
46280W        W11760  43.448  29.955   2.867
46281W        W11761  40.415  10.645  13.008
46282W        W11762  44.395   5.770  10.123
46283W        W11763  42.777  40.006  12.958
46284W        W11764  14.783  10.857   4.167
46285W        W11765   2.370  11.689  11.595
46286W        W11766  21.118  42.877  10.510
46287W        W11767  11.741  26.648   0.319
46288W        W11768  36.863  43.343  10.532
46289W        W11769  33.981  33.385  11.985
46290W        W11770  28.568  28.676  13.031
46291W        W11771  22.130   4.858  12.828
46292W        W11772   0.350  21.522   4.822
46293W        W11773  29.046   6.787  11.503
46294W        W11774  13.706  44.259  13.958
46295W        W11775  42.505  16.213   2.376
46296W        W11776  11.290  25.658  13.930
46297W        W11777  25.197  26.457   2.746
46298W        W11778   4.832   3.728   0.935
46299W        W11779  30.439  29.040  10.936
46300W        W11780  31.433  32.897  12.577
46301W        W11781  13.313   2.750  14.277
46302W        W11782  21.672  40.461   4.770
46303W        W11783  33.039  21.225  13.331
46304W        W11784  15.121  29.027  12.413
46305W        W11785  20.721  10.872   0.414
46306W        W11786  14.277  31.577   3.296
46307W        W11787  25.539   4.205  10.987
46308W        W11788  21.160  37.043   2.753
46309W        W11789  16.218  27.946  12.416
46310W        W11790   7.717  42.778   2.201
46311W        W11791  17.716  31.541  12.544
46312W        W11792  28.476  37.500  10.482
46313W        W11793  24.051  30.021  14.406
46314W        W11794  23.596  40.948  12.064
46315W        W11795  12.176  26.508  13.317
46316W        W11796  32.000  44.307  14.401
46317W        W11797   3.903  12.222  14.437
46318W        W11798  20.734  44.449  14.504
46319W        W11799  42.963   9.839   3.287
46320W        W11800  14.149  24.056   1.278
46321W        W11801  15.641  22.185   1.426
46322W        W11802   6.419  42.909   0.474
46323W        W11803  10.695  30.519   4.779
46324W        W11804  44.351  25.205  13.890
46325W        W11805  22.145  12.240  12.035
46326W        W11806  11.233  23.727  10.941
46327W        W11807  38.491  17.770  13.912
46328W        W11808  13.186  30.612   4.691
46329W        W11809   3.298  44.782  10.610
46330W        W11810   4.393  27.474   4.329
46331W        W11811  31.052   5.245  14.816
46332W        W11812  44.422  14.711   0.373
46333W        W11813  17.202  43.971  13.832
46334W        W11814  13.163  42.963  14.359
46335W        W11815  15.613  40.978   3.638
46336W        W11816  37.490  13.751   2.708
46337W        W11817   5.764  25.971   4.238
46338W        W11818  33.493  44.305   2.898
46339W        W11819   8.378  36.581  11.871
46340W        W11820  24.143  43.799   3.271
46341W        W11821  20.590  14.829  14.770
46342W        W11822  28.544   2.412  13.977
46343W        W11823  14.668  23.710  10.433
46344W        W11824  15.609  32.038  10.639
46345W        W11825   1.424  25.524   0.255
46346W        W11826  16.785  24.538   4.807
46347W        W11827   5.809  21.626   2.831
46348W        W11828   9.659  19.702   2.241
46349W        W11829  33.397  25.643   2.903
46350W        W11830  42.497  26.617  13.477
46351W        W11831  44.986  32.093  14.762
46352W        W11832   7.286  39.372   4.639
46353W        W11833  17.238  24.055   3.705
46354W        W11834  25.069   5.307  11.981
46355W        W11835  19.168   8.676   2.379
46356W        W11836  23.203   2.432  13.886
46357W        W11837  35.574  10.257   1.884
46358W        W11838   2.856   1.874   4.663
46359W        W11839  43.895  19.654  11.878
46360W        W11840   3.945  27.625  14.994
46361W        W11841  38.549  17.266  12.987
46362W        W11842  10.875  12.636   4.253
46363W        W11843  42.810  32.545  12.480
46364W        W11844  27.036  10.301   1.703
46365W        W11845  23.735  22.032   4.830
46366W        W11846  34.003  25.574  13.843
46367W        W11847   0.277  34.049   3.355
46368W        W11848   6.207  21.614   4.772
46369W        W11849   8.699  16.591   0.482
46370W        W11850  20.093  30.959   3.769
46371W        W11851  12.319  15.813  14.346
46372W        W11852  41.840  38.978   1.923
46373W        W11853   0.958  21.115  13.314
46374W        W11854  40.956  11.705   0.274
46375W        W11855  30.522  38.937  11.411
46376W        W11856  24.574   5.903  11.451
46377W        W11857  15.673  11.242   0.320
46378W        W11858  33.461  20.118   2.246
46379W        W11859  38.041  32.938  11.071
46380W        W11860  35.081   6.371  11.033
46381W        W11861  17.205   5.362   4.187
46382W        W11862  19.536   6.688  13.439
46383W        W11863  22.190  37.992  11.983
46384W        W11864  32.935  34.481   3.867
46385W        W11865   7.757  10.779  11.928
46386W        W11866  34.514  30.028  11.472
46387W        W11867  34.019  11.359  11.381
46388W        W11868   8.236  32.473  12.084
46389W        W11869  30.496   4.766  14.374
46390W        W11870   3.344  35.981   9.927
46391W        W11871   1.965  44.443  11.408
46392W        W11872  12.138   9.867   1.712
46393W        W11873  42.807  35.953   0.480
46394W        W11874   2.333  17.789  10.474
46395W        W11875  41.487  33.124  13.387
46396W        W11876  14.819  34.990   5.121
46397W        W11877  11.841  40.374  13.816
46398W        W11878  15.220   4.757  14.836
46399W        W11879   4.304  39.353   3.710
46400W        W11880  33.026   2.356  11.431
46401W        W11881   3.896   9.840  13.488
46402W        W11882  27.449   2.889  14.030
46403W        W11883  41.899  10.362   0.385
46404W        W11884  22.192  24.139   0.471
46405W        W11885  23.139  23.993   4.639
46406W        W11886  33.516  24.533   0.407
46407W        W11887  20.133   8.730  11.895
46408W        W11888  14.786  38.001   1.367
46409W        W11889  31.587  32.049  11.942
46410W        W11890  39.416  15.155  12.880
46411W        W11891   8.867  26.056  13.322
46412W        W11892  30.569   8.313   2.191
46413W        W11893   3.762   4.392   3.156
46414W        W11894  19.537  39.014   1.846
46415W        W11895  41.829   4.268  13.937
46416W        W11896  16.098  40.880   4.754
46417W        W11897  36.540  40.446  13.859
46418W        W11898   6.377  38.548   3.860
46419W        W11899  12.745  13.697  10.007
46420W        W11900  32.127  13.705  12.879
46421W        W11901  25.548  19.654  14.811
46422W        W11902  10.192  23.580  10.947
46423W        W11903  29.647  44.424   0.960
46424W        W11904  31.938   2.847  10.627
46425W        W11905  13.236  37.980   0.455
46426W        W11906  27.537   3.399  10.444
46427W        W11907  26.173  14.145   4.324
46428W        W11908  24.628  14.633   3.641
46429W        W11909  23.523  11.857   0.751
46430W        W11910   6.382   8.801   4.304
46431W        W11911   5.917  12.629   3.798
46432W        W11912  16.586  22.529   0.896
46433W        W11913  11.371  31.914  12.918
46434W        W11914  22.614  22.576   4.183
46435W        W11915  28.134  43.460  14.504
46436W        W11916  14.256   8.668   3.351
46437W        W11917   5.256  22.668   0.401
46438W        W11918   0.248  39.360   1.420
46439W        W11919  41.873  29.061   3.171
46440W        W11920  36.415  14.651   4.706
46441W        W11921  33.559  44.352   1.407
46442W        W11922  11.263  18.762   3.274
46443W        W11923  25.004  28.955  11.465
46444W        W11924   5.801  35.927  13.031
46445W        W11925  19.060  43.858  12.961
46446W        W11926  28.594  12.794  12.517
46447W        W11927   5.905   7.264   4.195
46448W        W11928   1.894  30.552   3.299
46449W        W11929  26.015  38.378   1.800
46450W        W11930  34.463  35.857   4.666
46451W        W11931   8.250   1.268   0.755
46452W        W11932  36.088  31.457   3.731
46453W        W11933  37.559  25.492  11.951
46454W        W11934  28.110  12.771  14.868
46455W        W11935  22.699  27.647  14.885
46456W        W11936  29.485  38.513  13.389
46457W        W11937  34.028  20.559   2.730
46458W        W11938  43.799   5.917  10.443
46459W        W11939  42.435  27.155  11.096
46460W        W11940  13.662  33.121  12.546
46461W        W11941  37.449   3.909   3.199
46462W        W11942  30.469  22.688  11.579
46463W        W11943  23.022  14.105   4.707
46464W        W11944  14.666  20.104  11.588
46465W        W11945   1.446  36.904  12.019
46466W        W11946   2.289  38.494   0.807
46467W        W11947  32.400   8.704   1.825
46468W        W11948  43.860   5.255   1.218
46469W        W11949  23.173  18.151   3.864
46470W        W11950  44.915   1.421  12.909
46471W        W11951  15.122   6.195  11.970
46472W        W11952  43.905  20.046  10.639
46473W        W11953  13.713  26.088   3.273
46474W        W11954  18.671  18.108  12.343
46475W        W11955  43.285   4.266   2.289
46476W        W11956  18.183  23.199   4.290
46477W        W11957   3.252  22.594  12.450
46478W        W11958  15.222  41.467   4.794
46479W        W11959  35.104  42.848  12.525
46480W        W11960  33.494   0.911  12.523
46481W        W11961  19.067  20.046   4.608
46482W        W11962  41.353  13.817   4.804
46483W        W11963   1.927  18.225   2.667
46484W        W11964  38.917  36.956   9.930
46485W        W11965  17.775  38.344  14.295
46486W        W11966  35.527  25.005   1.774
46487W        W11967  44.500  31.087  10.414
46488W        W11968  24.494   3.348   0.458
46489W        W11969   9.378  24.016   0.783
46490W        W11970   4.319  22.203   0.923
46491W        W11971  20.179  30.503   4.635
46492W        W11972  30.594  12.745   1.750
46493W        W11973  34.032  18.064  14.982
46494W        W11974  38.940  17.293  13.042
46495W        W11975  36.589  25.034   2.303
46496W        W11976  11.166  41.424  14.869
46497W        W11977  42.903  36.403  13.314
46498W        W11978   4.806  21.640   0.460
46499W        W11979   1.960  31.417   1.870
46500W        W11980  16.652  24.138  13.827
46501W        W11981  40.918  26.527  10.085
46502W        W11982   4.256  43.500  10.911
46503W        W11983  44.982  37.961   4.833
46504W        W11984  40.519   5.393  13.464
46505W        W11985   3.426   7.826   0.283
46506W        W11986   2.802  10.365   1.860
46507W        W11987  19.654  26.547   1.706
46508W        W11988  43.835  18.636  14.824
46509W        W11989  16.648  38.998   1.730
46510W        W11990  37.875   6.277   4.118
46511W        W11991  30.497  10.311  10.503
46512W        W11992  33.910  39.923   1.254
46513W        W11993  21.515   9.865  12.378
46514W        W11994   0.859  11.155  13.316
46515W        W11995  42.407  35.393  11.388
46516W        W11996  30.038  37.446  12.032
46517W        W11997   7.377  36.011  12.995
46518W        W11998  17.743  34.377   1.777
46519W        W11999  15.717  22.095   4.117
46520W        W12000  11.344   3.786   3.636
46521W        W12001  40.393  25.593  12.030
46522W        W12002  31.521  36.437   3.741
46523W        W12003  40.432  27.619  14.385
46524W        W12004  16.577  10.216  14.789
46525W        W12005  43.501  29.513   4.649
46526W        W12006  31.605   5.865  13.015
46527W        W12007  18.660  24.537  11.378
46528W        W12008   8.376  42.794   3.752
46529W        W12009  23.234  28.666   4.806
46530W        W12010  42.316  22.114   2.334
46531W        W12011  19.132   1.778  11.496
46532W        W12012  25.179  33.490   3.693
46533W        W12013  38.404  13.621  13.466
46534W        W12014  16.188  44.911   3.812
46535W        W12015  16.774   1.957   2.312
46536W        W12016  13.630  25.973  12.569
46537W        W12017  34.070  31.618   0.299
46538W        W12018  19.159  18.064   3.231
46539W        W12019  29.041  22.221   4.752
46540W        W12020  17.106   3.928  11.980
46541W        W12021  31.971  17.198   0.483
46542W        W12022   7.195  35.602   2.387
46543W        W12023   8.886  44.361  14.449
46544W        W12024  21.703  23.655   2.792
46545W        W12025  15.221  10.292  10.620
46546W        W12026  11.694  33.471  11.124
46547W        W12027  37.360  26.607   4.702
46548W        W12028  19.043  36.032  13.531
46549W        W12029  13.735  13.804  11.383
46550W        W12030  40.475  32.098  14.325
46551W        W12031  21.134  22.074  10.567
46552W        W12032  10.817   9.273  13.488
46553W        W12033   7.863  34.456  11.467
46554W        W12034  27.195  40.511   2.676
46555W        W12035  32.026  10.282   3.686
46556W        W12036  14.338  40.464   1.840
46557W        W12037  20.233  41.992   1.291
46558W        W12038  35.381  42.364  12.871
46559W        W12039  37.041  38.990  14.902
46560W        W12040   2.745  29.503  11.435
46561W        W12041  42.869  15.659  12.992
46562W        W12042  20.106  11.155  11.892
46563W        W12043  19.619  17.670   4.188
46564W        W12044   3.375  26.062   4.716
46565W        W12045  20.090  36.446   4.198
46566W        W12046  41.469   3.711   3.854
46567W        W12047  14.336  21.052   1.913
46568W        W12048  40.307   8.189  11.600
46569W        W12049  21.113   3.785   3.309
46570W        W12050  44.291  24.174  13.493
46571W        W12051  38.870  21.530   0.832
46572W        W12052  21.020  28.484  12.032
46573W        W12053  27.672  21.089   2.226
46574W        W12054  35.084  39.912  11.023
46575W        W12055  21.207  13.172  12.464
46576W        W12056  10.713  14.316   4.772
46577W        W12057   3.831  35.934  10.503
46578W        W12058  14.175  27.557  12.352
46579W        W12059   4.215  12.668   1.236
46580W        W12060  39.550   9.242  14.950
46581W        W12061   9.658  12.633  11.389
46582W        W12062  15.747   4.725  11.871
46583W        W12063  23.715   5.736  14.354
46584W        W12064   3.394  21.018  13.339
46585W        W12065   0.899  31.546  14.396
46586W        W12066   5.809   5.819   3.747
46587W        W12067   3.380   7.186   4.820
46588W        W12068  32.394  11.665  11.965
46589W        W12069  36.066  11.632  11.116
46590W        W12070  37.465  18.050  14.429
46591W        W12071  27.149  41.376  12.091
46592W        W12072   0.793  27.545   3.769
46593W        W12073  38.841  32.595   5.161
46594W        W12074  21.711  43.876   2.196
46595W        W12075  31.617  21.536   1.300
46596W        W12076  12.695  30.594  11.993
46597W        W12077  44.791   3.359   4.121
46598W        W12078  26.602   7.230   3.205
46599W        W12079  13.307   7.856  12.571
46600W        W12080  41.401  34.447   3.316
46601W        W12081  14.323  11.661  10.407
46602W        W12082  27.999   2.936  14.832
46603W        W12083  24.499  13.253  13.522
46604W        W12084  33.976  26.971  11.984
46605W        W12085  25.550  29.543   1.875
46606W        W12086  21.710  28.030   4.281
46607W        W12087   4.899  39.971   3.770
46608W        W12088   1.835  33.427  11.591
46609W        W12089  17.113  22.729   3.282
46610W        W12090  17.720  26.561  14.969
46611W        W12091  15.133  21.093   3.345
46612W        W12092  15.109  43.275  12.830
46613W        W12093  18.146   3.907   3.659
46614W        W12094  18.603   6.891   2.290
46615W        W12095  34.477  24.576  12.886
46616W        W12096  33.081  11.658   3.651
46617W        W12097   4.917  18.238   4.138
46618W        W12098  40.830   5.926  13.902
46619W        W12099  28.146  31.027  10.457
46620W        W12100  42.391  32.046   4.317
46621W        W12101   7.417  20.269  11.569
46622W        W12102  40.888   6.265  13.838
46623W        W12103  12.664  34.518   0.332
46624W        W12104  11.173  24.988   2.785
46625W        W12105  37.417   1.952  12.451
46626W        W12106  38.869  10.714  11.399
46627W        W12107  41.316  30.616  13.396
46628W        W12108  11.758   7.302  12.532
46629W        W12109   9.723  30.048   1.308
46630W        W12110   4.356  14.223  14.898
46631W        W12111  16.769  12.233  12.546
46632W        W12112  28.129  20.202  12.469
46633W        W12113  24.693  28.651   3.750
46634W        W12114  36.943   6.870  10.446
46635W        W12115  11.653  30.029   0.917
46636W        W12116   9.869  44.870  13.442
46637W        W12117  17.123   7.692  12.990
46638W        W12118  19.546  26.506  13.438
46639W        W12119  34.868  17.742   0.460
46640W        W12120  11.776   7.200  11.498
46641W        W12121  29.125  43.370  10.476
46642W        W12122  20.755  36.030   3.786
46643W        W12123  40.461   4.387   0.423
46644W        W12124  14.159  15.685  14.917
46645W        W12125  23.016  18.190   0.292
46646W        W12126  40.460  10.857   1.302
46647W        W12127   1.426  37.902   1.404
46648W        W12128  17.281  22.670  11.961
46649W        W12129   1.783  43.500  13.052
46650W        W12130   2.447  38.556  10.620
46651W        W12131  32.490  11.257  11.971
46652W        W12132  20.674   3.905   2.858
46653W        W12133   0.448  15.321   4.223
46654W        W12134  27.127  26.108  11.496
46655W        W12135  30.517  22.062   1.741
46656W        W12136  37.006  24.641  12.522
46657W        W12137  22.531   8.183  11.012
46658W        W12138  10.247   5.787   9.947
46659W        W12139   3.883  18.239   3.185
46660W        W12140  26.601   2.455   4.326
46661W        W12141  19.776  44.409  14.814
46662W        W12142  32.931  27.472   1.747
46663W        W12143  16.646  31.097   3.320
46664W        W12144  32.077   8.195  14.293
46665W        W12145  32.958  20.679  13.506
46666W        W12146  44.828  14.741  13.960
46667W        W12147  27.567  12.781  11.387
46668W        W12148  26.972  10.720   0.280
46669W        W12149  25.665   0.461   0.302
46670W        W12150   1.436  25.112   3.741
46671W        W12151  30.618  22.120  12.003
46672W        W12152  36.356   2.890  14.874
46673W        W12153  28.076   9.309  12.375
46674W        W12154   6.716  43.389  10.415
46675W        W12155   1.823  38.497  12.460
46676W        W12156   8.673  28.077  11.930
46677W        W12157  27.477  40.476  12.473
46678W        W12158   4.842  34.544   9.511
46679W        W12159   3.817  21.249  10.158
46680W        W12160  41.412  14.332   1.260
46681W        W12161  11.223  24.658  13.875
46682W        W12162  14.284   5.278   1.718
46683W        W12163  37.069  25.681   0.899
46684W        W12164  29.561  22.718  11.874
46685W        W12165  33.898  20.629  11.466
46686W        W12166   0.963  42.414  13.037
46687W        W12167   4.811   8.883  12.036
46688W        W12168  32.085  19.725   9.990
46689W        W12169  34.512  44.980  13.497
46690W        W12170  44.364  16.736  10.105
46691W        W12171   8.346  21.662  13.942
46692W        W12172  37.572  28.023   4.198
46693W        W12173   7.211  22.232   0.788
46694W        W12174   6.228  21.555  14.416
46695W        W12175   3.236  10.371   0.861
46696W        W12176  35.984  28.670   2.736
46697W        W12177  13.633   9.770  14.889
46698W        W12178  17.701  10.186  13.505
46699W        W12179  26.068  21.119  10.995
46700W        W12180  22.089  15.148  14.382
46701W        W12181  37.068  21.644  12.477
46702W        W12182  13.795  34.073  14.397
46703W        W12183   8.802  33.417   2.235
46704W        W12184   4.370  12.159  14.782
46705W        W12185  15.717   8.376   4.825
46706W        W12186  36.592  25.487  12.073
46707W        W12187  21.594  30.504  11.480
46708W        W12188  40.376  13.681   3.676
46709W        W12189  19.742  30.596   3.758
46710W        W12190  23.124  18.274   1.252
46711W        W12191  36.530  19.111  14.411
46712W        W12192  31.641  20.193  14.437
46713W        W12193  42.994  10.213   4.320
46714W        W12194  35.071  22.576  14.300
46715W        W12195  26.181  22.682  13.344
46716W        W12196  35.524   2.331  13.952
46717W        W12197  16.196  44.804   0.374
46718W        W12198  36.054  29.613   1.724
46719W        W12199  29.997  32.550  10.992
46720W        W12200  24.642  21.192   1.767
46721W        W12201  11.762   8.250   0.804
46722W        W12202  12.712   5.857  13.349
46723W        W12203  11.298  29.431  12.565
46724W        W12204  42.492  35.446  14.353
46725W        W12205  40.010  32.067  14.824
46726W        W12206  15.754  21.707   1.242
46727W        W12207  20.663  25.523  14.344
46728W        W12208  23.044  12.340  11.596
46729W        W12209  22.735  16.300   3.702
46730W        W12210  18.133  10.352   0.838
46731W        W12211  38.486  37.430  11.402
46732W        W12212   8.187   0.938  12.545
46733W        W12213  30.593   2.283   1.371
46734W        W12214  18.135  30.503   3.778
46735W        W12215  15.167  28.011   1.728
46736W        W12216  15.233  35.387  10.439
46737W        W12217  30.552  39.552   2.748
46738W        W12218   5.771  19.192  13.517
46739W        W12219  23.729  14.239  11.408
46740W        W12220  10.287  10.221  10.926
46741W        W12221  35.974   6.772   0.448
46742W        W12222   0.877  24.096  13.021
46743W        W12223   7.847  20.062  11.971
46744W        W12224  37.947  34.553  11.893
46745W        W12225   5.249  42.508  11.056
46746W        W12226  16.268  23.010   4.169
46747W        W12227  39.468  16.626  12.984
46748W        W12228  37.979  21.035   1.916
46749W        W12229  34.557   3.442  12.543
46750W        W12230  16.667  15.606  14.506
46751W        W12231  17.125  19.085   1.806
46752W        W12232  27.558   1.440   4.693
46753W        W12233  43.908  23.726   2.854
46754W        W12234  35.529  16.303   4.241
46755W        W12235  16.276   4.360   2.675
46756W        W12236  27.607  42.850  12.428
46757W        W12237  32.554  21.027  11.945
46758W        W12238  41.345  12.733  11.415
46759W        W12239  24.608  19.106  12.865
46760W        W12240   1.418  38.845  10.500
46761W        W12241  41.408  14.780   4.658
46762W        W12242  42.821  24.581  10.556
46763W        W12243  14.230  22.022  11.434
46764W        W12244  33.985  11.162  13.410
46765W        W12245  10.332  33.474   5.301
46766W        W12246  29.024  23.225  14.846
46767W        W12247  42.896  18.602  13.496
46768W        W12248  13.177  40.817  12.075
46769W        W12249  44.407  27.081   1.877
46770W        W12250   5.427  41.936   1.821
46771W        W12251   0.348  34.445  14.486
46772W        W12252  35.039   1.848  10.020
46773W        W12253  30.156  34.529   2.321
46774W        W12254  19.138   6.918  12.843
46775W        W12255  29.558  22.195  13.806
46776W        W12256  27.470  26.656  14.963
46777W        W12257  34.481  39.403  12.343
46778W        W12258  14.805  27.631  13.042
46779W        W12259  25.009  10.730   2.897
46780W        W12260  11.622  15.158  14.926
46781W        W12261   1.342  23.121   3.179
46782W        W12262  31.116  35.016  11.119
46783W        W12263  21.718  39.014   3.287
46784W        W12264  34.939  11.623   5.319
46785W        W12265  35.955  43.936  11.562
46786W        W12266  13.232  38.865   1.279
46787W        W12267   4.858  44.338   0.819
46788W        W12268   6.200  21.113   5.200
46789W        W12269  40.801  34.102   1.872
46790W        W12270  13.152  41.508   2.290
46791W        W12271  28.078  34.022  14.818
46792W        W12272  26.477  14.612  11.126
46793W        W12273  17.272  18.711   5.118
46794W        W12274  27.039  26.641  13.348
46795W        W12275  28.157  28.595  10.507
46796W        W12276   6.817  17.275  14.826
46797W        W12277   3.845  44.327  13.880
46798W        W12278  40.841  10.242  14.376
46799W        W12279   2.819   1.796   3.645
46800W        W12280   6.307  13.281  13.053
46801W        W12281  28.022  35.951  13.540
46802W        W12282   6.700  29.103   2.409
46803W        W12283  33.497  43.493  13.459
46804W        W12284  30.515  34.091  12.073
46805W        W12285  37.913  23.061   4.351
46806W        W12286   6.254  12.726  12.905
46807W        W12287   4.908  43.376  13.943
46808W        W12288  20.098  21.728  12.367
46809W        W12289  34.460  43.813  13.803
46810W        W12290  41.366   7.259   3.802
46811W        W12291  29.028  19.669   0.796
46812W        W12292  29.165  29.990   2.186
46813W        W12293  27.177  28.004   3.152
46814W        W12294  15.299  29.151   0.843
46815W        W12295  22.251  19.692  11.089
46816W        W12296  38.019   0.796   4.115
46817W        W12297  44.450   5.334   0.402
46818W        W12298  21.750  19.652  11.459
46819W        W12299  38.963  22.010   1.431
46820W        W12300  21.635  17.576  13.974
46821W        W12301  25.669  33.903  10.552
46822W        W12302  11.171  43.886  12.542
46823W        W12303   5.239  34.461  12.347
46824W        W12304  41.364  36.424   3.328
46825W        W12305  32.505  31.971  12.093
46826W        W12306  26.037  17.274   4.180
46827W        W12307  13.293  37.412  14.763
46828W        W12308  21.043  42.839   1.910
46829W        W12309   8.292  19.210   2.736
46830W        W12310  17.645  44.283   1.223
46831W        W12311  12.223  34.038   3.860
46832W        W12312  29.442   5.702   2.673
46833W        W12313  40.357   4.834  12.429
46834W        W12314  10.383  37.838  14.825
46835W        W12315  13.751  38.390  12.493
46836W        W12316  21.203  29.143  13.467
46837W        W12317  40.996  29.647  13.834
46838W        W12318  13.620  18.700   4.664
46839W        W12319  34.509  18.070  11.965
46840W        W12320  36.498  42.016  10.926
46841W        W12321   4.418  12.846  12.030
46842W        W12322   2.821  35.867  14.888
46843W        W12323  33.435   2.965  12.077
46844W        W12324  21.557   1.778  13.011
46845W        W12325   3.251  16.137   2.879
46846W        W12326  43.515  39.458   1.802
46847W        W12327  30.580  43.943  13.008
46848W        W12328  15.586   2.270   1.891
46849W        W12329  36.367   7.177  10.635
46850W        W12330  13.742  13.254   2.725
46851W        W12331  29.669  20.168  14.895
46852W        W12332  29.174   4.390  10.925
46853W        W12333  14.823  33.895   1.336
46854W        W12334  23.665  31.573  12.509
46855W        W12335   9.336   9.301   1.265
46856W        W12336   3.930  15.582  11.398
46857W        W12337  11.310  19.092   4.605
46858W        W12338   9.873   5.279   1.237
46859W        W12339  41.870  28.524  12.410
46860W        W12340   6.272  39.848   3.718
46861W        W12341  14.601  23.000  11.458
46862W        W12342  24.710   9.765   3.385
46863W        W12343  44.366   7.188  13.372
46864W        W12344  16.279  22.199  12.000
46865W        W12345   1.872  26.637   0.744
46866W        W12346  14.336   7.685  12.862
46867W        W12347  32.955  36.472   3.829
46868W        W12348  11.737  27.147   1.368
46869W        W12349  42.007  29.556   4.132
46870W        W12350  21.228  31.449   1.889
46871W        W12351   6.425  42.026   0.744
46872W        W12352  15.190   7.889  11.925
46873W        W12353  18.272  14.637   3.368
46874W        W12354  44.397  23.085   3.261
46875W        W12355  28.032  29.664  14.819
46876W        W12356  30.501   5.896   2.299
46877W        W12357  19.563  35.539  12.441
46878W        W12358  18.574  27.993   3.304
46879W        W12359  32.047  34.522   4.743
46880W        W12360  26.191  40.479  13.058
46881W        W12361  25.601  26.015  11.081
46882W        W12362   4.230  23.513   3.228
46883W        W12363  19.684  42.836  10.149
46884W        W12364  33.010   3.435  10.568
46885W        W12365  12.270  24.088   0.895
46886W        W12366  19.146  18.580  14.309
46887W        W12367  11.786  19.551   1.916
46888W        W12368  39.384   7.854   4.135
46889W        W12369  29.058  15.278   0.819
46890W        W12370  19.141  10.713   3.147
46891W        W12371  17.797   7.279  12.074
46892W        W12372  35.401  40.898  12.399
46893W        W12373   3.809  17.756  13.423
46894W        W12374  42.928  39.829   3.335
46895W        W12375  36.959  38.074  14.333
46896W        W12376  33.975  35.965   0.404
46897W        W12377  18.620   4.385  11.986
46898W        W12378  43.410  44.296   3.828
46899W        W12379  35.471  41.031   0.284
46900W        W12380   6.357   1.961  11.040
46901W        W12381  27.680  17.069   1.792
46902W        W12382   2.830   2.335   1.927
46903W        W12383  31.973   5.687  12.933
46904W        W12384  30.987   7.902  11.504
46905W        W12385  26.577  34.899   5.098
46906W        W12386  40.476  12.181  14.474
46907W        W12387  18.086   6.881   0.757
46908W        W12388  37.032  16.753  14.813
46909W        W12389   4.841  10.369  14.868
46910W        W12390   7.860  32.449   1.818
46911W        W12391   4.819   2.914   0.923
46912W        W12392  43.419  44.943  12.028
46913W        W12393  43.961  43.000   1.268
46914W        W12394  27.156   8.259   2.343
46915W        W12395  11.294  25.100   3.272
46916W        W12396  26.136   4.864  10.570
46917W        W12397  32.447  42.397   3.348
46918W        W12398  18.233  20.693   0.938
46919W        W12399  32.015  22.164  13.508
46920W        W12400   3.899  17.664  14.766
46921W        W12401  36.488   5.380   2.198
46922W        W12402  36.990  34.459   0.939
46923W        W12403  29.653  37.919   0.445
46924W        W12404  40.525  37.000   3.635
46925W        W12405  29.146  42.866   2.289
46926W        W12406  35.521   7.846   4.132
46927W        W12407   3.306  18.679   2.881
46928W        W12408  25.997  18.076   2.850
46929W        W12409   0.763  26.649  12.457
46930W        W12410  44.415  38.538   0.895
46931W        W12411   8.357  18.071   1.319
46932W        W12412  34.583  10.365  10.518
46933W        W12413  27.065  42.859   2.225
46934W        W12414  13.715  35.564   0.927
46935W        W12415  18.126  36.559   1.290
46936W        W12416  18.716  24.640   3.156
46937W        W12417  34.878  33.604  14.812
46938W        W12418  14.254  22.578  11.526
46939W        W12419  12.320  16.808   3.380
46940W        W12420  26.696  35.018  13.829
46941W        W12421  28.547  20.089  10.473
46942W        W12422   5.842  40.344  13.965
46943W        W12423  44.850  40.818  12.528
46944W        W12424   7.341  38.513   0.247
46945W        W12425  33.491  33.534   1.791
46946W        W12426  32.446  23.163  10.501
46947W        W12427  13.197   8.708   0.797
46948W        W12428  41.367  30.643   2.870
46949W        W12429   7.395  10.207  12.543
46950W        W12430  15.292  22.172  14.447
46951W        W12431  42.393  24.029  11.978
46952W        W12432  38.506   7.284   4.207
46953W        W12433   0.299  26.608  10.538
46954W        W12434   4.298  41.837   0.299
46955W        W12435   3.873  30.535   2.245
46956W        W12436   1.945  28.481   2.386
46957W        W12437  23.050  29.598  13.028
46958W        W12438   0.790  34.073  12.339
46959W        W12439  12.203  30.000  10.917
46960W        W12440  11.163   7.173  10.918
46961W        W12441  44.448  28.990   4.352
46962W        W12442  38.460  24.481  13.867
46963W        W12443  44.918  15.255   1.930
46964W        W12444   7.184   3.815  12.579
46965W        W12445  20.197  38.029  13.027
46966W        W12446   4.921  28.171   4.200
46967W        W12447  33.442  15.091   3.214
46968W        W12448  24.693  18.223  14.310
46969W        W12449  29.487  44.328  13.514
46970W        W12450  39.009  20.534  11.051
46971W        W12451  15.250  23.206   3.237
46972W        W12452  28.575  30.122   0.312
46973W        W12453  28.566  22.032   0.329
46974W        W12454  40.980  29.461  13.473
46975W        W12455  26.532  12.134  10.411
46976W        W12456  19.587  37.988  13.408
46977W        W12457  17.594  28.931   1.927
46978W        W12458  29.050  19.598  14.826
46979W        W12459  29.572  32.611  12.972
46980W        W12460  23.036  24.699  14.368
46981W        W12461  30.455  42.918   5.147
46982W        W12462   2.867  27.614  11.981
46983W        W12463  41.933  42.502   3.754
46984W        W12464   8.174  24.663  12.938
46985W        W12465  32.984  18.232  11.016
46986W        W12466  42.786  37.027  13.536
46987W        W12467  30.654  34.068   1.310
46988W        W12468  44.430   9.375   2.743
46989W        W12469  22.702  39.371  10.978
46990W        W12470  30.057   5.251  10.521
46991W        W12471  18.207   3.312   2.718
46992W        W12472  33.538   2.434  11.455
46993W        W12473   7.669  40.492   0.247
46994W        W12474  32.892  40.973   1.779
46995W        W12475  20.083  24.538  13.387
46996W        W12476  36.397  34.468   1.883
46997W        W12477  40.492   6.309  14.361
46998W        W12478   5.791  11.183   3.667
46999W        W12479  23.050   6.354   3.776
47000W        W12480  26.610   6.380   5.264
47001W        W12481  42.806  41.790  11.602
47002W        W12482  36.946  33.887  10.488
47003W        W12483  29.995  41.295   3.357
47004W        W12484  21.752   5.910   0.949
47005W        W12485   8.389   2.921   2.227
47006W        W12486  37.411   3.217   2.318
47007W        W12487   0.884  41.416   4.159
47008W        W12488  31.568  22.031   3.736
47009W        W12489   4.700  30.597  12.855
47010W        W12490   3.282  15.607  10.472
47011W        W12491  25.711   6.306   0.870
47012W        W12492  28.153  33.398   2.686
47013W        W12493  44.839  25.182  12.577
47014W        W12494  26.046  33.460  13.917
47015W        W12495  41.862  13.817   0.856
47016W        W12496  41.422  30.919  11.949
47017W        W12497  24.160  31.529  11.079
47018W        W12498  20.155  13.829  11.485
47019W        W12499   5.690  37.961   1.817
47020W        W12500  42.292  43.916  10.908
47021W        W12501  13.750  10.191  10.436
47022W        W12502  25.196   9.827  10.922
47023W        W12503  38.915   3.815   1.291
47024W        W12504  15.219  21.132   3.750
47025W        W12505   5.395  39.324   1.398
47026W        W12506  44.280  21.037  13.543
47027W        W12507   2.907  36.533  13.021
47028W        W12508  23.720  28.181  13.488
47029W        W12509  25.054  22.678  13.946
47030W        W12510  31.521  27.011   2.418
47031W        W12511   7.343  40.813  14.301
47032W        W12512  23.631  39.920  13.908
47033W        W12513   6.212  20.244  11.422
47034W        W12514  23.986  35.485   1.795
47035W        W12515  12.358  10.242  12.825
47036W        W12516   9.837   0.377  14.326
47037W        W12517   0.809  14.193  10.983
47038W        W12518  28.484  13.729   1.232
47039W        W12519  23.730   8.335   4.213
47040W        W12520  25.125  17.061  10.446
47041W        W12521  21.026  11.645   3.205
47042W        W12522  23.658  35.875  14.934
47043W        W12523  16.162   5.204  13.439
47044W        W12524   5.688  34.429  12.968
47045W        W12525   1.317  37.370  10.935
47046W        W12526   8.216  31.440   4.320
47047W        W12527   8.392   2.333   4.609
47048W        W12528   7.394   0.842   1.256
47049W        W12529   9.250  32.402   2.759
47050W        W12530  42.925   6.726  12.872
47051W        W12531  37.406   5.785   4.789
47052W        W12532  10.189  10.740  14.283
47053W        W12533  11.688  35.952  14.830
47054W        W12534  20.703  10.667   2.693
47055W        W12535   7.182  19.773   2.275
47056W        W12536   4.387  34.081   0.348
47057W        W12537   7.878  26.186   0.777
47058W        W12538   4.761  17.708   4.261
47059W        W12539  43.933   8.221   2.360
47060W        W12540  42.909  43.468  12.886
47061W        W12541  40.376  23.683  13.532
47062W        W12542   2.249  39.972  10.617
47063W        W12543  33.576   4.747   1.697
47064W        W12544   8.207   8.727   2.289
47065W        W12545   7.225  17.712  13.054
47066W        W12546   4.222  26.558   1.751
47067W        W12547  19.544  28.027  13.946
47068W        W12548  18.752   8.880   4.186
47069W        W12549   6.235   8.716  14.515
47070W        W12550  13.654  41.848   1.707
47071W        W12551   4.762  12.236  12.506
47072W        W12552   6.884  31.913   1.831
47073W        W12553   9.789  23.026   0.749
47074W        W12554  10.843  25.067  14.321
47075W        W12555  19.710   6.806  13.835
47076W        W12556   1.899   0.435  14.289
47077W        W12557   7.806  44.280  11.427
47078W        W12558  28.608  14.806  12.384
47079W        W12559  26.978  36.973   3.147
47080W        W12560   9.684  19.740   0.413
47081W        W12561  14.684  24.159  13.857
47082W        W12562  36.936  41.795   2.674
47083W        W12563  30.453  42.365   1.775
47084W        W12564  44.966  39.367  10.991
47085W        W12565  24.996  25.499   0.950
47086W        W12566  39.479  16.761   0.965
47087W        W12567  27.978  18.199  14.845
47088W        W12568  13.706  37.954  12.086
47089W        W12569  40.417  20.239  14.385
47090W        W12570  23.542  11.263  11.015
47091W        W12571  43.015  28.121   2.850
47092W        W12572  36.534  10.806  13.447
47093W        W12573  14.319  26.127   0.248
47094W        W12574  32.402  39.874  12.017
47095W        W12575  10.342  36.908   4.130
47096W        W12576   7.240  13.286   3.778
47097W        W12577   6.417  34.411   3.163
47098W        W12578  32.976  19.259  11.530
47099W        W12579  23.706  32.023  14.884
47100W        W12580  44.958  11.843   2.674
47101W        W12581  28.468  31.442   1.753
47102W        W12582  16.299   5.206  10.503
47103W        W12583  18.738  13.758  13.531
47104W        W12584  12.265   3.320  10.599
47105W        W12585  37.969  27.109   1.450
47106W        W12586  19.692  36.559  14.800
47107W        W12587  37.938  37.950   2.192
47108W        W12588  13.812  44.450   2.393
47109W        W12589  33.499   4.813  11.593
47110W        W12590   6.370   0.758   4.284
47111W        W12591  35.551  28.630  13.864
47112W        W12592  32.916  34.957  12.888
47113W        W12593  39.920   2.265  14.415
47114W        W12594  12.730  16.314   0.752
47115W        W12595   4.788  19.233   1.442
47116W        W12596  13.187   5.914   1.226
47117W        W12597  19.247  22.729   3.764
47118W        W12598   3.232  41.454   4.347
47119W        W12599   3.453  15.276  13.334
47120W        W12600  32.548   7.766  10.512
47121W        W12601  16.764  31.623   2.672
47122W        W12602  10.855  43.894   1.786
47123W        W12603  34.933   1.418  10.478
47124W        W12604  10.746  11.816  14.497
47125W        W12605  44.776  27.113  11.487
47126W        W12606   1.861  19.669  11.565
47127W        W12607  20.685  20.669   1.904
47128W        W12608  43.781  11.697  11.561
47129W        W12609  31.464  35.094  11.865
47130W        W12610  44.851  39.932   3.649
47131W        W12611  16.619  43.476   2.813
47132W        W12612  15.179  30.080  14.780
47133W        W12613  13.256   7.907  12.827
47134W        W12614  11.357  31.077  14.990
47135W        W12615  43.323  33.431  12.382
47136W        W12616  18.112   6.316   3.764
47137W        W12617   9.387  31.628   2.314
47138W        W12618  43.889  23.206   2.732
47139W        W12619  38.441  31.104  13.462
47140W        W12620   7.234  18.295   0.331
47141W        W12621  16.261  38.543  11.534
47142W        W12622  41.955  16.276   0.877
47143W        W12623  23.699  11.168  12.920
47144W        W12624  19.112  42.778  10.415
47145W        W12625   0.785   5.327  14.276
47146W        W12626  34.419   9.764   1.381
47147W        W12627  42.975   8.895   1.337
47148W        W12628  27.466  39.349  12.026
47149W        W12629   4.296  16.646  10.425
47150W        W12630  27.598  33.503  11.426
47151W        W12631  14.215  26.624   4.155
47152W        W12632  32.966   4.263  14.831
47153W        W12633  20.723  12.361  12.063
47154W        W12634  23.527  42.422  10.563
47155W        W12635  18.691  11.274   3.226
47156W        W12636  33.997  11.867  12.491
47157W        W12637  30.600  18.068   4.167
47158W        W12638   7.243  27.003  12.093
47159W        W12639  43.459  22.072  13.392
47160W        W12640  24.181  24.131   4.240
47161W        W12641  21.737  15.118   4.341
47162W        W12642  39.330  29.425  14.938
47163W        W12643   5.355  28.080   4.767
47164W        W12644  44.435  18.668   2.722
47165W        W12645  23.680  23.665   2.219
47166W        W12646   5.869  20.655   2.760
47167W        W12647  27.541  29.118   4.244
47168W        W12648  35.039  12.228  11.929
47169W        W12649  36.384  42.355  12.464
47170W        W12650  30.044  12.666  13.382
47171W        W12651  15.313   0.492   4.141
47172W        W12652  29.649  11.742  12.866
47173W        W12653  23.035  36.924   3.356
47174W        W12654   2.260  18.590   3.235
47175W        W12655  40.998  43.787   4.117
47176W        W12656  34.595  26.182  13.809
47177W        W12657  31.026  10.358  11.538
47178W        W12658  36.098  16.621   2.723
47179W        W12659  33.026   1.733   3.698
47180W        W12660  22.171  34.104  11.579
47181W        W12661  25.581  20.564   3.300
47182W        W12662  34.509   9.836   2.745
47183W        W12663   5.839  13.294  13.491
47184W        W12664  29.523   9.764  12.959
47185W        W12665  27.150  41.951   4.822
47186W        W12666   8.848  32.960  14.508
47187W        W12667  29.099  32.009   2.367
47188W        W12668  35.884  38.970   4.269
47189W        W12669   6.830  26.112  12.952
47190W        W12670   3.893  36.589  14.766
47191W        W12671  40.374  31.417   3.323
47192W        W12672  21.733  34.433   3.800
47193W        W12673  10.814  11.310   2.392
47194W        W12674  23.661  18.246  12.904
47195W        W12675   2.830  42.987  11.009
47196W        W12676  39.810   5.285  14.761
47197W        W12677   9.253  11.636  11.958
47198W        W12678  31.537   7.316   1.397
47199W        W12679  27.138  34.473   4.768
47200W        W12680  35.545  32.487   2.874
47201W        W12681  27.968   6.306  13.974
47202W        W12682  18.148  38.528   2.767
47203W        W12683  36.370  35.564   1.741
47204W        W12684  40.538  11.255   3.200
47205W        W12685  26.159  30.605   2.273
47206W        W12686  22.129  12.655  14.796
47207W        W12687  39.423  20.257  14.307
47208W        W12688  10.367  26.990  12.839
47209W        W12689  29.924  26.139   3.276
47210W        W12690   5.710   8.742  14.912
47211W        W12691  35.948  37.009  11.575
47212W        W12692  14.589   7.198   5.133
47213W        W12693  15.148  39.500  12.037
47214W        W12694  43.926  17.774  13.457
47215W        W12695  23.195   1.369   9.520
47216W        W12696  23.587   1.238  12.363
47217W        W12697  22.128  18.721   3.768
47218W        W12698  40.326  35.505  14.376
47219W        W12699  12.706  31.442  12.396
47220W        W12700  38.564   9.167   3.704
47221W        W12701  43.780   6.748   3.631
47222W        W12702  31.610   7.890  12.374
47223W        W12703   3.902  18.734   0.467
47224W        W12704  43.942  38.874   2.363
47225W        W12705  28.081  25.677  14.940
47226W        W12706  17.603   2.446   3.747
47227W        W12707  25.010  26.183   4.703
47228W        W12708  21.571   2.748   4.798
47229W        W12709  13.123  34.067  11.434
47230W        W12710  37.498  22.569  10.507
47231W        W12711  39.035  10.297   3.764
47232W        W12712  22.107  38.995  12.515
47233W        W12713  27.045   1.477  11.125
47234W        W12714  38.065  34.990  12.401
47235W        W12715   9.817  12.617  14.315
47236W        W12716  15.216  23.692  10.438
47237W        W12717  44.409  34.079   3.691
47238W        W12718  34.879  33.520   9.992
47239W        W12719  22.659   4.246  13.442
47240W        W12720   8.245   2.415  11.890
47241W        W12721  34.897  39.049   0.324
47242W        W12722  36.398  17.560  13.008
47243W        W12723  20.578  41.861  13.364
47244W        W12724  12.333  26.468  14.419
47245W        W12725   5.884  34.510   9.627
47246W        W12726   0.490  25.590   4.630
47247W        W12727  36.576   8.309   1.404
47248W        W12728  16.800  40.528   4.354
47249W        W12729  30.426  36.380   0.912
47250W        W12730  22.146  41.459   2.267
47251W        W12731  18.163  33.508  11.125
47252W        W12732  19.284  14.239  12.344
47253W        W12733   3.747  27.989   2.203
47254W        W12734  30.453  32.946  12.987
47255W        W12735  34.952  41.405   2.733
47256W        W12736  16.578  39.515   3.817
47257W        W12737  23.190  41.333  14.014
47258W        W12738   7.692  29.600  13.395
47259W        W12739  24.036  14.280   4.123
47260W        W12740   8.862  18.085  10.047
47261W        W12741   0.896   3.346  10.625
47262W        W12742   2.371  23.059   1.777
47263W        W12743  34.884   2.455  13.360
47264W        W12744  10.780  14.617   3.749
47265W        W12745  39.401  29.112  10.478
47266W        W12746   6.381  23.229  13.861
47267W        W12747  41.041  25.982  13.413
47268W        W12748  44.842  40.478  14.472
47269W        W12749   9.288  26.966  11.988
47270W        W12750  13.213  13.213  10.510
47271W        W12751   4.258  18.196  14.891
47272W        W12752   4.889  13.301  14.387
47273W        W12753  42.416  15.616  14.994
47274W        W12754  12.822  30.438   0.964
47275W        W12755  10.729  23.168   2.749
47276W        W12756  15.650   2.311  10.549
47277W        W12757  41.984   6.287  12.045
47278W        W12758   7.685  12.767   1.903
47279W        W12759  27.514  40.994   3.164
47280W        W12760  10.784   4.802  14.387
47281W        W12761  11.824  24.992  11.112
47282W        W12762  33.992  32.432   3.655
47283W        W12763  42.975  20.678   3.642
47284W        W12764   2.841  33.914   1.921
47285W        W12765  36.924  34.538   3.648
47286W        W12766  31.615  25.171  11.883
47287W        W12767  28.614  40.894   3.300
47288W        W12768  44.903  15.230   2.373
47289W        W12769  24.173   4.899   5.092
47290W        W12770  11.720  30.575   3.779
47291W        W12771  31.515  13.329   3.285
47292W        W12772  42.443  43.859   0.281
47293W        W12773  25.641   4.345  11.451
47294W        W12774  41.514  15.200  11.051
47295W        W12775  35.907  11.170   4.723
47296W        W12776  32.133  37.426  12.350
47297W        W12777  12.627  41.317   1.351
47298W        W12778  13.258   9.238  11.022
47299W        W12779  22.172   8.806  10.605
47300W        W12780   7.269  38.840  11.597
47301W        W12781  17.234   2.264   3.335
47302W        W12782   9.668  31.592   2.866
47303W        W12783   6.851   5.344   1.299
47304W        W12784  20.688  24.689  14.837
47305W        W12785   0.743  39.006   4.799
47306W        W12786  41.825  40.860   1.869
47307W        W12787  17.157  18.123   4.787
47308W        W12788  36.957  27.637  12.409
47309W        W12789  28.943   3.941   4.781
47310W        W12790  12.278  26.164   1.707
47311W        W12791  35.078  26.971   2.238
47312W        W12792  11.626   9.710   2.260
47313W        W12793  38.353  21.751  10.606
47314W        W12794  27.586   7.247  13.538
47315W        W12795  44.331  14.199   0.831
47316W        W12796  42.827  37.488  11.419
47317W        W12797  40.334  16.615  12.485
47318W        W12798  38.908  10.306   1.300
47319W        W12799   0.426  14.641   0.802
47320W        W12800  11.730  40.462   2.238
47321W        W12801  40.853  22.193   3.174
47322W        W12802  41.979  31.600  13.475
47323W        W12803  38.981   0.903   2.342
47324W        W12804  38.931  25.168  12.039
47325W        W12805  40.971  20.707  13.378
47326W        W12806  10.741   3.892  12.501
47327W        W12807  17.107  25.495  12.929
47328W        W12808  29.042  41.024   2.367
47329W        W12809  42.482  36.959   4.618
47330W        W12810   5.225  13.689  13.944
47331W        W12811   1.851  34.930   0.413
47332W        W12812  26.016   5.285  13.969
47333W        W12813   7.743  20.075   3.292
47334W        W12814  37.343  26.969  14.423
47335W        W12815  31.575   4.847  10.521
47336W        W12816  10.342   1.793  13.855
47337W        W12817  19.677   6.427  11.914
47338W        W12818   1.284  36.970   4.778
47339W        W12819  11.691  22.116   3.683
47340W        W12820   1.738   9.210   2.274
47341W        W12821  34.415  25.211   1.277
47342W        W12822   7.845  43.896  11.451
47343W        W12823  30.127  22.614  12.042
47344W        W12824  41.501  38.057  11.373
47345W        W12825   1.262  42.991   1.832
47346W        W12826  14.252  23.612   3.310
47347W        W12827  37.031  43.939   0.364
47348W        W12828  23.116  16.297  14.968
47349W        W12829  33.616  36.410  14.944
47350W        W12830  17.713  39.915   2.800
47351W        W12831  26.553  24.000   2.372
47352W        W12832   2.960  19.678  10.642
47353W        W12833  15.763  44.262   2.784
47354W        W12834  40.856   4.313  13.347
47355W        W12835  31.573  15.759   1.849
47356W        W12836  42.375  12.835   0.809
47357W        W12837  12.680  13.609   3.749
47358W        W12838  26.032  36.897  10.563
47359W        W12839   6.764  42.836  11.452
47360W        W12840  10.337  42.783   0.360
47361W        W12841  40.033  42.437   2.373
47362W        W12842   4.279   1.324  11.403
47363W        W12843   0.311  30.417  13.524
47364W        W12844  31.144   6.407   4.788
47365W        W12845  32.479  24.497   0.895
47366W        W12846  16.151   3.746   4.675
47367W        W12847  16.130  14.151  14.481
47368W        W12848  20.579   1.953  12.391
47369W        W12849   7.722  17.693   4.202
47370W        W12850  30.580  33.063  14.941
47371W        W12851  29.113   3.417  12.952
47372W        W12852  32.442  18.585   3.654
47373W        W12853  44.429  11.203  12.404
47374W        W12854  16.723  37.520  14.280
47375W        W12855   3.255  37.447   0.856
47376W        W12856  28.527  21.551  11.033
47377W        W12857  44.827  37.403   0.881
47378W        W12858  16.637  31.487  14.302
47379W        W12859   4.813   2.463   2.375
47380W        W12860  26.184  12.750  14.796
47381W        W12861   4.245  12.153   4.235
47382W        W12862  29.611   8.670   2.233
47383W        W12863  36.395   0.271  14.352
47384W        W12864  36.388   7.715  10.607
47385W        W12865   5.769  27.981  13.341
47386W        W12866  18.553  35.093  14.920
47387W        W12867  33.024   9.862  13.455
47388W        W12868  16.710  19.074   3.680
47389W        W12869  12.183  21.711  12.485
47390W        W12870  22.567  38.045  14.830
47391W        W12871   5.807  10.180  14.479
47392W        W12872  10.676  11.144  13.949
47393W        W12873  32.580  18.668  11.954
47394W        W12874  29.484   9.332   2.336
47395W        W12875  14.316  40.900   0.307
47396W        W12876   5.695  19.681  11.988
47397W        W12877  28.586  29.445  12.075
47398W        W12878  31.646  24.500   3.254
47399W        W12879  37.527  39.855  10.592
47400W        W12880   0.946  24.195   2.738
47401W        W12881  29.001   4.880  10.073
47402W        W12882  31.439  32.423   0.412
47403W        W12883  37.045  39.962  10.932
47404W        W12884  36.078   1.880  14.380
47405W        W12885  17.613  12.687   1.922
47406W        W12886  15.643  42.973  12.982
47407W        W12887  23.988  12.644   2.270
47408W        W12888  27.163  20.134   3.773
47409W        W12889  34.016   7.377  11.537
47410W        W12890  13.269  31.523  12.849
47411W        W12891  12.237  31.494  13.545
47412W        W12892  31.505  31.600   2.718
47413W        W12893   9.879  19.087   3.351
47414W        W12894  37.443  26.077   0.352
47415W        W12895  31.052  37.492  10.969
47416W        W12896  36.950  26.052   3.263
47417W        W12897   4.230  13.610  13.036
47418W        W12898   9.328  40.868   1.771
47419W        W12899  35.596  31.110  13.833
47420W        W12900  23.068  36.542  10.598
47421W        W12901  26.090  14.788  12.400
47422W        W12902  25.106   2.758  10.925
47423W        W12903   4.861  36.383  13.469
47424W        W12904  43.297  26.168   4.286
47425W        W12905  10.140  21.149   2.870
47426W        W12906   5.201  28.021   3.791
47427W        W12907  22.578  31.512   3.868
47428W        W12908  23.718  15.191  11.001
47429W        W12909   1.943  39.881  10.414
47430W        W12910   8.682   8.864  11.592
47431W        W12911   7.821   5.828   2.340
47432W        W12912   5.731  38.847  14.965
47433W        W12913  39.467  11.139  14.812
47434W        W12914  20.604  32.935  14.422
47435W        W12915   7.696  24.493  13.445
47436W        W12916  11.210  18.058  10.482
47437W        W12917  40.357   2.848   2.843
47438W        W12918  39.926  35.879   1.896
47439W        W12919   9.881  42.282   4.179
47440W        W12920  22.554  15.696   0.284
47441W        W12921  12.309  35.964   4.652
47442W        W12922   9.854  33.023   0.939
47443W        W12923  32.921  40.370   4.238
47444W        W12924  22.118  13.828   0.764
47445W        W12925   5.769  28.463   2.198
47446W        W12926  29.548  36.400   4.684
47447W        W12927  38.331   0.777   3.681
47448W        W12928   7.885  39.528   1.912
47449W        W12929  33.453  41.025  14.773
47450W        W12930  36.090  34.430   1.416
47451W        W12931  21.157   2.335   0.747
47452W        W12932  15.719  20.727  12.875
47453W        W12933  36.896   9.158  11.959
47454W        W12934  25.708  41.396  11.552
47455W        W12935   0.367  18.197  10.410
47456W        W12936  44.801   4.319   3.182
47457W        W12937  38.467   2.386  13.821
47458W        W12938  12.623   0.250  11.103
47459W        W12939  34.093   7.337   1.216
47460W        W12940  34.462  32.572   2.233
47461W        W12941  43.454  10.237  14.336
47462W        W12942  38.886  20.743  14.374
47463W        W12943  35.036  34.910  13.064
47464W        W12944  36.432   8.715   3.362
47465W        W12945  29.579  18.731   2.682
47466W        W12946  33.068  24.101  14.942
47467W        W12947  42.927  17.606   4.189
47468W        W12948  40.374  41.028   3.717
47469W        W12949  13.764   2.887   4.703
47470W        W12950   9.868  35.439   4.280
47471W        W12951  24.227  16.207   4.144
47472W        W12952   4.358  41.413   0.941
47473W        W12953  20.077   0.759  14.997
47474W        W12954  27.147   6.778  12.049
47475W        W12955  12.640  26.499   1.210
47476W        W12956  15.649  11.674  10.623
47477W        W12957  14.762  24.683   2.352
47478W        W12958  38.896  19.248  11.601
47479W        W12959   8.739   6.884  13.428
47480W        W12960  28.601  44.378  12.860
47481W        W12961  25.638  40.893  10.509
47482W        W12962  13.130  11.139   3.681
47483W        W12963  21.712  15.820  14.432
47484W        W12964  31.981  17.106   4.675
47485W        W12965  27.663  31.446   3.169
47486W        W12966  34.529   2.416   2.408
47487W        W12967  40.457  37.450   5.297
47488W        W12968  26.470   2.741  13.404
47489W        W12969   7.832  18.101  10.949
47490W        W12970  25.007   3.427  11.900
47491W        W12971  10.800   1.922   3.816
47492W        W12972   0.876   3.244   9.982
47493W        W12973  34.441  36.395  10.487
47494W        W12974  17.620  39.376   2.265
47495W        W12975  18.578  26.012   2.847
47496W        W12976  25.134  28.528   4.298
47497W        W12977  28.554   5.411   3.234
47498W        W12978  26.069  18.741   1.443
47499W        W12979  11.629  15.595   2.315
47500W        W12980  42.873  27.998   2.213
47501W        W12981  10.655   8.238  11.959
47502W        W12982  22.210  11.757  10.943
47503W        W12983  27.964  38.028  13.486
47504W        W12984  38.860   9.224   3.366
47505W        W12985  41.486   9.345   1.265
47506W        W12986  27.692  25.692   2.338
47507W        W12987  17.723  31.608  10.492
47508W        W12988   7.695  14.800   3.858
47509W        W12989  43.991  40.798  14.372
47510W        W12990  38.984  21.707  12.017
47511W        W12991   5.416  43.370  11.577
47512W        W12992  29.979  27.093  13.823
47513W        W12993   4.383  27.100  13.430
47514W        W12994   5.424  16.732   2.319
47515W        W12995  24.708   0.283   1.788
47516W        W12996  30.424   1.848   3.289
47517W        W12997  34.059  40.370  12.397
47518W        W12998  37.020   2.350   3.176
47519W        W12999  44.823  19.730   2.889
47520W        W13000  18.602  20.189   1.846
47521W        W13001   0.304   7.355  14.784
47522W        W13002  26.526  37.973  10.506
47523W        W13003  38.992  34.002  10.408
47524W        W13004   1.934  16.762   1.917
47525W        W13005  41.363  31.450   2.853
47526W        W13006   3.870  35.380   1.314
47527W        W13007  24.636  15.663  10.423
47528W        W13008  28.471  31.535  10.925
47529W        W13009   2.226  23.113   3.273
47530W        W13010  41.426  22.244   1.360
47531W        W13011  10.180  10.156  14.940
47532W        W13012  12.809  23.494  12.900
47533W        W13013  27.113  17.637   4.624
47534W        W13014  39.015  27.962   0.734
47535W        W13015  14.268  41.823  11.589
47536W        W13016  22.556  29.461  10.460
47537W        W13017   8.341  39.524  14.416
47538W        W13018  28.002  43.812   4.298
47539W        W13019  11.209  13.120   3.305
47540W        W13020  11.701  17.170   5.157
47541W        W13021  43.471   7.844  14.973
47542W        W13022  26.665  32.005  10.948
47543W        W13023   1.961  43.977   2.213
47544W        W13024  20.213  18.232  12.358
47545W        W13025   7.297  19.258  11.399
47546W        W13026  24.697   3.841   2.779
47547W        W13027   3.363  35.369  14.844
47548W        W13028  16.294  14.829  13.918
47549W        W13029  13.748  18.691   2.187
47550W        W13030  36.991  25.091   4.155
47551W        W13031  34.086   2.356  12.891
47552W        W13032  15.277   1.370   2.365
47553W        W13033  17.139  21.106   3.174
47554W        W13034  27.132  35.411  10.903
47555W        W13035  17.224   3.321   2.263
47556W        W13036  13.206  34.372   2.670
47557W        W13037  11.215  30.554   4.192
47558W        W13038  24.157  35.585  14.355
47559W        W13039  26.963  38.047   3.217
47560W        W13040  42.033   7.251   3.679
47561W        W13041  22.172   8.192  14.394
47562W        W13042   7.362  41.992  12.470
47563W        W13043  30.502  12.715   2.192
47564W        W13044  14.834  30.413   4.143
47565W        W13045  36.914  36.394   2.298
47566W        W13046  28.006  23.677   2.812
47567W        W13047  24.597  44.970   0.468
47568W        W13048  38.017   7.809   3.385
47569W        W13049  43.993  25.546  14.436
47570W        W13050  43.473   8.791  14.434
47571W        W13051  22.561   9.286  14.359
47572W        W13052   4.713   6.916   3.801
47573W        W13053  13.176   8.734   3.173
47574W        W13054  18.708  43.276   0.791
47575W        W13055   1.466  24.975   0.477
47576W        W13056   2.462   0.884  12.964
47577W        W13057   2.407  42.924  11.958
47578W        W13058  33.962  27.160   0.917
47579W        W13059  24.096   7.837   4.673
47580W        W13060   9.849   9.307  11.943
47581W        W13061  16.722  13.840  14.846
47582W        W13062  39.878  30.603  12.853
47583W        W13063  20.528   4.337  13.486
47584W        W13064  29.652   4.261   2.787
47585W        W13065  12.170   1.312   1.442
47586W        W13066  11.823  39.368  14.839
47587W        W13067  26.079  34.005  13.976
47588W        W13068  25.473  30.997   0.243
47589W        W13069  42.780  20.661   2.670
47590W        W13070   0.823   7.781   1.719
47591W        W13071  28.646  41.877  13.957
47592W        W13072   4.719   4.332   4.333
47593W        W13073  13.601  40.878   4.263
47594W        W13074  43.323  13.301  10.603
47595W        W13075  34.425  32.573  12.419
47596W        W13076   6.723   7.315  12.937
47597W        W13077  18.139   3.781   0.931
47598W        W13078  28.025  33.984  11.412
47599W        W13079  15.811   5.820   4.260
47600W        W13080  44.009  11.859   3.820
47601W        W13081   1.245  20.677  14.333
47602W        W13082  41.411  22.568  14.840
47603W        W13083  25.172   4.288   1.311
47604W        W13084  29.001  19.731  10.462
47605W        W13085  38.869  33.105  14.434
47606W        W13086  16.286  22.698   2.365
47607W        W13087   5.713  17.611   0.853
47608W        W13088   8.189  29.949   2.839
47609W        W13089  30.933  27.485   3.723
47610W        W13090  19.171  12.829   4.335
47611W        W13091  24.011  41.838  11.053
47612W        W13092  41.931  10.314   2.371
47613W        W13093  26.960   5.698   0.964
47614W        W13094  32.018  27.585   4.161
47615W        W13095   2.882  23.129   2.850
47616W        W13096  17.674   7.813  13.319
47617W        W13097  16.734  12.339   2.305
47618W        W13098  31.971   5.340   4.172
47619W        W13099  10.691  43.409   3.256
47620W        W13100  25.645  16.168   1.361
47621W        W13101  16.697  44.502  10.469
47622W        W13102  19.235  35.563  10.604
47623W        W13103  38.889  14.298  11.039
47624W        W13104   4.717  23.094   4.281
47625W        W13105   4.904  21.122   3.858
47626W        W13106  33.961  26.488   2.770
47627W        W13107  17.301  39.457   2.771
47628W        W13108  26.649   0.977   3.165
47629W        W13109  44.824  35.028   2.213
47630W        W13110  13.772  12.619   4.705
47631W        W13111   8.335  33.503  10.510
47632W        W13112  20.610   7.220   0.963
47633W        W13113   0.775  44.997  14.008
47634W        W13114  31.900  17.567  14.830
47635W        W13115  20.694  19.169   0.359
47636W        W13116  16.166  22.698   0.312
47637W        W13117  31.409  15.665  14.327
47638W        W13118  33.050  33.074   0.278
47639W        W13119  35.573  25.071  10.471
47640W        W13120   2.960   5.214   2.188
47641W        W13121  31.917  21.581   3.736
47642W        W13122  10.377  22.083   2.775
47643W        W13123  43.398  13.673   2.348
47644W        W13124   5.426   8.879   0.762
47645W        W13125  17.109  41.996  14.792
47646W        W13126  14.703   2.812   2.199
47647W        W13127  44.367  20.733  13.860
47648W        W13128  12.185   9.802  13.420
47649W        W13129  29.520  21.715  13.492
47650W        W13130  42.488  32.560  14.971
47651W        W13131  18.778  43.378  14.335
47652W        W13132   9.850  10.669  10.445
47653W        W13133  32.396  44.850   1.779
47654W        W13134  21.735  32.473   0.256
47655W        W13135   0.825  22.549   0.440
47656W        W13136  22.153  30.002   1.407
47657W        W13137  36.864  26.533  12.925
47658W        W13138  38.984  18.260  13.309
47659W        W13139  40.382   2.395   1.747
47660W        W13140  11.213  13.636   4.211
47661W        W13141   9.749  20.683  13.348
47662W        W13142  32.540   1.841  13.409
47663W        W13143  18.732  31.511   2.418
47664W        W13144  36.532  28.121  11.036
47665W        W13145  32.014  31.473  14.769
47666W        W13146  14.338  26.622   0.965
47667W        W13147  16.695  21.177   2.399
47668W        W13148   8.347  39.548  12.867
47669W        W13149  31.966  26.136   4.778
47670W        W13150  10.820  23.715  13.488
47671W        W13151  30.088  23.213  12.973
47672W        W13152  11.689  44.876  11.868
47673W        W13153  12.848  33.426   4.302
47674W        W13154  38.343  29.007  12.357
47675W        W13155  37.948  30.531   2.300
47676W        W13156  38.409  25.187   1.720
47677W        W13157  38.485  38.011  11.584
47678W        W13158  43.823  32.983  12.926
47679W        W13159  34.905  32.410  14.991
47680W        W13160  25.670  27.599   2.663
47681W        W13161   8.298  39.028  14.333
47682W        W13162  37.464  11.821   0.736
47683W        W13163  34.886  16.112  14.015
47684W        W13164  42.875  30.978  13.031
47685W        W13165   8.240   9.225  13.813
47686W        W13166  39.049  26.117  11.544
47687W        W13167  18.749  14.733  11.955
47688W        W13168  25.581  43.866   1.229
47689W        W13169  12.184  25.661   2.724
47690W        W13170  12.316  17.175   0.301
47691W        W13171  20.224  30.416   5.208
47692W        W13172  18.101  15.223  14.879
47693W        W13173   3.777  15.315   3.168
47694W        W13174  35.937  34.927  13.391
47695W        W13175  12.248  13.195  12.505
47696W        W13176  32.627   2.270   4.132
47697W        W13177  21.577  44.970  12.365
47698W        W13178  16.754  40.512  10.605
47699W        W13179   6.784  41.361   2.179
47700W        W13180   6.395  15.248   1.326
47701W        W13181  40.946   3.938  12.372
47702W        W13182  27.604  12.287  11.870
47703W        W13183  13.251  40.964  13.926
47704W        W13184  36.968  33.455  12.341
47705W        W13185   3.303  21.701  13.041
47706W        W13186  18.649  36.040   1.833
47707W        W13187   0.292  11.190   3.350
47708W        W13188  39.886   8.260  13.983
47709W        W13189  23.655  33.499   3.190
47710W        W13190  29.575   1.933  11.561
47711W        W13191  15.158   5.294   0.344
47712W        W13192  36.552  36.981   0.468
47713W        W13193   8.280  32.577  13.839
47714W        W13194  35.909  30.624   1.431
47715W        W13195   2.417  44.830  11.880
47716W        W13196  34.428  13.659  12.342
47717W        W13197  31.101  14.304  13.403
47718W        W13198  33.621  26.553  11.466
47719W        W13199  16.637  24.181   3.814
47720W        W13200   5.428   5.343  13.440
47721W        W13201  16.742  33.446   1.237
47722W        W13202   2.366  21.238   0.870
47723W        W13203  18.294  19.726   2.857
47724W        W13204  10.193  21.515   0.853
47725W        W13205  41.837  26.064   1.444
47726W        W13206  17.669   0.456  13.426
47727W        W13207  14.096  39.844   3.671
47728W        W13208  35.012   0.435   3.269
47729W        W13209  33.597  37.520   3.705
47730W        W13210  12.764  39.873   2.275
47731W        W13211  20.113  43.010  14.364
47732W        W13212  34.037  10.788   2.889
47733W        W13213  10.669  36.888  10.447
47734W        W13214  15.708  20.198  12.932
47735W        W13215  13.319  34.562   4.668
47736W        W13216  15.757  24.676   2.670
47737W        W13217   8.233  12.669  13.425
47738W        W13218  26.107   0.934  11.008
47739W        W13219  30.480  27.041  12.090
47740W        W13220  12.781  13.801   0.843
47741W        W13221  19.677  33.989   3.380
47742W        W13222  19.730  13.325   0.729
47743W        W13223  35.494  38.042   4.612
47744W        W13224  36.061  24.520  14.795
47745W        W13225  18.559  19.769   1.279
47746W        W13226   6.425  10.834   4.143
47747W        W13227  32.142  14.173  14.958
47748W        W13228  20.094  11.206   1.747
47749W        W13229  31.991   6.384  11.954
47750W        W13230   4.744  41.333   4.139
47751W        W13231  39.823  39.520  14.813
47752W        W13232  32.445   4.710  12.436
47753W        W13233  36.386  27.055  14.429
47754W        W13234  23.650  28.971   0.932
47755W        W13235  32.468  36.427   0.827
47756W        W13236  35.934   3.892   3.661
47757W        W13237   7.238  21.650  12.054
47758W        W13238  39.361  39.397   1.735
47759W        W13239  34.921  43.474  14.323
47760W        W13240  20.634  36.538   4.161
47761W        W13241  30.613  41.011  14.447
47762W        W13242   1.770  36.895   1.768
47763W        W13243  33.001  23.509   4.312
47764W        W13244  14.285  16.091   1.748
47765W        W13245  10.314  29.550   3.221
47766W        W13246  44.379  20.142   1.919
47767W        W13247  42.825  18.142  13.539
47768W        W13248  37.083  37.476  11.908
47769W        W13249  22.028  31.049   4.599
47770W        W13250   8.207  31.495  12.835
47771W        W13251  31.118  35.967  13.850
47772W        W13252  23.641   4.340   2.270
47773W        W13253  41.935  37.934  10.637
47774W        W13254   1.745   0.324  11.940
47775W        W13255  35.471  24.649  10.607
47776W        W13256  16.593  16.138   3.153
47777W        W13257  10.688   6.401  11.524
47778W        W13258  43.408  44.396  12.077
47779W        W13259  16.798  38.957  12.826
47780W        W13260  19.262  25.636   3.146
47781W        W13261   9.381  16.779   1.351
47782W        W13262  27.002  20.766   1.248
47783W        W13263   6.191  34.868  12.922
47784W        W13264  40.484   1.320  10.410
47785W        W13265  10.291  11.812   1.797
47786W        W13266   5.330   3.829   0.927
47787W        W13267  39.030  39.460  12.869
47788W        W13268   2.817  18.552   0.420
47789W        W13269  11.158  21.672   0.291
47790W        W13270  17.097   9.741   2.320
47791W        W13271  41.020   5.814  13.482
47792W        W13272  42.403  29.491  10.459
47793W        W13273  14.131  12.777  11.048
47794W        W13274   4.285  24.226   4.184
47795W        W13275  26.541   7.266  13.961
47796W        W13276  25.025  38.397  10.593
47797W        W13277  18.282  38.563  14.363
47798W        W13278  10.722  15.300   2.315
47799W        W13279  31.152  27.496   1.832
47800W        W13280  13.191  28.495   4.202
47801W        W13281  41.416   4.939  11.089
47802W        W13282  30.919  10.196   2.375
47803W        W13283  30.966  35.081  11.543
47804W        W13284  15.133  30.948  10.529
47805W        W13285  17.211  24.711  14.470
47806W        W13286   3.842  26.524  11.431
47807W        W13287  16.243  26.168   2.735
47808W        W13288  39.554  12.810   2.710
47809W        W13289  21.654  14.130   2.290
47810W        W13290   8.349  13.328  11.440
47811W        W13291  18.785  27.512   0.889
47812W        W13292  24.543  42.930  10.960
47813W        W13293  14.592  42.821  11.439
47814W        W13294  36.039   4.848   1.287
47815W        W13295  16.265  10.279   3.374
47816W        W13296  35.062  17.250   2.818
47817W        W13297  27.984  30.019  12.339
47818W        W13298  32.623  24.991   0.256
47819W        W13299  18.544  37.361  14.988
47820W        W13300   1.414  28.599   0.815
47821W        W13301  25.133  29.457   4.147
47822W        W13302  16.132  32.964  11.994
47823W        W13303  35.858  31.962   4.330
47824W        W13304  18.667  44.298   9.968
47825W        W13305  25.213  29.463  13.372
47826W        W13306  21.623  29.142  13.792
47827W        W13307  14.285  29.081  12.975
47828W        W13308  39.025   5.415   0.373
47829W        W13309  22.030  39.408  13.828
47830W        W13310   2.777  35.446   0.797
47831W        W13311  16.690  35.404   0.333
47832W        W13312  44.925   1.898  10.602
47833W        W13313  22.675  13.119   0.920
47834W        W13314   3.219  33.562   4.630
47835W        W13315   1.259  12.854   0.763
47836W        W13316  43.314   2.832   1.825
47837W        W13317  29.427  24.093  10.525
47838W        W13318  23.178  34.986  10.940
47839W        W13319  26.039   8.164  12.960
47840W        W13320   0.288   4.911   1.252
47841W        W13321  30.544  11.339   0.774
47842W        W13322  37.467  27.038   4.606
47843W        W13323   8.241  22.146  14.895
47844W        W13324  33.892   0.259   2.673
47845W        W13325  23.718   7.330   5.115
47846W        W13326  12.135  28.436  10.442
47847W        W13327  25.542  11.369   2.687
47848W        W13328  38.969  12.616  13.393
47849W        W13329  17.792  29.624  12.548
47850W        W13330  39.397  37.064  12.981
47851W        W13331  25.677  33.385  13.483
47852W        W13332  40.834  34.486  10.559
47853W        W13333  24.634  12.662  12.528
47854W        W13334  17.202  44.982   0.433
47855W        W13335  10.248  12.686  13.397
47856W        W13336   8.386  31.525   0.456
47857W        W13337  28.975  39.429   2.314
47858W        W13338  20.559  21.025   4.826
47859W        W13339   9.151   5.230   4.176
47860W        W13340   1.779   1.311   1.258
47861W        W13341  12.277  17.783   1.275
47862W        W13342  28.944  34.919  13.851
47863W        W13343  21.038  22.036   1.863
47864W        W13344   8.803  31.055  12.065
47865W        W13345  29.474   2.919   0.479
47866W        W13346  25.532  38.067  10.952
47867W        W13347  19.600  31.643  13.062
47868W        W13348  28.514  34.422  12.058
47869W        W13349  36.583  28.130   2.192
47870W        W13350  25.678  28.173  11.960
47871W        W13351  32.032   0.480  11.016
47872W        W13352  12.620  40.824   0.249
47873W        W13353   4.229  38.491   2.348
47874W        W13354  12.196  12.714   1.835
47875W        W13355  12.159  42.434   3.731
47876W        W13356  44.963  21.714  14.811
47877W        W13357  23.733  37.378   3.680
47878W        W13358   6.406  14.333   1.761
47879W        W13359  10.372   7.884   5.145
47880W        W13360   9.763   4.749  11.866
47881W        W13361  24.029   2.315   1.782
47882W        W13362   5.252  33.895  14.829
47883W        W13363  42.976  38.359  10.057
47884W        W13364  43.852  38.431  14.289
47885W        W13365  38.003  27.053   1.720
47886W        W13366  11.688  24.117   0.445
47887W        W13367  32.449  41.850  14.504
47888W        W13368   9.329  24.167   3.384
47889W        W13369  40.049  36.496  12.052
47890W        W13370   8.775  14.640   1.708
47891W        W13371  20.238  34.099   1.323
47892W        W13372   5.855  36.062   4.221
47893W        W13373  24.506   9.260  10.917
47894W        W13374  34.065   7.867   1.734
47895W        W13375  43.791  15.129   3.185
47896W        W13376   9.360  20.694  11.121
47897W        W13377  12.236  41.932   0.452
47898W        W13378   3.337  15.193   2.270
47899W        W13379  28.561  36.975  12.056
47900W        W13380  17.185  25.572   1.851
47901W        W13381  24.159  14.783   2.390
47902W        W13382  20.072   2.884  13.004
47903W        W13383  12.764  43.301   0.304
47904W        W13384  15.622  39.447  10.585
47905W        W13385  43.984  10.719  13.422
47906W        W13386  21.084  35.379  14.943
47907W        W13387   9.725  19.533  14.980
47908W        W13388  43.936   4.742  10.526
47909W        W13389  29.595  42.483   0.916
47910W        W13390  21.682  44.756  12.048
47911W        W13391  37.846  32.500   2.324
47912W        W13392   9.778  27.179   1.695
47913W        W13393  11.298  38.944   4.765
47914W        W13394  31.950  36.967   4.167
47915W        W13395   9.157  35.386   1.326
47916W        W13396  11.808  21.520  13.023
47917W        W13397  16.158  42.794  13.426
47918W        W13398  24.036  36.442  14.376
47919W        W13399  41.008   1.286  13.936
47920W        W13400   2.904  39.370   2.871
47921W        W13401  42.442  11.793   0.337
47922W        W13402  16.693  42.499  11.875
47923W        W13403  11.348  11.168  14.470
47924W        W13404  12.354   6.711  13.355
47925W        W13405  21.590   6.772   0.894
47926W        W13406   9.249  38.016  13.483
47927W        W13407   7.411  10.762  14.767
47928W        W13408   8.697  40.501  13.516
47929W        W13409  16.101  41.998  12.031
47930W        W13410   9.355  15.810   4.337
47931W        W13411   7.403  24.081   3.700
47932W        W13412   9.331  28.585  11.031
47933W        W13413  43.961  32.082  12.956
47934W        W13414  14.205   3.316  12.427
47935W        W13415  32.395  26.566  11.449
47936W        W13416  33.999  35.553  11.095
47937W        W13417  24.088   4.251  13.314
47938W        W13418   1.315  31.520   3.216
47939W        W13419   0.356  39.924  13.989
47940W        W13420   7.207  33.034   0.286
47941W        W13421  39.425   9.338  11.114
47942W        W13422  41.455   4.800   1.800
47943W        W13423  15.664  41.017  13.981
47944W        W13424  27.138   3.917  10.467
47945W        W13425   3.727  40.950   4.773
47946W        W13426  21.589  14.828   4.608
47947W        W13427  14.216  30.939   1.290
47948W        W13428   1.816  26.136   3.630
47949W        W13429  42.947  11.747   0.779
47950W        W13430  39.883  17.741   1.421
47951W        W13431  39.486  10.233  11.864
47952W        W13432  37.917  40.348  10.494
47953W        W13433  22.591   3.902   4.352
47954W        W13434  44.004  28.616  13.536
47955W        W13435   4.308  37.445  12.525
47956W        W13436  28.639  31.424  13.015
47957W        W13437   4.927  24.546  14.406
47958W        W13438   3.459   5.828   3.734
47959W        W13439  27.584   6.756   1.851
47960W        W13440  26.556   9.382  14.964
47961W        W13441  11.270  38.454   4.784
47962W        W13442  23.685  37.536   5.177
47963W        W13443  21.198  22.080   4.260
47964W        W13444  21.630  14.250   4.146
47965W        W13445  40.338  29.989   1.433
47966W        W13446  29.431   6.224   3.334
47967W        W13447  32.903   6.731   4.320
47968W        W13448  28.069  13.161   3.714
47969W        W13449  36.583  26.463  14.903
47970W        W13450  35.514  37.545   1.722
47971W        W13451   5.901  15.673   2.739
47972W        W13452  13.195  39.043  10.975
47973W        W13453   9.170  38.531  11.489
47974W        W13454  33.514   7.189   0.403
47975W        W13455  30.976  41.841   9.984
47976W        W13456  24.560   5.918   0.769
47977W        W13457  34.944  17.718  11.975
47978W        W13458   9.718  30.911   3.200
47979W        W13459  17.606  14.268   3.356
47980W        W13460  31.556  33.499  14.292
47981W        W13461  19.696  37.360  13.330
47982W        W13462  38.356   8.863   1.905
47983W        W13463  10.167  17.129  13.307
47984W        W13464  25.124  33.116  11.091
47985W        W13465  27.067   5.335  13.492
47986W        W13466  34.937   4.863   1.273
47987W        W13467  41.898  27.081  11.526
47988W        W13468  44.910  31.519   3.232
47989W        W13469  20.658  12.679   1.346
47990W        W13470   1.871  28.540  11.912
47991W        W13471  22.672  19.094  11.412
47992W        W13472  34.082   7.721   0.741
47993W        W13473   2.780   3.333   0.290
47994W        W13474  36.888   3.380  14.893
47995W        W13475   1.330   6.420   1.441
47996W        W13476  24.526  40.528   3.197
47997W        W13477   0.962  12.662   2.837
47998W        W13478  13.603  25.181  12.504
47999W        W13479  19.218  35.030  11.127
48000W        W13480   8.287  44.387   1.814
48001W        W13481   1.854   5.351  14.884
48002W        W13482  30.452  16.171   4.139
48003W        W13483  15.205   3.806  13.940
48004W        W13484  32.528  25.962   3.160
48005W        W13485  33.993  32.595   0.895
48006W        W13486  30.064  35.495  11.872
48007W        W13487  17.068   0.819   4.114
48008W        W13488  24.608  37.862  14.878
48009W        W13489  22.603  37.944   4.313
48010W        W13490   4.387  31.082   0.370
48011W        W13491  13.336   3.340   2.767
48012W        W13492  16.780  30.433  11.522
48013W        W13493   5.280  24.696  14.843
48014W        W13494  42.796  15.801  10.924
48015W        W13495  28.153   0.346  13.480
48016W        W13496  35.109  17.130   0.258
48017W        W13497   2.798  30.637   0.412
48018W        W13498  16.207  11.721  13.473
48019W        W13499  30.945  33.623  14.380
48020W        W13500  14.654  43.308   2.411
48021W        W13501   3.923  43.986   0.842
48022W        W13502   4.836  41.372  13.945
48023W        W13503  36.379   8.185  14.913
48024W        W13504   8.766  44.925  13.929
48025W        W13505  23.097  42.343  14.806
48026W        W13506   1.393  33.069  10.052
48027W        W13507  32.060  31.609  11.537
48028W        W13508  35.465  29.538   1.317
48029W        W13509  41.813  20.258  11.582
48030W        W13510   6.427  13.108   3.686
48031W        W13511  14.195  39.915   1.448
48032W        W13512  25.206  37.358   4.264
48033W        W13513  41.882  30.912  11.971
48034W        W13514   1.784  22.998  14.777
48035W        W13515  13.334   2.294   4.685
48036W        W13516  34.451  36.068  11.562
48037W        W13517  29.621  32.914   2.820
48038W        W13518  13.323  21.749  11.447
48039W        W13519  26.583  10.657  14.025
48040W        W13520  37.405   6.326   0.962
48041W        W13521  19.091  21.618   3.294
48042W        W13522   6.747  27.538   0.753
48043W        W13523   6.331  16.101   1.249
48044W        W13524   8.738  32.894   4.333
48045W        W13525   8.170  16.592   2.179
48046W        W13526   6.319  20.232  12.349
48047W        W13527  28.945  37.432   1.216
48048W        W13528  19.145  22.186   2.855
48049W        W13529  30.038  36.555   1.931
48050W        W13530  28.183   5.781   1.379
48051W        W13531  25.497  17.133  10.083
48052W        W13532  27.462  16.691  10.986
48053W        W13533  34.591  22.047  12.896
48054W        W13534  18.181  14.190   1.899
48055W        W13535  11.295   4.248   2.697
48056W        W13536  39.035  18.146   1.719
48057W        W13537  26.551  16.687  10.149
48058W        W13538  16.599   1.823   1.785
48059W        W13539   4.261  34.112  13.400
48060W        W13540  24.674  14.714  10.581
48061W        W13541  38.347  11.808  12.890
48062W        W13542  38.512   7.827   0.916
48063W        W13543  24.479   8.175   3.629
48064W        W13544  18.648  13.260   2.711
48065W        W13545  27.137  23.496  11.457
48066W        W13546   5.214   3.252   2.218
48067W        W13547  17.072  21.228  12.939
48068W        W13548  36.404  19.687   2.796
48069W        W13549  14.303  23.116  12.032
48070W        W13550  43.505  27.634   2.885
48071W        W13551  36.531  32.139   3.363
48072W        W13552  36.524  12.132   0.895
48073W        W13553  40.455   5.399  12.911
48074W        W13554   2.408   6.272   0.328
48075W        W13555   3.403   1.296  14.893
48076W        W13556  35.060   5.688   2.809
48077W        W13557  39.921   6.210   5.142
48078W        W13558  33.937  17.665   4.776
48079W        W13559  26.121  35.855  14.275
48080W        W13560  31.625  13.240  14.298
48081W        W13561  22.513  39.000   1.901
48082W        W13562   3.317  18.163   2.376
48083W        W13563   9.763  13.627  14.284
48084W        W13564  42.309  16.751  11.439
48085W        W13565   1.287  19.637   0.441
48086W        W13566  39.048  13.159   2.223
48087W        W13567  16.151  29.667  13.315
48088W        W13568  29.501  17.555   1.288
48089W        W13569  33.008  12.820   2.766
48090W        W13570  23.686   3.243   1.316
48091W        W13571  42.012  34.582  13.466
48092W        W13572  21.129  26.595  12.562
48093W        W13573   9.281  35.000  13.938
48094W        W13574   1.320  21.086   0.742
48095W        W13575  26.472   5.372  14.869
48096W        W13576  35.372  40.050  11.581
48097W        W13577   0.757  14.153  13.967
48098W        W13578   7.300   4.417   4.140
48099W        W13579  37.909  29.172   3.812
48100W        W13580  26.169  42.496   0.954
48101W        W13581   2.397  19.579   4.136
48102W        W13582  24.073  10.879   0.919
48103W        W13583  16.613   1.436   3.650
48104W        W13584  36.089  20.084   4.729
48105W        W13585  16.271  24.182  13.008
48106W        W13586  22.513  19.549   4.625
48107W        W13587  22.699  41.366   9.956
48108W        W13588  19.274  18.205  12.490
48109W        W13589  19.060  25.153  12.550
48110W        W13590  16.252  26.530   5.197
48111W        W13591  35.042   4.907   2.339
48112W        W13592  24.032   0.748  14.382
48113W        W13593  13.289  44.300  12.904
48114W        W13594   4.427  39.927  14.977
48115W        W13595  34.980   8.859  14.945
48116W        W13596   1.733   0.349   3.828
48117W        W13597  44.373  43.944   2.366
48118W        W13598  15.687   2.775  10.916
48119W        W13599  11.238  22.022  13.047
48120W        W13600  38.449  23.185   1.934
48121W        W13601   2.252  19.580   0.341
48122W        W13602  21.136   4.266  14.952
48123W        W13603  40.543  30.919   0.819
48124W        W13604   1.394  43.793   1.445
48125W        W13605  30.531  23.570   3.175
48126W        W13606  20.610  14.800   2.836
48127W        W13607  10.796  20.036   3.830
48128W        W13608  41.012  10.174  12.980
48129W        W13609  23.601  40.920  13.377
48130W        W13610  25.030  13.643  10.603
48131W        W13611  31.493  39.057   0.460
48132W        W13612  18.727   3.903   3.186
48133W        W13613  24.484  15.206   3.788
48134W        W13614  16.747  17.307  13.922
48135W        W13615   0.865  26.055   3.311
48136W        W13616   5.420  35.519   2.798
48137W        W13617  37.572  37.398   1.731
48138W        W13618  27.038  24.553   2.837
48139W        W13619   9.223  13.837   3.850
48140W        W13620   2.287  15.645   5.148
48141W        W13621  39.035  13.322  11.097
48142W        W13622   4.852   2.813  12.515
48143W        W13623   0.416  21.072   3.185
48144W        W13624   0.312  37.870  10.612
48145W        W13625  29.507  32.932  12.024
48146W        W13626  42.926  20.200   4.295
48147W        W13627  18.259  17.207   2.390
48148W        W13628  39.489  40.984   2.688
48149W        W13629  21.081  29.005  10.049
48150W        W13630  24.981  38.051  11.984
48151W        W13631  21.657   3.229  14.993
48152W        W13632  27.564  12.612   4.254
48153W        W13633  35.071  24.080   2.400
48154W        W13634  22.685  33.051  11.562
48155W        W13635  27.942  21.658  10.450
48156W        W13636  16.278   3.932   1.700
48157W        W13637   9.821   0.380   1.812
48158W        W13638  29.581  30.643  10.998
48159W        W13639  29.994  39.477  11.863
48160W        W13640   2.865  31.972  11.379
48161W        W13641  34.119  19.193   0.792
48162W        W13642  39.361  33.433  11.927
48163W        W13643  20.534  31.951   5.191
48164W        W13644  20.542  40.468   0.290
48165W        W13645   1.382  42.352   4.319
48166W        W13646  41.528  12.668  13.490
48167W        W13647  14.667  18.291   3.191
48168W        W13648  21.036  14.269  12.524
48169W        W13649  35.974   6.199   4.190
48170W        W13650  12.619  17.614   0.760
48171W        W13651  41.420  24.647  11.374
48172W        W13652  28.155  29.173   0.932
48173W        W13653  15.290  11.763  12.491
48174W        W13654  28.499  27.992   4.125
48175W        W13655  24.169  32.551  12.828
48176W        W13656  31.522  31.540  13.510
48177W        W13657  34.097  13.311  13.399
48178W        W13658   1.403  29.642   1.884
48179W        W13659  13.329  11.696  13.813
48180W        W13660  11.248  41.521  13.835
48181W        W13661  42.020  42.891   1.702
48182W        W13662  32.520  24.052  14.977
48183W        W13663   1.869   9.660   4.776
48184W        W13664  27.674  19.184  12.518
48185W        W13665  37.527  37.439  14.965
48186W        W13666  15.731  14.262  13.808
48187W        W13667  25.093  44.952  14.383
48188W        W13668  40.495   9.229  12.426
48189W        W13669  37.060  20.108   0.844
48190W        W13670   5.417  26.007  12.520
48191W        W13671  37.560  17.784   1.925
48192W        W13672  31.515   1.345   0.741
48193W        W13673  13.723  43.794   3.664
48194W        W13674  35.488  34.496  11.537
48195W        W13675  23.009  11.210   3.853
48196W        W13676  19.095  20.661  11.491
48197W        W13677  12.791  38.855  12.912
48198W        W13678  31.906  40.879  13.792
48199W        W13679  36.965  42.379  14.956
48200W        W13680  30.540  13.132  12.005
48201W        W13681  19.059  25.069  13.967
48202W        W13682  27.533  30.017  11.416
48203W        W13683  19.158  15.097  10.911
48204W        W13684  16.569  40.385  13.834
48205W        W13685   9.198  36.495  13.972
48206W        W13686   6.824  18.684  13.509
48207W        W13687  27.680  25.532   4.207
48208W        W13688  15.714  21.178  13.801
48209W        W13689   4.890   6.221   2.182
48210W        W13690  15.274  38.372  13.849
48211W        W13691   4.699  30.054  11.390
48212W        W13692   7.713  40.460   5.230
48213W        W13693  30.152  44.911  12.469
48214W        W13694   4.309  10.356  12.363
48215W        W13695  23.668   7.181   9.444
48216W        W13696   0.912  12.165  11.864
48217W        W13697  31.617  35.934  12.829
48218W        W13698  26.067  44.909  11.425
48219W        W13699  31.105  31.961   4.210
48220W        W13700  43.771  29.549  14.994
48221W        W13701  16.781  10.817   4.186
48222W        W13702  41.514   5.304   2.696
48223W        W13703  16.742  25.175   4.834
48224W        W13704  39.329  13.690  14.341
48225W        W13705  22.597  36.535   2.748
48226W        W13706   5.723  24.107   1.395
48227W        W13707  16.653  28.083  14.955
48228W        W13708  31.960  15.319   4.118
48229W        W13709  13.287  30.653   2.889
48230W        W13710  22.743  20.597  14.767
48231W        W13711  12.856  19.227   3.687
48232W        W13712  19.756  25.992   1.406
48233W        W13713   1.293  30.930  10.597
48234W        W13714  44.350   2.756   2.690
48235W        W13715  27.544  16.179  14.911
48236W        W13716   8.212  27.660   3.774
48237W        W13717  43.979   2.451  14.880
48238W        W13718  30.579  33.420   1.778
48239W        W13719  24.095  41.002   3.729
48240W        W13720  29.149   6.859   2.756
48241W        W13721  12.262  16.193   1.727
48242W        W13722  28.561   6.713   0.859
48243W        W13723   3.343   0.453  12.015
48244W        W13724   7.748  28.490  10.412
48245W        W13725   9.192  34.867  13.436
48246W        W13726   4.928  29.436   0.860
48247W        W13727  15.113  11.283  12.882
48248W        W13728  34.985   8.789  11.045
48249W        W13729  44.281  30.508  11.874
48250W        W13730  25.065  41.021   4.118
48251W        W13731  27.522  30.121  14.356
48252W        W13732  11.293  12.629  11.520
48253W        W13733   2.350   8.289  11.537
48254W        W13734  32.550  18.203   1.885
48255W        W13735   5.853   5.746   1.288
48256W        W13736   0.344  20.067  10.973
48257W        W13737  24.489  27.995  11.512
48258W        W13738  28.014  33.982   0.839
48259W        W13739   2.431  24.509   4.691
48260W        W13740  32.951  40.396  14.467
48261W        W13741  21.689  20.549   0.736
48262W        W13742   2.853  34.916  12.056
48263W        W13743  23.672  15.659   1.213
48264W        W13744  37.860   2.758   1.766
48265W        W13745  32.506   0.465   2.377
48266W        W13746  29.992  24.061  10.899
48267W        W13747   5.888  44.504   4.728
48268W        W13748  36.071  16.740   3.192
48269W        W13749  41.900  35.013   3.718
48270W        W13750  41.342   6.719   4.733
48271W        W13751   1.893   4.229   4.702
48272W        W13752  31.981   2.945  11.612
48273W        W13753   3.295  27.122   1.444
48274W        W13754  44.436   0.882  11.026
48275W        W13755  40.955  25.614  12.568
48276W        W13756  31.595  33.611  10.435
48277W        W13757  41.961  31.576   0.348
48278W        W13758  21.534  39.524  10.538
48279W        W13759  18.165  10.285  12.553
48280W        W13760  25.048  20.707  12.551
48281W        W13761  42.825  20.188  11.400
48282W        W13762   8.894  30.421  11.107
48283W        W13763  36.443  28.462  13.926
48284W        W13764  14.688  15.636   3.364
48285W        W13765  18.149  42.456   3.262
48286W        W13766  38.402  32.444  13.509
48287W        W13767  20.270   9.888  13.534
48288W        W13768   7.244  41.438   2.836
48289W        W13769  18.784   6.340   2.668
48290W        W13770  36.434   6.865   2.293
48291W        W13771  18.128  10.777  13.484
48292W        W13772   6.825  34.566   0.940
48293W        W13773  36.392  28.463   4.629
48294W        W13774  36.508  19.761  12.026
48295W        W13775  42.847   1.455  10.409
48296W        W13776  26.593  17.605   4.315
48297W        W13777  42.910  32.940  11.546
48298W        W13778   9.158   2.784   4.728
48299W        W13779  25.535  27.570   2.286
48300W        W13780  44.006  10.171  10.917
48301W        W13781  22.176   7.817  11.040
48302W        W13782  18.678   5.916  14.386
48303W        W13783  18.783  18.706   1.903
48304W        W13784  14.762  28.637   2.379
48305W        W13785   9.198  36.976  10.430
48306W        W13786   2.376  37.530  14.761
48307W        W13787   6.310  36.475  10.589
48308W        W13788  24.020  20.178  14.458
48309W        W13789  24.523  44.335   1.227
48310W        W13790   3.376  11.806   3.194
48311W        W13791  37.877  26.560   5.178
48312W        W13792   0.472   4.447   1.251
48313W        W13793   2.789  19.755   0.844
48314W        W13794  42.923  39.547  11.035
48315W        W13795  42.420  27.585   0.902
48316W        W13796  29.172  33.620  12.007
48317W        W13797   6.771  39.476   0.774
48318W        W13798  40.926   2.256   3.311
48319W        W13799  40.803  33.036   1.804
48320W        W13800  32.986  17.624   3.372
48321W        W13801  32.989  13.106  10.588
48322W        W13802   7.203   9.878  11.594
48323W        W13803  16.227  27.006  14.345
48324W        W13804  27.519  18.173  11.591
48325W        W13805  35.093   7.864  12.838
48326W        W13806  22.587  23.082   3.281
48327W        W13807  28.050  29.116  14.003
48328W        W13808  38.942   4.385  13.048
48329W        W13809   5.826  36.425   4.278
48330W        W13810  13.166  35.023   2.313
48331W        W13811  39.554  21.614   0.289
48332W        W13812   9.162  38.855   3.665
48333W        W13813  26.671  21.144  10.523
48334W        W13814   8.694  25.158   3.372
48335W        W13815  31.546   3.286   3.840
48336W        W13816  44.908  36.467  10.923
48337W        W13817  35.880  15.587   3.364
48338W        W13818  16.803  41.397   4.736
48339W        W13819  25.219  29.131   1.860
48340W        W13820  39.337  10.681  12.061
48341W        W13821   4.405  18.236   0.378
48342W        W13822  19.660  25.618  12.576
48343W        W13823  37.450  14.280  14.868
48344W        W13824   6.885  39.507  11.503
48345W        W13825  32.100  44.344  11.089
48346W        W13826  17.696  26.178  13.032
48347W        W13827  17.565  31.906   4.702
48348W        W13828  41.889   0.745   1.313
48349W        W13829   7.368  33.557   4.204
48350W        W13830  38.436  13.767  10.549
48351W        W13831  19.091  16.086   4.134
48352W        W13832  14.766  22.665  14.897
48353W        W13833  24.698  40.516   0.866
48354W        W13834  23.997  23.647  10.513
48355W        W13835  17.604  17.155  12.881
48356W        W13836  32.999  13.134  12.447
48357W        W13837  40.448   0.966   4.657
48358W        W13838   1.396  11.848  12.004
48359W        W13839  13.712  10.182   0.741
48360W        W13840  42.363   5.316  13.341
48361W        W13841  34.477   8.883   2.255
48362W        W13842  23.707   8.674   5.295
48363W        W13843  40.338   6.311   2.357
48364W        W13844  35.873  22.147  11.520
48365W        W13845  42.020  36.581   1.822
48366W        W13846   2.278  32.475  13.025
48367W        W13847   1.254  36.092   1.712
48368W        W13848  39.916  34.013   4.763
48369W        W13849   7.306  26.560   1.910
48370W        W13850   4.393   8.793  13.892
48371W        W13851  22.051  14.654  12.957
48372W        W13852  28.114  42.009   4.242
48373W        W13853  42.510   3.459   4.233
48374W        W13854  34.988  21.176  14.465
48375W        W13855  20.200   4.242  11.937
48376W        W13856   8.375  38.072  12.081
48377W        W13857  32.137  27.971  11.525
48378W        W13858  22.740  26.198  11.044
48379W        W13859   4.249  34.426  12.422
48380W        W13860  36.094  22.735  11.604
48381W        W13861  26.001  26.009  12.974
48382W        W13862  38.345  19.753  12.039
48383W        W13863   8.236   5.221  11.525
48384W        W13864  15.169  33.395   1.316
48385W        W13865  40.497  40.810   4.339
48386W        W13866  22.120  30.039   3.705
48387W        W13867  24.602  19.533   1.773
48388W        W13868   7.414  29.529   3.363
48389W        W13869  32.559   5.807  10.464
48390W        W13870  42.499  26.703   0.379
48391W        W13871  44.467  43.467  11.086
48392W        W13872  30.036  37.563   3.792
48393W        W13873  40.993  33.963  10.952
48394W        W13874  37.890   5.242  10.530
48395W        W13875   7.732  30.619   2.860
48396W        W13876  37.021  22.198   3.775
48397W        W13877  23.680  18.705   3.273
48398W        W13878   2.727  25.535  10.575
48399W        W13879  41.526  12.813   3.660
48400W        W13880  18.691   8.863  14.904
48401W        W13881   4.706  15.185   3.233
48402W        W13882  27.012  41.814   1.806
48403W        W13883  29.092  38.399   1.896
48404W        W13884  12.117  38.963  11.066
48405W        W13885  15.104  32.905  14.779
48406W        W13886  22.249  31.461   4.175
48407W        W13887  27.659  24.192  10.999
48408W        W13888  29.616  25.186   3.304
48409W        W13889  24.593   3.423  14.397
48410W        W13890   0.466  23.137   1.697
48411W        W13891  22.045  16.588   4.769
48412W        W13892   1.962  19.145   3.336
48413W        W13893  19.115  23.085   0.367
48414W        W13894   5.391   1.739  12.575
48415W        W13895  28.051  32.531  10.919
48416W        W13896  20.088  34.983  10.559
48417W        W13897  41.937  17.179   0.876
48418W        W13898  35.974  23.672   4.329
48419W        W13899  35.985  42.935  10.001
48420W        W13900   9.722  43.278   2.747
48421W        W13901  40.474  38.926  13.812
48422W        W13902   6.728  11.674   4.664
48423W        W13903   8.693  29.455   4.805
48424W        W13904  23.669  23.065   3.843
48425W        W13905  13.124  39.822   2.736
48426W        W13906  32.111  29.565  11.913
48427W        W13907  30.461  39.332  11.923
48428W        W13908  24.061  19.573  11.078
48429W        W13909  22.068   4.774  13.378
48430W        W13910  33.922   1.311   1.374
48431W        W13911  28.651   2.805   4.721
48432W        W13912  29.953  25.136  12.983
48433W        W13913   3.931  11.630  14.466
48434W        W13914  33.893  23.590   5.098
48435W        W13915  21.045  32.977   3.163
48436W        W13916   6.693  42.782   3.210
48437W        W13917  27.181  22.210  13.387
48438W        W13918  18.656  28.544   4.835
48439W        W13919  13.727  14.683  11.886
48440W        W13920  10.800   2.442  11.421
48441W        W13921  40.302  28.945   1.755
48442W        W13922  37.553  42.321  10.914
48443W        W13923  11.847  44.963  13.502
48444W        W13924  26.645  19.600  14.003
48445W        W13925  22.032  25.115  14.287
48446W        W13926  25.178   5.794   1.918
48447W        W13927   9.659  40.843  14.473
48448W        W13928  28.634  40.528  13.493
48449W        W13929  23.060  29.936  10.566
48450W        W13930   8.190  43.383   2.284
48451W        W13931  31.585  18.115   2.884
48452W        W13932   9.850  37.980  12.085
48453W        W13933  42.892   3.220  12.957
48454W        W13934  22.531  34.534  14.441
48455W        W13935  21.143   8.655   2.714
48456W        W13936  22.670  44.475  14.963
48457W        W13937  35.409  21.534   0.479
48458W        W13938   7.734  36.054   4.211
48459W        W13939   6.215   1.918  13.328
48460W        W13940  35.456  20.695   4.195
48461W        W13941  44.266  12.738  10.423
48462W        W13942  30.446  30.646  14.779
48463W        W13943  24.086  38.394   1.342
48464W        W13944   6.820  10.653  11.923
48465W        W13945  19.647   8.307  14.920
48466W        W13946  31.143  44.463  11.017
48467W        W13947  10.340  28.102   4.257
48468W        W13948  32.115  20.526  12.894
48469W        W13949  21.686   4.398  10.924
48470W        W13950  40.309  27.538  12.462
48471W        W13951   5.330  38.959  10.576
48472W        W13952   4.424  14.102   1.903
48473W        W13953  37.833  21.113   1.268
48474W        W13954  25.177  37.029  13.876
48475W        W13955  28.521  36.998  11.594
48476W        W13956   8.845  35.007   2.787
48477W        W13957  15.104  41.042  10.971
48478W        W13958   3.392   1.923  11.964
48479W        W13959  31.974  32.055   0.952
48480W        W13960  39.361  39.385  13.823
48481W        W13961  24.694  23.611  12.858
48482W        W13962   6.754  42.809   1.838
48483W        W13963   9.316  23.001   2.723
48484W        W13964   8.387  28.558  13.864
48485W        W13965  27.946  31.915  10.484
48486W        W13966  10.332  21.258  14.473
48487W        W13967  27.490   3.290   2.749
48488W        W13968  33.611   3.740   3.299
48489W        W13969  35.478   8.361   3.825
48490W        W13970  36.987   0.865  11.453
48491W        W13971  23.736  42.855   1.909
48492W        W13972   9.797  31.456   4.720
48493W        W13973   2.868  11.792   2.327
48494W        W13974  40.308   2.429  13.513
48495W        W13975  26.463   5.341   1.759
48496W        W13976  14.602   7.197   2.285
48497W        W13977  25.209  33.509  10.480
48498W        W13978  36.557   7.228   2.228
48499W        W13979  28.978   8.291  11.983
48500W        W13980  19.162  16.694  13.791
48501W        W13981   1.886   5.227   1.220
48502W        W13982  30.941  12.189   1.211
48503W        W13983  42.366  30.625  14.005
48504W        W13984  41.484  12.208  10.929
48505W        W13985  21.548  42.458   4.759
48506W        W13986  32.925  24.681   0.273
48507W        W13987  30.968   9.171   3.328
48508W        W13988   3.299  10.269   2.864
48509W        W13989  30.098  34.012  14.489
48510W        W13990  32.504   7.341  13.438
48511W        W13991  23.050  39.969  13.843
48512W        W13992  40.314  28.169   3.231
48513W        W13993   9.290   3.426   0.770
48514W        W13994  44.825   5.379  13.392
48515W        W13995  18.123  20.173   3.362
48516W        W13996  18.630  37.479  11.573
48517W        W13997   3.455  15.592  11.875
48518W        W13998  38.423  37.019  13.341
48519W        W13999  28.130  15.779   2.782
48520W        W14000  11.372   5.280  12.420
48521W        W14001  44.910  27.187   1.768
48522W        W14002  33.068  24.576   4.260
48523W        W14003  36.992  12.723   4.146
48524W        W14004  25.556  31.540   3.164
48525W        W14005  41.943   7.330   5.157
48526W        W14006  25.510  35.469   0.303
48527W        W14007   1.888   9.349   2.821
48528W        W14008  19.203   9.170  11.110
48529W        W14009  37.970   7.877   2.324
48530W        W14010   9.839  41.888   4.267
48531W        W14011  31.497  28.058   3.684
48532W        W14012  17.093  25.707  10.505
48533W        W14013  31.540  31.126  14.441
48534W        W14014  27.091   1.365   1.422
48535W        W14015  20.207  35.984  10.030
48536W        W14016  27.542  29.943  12.061
48537W        W14017   3.350  34.054   5.238
48538W        W14018  27.992  42.484  13.419
48539W        W14019  36.863  11.221   1.724
48540W        W14020   6.901  25.024  14.931
48541W        W14021  24.015  15.791   1.904
48542W        W14022  23.562  28.537   2.392
48543W        W14023  43.281  15.775  10.099
48544W        W14024  44.432  25.156   2.859
48545W        W14025  12.839   7.784   4.170
48546W        W14026  31.025  15.242  12.465
48547W        W14027   0.263  42.862  13.434
48548W        W14028  39.547  14.627   3.639
48549W        W14029  21.183   0.355   4.265
48550W        W14030   6.709   2.390  14.424
48551W        W14031  43.814   1.783   0.727
48552W        W14032  29.526   1.388  12.862
48553W        W14033  17.102  16.750   1.366
48554W        W14034  12.681   7.687  14.296
48555W        W14035  20.173  10.370  10.993
48556W        W14036   6.351   7.752   4.611
48557W        W14037   0.430  43.319   4.299
48558W        W14038   2.907  31.071   2.665
48559W        W14039  20.714  13.286   0.853
48560W        W14040  17.689  42.883  12.510
48561W        W14041   2.937  38.885   3.631
48562W        W14042  12.210  16.263   3.341
48563W        W14043  11.229  19.617   1.909
48564W        W14044  10.302   1.807   4.698
48565W        W14045  31.146  40.001   2.290
48566W        W14046  41.361   3.332   1.908
48567W        W14047  39.981  27.522   0.306
48568W        W14048   8.223  13.162   0.905
48569W        W14049  44.455  21.024   1.274
48570W        W14050  15.321  22.038  11.948
48571W        W14051  30.432  33.604   4.707
48572W        W14052  30.632   4.229  10.511
48573W        W14053  30.484  40.993  11.497
48574W        W14054  44.297  32.040  12.460
48575W        W14055  32.420  39.487  13.887
48576W        W14056  27.156  18.181  13.840
48577W        W14057  12.768  27.612   4.289
48578W        W14058  30.911   4.803   2.674
48579W        W14059  23.056  21.667   0.814
48580W        W14060  29.971  20.047  13.848
48581W        W14061  11.834  24.578   2.717
48582W        W14062  14.214  12.318   3.170
48583W        W14063   2.898  31.979   0.867
48584W        W14064  23.072  40.360   0.966
48585W        W14065  33.105  11.194  12.441
48586W        W14066  32.090   3.442  12.978
48587W        W14067  33.433   6.799   4.792
48588W        W14068  11.361  19.555   3.793
48589W        W14069  43.431  14.262  14.343
48590W        W14070  42.442  26.602   2.791
48591W        W14071  26.045  33.399  13.341
48592W        W14072  15.165  17.244  13.051
48593W        W14073  39.437   0.318   4.817
48594W        W14074  42.404  44.484   3.216
48595W        W14075  37.506  24.080   0.809
48596W        W14076   3.722  19.574  10.080
48597W        W14077  12.707  32.599  14.388
48598W        W14078  34.933  36.897  12.919
48599W        W14079  44.273  41.407  10.092
48600W        W14080  12.286  39.855  12.845
48601W        W14081  36.015   7.854  10.988
48602W        W14082   0.401   7.287  13.872
48603W        W14083  29.931  43.018  14.813
48604W        W14084  29.943   0.758   0.371
48605W        W14085   6.325   5.773   3.805
48606W        W14086  34.090  38.959   4.795
48607W        W14087   3.281  32.542  10.541
48608W        W14088   7.800  13.267   3.789
48609W        W14089  32.018  27.969  13.401
48610W        W14090  22.581  10.256   2.773
48611W        W14091   4.770   7.758   1.246
48612W        W14092  27.171  13.203  10.443
48613W        W14093  23.694   5.263   4.277
48614W        W14094   0.954  21.516   2.746
48615W        W14095  13.781  32.926  14.804
48616W        W14096  30.533  33.998  13.868
48617W        W14097  44.367  15.729  13.308
48618W        W14098  21.168  17.224   3.692
48619W        W14099  18.140  26.477   0.346
48620W        W14100  14.730  12.740  13.470
48621W        W14101  26.568  43.962   3.630
48622W        W14102  27.631  30.420  13.511
48623W        W14103  29.471  34.950   0.934
48624W        W14104  34.068  32.412  10.626
48625W        W14105   1.865  15.809  11.093
48626W        W14106  30.004  39.028  14.978
48627W        W14107  23.024  23.094  14.905
48628W        W14108  30.613  24.992  11.971
48629W        W14109  24.711  29.479  14.497
48630W        W14110  19.100  19.777  12.852
48631W        W14111  34.594  41.947   1.745
48632W        W14112  23.593  28.995   2.787
48633W        W14113   7.357  33.539   0.917
48634W        W14114   3.826  24.096  10.975
48635W        W14115  27.028  37.055  10.403
48636W        W14116   0.848  33.548   0.419
48637W        W14117  27.169  32.899   0.412
48638W        W14118   4.377  18.705   4.828
48639W        W14119   9.188  43.003  10.159
48640W        W14120  44.964  14.289   3.859
48641W        W14121  28.617   7.212  12.561
48642W        W14122  39.994  37.442  11.882
48643W        W14123   9.645  33.449  14.926
48644W        W14124  38.850   5.352   1.415
48645W        W14125  41.007  21.117   0.936
48646W        W14126  39.999  29.470  14.465
48647W        W14127  32.935  30.425   3.292
48648W        W14128   4.225  24.629   4.777
48649W        W14129  19.196  18.285  11.037
48650W        W14130  44.474  22.614   1.365
48651W        W14131  22.008  30.632  12.035
48652W        W14132  39.478  34.473   1.422
48653W        W14133  27.195   9.784   2.880
48654W        W14134  29.034  43.991  14.788
48655W        W14135  30.967  22.505   2.744
48656W        W14136  21.241   6.389   4.264
48657W        W14137   4.316  23.237  14.333
48658W        W14138  14.155  26.578  12.405
48659W        W14139  27.472  38.383  13.399
48660W        W14140   1.365  11.174   0.957
48661W        W14141  39.378  31.052   0.830
48662W        W14142  25.556   9.728  11.438
48663W        W14143  37.411   0.788   2.324
48664W        W14144  21.698  31.007   0.339
48665W        W14145  31.912  35.955  12.460
48666W        W14146   4.757  10.168  10.572
48667W        W14147  31.478  19.092  11.516
48668W        W14148  15.666  30.155   3.238
48669W        W14149  29.662  18.583  11.462
48670W        W14150   5.687  31.001   2.868
48671W        W14151  14.116  10.784   0.849
48672W        W14152  10.778  38.982   1.858
48673W        W14153  34.509  16.638   3.201
48674W        W14154  23.674  21.669  11.405
48675W        W14155  31.947  15.148   2.893
48676W        W14156  41.430  34.989  14.007
48677W        W14157  42.376  32.038   4.772
48678W        W14158   2.917  36.025   0.311
48679W        W14159  44.835  30.929   0.273
48680W        W14160   0.921  38.510  13.943
48681W        W14161   9.718  40.867  14.894
48682W        W14162   1.945  27.118   2.364
48683W        W14163  35.539  12.661  12.379
48684W        W14164  40.937   8.242  11.946
48685W        W14165   6.803  20.228   1.305
48686W        W14166  26.022   6.290  12.865
48687W        W14167  30.910  11.807  12.000
48688W        W14168   7.740  11.196  10.964
48689W        W14169  41.486   4.299  12.358
48690W        W14170  33.403   1.383  13.054
48691W        W14171  13.208  14.777   4.721
48692W        W14172  36.447  32.549   3.314
48693W        W14173   4.350   2.778   1.879
48694W        W14174  43.794   2.226  13.390
48695W        W14175  21.547  22.623   1.351
48696W        W14176  19.755  30.962   3.263
48697W        W14177  11.794  18.202   2.844
48698W        W14178  34.426  26.589   2.299
48699W        W14179  39.876  19.129  13.855
48700W        W14180  21.081  42.991   4.772
48701W        W14181   8.695   3.926  14.006
48702W        W14182  36.359   7.733  10.973
48703W        W14183  24.630  21.155   2.386
48704W        W14184  22.015  26.111   1.800
48705W        W14185  44.854  31.911  13.846
48706W        W14186  20.223  21.163   1.281
48707W        W14187  41.384  33.519  13.826
48708W        W14188   7.360   7.335  11.921
48709W        W14189  25.085   8.372  13.463
48710W        W14190   1.773   9.842  12.058
48711W        W14191   2.781  17.659  10.929
48712W        W14192  10.379  43.311   2.268
48713W        W14193  18.641  34.584   2.328
48714W        W14194  41.936  38.924  14.975
48715W        W14195  40.868  14.292  14.821
48716W        W14196  14.287   3.409  10.469
48717W        W14197  40.973  20.044  14.289
48718W        W14198   3.748  20.141   0.453
48719W        W14199   2.373   9.779   1.324
48720W        W14200   0.273   1.425   1.710
48721W        W14201   3.250  41.914   0.953
48722W        W14202  44.401  38.557   0.480
48723W        W14203  22.176  13.674   2.386
48724W        W14204  16.743  25.999   9.547
48725W        W14205  12.280  28.103  11.592
48726W        W14206  23.705   0.931   1.426
48727W        W14207   3.372  39.981  14.928
48728W        W14208  34.907   2.858   3.236
48729W        W14209  27.530   3.792  10.435
48730W        W14210  28.991  17.621   3.320
48731W        W14211   2.344  28.594  14.305
48732W        W14212  42.308  34.998  10.977
48733W        W14213  17.785  11.750  12.414
48734W        W14214  28.945  38.983   0.947
48735W        W14215  16.756   1.851  13.064
48736W        W14216  41.371  44.499  11.442
48737W        W14217  28.581  38.860  12.347
48738W        W14218  15.084  24.620  13.879
48739W        W14219  31.560  39.482   2.876
48740W        W14220  30.055  44.344  11.419
48741W        W14221  12.303   4.263  10.925
48742W        W14222  16.701   9.300   4.251
48743W        W14223  44.934  38.424   0.306
48744W        W14224  17.259  36.098   3.172
48745W        W14225  14.635   3.390  13.541
48746W        W14226  27.051  43.431   1.392
48747W        W14227   7.742   2.471  13.450
48748W        W14228  40.463  39.360  11.999
48749W        W14229  39.431   4.737  12.996
48750W        W14230  10.689  39.449   3.250
48751W        W14231   8.728  37.902  13.487
48752W        W14232  14.232  40.914  12.451
48753W        W14233  38.011  20.678  14.386
48754W        W14234  24.697   2.941  12.562
48755W        W14235  10.809  32.500  12.845
48756W        W14236  32.398   5.693   1.916
48757W        W14237  32.070  15.102   1.760
48758W        W14238   7.873  29.135  12.959
48759W        W14239  36.010   7.361   3.826
48760W        W14240  22.684  26.957   2.880
48761W        W14241   5.743  37.335   3.363
48762W        W14242  29.602   4.778  13.990
48763W        W14243   5.696   6.857  11.399
48764W        W14244  19.557  10.753   1.819
48765W        W14245  19.055  43.004  14.289
48766W        W14246  16.656  30.944   3.760
48767W        W14247  10.761   6.233  12.571
48768W        W14248  36.099  29.603  10.973
48769W        W14249   9.366  38.550   4.285
48770W        W14250  18.080  42.928  14.789
48771W        W14251   1.482  26.459  11.884
48772W        W14252  26.005  27.561   0.875
48773W        W14253  21.224   8.229   2.727
48774W        W14254  12.129  29.984   0.314
48775W        W14255  35.482  35.563   1.802
48776W        W14256  31.010  26.205   3.282
48777W        W14257  28.115  27.445   3.726
48778W        W14258  27.131   6.388   3.773
48779W        W14259  26.158  42.473  12.454
48780W        W14260  39.028  38.841  13.339
48781W        W14261  10.375   7.698  11.487
48782W        W14262  15.262  29.435   0.453
48783W        W14263   0.847  44.861   1.886
48784W        W14264  44.491  18.679  11.393
48785W        W14265   0.910  32.563   4.839
48786W        W14266   9.350  17.561   3.192
48787W        W14267  14.598   5.332   3.769
48788W        W14268  18.644   5.800   0.736
48789W        W14269  42.330  15.245   0.413
48790W        W14270  13.236  19.201   1.393
48791W        W14271  13.691  36.046  10.964
48792W        W14272  31.468  19.608   3.703
48793W        W14273  40.482  29.072   0.736
48794W        W14274   7.774  26.103  14.433
48795W        W14275  22.180  41.034  13.464
48796W        W14276   5.414  34.014   0.744
48797W        W14277  31.574  24.616  13.955
48798W        W14278  15.094   8.378  12.555
48799W        W14279  39.448  13.779  10.612
48800W        W14280  35.364  11.863  10.473
48801W        W14281  33.080  32.113  11.858
48802W        W14282  35.479   8.729  12.396
48803W        W14283   0.336   5.211   1.385
48804W        W14284   1.276  14.795   1.232
48805W        W14285  25.609  15.759  10.614
48806W        W14286  42.953  26.552   4.704
48807W        W14287  39.434  27.952  10.030
48808W        W14288  19.182  15.160   0.351
48809W        W14289  27.549   6.218   3.333
48810W        W14290  43.863  31.106   2.726
48811W        W14291  31.897  37.065  13.309
48812W        W14292  38.441   2.800  11.881
48813W        W14293   8.870  43.882  10.018
48814W        W14294  11.344  19.236  12.049
48815W        W14295  12.749  43.371   0.839
48816W        W14296  23.635  21.119   3.182
48817W        W14297   2.464  19.563   3.285
48818W        W14298  37.943   0.313  14.322
48819W        W14299   4.828   2.265   4.287
48820W        W14300  30.528  33.997   2.867
48821W        W14301  11.740  20.707  14.839
48822W        W14302   1.378  34.012   5.581
48823W        W14303  11.282  38.485  10.945
48824W        W14304  15.127  12.235  14.904
48825W        W14305  35.568  29.454   3.147
48826W        W14306  28.121  42.824   5.083
48827W        W14307  43.284  13.770  13.324
48828W        W14308  35.532  14.625  13.938
48829W        W14309  22.663  23.639  13.826
48830W        W14310  38.401  34.506   4.612
48831W        W14311  30.640  43.356  12.568
48832W        W14312   2.826   8.819  11.870
48833W        W14313  29.496   1.955  12.506
48834W        W14314   2.256  38.990   4.688
48835W        W14315  30.047  31.094   4.777
48836W        W14316  43.957   6.881   2.733
48837W        W14317  37.972  18.066   5.237
48838W        W14318  20.251  44.768   4.659
48839W        W14319  19.752  40.386  10.505
48840W        W14320   9.194  27.622  11.894
48841W        W14321  19.744  30.930  13.857
48842W        W14322   2.400  29.027   1.704
48843W        W14323  23.134   1.918  12.572
48844W        W14324  24.484   4.866  13.385
48845W        W14325  23.703  20.729   2.696
48846W        W14326   3.264   7.300  14.931
48847W        W14327  28.460  22.034   1.728
48848W        W14328   3.441  15.137   1.857
48849W        W14329  40.317   4.264  11.552
48850W        W14330  34.998   8.839   2.274
48851W        W14331   1.902  18.113  11.052
48852W        W14332   0.449  18.196  11.857
48853W        W14333  36.361   7.309  10.889
48854W        W14334  37.541   9.736  14.362
48855W        W14335  18.646  15.774  12.054
48856W        W14336  19.687  36.002   1.407
48857W        W14337  25.088  41.495  13.012
48858W        W14338  20.751  15.101  10.471
48859W        W14339  36.998  33.507  11.575
48860W        W14340  10.652  31.139   0.955
48861W        W14341  11.184  10.320  10.986
48862W        W14342   2.797  18.255   2.191
48863W        W14343  24.052  17.190  11.935
48864W        W14344  16.093   2.844  14.946
48865W        W14345  23.546  18.295  10.583
48866W        W14346   8.762  15.216   4.234
48867W        W14347  40.838  43.460   2.859
48868W        W14348   2.328  22.522   4.811
48869W        W14349  40.519  25.086  11.372
48870W        W14350  19.081  34.863  14.442
48871W        W14351  39.503  37.392   4.147
48872W        W14352  13.745  36.915   1.424
48873W        W14353  41.358  16.593   2.317
48874W        W14354  38.414  31.490  11.107
48875W        W14355   5.289  14.656  11.543
48876W        W14356   2.369   2.730   1.780
48877W        W14357  38.026   8.254  12.068
48878W        W14358  13.636  18.155  10.946
48879W        W14359  18.675   9.199   2.340
48880W        W14360  10.299   6.684  11.498
48881W        W14361   1.321  34.043  12.002
48882W        W14362   8.275  11.207   2.770
48883W        W14363   4.213  10.703   3.212
48884W        W14364  44.886   9.323   1.298
48885W        W14365  31.898  28.624   3.802
48886W        W14366  28.577  33.077  10.523
48887W        W14367  18.791  24.656   3.796
48888W        W14368  44.000  15.674  14.946
48889W        W14369  11.243  23.613  11.884
48890W        W14370  10.146  38.359  13.951
48891W        W14371  39.989  10.332  11.034
48892W        W14372  27.597  22.664   3.782
48893W        W14373   7.272  14.196  14.942
48894W        W14374   5.696  24.021  13.437
48895W        W14375   4.243   3.311  13.897
48896W        W14376  14.280   0.334  11.422
48897W        W14377   8.676  36.041   0.853
48898W        W14378  21.141  14.195  14.357
48899W        W14379  30.044  19.610   3.330
48900W        W14380  37.432  16.774  14.430
48901W        W14381  13.320   4.225  11.484
48902W        W14382  27.591  25.173  13.891
48903W        W14383  17.615  10.747   0.374
48904W        W14384   3.357  28.092  14.970
48905W        W14385   1.477  30.495   2.875
48906W        W14386  39.830   0.887  13.429
48907W        W14387  44.838  42.457   3.237
48908W        W14388  40.364   9.752   1.301
48909W        W14389  16.791  35.944   5.653
48910W        W14390  13.230  38.461   0.351
48911W        W14391  18.255  14.184  14.355
48912W        W14392  10.149  13.294   2.781
48913W        W14393  32.922   7.765   4.191
48914W        W14394  30.067   5.400  13.010
48915W        W14395  24.572  16.094   3.376
48916W        W14396  40.427  21.193   3.720
48917W        W14397   6.775   9.370   4.670
48918W        W14398  16.768  23.604  12.034
48919W        W14399   2.457  15.804  13.365
48920W        W14400  19.284  21.077  14.338
48921W        W14401  16.594  13.181  14.905
48922W        W14402  11.772  19.559   0.764
48923W        W14403   1.769   5.806   1.293
48924W        W14404  41.922  12.625   4.122
48925W        W14405   9.795  41.876  11.570
48926W        W14406  39.553  14.280  13.447
48927W        W14407  44.770  36.949   2.286
48928W        W14408  38.352   6.756  12.005
48929W        W14409  25.528  36.899   0.899
48930W        W14410  35.064   4.924  10.412
48931W        W14411  31.976   5.290   1.837
48932W        W14412  12.748  13.263  13.319
48933W        W14413  13.211  18.763  12.473
48934W        W14414   4.212  43.445  11.440
48935W        W14415  26.701   5.266   3.861
48936W        W14416  24.016  16.648   4.815
48937W        W14417  40.431   8.673  11.902
48938W        W14418  44.355   8.706   4.799
48939W        W14419  43.855   9.192  14.913
48940W        W14420  42.281  37.995  13.415
48941W        W14421  25.138   8.208   1.761
48942W        W14422  31.583   6.387  11.059
48943W        W14423  15.192  44.792   1.697
48944W        W14424  10.245  39.342  14.999
48945W        W14425   4.835  38.879   5.228
48946W        W14426  15.184  10.216   3.321
48947W        W14427   3.743  28.612   2.199
48948W        W14428  25.965  36.457  13.959
48949W        W14429  41.441  33.563   4.172
48950W        W14430  29.145   2.235  10.550
48951W        W14431  13.777  12.220   1.418
48952W        W14432   7.188  10.646   2.677
48953W        W14433   3.940  21.221   3.379
48954W        W14434  42.803  28.146   3.303
48955W        W14435  17.609  26.962   0.865
48956W        W14436  20.546   7.278  13.367
48957W        W14437   5.861  32.033   0.870
48958W        W14438  39.036  18.761   3.682
48959W        W14439  27.021   0.362   0.927
48960W        W14440  21.548  14.335   3.837
48961W        W14441  41.438   8.209   4.224
48962W        W14442   8.779  42.910  11.117
48963W        W14443  35.965  24.705   3.695
48964W        W14444   2.905  39.007   1.248
48965W        W14445  19.100  36.396  14.864
48966W        W14446  39.460  16.730   1.343
48967W        W14447  31.964  21.527  14.842
48968W        W14448  14.661  40.978   1.300
48969W        W14449   0.807  12.299   3.725
48970W        W14450  26.512  22.166   4.829
48971W        W14451  19.149   8.361   0.459
48972W        W14452  23.642  27.076   4.659
48973W        W14453  31.924  32.008   4.665
48974W        W14454  28.591   2.241  11.964
48975W        W14455  20.235   9.351  10.543
48976W        W14456  17.138  27.649  10.604
48977W        W14457  15.679  39.388   0.928
48978W        W14458  30.462  15.279   3.862
48979W        W14459  11.254  12.130   1.908
48980W        W14460  31.554  13.136   3.811
48981W        W14461  31.648  19.633   1.881
48982W        W14462  13.807  17.095  14.417
48983W        W14463  26.675  11.747   4.721
48984W        W14464  18.785  14.796   4.787
48985W        W14465  30.461  44.442   4.293
48986W        W14466  23.048  43.298  10.548
48987W        W14467  35.575  11.304   4.757
48988W        W14468  12.787   6.226   2.781
48989W        W14469  25.576  29.503   2.242
48990W        W14470  12.808  21.611   0.914
48991W        W14471  36.072   2.927  14.970
48992W        W14472  18.742  29.449  12.937
48993W        W14473   1.333   6.271   2.201
48994W        W14474  28.505   7.348  13.957
48995W        W14475  20.268  22.145   4.329
48996W        W14476  37.969   8.182  12.444
48997W        W14477   2.408  13.766  13.495
48998W        W14478   5.841  30.164   2.756
48999W        W14479  43.768  33.098  11.970
49000W        W14480  32.005  16.624  12.957
49001W        W14481   5.914  40.405   2.784
49002W        W14482  26.137  12.116   2.670
49003W        W14483   6.881  17.733   2.892
49004W        W14484   6.369  30.126   3.293
49005W        W14485  12.299   0.978   1.756
49006W        W14486  17.080  38.060  10.583
49007W        W14487   1.920  16.163   1.808
49008W        W14488   3.770  35.560   5.689
49009W        W14489  27.958  21.123  10.543
49010W        W14490   5.769  12.728   0.264
49011W        W14491  43.769  39.479   1.443
49012W        W14492  23.501   4.391  12.524
49013W        W14493  19.567  25.056   2.361
49014W        W14494  32.971   5.304   3.181
49015W        W14495  15.721  39.492  14.371
49016W        W14496  32.409  23.705  13.883
49017W        W14497  34.595   1.433  11.017
49018W        W14498   1.364   3.275   1.835
49019W        W14499  13.679   0.456   3.731
49020W        W14500  41.875  36.002   1.836
49021W        W14501  29.558  24.146  14.506
49022W        W14502  10.633   3.929  13.495
49023W        W14503  32.439  20.534  10.438
49024W        W14504  25.649  34.060   3.775
49025W        W14505  25.009  19.644  12.834
49026W        W14506   8.270  36.096   0.740
49027W        W14507  13.160  20.226   3.255
49028W        W14508  14.244  18.628   2.787
49029W        W14509  20.612  28.062   1.925
49030W        W14510  26.070  40.364  10.451
49031W        W14511  16.151  16.600  14.810
49032W        W14512  35.988  18.172   3.811
49033W        W14513  29.602  11.158  14.008
49034W        W14514  12.273  16.642   3.840
49035W        W14515  12.124  36.027   1.896
49036W        W14516  36.909  11.253  13.899
49037W        W14517  30.592   1.344  12.872
49038W        W14518  44.478   8.711   3.716
49039W        W14519   4.876  40.863   1.794
49040W        W14520   9.877  29.006  12.932
49041W        W14521   2.920  12.329  12.866
49042W        W14522   3.383  18.223   0.913
49043W        W14523  21.732  14.814   0.728
49044W        W14524  35.894  16.653  11.975
49045W        W14525  36.416   0.761   1.805
49046W        W14526  32.421  16.268   2.676
49047W        W14527  32.508  34.008   4.692
49048W        W14528   8.387  22.653   4.272
49049W        W14529  29.033  44.998   4.136
49050W        W14530  42.849  40.879   3.306
49051W        W14531  18.751   1.906  11.434
49052W        W14532  13.260  18.067  13.486
49053W        W14533  41.009  16.301   4.689
49054W        W14534  28.118  26.058   1.835
49055W        W14535  14.802  14.246  13.521
49056W        W14536  43.809  17.120   1.415
49057W        W14537  37.892  19.546   0.822
49058W        W14538  44.869  44.279   4.639
49059W        W14539  19.150  43.871  11.554
49060W        W14540  34.964   7.837   5.317
49061W        W14541  36.879  21.152   0.757
49062W        W14542  15.647  43.484   4.146
49063W        W14543  22.574  23.546  11.395
49064W        W14544  34.052  31.960  10.514
49065W        W14545  41.453  26.015   4.215
49066W        W14546  17.725  38.552   4.254
49067W        W14547  24.584  14.252   0.288
49068W        W14548  27.665   7.286   1.267
49069W        W14549  33.131   3.242   0.370
49070W        W14550  21.257  35.974  11.573
49071W        W14551  42.462  28.604  11.042
49072W        W14552   4.210  35.359   2.313
49073W        W14553  32.394  28.458   2.726
49074W        W14554  34.040   0.291   1.932
49075W        W14555   6.239  31.578  13.906
49076W        W14556  32.614  19.081   3.163
49077W        W14557   0.931  10.238   2.317
49078W        W14558   1.948   4.773   1.765
49079W        W14559   7.697  24.503   3.669
49080W        W14560  38.479  10.213   0.295
49081W        W14561  36.553  19.611  11.019
49082W        W14562  25.145  27.988   0.879
49083W        W14563  17.125  12.121   0.380
49084W        W14564  23.227  33.887  11.396
49085W        W14565  11.372  13.155  14.799
49086W        W14566  23.675  12.148  10.918
49087W        W14567  36.479  23.729  14.305
49088W        W14568  17.129   9.272  12.478
49089W        W14569  37.526  15.232   3.336
49090W        W14570   4.327  21.597   4.608
49091W        W14571  32.502  34.478  13.964
49092W        W14572  10.300  12.711  11.408
49093W        W14573  25.597  28.554  11.972
49094W        W14574  38.975  15.252   1.828
49095W        W14575  39.828  38.462  14.867
49096W        W14576  41.330   9.667   2.271
49097W        W14577  38.537  28.445   2.874
49098W        W14578   2.750  41.947  13.995
49099W        W14579   1.320  17.580  13.452
49100W        W14580  10.338  16.283  12.343
49101W        W14581   4.317  22.504  10.993
49102W        W14582   9.792  34.395   2.268
49103W        W14583   6.723  14.163   5.247
49104W        W14584  24.082   9.649  12.878
49105W        W14585  37.513  20.183  11.499
49106W        W14586  24.211  40.484  14.955
49107W        W14587  37.898  13.337  14.454
49108W        W14588  37.938  18.788  11.422
49109W        W14589  44.785  19.196  14.361
49110W        W14590   0.805  18.634   2.818
49111W        W14591  30.493  35.026  11.929
49112W        W14592   2.244   5.416   1.735
49113W        W14593  18.655  19.686  14.865
49114W        W14594   9.201   2.406   3.787
49115W        W14595   6.366  11.339  10.937
49116W        W14596  17.191  12.213  12.425
49117W        W14597   2.375   5.437   4.775
49118W        W14598  33.972  28.666  14.835
49119W        W14599  30.998  33.600   2.799
49120W        W14600  38.484   7.901   1.931
49121W        W14601  12.332  11.859  10.613
49122W        W14602   8.797  10.867  11.477
49123W        W14603  37.957  26.987  12.516
49124W        W14604  13.291  14.308   3.780
49125W        W14605   7.750  28.062  11.418
49126W        W14606  24.635  32.120   2.280
49127W        W14607  29.978  37.895  13.485
49128W        W14608   4.940  25.671   0.377
49129W        W14609  30.997   6.694   0.759
49130W        W14610  28.028  15.761   2.371
49131W        W14611  21.532  33.545   3.642
49132W        W14612   7.402   4.365  10.449
49133W        W14613  24.488   2.827  13.888
49134W        W14614  37.059  43.952  12.452
49135W        W14615  37.995  26.580   1.310
49136W        W14616  33.087  19.634  11.891
49137W        W14617  13.757  30.109   3.783
49138W        W14618  26.960  17.616  13.385
49139W        W14619  41.488  20.677   2.780
49140W        W14620  31.997  23.694  13.834
49141W        W14621   5.883  25.130   0.379
49142W        W14622  12.689  24.651  14.445
49143W        W14623  10.673  29.981  12.456
49144W        W14624  11.693  11.329  11.083
49145W        W14625  18.197  38.942   1.296
49146W        W14626  11.690  41.357   2.355
49147W        W14627  18.607  15.188   2.887
49148W        W14628  37.499   6.837   1.798
49149W        W14629  32.556  22.733  14.005
49150W        W14630  16.179  43.458  14.858
49151W        W14631   4.408  42.340  11.542
49152W        W14632   9.759   3.904   4.734
49153W        W14633  38.872  22.518  11.583
49154W        W14634  43.827  10.810   0.957
49155W        W14635  31.451  17.755  12.380
49156W        W14636  43.293  16.685   3.669
49157W        W14637   3.326  11.231  11.602
49158W        W14638  18.732  16.605  11.916
49159W        W14639  12.779  27.652  11.397
49160W        W14640  40.314   5.909  12.540
49161W        W14641  35.945  41.932  13.859
49162W        W14642  42.472  25.622   0.774
49163W        W14643  31.585   8.187  11.981
49164W        W14644  13.793   8.674   4.188
49165W        W14645   7.317  33.946  14.854
49166W        W14646   2.858  16.082  10.548
49167W        W14647  33.090  27.574  13.912
49168W        W14648  28.976   6.736  10.642
49169W        W14649  39.522  33.090   4.688
49170W        W14650  11.222  35.376   1.780
49171W        W14651  14.114  32.060  13.362
49172W        W14652  22.722  38.344   4.139
49173W        W14653  30.569  44.421  13.976
49174W        W14654   6.821   3.885  12.387
49175W        W14655   8.232  18.730   0.337
49176W        W14656  24.057  30.619  10.546
49177W        W14657  22.149  11.132   3.216
49178W        W14658  42.401  42.296  11.114
49179W        W14659  29.017  31.026   3.148
49180W        W14660   1.761   3.941  14.778
49181W        W14661  42.345  27.546   2.349
49182W        W14662  14.604   8.844   1.700
49183W        W14663  39.972  14.204  10.479
49184W        W14664  33.471   0.382   2.806
49185W        W14665  41.395  30.599  12.492
49186W        W14666   7.846   2.239  11.504
49187W        W14667  15.203   3.836  12.091
49188W        W14668  26.979  32.578   1.792
49189W        W14669  16.621  19.660   4.193
49190W        W14670   0.348  21.556  11.479
49191W        W14671  13.687   3.407   0.946
49192W        W14672  17.654  42.785   3.632
49193W        W14673   5.837  35.592   0.744
49194W        W14674  12.690  11.197  11.042
49195W        W14675  27.515   2.455   2.698
49196W        W14676  24.553  12.760   2.859
49197W        W14677  43.920  34.580   0.457
49198W        W14678  34.590  19.561   3.288
49199W        W14679  34.016  34.528   2.365
49200W        W14680  14.693  16.222  14.877
49201W        W14681  43.798  29.115  10.909
49202W        W14682  10.165  16.248   2.360
49203W        W14683  33.531   6.285   1.310
49204W        W14684  23.146  19.259   1.211
49205W        W14685  35.854  34.959   0.405
49206W        W14686  35.552   5.354   2.727
49207W        W14687  41.306  13.641  13.343
49208W        W14688  32.630  18.779   3.317
49209W        W14689  27.637  19.127   1.898
49210W        W14690  11.817  27.452   2.414
49211W        W14691  30.972  36.961   1.251
49212W        W14692  33.416  30.606  10.450
49213W        W14693   4.368  10.866   4.810
49214W        W14694  40.987  43.333  11.126
49215W        W14695   5.274   0.453  13.807
49216W        W14696  34.488  26.023  12.358
49217W        W14697  18.654   2.317  14.869
49218W        W14698   4.267  36.995  11.034
49219W        W14699  12.625  10.286   0.839
49220W        W14700  19.067  15.199  11.496
49221W        W14701  39.372   0.965   2.391
49222W        W14702   8.397  17.558  14.479
49223W        W14703  14.589   5.375   1.813
49224W        W14704  34.063   5.816  12.397
49225W        W14705  23.051   8.198  13.940
49226W        W14706  32.415  19.758   4.299
49227W        W14707  33.550  14.246   4.312
49228W        W14708  22.572   0.261  14.854
49229W        W14709  18.056  35.965  10.452
49230W        W14710  32.919   4.728  13.317
49231W        W14711   1.889  30.038  10.539
49232W        W14712   1.856  32.446  12.341
49233W        W14713  33.415  43.835   2.813
49234W        W14714  40.407  22.706   1.232
49235W        W14715  15.182  34.384  12.434
49236W        W14716   2.340  24.591   4.122
49237W        W14717  36.533  25.976  14.474
49238W        W14718   9.340  44.800  12.887
49239W        W14719   7.836  40.996  14.784
49240W        W14720  13.242  35.054  13.381
49241W        W14721  43.443   5.883  14.905
49242W        W14722  26.475   9.754  14.891
49243W        W14723  29.979  15.288  14.389
49244W        W14724   3.922  42.976  13.892
49245W        W14725  34.523  40.966   0.967
49246W        W14726  17.271  41.511  11.383
49247W        W14727   6.901  27.672  14.962
49248W        W14728  43.287   8.782  10.142
49249W        W14729  20.037  27.021   0.376
49250W        W14730  28.555  31.056  14.967
49251W        W14731  31.602  44.312   2.680
49252W        W14732  26.993  40.886   4.164
49253W        W14733   4.438  15.268   2.808
49254W        W14734   4.283  35.565   1.450
49255W        W14735  40.366  40.523  10.475
49256W        W14736  26.964  38.952   4.197
49257W        W14737  20.203   6.773   0.324
49258W        W14738  27.674   5.334   0.820
49259W        W14739   9.888  41.459  12.538
49260W        W14740  16.690   6.305  11.104
49261W        W14741   8.295  26.475   1.935
49262W        W14742  10.341  34.476  11.987
49263W        W14743  10.706  39.368  11.536
49264W        W14744  30.974  33.103  11.529
49265W        W14745   7.279  43.339   1.301
49266W        W14746  35.450  18.608   4.705
49267W        W14747   7.892  19.701  11.383
49268W        W14748  32.906  41.791   4.349
49269W        W14749  34.507  37.928  12.440
49270W        W14750  32.441  35.092   4.748
49271W        W14751  27.091  42.285  10.930
49272W        W14752  37.075   2.332  12.973
49273W        W14753   7.846  22.617   1.339
49274W        W14754   4.930  20.101  13.478
49275W        W14755  15.788  11.254  14.996
49276W        W14756  19.171   8.877  12.977
49277W        W14757  22.211  13.286  14.800
49278W        W14758  33.403  15.131   3.688
49279W        W14759  27.461  18.632   3.330
49280W        W14760   4.230   6.832  11.492
49281W        W14761  10.204   2.722   4.641
49282W        W14762  10.682  35.482   0.740
49283W        W14763  44.474  28.450   0.336
49284W        W14764  20.200  25.679   0.754
49285W        W14765  42.979  15.110  14.478
49286W        W14766  19.186  35.934  12.442
49287W        W14767  40.309  21.682   4.636
49288W        W14768  18.232  26.613   0.743
49289W        W14769   4.803   0.742  12.344
49290W        W14770  11.675   7.702  10.496
49291W        W14771  33.467  44.865  10.588
49292W        W14772   2.737  13.287   4.355
49293W        W14773   9.230  44.352   0.835
49294W        W14774  21.020  11.171   2.730
49295W        W14775  24.133   1.300   0.425
49296W        W14776  33.013  20.529   3.264
49297W        W14777   6.821  22.009  13.884
49298W        W14778  15.774  43.860   0.391
49299W        W14779   4.714  20.753  11.016
49300W        W14780  16.191  29.591  11.946
49301W        W14781  36.506  31.097  10.964
49302W        W14782  43.935  35.595   2.399
49303W        W14783  18.691  36.553   1.407
49304W        W14784   7.294  40.909  13.900
49305W        W14785  22.163  16.088  12.946
49306W        W14786  22.227   7.360   0.858
49307W        W14787   4.931  35.498   0.772
49308W        W14788  40.360  22.551  13.848
49309W        W14789  26.588  33.090  12.994
49310W        W14790  32.123  30.051  13.397
49311W        W14791  13.827  37.384   1.324
49312W        W14792  12.622   2.306   3.773
49313W        W14793  12.195  12.805  11.539
49314W        W14794  39.436  30.432  14.852
49315W        W14795  33.466   7.261  11.958
49316W        W14796   2.265  21.530   4.757
49317W        W14797  43.404  35.924   1.749
49318W        W14798   0.436  31.416   1.798
49319W        W14799  24.992  44.477  12.886
49320W        W14800   3.292  15.817  11.068
49321W        W14801  25.705  23.624  11.048
49322W        W14802  16.663  23.631   3.656
49323W        W14803  10.644  12.810  14.945
49324W        W14804  10.268  38.035   1.870
49325W        W14805  32.028  15.774   0.475
49326W        W14806  13.152  39.013   2.241
49327W        W14807   8.779  33.536   3.278
49328W        W14808  44.323   0.832   4.142
49329W        W14809  38.384  42.376   3.202
49330W        W14810  36.569  19.161   3.862
49331W        W14811  32.485   4.737  13.809
49332W        W14812  40.442  12.296   3.330
49333W        W14813  11.665  37.920  13.463
49334W        W14814  26.146  36.941  12.978
49335W        W14815  39.903   4.231   9.595
49336W        W14816  27.177   6.799  11.069
49337W        W14817   4.229  16.638   1.425
49338W        W14818  37.476  40.391   3.306
49339W        W14819   5.361  26.463   4.652
49340W        W14820   9.874  36.465  11.505
49341W        W14821  15.811   5.923   0.248
49342W        W14822   7.296  42.960   3.636
49343W        W14823   6.340  29.029   4.606
49344W        W14824  24.512   7.746   2.685
49345W        W14825  35.923  20.149  14.821
49346W        W14826   9.279  29.994  14.967
49347W        W14827   5.436  33.075   5.265
49348W        W14828   6.312  20.576   3.170
49349W        W14829  43.460  43.509  12.066
49350W        W14830  40.885  20.113   3.306
49351W        W14831  35.879  19.575   1.325
49352W        W14832  38.529  11.732  12.011
49353W        W14833  36.504  35.528   3.665
49354W        W14834  30.053   0.872   3.238
49355W        W14835  15.276  26.999   0.965
49356W        W14836  33.558   3.790  14.030
49357W        W14837  19.645   2.371   1.365
49358W        W14838   8.395  29.562   2.823
49359W        W14839   4.447  24.603   4.181
49360W        W14840  36.385   1.434  12.412
49361W        W14841  14.217  22.025   1.819
49362W        W14842  33.876   9.267   1.830
49363W        W14843   4.893  17.112   5.150
49364W        W14844  37.898  17.748   4.715
49365W        W14845  19.040  44.916   1.808
49366W        W14846  12.192  16.107  13.817
49367W        W14847  33.535  26.505  11.109
49368W        W14848  20.524  27.649   1.324
49369W        W14849  22.615  28.535   2.208
49370W        W14850   6.244  11.735  12.533
49371W        W14851  14.316  41.390  10.412
49372W        W14852  40.980  36.854  10.624
49373W        W14853   6.920  31.405   1.422
49374W        W14854   0.462  25.066  13.350
49375W        W14855  22.039   2.229  11.013
49376W        W14856  44.973  23.038  12.825
49377W        W14857  12.644  28.930   4.722
49378W        W14858  30.925  28.051   4.775
49379W        W14859  15.609  11.753  12.998
49380W        W14860  41.930   2.844  14.408
49381W        W14861  34.013  41.861  12.580
49382W        W14862  13.714  26.564   1.806
49383W        W14863  29.556  42.833  11.478
49384W        W14864  14.758   5.805   0.809
49385W        W14865  24.542  27.041  13.829
49386W        W14866   0.910  35.100  10.623
49387W        W14867  34.601   3.287  11.496
49388W        W14868  24.020  28.168   2.356
49389W        W14869   2.441  29.920  12.056
49390W        W14870  40.418  12.132   2.416
49391W        W14871   0.762   7.384   9.936
49392W        W14872  43.375   9.293  10.476
49393W        W14873  23.665  27.075   0.251
49394W        W14874  31.119  14.803   0.877
49395W        W14875  35.932  31.559   2.864
49396W        W14876   2.413  10.332  12.471
49397W        W14877  23.574  39.387  10.422
49398W        W14878  12.125  24.112  13.997
49399W        W14879  14.160  24.087   4.282
49400W        W14880  10.685   9.246   1.233
49401W        W14881  16.124  14.256   2.765
49402W        W14882  15.808  15.291   1.803
49403W        W14883  39.527  17.110   4.769
49404W        W14884  44.404  11.653   3.203
49405W        W14885  15.180  16.229   1.442
49406W        W14886  42.899  37.577  14.280
49407W        W14887   7.310  23.535   3.180
49408W        W14888  37.544  27.067  14.877
49409W        W14889   8.388  33.468  11.116
49410W        W14890  41.795  43.943   0.322
49411W        W14891  40.422  40.514  12.339
49412W        W14892  14.309  16.297  10.979
49413W        W14893   6.887  14.221   4.285
49414W        W14894  10.667   6.761  13.320
49415W        W14895   4.766  23.156   1.874
49416W        W14896  12.665  35.593   4.641
49417W        W14897  13.783  33.085   1.399
49418W        W14898   0.454   8.360  11.530
49419W        W14899  21.518  42.827  12.074
49420W        W14900  44.294  35.959   1.289
49421W        W14901  26.079  30.445  10.632
49422W        W14902  35.601  10.864   3.177
49423W        W14903  41.806  27.195  14.845
49424W        W14904  14.817  40.843   2.402
49425W        W14905   7.869  18.231   1.935
49426W        W14906   0.813   0.775   3.382
49427W        W14907  11.261  21.548   4.284
49428W        W14908  35.979  22.047  10.477
49429W        W14909   4.702  42.029  12.892
49430W        W14910  33.470   4.213  12.014
49431W        W14911  40.895  26.612   0.349
49432W        W14912  29.542  10.673  14.489
49433W        W14913  40.911   0.394   2.885
49434W        W14914  35.947  29.660  13.943
49435W        W14915  40.448  11.858   2.840
49436W        W14916  17.124  18.756   1.756
49437W        W14917  22.038  28.546   4.696
49438W        W14918  30.572   7.865   0.828
49439W        W14919  32.438  18.625   4.129
49440W        W14920  12.261  38.005  11.976
49441W        W14921  10.295  38.977   0.468
49442W        W14922  38.561  13.297  12.953
49443W        W14923  18.583  28.626  10.584
49444W        W14924  11.800  15.126   0.445
49445W        W14925  14.340  40.939   5.157
49446W        W14926   4.935  36.095  13.534
49447W        W14927  10.651  15.108   3.326
49448W        W14928  40.901  26.034  14.875
49449W        W14929  15.746  35.881   2.745
49450W        W14930  21.554  24.671   1.214
49451W        W14931  28.611  33.408  10.580
49452W        W14932   0.857  40.048  10.603
49453W        W14933  29.516  39.397   0.891
49454W        W14934  13.107  30.630  12.347
49455W        W14935  30.547   3.284   4.736
49456W        W14936  23.019  37.429   1.870
49457W        W14937  21.560  30.055  12.013
49458W        W14938   2.293  40.031   4.663
49459W        W14939  29.977  23.538  13.937
49460W        W14940  33.467  25.988   2.233
49461W        W14941   2.892  28.949  11.593
49462W        W14942  30.008   2.880  12.875
49463W        W14943  25.004  37.532   0.786
49464W        W14944  17.114  22.167   4.781
49465W        W14945   4.345  15.756  14.317
49466W        W14946  40.807  35.065  13.927
49467W        W14947  29.937  38.379   2.835
49468W        W14948  25.000  26.167   1.336
49469W        W14949  31.499  20.032  11.606
49470W        W14950   7.385  26.695   4.714
49471W        W14951  28.637  29.952  12.458
49472W        W14952  16.669  39.015   4.213
49473W        W14953  11.679  20.241  13.059
49474W        W14954  23.636  28.489  12.046
49475W        W14955   6.251  11.219   1.926
49476W        W14956  33.459  33.551   5.302
49477W        W14957  25.495  28.576   0.256
49478W        W14958  24.192  43.504   2.293
49479W        W14959  41.933  25.636   4.133
49480W        W14960  24.522  21.262  10.942
49481W        W14961  13.308  43.865   5.263
49482W        W14962  16.308   6.911  13.946
49483W        W14963  28.934  21.677  13.355
49484W        W14964  23.562  20.704   1.237
49485W        W14965  40.912   4.781  14.493
49486W        W14966  25.605   1.757  12.560
49487W        W14967  15.638  40.024   5.247
49488W        W14968  29.504  44.907  13.436
49489W        W14969  29.502   8.203  11.385
49490W        W14970   0.831   1.350   3.190
49491W        W14971  41.996  14.264   1.749
49492W        W14972  44.380   9.366   0.937
49493W        W14973   3.258  27.013  11.095
49494W        W14974  31.520  17.555  14.498
49495W        W14975  23.629  44.329  13.932
49496W        W14976  29.072  26.975  11.044
49497W        W14977  11.697   2.302  13.891
49498W        W14978  29.974  27.085  11.371
49499W        W14979  23.579  17.580   3.170
49500W        W14980  43.876  32.594  12.947
49501W        W14981  26.691  28.985  11.454
49502W        W14982  28.677  25.186   0.249
49503W        W14983  24.722  13.747   2.382
49504W        W14984  30.110  29.072  10.605
49505W        W14985  34.476  27.523   2.839
49506W        W14986  19.215  23.691  14.981
49507W        W14987  39.816  35.527   0.877
49508W        W14988  29.454  20.148  11.397
49509W        W14989  42.520  35.405  14.793
49510W        W14990  26.119  27.980  14.986
49511W        W14991  26.569  24.511  14.371
49512W        W14992   2.265   1.765  10.612
49513W        W14993  13.312   2.448   4.155
49514W        W14994  39.976  38.475   4.310
49515W        W14995  32.044  37.890  11.957
49516W        W14996   4.354  33.998   3.270
49517W        W14997  11.192   3.919   2.704
49518W        W14998  12.651   4.327  11.594
49519W        W14999  42.344  11.371   1.407
49520W        W15000  13.193  21.112  14.811
49521W        W15001  21.241  35.062   0.804
49522W        W15002  42.785   2.934  11.541
49523W        W15003  25.597  17.570   1.255
49524W        W15004  10.331  42.366   4.315
49525W        W15005  11.373   7.202   1.239
49526W        W15006  32.577   6.894  10.561
49527W        W15007  37.013  42.299   4.128
49528W        W15008  27.535  31.596  14.317
49529W        W15009   2.960  34.969   2.376
49530W        W15010   8.349  41.393   0.876
49531W        W15011  41.343  25.686  12.096
49532W        W15012  44.836  38.928  14.900
49533W        W15013  37.919   9.722  10.512
49534W        W15014  32.621  31.514   2.286
49535W        W15015  37.366  14.156  14.285
49536W        W15016  21.243  17.172  11.896
49537W        W15017  23.094  27.644  14.429
49538W        W15018   6.853   7.756   2.416
49539W        W15019  10.272   8.199  13.055
49540W        W15020  16.076  44.436  12.973
49541W        W15021  13.341  44.295   3.256
49542W        W15022  22.176  18.241  12.377
49543W        W15023  44.775  35.924  13.061
49544W        W15024  37.462   8.877   4.779
49545W        W15025   1.367  27.017   3.698
49546W        W15026  43.466  10.699   1.917
49547W        W15027  11.689   8.843  12.543
49548W        W15028   7.730  14.237   1.905
49549W        W15029   6.901  14.635   0.442
49550W        W15030  41.297   6.300   2.857
49551W        W15031  43.895  11.238  12.923
49552W        W15032  25.691   9.802   4.662
49553W        W15033   4.855  24.069   0.461
49554W        W15034  13.672  31.055   0.326
49555W        W15035  20.077   1.931   1.885
49556W        W15036  30.116  34.083  10.572
49557W        W15037  42.892  26.997  11.061
49558W        W15038  37.543  28.954  10.134
49559W        W15039   0.383  10.850   3.338
49560W        W15040  33.936   8.705  13.480
49561W        W15041  15.660  33.093   4.601
49562W        W15042  22.102   7.870   3.752
49563W        W15043  17.199   7.706   3.779
49564W        W15044   1.779  32.578   0.861
49565W        W15045   7.812  37.956   3.718
49566W        W15046   2.289   2.760  11.894
49567W        W15047  39.554  41.420  11.975
49568W        W15048  38.374   0.852  14.485
49569W        W15049  42.938  40.400  12.041
49570W        W15050  23.526  36.378   2.727
49571W        W15051  27.553  15.587  11.508
49572W        W15052   9.836  43.507   3.863
49573W        W15053   8.893  36.412  10.450
49574W        W15054  20.234  11.715   3.734
49575W        W15055   3.903  21.105   0.846
49576W        W15056  42.948   2.950  10.981
49577W        W15057  44.319   5.348   3.383
49578W        W15058  43.767  35.521  13.041
49579W        W15059  20.603   4.786   1.418
49580W        W15060  37.032  21.551  13.324
49581W        W15061  28.494  37.045   1.805
49582W        W15062   7.331  22.007   3.191
49583W        W15063  41.419  16.182   1.803
49584W        W15064  24.083  36.527  10.502
49585W        W15065  42.022  37.418  10.966
49586W        W15066  16.762  36.388   2.384
49587W        W15067  17.257   7.395  11.057
49588W        W15068  35.954  33.127  14.866
49589W        W15069  29.066  34.448  10.894
49590W        W15070  41.997   7.681   2.734
49591W        W15071  34.084  26.024  12.372
49592W        W15072  32.888   4.942  14.308
49593W        W15073  35.062  32.944  11.902
49594W        W15074  44.899   2.296   4.332
49595W        W15075  38.383  21.617  14.763
49596W        W15076  44.355   7.903   2.306
49597W        W15077  11.197   3.916   4.651
49598W        W15078  33.969   1.863   4.600
49599W        W15079  37.396  28.142   0.416
49600W        W15080  39.061  28.023  12.918
49601W        W15081  38.416  12.340   2.296
49602W        W15082  31.947  11.367  11.110
49603W        W15083  25.504   9.236  12.082
49604W        W15084  35.852  13.351  12.348
49605W        W15085  44.298  21.069   3.781
49606W        W15086  29.082   6.796   0.785
49607W        W15087  41.341  27.998   2.299
49608W        W15088   5.694  44.431   4.122
49609W        W15089  32.396  21.614   4.643
49610W        W15090  29.545  18.779   5.134
49611W        W15091  34.118  41.293  13.834
49612W        W15092   0.441   8.705  13.965
49613W        W15093  30.494  26.702  14.024
49614W        W15094  14.833  15.821  14.969
49615W        W15095  30.502   0.834   2.189
49616W        W15096  26.579  42.338  12.380
49617W        W15097  36.978  20.704   1.832
49618W        W15098  31.544  20.079  13.965
49619W        W15099  22.173   7.746   0.834
49620W        W15100  28.465   0.384  10.626
49621W        W15101  14.265  44.368   1.285
49622W        W15102  19.244  12.256  13.006
49623W        W15103  21.547  25.498   4.731
49624W        W15104  36.982   7.761  12.952
49625W        W15105  23.207  33.474   1.708
49626W        W15106   3.287   9.869  10.452
49627W        W15107  38.931  38.402   0.757
49628W        W15108   3.873  27.968  12.977
49629W        W15109   7.711  12.612  12.500
49630W        W15110  11.247  35.025  12.023
49631W        W15111  40.371  34.540   2.828
49632W        W15112  11.682  32.635  13.452
49633W        W15113  19.542  35.856  10.418
49634W        W15114  28.576  32.500   1.405
49635W        W15115   4.762  40.840  11.536
49636W        W15116  11.257  32.135   4.238
49637W        W15117  41.926  23.055  11.082
49638W        W15118   5.780  35.104   5.178
49639W        W15119  44.837  21.147  10.908
49640W        W15120  13.600  19.721  11.877
49641W        W15121   0.867  38.917   0.923
49642W        W15122  15.684  17.271  14.357
49643W        W15123  42.346  30.048   4.307
49644W        W15124  31.467   7.229  13.496
49645W        W15125   2.233  22.234   0.845
49646W        W15126  40.992  30.931  10.621
49647W        W15127   3.454  36.094   5.240
49648W        W15128  27.615  15.147   2.866
49649W        W15129  43.507   7.791   2.407
49650W        W15130  33.998  22.998   3.174
49651W        W15131  27.990   8.845  11.563
49652W        W15132  38.010  43.467  12.416
49653W        W15133   8.819   7.308  12.036
49654W        W15134   9.339  29.514  12.891
49655W        W15135   0.915   7.763  14.759
49656W        W15136   8.391  27.162  13.326
49657W        W15137  26.599  19.163  14.778
49658W        W15138  11.212  42.394  11.428
49659W        W15139  28.125   6.857   0.907
49660W        W15140  12.356   8.794  14.392
49661W        W15141  15.666  14.157   0.927
49662W        W15142  37.002  31.925  13.547
49663W        W15143  36.090  15.211   2.402
49664W        W15144  31.526  14.710   2.344
49665W        W15145  12.792  43.458   1.821
49666W        W15146  35.597  14.142   2.189
49667W        W15147  29.030  15.767   1.322
49668W        W15148   7.188   7.718  11.072
49669W        W15149  26.021  13.123   0.854
49670W        W15150  14.689  20.060  14.778
49671W        W15151  27.550  33.062   0.783
49672W        W15152  34.946  26.026  11.478
49673W        W15153  14.269  26.509  10.452
49674W        W15154  11.269  21.170   3.710
49675W        W15155   9.378  38.547  13.438
49676W        W15156  38.935  37.374  12.849
49677W        W15157  26.678  23.579  11.021
49678W        W15158   1.289  44.436   4.622
49679W        W15159  40.528  33.003  13.528
49680W        W15160   1.777   4.207  13.454
49681W        W15161   5.913  38.960  12.042
49682W        W15162  32.047  11.777   1.227
49683W        W15163  33.119  40.333   3.779
49684W        W15164  12.226   3.833   3.773
49685W        W15165  11.325  37.445   1.339
49686W        W15166  11.790  37.935  12.016
49687W        W15167  26.100  13.332   2.343
49688W        W15168  38.043  27.180   4.278
49689W        W15169  10.769  16.678   3.751
49690W        W15170  16.113  10.813   4.756
49691W        W15171   7.354   1.378   2.678
49692W        W15172  28.576  38.379   2.841
49693W        W15173   9.780   0.268  13.439
49694W        W15174   8.308  23.069   4.691
49695W        W15175  19.597  21.700  14.008
49696W        W15176  34.397  32.019   4.649
49697W        W15177  44.791  29.634  11.115
49698W        W15178  16.166  36.396  12.513
49699W        W15179  12.690  17.781  13.415
49700W        W15180  31.527  12.209   0.756
49701W        W15181  10.665  22.111  10.509
49702W        W15182   8.317  38.917   1.789
49703W        W15183  22.721  37.578   3.724
49704W        W15184  42.519  38.872   1.231
49705W        W15185  12.660  40.923  12.010
49706W        W15186   2.797   8.400  12.044
49707W        W15187  31.044  15.307   3.175
49708W        W15188  17.262  12.666   2.334
49709W        W15189  26.015   1.409  14.344
49710W        W15190  15.229   1.388  14.780
49711W        W15191  39.316  27.969   3.290
49712W        W15192   3.829  41.797  12.484
49713W        W15193  35.917  14.097   1.848
49714W        W15194  21.573  34.058  14.987
49715W        W15195  44.480  19.599   4.611
49716W        W15196  23.072  21.627  10.453
49717W        W15197   2.754   5.198   1.750
49718W        W15198   3.416  38.873   0.786
49719W        W15199  10.717  43.878  13.013
49720W        W15200   8.720  42.449   2.859
49721W        W15201   6.839  10.873   3.817
49722W        W15202   2.819  37.508  12.971
49723W        W15203  13.704  20.663  10.491
49724W        W15204  31.938   5.776  13.400
49725W        W15205  43.411  40.851  14.934
49726W        W15206   9.753  41.446  12.985
49727W        W15207  11.129  20.595   3.158
49728W        W15208  15.298  26.703   3.671
49729W        W15209  23.613   3.832   1.259
49730W        W15210  44.826  34.010  12.975
49731W        W15211  23.125  30.542  12.467
49732W        W15212   1.448  39.926  14.005
49733W        W15213  34.072  15.746  13.851
49734W        W15214  42.524  41.514   3.297
49735W        W15215  35.537  26.594  10.635
49736W        W15216  15.289   6.815   0.350
49737W        W15217  19.138  29.994   4.187
49738W        W15218  10.191   9.692  14.451
49739W        W15219   3.865  43.505   0.909
49740W        W15220  10.362  25.506   5.241
49741W        W15221  15.698  33.425  14.940
49742W        W15222  17.561  36.581   1.836
49743W        W15223   1.867  14.215   1.432
49744W        W15224  33.513  11.866   0.841
49745W        W15225  20.207  17.645   2.847
49746W        W15226  13.320  29.543  13.476
49747W        W15227  32.981  16.710  13.324
49748W        W15228  19.615  18.160  14.288
49749W        W15229   1.891  37.489   4.665
49750W        W15230  26.591  23.572   3.839
49751W        W15231  33.498   9.314  13.339
49752W        W15232   7.282  24.129  11.909
49753W        W15233   9.292  31.510   3.637
49754W        W15234  41.292  31.578   1.391
49755W        W15235  27.498  11.366  14.817
49756W        W15236   0.350  16.268  10.963
49757W        W15237  15.162  35.866  11.435
49758W        W15238  24.527  28.457   3.272
49759W        W15239  24.548  29.146  13.959
49760W        W15240   2.275   8.786  14.018
49761W        W15241  10.860  34.533   4.782
49762W        W15242  34.090   9.711   3.842
49763W        W15243  16.616   3.364   3.372
49764W        W15244  15.589   3.266   4.680
49765W        W15245   6.748  13.776   4.757
49766W        W15246  33.964  35.447   1.865
49767W        W15247   8.240  22.734   3.209
49768W        W15248  31.028  18.649   1.723
49769W        W15249   1.898  29.022   2.751
49770W        W15250   7.772  13.184   0.425
49771W        W15251  20.097   5.218  13.818
49772W        W15252   0.386  15.305  13.923
49773W        W15253  43.944  39.825  11.978
49774W        W15254  42.006  39.494  13.812
49775W        W15255   5.843  13.782  14.770
49776W        W15256  44.002  37.048   4.262
49777W        W15257  33.989  41.925   3.756
49778W        W15258  20.746  41.372  13.375
49779W        W15259  37.391  29.009  11.885
49780W        W15260  11.296   0.424   4.729
49781W        W15261  28.017  18.244   3.765
49782W        W15262  38.073   9.275   3.680
49783W        W15263  27.144  27.079  12.493
49784W        W15264  13.352  25.213  13.422
49785W        W15265  23.115  22.515  14.871
49786W        W15266  14.801  33.494   5.298
49787W        W15267  22.035  18.059  14.326
49788W        W15268  33.508  18.192   1.790
49789W        W15269  29.518  20.235  13.386
49790W        W15270  11.211  12.629  14.478
49791W        W15271  21.577  18.139  12.374
49792W        W15272  24.659  43.321   5.317
49793W        W15273   6.907  36.973  14.374
49794W        W15274   6.256  37.075   2.676
49795W        W15275  22.167   8.792   4.339
49796W        W15276  27.966  12.804  13.428
49797W        W15277   5.423  22.735   1.441
49798W        W15278  38.546  19.767  12.840
49799W        W15279  19.681   3.440  10.136
49800W        W15280   1.967  26.034   1.839
49801W        W15281  12.839  18.672   1.715
49802W        W15282   9.827   3.442  14.439
49803W        W15283  20.635  18.676  14.938
49804W        W15284   7.319  41.410  11.570
49805W        W15285  36.426   4.888  14.791
49806W        W15286  36.902  24.544  14.802
49807W        W15287  41.352  19.109  12.989
49808W        W15288  13.766   4.863   0.454
49809W        W15289  24.620  21.610   3.635
49810W        W15290  14.256  12.613  12.436
49811W        W15291  19.586  22.576  10.538
49812W        W15292  25.522  35.944  11.580
49813W        W15293   4.928   4.300   4.717
49814W        W15294  26.986  44.385   0.908
49815W        W15295  44.872   9.313   0.254
49816W        W15296  27.506  24.711  13.991
49817W        W15297   8.861  33.448   2.671
49818W        W15298   1.936  20.032   0.259
49819W        W15299   5.869  41.000  11.489
49820W        W15300  19.566  17.072   1.309
49821W        W15301  22.643  26.954  13.360
49822W        W15302  35.868  31.603  14.389
49823W        W15303  25.510   3.254   3.660
49824W        W15304  11.666  12.169   1.744
49825W        W15305  28.018   7.186  13.863
49826W        W15306  33.987   2.393   1.279
49827W        W15307  22.631   2.831   4.316
49828W        W15308  23.072  37.347  14.284
49829W        W15309  41.524  38.409  12.447
49830W        W15310  34.950  10.305   2.737
49831W        W15311  41.370  28.145  13.874
49832W        W15312  11.153  15.273  11.424
49833W        W15313   2.362  27.583  13.447
49834W        W15314   3.425  15.094  14.988
49835W        W15315   2.261  29.618   0.288
49836W        W15316   1.836  32.632  10.936
49837W        W15317  27.464  34.478   4.168
49838W        W15318  28.549  12.807  14.837
49839W        W15319   1.373  43.806  14.466
49840W        W15320  41.533  44.809   1.716
49841W        W15321  14.216   3.874  14.030
49842W        W15322  22.500  36.899   4.242
49843W        W15323  44.322  23.694  13.315
49844W        W15324  23.997  10.305   3.740
49845W        W15325  40.799  15.732  12.436
49846W        W15326  33.524   8.373  12.518
49847W        W15327  22.168  36.015   3.195
49848W        W15328  23.211  33.604  10.083
49849W        W15329   5.212  21.180   2.383
49850W        W15330  26.533   9.344  12.573
49851W        W15331  38.919   1.763  10.092
49852W        W15332  19.115  38.042   1.726
49853W        W15333  42.325   0.371   4.201
49854W        W15334  35.870  34.079   0.866
49855W        W15335   6.878  34.562  14.814
49856W        W15336  20.224  25.990   1.360
49857W        W15337  23.608  27.118  13.425
49858W        W15338  18.780  34.371   0.890
49859W        W15339   4.269   6.908   3.787
49860W        W15340  38.461  34.885   0.734
49861W        W15341  36.479  38.861   2.409
49862W        W15342  27.672  22.686  14.031
49863W        W15343   7.903   1.353   2.281
49864W        W15344  32.016  13.225   3.344
49865W        W15345   4.921  16.155  12.056
49866W        W15346  35.863   2.386   2.857
49867W        W15347  43.791  31.432   2.348
49868W        W15348  21.549  11.237  13.516
49869W        W15349  25.056   3.427   3.173
49870W        W15350  23.046   9.835  12.892
49871W        W15351  23.227  29.464  12.564
49872W        W15352  29.078   4.298  14.979
49873W        W15353  26.536  25.554   0.832
49874W        W15354  14.120  23.667   4.599
49875W        W15355  39.061  13.343   5.228
49876W        W15356  32.507  37.044   3.690
49877W        W15357  39.441   8.209  13.540
49878W        W15358  36.569  28.546   1.265
49879W        W15359   4.741  43.413  14.289
49880W        W15360  20.071   0.356   0.448
49881W        W15361  15.673  25.066   5.095
49882W        W15362   3.726  35.513  10.915
49883W        W15363   5.216  42.951   1.356
49884W        W15364   0.426  30.964   1.865
49885W        W15365  38.841  42.521  13.403
49886W        W15366  41.832   1.766   3.205
49887W        W15367  17.572  18.719   0.252
49888W        W15368  32.001  36.990  14.977
49889W        W15369  39.445  28.577   0.369
49890W        W15370  28.654  13.607   3.823
49891W        W15371   9.280  44.927   0.834
49892W        W15372   3.413  33.900  14.301
49893W        W15373   4.450  43.284  10.579
49894W        W15374  15.164  25.539   1.741
49895W        W15375  16.785  33.625   5.206
49896W        W15376  31.954   6.709  10.968
49897W        W15377   7.314  13.147   4.226
49898W        W15378  32.968   7.798   3.332
49899W        W15379  32.491  27.984  12.557
49900W        W15380  34.933  13.312  14.442
49901W        W15381  29.465  22.547  13.025
49902W        W15382  39.374  28.481  13.452
49903W        W15383   3.262   2.440   1.409
49904W        W15384  10.735  30.466   3.282
49905W        W15385   9.731   8.752   0.831
49906W        W15386  30.953  18.618   1.245
49907W        W15387  32.022   3.892  10.589
49908W        W15388  30.953  17.085   5.200
49909W        W15389  28.157  17.560   9.992
49910W        W15390  38.931  31.919   2.350
49911W        W15391  25.626  18.236  14.957
49912W        W15392  22.506  35.525   4.813
49913W        W15393  40.954  16.208  11.129
49914W        W15394  35.928  36.570  12.833
49915W        W15395  26.158   1.840   1.242
49916W        W15396  39.810   1.765   3.764
49917W        W15397   0.748   3.386   3.329
49918W        W15398  29.524   5.757   9.970
49919W        W15399  37.493  36.350   4.772
49920W        W15400  43.971  41.835   4.353
49921W        W15401  12.148   6.217   1.713
49922W        W15402  16.130  29.618  11.435
49923W        W15403  41.531  32.983  14.461
49924W        W15404   0.436   5.226  14.000
49925W        W15405  16.077  29.163  12.040
49926W        W15406  44.355  42.032  11.481
49927W        W15407  28.544  43.484  13.324
49928W        W15408   9.194  27.145  12.505
49929W        W15409  36.845  20.572   1.301
49930W        W15410  12.757   7.693   0.899
49931W        W15411  37.440  13.259   3.814
49932W        W15412  25.629  41.473   4.781
49933W        W15413  39.519  28.498  10.619
49934W        W15414   8.335  39.936   2.796
49935W        W15415  12.795  15.249   3.635
49936W        W15416  24.084   1.321   3.725
49937W        W15417  11.734  20.596  14.294
49938W        W15418  21.043  24.502  11.592
49939W        W15419  40.535   6.331   2.734
49940W        W15420  14.737   0.386   1.864
49941W        W15421  43.977   8.215   3.355
49942W        W15422  37.009  44.445  13.537
49943W        W15423  37.897   7.723   4.822
49944W        W15424   1.432  36.919  10.529
49945W        W15425  44.818  29.576   3.237
49946W        W15426  36.428  29.567   3.713
49947W        W15427  18.243   0.481  13.531
49948W        W15428   0.375  28.516   3.365
49949W        W15429   5.695  22.169  11.863
49950W        W15430  23.047  27.472  11.061
49951W        W15431   0.431  15.092   3.806
49952W        W15432  31.923  22.691  12.014
49953W        W15433  26.084  35.457   3.784
49954W        W15434  18.705  42.396   3.362
49955W        W15435   6.874  41.798   1.221
49956W        W15436  19.725  22.042   2.192
49957W        W15437  24.052  38.842  13.327
49958W        W15438  28.986  20.698  12.978
49959W        W15439  14.232  42.794   3.813
49960W        W15440   3.375  26.135  11.013
49961W        W15441  24.048   4.230  11.976
49962W        W15442   2.321  41.509  11.413
49963W        W15443  34.562  14.281   3.351
49964W        W15444  39.514   2.829   1.396
49965W        W15445  24.588   4.410  13.947
49966W        W15446  18.165  25.583  12.833
49967W        W15447  20.129   1.837   4.800
49968W        W15448  29.040  18.283   4.642
49969W        W15449  11.128   0.887   3.264
49970W        W15450  11.323  33.573  13.827
49971W        W15451   7.373   2.462  10.407
49972W        W15452  18.660  28.031   2.684
49973W        W15453  15.785  21.197  14.833
49974W        W15454  22.062  44.963  11.543
49975W        W15455  18.634  14.770   3.831
49976W        W15456  30.980   4.797  11.985
49977W        W15457  44.993  43.815   4.311
49978W        W15458  24.498  11.258  12.364
49979W        W15459   6.371  16.723   2.736
49980W        W15460  25.562  42.840   3.175
49981W        W15461  40.520   4.938  13.062
49982W        W15462  40.977   1.334   3.745
49983W        W15463  10.859  35.934  14.285
49984W        W15464  15.293  44.393   0.465
49985W        W15465  24.070  12.741  14.424
49986W        W15466  43.502  38.968  12.872
49987W        W15467  41.435   0.820   0.734
49988W        W15468  24.991   8.237   2.253
49989W        W15469  26.131   9.295  14.476
49990W        W15470   4.920  29.439   1.783
49991W        W15471   0.965  43.818   4.319
49992W        W15472  33.984  40.983  12.912
49993W        W15473  26.571   1.241  13.949
49994W        W15474  39.843  14.179  14.844
49995W        W15475  41.837  15.644  11.561
49996W        W15476  17.704  17.116  13.840
49997W        W15477  19.698  28.073   3.709
49998W        W15478  26.206   1.874  14.311
49999W        W15479  39.969  18.228  12.397
50000W        W15480  13.301  40.379  10.922
50001W        W15481  32.120   1.744  13.307
50002W        W15482  15.692   2.248   3.836
50003W        W15483  20.066  41.400   1.784
50004W        W15484  29.952  12.300   0.310
50005W        W15485  15.801  10.641  10.480
50006W        W15486  39.994  37.852  11.608
50007W        W15487  42.819   8.364  11.982
50008W        W15488  39.337  37.452   0.879
50009W        W15489  20.037  41.000  14.958
50010W        W15490  22.166   0.346   1.246
50011W        W15491   7.378  35.875  14.358
50012W        W15492  32.059  13.245   1.770
50013W        W15493  36.955  27.097  11.911
50014W        W15494  42.506  36.031   0.260
50015W        W15495   1.402  42.998  10.993
50016W        W15496  17.274  15.736   1.360
50017W        W15497  32.460  27.182  14.486
50018W        W15498  31.479  39.908   1.848
50019W        W15499   6.814  33.471  10.628
50020W        W15500  44.381   7.674  12.914
50021W        W15501  41.992  36.593  13.917
50022W        W15502  16.221   4.363  11.602
50023W        W15503  39.402  29.544   2.377
50024W        W15504   1.970  37.886   4.676
50025W        W15505  13.148  25.176   4.341
50026W        W15506   9.710  38.053   2.249
50027W        W15507  41.013  44.766  11.592
50028W        W15508  34.548   4.357  14.483
50029W        W15509  33.031  15.626  10.953
50030W        W15510   2.735   2.881   3.757
50031W        W15511  29.175  20.656  10.405
50032W        W15512  25.570  35.496  13.793
50033W        W15513   2.807  23.728   1.813
50034W        W15514   8.889  21.679   0.727
50035W        W15515  29.569  38.468  10.561
50036W        W15516  39.955  39.907  11.092
50037W        W15517  30.520  35.896  11.521
50038W        W15518  26.104  35.469  12.344
50039W        W15519   9.379  29.484  11.545
50040W        W15520  29.664  40.390  13.331
50041W        W15521  22.232  10.261   2.202
50042W        W15522  33.948  30.934  14.289
50043W        W15523  28.095  23.692   2.384
50044W        W15524  38.416  42.472   2.695
50045W        W15525  33.582   2.954   3.222
50046W        W15526   7.713  18.776  12.895
50047W        W15527  27.956  12.174   0.423
50048W        W15528   5.932  33.578   2.200
50049W        W15529  25.550  20.723  11.068
50050W        W15530  20.557  27.023   2.377
50051W        W15531  11.694   9.706  14.779
50052W        W15532  21.066  12.327   0.397
50053W        W15533  35.497  30.146   3.154
50054W        W15534  23.999   7.181   1.245
50055W        W15535  40.914  22.577  13.438
50056W        W15536  41.014  28.522   3.697
50057W        W15537  40.877  37.015   1.358
50058W        W15538   7.677   0.434  10.585
50059W        W15539  31.028  20.041   0.929
50060W        W15540  16.616  37.886   1.387
50061W        W15541  16.736  17.077   1.306
50062W        W15542  22.618  17.123  12.847
50063W        W15543  12.677  21.127  12.406
50064W        W15544  38.566  37.419  11.922
50065W        W15545   3.872  18.234  10.079
50066W        W15546  23.033   2.423   3.210
50067W        W15547   1.458   5.787   1.730
50068W        W15548  11.644   5.865   0.257
50069W        W15549  29.477  27.157   0.478
50070W        W15550  42.817  17.097  14.355
50071W        W15551  32.143  40.800   1.426
50072W        W15552  40.967  23.716   2.316
50073W        W15553  15.817   5.385  10.420
50074W        W15554  44.376  23.111  12.859
50075W        W15555   9.204   7.351  11.501
50076W        W15556   4.369  43.405  12.072
50077W        W15557  23.088  34.460   2.669
50078W        W15558  24.581  34.602  12.008
50079W        W15559  37.918  36.514  10.406
50080W        W15560  25.676  17.251   1.816
50081W        W15561  43.338   3.951   2.671
50082W        W15562  26.590  10.256   2.277
50083W        W15563   8.180  33.553  14.467
50084W        W15564  29.593  36.067   3.721
50085W        W15565  16.660   7.690   3.271
50086W        W15566  37.916  37.377   4.679
50087W        W15567  39.381   8.831  13.328
50088W        W15568  35.079  26.018  12.006
50089W        W15569  12.691  20.238  11.942
50090W        W15570  13.726  19.284  10.456
50091W        W15571  19.548  29.040   0.343
50092W        W15572   4.737   8.324   9.964
50093W        W15573  16.806  13.718   3.373
50094W        W15574  44.002  13.326  13.053
50095W        W15575  15.258  33.040  12.924
50096W        W15576  24.557  38.065  13.912
50097W        W15577   6.282  41.843  13.824
50098W        W15578  13.164  19.267   0.399
50099W        W15579  20.040  19.233  11.115
50100W        W15580  19.753  41.027   1.392
50101W        W15581  29.577   1.430  13.456
50102W        W15582  37.379   6.218  14.993
50103W        W15583   5.354   8.375  11.597
50104W        W15584  19.754  42.917  12.826
50105W        W15585  15.254  15.699  10.974
50106W        W15586   4.274  44.804  10.538
50107W        W15587  12.773  10.778   0.780
50108W        W15588  35.901  18.618   2.786
50109W        W15589  44.783  43.877   3.815
50110W        W15590  16.627  27.059   1.399
50111W        W15591   3.883  13.722   2.854
50112W        W15592  25.705  19.203   2.868
50113W        W15593  34.974   3.398  13.505
50114W        W15594  10.673  32.959  14.768
50115W        W15595  14.325  32.408   3.241
50116W        W15596  25.146  11.140   0.256
50117W        W15597  38.073  44.857  11.085
50118W        W15598  14.339  20.651  12.919
50119W        W15599   6.771  22.163  14.300
50120W        W15600  33.911   4.215  14.023
50121W        W15601  23.736  39.431   0.926
50122W        W15602  13.747  40.935   1.893
50123W        W15603  21.567  20.642  14.907
50124W        W15604  28.146  13.192  10.948
50125W        W15605   4.722  10.875   2.201
50126W        W15606   7.821  11.219   2.225
50127W        W15607  17.169  33.539  13.859
50128W        W15608   2.820  31.941   3.710
50129W        W15609  36.471  37.578   2.800
50130W        W15610  15.177  15.771   1.902
50131W        W15611  22.529  29.645  11.420
50132W        W15612  32.061  16.712  13.988
50133W        W15613  14.596  37.854  12.475
50134W        W15614  20.657  30.037   1.746
50135W        W15615   5.206  10.343   3.868
50136W        W15616   2.743  37.958   1.445
50137W        W15617   5.289  44.785   2.243
50138W        W15618  22.554   4.224   4.659
50139W        W15619  29.611  43.453   2.227
50140W        W15620  32.114  25.198   4.280
50141W        W15621  29.639  38.358  12.369
50142W        W15622  10.842  26.498   3.742
50143W        W15623   0.479   7.385  12.466
50144W        W15624  21.148  10.227   1.738
50145W        W15625  10.346  39.872   1.253
50146W        W15626  24.030  26.678   4.673
50147W        W15627  20.143   5.899  12.037
50148W        W15628   6.350  29.070  13.915
50149W        W15629  19.632  41.021   4.744
50150W        W15630  24.133   5.324   4.177
50151W        W15631  28.661  30.140  11.479
50152W        W15632   1.473   5.817   2.206
50153W        W15633  33.551  32.465  11.432
50154W        W15634  44.461  27.517   1.834
50155W        W15635  25.035   9.261   4.248
50156W        W15636   6.882  12.739  13.319
50157W        W15637  33.043  26.554   3.224
50158W        W15638  16.648  33.404   0.751
50159W        W15639  15.747  44.392  11.089
50160W        W15640   4.748  25.074  13.955
50161W        W15641   8.718  18.240   4.302
50162W        W15642  28.125  12.763  11.371
50163W        W15643  31.952  18.061   1.889
50164W        W15644   6.316  22.578  10.405
50165W        W15645  22.168   6.383   5.209
50166W        W15646  18.056  25.076  14.997
50167W        W15647   8.337  36.571  13.533
50168W        W15648  27.629   6.325  11.116
50169W        W15649  43.367  28.018   3.852
50170W        W15650   0.951  10.685   2.874
50171W        W15651  32.523   8.236   1.789
50172W        W15652  11.710  40.971  13.926
50173W        W15653  15.153  41.039  11.548
50174W        W15654   5.267  44.958  14.785
50175W        W15655  13.706  26.187   4.164
50176W        W15656  25.602  39.502  10.503
50177W        W15657  36.450   3.264  12.461
50178W        W15658   3.364  30.098  10.890
50179W        W15659  43.417  31.100  11.981
50180W        W15660  37.997  44.816  14.509
50181W        W15661   3.769  21.061  10.908
50182W        W15662  44.304  20.197   5.236
50183W        W15663  32.894   9.772  10.962
50184W        W15664  12.677  34.602  10.533
50185W        W15665  13.707  31.606  14.939
50186W        W15666  34.417  11.654  10.561
50187W        W15667   6.828  14.296   4.597
50188W        W15668  36.925  25.970  11.065
50189W        W15669  36.889  40.421  13.311
50190W        W15670   3.802  14.206  13.804
50191W        W15671  24.672  18.555  11.452
50192W        W15672  36.968  28.515   2.662
50193W        W15673  37.919  43.419  12.029
50194W        W15674  34.440  41.906   3.299
50195W        W15675   4.715  24.536   1.300
50196W        W15676  26.091  23.663   2.412
50197W        W15677   0.404   9.794   4.758
50198W        W15678  37.500  34.597   0.918
50199W        W15679  32.502  31.524   1.404
50200W        W15680  29.999  10.827   2.279
50201W        W15681  27.978  35.029   2.381
50202W        W15682   4.889  43.947   2.896
50203W        W15683  34.901  23.570  11.885
50204W        W15684  10.335  33.548  13.547
50205W        W15685  20.739  38.958  13.359
50206W        W15686  24.020  25.008  10.932
50207W        W15687  37.050  22.040  11.378
50208W        W15688  39.339  22.683   4.350
50209W        W15689   2.368   1.883   4.761
50210W        W15690  14.152  31.503   2.237
50211W        W15691  12.235  41.978  14.348
50212W        W15692  41.858  20.162  12.961
50213W        W15693  18.764  23.138   4.667
50214W        W15694  43.465  35.927  11.987
50215W        W15695   8.294  28.166   3.636
50216W        W15696  33.009   3.237   0.878
50217W        W15697  35.544  37.065  11.579
50218W        W15698   4.448  19.556   2.703
50219W        W15699   5.856  30.562   3.330
50220W        W15700  11.827  31.007   1.897
50221W        W15701   3.808  38.401   2.724
50222W        W15702  33.964   8.161  14.778
50223W        W15703  30.072  29.154   2.812
50224W        W15704  25.010   5.690   4.644
50225W        W15705  37.463  24.137  13.869
50226W        W15706   4.720  22.138  12.347
50227W        W15707  23.152  10.239  13.961
50228W        W15708   6.712  14.306   3.738
50229W        W15709  10.305  22.059   1.239
50230W        W15710  41.848  37.925   3.149
50231W        W15711  29.999  35.106   0.483
50232W        W15712  22.243  23.637   1.387
50233W        W15713   8.753  42.522  10.503
50234W        W15714  24.114  42.010  14.008
50235W        W15715  15.600  12.792  10.113
50236W        W15716  41.461  19.178  11.398
50237W        W15717  28.019  11.279   1.935
50238W        W15718  30.493   0.907  12.454
50239W        W15719  41.382  32.400   1.305
50240W        W15720  41.374  43.415   3.724
50241W        W15721  25.093  44.861   1.818
50242W        W15722  35.911  30.440  13.422
50243W        W15723  10.850  19.094  14.986
50244W        W15724  37.428  19.160  11.397
50245W        W15725  19.548  21.164  13.452
50246W        W15726   3.806  29.534  12.366
50247W        W15727  38.057  26.991   0.880
50248W        W15728  35.109  11.222   3.753
50249W        W15729  11.818  39.973  11.111
50250W        W15730  44.469  21.201   0.354
50251W        W15731  33.521  13.657   4.216
50252W        W15732  37.511  27.629  11.483
50253W        W15733  29.577  23.164  10.576
50254W        W15734  35.938  30.425  14.325
50255W        W15735  35.502  16.220  13.428
50256W        W15736   4.252  26.492   2.670
50257W        W15737  39.527  38.334   1.357
50258W        W15738  41.818   1.481   0.435
50259W        W15739  44.820  26.127  12.355
50260W        W15740  30.983  24.586  13.344
50261W        W15741  28.171  23.657  14.393
50262W        W15742  32.941  29.102   3.670
50263W        W15743  32.472  22.587   3.296
50264W        W15744  21.048  24.550  12.022
50265W        W15745  44.472  10.158   4.266
50266W        W15746  33.911  27.158   1.367
50267W        W15747   3.377  41.853  12.030
50268W        W15748  15.807  25.005   0.373
50269W        W15749  35.976  33.980   1.719
50270W        W15750   7.699  35.931  12.969
50271W        W15751  35.891  42.312  12.827
50272W        W15752  38.965   5.222  14.478
50273W        W15753  43.887  23.133   4.610
50274W        W15754   0.983  19.739   1.379
50275W        W15755   7.217   6.781  12.381
50276W        W15756  29.118   3.256  10.905
50277W        W15757   2.818   7.865   4.257
50278W        W15758   4.309  10.328   1.233
50279W        W15759  39.009  37.890  11.412
50280W        W15760  20.567  30.959  13.330
50281W        W15761  27.520  38.967   2.330
50282W        W15762  14.763  31.132  12.484
50283W        W15763   7.309  32.453  10.986
50284W        W15764  31.096  24.220   1.424
50285W        W15765  41.922  23.006   2.772
50286W        W15766   5.766  36.893   1.351
50287W        W15767   2.422  12.260  12.957
50288W        W15768  40.532  15.263  14.511
50289W        W15769   9.177  34.082  13.379
50290W        W15770  29.088  29.530  13.833
50291W        W15771  40.813  29.580  14.397
50292W        W15772  26.700  17.782  12.973
50293W        W15773   2.417  40.516  13.407
50294W        W15774  16.233  12.141   4.340
50295W        W15775  44.882  33.875   3.669
50296W        W15776   4.931  24.719  10.409
50297W        W15777  11.300  10.186   4.822
50298W        W15778  22.126   8.799   0.279
50299W        W15779  37.961  37.525   1.905
50300W        W15780  40.045  44.785   3.272
50301W        W15781   3.458  36.492  13.969
50302W        W15782   4.861  15.707  14.347
50303W        W15783  11.824  22.081   4.657
50304W        W15784  18.272  12.275  12.341
50305W        W15785  32.466   1.424  11.874
50306W        W15786  36.056   7.847   0.885
50307W        W15787  21.741  25.702   4.351
50308W        W15788   3.908   4.259  10.427
50309W        W15789  43.406  31.017   2.318
50310W        W15790  21.199   5.432   3.746
50311W        W15791   1.978  15.737  11.402
50312W        W15792  28.458  37.010   1.354
50313W        W15793  30.162  38.329  10.419
50314W        W15794  30.577  31.545  12.935
50315W        W15795   3.857   8.794   2.903
50316W        W15796  19.624  39.464  14.984
50317W        W15797  37.056   0.955   4.678
50318W        W15798   0.970   2.817  11.460
50319W        W15799  19.584  22.187  14.994
50320W        W15800  21.109  29.491   0.775
50321W        W15801  22.543  38.045   1.245
50322W        W15802  32.486  34.941  14.833
50323W        W15803  35.998  23.047  10.989
50324W        W15804   0.909  43.333   3.630
50325W        W15805  28.998  15.313   2.359
50326W        W15806  16.567  32.627  11.587
50327W        W15807   7.748  13.736  10.952
50328W        W15808  26.978   2.433   0.336
50329W        W15809  12.679  42.029   4.624
50330W        W15810  33.466  21.626  13.810
50331W        W15811   9.834   6.846   2.280
50332W        W15812  13.252  35.363  14.785
50333W        W15813  24.683  44.469  11.123
50334W        W15814  26.589  38.564  10.473
50335W        W15815  26.491   0.467   0.401
50336W        W15816   2.320  23.729   2.697
50337W        W15817  34.499  38.541   0.785
50338W        W15818  28.943  32.555   3.354
50339W        W15819  19.722  23.985  10.511
50340W        W15820  41.485  21.700   2.720
50341W        W15821  26.694  26.636   0.964
50342W        W15822  34.434  24.124  11.097
50343W        W15823   2.847  29.951  10.517
50344W        W15824  23.217  34.071   4.611
50345W        W15825  16.622   4.258   2.209
50346W        W15826  15.803  31.445   4.809
50347W        W15827  35.383   7.383   1.405
50348W        W15828  40.429  12.171   1.305
50349W        W15829   1.774   1.282  11.028
50350W        W15830  31.497   7.309  11.015
50351W        W15831  36.436  24.156  13.314
50352W        W15832  35.525  36.471  10.636
50353W        W15833  28.981  25.077  11.477
50354W        W15834  36.001  18.613   0.479
50355W        W15835  29.148  21.086  14.487
50356W        W15836   9.296  10.849  14.825
50357W        W15837  25.983  25.111   2.230
50358W        W15838  27.091   7.750  14.812
50359W        W15839  10.714  15.792  10.907
50360W        W15840  39.985   8.227  10.933
50361W        W15841   1.752  26.456  13.809
50362W        W15842  15.746  26.071  14.848
50363W        W15843  17.706   2.923  12.379
50364W        W15844  38.508  22.058  13.396
50365W        W15845  38.357  28.622   3.706
50366W        W15846  41.503  32.408   2.819
50367W        W15847  17.566  38.831  14.411
50368W        W15848   8.309  18.734   1.745
50369W        W15849  27.644  42.986   4.811
50370W        W15850  10.281  36.493   4.156
50371W        W15851  44.935  11.685   0.890
50372W        W15852   7.208  28.600  11.387
50373W        W15853  22.543  13.601  11.563
50374W        W15854   1.389   8.891   3.754
50375W        W15855  26.034  36.017  13.023
50376W        W15856   9.822   7.185  13.484
50377W        W15857  36.945  23.161  11.990
50378W        W15858  18.669  29.073  11.373
50379W        W15859  34.546  10.641   1.395
50380W        W15860  32.096   9.170  13.060
50381W        W15861  32.497  25.688   1.243
50382W        W15862  16.569   0.451   0.823
50383W        W15863  19.049  25.621  13.380
50384W        W15864  34.983  10.762   4.213
50385W        W15865  10.657  40.329  14.965
50386W        W15866   3.778   1.467  14.288
50387W        W15867  12.768  13.783   1.216
50388W        W15868  14.665  41.470  11.016
50389W        W15869  28.181  30.433  13.926
50390W        W15870   8.778  44.767   1.348
50391W        W15871  27.116   6.917   0.755
50392W        W15872  26.028  28.561  12.540
50393W        W15873  41.400  27.190   3.363
50394W        W15874  42.931  28.989   4.144
50395W        W15875  26.460  14.107   3.210
50396W        W15876  23.221  18.240  12.069
50397W        W15877  26.003   5.831   4.757
50398W        W15878  34.071  14.241   2.328
50399W        W15879  41.841  15.100   1.783
50400W        W15880   9.376  27.664  11.028
50401W        W15881  30.634  11.807  10.980
50402W        W15882   1.310   0.803   0.759
50403W        W15883  28.166   1.906   1.851
50404W        W15884  15.214  35.431  13.813
50405W        W15885  39.864  38.000  12.542
50406W        W15886  30.552  14.319  13.992
50407W        W15887  28.525  34.982   4.630
50408W        W15888  13.629  25.134  11.891
50409W        W15889  32.020  38.051   1.210
50410W        W15890  34.864  42.508  14.464
50411W        W15891  25.970   3.319  10.525
50412W        W15892  21.049  10.782   3.344
50413W        W15893  44.296   6.897  12.885
50414W        W15894  30.008  40.443  11.457
50415W        W15895   6.874  43.400   2.354
50416W        W15896  23.661  44.776  14.412
50417W        W15897   2.451  29.514   0.750
50418W        W15898  33.519  27.996  12.361
50419W        W15899  42.294  40.470  12.562
50420W        W15900  21.151   2.468   3.262
50421W        W15901  28.013   8.690  13.886
50422W        W15902  33.126  14.700  12.430
50423W        W15903  27.036  13.737  14.392
50424W        W15904  21.576  37.988  12.872
50425W        W15905  23.047  30.026   4.637
50426W        W15906   6.342   6.880  11.001
50427W        W15907   0.365  33.020   3.311
50428W        W15908  38.912  36.497  11.593
50429W        W15909  14.306   8.175  12.963
50430W        W15910  25.178  24.672  14.807
50431W        W15911  33.519  41.012   3.279
50432W        W15912  42.936  17.740  11.951
50433W        W15913  36.030  43.990  10.421
50434W        W15914  25.558  36.061   4.284
50435W        W15915  43.369  33.593   2.364
50436W        W15916  42.526   2.364  11.426
50437W        W15917  39.037   0.825  13.947
50438W        W15918  12.360  10.761  13.833
50439W        W15919  28.034  35.485  12.406
50440W        W15920  30.971  22.184  11.377
50441W        W15921  14.234  16.644  12.868
50442W        W15922  43.992  44.794  14.914
50443W        W15923  21.095  10.227   0.376
50444W        W15924  20.175  18.782  13.428
50445W        W15925  38.959  19.539  10.944
50446W        W15926  18.270   4.220   0.273
50447W        W15927  22.664   6.822  11.402
50448W        W15928  27.011  33.388   2.857
50449W        W15929  43.438  16.280  13.049
50450W        W15930   5.855  37.567   0.383
50451W        W15931  42.943  13.833   3.667
50452W        W15932  42.907  42.307  13.988
50453W        W15933  39.494  14.789  12.044
50454W        W15934  23.998  32.547   0.897
50455W        W15935   4.916  44.967  14.355
50456W        W15936  43.021   8.828   3.702
50457W        W15937  39.028  36.866  12.029
50458W        W15938  26.631  29.009   4.643
50459W        W15939  40.340  35.579  14.831
50460W        W15940  44.810   5.335   0.906
50461W        W15941  29.651  27.459  12.439
50462W        W15942   2.415  27.668   4.651
50463W        W15943  15.132  26.462   4.807
50464W        W15944  21.221   6.268   0.375
50465W        W15945   2.724  28.135  10.564
50466W        W15946  35.084  44.456   3.635
50467W        W15947   2.232  40.992  10.892
50468W        W15948  42.476   8.704   2.397
50469W        W15949  31.925   2.454  11.867
50470W        W15950  39.056   4.850  14.913
50471W        W15951  44.443  43.948  14.440
50472W        W15952  24.183   2.745  11.895
50473W        W15953  27.060  34.544  12.422
50474W        W15954   8.177  14.670   0.836
50475W        W15955   5.697   1.408  13.529
50476W        W15956  41.858  37.488  12.542
50477W        W15957  24.671  19.551   1.451
50478W        W15958  36.490  36.024   3.631
50479W        W15959  17.290   7.379   4.217
50480W        W15960  43.844  39.844  10.955
50481W        W15961  18.650   3.402  10.430
50482W        W15962   8.716  15.762  14.330
50483W        W15963  30.993  14.286   3.352
50484W        W15964  30.935  16.726   4.202
50485W        W15965  36.874  31.556  13.470
50486W        W15966   2.772  22.010   1.261
50487W        W15967  16.257  10.654  13.486
50488W        W15968   1.361  26.960   1.721
50489W        W15969  16.262  38.567  13.000
50490W        W15970   0.970  22.545  12.936
50491W        W15971   8.719  43.352  11.465
50492W        W15972  39.994  28.172   4.707
50493W        W15973  34.890   5.341   2.186
50494W        W15974  12.224  41.877  14.001
50495W        W15975  40.825  25.156   1.260
50496W        W15976  27.097  44.298  14.482
50497W        W15977   9.346  37.938  10.597
50498W        W15978  30.989   5.857   4.773
50499W        W15979  18.735   6.369  11.014
50500W        W15980  42.968  29.446  12.026
50501W        W15981  35.603  44.366   3.813
50502W        W15982   4.898  35.004  13.362
50503W        W15983  18.098  23.229   3.803
50504W        W15984  36.092  24.207   1.716
50505W        W15985  19.631  39.475  11.974
50506W        W15986  11.790  27.097   2.668
50507W        W15987  29.650   4.243   4.296
50508W        W15988   7.299  22.235   1.249
50509W        W15989  39.387  31.605   4.710
50510W        W15990   3.812  18.708  14.787
50511W        W15991  19.212  41.378   2.388
50512W        W15992  42.882  11.839   3.250
50513W        W15993  32.467  23.227   1.216
50514W        W15994  12.782  16.106  11.960
50515W        W15995  43.358  33.905   4.797
50516W        W15996  31.464  12.846   2.363
50517W        W15997   8.376  36.952   2.195
50518W        W15998   5.909  30.554  10.429
50519W        W15999  22.124  42.309   0.920
50520W        W16000  19.677  35.515   0.819
50521W        W16001  28.515  42.806   3.679
50522W        W16002  41.845   3.286   2.323
50523W        W16003  11.682  44.449   2.700
50524W        W16004  27.454   2.437   4.705
50525W        W16005   4.279  24.029  13.484
50526W        W16006  15.112  36.428   1.756
50527W        W16007  16.759  35.480  11.008
50528W        W16008  35.506  19.247   3.199
50529W        W16009  29.155  38.387   2.332
50530W        W16010  22.011  20.102  10.910
50531W        W16011   0.924  16.147   3.770
50532W        W16012  22.664  37.547   0.454
50533W        W16013  16.706  37.005  10.042
50534W        W16014  40.984   3.808  10.975
50535W        W16015   3.420  22.190   4.323
50536W        W16016  39.431   4.433  14.500
50537W        W16017   3.764  27.120  11.570
50538W        W16018  44.373  35.510  11.879
50539W        W16019   8.828  13.172   0.820
50540W        W16020  19.086  40.426   2.371
50541W        W16021  41.509  44.391   4.343
50542W        W16022   5.696  28.456   2.799
50543W        W16023  14.271  44.788   0.854
50544W        W16024   3.943  24.016   1.247
50545W        W16025  37.856  11.298   2.795
50546W        W16026  31.454  38.480  13.868
50547W        W16027  40.876  37.893   3.693
50548W        W16028  19.237  28.973  11.525
50549W        W16029  23.593  43.994   0.865
50550W        W16030  14.733  15.170  12.040
50551W        W16031   7.258  14.251  12.463
50552W        W16032  10.271  31.962   5.210
50553W        W16033   9.171  41.474   2.204
50554W        W16034  11.311   8.281  11.938
50555W        W16035   8.351  40.910  12.912
50556W        W16036  18.159  26.172  14.023
50557W        W16037   7.758  30.100  12.009
50558W        W16038   8.178  19.604  11.371
50559W        W16039  25.515  19.149   2.355
50560W        W16040   2.260  32.986   2.292
50561W        W16041   0.985  33.459  11.070
50562W        W16042  37.026  33.049   1.799
50563W        W16043   6.830  44.988   4.827
50564W        W16044  30.146  22.607  12.417
50565W        W16045  34.457   7.226  12.865
50566W        W16046  36.471  29.167  13.808
50567W        W16047  26.478  41.026  11.952
50568W        W16048   9.388  36.926  12.073
50569W        W16049  17.734  37.900   9.448
50570W        W16050  41.850  26.583   3.843
50571W        W16051  30.134  22.601   0.845
50572W        W16052  15.290  29.056   4.776
50573W        W16053   5.855  43.006   1.268
50574W        W16054  33.530  34.447   4.702
50575W        W16055  36.857  37.528   1.368
50576W        W16056  25.155  43.915   9.487
50577W        W16057  38.900  14.630  13.945
50578W        W16058  24.619  25.187  14.873
50579W        W16059   0.303  26.515   1.860
50580W        W16060  44.383  10.668  11.542
50581W        W16061  41.826  26.602  11.925
50582W        W16062  10.344   7.773  13.029
50583W        W16063  26.990  43.383  12.561
50584W        W16064  34.511  20.181  12.566
50585W        W16065  21.214  41.491  14.032
50586W        W16066  31.027  34.876   0.394
50587W        W16067  14.306  15.176  14.929
50588W        W16068  16.728  17.613  14.472
50589W        W16069  40.542  31.572  14.296
50590W        W16070  37.527  18.195  10.018
50591W        W16071  29.500  41.465  14.475
50592W        W16072  15.123  15.718   5.213
50593W        W16073   4.356   6.420  11.912
50594W        W16074  44.941   8.657   4.829
50595W        W16075  35.974  25.689  10.550
50596W        W16076  10.310  15.591   0.365
50597W        W16077   6.841   9.656  14.985
50598W        W16078   4.213   3.889   0.849
50599W        W16079  23.550  11.157  12.370
50600W        W16080  21.022   6.402  13.507
50601W        W16081  19.176  10.191   1.350
50602W        W16082  39.892  22.230   2.386
50603W        W16083  13.324  23.645  11.909
50604W        W16084  10.854  10.760  13.308
50605W        W16085  18.699  23.230   1.877
50606W        W16086  42.289   1.295   0.476
50607W        W16087  38.404  29.055  10.889
50608W        W16088  10.381   8.298   3.852
50609W        W16089  24.517  30.593  14.828
50610W        W16090  23.536  24.208   0.443
50611W        W16091   9.193   2.822   4.162
50612W        W16092   4.369  35.962   1.811
50613W        W16093   8.658  32.130  11.084
50614W        W16094  16.651  38.547   2.718
50615W        W16095   0.282   2.335  14.297
50616W        W16096  29.646   6.321   5.219
50617W        W16097  15.096   5.331   3.334
50618W        W16098  21.034  34.417   1.372
50619W        W16099   7.759   0.965   3.855
50620W        W16100  21.205  42.318  12.480
50621W        W16101  23.177  16.774  13.975
50622W        W16102  30.427  11.733  14.450
50623W        W16103   8.357  17.645  11.958
50624W        W16104  27.043  20.210  12.975
50625W        W16105  13.625  39.877   0.433
50626W        W16106  21.120  17.168   2.860
50627W        W16107  14.153  37.070   0.242
50628W        W16108  19.641  34.023   0.374
50629W        W16109  21.141  11.346   3.357
50630W        W16110  29.557  38.051  10.567
50631W        W16111  29.500  21.079  10.578
50632W        W16112  23.713   7.756   3.288
50633W        W16113  19.256  17.299   2.854
50634W        W16114  14.243   2.922  14.794
50635W        W16115  13.769   8.387  10.926
50636W        W16116  41.953  24.511   3.837
50637W        W16117  19.603  40.834  11.944
50638W        W16118   5.728  33.117  14.417
50639W        W16119  20.157  23.125   3.870
50640W        W16120  28.027  43.788  14.376
50641W        W16121  32.051  26.556   4.789
50642W        W16122  31.150  34.881   1.934
50643W        W16123  21.119  37.849   4.759
50644W        W16124  41.381   0.269  13.341
50645W        W16125  15.174  39.513   1.221
50646W        W16126  25.506  19.657   3.643
50647W        W16127   9.821  43.790   3.344
50648W        W16128  29.436  24.066  12.942
50649W        W16129  31.589   4.917   4.769
50650W        W16130  38.065  29.940  10.911
50651W        W16131  28.012  25.522  11.381
50652W        W16132  27.100  25.215   2.829
50653W        W16133  42.419  24.103   1.801
50654W        W16134  23.708  19.083  11.400
50655W        W16135  13.275  11.138  13.398
50656W        W16136  43.018  11.241  12.412
50657W        W16137  11.237  27.945   4.183
50658W        W16138  30.940  36.035  12.390
50659W        W16139  33.920  25.045   3.764
50660W        W16140  22.723   3.436  12.468
50661W        W16141  33.524  33.980   3.353
50662W        W16142  21.574  31.010  10.471
50663W        W16143  10.877  26.005  14.389
50664W        W16144  12.182   8.340   2.853
50665W        W16145  40.907  28.027  11.976
50666W        W16146   1.242   9.704   0.260
50667W        W16147   9.361   6.305   3.807
50668W        W16148  18.054  15.129   1.282
50669W        W16149  16.583  21.626  10.901
50670W        W16150   6.833   6.724  13.438
50671W        W16151   8.273  22.141   4.635
50672W        W16152   8.371  44.367  12.422
50673W        W16153   5.376  18.216  13.395
50674W        W16154  18.666   8.335  13.475
50675W        W16155   5.427  44.294  12.484
50676W        W16156  34.407  20.192   3.675
50677W        W16157   6.345  11.780   1.780
50678W        W16158  22.208  18.248   4.161
50679W        W16159   9.775   7.696  10.914
50680W        W16160  19.723  29.093   1.350
50681W        W16161  30.932  23.229  14.923
50682W        W16162  23.197  24.642   2.786
50683W        W16163  28.580  18.128  11.856
50684W        W16164  27.131   8.257  14.314
50685W        W16165  14.203   6.895  13.809
50686W        W16166  20.269  33.036   1.871
50687W        W16167  38.051  10.740  11.541
50688W        W16168  12.341  28.520   4.697
50689W        W16169   9.682   1.843  13.945
50690W        W16170  44.498   1.457  11.530
50691W        W16171  29.922   2.399  14.476
50692W        W16172   0.441  18.621   2.369
50693W        W16173   0.472  37.532   4.617
50694W        W16174  18.752  33.486  11.492
50695W        W16175   9.230   6.377  14.371
50696W        W16176  39.516  14.660   3.277
50697W        W16177  43.910  43.987  14.795
50698W        W16178   6.376  38.407  10.144
50699W        W16179   3.223   6.388   4.612
50700W        W16180  17.771  17.590  11.068
50701W        W16181   3.847  10.188  13.812
50702W        W16182  35.432  30.654   4.755
50703W        W16183  14.239   9.737  14.787
50704W        W16184  33.924  40.304   4.279
50705W        W16185  37.453  38.397   2.292
50706W        W16186  11.814  41.394   4.776
50707W        W16187  37.081  25.495  13.958
50708W        W16188  31.588  26.201   2.767
50709W        W16189   4.382  12.705   4.696
50710W        W16190  36.952  43.406  12.350
50711W        W16191  42.420  36.944   2.179
50712W        W16192   6.257  29.473  13.345
50713W        W16193   0.473  42.521  10.588
50714W        W16194   7.311  23.052   2.292
50715W        W16195   6.866  36.934   0.395
50716W        W16196  13.648  40.865  14.353
50717W        W16197  12.767  25.557  13.470
50718W        W16198   4.738  44.927  11.566
50719W        W16199  22.134   3.805   0.302
50720W        W16200  24.689  19.697  14.991
50721W        W16201  15.307  23.529   0.861
50722W        W16202  32.930  35.919   3.859
50723W        W16203   5.327  25.102  13.534
50724W        W16204  36.424  40.867  13.509
50725W        W16205  36.094  29.128  12.394
50726W        W16206  20.570  19.750  10.531
50727W        W16207  25.125   5.196   3.196
50728W        W16208  37.489  41.500   2.851
50729W        W16209  13.309  34.610  14.476
50730W        W16210  33.485  26.050  13.977
50731W        W16211   8.285   4.942   4.827
50732W        W16212  10.284  39.485   0.889
50733W        W16213  21.191  36.932   1.216
50734W        W16214  15.658  40.404  10.901
50735W        W16215   2.400  22.188   2.870
50736W        W16216   5.893  20.028   1.768
50737W        W16217  18.100   3.777   4.206
50738W        W16218  12.856   2.289  11.915
50739W        W16219  35.516  32.394  13.885
50740W        W16220  10.362  14.206  11.372
50741W        W16221   7.206  15.241  14.456
50742W        W16222  28.441  24.705  11.895
50743W        W16223  39.904  44.879  13.819
50744W        W16224  42.007  29.659  14.898
50745W        W16225  18.550   7.241  10.124
50746W        W16226  27.995  16.313   4.352
50747W        W16227  12.802  25.620   1.717
50748W        W16228  44.493  21.080  11.929
50749W        W16229  42.866  14.301   1.280
50750W        W16230  10.200  22.243  13.407
50751W        W16231   7.773  38.877  12.426
50752W        W16232  30.491   9.306  12.858
50753W        W16233  10.323  19.727   2.672
50754W        W16234  31.498   0.366   0.784
50755W        W16235  18.608  34.543  11.526
50756W        W16236  10.715  26.696  11.909
50757W        W16237  24.090  13.231   2.372
50758W        W16238   1.753  31.404  11.119
50759W        W16239   1.321  17.084  13.532
50760W        W16240  12.184  28.462   2.210
50761W        W16241   9.772  29.175  11.532
50762W        W16242  13.824   5.890  13.871
50763W        W16243  33.021  19.050  13.451
50764W        W16244   2.308   4.822   1.288
50765W        W16245  24.179  13.131  13.497
50766W        W16246  11.158  16.757   2.886
50767W        W16247  28.521  20.605  11.872
50768W        W16248  42.387  37.459   0.278
50769W        W16249  22.743  13.669  14.324
50770W        W16250   1.462  40.941   2.697
50771W        W16251  15.319  31.430   2.867
50772W        W16252  10.660   4.888  12.894
50773W        W16253  19.667  39.350  11.472
50774W        W16254  13.802  38.958  12.552
50775W        W16255   1.333  20.628  11.383
50776W        W16256  13.130  39.391   1.427
50777W        W16257   7.374  26.595   4.313
50778W        W16258  17.273  44.899  11.497
50779W        W16259  10.185  23.560  12.981
50780W        W16260  16.625   7.199   4.691
50781W        W16261  39.864  18.051   1.379
50782W        W16262  16.189  27.459   4.754
50783W        W16263  42.393   9.662  14.842
50784W        W16264  43.450  18.573   3.708
50785W        W16265  34.530  11.669   1.318
50786W        W16266  29.603  17.101  14.380
50787W        W16267  11.836  23.075  11.514
50788W        W16268   6.731  23.560   2.738
50789W        W16269  20.603   0.806   1.398
50790W        W16270  19.282   6.377  10.608
50791W        W16271  11.689  22.607  12.018
50792W        W16272  21.611   4.355   2.391
50793W        W16273  31.602   1.828   2.760
50794W        W16274   3.786  44.393  10.102
50795W        W16275  34.110  17.176   2.223
50796W        W16276  30.147  16.207   4.608
50797W        W16277   9.333  44.467   3.360
50798W        W16278   9.310  15.657  14.414
50799W        W16279  27.447  12.812   3.266
50800W        W16280  10.147   5.406  11.867
50801W        W16281  29.041   8.739   3.346
50802W        W16282  10.809   3.356   0.744
50803W        W16283  32.092   2.851   2.335
50804W        W16284   9.746   3.412  12.954
50805W        W16285  19.142  23.550   9.989
50806W        W16286   2.358  18.050  12.906
50807W        W16287  41.903   3.941   0.469
50808W        W16288  15.613  41.793   0.362
50809W        W16289  28.604  43.390   3.869
50810W        W16290  39.050  20.686   1.782
50811W        W16291   7.695  18.591   0.789
50812W        W16292  16.784  44.468   4.801
50813W        W16293  17.631  40.051  12.363
50814W        W16294   4.754  31.038   4.239
50815W        W16295  12.203  25.032   2.304
50816W        W16296  10.158  35.010  11.504
50817W        W16297   2.241  42.354   2.797
50818W        W16298  29.458   4.439  13.355
50819W        W16299  12.704  25.519   0.869
50820W        W16300  38.482  14.300  13.375
50821W        W16301  41.836   7.830  14.325
50822W        W16302  23.679  22.013   1.858
50823W        W16303   5.418  11.269  11.991
50824W        W16304   2.888  25.196  11.562
50825W        W16305  23.046  44.457   2.191
50826W        W16306  34.526  15.752  13.463
50827W        W16307  41.393  14.701  13.011
50828W        W16308  43.827  38.547   2.696
50829W        W16309  17.785  42.511  14.516
50830W        W16310   4.810   7.862   2.697
50831W        W16311  11.271   9.831  12.028
50832W        W16312   8.746   1.905  11.415
50833W        W16313  29.458  17.621   4.718
50834W        W16314  27.187  42.959  11.387
50835W        W16315  34.531   8.874   3.780
50836W        W16316  29.130   0.867  14.509
50837W        W16317  35.531  15.216   4.799
50838W        W16318  38.965  25.181  10.029
50839W        W16319  27.504  39.350  14.895
50840W        W16320  39.012  20.525  14.003
50841W        W16321   1.465   2.293   1.288
50842W        W16322  35.914  34.422  11.486
50843W        W16323  14.227  36.560  13.955
50844W        W16324  20.088  23.087   4.118
50845W        W16325   6.239  41.907  10.413
50846W        W16326  27.630  40.469  13.528
50847W        W16327  39.969   7.407   0.259
50848W        W16328  15.253   0.365  14.485
50849W        W16329  19.692   4.883  13.986
50850W        W16330  43.779   9.306  10.942
50851W        W16331  39.048  21.161  10.596
50852W        W16332  15.168  44.467   4.778
50853W        W16333  33.041   2.363  14.292
50854W        W16334  13.842  18.133   1.862
50855W        W16335  44.486   4.769   2.855
50856W        W16336   4.387  38.992  11.602
50857W        W16337  37.945  14.152   3.202
50858W        W16338  19.041  27.153  14.785
50859W        W16339  44.930  18.260   0.299
50860W        W16340  28.987  11.746  12.540
50861W        W16341  39.421  32.912   2.261
50862W        W16342  29.985  17.709  11.469
50863W        W16343  31.918  40.364   3.802
50864W        W16344  28.089  14.289   3.762
50865W        W16345  24.155  40.392   2.679
50866W        W16346  34.370  36.904   1.410
50867W        W16347  42.848  24.610   4.239
50868W        W16348  34.885   0.291   2.878
50869W        W16349  42.874  28.546   3.746
50870W        W16350   8.365   8.842  13.992
50871W        W16351   0.335  28.086   4.741
50872W        W16352  32.467  33.890  13.314
50873W        W16353  36.353  24.129   1.319
50874W        W16354  10.674  44.444   1.790
50875W        W16355  24.682  23.216  13.440
50876W        W16356  13.662  16.701  14.804
50877W        W16357  32.595  14.834   0.886
50878W        W16358  12.833  24.004   4.778
50879W        W16359  28.538   1.875  11.871
50880W        W16360  19.540   3.721   1.334
50881W        W16361  33.124  20.200   1.782
50882W        W16362  29.929  24.973   0.964
50883W        W16363  17.070  31.951  13.499
50884W        W16364  38.343   6.323  11.074
50885W        W16365  35.907  10.181   5.307
50886W        W16366  32.078   1.741   0.459
50887W        W16367  41.301  43.515   2.718
50888W        W16368  10.822  20.546   4.704
50889W        W16369   5.845  21.691  13.396
50890W        W16370  28.055  13.774   2.239
50891W        W16371  29.062   1.967   3.853
50892W        W16372  19.592   1.429  14.975
50893W        W16373  38.876  40.043   5.296
50894W        W16374  31.138  31.427   2.300
50895W        W16375  25.047  15.722  13.372
50896W        W16376  44.302  32.886  12.953
50897W        W16377  21.664   3.455   1.811
50898W        W16378  24.607  29.013   0.253
50899W        W16379   5.398   6.862  13.062
50900W        W16380  28.643   2.352   1.329
50901W        W16381  17.703  31.404   0.848
50902W        W16382  16.805  10.304   0.907
50903W        W16383  21.103  24.074   5.147
50904W        W16384  23.722  27.949  13.862
50905W        W16385  39.442  22.736   3.794
50906W        W16386   4.708  28.055  11.387
50907W        W16387  31.923  39.423   0.291
50908W        W16388  29.981  42.013  14.024
50909W        W16389  44.965  15.111  14.792
50910W        W16390  37.006   2.356   4.289
50911W        W16391  31.588  31.029   3.782
50912W        W16392  36.508  43.874   0.400
50913W        W16393  41.969  13.182  12.499
50914W        W16394   0.888  20.526   4.688
50915W        W16395  23.120   6.857   0.735
50916W        W16396  14.645   7.254  14.852
50917W        W16397  18.619  22.061   0.412
50918W        W16398  27.589  25.148   1.699
50919W        W16399  44.259  38.831   1.432
50920W        W16400  23.122  12.343   0.858
50921W        W16401  28.175   4.364  14.362
50922W        W16402  27.689  43.494  13.321
50923W        W16403  36.476   2.320   4.779
50924W        W16404  42.008  17.236  10.440
50925W        W16405   1.886   1.887  11.121
50926W        W16406  11.770  32.094   1.763
50927W        W16407   7.674   0.380  11.371
50928W        W16408  17.721  27.487  11.994
50929W        W16409  42.895  35.585   0.952
50930W        W16410   9.351  23.142   0.908
50931W        W16411   8.235   2.376   4.115
50932W        W16412  32.395  16.074   2.247
50933W        W16413  31.446  19.635  11.110
50934W        W16414  24.057   2.387  13.392
50935W        W16415  44.492  28.966   2.386
50936W        W16416  16.075   5.413   1.334
50937W        W16417  32.906  20.642   1.417
50938W        W16418  17.116  43.875   1.386
50939W        W16419  29.565  30.954   4.730
50940W        W16420  32.475   6.746  12.426
50941W        W16421  29.034   5.807  11.572
50942W        W16422  38.427   7.880   3.740
50943W        W16423   6.236  36.425   2.668
50944W        W16424  33.422  23.110  10.138
50945W        W16425   1.898  27.964  13.404
50946W        W16426  15.221  10.361   3.846
50947W        W16427   3.451   2.863   1.811
50948W        W16428  38.054  41.485   2.723
50949W        W16429   5.889  22.509   1.935
50950W        W16430  34.939  29.128  13.429
50951W        W16431  38.018  12.161  12.074
50952W        W16432  14.185  42.404   3.174
50953W        W16433  20.116   7.330  12.901
50954W        W16434   7.351  10.176   3.254
50955W        W16435  30.570  33.019   1.695
50956W        W16436  43.312  27.013  12.875
50957W        W16437  16.100  40.344  14.494
50958W        W16438   5.198  15.776   4.627
50959W        W16439   9.877  30.497  14.853
50960W        W16440  33.987  24.105   0.890
50961W        W16441  39.024  13.130  13.878
50962W        W16442  30.484  39.878   1.361
50963W        W16443  22.572  11.646   3.355
50964W        W16444  29.149  37.451  11.583
50965W        W16445  30.630  16.211   2.235
50966W        W16446  33.576  41.838   2.239
50967W        W16447  26.614  41.998  12.828
50968W        W16448  24.994  36.352   1.879
50969W        W16449  44.449  24.198   4.140
50970W        W16450  35.070   2.417  13.918
50971W        W16451  17.193  44.790  12.468
50972W        W16452  40.970  28.146  13.844
50973W        W16453  30.529  42.467   2.357
50974W        W16454  21.197   4.211  13.543
50975W        W16455  29.175  35.012   0.744
50976W        W16456  10.337   7.199  13.405
50977W        W16457  24.559  28.459   1.425
50978W        W16458   3.753  21.559  13.449
50979W        W16459   0.895   6.371  12.378
50980W        W16460  19.684  43.421   4.605
50981W        W16461  33.402  12.620  10.564
50982W        W16462   7.354  20.202   4.214
50983W        W16463  36.352  20.085   4.215
50984W        W16464  29.023  33.883  14.871
50985W        W16465  22.164  38.860  13.530
50986W        W16466   6.875  36.842  11.387
50987W        W16467   3.764  34.967  12.899
50988W        W16468   7.348  34.615   0.481
50989W        W16469  24.489   5.404  12.409
50990W        W16470  32.006  39.528   9.636
50991W        W16471   9.375  13.803  14.806
50992W        W16472  28.164  18.192  10.910
50993W        W16473   0.375  15.100   2.244
50994W        W16474   3.238  18.596   3.678
50995W        W16475   4.257   5.776  10.900
50996W        W16476  30.535  34.020   0.320
50997W        W16477  33.418  26.177  13.435
50998W        W16478  32.899  15.814   4.347
50999W        W16479   6.233   0.888  11.605
51000W        W16480  17.187  16.223  12.086
51001W        W16481  21.249  19.244  11.869
51002W        W16482  36.029  27.673  11.068
51003W        W16483  15.639  44.931   1.802
51004W        W16484  13.289  19.104  14.898
51005W        W16485  15.750  17.132   0.400
51006W        W16486  44.323   0.982   0.788
51007W        W16487   6.735  11.250  13.389
51008W        W16488   6.760  38.902  11.117
51009W        W16489  11.260  37.518  10.520
51010W        W16490  33.964  14.594  14.472
51011W        W16491  35.077  40.896   1.355
51012W        W16492  26.582  23.029   0.742
51013W        W16493  34.540  44.977   1.244
51014W        W16494  41.498  27.551  14.484
51015W        W16495  42.350  15.217  12.048
51016W        W16496  22.722  37.907  10.620
51017W        W16497  24.707   5.355   2.210
51018W        W16498  10.312  12.351  12.883
51019W        W16499  10.229  18.715  13.948
51020W        W16500  28.932  24.008   2.309
51021W        W16501  30.938  37.538   2.759
51022W        W16502  40.479  42.911  13.995
51023W        W16503  42.815  10.736  13.977
51024W        W16504  32.415  20.572  14.443
51025W        W16505  37.343  12.637  13.337
51026W        W16506  32.962  27.040   3.185
51027W        W16507  20.218  31.896  12.344
51028W        W16508  14.816  34.538  13.856
51029W        W16509  25.535  32.598  11.489
51030W        W16510  34.025  38.055   4.143
51031W        W16511  40.866  44.470   2.297
51032W        W16512  35.490  40.947   1.429
51033W        W16513  11.759   8.280   4.601
51034W        W16514   2.326  37.933   2.848
51035W        W16515  13.116  19.580  11.006
51036W        W16516  21.603  24.707  12.478
51037W        W16517  37.397  21.100  14.013
51038W        W16518  25.055  37.913   2.856
51039W        W16519  35.949  14.747   3.265
51040W        W16520  41.507   0.967  13.471
51041W        W16521  19.190   6.347   3.313
51042W        W16522  30.001  27.954  13.943
51043W        W16523  11.770  43.796  12.912
51044W        W16524   4.365  29.094  11.604
51045W        W16525  28.981  17.220  14.503
51046W        W16526  31.511   6.326  10.468
51047W        W16527  41.975  15.321   3.819
51048W        W16528  34.892  25.050  10.925
51049W        W16529  14.227  33.951  13.897
51050W        W16530  24.125   6.256   1.862
51051W        W16531  11.319  17.164  12.467
51052W        W16532  17.633   4.756   2.892
51053W        W16533  43.275  27.015  13.473
51054W        W16534  10.321  43.855   1.299
51055W        W16535  14.180  35.043  10.518
51056W        W16536   9.870  20.249   4.743
51057W        W16537   4.832  32.998  12.861
51058W        W16538  41.949   8.700   3.654
51059W        W16539  36.481  15.651  13.011
51060W        W16540  40.525  41.941  12.384
51061W        W16541  25.471  24.110  10.489
51062W        W16542  33.132   4.387  14.496
51063W        W16543   9.182  38.991  11.520
51064W        W16544   2.309  21.648  12.881
51065W        W16545  29.508  24.036  11.534
51066W        W16546  35.587  18.592   2.291
51067W        W16547  22.588   5.325  12.028
51068W        W16548   5.386  27.465  10.422
51069W        W16549  36.066  21.236  11.874
51070W        W16550   5.217  14.795  14.295
51071W        W16551  29.112  39.380   2.802
51072W        W16552  15.217  10.337  13.431
51073W        W16553  41.393  44.880   0.816
51074W        W16554  41.417  18.573  14.513
51075W        W16555  19.707  36.976   4.722
51076W        W16556   3.365  13.161   2.183
51077W        W16557   0.380  14.122   3.355
51078W        W16558  19.752  19.623  10.483
51079W        W16559  14.733  39.382  13.835
51080W        W16560   1.906   8.229  13.546
51081W        W16561   8.347  16.178  14.335
51082W        W16562  36.526  34.543   2.380
51083W        W16563   5.413  38.923   1.881
51084W        W16564   2.432  23.718  10.642
51085W        W16565  14.268  29.642  10.934
51086W        W16566  27.948  30.504  14.460
51087W        W16567  26.549   6.744  12.557
51088W        W16568  13.188  18.267  13.057
51089W        W16569  39.508  28.044   4.661
51090W        W16570  38.953   4.392  14.336
51091W        W16571   0.386  33.457  14.835
51092W        W16572  21.737  25.150  13.447
51093W        W16573  33.453  22.203   0.331
51094W        W16574  29.517  16.259  14.960
51095W        W16575  37.984   3.442   1.847
51096W        W16576   0.957  31.619   4.221
51097W        W16577  35.857   6.727   4.668
51098W        W16578  40.540  34.549   1.774
51099W        W16579  35.378   0.429  14.855
51100W        W16580  32.435  15.134   0.799
51101W        W16581  37.858  15.111  14.417
51102W        W16582   0.445  30.557   0.386
51103W        W16583  20.181  15.220  10.458
51104W        W16584  17.627   5.281  14.424
51105W        W16585  38.471  16.694   2.345
51106W        W16586  37.927  16.210   0.388
51107W        W16587   7.387  41.964   0.281
51108W        W16588  22.234  37.940  12.516
51109W        W16589  21.084  33.962  11.027
51110W        W16590  14.628  30.157  14.452
51111W        W16591   6.374  39.415   1.401
51112W        W16592  13.740  18.228   3.321
51113W        W16593  21.615  35.094  14.337
51114W        W16594  11.152   0.986  13.967
51115W        W16595   4.436  20.663  14.381
51116W        W16596  17.697  38.076   5.703
51117W        W16597  42.919   4.414   4.120
51118W        W16598  18.131  41.303   0.294
51119W        W16599  10.374  15.665  12.027
51120W        W16600   3.803  39.011   0.787
51121W        W16601  23.491   3.226   0.797
51122W        W16602  11.127   2.245  12.893
51123W        W16603  38.343  32.069   0.437
51124W        W16604  21.686  39.887   4.673
51125W        W16605  29.502  12.162   3.337
51126W        W16606  24.216   7.787   0.901
51127W        W16607   4.786  10.723  14.358
51128W        W16608  32.947  23.202   2.697
51129W        W16609   4.776  29.172   1.238
51130W        W16610  10.804  11.167   0.303
51131W        W16611  33.054  41.503   1.906
51132W        W16612  39.939  34.873   2.780
51133W        W16613   4.768  27.123  12.002
51134W        W16614  27.512  26.028  11.387
51135W        W16615  20.110   2.749  12.056
51136W        W16616  41.322  21.255   2.850
51137W        W16617  41.995   0.377   4.814
51138W        W16618  31.105  37.010  12.037
51139W        W16619  16.664  34.893  11.389
51140W        W16620   5.313  25.174  13.911
51141W        W16621   0.978  12.775   0.473
51142W        W16622  18.163  27.995  10.012
51143W        W16623  26.151   8.731   2.305
51144W        W16624  43.882   5.736  11.124
51145W        W16625  33.875   2.742  14.901
51146W        W16626   4.915   5.819   4.715
51147W        W16627  19.069   8.775   4.682
51148W        W16628  22.140  35.573  11.958
51149W        W16629  43.006   7.408   0.453
51150W        W16630  33.041  13.728   1.384
51151W        W16631  36.973  44.007  11.462
51152W        W16632  21.058  42.379  10.621
51153W        W16633  18.770  20.640  12.881
51154W        W16634  11.860  43.271   1.836
51155W        W16635  13.738  20.552  14.382
51156W        W16636  23.610  35.507   0.271
51157W        W16637  21.687  23.153   4.272
51158W        W16638  19.266  26.055  12.559
51159W        W16639  20.035   1.825  12.445
51160W        W16640   6.740  15.711  11.924
51161W        W16641  13.257   2.883   1.743
51162W        W16642  12.160  23.574   3.798
51163W        W16643  38.438  29.960   4.719
51164W        W16644   7.910  38.011   0.438
51165W        W16645  31.565  22.570  13.903
51166W        W16646   0.376   0.480   1.292
51167W        W16647  18.612  21.237  14.788
51168W        W16648   2.891  33.885  13.910
51169W        W16649  31.482   2.282  12.848
51170W        W16650  27.617   9.771   1.909
51171W        W16651  37.433  36.378   0.399
51172W        W16652  27.524  32.019   0.342
51173W        W16653  34.101   9.809   4.735
51174W        W16654  37.966  12.297  11.408
51175W        W16655  16.235  31.957   1.300
51176W        W16656  12.214  19.084   0.932
51177W        W16657  29.543   4.349  14.315
51178W        W16658  13.764   2.795   2.900
51179W        W16659  20.222  44.918  13.792
51180W        W16660  43.982  19.281   4.267
51181W        W16661  35.092   6.914  14.842
51182W        W16662   4.746  21.612   2.343
51183W        W16663  35.581  20.065   3.333
51184W        W16664  30.648  17.779  12.514
51185W        W16665  27.964  44.840  10.643
51186W        W16666  28.525   6.726   2.744
51187W        W16667  29.448  34.537  13.391
51188W        W16668  34.486  11.807  11.575
51189W        W16669  30.012  43.997  12.534
51190W        W16670  43.503  16.648   2.725
51191W        W16671  18.294  38.535   2.388
51192W        W16672   5.720  42.933  12.831
51193W        W16673  17.215  36.891   4.748
51194W        W16674  36.387   3.860   4.149
51195W        W16675   4.919  40.353   3.286
51196W        W16676   7.259   4.352   2.264
51197W        W16677  44.966  32.608   1.719
51198W        W16678  35.601   4.841   1.793
51199W        W16679  36.587  35.864  12.859
51200W        W16680  40.026  11.366  12.525
51201W        W16681  23.096  42.448   9.662
51202W        W16682  41.408  31.531   3.868
51203W        W16683  11.297  31.097  13.542
51204W        W16684  33.563  33.560  14.404
51205W        W16685   3.910  22.564  10.044
51206W        W16686  14.774   2.926  14.445
51207W        W16687  22.194  28.988  14.826
51208W        W16688  38.839   2.743  14.984
51209W        W16689  44.784  19.217  10.504
51210W        W16690   7.227  35.004  12.473
51211W        W16691  41.861  32.042   1.859
51212W        W16692  24.994  19.736  14.951
51213W        W16693  33.444  10.182   3.364
51214W        W16694  35.053  40.037  10.589
51215W        W16695  16.149  12.752  11.428
51216W        W16696  35.433  18.120   3.701
51217W        W16697  35.977  25.042   1.879
51218W        W16698   3.948  14.095  13.030
51219W        W16699  34.479  34.888  14.446
51220W        W16700  32.060  36.957   4.618
51221W        W16701  10.860  27.066  10.608
51222W        W16702  35.935  21.555  14.467
51223W        W16703  37.572  23.207  13.502
51224W        W16704   4.336  42.989   3.855
51225W        W16705  15.631  29.127   0.282
51226W        W16706  24.229  15.771   2.340
51227W        W16707  34.892  23.157  10.495
51228W        W16708  13.299  28.974   0.348
51229W        W16709  13.735  44.269  12.444
51230W        W16710  29.115   3.339   1.797
51231W        W16711  13.105  17.176  10.624
51232W        W16712  21.571  25.655  11.015
51233W        W16713  14.307   9.350   0.895
51234W        W16714  39.948  21.119  10.936
51235W        W16715  28.164  22.018  14.897
51236W        W16716  30.118  23.639   4.272
51237W        W16717  28.584  22.010   4.735
51238W        W16718   0.486  17.105  13.805
51239W        W16719  10.163   4.805  13.454
51240W        W16720  32.451  25.021   1.218
51241W        W16721  44.900  43.467  14.399
51242W        W16722  18.167  39.326  11.994
51243W        W16723  37.951  10.819   1.809
51244W        W16724  43.307  41.430  12.359
51245W        W16725  44.290   8.678   5.220
51246W        W16726  10.707  31.052  10.427
51247W        W16727  27.667  35.094  11.071
51248W        W16728  38.994  35.902  10.929
51249W        W16729   2.809   3.817   2.300
51250W        W16730  42.519   9.751  12.082
51251W        W16731  19.725   4.852  13.503
51252W        W16732  40.054  39.905   4.251
51253W        W16733  36.069  18.733  12.379
51254W        W16734   1.311  41.928   1.289
51255W        W16735  40.304   2.965   3.182
51256W        W16736  42.357  15.662  12.066
51257W        W16737  40.471  41.424   2.791
51258W        W16738  18.092  38.514  14.810
51259W        W16739  19.196  17.598  11.376
51260W        W16740  15.736  44.427  12.492
51261W        W16741  34.992   4.776   0.405
51262W        W16742  18.595  36.884  14.983
51263W        W16743  24.040   6.418  13.543
51264W        W16744   6.310   9.376   2.888
51265W        W16745  13.697  23.135   2.193
51266W        W16746  32.913  16.199   0.244
51267W        W16747  30.418  39.994   3.791
51268W        W16748  20.636  28.124  13.503
51269W        W16749   8.359   1.328  11.053
51270W        W16750  34.584  38.856   3.217
51271W        W16751   9.834  33.909  12.966
51272W        W16752  31.618   2.800   1.447
51273W        W16753  26.120  38.998   4.723
51274W        W16754  13.173   8.855  11.958
51275W        W16755  14.734  24.522  14.404
51276W        W16756  20.574   6.224  11.901
51277W        W16757   1.878  15.253   3.194
51278W        W16758   8.785  42.781  11.454
51279W        W16759  33.019   2.327  13.853
51280W        W16760  43.780   9.318  14.474
51281W        W16761   6.784   4.341  13.940
51282W        W16762   1.939  21.229   3.682
51283W        W16763  14.167  31.493   1.280
51284W        W16764  19.574  37.850   2.840
51285W        W16765  31.917   2.954  12.975
51286W        W16766  15.661   5.230   3.784
51287W        W16767  29.438  19.150   1.787
51288W        W16768  35.932  10.142  11.966
51289W        W16769  44.421  26.083   2.827
51290W        W16770  42.978  12.321   3.269
51291W        W16771  30.146  15.790  14.346
51292W        W16772   3.711   7.668   1.729
51293W        W16773  37.420   2.393   3.198
51294W        W16774   1.427  15.584  10.540
51295W        W16775   0.348  39.005   2.737
51296W        W16776   0.379  34.516  13.387
51297W        W16777   3.254   6.399   2.237
51298W        W16778  36.427  15.679   0.921
51299W        W16779  35.582  16.776  10.419
51300W        W16780  29.007   8.368   1.935
51301W        W16781  25.044  39.357  10.989
51302W        W16782  42.934  22.599  13.899
51303W        W16783  23.499  38.520   3.322
51304W        W16784  14.726  21.711  11.439
51305W        W16785  12.212  36.996   1.818
51306W        W16786   6.785  31.097   1.700
51307W        W16787  34.016   5.264  12.861
51308W        W16788  17.590  19.227  14.781
51309W        W16789   5.715  27.006   1.705
51310W        W16790  33.624  41.535  10.968
51311W        W16791   6.272   2.855   3.364
51312W        W16792   6.690  41.375  14.817
51313W        W16793  41.427  38.429  11.888
51314W        W16794  27.586  12.348   2.879
51315W        W16795  38.450  29.055   2.782
51316W        W16796  40.848  39.881  11.934
51317W        W16797  13.654   8.770   1.381
51318W        W16798  22.103  25.524   0.790
51319W        W16799  25.490  29.990   3.714
51320W        W16800  29.463   3.294   0.370
51321W        W16801  16.764  20.215  13.841
51322W        W16802  40.370  18.581   2.819
51323W        W16803  21.156  17.590  12.902
51324W        W16804  30.085  21.068   4.717
51325W        W16805  14.144  44.007   0.374
51326W        W16806   6.705  16.685  14.936
51327W        W16807  11.128  38.996  14.402
51328W        W16808  26.533   6.699   1.295
51329W        W16809  12.321  18.605   2.754
51330W        W16810  10.847  44.915   0.353
51331W        W16811  21.548   2.725   3.790
51332W        W16812  13.605  30.005  11.993
51333W        W16813  27.670  11.729  10.999
51334W        W16814  22.641  27.171   1.808
51335W        W16815   0.985  42.490   1.433
51336W        W16816  24.512  20.600  11.026
51337W        W16817  34.986  34.002   3.306
51338W        W16818  30.413   6.382  13.509
51339W        W16819  29.500  21.236   4.155
51340W        W16820  25.580   6.270  14.314
51341W        W16821  42.903  42.345  10.511
51342W        W16822  37.934  38.445   1.912
51343W        W16823  21.041  11.181   0.853
51344W        W16824  37.563  10.341   1.385
51345W        W16825   1.429  16.713   1.224
51346W        W16826  25.475  13.730   0.814
51347W        W16827   3.296  34.502   2.751
51348W        W16828  11.671  42.888  11.912
51349W        W16829  30.455   4.872  13.363
51350W        W16830   7.172   7.237  14.363
51351W        W16831   4.924   2.878  14.484
51352W        W16832  17.066  27.617   1.782
51353W        W16833  26.201  36.944  12.431
51354W        W16834  15.751  38.444   4.776
51355W        W16835   6.217  26.662   2.889
51356W        W16836  34.378  30.497   4.279
51357W        W16837  28.971  38.055   2.328
51358W        W16838   4.778  36.084  14.899
51359W        W16839   8.186  19.258   4.288
51360W        W16840  37.067  13.278  12.035
51361W        W16841  42.371   5.862  14.401
51362W        W16842   8.845  26.558   2.186
51363W        W16843  13.607   0.336  13.910
51364W        W16844  33.526  20.670  11.548
51365W        W16845   4.330  23.689  13.931
51366W        W16846  32.012  42.899  13.963
51367W        W16847   0.416  18.759  12.433
51368W        W16848  16.226  12.335   1.412
51369W        W16849  41.493  11.712  14.770
51370W        W16850  29.103   9.790  14.886
51371W        W16851   3.448  40.813  11.592
51372W        W16852  16.589  34.002   1.818
51373W        W16853  12.236  36.864  11.074
51374W        W16854  19.651  13.321  13.532
51375W        W16855  19.727  37.016   1.718
51376W        W16856   5.830  37.564  11.467
51377W        W16857  15.754  31.560  10.473
51378W        W16858  21.582  19.122   1.257
51379W        W16859  29.542  15.802  12.927
51380W        W16860   6.255  19.243   0.792
51381W        W16861  15.253   5.857   1.890
51382W        W16862   3.429  20.559   2.336
51383W        W16863  38.859  29.069  10.451
51384W        W16864  19.630  31.555  13.842
51385W        W16865  10.635  31.621  12.441
51386W        W16866   6.694  19.654  11.518
51387W        W16867  40.323  37.048   2.753
51388W        W16868  24.628   7.304  12.044
51389W        W16869  40.469  18.693  13.509
51390W        W16870  25.972  10.800  11.044
51391W        W16871  16.123  33.986  12.974
51392W        W16872  27.687   0.472   3.763
51393W        W16873   1.791  16.272   3.716
51394W        W16874  36.543   8.707  14.425
51395W        W16875  30.587  35.442   3.672
51396W        W16876  41.853  41.463   3.723
51397W        W16877  30.479  12.809   1.299
51398W        W16878  14.143  41.922   3.149
51399W        W16879   6.784  40.858  12.523
51400W        W16880  44.981  12.810  11.480
51401W        W16881  33.421  43.953   1.714
51402W        W16882   1.272  37.929  13.970
51403W        W16883   9.736   0.393   0.414
51404W        W16884  14.634  29.041  13.891
51405W        W16885   5.219  31.595   5.158
51406W        W16886  33.454  19.273  14.308
51407W        W16887  35.557  13.342  10.956
51408W        W16888  30.991   2.472   4.820
51409W        W16889  27.994   5.306   3.768
51410W        W16890  10.215   5.288   4.798
51411W        W16891  11.798  17.078  12.841
51412W        W16892  23.240  44.478  12.449
51413W        W16893  34.560  31.097   4.667
51414W        W16894  10.697   9.731   3.816
51415W        W16895  12.346  44.274  11.933
51416W        W16896  14.710  12.852   4.194
51417W        W16897  37.378  16.797   2.335
51418W        W16898   7.852  42.969   1.429
51419W        W16899  26.535  42.427   4.253
51420W        W16900  28.463   0.371   1.777
51421W        W16901  24.515   0.760   4.641
51422W        W16902  40.851  30.024   4.256
51423W        W16903  14.729  39.475  12.354
51424W        W16904   3.869  25.041  10.076
51425W        W16905  14.269  13.829   0.431
51426W        W16906   9.393  37.980   1.429
51427W        W16907   0.831  34.490  10.423
51428W        W16908  17.284   2.372   2.808
51429W        W16909  43.495  28.990   1.738
51430W        W16910  25.502  31.052   1.934
51431W        W16911  23.162   6.375  14.773
51432W        W16912  43.410  41.895   0.257
51433W        W16913  21.076  10.649  11.061
51434W        W16914  26.615  14.323   1.343
51435W        W16915  18.231  36.902  14.871
51436W        W16916  26.549   2.343   1.430
51437W        W16917  38.888  29.452  14.942
51438W        W16918   9.840  36.889  11.589
51439W        W16919  35.874   6.888   1.852
51440W        W16920  36.358  34.986  14.423
51441W        W16921  15.593   8.169   3.152
51442W        W16922  17.717  40.941   1.241
51443W        W16923  41.791  15.692  11.029
51444W        W16924  25.991  15.820   0.817
51445W        W16925  12.144  42.284   2.713
51446W        W16926  10.772  42.788  11.042
51447W        W16927  44.887  22.659   0.960
51448W        W16928  44.402  40.346   0.389
51449W        W16929  30.475  16.286  14.489
51450W        W16930  31.117   7.689   5.222
51451W        W16931  17.626  30.505   1.251
51452W        W16932  32.995  21.613  13.429
51453W        W16933  40.420  24.703   0.429
51454W        W16934  25.551  12.217   1.368
51455W        W16935   0.306   9.258   1.844
51456W        W16936  29.440  29.951   3.644
51457W        W16937  28.182  15.226  14.790
51458W        W16938  35.046  21.542   1.269
51459W        W16939  32.401  14.269  12.037
51460W        W16940  30.419  18.767   4.119
51461W        W16941  26.662   4.242   4.188
51462W        W16942  32.949  20.547   1.779
51463W        W16943   1.796  14.782  10.937
51464W        W16944  36.021  27.030  12.996
51465W        W16945   9.392   9.230   3.246
51466W        W16946  28.580  36.956   4.137
51467W        W16947  32.936   4.372   2.370
51468W        W16948   6.282   3.402   2.416
51469W        W16949   9.744  32.024  11.863
51470W        W16950  16.623  31.039  11.579
51471W        W16951  24.134  37.559  10.424
51472W        W16952  44.792  12.138   3.254
51473W        W16953  39.428  27.509  13.837
51474W        W16954   1.443  14.262   4.309
51475W        W16955   4.408  14.776   2.324
51476W        W16956  28.446  22.165   4.325
51477W        W16957  21.063   9.651   2.307
51478W        W16958  37.540  34.927   3.366
51479W        W16959   5.892  29.173   3.178
51480W        W16960  44.456  34.405   1.343
51481W        W16961  24.619  41.400  13.469
51482W        W16962  22.605  42.394  13.545
51483W        W16963  37.071  33.928   2.738
51484W        W16964  31.960  12.332  12.894
51485W        W16965   2.300  18.055  13.536
51486W        W16966   5.691  29.575  12.372
51487W        W16967  29.959  36.379  13.548
51488W        W16968  42.373  13.830  13.878
51489W        W16969  40.331  16.639  11.430
51490W        W16970  15.717  38.051  12.073
51491W        W16971  12.249  14.667  14.839
51492W        W16972  39.883  27.060  11.608
51493W        W16973  44.922  10.850  10.405
51494W        W16974  32.574  11.860   0.746
51495W        W16975  23.546   5.420   4.675
51496W        W16976  16.197   2.237  13.326
51497W        W16977  24.157  13.802   2.702
51498W        W16978  31.431  40.304  14.927
51499W        W16979  33.961  29.506  10.921
51500W        W16980  18.775  44.312   4.635
51501W        W16981  17.656   3.764   4.205
51502W        W16982  36.974  18.126  14.465
51503W        W16983  28.479   8.687  12.871
51504W        W16984  25.660  15.666  12.483
51505W        W16985  22.679  23.684   1.232
51506W        W16986   5.332  44.309   3.277
51507W        W16987  42.353  44.326  11.993
51508W        W16988  11.837  13.809  14.811
51509W        W16989  27.685  42.318  11.427
51510W        W16990  25.216  22.674   2.224
51511W        W16991   6.246  23.210  11.874
51512W        W16992  34.418   0.743  12.567
51513W        W16993  20.242  19.256   4.243
51514W        W16994  17.113  12.184   1.404
51515W        W16995  29.559  13.116   4.284
51516W        W16996   0.475  31.538  14.279
51517W        W16997   6.856  36.347  12.949
51518W        W16998  42.809  35.435   3.712
51519W        W16999  36.864   9.260   2.857
51520W        W17000  36.513  16.674   0.415
51521W        W17001  30.516   2.829  12.932
51522W        W17002  13.140  23.586  11.509
51523W        W17003  40.038  23.721  12.912
51524W        W17004  31.404  10.850   2.668
51525W        W17005   7.347   5.843   0.380
51526W        W17006  26.659  16.118   4.161
51527W        W17007  41.002  28.991  13.889
51528W        W17008   5.781  14.147  12.045
51529W        W17009  21.073  30.943   0.401
51530W        W17010  20.699  21.740  13.497
51531W        W17011   8.897  38.411  10.610
51532W        W17012  39.996  40.910   4.337
51533W        W17013  40.366  26.040  12.433
51534W        W17014  32.534  17.592   1.212
51535W        W17015  38.905  28.549   2.784
51536W        W17016  34.560  21.631   1.365
51537W        W17017  33.520  35.424  12.574
51538W        W17018   2.350  24.039  13.391
51539W        W17019  42.419  40.347  10.956
51540W        W17020   4.879  26.457   3.252
51541W        W17021  21.245   6.314   2.693
51542W        W17022  42.941   9.313  11.393
51543W        W17023   3.317  20.141   3.662
51544W        W17024   0.430  31.025   1.354
51545W        W17025  11.330  30.923  11.440
51546W        W17026  37.532  34.998   1.307
51547W        W17027  31.986  28.535   4.129
51548W        W17028  39.483   1.974  11.905
51549W        W17029  33.534   1.753   4.722
51550W        W17030  35.052  21.216  13.868
51551W        W17031  32.455  36.958   3.320
51552W        W17032  43.417  15.195  11.058
51553W        W17033   1.447  18.293   4.625
51554W        W17034  28.001  33.497  11.970
51555W        W17035  12.753  28.458   1.781
51556W        W17036  30.499  36.024  12.562
51557W        W17037  18.104  41.360   3.229
51558W        W17038  38.963  18.706   2.193
51559W        W17039  21.717   4.783  13.971
51560W        W17040  30.950  29.958  14.771
51561W        W17041  38.015  20.587  13.345
51562W        W17042  28.087  42.812  14.393
51563W        W17043  17.630  43.769  10.942
51564W        W17044  32.426  12.834   4.621
51565W        W17045  30.984   8.765  11.437
51566W        W17046   5.863  11.825  13.357
51567W        W17047  41.945  22.625  11.057
51568W        W17048  32.011  25.994  13.532
51569W        W17049  41.476  16.165   1.410
51570W        W17050  19.622  38.406   2.330
51571W        W17051  35.491  37.027  12.888
51572W        W17052  30.466   5.318   3.765
51573W        W17053   7.848  17.279   2.682
51574W        W17054  17.670  33.057   4.749
51575W        W17055  30.059  18.163  11.538
51576W        W17056  14.242   2.232   1.771
51577W        W17057   8.865  38.401   3.787
51578W        W17058  35.951  32.901   1.369
51579W        W17059  23.647  20.028   3.383
51580W        W17060  41.382  14.619  10.550
51581W        W17061  16.631  24.102  12.838
51582W        W17062   0.932   7.810  11.936
51583W        W17063  30.421  24.161   4.597
51584W        W17064  42.427  31.546   0.738
51585W        W17065  20.689  13.698  12.391
51586W        W17066  23.006  27.959  13.916
51587W        W17067  12.358   4.905   2.181
51588W        W17068  15.119   6.349   3.835
51589W        W17069  44.894  33.503   3.734
51590W        W17070  12.845  24.210  10.635
51591W        W17071  14.786   3.738  10.550
51592W        W17072  24.003  40.999  13.421
51593W        W17073   0.883   1.781  14.984
51594W        W17074  44.435   0.817  10.437
51595W        W17075  44.294  37.030   4.712
51596W        W17076  14.154  19.065   2.821
51597W        W17077  25.139  37.492   9.983
51598W        W17078   7.838  12.265   4.677
51599W        W17079  32.992  17.111  13.029
51600W        W17080  25.588  43.906  12.867
51601W        W17081   4.715  23.619  14.953
51602W        W17082  19.700  12.347   4.612
51603W        W17083   1.453   3.249  14.886
51604W        W17084  25.087  26.127  12.071
51605W        W17085  17.240  44.763  14.024
51606W        W17086  13.203  21.600   4.640
51607W        W17087   5.330   1.928  13.501
51608W        W17088  15.232   8.280   1.723
51609W        W17089  29.567  25.064  10.537
51610W        W17090  16.090  28.930  14.796
51611W        W17091  31.968  22.588   5.175
51612W        W17092  33.952   9.663   1.799
51613W        W17093  34.448  41.932   0.289
51614W        W17094  24.722  18.104   0.918
51615W        W17095  28.963   2.267   4.235
51616W        W17096  18.239  40.050   4.679
51617W        W17097  12.717  34.896  13.914
51618W        W17098  31.403  13.822  10.509
51619W        W17099  21.208  36.402  11.103
51620W        W17100   4.943  44.467  14.318
51621W        W17101  20.243  44.867  13.513
51622W        W17102   4.282   1.957   0.836
51623W        W17103  23.698  22.664  12.467
51624W        W17104  17.177  31.570  12.430
51625W        W17105   6.895   4.923   3.328
51626W        W17106   6.762   7.206  11.967
51627W        W17107   3.792   5.835  15.000
51628W        W17108  37.515  40.374   0.964
51629W        W17109  30.018  16.195   4.178
51630W        W17110  26.654  22.712   3.636
51631W        W17111   5.898   9.192  14.347
51632W        W17112  31.063  28.541   2.857
51633W        W17113  31.972  21.218  14.026
51634W        W17114  25.126   8.373  11.586
51635W        W17115  32.441  44.925   3.373
51636W        W17116  31.975   0.777   1.400
51637W        W17117  24.486  29.454  12.956
51638W        W17118  39.831   7.851   2.380
51639W        W17119  22.996  16.096  12.400
51640W        W17120  40.546  21.232  14.394
51641W        W17121  30.112  32.914  14.502
51642W        W17122  37.557   9.820  12.390
51643W        W17123   6.818  33.960   3.319
51644W        W17124  38.032   9.315   2.768
51645W        W17125  23.155   1.930   1.317
51646W        W17126  26.132  14.294   1.371
51647W        W17127  31.987  21.563  11.401
51648W        W17128  33.561  13.742  10.638
51649W        W17129  21.174  24.166  12.440
51650W        W17130  40.957  12.705  13.888
51651W        W17131  35.458  16.622  13.994
51652W        W17132  27.624   1.351  14.437
51653W        W17133  39.903  11.675  12.915
51654W        W17134  10.667  20.685   0.377
51655W        W17135  24.661   8.686  11.020
51656W        W17136  44.269   8.341   1.721
51657W        W17137  24.621  35.460   3.350
51658W        W17138  22.555   3.371   4.243
51659W        W17139   9.384  17.708   1.423
51660W        W17140  10.836  34.116   0.360
51661W        W17141   4.808  37.410   3.330
51662W        W17142  25.988  14.749  13.452
51663W        W17143  10.787  44.000   3.386
51664W        W17144  10.163  16.702   4.609
51665W        W17145   4.862   2.899   2.319
51666W        W17146  44.833  14.259  13.001
51667W        W17147   0.807  41.531   0.414
51668W        W17148  36.913  14.267  13.816
51669W        W17149  21.085   6.420  12.422
51670W        W17150  34.385   8.378  10.556
51671W        W17151  26.620  43.438  11.521
51672W        W17152   9.298  38.948   0.425
51673W        W17153  26.042   3.770   4.781
51674W        W17154   3.855  38.497  10.954
51675W        W17155  28.559  20.094  12.966
51676W        W17156   0.419  32.060   2.222
51677W        W17157   7.357  22.580   1.233
51678W        W17158   6.284  12.690   1.802
51679W        W17159  42.349  41.902  11.859
51680W        W17160   1.819  30.947   1.416
51681W        W17161   9.253  25.160   5.265
51682W        W17162  25.178  36.480   0.292
51683W        W17163  15.315  44.424   2.416
51684W        W17164  44.446  10.146   3.247
51685W        W17165  27.687  16.183  13.037
51686W        W17166  23.614  30.090  14.277
51687W        W17167  15.756  17.297  11.491
51688W        W17168  26.107  27.533   4.662
51689W        W17169   8.262   4.256   4.161
51690W        W17170   0.393  44.777  13.958
51691W        W17171  41.297   4.331   4.338
51692W        W17172  22.164  44.011   1.248
51693W        W17173  36.084  20.227   0.319
51694W        W17174  14.151  42.782  12.544
51695W        W17175   6.289  11.750   2.391
51696W        W17176  41.871  13.256  14.911
51697W        W17177  26.613  23.547   9.951
51698W        W17178  20.654  24.062   2.263
51699W        W17179  33.944  19.107   1.215
51700W        W17180  30.466   6.276  10.448
51701W        W17181  41.470   0.797  10.573
51702W        W17182  18.059   2.750  12.552
51703W        W17183   1.415  27.950   1.898
51704W        W17184  13.275  30.927  11.517
51705W        W17185  10.244   6.392  12.510
51706W        W17186  10.774  31.103  12.356
51707W        W17187   8.840  31.549  13.505
51708W        W17188  28.560   4.803   0.746
51709W        W17189  11.221   8.736  11.041
51710W        W17190   4.233  41.416  13.439
51711W        W17191   9.678  16.160  12.984
51712W        W17192   1.946  23.609  12.032
51713W        W17193  36.975  33.507   4.605
51714W        W17194  15.691  15.703  14.916
51715W        W17195  36.558  25.971  13.314
51716W        W17196  34.118  11.838   2.802
51717W        W17197  37.003   5.933   2.812
51718W        W17198  29.504  33.018  10.511
51719W        W17199  33.459  41.958  11.951
51720W        W17200  24.581  37.872  13.430
51721W        W17201  38.006  24.543   1.813
51722W        W17202  28.526  30.067  11.085
51723W        W17203  34.428  30.638  14.370
51724W        W17204  30.618  36.001   2.213
51725W        W17205  17.648  25.675  14.014
51726W        W17206   4.866  14.780   3.668
51727W        W17207   6.862  30.657  13.918
51728W        W17208  36.500  38.918  10.042
51729W        W17209  21.601  38.965  12.927
51730W        W17210  25.007  31.997   4.215
51731W        W17211  20.237  26.172  14.440
51732W        W17212  41.375  30.529  11.384
51733W        W17213  14.149  28.035  11.398
51734W        W17214   1.778   6.789   3.662
51735W        W17215   3.250  10.844   4.143
51736W        W17216  42.914  39.468  14.363
51737W        W17217  36.403  25.028   3.749
51738W        W17218  31.012  29.977   1.820
51739W        W17219  25.562   7.833  10.076
51740W        W17220  13.797  18.580  10.585
51741W        W17221  38.445  25.992   1.753
51742W        W17222  38.028  10.328  10.121
51743W        W17223  42.967  42.968   0.418
51744W        W17224  30.493  17.614   0.747
51745W        W17225   2.728  11.373   4.197
51746W        W17226   2.803   7.702   4.709
51747W        W17227   9.288  19.258  13.315
51748W        W17228  12.328  25.048   1.831
51749W        W17229  16.746  16.084   1.802
51750W        W17230  36.570  25.608   4.288
51751W        W17231  28.663  25.088  12.494
51752W        W17232   7.326   1.475   3.846
51753W        W17233  12.685  26.614   1.843
51754W        W17234  18.152   8.216  14.783
51755W        W17235  31.118  42.310  10.984
51756W        W17236  26.692  21.641   2.682
51757W        W17237  26.503  13.751   1.878
51758W        W17238   2.296  36.921   4.638
51759W        W17239  18.097  26.197  14.998
51760W        W17240  38.416  40.876   1.230
51761W        W17241  14.698  10.817   4.626
51762W        W17242  25.096   3.360  14.995
51763W        W17243  30.962  25.199  10.895
51764W        W17244   1.385  33.574   1.365
51765W        W17245  28.992  16.803   0.248
51766W        W17246  32.453  32.070   1.786
51767W        W17247   3.938   6.840  12.875
51768W        W17248  23.098  14.664   1.907
51769W        W17249  31.035  18.287   0.807
51770W        W17250  32.393   5.921  11.430
51771W        W17251   9.838  13.314   3.381
51772W        W17252  16.627  36.453  12.462
51773W        W17253  36.986  16.283  13.025
51774W        W17254  26.588  33.079   1.893
51775W        W17255   7.822  44.302  14.438
51776W        W17256  39.315  27.501   4.647
51777W        W17257  18.714  17.782   2.766
51778W        W17258  14.231  27.964  13.533
51779W        W17259   1.907  10.352  14.818
51780W        W17260  44.009  38.898   1.284
51781W        W17261   1.443  21.186  12.399
51782W        W17262  35.949  41.455   1.393
51783W        W17263   5.714  25.046   0.736
51784W        W17264   0.309  41.332   2.334
51785W        W17265  43.898   2.301   2.881
51786W        W17266  31.976  43.416  14.923
51787W        W17267  22.649   6.694  14.996
51788W        W17268  34.389  18.081  13.893
51789W        W17269   6.399  28.119   4.607
51790W        W17270  19.779   3.279  13.841
51791W        W17271  27.526  12.305   1.350
51792W        W17272  18.649  24.978   3.672
51793W        W17273  35.473   0.470  12.839
51794W        W17274  24.657  28.097  12.956
51795W        W17275  15.615  43.930   1.301
51796W        W17276  34.970  31.114  14.433
51797W        W17277  43.994  33.937  12.489
51798W        W17278  38.514  21.749   0.856
51799W        W17279  32.089  14.678  12.532
51800W        W17280  14.130  31.969   4.682
51801W        W17281   6.304  37.993  14.856
51802W        W17282  37.466  19.566  11.874
51803W        W17283  14.175   0.465   2.376
51804W        W17284  19.701  34.008   0.842
51805W        W17285  14.248  26.991   4.114
51806W        W17286  16.113  43.002   2.812
51807W        W17287  29.604  41.442  13.984
51808W        W17288  10.634  39.539   0.852
51809W        W17289   3.795  44.801  14.892
51810W        W17290   5.837  13.118  11.501
51811W        W17291  34.530  23.563  10.449
51812W        W17292  30.042  27.596  11.029
51813W        W17293  31.648   1.780  13.062
51814W        W17294  21.593  21.117  14.888
51815W        W17295   7.256  15.724  13.929
51816W        W17296  29.541  30.606   3.181
51817W        W17297  32.064   4.242  13.541
51818W        W17298  38.484  14.754   1.222
51819W        W17299   7.806  40.448   3.263
51820W        W17300  29.483  40.376  11.878
51821W        W17301   4.434  18.252  14.413
51822W        W17302  29.555   8.850   1.267
51823W        W17303  42.900  33.515  13.475
51824W        W17304  30.918   9.812   1.304
51825W        W17305  22.672  20.096  13.799
51826W        W17306  43.443  22.236  14.478
51827W        W17307  29.969  18.631   1.412
51828W        W17308  38.959  24.696   1.911
51829W        W17309  36.404  15.759  12.572
51830W        W17310  42.897  26.521  13.908
51831W        W17311  13.761   9.866   0.921
51832W        W17312   9.668  20.725  14.807
51833W        W17313  21.091   8.253  13.972
51834W        W17314  20.654  33.562  11.933
51835W        W17315  42.900  37.557  13.952
51836W        W17316  17.250  21.626  13.512
51837W        W17317   7.902  15.688   2.237
51838W        W17318  24.501  44.389   1.846
51839W        W17319  44.363  36.482  12.373
51840W        W17320  34.589  23.541   0.729
51841W        W17321   9.688  42.434   3.341
51842W        W17322  40.944  14.831   4.810
51843W        W17323  28.143   3.901   3.782
51844W        W17324  41.341  24.656   3.242
51845W        W17325  12.704  20.085   4.120
51846W        W17326  31.986  38.952   1.744
51847W        W17327   3.235  22.649  10.986
51848W        W17328  27.979  35.553  14.414
51849W        W17329  28.660  31.068  10.449
51850W        W17330  36.354  31.648  10.481
51851W        W17331  17.754  44.757  10.902
51852W        W17332   8.176  42.405  10.942
51853W        W17333  19.625   5.370  12.507
51854W        W17334  41.914  40.539   2.889
51855W        W17335   2.781   4.831   3.685
51856W        W17336  29.960  10.638   4.780
51857W        W17337  24.140  39.400   3.723
51858W        W17338  27.627  37.942   1.756
51859W        W17339  12.748  11.262  12.955
51860W        W17340   1.762  43.427  12.365
51861W        W17341  16.188  12.300  12.534
51862W        W17342  14.827  10.744  12.551
51863W        W17343  20.229  44.880  12.450
51864W        W17344  40.531  22.006  11.096
51865W        W17345  21.642  41.362   5.246
51866W        W17346  41.343  32.014   0.323
51867W        W17347  33.599  44.767  14.480
51868W        W17348   4.712  22.574   1.322
51869W        W17349  38.027  25.662  11.507
51870W        W17350  36.028  37.488   2.392
51871W        W17351  39.485   7.875  14.807
51872W        W17352   6.377  19.063  10.517
51873W        W17353   4.759  20.579   3.209
51874W        W17354  29.427  31.136   4.265
51875W        W17355  31.606   8.861   4.280
51876W        W17356  36.070  34.021  12.499
51877W        W17357  23.516  12.205   0.414
51878W        W17358  41.322  19.076  12.458
51879W        W17359  18.753   7.173   2.203
51880W        W17360  13.695  42.495   2.837
51881W        W17361  23.193  14.805   3.688
51882W        W17362   6.822   3.281  14.918
51883W        W17363  39.912   1.961  11.080
51884W        W17364   8.379  16.738  11.521
51885W        W17365  12.787  20.237  11.537
51886W        W17366  19.263   6.846   2.813
51887W        W17367  26.633  13.108   5.130
51888W        W17368  42.319  44.433   2.760
51889W        W17369   3.926  24.676   0.945
51890W        W17370   8.388   1.813   2.203
51891W        W17371  14.200   2.943   3.727
51892W        W17372  28.024  24.601   1.804
51893W        W17373  13.252  14.762  14.824
51894W        W17374   0.793  27.623  11.125
51895W        W17375  17.675   5.713  13.048
51896W        W17376   9.312  28.514  12.496
51897W        W17377  43.855  29.985   4.308
51898W        W17378   4.869  43.884   2.346
51899W        W17379  42.907  24.077  11.082
51900W        W17380  37.530   0.766   0.843
51901W        W17381  11.331  26.575   0.959
51902W        W17382  36.505  31.402   3.741
51903W        W17383  11.236  26.474  10.026
51904W        W17384  31.039  11.793   3.708
51905W        W17385  18.263  32.054  13.416
51906W        W17386  15.297  27.588   2.256
51907W        W17387  38.369  12.319  11.454
51908W        W17388  29.506  29.018  11.906
51909W        W17389  14.824   9.342   1.443
51910W        W17390  39.954  38.840   0.262
51911W        W17391  34.488  23.611  10.939
51912W        W17392  15.722  36.017  10.417
51913W        W17393  22.596  15.101  12.968
51914W        W17394  17.119   0.290   1.210
51915W        W17395  24.642   1.463  12.381
51916W        W17396  26.614   6.217  11.038
51917W        W17397   1.295  34.479   3.781
51918W        W17398  43.000  20.170  12.046
51919W        W17399  40.926  36.090  14.391
51920W        W17400  22.590  25.686  11.443
51921W        W17401   9.840  21.611   4.138
51922W        W17402  38.853   1.839   2.368
51923W        W17403   2.817  15.734   2.671
51924W        W17404  15.235  15.711  11.943
51925W        W17405   7.370  10.676  12.086
51926W        W17406  32.488  11.255  14.814
51927W        W17407  10.225  36.933   1.778
51928W        W17408  27.107  20.104  10.498
51929W        W17409   6.837  22.083  12.569
51930W        W17410  23.498  14.753  14.475
51931W        W17411  20.227   6.835  12.539
51932W        W17412  42.321  19.571   0.847
51933W        W17413  15.124   6.863  12.502
51934W        W17414   9.770  17.664   1.799
51935W        W17415  13.664  18.708   3.630
51936W        W17416  12.672  14.701  10.644
51937W        W17417  25.049  16.256  12.829
51938W        W17418  41.292  32.415  10.588
51939W        W17419  38.427  19.279  12.867
51940W        W17420   4.911  38.921  10.485
51941W        W17421  36.904   1.379  11.595
51942W        W17422  44.978  16.650   4.636
51943W        W17423  31.463   2.263  13.353
51944W        W17424  33.894  27.125   0.277
51945W        W17425  36.411  35.861   2.222
51946W        W17426  17.570  44.458  12.831
51947W        W17427   5.783  20.629   0.279
51948W        W17428   9.661  12.289  14.864
51949W        W17429   1.868  22.523   0.251
51950W        W17430  20.572  17.714  13.971
51951W        W17431  31.633  30.946  10.599
51952W        W17432   5.224   9.652   3.182
51953W        W17433  32.946  30.019  10.473
51954W        W17434  33.089  10.211   0.419
51955W        W17435  18.064  30.151  13.505
51956W        W17436  42.321  44.457   1.301
51957W        W17437   4.220   7.886  11.038
51958W        W17438  22.552  36.551   3.256
51959W        W17439  16.160  24.716  11.460
51960W        W17440  33.607  24.125  11.532
51961W        W17441  28.048  20.263   3.170
51962W        W17442  14.634  33.424   0.334
51963W        W17443  44.395  15.262  11.879
51964W        W17444  27.039  31.986   4.615
51965W        W17445  17.104  22.602   1.367
51966W        W17446  16.203  22.569   1.341
51967W        W17447   0.405  34.376   0.804
51968W        W17448  26.207  13.714   2.779
51969W        W17449   3.917  43.794  11.902
51970W        W17450  10.767  29.551  14.489
51971W        W17451  15.233   8.663   3.816
51972W        W17452  44.779  40.030  11.566
51973W        W17453   9.300   5.365  10.408
51974W        W17454  25.049   3.775  11.119
51975W        W17455   8.752   6.363   0.737
51976W        W17456   1.259  29.033  14.793
51977W        W17457  39.891  13.794   2.704
51978W        W17458  17.128  13.268  10.895
51979W        W17459  15.181   4.805   0.379
51980W        W17460   7.402   8.890  12.007
51981W        W17461  26.457  10.675   4.826
51982W        W17462  21.595   6.273  10.442
51983W        W17463   2.460  13.296   2.296
51984W        W17464   7.195  16.091   4.251
51985W        W17465  27.171  30.959   2.298
51986W        W17466  18.103  35.062  12.386
51987W        W17467  22.513  16.220   0.817
51988W        W17468  11.703  23.224   3.359
51989W        W17469  31.572  11.857   2.875
51990W        W17470  26.049  35.474  12.866
51991W        W17471  27.140  13.173  11.512
51992W        W17472  24.165   7.750   1.419
51993W        W17473  18.198   4.236  13.012
51994W        W17474  22.505  24.208   2.380
51995W        W17475  44.949  34.608   3.332
51996W        W17476   6.743  31.996   4.235
51997W        W17477  20.638  43.384   3.275
51998W        W17478   5.250   3.440   4.716
51999W        W17479  41.937   1.962  11.512
52000W        W17480  40.525   3.947   2.215
52001W        W17481  18.607  37.505   4.279
52002W        W17482  32.444  39.544  11.463
52003W        W17483  19.662  14.712   3.385
52004W        W17484  31.617  13.252  14.017
52005W        W17485  38.395  14.207  10.932
52006W        W17486   7.245  10.807   4.738
52007W        W17487  13.784   3.421   4.735
52008W        W17488   9.704  21.534  11.420
52009W        W17489   0.254  25.128   0.919
52010W        W17490  41.932  17.255   1.219
52011W        W17491  21.026  44.435   3.810
52012W        W17492  36.981   9.862   4.273
52013W        W17493  37.582   9.731   0.383
52014W        W17494  19.178  20.554  13.951
52015W        W17495   5.215  14.208   3.638
52016W        W17496   1.763  16.145  11.972
52017W        W17497   4.319  20.567   0.254
52018W        W17498  30.087  23.150  10.932
52019W        W17499   7.172  44.269   2.823
52020W        W17500  22.231  19.129   0.944
52021W        W17501  19.676   7.736   2.682
52022W        W17502   0.473  12.196   1.774
52023W        W17503   9.802  30.641   0.889
52024W        W17504   9.691  10.772  14.315
52025W        W17505  38.480  26.644   4.351
52026W        W17506   7.717   0.443  12.904
52027W        W17507  17.681  31.584   4.350
52028W        W17508  44.895  44.957  12.457
52029W        W17509  18.281  31.444   4.718
52030W        W17510  25.168  29.517  12.455
52031W        W17511  19.109  38.018  11.513
52032W        W17512  43.438   4.282  14.774
52033W        W17513  38.889  22.667   1.385
52034W        W17514  27.068   4.877  13.804
52035W        W17515  23.174   0.815   4.300
52036W        W17516  16.168  35.384  11.525
52037W        W17517  25.559   8.235   1.335
52038W        W17518   8.858   7.823  13.388
52039W        W17519  11.173  38.332  12.528
52040W        W17520  24.575  15.655   4.705
52041W        W17521  34.454  43.328   0.959
52042W        W17522  14.242  36.961  11.935
52043W        W17523   3.303  42.794  13.478
52044W        W17524  14.143   1.433  12.359
52045W        W17525  34.405   5.836   1.788
52046W        W17526  16.129   7.825  14.495
52047W        W17527  37.479  38.426   1.419
52048W        W17528  22.149  21.183  11.582
52049W        W17529  26.093  40.468   4.601
52050W        W17530  27.493  24.077   0.314
52051W        W17531  40.007   2.447   1.353
52052W        W17532  17.693   5.198   3.152
52053W        W17533  32.898  43.926   3.701
52054W        W17534   8.204   4.375   3.727
52055W        W17535  38.567  30.156  11.945
52056W        W17536  38.347  26.063   4.159
52057W        W17537  19.197  38.485  11.888
52058W        W17538  38.457  34.919   1.278
52059W        W17539   9.824  16.193   1.903
52060W        W17540  17.636  32.077   3.718
52061W        W17541   0.354  13.190  11.555
52062W        W17542  43.365  14.715  14.474
52063W        W17543  41.339   7.723  12.386
52064W        W17544   2.865  22.109   3.679
52065W        W17545   1.796  22.714  11.523
52066W        W17546  22.181   2.799   3.658
52067W        W17547  31.135   0.403  14.368
52068W        W17548  33.514  19.684   4.690
52069W        W17549   3.778  20.535   0.949
52070W        W17550  21.093  39.829  12.061
52071W        W17551  37.528  23.532   4.704
52072W        W17552  12.335  16.136  10.585
52073W        W17553  16.237  31.631   4.674
52074W        W17554  15.228  14.631   1.833
52075W        W17555   5.195  23.651  11.506
52076W        W17556  27.984   0.449  12.904
52077W        W17557  22.232  21.572  11.967
52078W        W17558   1.825   8.849   2.695
52079W        W17559  44.953  35.880   3.211
52080W        W17560   9.774  25.053   4.163
52081W        W17561  13.134   7.738   1.305
52082W        W17562  36.348  24.989  12.859
52083W        W17563  21.737  24.194  13.381
52084W        W17564  15.200  11.367   4.806
52085W        W17565  23.132  22.141   2.395
52086W        W17566  36.928  18.764   3.848
52087W        W17567  13.764  23.996   3.669
52088W        W17568  40.031  32.540  11.954
52089W        W17569  44.920  16.228  14.836
52090W        W17570  27.164   9.365  12.887
52091W        W17571  28.942  20.562  13.951
52092W        W17572   9.778  31.598  13.413
52093W        W17573   3.733  23.603  10.972
52094W        W17574  15.675  38.836   3.207
52095W        W17575  43.388   1.470   0.379
52096W        W17576  33.553  40.391   4.115
52097W        W17577   6.765  18.066  12.513
52098W        W17578   2.333  19.683   1.390
52099W        W17579  38.990  34.405   0.456
52100W        W17580  38.392  31.462   3.355
52101W        W17581  12.759  11.849   2.891
52102W        W17582  35.464  44.883  12.931
52103W        W17583  42.818  37.494  11.948
52104W        W17584  25.703  19.177   4.722
52105W        W17585  26.614  36.479  11.963
52106W        W17586  27.687   6.391   0.944
52107W        W17587  38.513  44.461   3.861
52108W        W17588  17.285  21.639  13.865
52109W        W17589   3.314  40.043  13.360
52110W        W17590   8.795  23.118   3.753
52111W        W17591  23.159  41.422   3.386
52112W        W17592  41.896  10.380  10.983
52113W        W17593  31.935  24.209  12.912
52114W        W17594  20.122   7.377  14.435
52115W        W17595  26.124  15.715  10.429
52116W        W17596   9.652  41.027   3.847
52117W        W17597  31.028  37.578   4.328
52118W        W17598  15.100   5.331  14.400
52119W        W17599   7.854  25.079   4.641
52120W        W17600   5.243  23.591   1.439
52121W        W17601   8.676  40.857   2.364
52122W        W17602  30.426  15.733  10.985
52123W        W17603  12.131  41.972   1.330
52124W        W17604  33.453   4.905   4.791
52125W        W17605   3.360   5.789  10.470
52126W        W17606  43.381  30.421  13.022
52127W        W17607  19.554  12.844  13.948
52128W        W17608   8.236  22.506  10.540
52129W        W17609  27.475  28.940  12.046
52130W        W17610  10.282  26.173  10.066
52131W        W17611   7.835   4.731  14.852
52132W        W17612  11.355  22.083   1.698
52133W        W17613  30.613  29.934  14.301
52134W        W17614  13.318  27.467  10.948
52135W        W17615  40.802  33.988  12.937
52136W        W17616  22.543  40.412  10.516
52137W        W17617  26.461   4.920  10.477
52138W        W17618  15.695   2.255   4.751
52139W        W17619   9.754   6.272  11.432
52140W        W17620   5.866  11.178  12.372
52141W        W17621  39.436  27.485  13.385
52142W        W17622  15.279   8.251   2.867
52143W        W17623  23.195   0.764  12.449
52144W        W17624  10.764   0.417  12.833
52145W        W17625  25.667   0.337  10.490
52146W        W17626  10.869  37.019  13.832
52147W        W17627  16.294  10.379   1.797
52148W        W17628  15.265  21.756  13.481
52149W        W17629   2.276   5.927   3.152
52150W        W17630  23.141  27.512  11.386
52151W        W17631   1.307  36.358   2.315
52152W        W17632  39.347  10.219   0.301
52153W        W17633   3.308   6.741   0.325
52154W        W17634  21.042  18.620  10.405
52155W        W17635   6.214  14.302  13.895
52156W        W17636   2.867  35.873   3.788
52157W        W17637  42.404  30.945  12.429
52158W        W17638  44.304   8.386  13.489
52159W        W17639  13.163  15.814  12.969
52160W        W17640   5.919  34.978   1.835
52161W        W17641  13.803  20.074   0.419
52162W        W17642   6.815   4.322   4.309
52163W        W17643  16.634  36.057   1.721
52164W        W17644  20.564  24.651  11.599
52165W        W17645  17.790  28.446  11.528
52166W        W17646  21.675  14.780   3.737
52167W        W17647  14.179  38.333   0.254
52168W        W17648  23.557  21.153  11.416
52169W        W17649   9.253  23.608  13.378
52170W        W17650  21.610  31.474  13.033
52171W        W17651  39.546  38.515  11.400
52172W        W17652   6.762   6.184  10.521
52173W        W17653  39.932   6.333  14.023
52174W        W17654   9.776  18.776   1.885
52175W        W17655  22.018  23.527  13.372
52176W        W17656  20.681   3.438   2.388
52177W        W17657  31.539  43.320  12.061
52178W        W17658  43.472  23.173  11.105
52179W        W17659  33.441  21.617   9.926
52180W        W17660  40.997  33.558  12.537
52181W        W17661  39.335  15.632  10.581
52182W        W17662  33.587  13.649   4.703
52183W        W17663  16.755  37.485   0.755
52184W        W17664  24.615  32.964   0.885
52185W        W17665   0.959  15.598  11.564
52186W        W17666  27.485  22.741  13.520
52187W        W17667  11.804  20.272   4.724
52188W        W17668  12.754  14.669   0.465
52189W        W17669   5.754   1.315  14.515
52190W        W17670  27.045   3.302  12.394
52191W        W17671   2.227  30.149   4.307
52192W        W17672  25.112   3.249  11.480
52193W        W17673  12.216  29.667  13.893
52194W        W17674   6.849  33.973   3.678
52195W        W17675  16.207  25.042   0.756
52196W        W17676  39.337  16.623  12.049
52197W        W17677   2.958   6.729   4.774
52198W        W17678  11.725   9.277  11.520
52199W        W17679  40.047   2.849   0.951
52200W        W17680  24.156   9.332   2.903
52201W        W17681  12.251   2.394  11.384
52202W        W17682   8.362  39.407   3.363
52203W        W17683  16.101  16.315  13.880
52204W        W17684   5.846  29.119   4.302
52205W        W17685   8.362  18.778   4.761
52206W        W17686  38.526  28.592   3.287
52207W        W17687  29.961   3.317   4.241
52208W        W17688  44.315   3.715  10.021
52209W        W17689  21.060  26.153  11.101
52210W        W17690  11.193  32.471  11.609
52211W        W17691  19.621  26.698  14.818
52212W        W17692  41.444  30.490   1.821
52213W        W17693  10.189  35.011  13.900
52214W        W17694  33.541  22.196  11.893
52215W        W17695   2.449  22.174   4.286
52216W        W17696  30.436  37.924   3.762
52217W        W17697  36.556  12.333  13.984
52218W        W17698  10.695  19.719  13.804
52219W        W17699  13.147  41.002   4.827
52220W        W17700  16.102  27.547   1.845
52221W        W17701  16.632   9.239  10.530
52222W        W17702  29.118  41.810   4.263
52223W        W17703  31.055   8.740   3.147
52224W        W17704  26.498  32.892  11.542
52225W        W17705  21.603  10.721  14.957
52226W        W17706  36.997   9.735   0.312
52227W        W17707  17.267   3.841  14.973
52228W        W17708  22.076  27.633  10.590
52229W        W17709  38.360  11.326   2.313
52230W        W17710  29.518   1.354   3.239
52231W        W17711  33.595  34.914  12.033
52232W        W17712  26.006  21.672  12.043
52233W        W17713  40.970  43.497  12.575
52234W        W17714  42.951  40.968   0.762
52235W        W17715  34.940   2.791  13.429
52236W        W17716  22.612  11.220  11.500
52237W        W17717  24.148  26.510   2.243
52238W        W17718  15.096  31.629  14.476
52239W        W17719  38.048  41.798   1.339
52240W        W17720  22.728  17.206   2.369
52241W        W17721  43.424  33.428   0.967
52242W        W17722   0.356  38.819  11.990
52243W        W17723  26.543  11.782   2.771
52244W        W17724  27.027  18.205   3.738
52245W        W17725  35.062  40.465   2.834
52246W        W17726  41.977  18.571   0.854
52247W        W17727  44.304  42.939  13.791
52248W        W17728  35.407  37.057   0.356
52249W        W17729   3.863  42.779   3.213
52250W        W17730  38.540   5.386  12.375
52251W        W17731   8.847  42.821  12.458
52252W        W17732   9.284   4.779   3.782
52253W        W17733  26.656  18.579  12.979
52254W        W17734   5.416  14.696  13.382
52255W        W17735  43.504  21.734   4.831
52256W        W17736  31.905  17.150   1.702
52257W        W17737  14.294  35.932  12.855
52258W        W17738  41.005  20.587  14.899
52259W        W17739  28.136   9.703  14.004
52260W        W17740  34.443  29.004  12.829
52261W        W17741  43.372  11.782  10.012
52262W        W17742  10.691  41.456   2.901
52263W        W17743  22.228   9.766   5.575
52264W        W17744  24.697  28.609  13.038
52265W        W17745  41.434   3.363  14.297
52266W        W17746   9.193  13.794  13.025
52267W        W17747  42.982   0.352   3.175
52268W        W17748   5.379   2.753   2.419
52269W        W17749   2.961   9.350   4.340
52270W        W17750  27.090  30.052  12.477
52271W        W17751  38.026   5.286   3.345
52272W        W17752  36.489  39.323   0.287
52273W        W17753  40.820  22.640  10.995
52274W        W17754  13.347  10.198  10.499
52275W        W17755   5.863  19.204   2.240
52276W        W17756  36.452  21.641   0.351
52277W        W17757  24.509  23.218  14.812
52278W        W17758  39.916   6.278  14.795
52279W        W17759   7.730  27.061  12.496
52280W        W17760  34.596  36.854  13.836
52281W        W17761   8.298  11.628  11.032
52282W        W17762  14.202  24.595   4.660
52283W        W17763  34.038  29.161   0.413
52284W        W17764  11.704  41.009   0.934
52285W        W17765  18.287  33.115   0.316
52286W        W17766  11.730  28.571   1.829
52287W        W17767  24.220  40.334  14.463
52288W        W17768  22.738   1.924  13.528
52289W        W17769  10.814  11.261   1.734
52290W        W17770  31.540  35.365  10.558
52291W        W17771   0.844   0.865  12.544
52292W        W17772  39.815  31.528  12.410
52293W        W17773  32.066   5.308  14.325
52294W        W17774  17.256   7.677   2.295
52295W        W17775   4.379   1.242   0.852
52296W        W17776  10.305  10.875   5.188
52297W        W17777   4.402   5.722   3.370
52298W        W17778  17.666  37.920  13.374
52299W        W17779  23.715  13.305  11.588
52300W        W17780  18.247   6.795   0.451
52301W        W17781  37.568  28.013  13.548
52302W        W17782  13.647   5.367  11.893
52303W        W17783  33.490   9.734  12.397
52304W        W17784  29.522   9.378   2.874
52305W        W17785   0.281  28.137   3.332
52306W        W17786  33.615  29.559  10.623
52307W        W17787  39.339  35.075  10.594
52308W        W17788  33.051  14.202   2.321
52309W        W17789  17.770   1.761  11.890
52310W        W17790  15.261  27.483  13.963
52311W        W17791  38.461  23.008  14.374
52312W        W17792  23.214   0.461   1.434
52313W        W17793  28.580  40.829  13.532
52314W        W17794  36.378   5.819  13.825
52315W        W17795  40.431  34.947   0.404
52316W        W17796  33.014  31.533   0.869
52317W        W17797  32.572   8.803   3.754
52318W        W17798  13.664  25.652   2.290
52319W        W17799  37.973  16.166  12.009
52320W        W17800  42.791  32.965   4.219
52321W        W17801   9.382  44.325   0.291
52322W        W17802  32.593  12.249  11.863
52323W        W17803   4.938  28.625  10.937
52324W        W17804  16.680   3.392  13.019
52325W        W17805   5.704  41.513  13.063
52326W        W17806  34.608  43.819  13.335
52327W        W17807   1.916  20.652   0.265
52328W        W17808  35.920  29.534  14.909
52329W        W17809  22.556  25.103   1.261
52330W        W17810   5.257  11.745  11.473
52331W        W17811   1.976  26.986  13.888
52332W        W17812  19.097  21.681   4.193
52333W        W17813  33.990  44.421   0.939
52334W        W17814  34.374  12.154  14.316
52335W        W17815  36.513  18.211   0.298
52336W        W17816  25.155   9.793   1.364
52337W        W17817  22.625  17.774  12.486
52338W        W17818  24.607  39.850   3.671
52339W        W17819  11.208  35.381  10.990
52340W        W17820  19.061  42.483  12.841
52341W        W17821  13.619  35.005   4.259
52342W        W17822  19.646   4.327   1.330
52343W        W17823   3.438  28.119   2.844
52344W        W17824  21.055  20.250   1.420
52345W        W17825  14.289  36.363  11.927
52346W        W17826  25.712  21.172   5.222
52347W        W17827  35.973  33.909  11.971
52348W        W17828  37.933  19.122  11.096
52349W        W17829  33.562   8.211  13.008
52350W        W17830  28.614  29.134  11.379
52351W        W17831   2.449  23.173  14.425
52352W        W17832   5.414   8.226   2.318
52353W        W17833  39.446   2.952  12.960
52354W        W17834  20.175   3.457   2.849
52355W        W17835  14.783  19.280  14.848
52356W        W17836  10.701  20.094   2.663
52357W        W17837  16.225  43.485  13.488
52358W        W17838  43.823   4.705  11.578
52359W        W17839  12.186  43.837   2.377
52360W        W17840   7.868  43.898  11.988
52361W        W17841  22.110  40.025   2.805
52362W        W17842  13.672  30.533  14.504
52363W        W17843   8.281  26.562   0.885
52364W        W17844  13.609  36.913   4.313
52365W        W17845  12.760  41.418   3.842
52366W        W17846  14.608  28.476  12.486
52367W        W17847  12.205  40.986  11.527
52368W        W17848  39.925   8.659  11.504
52369W        W17849  21.048  34.994  14.425
52370W        W17850   0.369  34.901  12.408
52371W        W17851   4.364  37.832  11.051
52372W        W17852  19.662   4.309   1.735
52373W        W17853  33.039  29.657  12.444
52374W        W17854  24.589  24.041  13.942
52375W        W17855  29.148   8.719  14.305
52376W        W17856  31.488   8.277  12.557
52377W        W17857  38.481  26.971   3.298
52378W        W17858  30.086   1.756  13.815
52379W        W17859  38.902   2.769   1.287
52380W        W17860  37.017   0.880  13.379
52381W        W17861  35.912  37.489  13.054
52382W        W17862  22.132  22.603  11.899
52383W        W17863  18.073  16.584   4.613
52384W        W17864  25.519  20.215   1.317
52385W        W17865  10.355  22.125  14.851
52386W        W17866  26.674  25.017   2.282
52387W        W17867   1.790  33.568   2.827
52388W        W17868  25.963   9.690  11.461
52389W        W17869   7.356  16.576   3.828
52390W        W17870   1.256   6.394  11.932
52391W        W17871   9.793  39.428   3.297
52392W        W17872  33.421  43.453   3.318
52393W        W17873  12.817  30.594  14.970
52394W        W17874  35.451   3.709  10.475
52395W        W17875  27.510   4.227   1.445
52396W        W17876  35.456  29.134   3.182
52397W        W17877   8.694  41.364   4.294
52398W        W17878  37.416  43.284  10.965
52399W        W17879  27.598  14.100   4.137
52400W        W17880  18.214  32.048  10.479
52401W        W17881  30.129  19.158   0.793
52402W        W17882  38.434  30.096   3.751
52403W        W17883  19.636   7.283   3.207
52404W        W17884  32.475  15.622  11.494
52405W        W17885  12.633  23.067  10.568
52406W        W17886  17.589  30.991  11.429
52407W        W17887  20.534   5.380   4.232
52408W        W17888   5.827  40.451   3.380
52409W        W17889   0.914  22.708  10.045
52410W        W17890  22.050   6.367  14.007
52411W        W17891  40.865  40.493  13.006
52412W        W17892   2.274  26.201   4.779
52413W        W17893  40.455  22.168  13.400
52414W        W17894  43.495   2.732   0.813
52415W        W17895  33.598  31.100  14.941
52416W        W17896  35.898  11.351  12.447
52417W        W17897  43.505   0.948  11.874
52418W        W17898  39.464  21.054  12.000
52419W        W17899  37.386  11.712   2.401
52420W        W17900  39.403  21.019  12.929
52421W        W17901   7.188   4.419  12.420
52422W        W17902  36.575  32.587   3.841
52423W        W17903  27.615  17.068  14.914
52424W        W17904  39.018   5.356   2.179
52425W        W17905  33.061  32.502   1.415
52426W        W17906   1.374  33.411  13.846
52427W        W17907   3.230  16.077  10.982
52428W        W17908   2.291  21.051   3.646
52429W        W17909  20.703  37.940   2.715
52430W        W17910  18.288  25.483  13.499
52431W        W17911   1.378  36.002  11.936
52432W        W17912  23.989  27.647  12.872
52433W        W17913  29.649  17.285   1.373
52434W        W17914  28.012   4.902   0.746
52435W        W17915  21.749   6.723   0.352
52436W        W17916  28.668  21.633  10.579
52437W        W17917  13.217  20.042  14.505
52438W        W17918  44.351  28.061   3.384
52439W        W17919  13.707   7.907  14.963
52440W        W17920  19.753  13.676   4.799
52441W        W17921  39.059  26.637  14.027
52442W        W17922  34.868   1.929   3.342
52443W        W17923   7.880  15.250  11.917
52444W        W17924  44.809  22.531  11.550
52445W        W17925  18.210  25.033   0.409
52446W        W17926   2.725  35.365  13.307
52447W        W17927  21.127  36.382  13.857
52448W        W17928  12.846  21.676   1.440
52449W        W17929  33.617  22.635  11.052
52450W        W17930  37.440  38.071   3.639
52451W        W17931  18.248  11.631  14.454
52452W        W17932  13.227  44.474   4.616
52453W        W17933   2.395  21.178  14.403
52454W        W17934  19.722   5.734   4.782
52455W        W17935  24.642  29.481  10.985
52456W        W17936   3.375   2.465  13.438
52457W        W17937   7.343  17.656   3.172
52458W        W17938  20.546  14.217  14.390
52459W        W17939  16.737  18.156  11.552
52460W        W17940  34.030   8.310   0.730
52461W        W17941  31.530  18.725   1.696
52462W        W17942  21.112  13.108   2.820
52463W        W17943  27.583   1.741   0.401
52464W        W17944  35.381   9.314   1.302
52465W        W17945  25.563  42.327  14.328
52466W        W17946  19.673   5.318  13.452
52467W        W17947   7.171  16.732   2.183
52468W        W17948  23.489   6.761  10.601
52469W        W17949  29.513  11.155  11.480
52470W        W17950  27.680  17.619   4.135
52471W        W17951  19.118  30.540   0.795
52472W        W17952  34.929   4.437  11.548
52473W        W17953  33.458  28.943   4.613
52474W        W17954  25.077  11.759   1.448
52475W        W17955  38.055   0.333  12.856
52476W        W17956  13.756   5.361   3.769
52477W        W17957  44.400  41.930   0.280
52478W        W17958  26.048  27.041   3.256
52479W        W17959  43.469  16.594   3.221
52480W        W17960  15.281   6.777  11.985
52481W        W17961  21.726  20.734   0.244
52482W        W17962  40.308  43.356  12.950
52483W        W17963  18.629  21.212  11.114
52484W        W17964  13.601  39.478   4.743
52485W        W17965  42.974  28.968  12.481
52486W        W17966  39.028   7.887  12.057
52487W        W17967  39.401  22.511   0.271
52488W        W17968  38.953  44.848  14.020
52489W        W17969   3.896  21.600  11.101
52490W        W17970   4.943  33.077  11.590
52491W        W17971  30.636  14.327  11.928
52492W        W17972  21.725   9.651   0.932
52493W        W17973  38.964  43.515  13.928
52494W        W17974   2.910  33.064  13.956
52495W        W17975  22.584  43.765   0.827
52496W        W17976  27.976  39.891   1.903
52497W        W17977  38.821   8.774  13.995
52498W        W17978  31.091  26.138  12.871
52499W        W17979  11.721   6.370  11.592
52500W        W17980  21.589  35.002   3.793
52501W        W17981  34.927   0.818  14.847
52502W        W17982  10.845  32.582   4.828
52503W        W17983   4.739  20.715  14.395
52504W        W17984   5.707  19.269   3.851
52505W        W17985   0.482  35.546   0.396
52506W        W17986   8.780  42.995   4.202
52507W        W17987  10.364  41.502  14.948
52508W        W17988  17.761  25.552  12.380
52509W        W17989  14.239  32.567  14.015
52510W        W17990  44.336  34.981   3.291
52511W        W17991  20.670  14.671  12.052
52512W        W17992  43.377   5.318   0.289
52513W        W17993  31.029  42.913   2.335
52514W        W17994   7.835  34.406  10.119
52515W        W17995  31.548  35.092  13.051
52516W        W17996  32.951  31.932  10.622
52517W        W17997  38.427  16.177  14.990
52518W        W17998  35.022  25.184   2.197
52519W        W17999  14.828  12.712   2.243
52520W        W18000  25.540  33.394   4.276
52521W        W18001   2.811  28.513   1.850
52522W        W18002  37.859  32.463  11.993
52523W        W18003  12.260  33.037   2.386
52524W        W18004  13.680  22.629  12.541
52525W        W18005  18.551  40.501  14.009
52526W        W18006   5.362  10.279   2.235
52527W        W18007  42.431   0.952  11.448
52528W        W18008  23.169   8.856  12.360
52529W        W18009  12.164  33.579  13.484
52530W        W18010   8.876  11.853  14.886
52531W        W18011   5.745   7.880  13.533
52532W        W18012   8.253  36.524   0.349
52533W        W18013  44.441  23.598   0.793
52534W        W18014  12.274  44.930  14.888
52535W        W18015  27.483  29.507   3.346
52536W        W18016  15.655  30.164  12.023
52537W        W18017  27.946  22.104   0.944
52538W        W18018  41.332   4.297   0.449
52539W        W18019   0.377  43.460  11.993
52540W        W18020   1.324   0.487  13.862
52541W        W18021  15.687  28.008   3.681
52542W        W18022  37.028  41.327  11.905
52543W        W18023  19.119  22.729  12.952
52544W        W18024  29.594  39.339   5.698
52545W        W18025   6.188   5.929  14.771
52546W        W18026   1.318  23.517   2.720
52547W        W18027   5.905  35.365   2.724
52548W        W18028  19.738  11.214   2.282
52549W        W18029   5.327  10.272   1.404
52550W        W18030  22.201  12.209   1.758
52551W        W18031   1.336   9.394  14.873
52552W        W18032  35.576  25.607  10.923
52553W        W18033  39.377  38.917   1.852
52554W        W18034  22.599  30.415   2.386
52555W        W18035   1.801  36.870   0.772
52556W        W18036   9.394  30.918  10.904
52557W        W18037   7.679  11.148   3.761
52558W        W18038  30.110  40.806   0.353
52559W        W18039  43.464  23.055   3.726
52560W        W18040  30.959   3.263  11.886
52561W        W18041   2.427   0.908   4.262
52562W        W18042  20.638  31.955  11.064
52563W        W18043  12.152  36.969   4.294
52564W        W18044  25.024  15.322  12.951
52565W        W18045   4.213  33.880  13.963
52566W        W18046   5.361  38.351   1.256
52567W        W18047  42.386  44.322  14.872
52568W        W18048  12.265  37.878   0.828
52569W        W18049  35.391  18.158   0.375
52570W        W18050  31.956  42.470   1.910
52571W        W18051  39.953  31.983  13.792
52572W        W18052  18.231  16.698  14.778
52573W        W18053   9.339  25.595  11.876
52574W        W18054  44.842   7.668  14.353
52575W        W18055  20.579  42.344   0.341
52576W        W18056   2.795  15.298   0.885
52577W        W18057  20.671  15.087   0.823
52578W        W18058  25.714  24.688  10.624
52579W        W18059   1.940  14.315  13.055
52580W        W18060  19.572  14.649  14.012
52581W        W18061  21.608  25.481  13.054
52582W        W18062  13.697  15.149  12.444
52583W        W18063  22.057  42.900  10.416
52584W        W18064  16.688  38.023  13.048
52585W        W18065  31.134  31.922  10.144
52586W        W18066  40.420   4.233   1.827
52587W        W18067  16.143  21.627  10.591
52588W        W18068  34.928   2.961  13.915
52589W        W18069  32.940  44.950  10.607
52590W        W18070   0.813   3.338   0.255
52591W        W18071  32.405  31.125  11.855
52592W        W18072   0.827  43.294   3.301
52593W        W18073  20.148  23.691   4.134
52594W        W18074  24.230  16.223  12.872
52595W        W18075  41.023  24.035   3.166
52596W        W18076  27.472   9.183   0.892
52597W        W18077  43.470  16.100   4.139
52598W        W18078  32.455  21.104  12.525
52599W        W18079  27.554  35.952   4.689
52600W        W18080  24.546  44.924  12.422
52601W        W18081  30.932  28.653  11.029
52602W        W18082   3.828  35.464   4.339
52603W        W18083  31.468  24.017  12.447
52604W        W18084  36.854  38.836  14.004
52605W        W18085   8.819  17.085   1.750
52606W        W18086  37.979   5.708  11.563
52607W        W18087   5.345  30.074  10.473
52608W        W18088  39.368  30.585   2.719
52609W        W18089  11.727  21.575   4.620
52610W        W18090  25.061  42.955  13.876
52611W        W18091  22.194   6.322   0.933
52612W        W18092  30.501  15.676   1.438
52613W        W18093  41.809  29.950  12.410
52614W        W18094  23.708  33.958   3.777
52615W        W18095  37.543  28.138   3.275
52616W        W18096  17.603   7.220   1.437
52617W        W18097  18.164  37.968  14.465
52618W        W18098  27.458   2.877  13.420
52619W        W18099  20.167  12.280   1.308
52620W        W18100   2.465  21.622  11.546
52621W        W18101   7.390  35.568   4.771
52622W        W18102  12.851  42.367  11.894
52623W        W18103  37.405  19.204  11.943
52624W        W18104   0.364   7.191   2.244
52625W        W18105  15.120  37.560   1.237
52626W        W18106  41.439  22.152  13.364
52627W        W18107  29.957   0.403  11.391
52628W        W18108  44.337   2.436   3.634
52629W        W18109  23.148  39.993   2.747
52630W        W18110   8.371   7.402   2.809
52631W        W18111  43.972   6.843   4.624
52632W        W18112  34.940   7.358   3.302
52633W        W18113  29.020   9.334   0.932
52634W        W18114   7.235   7.193   1.380
52635W        W18115  11.859  37.529   3.357
52636W        W18116  22.066  13.130  10.919
52637W        W18117   2.466  19.581  11.031
52638W        W18118  25.167  28.167   0.348
52639W        W18119  24.136  24.083  12.964
52640W        W18120   2.825  19.098   0.811
52641W        W18121  32.085  12.353   2.315
52642W        W18122  36.589  10.864   1.446
52643W        W18123  22.159  14.141  11.496
52644W        W18124  25.680  22.195  12.343
52645W        W18125  18.680   6.918   0.928
52646W        W18126  40.924   7.274   4.248
52647W        W18127  26.658  36.868   1.314
52648W        W18128  34.566  19.778   0.910
52649W        W18129  38.477  39.980   0.391
52650W        W18130   6.920  11.177   4.162
52651W        W18131   2.254   1.783  13.052
52652W        W18132  29.055   7.376   2.218
52653W        W18133   1.345  44.999   0.476
52654W        W18134  37.987   7.335  13.313
52655W        W18135  35.484   2.747  13.452
52656W        W18136  27.978   1.865  13.455
52657W        W18137   5.810   3.940   1.341
52658W        W18138  29.568  19.153   3.168
52659W        W18139  35.596  43.279  13.489
52660W        W18140   2.303  25.216   2.882
52661W        W18141  28.442  15.274   4.802
52662W        W18142   4.908  15.675   5.232
52663W        W18143  13.259  21.533  12.418
52664W        W18144  26.022  29.596  14.317
52665W        W18145  31.633  22.139   1.723
52666W        W18146   6.279  12.722  12.370
52667W        W18147  36.485  33.507  10.572
52668W        W18148   9.169  37.921  12.846
52669W        W18149   7.820   7.779  13.006
52670W        W18150  33.966  41.803   0.814
52671W        W18151  29.425  43.813  12.982
52672W        W18152  39.891  23.631   1.332
52673W        W18153  23.696  36.890   4.627
52674W        W18154  35.956   5.316   3.747
52675W        W18155  35.108   1.478   0.338
52676W        W18156  21.689  28.129  13.946
52677W        W18157  37.544  36.084  13.801
52678W        W18158  29.996  16.300  13.917
52679W        W18159  31.955   0.287   1.285
52680W        W18160  21.732   2.829   0.825
52681W        W18161  40.975  34.518   0.929
52682W        W18162  33.559  30.123   3.272
52683W        W18163  30.472  42.828  11.855
52684W        W18164  29.055   2.815  13.465
52685W        W18165  23.555  21.704   2.691
52686W        W18166  23.594  37.031  10.547
52687W        W18167  34.517  39.901  11.008
52688W        W18168   0.479   8.344  14.859
52689W        W18169   3.848  24.211   1.848
52690W        W18170   3.258   5.828   2.703
52691W        W18171  41.809  42.976  13.801
52692W        W18172  23.161  32.112  13.427
52693W        W18173  21.593  28.073   1.904
52694W        W18174  32.573  43.930   2.269
52695W        W18175  17.165  40.922   1.857
52696W        W18176  32.009   8.842   2.809
52697W        W18177  23.701   7.201   5.714
52698W        W18178  27.636  38.526  14.961
52699W        W18179  39.319  34.995   0.395
52700W        W18180  17.725  32.965  14.396
52701W        W18181  14.192  23.120   3.780
52702W        W18182   2.906  10.216   2.386
52703W        W18183  36.095  26.555   0.452
52704W        W18184  35.876  32.060   3.825
52705W        W18185  20.621  18.658  12.079
52706W        W18186  25.713  23.538   3.194
52707W        W18187  32.107  13.280  10.546
52708W        W18188  21.613  10.295   1.327
52709W        W18189  13.312   8.672  14.800
52710W        W18190  41.450  12.302   3.827
52711W        W18191  40.424   0.444  13.379
52712W        W18192   8.361   3.264  11.960
52713W        W18193  38.431  44.893   0.927
52714W        W18194  27.464  38.422   4.355
52715W        W18195  27.070   3.951  13.905
52716W        W18196  19.052  30.999  14.859
52717W        W18197   2.845   6.766   1.903
52718W        W18198   1.787   7.757  13.837
52719W        W18199   8.667  19.746   0.350
52720W        W18200  25.527  24.125   1.278
52721W        W18201  20.638   9.264  10.474
52722W        W18202  29.950  27.066  12.979
52723W        W18203  22.025  41.900  13.884
52724W        W18204  16.650  35.453   2.293
52725W        W18205  20.591  25.622   0.851
52726W        W18206   3.716  19.210   0.387
52727W        W18207  24.214  16.579   0.817
52728W        W18208  10.172  15.206   3.246
52729W        W18209  18.580  23.510   1.302
52730W        W18210  11.729  29.953  12.527
52731W        W18211  41.993   6.837  11.591
52732W        W18212  36.499  42.935   4.690
52733W        W18213  40.873  13.159  13.408
52734W        W18214  25.632   8.264   2.364
52735W        W18215  17.626  41.862  10.463
52736W        W18216   1.967   0.756  10.533
52737W        W18217   0.796   6.318   5.296
52738W        W18218  25.533  39.909  13.529
52739W        W18219  39.024  23.724  13.061
52740W        W18220   9.258  12.827   5.161
52741W        W18221  26.489   2.328   0.953
52742W        W18222  13.833  41.004  10.494
52743W        W18223  18.706  10.190   2.737
52744W        W18224  31.552  24.658  14.341
52745W        W18225   0.961   4.847   9.961
52746W        W18226   7.183  25.615   3.370
52747W        W18227  44.364   5.198  13.406
52748W        W18228   5.380  11.802  10.962
52749W        W18229  23.734   4.204  14.385
52750W        W18230  31.954  16.697   0.900
52751W        W18231  43.773  13.739  11.420
52752W        W18232  31.929  41.009  12.895
52753W        W18233   6.839  40.821   0.841
52754W        W18234   4.291   5.857   2.739
52755W        W18235  36.586   2.359  12.440
52756W        W18236  39.340  21.756  14.415
52757W        W18237  19.707  20.186  14.007
52758W        W18238  31.601   0.325   2.239
52759W        W18239  34.934   5.797   2.236
52760W        W18240   0.277  23.997   2.748
52761W        W18241  24.179  40.320  11.495
52762W        W18242  22.588  17.665   1.394
52763W        W18243  24.543  10.645  12.468
52764W        W18244   5.237  22.999   3.697
52765W        W18245  11.820  36.388   3.796
52766W        W18246  27.126  38.063   4.781
52767W        W18247  42.490  41.338   1.775
52768W        W18248  36.582  30.450  14.455
52769W        W18249  44.933  15.280   0.330
52770W        W18250   5.419  25.687   1.397
52771W        W18251  14.248  17.743  11.577
52772W        W18252  16.243  36.443   2.669
52773W        W18253  21.195  20.166  12.893
52774W        W18254   9.771  20.210  14.478
52775W        W18255   6.822  19.264   0.848
52776W        W18256  23.523  10.158   1.338
52777W        W18257  22.598   9.761   1.835
52778W        W18258  19.702  31.134  14.790
52779W        W18259  17.303  44.460   4.116
52780W        W18260  22.170   6.801  14.412
52781W        W18261  41.488  29.140  11.887
52782W        W18262  20.690  10.283  14.474
52783W        W18263  32.898  30.088  14.322
52784W        W18264   6.741  14.154   0.826
52785W        W18265  19.095  37.367  13.358
52786W        W18266  16.714  32.062   0.952
52787W        W18267  43.965  30.561  12.988
52788W        W18268   8.894  33.093  11.456
52789W        W18269  42.782   4.720   2.236
52790W        W18270   9.683  20.573  11.110
52791W        W18271   1.410   0.298  12.081
52792W        W18272  44.311   3.769   4.198
52793W        W18273  13.734  39.971  14.919
52794W        W18274   6.680  35.935  11.556
52795W        W18275  34.406  39.822  11.438
52796W        W18276  32.971  27.005   2.317
52797W        W18277  33.519  43.802  10.020
52798W        W18278  40.053  31.613   1.407
52799W        W18279   7.893  23.582  14.342
52800W        W18280  36.455  15.209   3.809
52801W        W18281   4.335  26.201   0.408
52802W        W18282  11.744  32.972  11.437
52803W        W18283  13.801  20.633   1.266
52804W        W18284  28.137  28.996  13.524
52805W        W18285   4.918  43.992  12.482
52806W        W18286   4.802  21.748  10.506
52807W        W18287   2.805  39.372   3.802
52808W        W18288  36.869  16.639   1.919
52809W        W18289  43.790  29.573  11.890
52810W        W18290  38.392  38.854  11.889
52811W        W18291   2.949  26.164   4.229
52812W        W18292   2.812  40.331   0.312
52813W        W18293  18.730  33.489   2.382
52814W        W18294   4.868  33.949   1.926
52815W        W18295  25.580   0.483   4.739
52816W        W18296  28.030  38.354  14.313
52817W        W18297  40.867  27.459  12.056
52818W        W18298  10.258  41.416  11.567
52819W        W18299  17.759   6.316  14.897
52820W        W18300  33.558  19.094  12.404
52821W        W18301  35.903  30.564   4.629
52822W        W18302  32.500  38.450   3.835
52823W        W18303  19.674   1.469   4.770
52824W        W18304  37.565  25.109  13.842
52825W        W18305  23.233  42.310   2.328
52826W        W18306   5.719  39.893   0.934
52827W        W18307  35.603  11.350  11.531
52828W        W18308   8.284  26.165   4.678
52829W        W18309  31.412  31.012  12.058
52830W        W18310   9.201  32.504  11.576
52831W        W18311  30.968  16.785   0.269
52832W        W18312   4.807   1.459   2.407
52833W        W18313  33.015   3.949  10.984
52834W        W18314  44.814  35.377   4.192
52835W        W18315   0.405  38.440   0.960
52836W        W18316  21.123  21.550   4.725
52837W        W18317  24.177  11.369  14.400
52838W        W18318  23.696  38.895  14.420
52839W        W18319   2.409  37.949  11.531
52840W        W18320   1.467  37.991  11.036
52841W        W18321  38.550  23.150  13.320
52842W        W18322  28.617  26.511  10.131
52843W        W18323  31.431  44.497   1.349
52844W        W18324  40.404  10.278   0.296
52845W        W18325   1.241   4.329  14.845
52846W        W18326  12.843  17.682  14.838
52847W        W18327  33.973  25.702  14.859
52848W        W18328  43.976  22.703   4.329
52849W        W18329  36.974  15.805  14.989
52850W        W18330  18.240  12.251   3.694
52851W        W18331  34.087  17.564  14.827
52852W        W18332   0.263  28.087   4.285
52853W        W18333   2.376   1.888   3.217
52854W        W18334  41.841  29.098   1.354
52855W        W18335   8.792  42.493   4.615
52856W        W18336   7.396  32.480   4.671
52857W        W18337   3.718  31.417   2.223
52858W        W18338  10.874  18.177   0.846
52859W        W18339  33.899  31.134   1.836
52860W        W18340  34.525   2.259  13.891
52861W        W18341  24.006   7.893  11.502
52862W        W18342  21.589  17.190   3.268
52863W        W18343  33.473   1.306  10.500
52864W        W18344  10.781   3.225   4.751
52865W        W18345  29.620  22.095   1.847
52866W        W18346  43.834  18.791  11.522
52867W        W18347  11.137  27.996   0.861
52868W        W18348   4.708  25.203  10.013
52869W        W18349   3.742  11.825   4.733
52870W        W18350  33.918  36.451  11.120
52871W        W18351  43.018  18.068   3.201
52872W        W18352  39.507  21.203  14.799
52873W        W18353  32.932  41.394  11.920
52874W        W18354  26.642   7.668   2.745
52875W        W18355  28.029   1.932  12.032
52876W        W18356  26.550  33.443   3.792
52877W        W18357   8.366  13.250   3.674
52878W        W18358   3.248   3.394  10.106
52879W        W18359  40.015  11.711   3.319
52880W        W18360  11.720  39.870  14.859
52881W        W18361   1.305  20.746   2.379
52882W        W18362  41.797  14.253  13.505
52883W        W18363   2.763   0.890   4.704
52884W        W18364   8.171   2.914  13.345
52885W        W18365  18.222  22.187   1.764
52886W        W18366  41.861   1.767   1.236
52887W        W18367   3.215  18.210  12.485
52888W        W18368  36.996  36.361  12.051
52889W        W18369  26.538  23.199   1.397
52890W        W18370  36.877  10.697  11.446
52891W        W18371  43.336  41.897  14.029
52892W        W18372  24.685  13.724   1.280
52893W        W18373  32.935  39.415   2.340
52894W        W18374  18.761  41.520  14.490
52895W        W18375  13.629  44.407   3.794
52896W        W18376  27.463   4.904   2.326
52897W        W18377  15.596  43.511   1.231
52898W        W18378   3.816  12.319  13.445
52899W        W18379  43.997   1.443  13.893
52900W        W18380  35.906  16.597  10.941
52901W        W18381  25.527  30.029  10.994
52902W        W18382  28.435  15.811   4.325
52903W        W18383  24.670  43.309   0.907
52904W        W18384  44.378  24.590   1.906
52905W        W18385   4.432  18.123  10.967
52906W        W18386  35.403   1.431   0.830
52907W        W18387  30.078  12.677  12.011
52908W        W18388  24.569  20.094  11.462
52909W        W18389  10.683   9.806   1.250
52910W        W18390   3.271  12.201  13.948
52911W        W18391  34.918  19.194  10.580
52912W        W18392  24.057  21.694   2.703
52913W        W18393  39.560  38.512   4.609
52914W        W18394   7.701  41.913  13.872
52915W        W18395   6.190  26.609   9.971
52916W        W18396  25.518  25.052  10.152
52917W        W18397   8.754  30.466  12.905
52918W        W18398  32.448  21.070  14.814
52919W        W18399  33.923   5.336   3.804
52920W        W18400  13.715  36.453  12.471
52921W        W18401   0.808  20.084  12.018
52922W        W18402  12.814  21.600  14.923
52923W        W18403  21.706  27.073   1.788
52924W        W18404   5.243  37.472   5.280
52925W        W18405   4.769  20.106  12.478
52926W        W18406  37.847  37.422   3.301
52927W        W18407  26.097  11.292  13.446
52928W        W18408  31.065  17.217   1.734
52929W        W18409  40.995  17.615  10.154
52930W        W18410  35.525   4.297   0.957
52931W        W18411  35.928  11.763   4.805
52932W        W18412  35.603  42.962   0.729
52933W        W18413   3.398  23.648  14.922
52934W        W18414  30.147  24.507   0.791
52935W        W18415  29.471  18.155  10.061
52936W        W18416  44.304  13.742   2.732
52937W        W18417  43.904  15.133   1.742
52938W        W18418   2.739  29.057   2.705
52939W        W18419  41.029  22.115  12.898
52940W        W18420  34.379  26.173   1.907
52941W        W18421  35.529  22.632  12.424
52942W        W18422  40.036   0.846  14.816
52943W        W18423  23.118  15.289  12.898
52944W        W18424  30.975  10.694   0.325
52945W        W18425   3.872  13.669   4.350
52946W        W18426   5.815  40.377   4.297
52947W        W18427  10.171  22.646   3.187
52948W        W18428  24.650  24.007   3.771
52949W        W18429  13.143   1.430   0.952
52950W        W18430  10.806  31.122  14.412
52951W        W18431  41.790  25.533  12.384
52952W        W18432   9.165   1.931  12.913
52953W        W18433  16.707  28.081  12.370
52954W        W18434   6.911   4.386  14.363
52955W        W18435   7.255  15.204   4.127
52956W        W18436  37.433  44.326   3.663
52957W        W18437  40.370  27.554  13.326
52958W        W18438   6.211  33.618   4.279
52959W        W18439  26.496  28.612  13.443
52960W        W18440  24.137  28.083  14.334
52961W        W18441   6.255  12.723   3.195
52962W        W18442   5.734  11.174   2.361
52963W        W18443   1.280   1.899  14.507
52964W        W18444   5.337  36.067   4.160
52965W        W18445  11.823  35.862   3.656
52966W        W18446  22.671  31.097   2.375
52967W        W18447  22.128  18.658  14.415
52968W        W18448  21.196  13.688  13.019
52969W        W18449  15.746  26.125  12.994
52970W        W18450  26.151  35.055  12.911
52971W        W18451   6.328   0.895   2.291
52972W        W18452  15.603  11.709   3.773
52973W        W18453  15.668   4.851   3.319
52974W        W18454   0.426  17.684   2.825
52975W        W18455  18.605  41.373   5.298
52976W        W18456  27.587  22.119   1.923
52977W        W18457  18.096   7.204   2.831
52978W        W18458  28.974   7.794  13.853
52979W        W18459  15.216   0.965   2.402
52980W        W18460  42.510  30.916   4.834
52981W        W18461  40.396  24.514  14.966
52982W        W18462  25.562  33.400  13.019
52983W        W18463  16.682  24.642  13.411
52984W        W18464   3.378  12.653  11.079
52985W        W18465  23.058  33.067   4.795
52986W        W18466  43.495  44.967  13.939
52987W        W18467   4.719  42.913   4.598
52988W        W18468  43.021  33.989   3.214
52989W        W18469   9.720  36.913   4.131
52990W        W18470  38.419  25.972  11.513
52991W        W18471  41.934  35.926  11.547
52992W        W18472  43.785  42.426  12.554
52993W        W18473  43.822   8.659   4.662
52994W        W18474   4.448  39.875   1.801
52995W        W18475  28.621   6.350   0.833
52996W        W18476  32.511  22.645   2.347
52997W        W18477  22.136  35.864   1.387
52998W        W18478  20.124  13.268   1.773
52999W        W18479   7.727  16.235   2.716
53000W        W18480  25.109  34.055   1.259
53001W        W18481   9.803  12.759  11.097
53002W        W18482  42.783   4.727  13.956
53003W        W18483  36.386  38.465  12.896
53004W        W18484  43.944   9.337   4.193
53005W        W18485  30.154   8.847   4.142
53006W        W18486   3.447  37.524  13.397
53007W        W18487  13.292  34.999  11.939
53008W        W18488  11.806  44.977   3.642
53009W        W18489   2.456  42.816   3.253
53010W        W18490  27.098  33.434  14.812
53011W        W18491   1.465  21.750   4.753
53012W        W18492  28.062  35.093  12.377
53013W        W18493  25.040   3.947   2.797
53014W        W18494  14.616  42.900  11.912
53015W        W18495  35.105  39.938  12.466
53016W        W18496  33.431  40.405  12.471
53017W        W18497  43.374  31.095  10.564
53018W        W18498   6.290  27.141  13.031
53019W        W18499  38.355   8.871  13.878
53020W        W18500  44.824  24.633  12.939
53021W        W18501   7.329  16.657  12.852
53022W        W18502  12.832   7.703  10.432
53023W        W18503  13.214   3.406   3.187
53024W        W18504  43.306   1.429   1.360
53025W        W18505   0.959  14.140   4.138
53026W        W18506  25.682  39.993  12.948
53027W        W18507   4.806  25.117  13.334
53028W        W18508  21.708  15.261  12.995
53029W        W18509  18.712   5.244   0.888
53030W        W18510  39.498  33.469   2.835
53031W        W18511  17.801  36.957   2.228
53032W        W18512  14.138  21.639  10.501
53033W        W18513  41.478  30.443   0.910
53034W        W18514  22.139  36.350  14.905
53035W        W18515   0.935   8.698   4.795
53036W        W18516  25.110  33.401  11.477
53037W        W18517  10.338  13.325  13.417
53038W        W18518   1.416  41.322  14.775
53039W        W18519   2.742  24.032  14.969
53040W        W18520  16.715  12.700   2.879
53041W        W18521  21.573  32.131  12.549
53042W        W18522  27.454  20.593   3.690
53043W        W18523   2.897  21.117   4.755
53044W        W18524  39.371  42.823   0.766
53045W        W18525  29.520  33.998   0.796
53046W        W18526  10.318   4.359   0.415
53047W        W18527   1.354  16.703  14.017
53048W        W18528  21.518  23.692  12.369
53049W        W18529  33.129  32.913  11.936
53050W        W18530   1.951   2.787   0.323
53051W        W18531   8.750  32.050  14.977
53052W        W18532  43.934  30.603   1.356
53053W        W18533  26.544  17.176  13.966
53054W        W18534  25.114  36.506  11.123
53055W        W18535  16.607  28.484  11.920
53056W        W18536  19.765  20.723  13.985
53057W        W18537  18.249  37.027  13.975
53058W        W18538  40.304   9.673  13.435
53059W        W18539  20.259  22.076   0.364
53060W        W18540   2.292  36.905  13.930
53061W        W18541  22.617  32.923   3.762
53062W        W18542  21.522  25.178   3.689
53063W        W18543  43.331  34.562  14.930
53064W        W18544  12.126   0.439   3.783
53065W        W18545  30.104  28.143   2.691
53066W        W18546  17.801  23.574  11.397
53067W        W18547   4.725  37.004  11.528
53068W        W18548  14.281  10.267  14.816
53069W        W18549  38.376  29.934   4.340
53070W        W18550  34.971  38.038   4.338
53071W        W18551  20.657  30.630  12.964
53072W        W18552  28.545  22.529   4.599
53073W        W18553  23.083  23.106  14.438
53074W        W18554  20.157  14.791  14.032
53075W        W18555  13.769   6.306  12.577
53076W        W18556  40.451  39.975  11.601
53077W        W18557   9.267  12.838  10.458
53078W        W18558  33.110  18.754  12.008
53079W        W18559  31.486  28.661  11.404
53080W        W18560  33.394   6.744   3.225
53081W        W18561  11.326   3.262   0.784
53082W        W18562  32.447   5.248  13.981
53083W        W18563  40.031  37.476  10.629
53084W        W18564  26.667  41.486  12.533
53085W        W18565   8.697  39.381  13.888
53086W        W18566  16.570  33.088   4.650
53087W        W18567  11.322  17.575   4.289
53088W        W18568  16.087  26.632   3.661
53089W        W18569  15.217  17.705   3.150
53090W        W18570  37.931  18.674  12.343
53091W        W18571   9.246  24.117   0.468
53092W        W18572  24.151  14.322  12.420
53093W        W18573  38.908  27.122  14.974
53094W        W18574  11.813  12.704   3.794
53095W        W18575  33.457  43.852   4.335
53096W        W18576  18.781  32.134   3.862
53097W        W18577  18.629  38.492  12.529
53098W        W18578  44.936  35.502  12.853
53099W        W18579  28.955  12.685  14.024
53100W        W18580  15.170  12.293  12.012
53101W        W18581  12.661  25.097   3.637
53102W        W18582  34.017  17.708   0.478
53103W        W18583  36.415  33.015   1.445
53104W        W18584  37.848  38.073   1.393
53105W        W18585  14.256  38.987   4.236
53106W        W18586  11.697  26.971  13.511
53107W        W18587   3.932  24.032   3.807
53108W        W18588  11.307  31.515   2.796
53109W        W18589  18.288  32.948   3.217
53110W        W18590  27.130  11.809  13.425
53111W        W18591  26.701  31.428  11.917
53112W        W18592   1.736  14.201   3.348
53113W        W18593  34.887  36.541   3.211
53114W        W18594  29.022  36.858  13.409
53115W        W18595   2.365   3.859   4.751
53116W        W18596  40.885  33.894   4.203
53117W        W18597  40.977   8.319  11.489
53118W        W18598  34.470  27.152  13.506
53119W        W18599  43.834  33.080   2.699
53120W        W18600  21.664   0.357   1.928
53121W        W18601  15.606  44.813  11.053
53122W        W18602   0.906   2.389  10.429
53123W        W18603  40.882  20.710   5.233
53124W        W18604  28.982  42.982  11.585
53125W        W18605  35.098  38.010   2.364
53126W        W18606   5.762  34.066   1.380
53127W        W18607  40.869  19.059  14.294
53128W        W18608   4.855  31.119  13.530
53129W        W18609  33.958  42.483  10.486
53130W        W18610  25.469  43.896  13.500
53131W        W18611  16.661  11.835  13.428
53132W        W18612  17.801  19.204   3.159
53133W        W18613  29.426   7.749   0.333
53134W        W18614   5.213   7.397   1.846
53135W        W18615  22.999  35.486   1.291
53136W        W18616  42.351  14.694   4.119
53137W        W18617  39.822   0.325   2.332
53138W        W18618  24.226   9.700  13.478
53139W        W18619   1.408   0.799   2.405
53140W        W18620  15.137   6.750   3.273
53141W        W18621  25.125  24.559  12.963
53142W        W18622  27.951  29.117   4.269
53143W        W18623  41.469  33.899   4.766
53144W        W18624  42.844  38.446   0.445
53145W        W18625  42.466  23.049   0.748
53146W        W18626  18.591  35.078  12.505
53147W        W18627  34.445  33.000   4.266
53148W        W18628  13.749  29.085   4.323
53149W        W18629  18.198  40.424  11.013
53150W        W18630  40.502  37.533  12.453
53151W        W18631  17.217  17.220  10.518
53152W        W18632   5.291  18.779   1.774
53153W        W18633  40.519  15.155   1.904
53154W        W18634  29.150  30.626  14.963
53155W        W18635  30.435   0.877   4.806
53156W        W18636  11.849  39.487  14.437
53157W        W18637  11.726   2.441  13.032
53158W        W18638  44.961   9.223  14.312
53159W        W18639  39.400  32.555   1.912
53160W        W18640  10.149  13.240  14.350
53161W        W18641  32.103  16.180   4.757
53162W        W18642  44.766  10.709   0.394
53163W        W18643  39.511  41.431   2.194
53164W        W18644   7.222  29.164   0.772
53165W        W18645  30.426  21.221  11.598
53166W        W18646   2.420  10.249  11.375
53167W        W18647  13.306  30.989  11.101
53168W        W18648  34.917   5.283  12.037
53169W        W18649  37.453   9.296  12.518
53170W        W18650  30.458  14.205  14.490
53171W        W18651   7.797  14.308  11.421
53172W        W18652  40.950  41.532   2.382
53173W        W18653  33.486  13.181   2.397
53174W        W18654  40.443   2.963  13.795
53175W        W18655  18.238  20.762  13.414
53176W        W18656   9.677  32.947   1.376
53177W        W18657  39.849  40.444  13.931
53178W        W18658  38.030  39.474  12.066
53179W        W18659   0.323  25.155   5.082
53180W        W18660  44.806   0.358  13.456
53181W        W18661  44.913   8.182   1.381
53182W        W18662  18.067  10.850  11.892
53183W        W18663  43.389   1.432   4.248
53184W        W18664  30.504  34.598  13.903
53185W        W18665  19.745   6.908   3.248
53186W        W18666  36.844  14.190   0.729
53187W        W18667   9.297  11.723  11.097
53188W        W18668  10.739  13.263  12.448
53189W        W18669  35.974   4.370   2.874
53190W        W18670  41.337  23.120  12.006
53191W        W18671  34.382   2.269   0.307
53192W        W18672   4.925  19.694   1.281
53193W        W18673   0.941  16.143   4.748
53194W        W18674  44.830   6.912  14.916
53195W        W18675   7.668  14.699   1.396
53196W        W18676   1.967  26.014   0.769
53197W        W18677  28.008  15.224  12.364
53198W        W18678  14.128  34.018   3.838
53199W        W18679  20.754   1.448   1.360
53200W        W18680  17.571  17.163   0.294
53201W        W18681  36.517   8.784  11.885
53202W        W18682  28.659  28.120  14.456
53203W        W18683  12.740  31.005  11.541
53204W        W18684  29.951  14.812   2.284
53205W        W18685   6.906  13.252   1.273
53206W        W18686  23.007   6.318  13.379
53207W        W18687  21.232  27.540  10.069
53208W        W18688  17.170  25.640   5.783
53209W        W18689   4.348  39.437  13.973
53210W        W18690  10.313  29.562  10.566
53211W        W18691  28.646  14.099   0.870
53212W        W18692  17.584  20.624   1.807
53213W        W18693  40.394  11.709   5.252
53214W        W18694   9.332  37.480   0.258
53215W        W18695  37.080  35.071  12.050
53216W        W18696  28.024  35.092  12.086
53217W        W18697  14.107  25.086  12.885
53218W        W18698   6.908  31.009   0.873
53219W        W18699  19.138  41.819   2.388
53220W        W18700  42.289  14.592   2.880
53221W        W18701  41.531   9.656   4.239
53222W        W18702  40.912  21.560  11.897
53223W        W18703  31.106   4.751   4.794
53224W        W18704  27.521  40.360   2.188
53225W        W18705  13.769  33.467   0.878
53226W        W18706  20.030  27.540  14.346
53227W        W18707  22.083   7.866  10.137
53228W        W18708   5.808  34.473  11.988
53229W        W18709   3.371  28.484   0.915
53230W        W18710   4.319  35.421   3.660
53231W        W18711  16.300   4.352  12.491
53232W        W18712  32.511  26.011  11.018
53233W        W18713  42.303  38.366   2.242
53234W        W18714  37.879  33.113  14.990
53235W        W18715  14.832  41.833   3.344
53236W        W18716  12.167  13.196  12.942
53237W        W18717  17.094   6.764   0.915
53238W        W18718  35.890  12.173   2.257
53239W        W18719  22.083  37.967   2.741
53240W        W18720  14.614  36.039   3.728
53241W        W18721   2.795  37.481  13.891
53242W        W18722  15.657  15.247   5.702
53243W        W18723  19.207  37.929  14.921
53244W        W18724  22.741  41.412  14.467
53245W        W18725  19.161  27.170  12.893
53246W        W18726   6.239  41.347  11.423
53247W        W18727   8.337   4.941  10.609
53248W        W18728  37.555  17.609   2.877
53249W        W18729  34.456  26.657  13.064
53250W        W18730  34.487   1.323  14.401
53251W        W18731  20.119   6.844   4.599
53252W        W18732  22.703  27.127   3.657
53253W        W18733  32.586  12.830   1.783
53254W        W18734  12.711   0.988  11.941
53255W        W18735  28.598  39.343  11.989
53256W        W18736   8.173   6.923  13.391
53257W        W18737  28.479  15.246   3.213
53258W        W18738  29.590   3.406  14.988
53259W        W18739  30.582  25.100  13.039
53260W        W18740   0.419  38.973  10.927
53261W        W18741  13.271  25.984  11.128
53262W        W18742  40.494   0.979   0.439
53263W        W18743  40.405  14.654  10.592
53264W        W18744  43.272  24.223   2.812
53265W        W18745  13.126  22.061  11.026
53266W        W18746  32.601  38.957   3.774
53267W        W18747  15.166  10.806  11.061
53268W        W18748  30.545  42.340  14.824
53269W        W18749  28.043  44.925  11.929
53270W        W18750  35.526  43.478  14.381
53271W        W18751   1.926  36.374   0.453
53272W        W18752  12.134  37.918   1.312
53273W        W18753  40.831  18.783   1.775
53274W        W18754  39.537  11.757   4.270
53275W        W18755  21.566  20.616   2.778
53276W        W18756   0.354  19.197  10.508
53277W        W18757   0.808  41.361  10.540
53278W        W18758  24.152  20.116   4.659
53279W        W18759  10.351  28.939   1.298
53280W        W18760   7.796   4.426  11.503
53281W        W18761  23.207  15.266   2.273
53282W        W18762  16.101  41.513   2.281
53283W        W18763  15.165  26.650   2.370
53284W        W18764   9.394  29.094   1.870
53285W        W18765  42.901  17.180   3.316
53286W        W18766   6.794  38.065  10.426
53287W        W18767  29.433  10.304  13.799
53288W        W18768  35.541  26.077   0.796
53289W        W18769  41.432  31.142  12.969
53290W        W18770   7.257   8.320  10.579
53291W        W18771  24.114  11.348   0.392
53292W        W18772  25.077  23.989   1.230
53293W        W18773   2.722  36.469  14.379
53294W        W18774  15.591  24.111   2.357
53295W        W18775  30.916  31.464  13.956
53296W        W18776  33.045  26.459  13.447
53297W        W18777  41.889   3.718  11.396
53298W        W18778  39.385   7.350  12.455
53299W        W18779   9.873  34.463   1.318
53300W        W18780  21.698  15.127  14.769
53301W        W18781  31.997   2.845  13.914
53302W        W18782  42.483  30.965   2.310
53303W        W18783  11.853  33.988  10.552
53304W        W18784  11.265  42.896   4.781
53305W        W18785  20.638  19.245  14.386
53306W        W18786  33.967  33.932  14.029
53307W        W18787  25.122  30.127   3.210
53308W        W18788  35.020   6.406   4.746
53309W        W18789  31.122  26.096   0.409
53310W        W18790  24.033  26.038   4.160
53311W        W18791  35.093  25.644   0.751
53312W        W18792   1.952  32.010  13.511
53313W        W18793  23.618  32.611  13.044
53314W        W18794  21.261   9.880  11.557
53315W        W18795   8.826  17.131  14.446
53316W        W18796  27.456  38.418   2.693
53317W        W18797  14.675  24.573  11.439
53318W        W18798  15.100   7.217   0.449
53319W        W18799  38.436  16.099  13.852
53320W        W18800  43.993  26.651   4.149
53321W        W18801  11.207   0.409  12.425
53322W        W18802  10.862  37.398   3.213
53323W        W18803  21.731  17.755  14.988
53324W        W18804  37.337   7.398  14.297
53325W        W18805  11.702  30.482  13.546
53326W        W18806  34.999  15.115  11.609
53327W        W18807   7.820  10.258  11.025
53328W        W18808  43.843  27.483  10.573
53329W        W18809  16.187  20.123   0.939
53330W        W18810  29.637  35.967  10.533
53331W        W18811  37.370  18.580  13.878
53332W        W18812  33.395  10.279   4.245
53333W        W18813  15.590  16.605  13.416
53334W        W18814  18.280  42.032  11.375
53335W        W18815  14.623   7.763  10.974
53336W        W18816  10.852  33.011   2.332
53337W        W18817   1.319   1.410   0.347
53338W        W18818  18.586  12.805   1.278
53339W        W18819   4.229  20.608  12.980
53340W        W18820  14.287  44.374   3.196
53341W        W18821  22.633  31.559  13.869
53342W        W18822  12.629  36.451   2.252
53343W        W18823  40.917  32.634  12.004
53344W        W18824   0.278  39.982  13.495
53345W        W18825  26.502  39.942   4.606
53346W        W18826   0.326  32.509  13.431
53347W        W18827  19.187  24.018  12.506
53348W        W18828   8.750  22.213  11.609
53349W        W18829  28.947   1.346  13.882
53350W        W18830  23.080  40.844  14.864
53351W        W18831  19.240  28.027   1.860
53352W        W18832  35.440  28.665   1.887
53353W        W18833  44.382  25.533  12.472
53354W        W18834   4.733  41.431   4.793
53355W        W18835  40.011  16.642  14.918
53356W        W18836   8.279  42.906  14.510
53357W        W18837  18.180  24.127   0.848
53358W        W18838  11.741  22.713   2.809
53359W        W18839  20.270  44.501  10.127
53360W        W18840  43.448  23.690  10.641
53361W        W18841  42.461  41.512   4.635
53362W        W18842   1.323  30.619  14.373
53363W        W18843  26.488  28.004  13.018
53364W        W18844  36.086   8.716  14.511
53365W        W18845  39.418  37.371  10.494
53366W        W18846   2.912  41.938   1.864
53367W        W18847  33.453  39.825   0.395
53368W        W18848  11.739   0.771  14.496
53369W        W18849  41.024  34.371   1.867
53370W        W18850  29.510   8.319  11.019
53371W        W18851  31.976  14.102   1.827
53372W        W18852  28.942  17.580  11.920
53373W        W18853  41.468  33.435  10.621
53374W        W18854  16.625   2.396  11.379
53375W        W18855  30.081  29.635   4.757
53376W        W18856   3.252  41.788  12.422
53377W        W18857  44.806  43.450   0.331
53378W        W18858  37.018  21.720  11.919
53379W        W18859  14.301   2.807  10.887
53380W        W18860  21.705  35.971  13.019
53381W        W18861  33.931  30.119   4.709
53382W        W18862  42.474   8.680  13.441
53383W        W18863  43.011   3.947   2.369
53384W        W18864   7.275  21.030  10.557
53385W        W18865   9.877  35.420   0.270
53386W        W18866  20.664   9.773   3.700
53387W        W18867  21.606  32.930  11.393
53388W        W18868  27.526  32.631   2.862
53389W        W18869  37.960  14.645  12.065
53390W        W18870  36.935   7.174  13.861
53391W        W18871  18.691   6.413  13.406
53392W        W18872  42.912  43.424   1.438
53393W        W18873  44.290   6.691   0.398
53394W        W18874  13.311  14.826  13.453
53395W        W18875  14.101  34.875   4.293
53396W        W18876   7.262   4.411  14.480
53397W        W18877  21.729   6.201  11.933
53398W        W18878  28.034  17.755  10.889
53399W        W18879   2.396  17.126   3.308
53400W        W18880   7.818  39.028   1.861
53401W        W18881   1.842  10.224  12.499
53402W        W18882  27.629  18.591   2.759
53403W        W18883  24.221  39.534   0.962
53404W        W18884  43.977  20.254   5.257
53405W        W18885  39.452  31.406   2.734
53406W        W18886  18.196   9.149   1.426
53407W        W18887   5.343   5.869   1.410
53408W        W18888  24.548  27.136  10.465
53409W        W18889   4.446  20.620   0.739
53410W        W18890  26.114  44.305   3.281
53411W        W18891  35.459   9.728   4.152
53412W        W18892  20.194   9.664  11.422
53413W        W18893  16.696  23.595  13.356
53414W        W18894  40.474  17.595  11.063
53415W        W18895   1.974  12.225  10.898
53416W        W18896  17.600  14.191   0.781
53417W        W18897  26.482  44.873   2.204
53418W        W18898  24.712  21.152  11.586
53419W        W18899  20.140  20.709   0.436
53420W        W18900   7.201  39.510  13.319
53421W        W18901  31.639  33.914  11.923
53422W        W18902   3.896  16.775   2.319
53423W        W18903  18.601  36.530  10.917
53424W        W18904   0.446  19.573  12.511
53425W        W18905  10.760   6.762   1.345
53426W        W18906  10.325  24.195  14.429
53427W        W18907  11.142  29.524  14.821
53428W        W18908   6.356  42.798   4.216
53429W        W18909  39.846   6.375   2.209
53430W        W18910  12.337  25.682   3.678
53431W        W18911  28.961  42.948  14.320
53432W        W18912  35.492  21.704  10.489
53433W        W18913  16.631  12.244   0.857
53434W        W18914  24.091  33.609  11.986
53435W        W18915  39.408  13.143   4.693
53436W        W18916  23.085  24.185   4.238
53437W        W18917  27.522  12.264  14.986
53438W        W18918  30.614  24.992  10.577
53439W        W18919   4.266   6.326   4.200
53440W        W18920   6.847  25.009  14.398
53441W        W18921   5.847  26.664   2.814
53442W        W18922   8.253  28.009  10.922
53443W        W18923  42.805  12.348   0.801
53444W        W18924   8.302   3.786  13.343
53445W        W18925   1.952  32.392   3.718
53446W        W18926  25.084   9.243  11.444
53447W        W18927  42.909  23.086  11.606
53448W        W18928  40.007  30.001  14.338
53449W        W18929  39.878  30.154  12.880
53450W        W18930   6.344  37.006  12.496
53451W        W18931  31.141  43.272   4.617
53452W        W18932  26.154   2.348  14.322
53453W        W18933  24.528  38.354  11.040
53454W        W18934   6.759   2.254  10.952
53455W        W18935  32.510  10.875  11.118
53456W        W18936  41.450  30.079  14.310
53457W        W18937  27.616  34.064  14.494
53458W        W18938  34.509  31.589   2.682
53459W        W18939   9.869  15.646   0.257
53460W        W18940  27.447   5.903   0.933
53461W        W18941  16.182  25.043  13.406
53462W        W18942  17.750  38.365   1.427
53463W        W18943   0.892   0.416  14.029
53464W        W18944  10.294  44.767  12.832
53465W        W18945  21.758  43.464  11.863
53466W        W18946  40.883  16.588  13.429
53467W        W18947   7.686  42.921   1.898
53468W        W18948  21.163   0.292   3.207
53469W        W18949  40.024  10.238   4.653
53470W        W18950   6.903  28.529   0.909
53471W        W18951  18.655  33.557  14.911
53472W        W18952   3.376  10.702   2.785
53473W        W18953   0.308  41.344  11.967
53474W        W18954  23.137   3.861  13.337
53475W        W18955  14.277  31.986  10.469
53476W        W18956  44.482  24.515   3.815
53477W        W18957   4.236   5.243   1.373
53478W        W18958   4.732  20.270  11.011
53479W        W18959  16.313  33.009   3.851
53480W        W18960  35.104  11.191  10.614
53481W        W18961  15.679  41.844   1.928
53482W        W18962  25.217  26.558   2.329
53483W        W18963  33.519  15.663  11.499
53484W        W18964  11.181   5.245   2.779
53485W        W18965  34.582  21.516   4.127
53486W        W18966   8.853  20.272  10.471
53487W        W18967  29.069   2.814   1.256
53488W        W18968  10.649   4.279   0.408
53489W        W18969  27.091  20.716   0.909
53490W        W18970  16.666  28.668  11.447
53491W        W18971   5.776  41.462   3.164
53492W        W18972  12.700  27.043  10.592
53493W        W18973  33.611  38.933  14.376
53494W        W18974   6.341  27.109   1.403
53495W        W18975  15.327  24.695  13.032
53496W        W18976   3.237  22.107  11.870
53497W        W18977  34.564  28.110  13.793
53498W        W18978   8.302   3.405   3.792
53499W        W18979   3.238   1.916   0.376
53500W        W18980  25.063   5.845  12.932
53501W        W18981  37.488  18.180  13.844
53502W        W18982  38.923  36.945  13.962
53503W        W18983  27.609  34.463  10.901
53504W        W18984  31.112  26.143  12.461
53505W        W18985  16.711  29.465  13.063
53506W        W18986   4.427  28.621  11.476
53507W        W18987  12.118  30.527   4.770
53508W        W18988  42.443  20.642   3.185
53509W        W18989  28.541  38.868  12.040
53510W        W18990  24.155  33.393   3.721
53511W        W18991  18.105   6.698   2.699
53512W        W18992   5.215  15.757   9.977
53513W        W18993  23.602  26.099   4.213
53514W        W18994  38.445  44.845  12.509
53515W        W18995  18.080  39.377  12.870
53516W        W18996  29.095  28.610  12.887
53517W        W18997  10.174  41.451   2.898
53518W        W18998  28.574  24.712  11.598
53519W        W18999  33.440  44.947   0.362
53520W        W19000  16.729  25.172  11.963
53521W        W19001  25.667  27.601   1.827
53522W        W19002  42.499  10.871   3.689
53523W        W19003  29.123   6.204   0.476
53524W        W19004  40.464  28.482   1.765
53525W        W19005   8.790  28.527  14.802
53526W        W19006  40.944  41.501   3.179
53527W        W19007   9.821   5.818   4.684
53528W        W19008  44.465  44.950  10.453
53529W        W19009  30.554  12.701   2.755
53530W        W19010  34.924  36.056   3.808
53531W        W19011  36.458  30.918  14.843
53532W        W19012   7.392  42.999   1.788
53533W        W19013   1.872  23.560   3.694
53534W        W19014  16.585  38.359  12.490
53535W        W19015  11.763  26.482  10.475
53536W        W19016  38.912  28.562  12.032
53537W        W19017  21.644  11.315  11.517
53538W        W19018  40.410   4.820   0.284
53539W        W19019   9.191  10.633   3.362
53540W        W19020  11.857  41.004  10.634
53541W        W19021  27.122  10.689  14.883
53542W        W19022  38.346  20.719  14.334
53543W        W19023   8.784   2.929   3.285
53544W        W19024  33.981  44.472   3.307
53545W        W19025  29.661  23.210  11.532
53546W        W19026   7.276  24.192  12.868
53547W        W19027  34.611  42.369   2.382
53548W        W19028  31.608  19.631  14.850
53549W        W19029  44.775  27.501   2.820
53550W        W19030  24.185   9.721   4.704
53551W        W19031  22.152  25.687   1.241
53552W        W19032  31.556  24.078   4.248
53553W        W19033  16.097  14.198   0.788
53554W        W19034  22.182  35.032  13.978
53555W        W19035   0.827  34.893  13.806
53556W        W19036  11.126  36.545  12.897
53557W        W19037  39.995  32.513   2.369
53558W        W19038  36.494  20.147  11.384
53559W        W19039  43.323   7.813   4.113
53560W        W19040  42.876  17.656  11.459
53561W        W19041  42.025  41.940  14.950
53562W        W19042   1.362  16.161  14.320
53563W        W19043  19.551  41.504   3.378
53564W        W19044  31.625  20.754   0.900
53565W        W19045  21.163  21.115   4.171
53566W        W19046  12.175  31.633   0.481
53567W        W19047   9.701  27.068   2.692
53568W        W19048  18.772  28.626   1.798
53569W        W19049   9.180  31.967  11.392
53570W        W19050  43.794  44.804   0.827
53571W        W19051  32.469  40.014   1.924
53572W        W19052   3.427  42.360   0.803
53573W        W19053  40.470  40.023   3.298
53574W        W19054  15.148  22.084  13.400
53575W        W19055  19.648  18.095  10.423
53576W        W19056  13.265  20.091   0.318
53577W        W19057  15.152  31.006   2.896
53578W        W19058   5.266  11.315  13.396
53579W        W19059  16.650  39.980   2.865
53580W        W19060  43.404  38.501  13.042
53581W        W19061  28.489  11.350   1.841
53582W        W19062  35.515   9.328   1.726
53583W        W19063  26.019  40.875  13.314
53584W        W19064  30.993  30.620   1.445
53585W        W19065  31.978   7.784   0.900
53586W        W19066   0.270  34.507   2.298
53587W        W19067  30.416  26.673   0.412
53588W        W19068  10.238  27.508  10.922
53589W        W19069  12.685  13.644   5.182
53590W        W19070   4.430  31.572  14.318
53591W        W19071   3.915   3.339  10.895
53592W        W19072  25.972  33.077  11.110
53593W        W19073  32.617  33.009   2.338
53594W        W19074   1.768   9.264  11.966
53595W        W19075  22.732  41.870   4.197
53596W        W19076   9.836  13.709  10.534
53597W        W19077  26.611  25.603   4.351
53598W        W19078   5.318  12.837  10.551
53599W        W19079  28.640  13.755   4.333
53600W        W19080   4.443  32.110   0.889
53601W        W19081  31.574  40.858  11.460
53602W        W19082  30.161  35.001  12.089
53603W        W19083  40.973   2.875  13.038
53604W        W19084  34.435  26.163   4.765
53605W        W19085  23.527  42.370   2.260
53606W        W19086  30.449   5.249   1.917
53607W        W19087  28.022  33.039   2.788
53608W        W19088  39.026   3.390   1.883
53609W        W19089  38.422   5.838  12.434
53610W        W19090  20.677  37.412   1.781
53611W        W19091   9.774  38.391   4.233
53612W        W19092   2.305   5.397  14.962
53613W        W19093   2.753  12.665   0.873
53614W        W19094  41.373  13.300  14.991
53615W        W19095  15.286  44.272   3.655
53616W        W19096   1.742  40.474  12.461
53617W        W19097  14.627  26.505  10.048
53618W        W19098   5.889   1.269  12.001
53619W        W19099  25.203  31.515   1.399
53620W        W19100  32.927  17.790   2.220
53621W        W19101  37.914  23.140   1.802
53622W        W19102   9.268  33.568  10.029
53623W        W19103  34.950  36.441   0.394
53624W        W19104  26.512  17.748  14.826
53625W        W19105  43.979  22.673  14.451
53626W        W19106  35.877  20.651  13.448
53627W        W19107  16.767  40.318   0.261
53628W        W19108  38.459  12.707  10.893
53629W        W19109  17.152  43.330  13.060
53630W        W19110  41.032   2.462  11.426
53631W        W19111   6.240  39.839  13.918
53632W        W19112  20.078  42.830  11.519
53633W        W19113  28.083  23.551   4.236
53634W        W19114  10.878  20.152   1.288
53635W        W19115   2.247  25.511   0.459
53636W        W19116  41.334   5.237   2.226
53637W        W19117  11.818  34.896   2.310
53638W        W19118   8.368  20.224   4.804
53639W        W19119   9.248   8.829  11.923
53640W        W19120   0.762  14.221   1.887
53641W        W19121   1.458  26.529   0.786
53642W        W19122  42.022   0.298  14.504
53643W        W19123  12.698  32.107  12.072
53644W        W19124  37.967  28.129   0.267
53645W        W19125  44.451  14.647  12.074
53646W        W19126  39.995   9.797   2.263
53647W        W19127  20.695  43.935   2.783
53648W        W19128  42.300   8.658  10.952
53649W        W19129   4.698   5.349  12.880
53650W        W19130  41.333  15.088  11.409
53651W        W19131  16.081  16.295  13.394
53652W        W19132   3.244  42.413   4.598
53653W        W19133  13.626  35.496  12.874
53654W        W19134  43.378   4.218   4.155
53655W        W19135   1.339  39.873   0.291
53656W        W19136  39.004  11.129  10.560
53657W        W19137  31.931   2.320   3.837
53658W        W19138  25.467  38.899   1.798
53659W        W19139  34.956  25.581   1.935
53660W        W19140  41.040   4.421  12.925
53661W        W19141  44.433  20.185  14.952
53662W        W19142  22.576   4.331   0.804
53663W        W19143  16.080  35.890   1.919
53664W        W19144  30.113   6.387   3.304
53665W        W19145  24.716  13.153   3.304
53666W        W19146  39.361  33.919   4.651
53667W        W19147  26.690  24.628   1.812
53668W        W19148  23.697  21.588   4.782
53669W        W19149   5.849   9.176  11.590
53670W        W19150  15.088  43.926  11.876
53671W        W19151  42.008  42.820  11.573
53672W        W19152  40.960  13.600   3.188
53673W        W19153   2.810  20.233   4.268
53674W        W19154  36.417  19.689   1.867
53675W        W19155  17.062   5.305   1.353
53676W        W19156  31.511  13.692  11.401
53677W        W19157  41.356  13.794  12.386
53678W        W19158  36.961  13.844   1.239
53679W        W19159   1.958  35.411   0.917
53680W        W19160   7.718  16.236   3.858
53681W        W19161  14.193  32.979   0.452
53682W        W19162   9.676   3.773  12.341
53683W        W19163  20.117  39.904  13.847
53684W        W19164   7.262  12.355   3.345
53685W        W19165  31.492  29.020  10.972
53686W        W19166  17.134  32.926  12.895
53687W        W19167  36.045  28.455  14.347
53688W        W19168  32.986  30.510  13.054
53689W        W19169  37.890  26.682   0.315
53690W        W19170  11.145  19.741  12.522
53691W        W19171   6.427   3.234   1.887
53692W        W19172  43.275  31.114   4.121
53693W        W19173   9.868  31.549   3.313
53694W        W19174  19.603   2.794  12.935
53695W        W19175  20.616  35.551  13.428
53696W        W19176  40.813  13.789  11.382
53697W        W19177  41.871  20.078  14.284
53698W        W19178  11.269  39.924   3.833
53699W        W19179  35.581  38.418  11.026
53700W        W19180  24.687   3.821  10.594
53701W        W19181  40.525   2.948  10.428
53702W        W19182   1.821   2.353  13.808
53703W        W19183  36.477  44.889   0.256
53704W        W19184  11.320  42.359  12.446
53705W        W19185  41.391  15.783  10.626
53706W        W19186  22.686  38.414  14.999
53707W        W19187  36.896  10.249  11.444
53708W        W19188   6.865  23.570  11.046
53709W        W19189  21.076  31.962  12.904
53710W        W19190  32.626  27.021   1.735
53711W        W19191  32.434  18.279  13.893
53712W        W19192  36.947  35.398   2.896
53713W        W19193  20.747  42.484  12.074
53714W        W19194  31.093  12.769   1.883
53715W        W19195   9.807  43.378  14.773
53716W        W19196  11.749   4.327  10.540
53717W        W19197  44.348  44.821  13.856
53718W        W19198   4.363  33.935  14.347
53719W        W19199   0.895   6.859   2.698
53720W        W19200   6.249  38.886   1.778
53721W        W19201  22.601  21.683   0.891
53722W        W19202  30.425  11.793   0.483
53723W        W19203  31.474  33.885  13.418
53724W        W19204  39.454  22.633   2.722
53725W        W19205  44.860   4.741   2.356
53726W        W19206  42.870   4.859  13.497
53727W        W19207   8.194  37.496   1.446
53728W        W19208  24.184  39.448   4.696
53729W        W19209  44.767  23.562   4.183
53730W        W19210   2.308  35.089  11.548
53731W        W19211  42.937  11.776  11.495
53732W        W19212   0.845   1.972   5.183
53733W        W19213  36.066  44.827   1.368
53734W        W19214  34.518   9.342  13.386
53735W        W19215  25.023   3.252  11.012
53736W        W19216  32.459   0.962   0.730
53737W        W19217  11.231   1.749   4.194
53738W        W19218  20.762  22.996   2.202
53739W        W19219  43.445  18.577  12.401
53740W        W19220   2.865  23.184   0.739
53741W        W19221  44.980  17.199   1.930
53742W        W19222  34.916  17.120  10.625
53743W        W19223  44.371  21.222   1.866
53744W        W19224  39.362  22.505   4.612
53745W        W19225  40.902  14.305  12.016
53746W        W19226   8.751   1.279   3.745
53747W        W19227  31.982  38.032  11.009
53748W        W19228  38.941  18.114  12.557
53749W        W19229   7.398  39.409   1.827
53750W        W19230  16.102  25.092   2.255
53751W        W19231  44.338  13.707   3.716
53752W        W19232   1.238  23.733   1.894
53753W        W19233  15.705  33.901  11.999
53754W        W19234  42.331  33.060   1.406
53755W        W19235  34.510  18.551  12.455
53756W        W19236  39.009  27.990   3.773
53757W        W19237   2.861  34.105   0.437
53758W        W19238  33.947  43.838   3.209
53759W        W19239  14.592   7.830   2.392
53760W        W19240  24.223  31.559  12.929
53761W        W19241   8.891  29.427  11.508
53762W        W19242  24.163  27.077   1.719
53763W        W19243   4.364  36.379   2.245
53764W        W19244  32.111  32.602   0.828
53765W        W19245  44.421  20.643   3.370
53766W        W19246  25.657  33.115  13.451
53767W        W19247  31.530   9.841   1.397
53768W        W19248   4.276  29.976   4.806
53769W        W19249   3.220  10.649   3.324
53770W        W19250  36.371   0.748  13.055
53771W        W19251  15.768   2.359  11.979
53772W        W19252  14.814  44.832   1.774
53773W        W19253  10.240  24.502   2.829
53774W        W19254  31.087   8.325   1.333
53775W        W19255  38.979  21.058   1.877
53776W        W19256   3.347  28.469   1.400
53777W        W19257  32.546  24.574  13.547
53778W        W19258  10.725  34.398  11.062
53779W        W19259  24.047  11.169  13.869
53780W        W19260  44.314  44.409  12.013
53781W        W19261   7.759  33.958   1.261
53782W        W19262  11.369  14.208  14.966
53783W        W19263   8.388  42.798   4.789
53784W        W19264  27.569  35.597   1.804
53785W        W19265  27.124  10.260   2.768
53786W        W19266  20.607  19.090   3.189
53787W        W19267  44.760   0.412   0.243
53788W        W19268   1.281   4.309  12.345
53789W        W19269  30.654  25.071   4.750
53790W        W19270  31.627  39.529  13.525
53791W        W19271   6.313  14.612   3.710
53792W        W19272  24.659  31.403   3.730
53793W        W19273  20.129  26.556  12.843
53794W        W19274  29.565  35.008   4.211
53795W        W19275  26.489  21.599   3.291
53796W        W19276  30.917  19.259   0.399
53797W        W19277  24.139  28.535   2.685
53798W        W19278   0.452   4.929   4.784
53799W        W19279  23.985  31.415  12.422
53800W        W19280  21.600   1.777   2.675
53801W        W19281  44.806   5.920   0.471
53802W        W19282  21.528  13.742  12.539
53803W        W19283   4.355  29.964  10.477
53804W        W19284  21.566  25.580   2.886
53805W        W19285  21.545  16.707   1.790
53806W        W19286  40.848   7.386  13.940
53807W        W19287  26.703  28.170   0.760
53808W        W19288  23.183   8.881  13.055
53809W        W19289  11.743  26.185  12.389
53810W        W19290  23.044  36.076   2.808
53811W        W19291  43.367  18.658  11.396
53812W        W19292  26.129  17.147  10.477
53813W        W19293  17.754  14.125  14.795
53814W        W19294   2.837  14.818  10.538
53815W        W19295  26.485  37.017  14.760
53816W        W19296  34.384  38.959   2.821
53817W        W19297  16.086  22.107   1.311
53818W        W19298  39.357  32.527   4.197
53819W        W19299  38.452   9.784  13.464
53820W        W19300  40.545  21.741   0.924
53821W        W19301  29.612   3.260   4.293
53822W        W19302  28.988  43.312  13.893
53823W        W19303  20.539  20.063  11.608
53824W        W19304  35.019  36.948  14.762
53825W        W19305  33.420  41.297  13.358
53826W        W19306  29.080  20.219  13.469
53827W        W19307   7.329  40.524  12.491
53828W        W19308   6.302  15.264  14.360
53829W        W19309  11.773  20.566  10.515
53830W        W19310  41.867   0.252  13.369
53831W        W19311  16.692  30.130   2.686
53832W        W19312  14.817  41.391  12.027
53833W        W19313  37.050   7.714   3.316
53834W        W19314  24.147  36.949   0.381
53835W        W19315  28.489  42.846   3.272
53836W        W19316  25.053  34.386   3.682
53837W        W19317  23.619  40.475  14.004
53838W        W19318   3.759  17.205  11.870
53839W        W19319  12.242  23.020   2.688
53840W        W19320   6.206   8.799   0.464
53841W        W19321  29.103  43.873  13.341
53842W        W19322  36.097   8.825  12.477
53843W        W19323  42.027  40.305   3.200
53844W        W19324   5.699  42.504  11.470
53845W        W19325   8.297  15.205   2.307
53846W        W19326  36.360  33.956  12.035
53847W        W19327  40.516   6.913   0.360
53848W        W19328  13.206  34.432  10.574
53849W        W19329  44.886   6.768  13.440
53850W        W19330  27.686  40.430   5.241
53851W        W19331  35.032  25.997   2.707
53852W        W19332  34.030  10.659  10.465
53853W        W19333  28.932  35.017   1.408
53854W        W19334  34.500  13.254  11.500
53855W        W19335  15.309  17.570   9.961
53856W        W19336   9.689  38.044   1.904
53857W        W19337  12.147  38.570  12.866
53858W        W19338  15.730  33.397   2.363
53859W        W19339  34.919  28.521  10.887
53860W        W19340   4.718  35.485  12.061
53861W        W19341  32.063  29.025  12.908
53862W        W19342  14.676   0.984   4.307
53863W        W19343  38.826   8.757  10.537
53864W        W19344  32.590  11.678   0.457
53865W        W19345  21.142  16.772  14.989
53866W        W19346   1.795  18.650  14.280
53867W        W19347  25.199   8.710   4.325
53868W        W19348  35.568  41.394  14.926
53869W        W19349  29.978  26.091   0.478
53870W        W19350   6.813  30.039  11.488
53871W        W19351  10.712  21.532  12.867
53872W        W19352  23.009  39.062  12.478
53873W        W19353  27.532  25.965  13.372
53874W        W19354  16.711  35.936  14.805
53875W        W19355  17.061   8.268   1.377
53876W        W19356  18.730   1.764  13.432
53877W        W19357  42.424  37.472  12.420
53878W        W19358  13.246  11.714   4.233
53879W        W19359   9.252  21.017   5.202
53880W        W19360  27.631  38.014   4.145
53881W        W19361   9.691  16.232   2.198
53882W        W19362   6.922  15.274   0.875
53883W        W19363  34.025  40.979  12.412
53884W        W19364  13.611   4.939   2.877
53885W        W19365  39.331  41.305   0.275
53886W        W19366   1.293  34.099   1.365
53887W        W19367   3.380   7.174  12.497
53888W        W19368  19.251   4.852  13.855
53889W        W19369  19.228  19.616  11.545
53890W        W19370   9.250   3.899   1.283
53891W        W19371  26.686  40.862   3.706
53892W        W19372  24.616  42.466  14.860
53893W        W19373  11.232  20.061   2.819
53894W        W19374  40.901   6.391   1.851
53895W        W19375  42.906  42.415  11.040
53896W        W19376  17.212   8.812   1.932
53897W        W19377  40.837   2.463  12.398
53898W        W19378  28.635  21.262   2.285
53899W        W19379  35.988  12.725  11.927
53900W        W19380  33.433  14.321   5.113
53901W        W19381  20.742   4.805   2.802
53902W        W19382  36.461  30.447   1.252
53903W        W19383  35.071  41.387  11.859
53904W        W19384  28.453  27.113  13.362
53905W        W19385  34.946  10.846   0.954
53906W        W19386   7.779  24.164  10.582
53907W        W19387  27.154  37.385  14.004
53908W        W19388  25.629   8.761   3.778
53909W        W19389   3.394  19.267  12.090
53910W        W19390  38.402  30.040  13.003
53911W        W19391  16.140   3.949   1.410
53912W        W19392   4.345  15.182  13.994
53913W        W19393  41.942   2.373  13.907
53914W        W19394  22.132  12.626  12.411
53915W        W19395  35.049  16.795   3.651
53916W        W19396   6.882  39.009  14.394
53917W        W19397   0.957  37.862   4.634
53918W        W19398   8.777  31.560   2.669
53919W        W19399  21.626   1.404   1.737
53920W        W19400  27.139   3.215  14.449
53921W        W19401  11.294   6.898   2.215
53922W        W19402  33.413  14.309  10.482
53923W        W19403   2.358  40.832  14.295
53924W        W19404  37.978  12.677   0.832
53925W        W19405  40.413  31.576  10.570
53926W        W19406  25.128  13.822  10.952
53927W        W19407  11.258   2.872   4.792
53928W        W19408  33.442   2.905  11.006
53929W        W19409  30.072  14.310   0.781
53930W        W19410  29.649  13.212  12.524
53931W        W19411  20.685   8.714   5.201
53932W        W19412   6.856   0.918  13.454
53933W        W19413   2.779  18.291  11.411
53934W        W19414  34.005  11.304  12.004
53935W        W19415  17.708  10.635  10.563
53936W        W19416  29.598  15.119   1.331
53937W        W19417  31.557  39.513  13.912
53938W        W19418   5.842  23.093   4.139
53939W        W19419   2.230   5.350  11.557
53940W        W19420  29.998  42.988   5.282
53941W        W19421  40.399   4.794   1.768
53942W        W19422  33.513  35.572   3.257
53943W        W19423  33.099  14.804   1.861
53944W        W19424  34.369  32.446  14.470
53945W        W19425  37.014  15.222   4.229
53946W        W19426  16.786  38.518  12.018
53947W        W19427  37.001   9.887   4.745
53948W        W19428  36.946  10.750   0.950
53949W        W19429  23.684   6.188   3.846
53950W        W19430  38.060  13.295  10.526
53951W        W19431  41.293  11.771  12.918
53952W        W19432  37.353  22.194  13.825
53953W        W19433  34.548  13.738  10.568
53954W        W19434   2.270  15.277  12.081
53955W        W19435  38.408  39.044  10.620
53956W        W19436  25.126  14.656   5.229
53957W        W19437  37.036  18.144  11.552
53958W        W19438  18.062  20.677  14.852
53959W        W19439  34.976  42.384   2.265
53960W        W19440  42.364  41.343   0.318
53961W        W19441   5.249   6.196  13.339
53962W        W19442  36.537  18.102   3.796
53963W        W19443  25.215  35.035  10.513
53964W        W19444   3.379  16.139   4.777
53965W        W19445  21.552  16.174   1.293
53966W        W19446  37.570  19.084  12.346
53967W        W19447  22.585  11.310  12.964
53968W        W19448  15.761  14.610  12.094
53969W        W19449   5.307  31.933  13.960
53970W        W19450  41.507   1.283  12.973
53971W        W19451  28.654   9.651   1.212
53972W        W19452  24.486  33.540   2.338
53973W        W19453  22.575  11.807  13.947
53974W        W19454  34.503  37.339  13.043
53975W        W19455   5.399  21.686  14.860
53976W        W19456  42.480  23.186  14.476
53977W        W19457  29.641  20.609   2.762
53978W        W19458  15.129  44.999  10.560
53979W        W19459   6.188   8.881   4.597
53980W        W19460  25.573   4.226   1.382
53981W        W19461  18.153  19.268  14.500
53982W        W19462  10.740  28.953  13.386
53983W        W19463  28.554  26.582  12.552
53984W        W19464   4.812   5.286   2.883
53985W        W19465  16.221  27.600  11.860
53986W        W19466   8.192  18.243   2.691
53987W        W19467  14.161  37.430   0.728
53988W        W19468  44.308   5.742  12.897
53989W        W19469  43.818  17.750   0.754
53990W        W19470  10.877  41.873  11.543
53991W        W19471  28.049   4.301  11.906
53992W        W19472  11.833  10.255   2.266
53993W        W19473  39.463  21.100  14.485
53994W        W19474  39.026   4.820  12.382
53995W        W19475   4.365  28.947   0.267
53996W        W19476   0.788  18.616  12.393
53997W        W19477   1.738   5.756  12.540
53998W        W19478  25.028  28.585   2.190
53999W        W19479  11.213   9.304   2.298
54000W        W19480  43.399  23.541  13.445
54001W        W19481  30.965  43.415  12.931
54002W        W19482  17.078  24.976   4.660
54003W        W19483   7.690  24.204  14.805
54004W        W19484  32.040  27.040  13.031
54005W        W19485   2.350  23.615   3.249
54006W        W19486  34.026   3.801  13.872
54007W        W19487  34.467  42.376  10.953
54008W        W19488  32.596  42.359  11.097
54009W        W19489  39.460  21.690   1.217
54010W        W19490  19.160   8.705   3.714
54011W        W19491  13.167  37.454  12.057
54012W        W19492  23.542  30.070   4.774
54013W        W19493  32.121  43.366   5.170
54014W        W19494   2.846  15.750   3.287
54015W        W19495   2.299  44.258  12.458
54016W        W19496  32.413  15.789  11.108
54017W        W19497  27.944  15.618  13.351
54018W        W19498  15.225  44.283   4.217
54019W        W19499   8.290   9.192   1.764
54020W        W19500  30.413  36.454  14.018
54021W        W19501  42.886  14.602  10.941
54022W        W19502  11.837  23.524  11.480
54023W        W19503  26.024  30.912   1.792
54024W        W19504  29.465  18.549   2.247
54025W        W19505  25.064   9.699   3.639
54026W        W19506   9.313  33.526  10.627
54027W        W19507  32.966   3.938   3.341
54028W        W19508  19.175  41.961  10.942
54029W        W19509   4.449  22.252   2.713
54030W        W19510  34.084  33.027   3.634
54031W        W19511  16.279  42.429   9.501
54032W        W19512  16.605  10.358  11.522
54033W        W19513  44.913  27.986   1.303
54034W        W19514  16.214  34.399  12.062
54035W        W19515  38.392   4.450   3.733
54036W        W19516  13.633  37.871   3.702
54037W        W19517  11.369  34.548   4.206
54038W        W19518   1.917  39.870  13.484
54039W        W19519  11.150   4.261   4.820
54040W        W19520   6.321  24.509  14.869
54041W        W19521  29.935  35.918   2.669
54042W        W19522  22.998  33.556   2.697
54043W        W19523  12.139  36.354   2.388
54044W        W19524  44.340  27.657  10.598
54045W        W19525   5.893  40.354  10.488
54046W        W19526  40.408  18.562  12.461
54047W        W19527  38.972   5.822   2.765
54048W        W19528  25.090  26.667   3.745
54049W        W19529   4.394  42.859  11.888
54050W        W19530  29.079   4.751   0.315
54051W        W19531  37.409   8.311  11.419
54052W        W19532  40.012  41.022   0.797
54053W        W19533  22.212   2.466  12.840
54054W        W19534  10.751  26.006   2.881
54055W        W19535  31.920   2.357   4.265
54056W        W19536  20.729  12.312   0.921
54057W        W19537  36.981  35.593  11.594
54058W        W19538  38.919  22.533   3.157
54059W        W19539  21.138  29.115  13.952
54060W        W19540  40.045  29.646   2.232
54061W        W19541  28.158   9.155  11.470
54062W        W19542  43.397  19.112   4.137
54063W        W19543  19.264  11.217   4.123
54064W        W19544  19.676   4.448   4.692
54065W        W19545  27.535  16.786   1.897
54066W        W19546  36.943   2.405  11.406
54067W        W19547  43.427  42.934  13.389
54068W        W19548  21.108  10.325   3.360
54069W        W19549  28.071   4.828  11.487
54070W        W19550   0.384  24.206   0.339
54071W        W19551  25.147  31.435   2.277
54072W        W19552  37.362   7.359   1.903
54073W        W19553  12.204  21.573   1.298
54074W        W19554  13.350   9.359   3.826
54075W        W19555   2.826  20.100   2.882
54076W        W19556  27.958  12.343   4.765
54077W        W19557  19.580  40.890  11.575
54078W        W19558  17.696  29.033  11.538
54079W        W19559  22.064   7.842  14.497
54080W        W19560  30.488  18.755  11.928
54081W        W19561  24.667  21.566   3.173
54082W        W19562  26.007  29.983  10.987
54083W        W19563  32.906  30.921  12.847
54084W        W19564  14.607   0.891   9.977
54085W        W19565  10.721  13.818   3.357
54086W        W19566  27.466  14.740   0.772
54087W        W19567  19.662  30.653  11.928
54088W        W19568  11.815  22.519   0.265
54089W        W19569  22.636   6.211  10.425
54090W        W19570  26.963  43.857  13.804
54091W        W19571  11.636  25.068   0.828
54092W        W19572  16.138  38.330   1.443
54093W        W19573  23.527  19.042  13.455
54094W        W19574  17.167  19.634   1.359
54095W        W19575   5.832  26.956   0.854
54096W        W19576  29.082  23.556  10.502
54097W        W19577  39.008  35.858   1.935
54098W        W19578  19.095  27.612  11.919
54099W        W19579  17.778  31.489   4.669
54100W        W19580  35.380  42.445  10.905
54101W        W19581  27.011   4.224  14.880
54102W        W19582  26.515  24.024   2.676
54103W        W19583  27.469   1.300  12.417
54104W        W19584  44.360  12.727  10.922
54105W        W19585  12.163   9.885   4.817
54106W        W19586  17.642   6.261   3.163
54107W        W19587  36.862  38.984   4.333
54108W        W19588  33.117  21.677  14.891
54109W        W19589  40.801  17.765  11.466
54110W        W19590  13.301  26.052  14.962
54111W        W19591  22.520  22.692  11.046
54112W        W19592   6.275   4.258   9.999
54113W        W19593   8.189  16.759  12.090
54114W        W19594  22.192  42.420  14.453
54115W        W19595  11.356  30.934  14.491
54116W        W19596  24.121  31.083  14.512
54117W        W19597   6.358  20.742  12.866
54118W        W19598  20.046  14.778  13.348
54119W        W19599  18.283  21.549  13.925
54120W        W19600   1.950  40.531  11.513
54121W        W19601  31.473  17.208   0.342
54122W        W19602  30.068   5.786  12.889
54123W        W19603  34.879  37.904   4.726
54124W        W19604  17.760  43.461   3.356
54125W        W19605  13.213   3.409   3.740
54126W        W19606   4.866  29.086  11.873
54127W        W19607  30.590  40.353   1.352
54128W        W19608   1.783  35.098  12.569
54129W        W19609   0.877  33.935   3.341
54130W        W19610  18.776  37.865   1.314
54131W        W19611  42.002  17.125   2.280
54132W        W19612   4.301  20.147   0.865
54133W        W19613  17.666  14.755  12.973
54134W        W19614  44.964   8.710   3.689
54135W        W19615  38.891  24.200  14.011
54136W        W19616  28.594  25.083   4.661
54137W        W19617   5.833  29.152  12.831
54138W        W19618  31.033  26.666   4.138
54139W        W19619  11.628  16.277   4.207
54140W        W19620   6.870  34.987  13.463
54141W        W19621  41.429  29.966   3.146
54142W        W19622  41.831   2.934   1.354
54143W        W19623  42.310  33.048  13.489
54144W        W19624   9.816   1.309   4.667
54145W        W19625  39.893   1.753   2.324
54146W        W19626  43.774  36.368   1.714
54147W        W19627   9.864  20.583   2.829
54148W        W19628  24.202  24.608   4.203
54149W        W19629  16.806  29.125   0.951
54150W        W19630  26.483  31.968   0.405
54151W        W19631  10.806  44.301   1.243
54152W        W19632  37.052  35.047   1.890
54153W        W19633  20.592  28.042  10.499
54154W        W19634  14.777   7.368  11.962
54155W        W19635  29.924  38.940   0.411
54156W        W19636  32.594  20.533  13.503
54157W        W19637  20.559  26.484   2.181
54158W        W19638  17.136  18.108   2.693
54159W        W19639  20.530   6.884   2.860
54160W        W19640  44.812  13.172  13.798
54161W        W19641   9.772   7.269  11.558
54162W        W19642  43.898  23.604   3.262
54163W        W19643  27.975  22.113   3.373
54164W        W19644  15.682  38.407   2.397
54165W        W19645   3.235  16.730   4.266
54166W        W19646  13.660  25.515   0.268
54167W        W19647  38.894  14.292   3.254
54168W        W19648  11.248   9.264  11.032
54169W        W19649  25.116  16.304   4.728
54170W        W19650  43.999  40.474   2.198
54171W        W19651  26.646  22.681  14.506
54172W        W19652  28.174  10.193  14.802
54173W        W19653  26.626  29.158   1.231
54174W        W19654  36.534  26.678  12.041
54175W        W19655   1.396  35.980  14.455
54176W        W19656  30.993  27.965   4.337
54177W        W19657  31.407  36.411  11.055
54178W        W19658  32.504  12.816  13.893
54179W        W19659  44.800  24.133  14.806
54180W        W19660  36.872   9.249  12.931
54181W        W19661  16.749  18.126   0.419
54182W        W19662  41.444  41.496  10.443
54183W        W19663  14.637  13.296   2.826
54184W        W19664  40.479   9.702  11.080
54185W        W19665   9.327  40.462  11.924
54186W        W19666  34.539   9.317   0.900
54187W        W19667  40.876  34.492   2.857
54188W        W19668  17.729  10.153   0.791
54189W        W19669   6.202  15.778   2.714
54190W        W19670   3.434   6.404   3.187
54191W        W19671  43.994  40.473   0.476
54192W        W19672   0.401  34.435  13.856
54193W        W19673  36.517  40.049   0.445
54194W        W19674  42.302   9.389   3.346
54195W        W19675  31.480   6.358   1.278
54196W        W19676  13.324  42.029   0.352
54197W        W19677  42.317  33.477  11.085
54198W        W19678  44.405   5.241  12.346
54199W        W19679  20.163  29.643  14.280
54200W        W19680  22.506  43.000  14.935
54201W        W19681  34.605  42.281  12.529
54202W        W19682   0.456   3.887   1.451
54203W        W19683  36.514   1.947   3.648
54204W        W19684  15.693  44.939   3.371
54205W        W19685  40.953  44.875  12.916
54206W        W19686  21.639   2.415  12.030
54207W        W19687  21.232   6.709   4.177
54208W        W19688   8.705  17.210   4.668
54209W        W19689  28.059  43.364   3.847
54210W        W19690  11.709  33.120   2.710
54211W        W19691   6.830  42.366  10.579
54212W        W19692  41.397  36.913  13.995
54213W        W19693   3.916  30.533   4.694
54214W        W19694   6.232   2.366  14.297
54215W        W19695   8.661  34.018   3.154
54216W        W19696  13.705  15.162   2.664
54217W        W19697   6.362  29.165   1.409
54218W        W19698  40.938  31.572   4.134
54219W        W19699  20.549  10.244  11.947
54220W        W19700  27.972  30.082   0.281
54221W        W19701  23.692  29.573   0.791
54222W        W19702   5.713  11.637  13.879
54223W        W19703  28.161  12.738   1.731
54224W        W19704  18.719  42.324   4.733
54225W        W19705  28.546   2.941  11.875
54226W        W19706   0.318  40.049   2.178
54227W        W19707  32.072   8.802   3.192
54228W        W19708  28.039  43.455  12.032
54229W        W19709  44.308  29.622   4.337
54230W        W19710  33.594  17.176   1.226
54231W        W19711  32.530  42.829  13.801
54232W        W19712  10.314  18.165   2.684
54233W        W19713  11.227  12.218   0.736
54234W        W19714  39.482  44.942   2.200
54235W        W19715  43.962  30.469   4.280
54236W        W19716   4.702  12.653  10.471
54237W        W19717  42.456  24.105   4.754
54238W        W19718  35.978  39.921   1.344
54239W        W19719   0.941   8.161   1.836
54240W        W19720  35.370  24.182   4.237
54241W        W19721  30.533  40.950   1.427
54242W        W19722  22.082  12.814   4.240
54243W        W19723  17.565  16.291  11.539
54244W        W19724  16.079  34.582   1.803
54245W        W19725  40.316   7.696  11.931
54246W        W19726  23.697  39.504   0.271
54247W        W19727  43.945  42.022   1.934
54248W        W19728  25.034  36.959   0.866
54249W        W19729   0.826   6.898  13.518
54250W        W19730   5.805  25.171  10.628
54251W        W19731   4.215  34.482   2.211
54252W        W19732  43.769  16.174  13.792
54253W        W19733  35.980  29.116  13.928
54254W        W19734  23.694  20.558  10.438
54255W        W19735   9.705  36.377  14.989
54256W        W19736  44.445   7.407   2.387
54257W        W19737  21.212  31.083  12.540
54258W        W19738  18.788  24.026  12.478
54259W        W19739  17.091  26.038  12.542
54260W        W19740  28.128  39.880   5.266
54261W        W19741  40.006  44.835  10.489
54262W        W19742  11.824   5.749  13.903
54263W        W19743  28.996  10.819  14.387
54264W        W19744   9.359  28.109  13.398
54265W        W19745  14.317  12.251   3.755
54266W        W19746  33.401  32.549   1.222
54267W        W19747  26.695  14.731  14.462
54268W        W19748  36.389  40.995  14.778
54269W        W19749  28.946  19.613   2.259
54270W        W19750  24.111  26.702  10.617
54271W        W19751  37.419  15.713  13.420
54272W        W19752  28.107  28.051  14.776
54273W        W19753  43.995  29.940  14.330
54274W        W19754  29.944  35.009  11.064
54275W        W19755  11.703  37.863  13.063
54276W        W19756  14.614  14.157  14.781
54277W        W19757  13.609  23.496  12.396
54278W        W19758   2.332  15.744  14.448
54279W        W19759   7.194  18.767   3.678
54280W        W19760  39.368  30.108  13.910
54281W        W19761  25.048  34.562  11.033
54282W        W19762  21.655  24.478  13.881
54283W        W19763  23.066  19.255   4.187
54284W        W19764  19.638  15.624   0.246
54285W        W19765  17.766  41.324  11.545
54286W        W19766   8.712   4.937  13.042
54287W        W19767  39.995   8.818  11.949
54288W        W19768  31.618  35.476   1.348
54289W        W19769  40.320  18.145  13.446
54290W        W19770  29.022   2.306  14.804
54291W        W19771  16.200  10.142  13.971
54292W        W19772  17.615  38.885   0.813
54293W        W19773  28.061  23.990   4.281
54294W        W19774   2.363  35.493  13.850
54295W        W19775  32.490  10.670   0.464
54296W        W19776   8.168   6.205  11.493
54297W        W19777  33.901  38.449   3.765
54298W        W19778  22.031  32.520   2.325
54299W        W19779  18.681  27.549  14.806
54300W        W19780  23.005  19.702  13.482
54301W        W19781  20.044  27.994  10.410
54302W        W19782  33.926  10.165   4.740
54303W        W19783  44.338  42.025   4.816
54304W        W19784  31.962  32.949  14.839
54305W        W19785  18.597  33.419  12.364
54306W        W19786  42.870  39.046  13.063
54307W        W19787  14.650  25.047   0.255
54308W        W19788  11.782  11.324  13.957
54309W        W19789  32.480  32.427   0.896
54310W        W19790  22.663  19.095   0.310
54311W        W19791  33.100  18.760  12.415
54312W        W19792  38.929  13.201  12.469
54313W        W19793  22.043  30.638  11.490
54314W        W19794   1.254  23.492  12.016
54315W        W19795  31.134  16.107  13.344
54316W        W19796  18.576  40.051  13.544
54317W        W19797  38.857  12.677   0.904
54318W        W19798  23.075   3.450  12.916
54319W        W19799  14.118  11.209   2.732
54320W        W19800  15.285   8.836  12.068
54321W        W19801  14.785  26.209  12.535
54322W        W19802  32.020   1.793   2.860
54323W        W19803  42.526  22.705  10.568
54324W        W19804  27.459   4.922  13.981
54325W        W19805  17.597  30.640  12.529
54326W        W19806  44.464  15.643  11.111
54327W        W19807  23.027  42.900  14.486
54328W        W19808  25.585   8.846  14.870
54329W        W19809  35.948  10.350   3.203
54330W        W19810   7.414   3.322  14.455
54331W        W19811   6.701  29.994  10.891
54332W        W19812  25.635  24.199  12.399
54333W        W19813  24.000  42.977  10.921
54334W        W19814  17.694  22.205  14.412
54335W        W19815  38.452  29.009  13.023
54336W        W19816  30.440  24.620  11.897
54337W        W19817  24.683  29.108  11.545
54338W        W19818  28.982  34.456   4.808
54339W        W19819   4.740   4.361   3.243
54340W        W19820  15.822  36.929  14.385
54341W        W19821   3.229  32.452  11.951
54342W        W19822  22.220  12.133   3.158
54343W        W19823  14.820   1.810  11.014
54344W        W19824  27.025  26.678   1.892
54345W        W19825  19.236  41.019   4.197
54346W        W19826  44.832  42.392   3.855
54347W        W19827  19.060   7.679   1.805
54348W        W19828  12.668   6.833   4.799
54349W        W19829  14.312  15.102   5.150
54350W        W19830   4.331  22.677   0.757
54351W        W19831  13.211  44.812  10.404
54352W        W19832  42.907  32.598  14.781
54353W        W19833   6.876  40.492  10.552
54354W        W19834  12.764   0.775   2.788
54355W        W19835  41.857  26.164   1.754
54356W        W19836  36.014  20.247   1.425
54357W        W19837  24.137  42.029   3.325
54358W        W19838  13.831  28.095  13.820
54359W        W19839  39.355  10.801  11.068
54360W        W19840   3.448  22.607  10.581
54361W        W19841   1.331  32.521  14.311
54362W        W19842  28.564  11.831  11.508
54363W        W19843  41.825  11.647   4.308
54364W        W19844  35.362  19.655  14.485
54365W        W19845  41.355  40.873  12.475
54366W        W19846  33.584   9.819  14.959
54367W        W19847   6.416  44.429   2.873
54368W        W19848  13.313   1.267   1.810
54369W        W19849  13.772  40.814  14.848
54370W        W19850  15.694  22.595  11.904
54371W        W19851  24.180   4.754   3.796
54372W        W19852  14.615  41.531  11.377
54373W        W19853   9.676  40.511   0.905
54374W        W19854  26.047  40.869   4.773
54375W        W19855  44.858  10.270  11.874
54376W        W19856  10.725  21.189  13.903
54377W        W19857  18.274  37.468   2.680
54378W        W19858  43.941  34.884   4.241
54379W        W19859  10.260  36.395  13.394
54380W        W19860  38.010  36.431   3.635
54381W        W19861  41.953  38.535  12.402
54382W        W19862   4.768  42.408  12.447
54383W        W19863  20.217  36.904  14.282
54384W        W19864  18.597  23.630  14.950
54385W        W19865  42.897   1.790   3.342
54386W        W19866  12.314  31.929  14.290
54387W        W19867  34.570  23.208   2.250
54388W        W19868  10.662   1.243   3.685
54389W        W19869  25.565  25.557  14.935
54390W        W19870  10.235  11.133  12.357
54391W        W19871  35.555  12.132  10.987
54392W        W19872  23.586  39.873   3.189
54393W        W19873  19.690  38.923   1.253
54394W        W19874  36.569  33.006  14.813
54395W        W19875  23.231   0.784  14.314
54396W        W19876   8.788  31.113   5.173
54397W        W19877   7.189  26.697  10.644
54398W        W19878  26.979  15.179  11.458
54399W        W19879  30.582  24.168  11.404
54400W        W19880   2.320  39.511  12.425
54401W        W19881   8.659  24.134   0.883
54402W        W19882  43.931  24.514  11.608
54403W        W19883  25.062  35.933   0.777
54404W        W19884   7.799  10.685   1.407
54405W        W19885  20.665   8.285  13.503
54406W        W19886   3.363  17.080   1.755
54407W        W19887   4.246  31.969  10.901
54408W        W19888  42.338   6.834  11.582
54409W        W19889   5.730  24.661  13.895
54410W        W19890  29.069  33.962  12.529
54411W        W19891  21.222  39.873   0.741
54412W        W19892  28.439   5.848  11.993
54413W        W19893  36.472  23.042   2.389
54414W        W19894  27.520   0.383  12.491
54415W        W19895   5.917  41.998  13.321
54416W        W19896  31.619  23.601  14.462
54417W        W19897   5.317  44.832   1.383
54418W        W19898  44.495   5.825   0.771
54419W        W19899  33.931  30.527   4.697
54420W        W19900  15.177  13.757   1.368
54421W        W19901  21.708  39.995   1.844
54422W        W19902  19.083  11.173   1.736
54423W        W19903  30.078  29.992   2.842
54424W        W19904  13.722  19.052  14.977
54425W        W19905  19.591  44.842  14.911
54426W        W19906  21.716   9.210   1.842
54427W        W19907   1.273   8.713   2.284
54428W        W19908  20.683  40.404   2.368
54429W        W19909  13.105  19.676  12.940
54430W        W19910  24.141  27.978  10.993
54431W        W19911  17.676  26.490  14.447
54432W        W19912   9.729  34.376  12.482
54433W        W19913  34.900  36.522   4.765
54434W        W19914   8.753  18.556   3.806
54435W        W19915  32.506  31.906  13.337
54436W        W19916  20.675  22.207  13.993
54437W        W19917  27.185  38.401  14.900
54438W        W19918  33.472  33.595  14.771
54439W        W19919   5.395  15.603   2.330
54440W        W19920  26.115  14.800  11.375
54441W        W19921  34.894   2.804  10.414
54442W        W19922  24.050  15.309  10.462
54443W        W19923  15.325  30.657  14.321
54444W        W19924  44.482   9.223   1.872
54445W        W19925  37.060  14.094   0.364
54446W        W19926  39.488  36.915  12.357
54447W        W19927  23.161  11.341   1.707
54448W        W19928   6.920  36.089  10.524
54449W        W19929  15.145  37.862   0.402
54450W        W19930  33.987  33.893   2.858
54451W        W19931  42.837  34.090   4.165
54452W        W19932   2.407  39.426   2.206
54453W        W19933   1.884   1.932  14.808
54454W        W19934  25.621  11.368  10.441
54455W        W19935  14.189  12.853   1.223
54456W        W19936  40.852  28.468  12.349
54457W        W19937  42.521  31.483  12.025
54458W        W19938   9.335   0.301  14.489
54459W        W19939   0.974  40.318   4.699
54460W        W19940  15.710   4.316   4.635
54461W        W19941   6.739   8.263  12.505
54462W        W19942  31.978  33.537  11.395
54463W        W19943   3.821  24.679   3.263
54464W        W19944  34.920  13.145  13.944
54465W        W19945  19.172  37.456  12.435
54466W        W19946  13.114   0.980  11.039
54467W        W19947  20.213  23.532   1.233
54468W        W19948  37.451  26.609   1.344
54469W        W19949  16.719   7.238  10.578
54470W        W19950  15.275  17.267   1.437
54471W        W19951   4.899  26.199   3.746
54472W        W19952  33.964  30.044  11.515
54473W        W19953   8.706  32.438  11.911
54474W        W19954   6.824   6.740  14.286
54475W        W19955   6.355   2.835   1.924
54476W        W19956   9.180  16.119   0.878
54477W        W19957  35.530  16.249  11.114
54478W        W19958   4.288   8.684   3.312
54479W        W19959  12.714  34.067  11.009
54480W        W19960  30.601  11.641   1.877
54481W        W19961   9.173  33.027  11.390
54482W        W19962  29.435  37.380  14.275
54483W        W19963  24.557  31.080  13.826
54484W        W19964  19.542  14.745  14.883
54485W        W19965  33.963  23.241   4.625
54486W        W19966   3.273   3.439   4.297
54487W        W19967  36.077  24.481  12.401
54488W        W19968  44.368  22.117  10.992
54489W        W19969  21.695  18.577   0.889
54490W        W19970  33.920  10.365  10.570
54491W        W19971  24.137  16.076  12.429
54492W        W19972  34.498  20.554   3.787
54493W        W19973  35.960  11.157  11.872
54494W        W19974  10.199  25.054   4.822
54495W        W19975  15.706  21.519   0.450
54496W        W19976  34.521  37.347  12.451
54497W        W19977  41.884  42.920   4.284
54498W        W19978  32.052  26.691   3.803
54499W        W19979  28.639   2.917  12.486
54500W        W19980  26.027  10.683   3.197
54501W        W19981  22.587   8.363   3.769
54502W        W19982   1.333  17.627   4.137
54503W        W19983   6.788   1.916   1.854
54504W        W19984  43.957  10.321  12.402
54505W        W19985  33.103  27.663  14.860
54506W        W19986  43.386  28.465   1.262
54507W        W19987   6.833  18.095  11.884
54508W        W19988  35.405   8.369  11.509
54509W        W19989  38.392  40.891  10.981
54510W        W19990  43.867  16.766  14.407
54511W        W19991  32.582   2.810  10.595
54512W        W19992   1.933  35.071   3.646
54513W        W19993  44.423  15.722   2.318
54514W        W19994  38.852  36.033  12.482
54515W        W19995  41.302  26.630  14.468
54516W        W19996  38.476  43.881  13.799
54517W        W19997  29.497  33.024  14.785
54518W        W19998  31.494  28.102  13.871
54519W        W19999  16.212  14.125  14.840
54520W        W20000   7.852   4.361  12.063
54521W        W20001  13.342  11.158  13.958
54522W        W20002  31.150  19.129   1.301
54523W        W20003  23.730   7.733   1.806
54524W        W20004  20.576  14.778   0.790
54525W        W20005  37.912  15.127  13.045
54526W        W20006  36.867   7.786  13.857
54527W        W20007   6.812  42.032  11.583
54528W        W20008  37.497   2.354  14.870
54529W        W20009   0.265  26.021   4.268
54530W        W20010  29.426  36.885  14.945
54531W        W20011   7.202  35.970   1.829
54532W        W20012  43.999  16.610   3.343
54533W        W20013  26.194  18.073  13.050
54534W        W20014  30.059  19.749  11.125
54535W        W20015   5.830  31.061   4.129
54536W        W20016  36.098  30.093  11.012
54537W        W20017  26.094  16.727   3.871
54538W        W20018  44.864   9.723   0.939
54539W        W20019  27.154   9.279  12.568
54540W        W20020  10.640   1.483  12.500
54541W        W20021   5.193  24.559  13.534
54542W        W20022  23.228  11.862  12.027
54543W        W20023  28.977  31.004  12.015
54544W        W20024   1.293  41.021   1.697
54545W        W20025  33.438  24.681  13.434
54546W        W20026  17.781  44.333  14.906
54547W        W20027  43.278  36.377   0.924
54548W        W20028  24.637  35.059   0.326
54549W        W20029  21.117  16.574  14.317
54550W        W20030  40.017  10.679   0.843
54551W        W20031   2.320   2.440  14.005
54552W        W20032  30.621  37.995  11.053
54553W        W20033  27.589  40.323   4.654
54554W        W20034  31.137  18.143   3.759
54555W        W20035  18.582   2.311   2.861
54556W        W20036  39.377   8.886  14.882
54557W        W20037  24.540  22.252  11.528
54558W        W20038   1.378  19.207   0.858
54559W        W20039  29.424  19.171  14.893
54560W        W20040  38.876  23.054   2.741
54561W        W20041  36.578  38.822   1.371
54562W        W20042  13.260  28.620  11.440
54563W        W20043  25.199   4.336  14.824
54564W        W20044  43.824  40.441  10.951
54565W        W20045  28.451   6.338  13.848
54566W        W20046  20.650  18.225   4.709
54567W        W20047  44.300   1.432   2.307
54568W        W20048  11.694  40.893   0.335
54569W        W20049  42.876   3.351  13.887
54570W        W20050  31.952  21.587  12.021
54571W        W20051   8.838  38.913  14.011
54572W        W20052  14.267  22.078   1.403
54573W        W20053  19.639  26.673   2.283
54574W        W20054   2.794  41.475  12.051
54575W        W20055  10.206  21.640   1.406
54576W        W20056   7.412  30.088   2.390
54577W        W20057  24.569   6.820  14.279
54578W        W20058  17.637  38.517  11.024
54579W        W20059  11.634  20.044   4.184
54580W        W20060  37.516  11.198  10.952
54581W        W20061  25.674  14.820   2.360
54582W        W20062  29.966  32.035   3.641
54583W        W20063   5.699   3.288   3.240
54584W        W20064  36.555  28.605   0.867
54585W        W20065  44.797  22.090  13.547
54586W        W20066  23.612  32.961   1.735
54587W        W20067  15.211  21.117  14.346
54588W        W20068  20.080   2.964  14.469
54589W        W20069  12.247  43.490  12.580
54590W        W20070  33.571  11.762  12.404
54591W        W20071  31.010  30.454  10.105
54592W        W20072  11.242  16.699   0.921
54593W        W20073  17.222   6.226   3.162
54594W        W20074  36.957   6.917  10.942
54595W        W20075  25.022  28.510  13.522
54596W        W20076  23.124  14.732   0.849
54597W        W20077  18.569  23.717   3.313
54598W        W20078   3.828  22.018  13.008
54599W        W20079  37.562  14.141   4.170
54600W        W20080   5.750  10.694  12.897
54601W        W20081   6.859  13.640   4.326
54602W        W20082  35.872  39.992   2.883
54603W        W20083  31.544  42.855   4.193
54604W        W20084   9.387  10.769   3.860
54605W        W20085  21.189   7.303   1.792
54606W        W20086  27.016  37.579  10.426
54607W        W20087  15.795  34.471   3.183
54608W        W20088   6.899  41.387  13.880
54609W        W20089  41.801  42.422  11.995
54610W        W20090  41.938  43.270   1.211
54611W        W20091  41.483  17.718  14.922
54612W        W20092  33.099  14.302  12.020
54613W        W20093  19.630  22.021   1.724
54614W        W20094  16.087  25.608   1.772
54615W        W20095  22.075  10.172   3.824
54616W        W20096  21.586   8.835   0.369
54617W        W20097  13.626  39.425  12.960
54618W        W20098  41.322  33.879   0.338
54619W        W20099   7.882  27.472  11.051
54620W        W20100  19.111  20.124  11.857
54621W        W20101  14.320   2.304   4.627
54622W        W20102  35.430   5.430   1.769
54623W        W20103  19.563  34.472   3.814
54624W        W20104  24.491   0.334  12.917
54625W        W20105  16.586  34.917  14.403
54626W        W20106  17.750   0.407  13.817
54627W        W20107  27.638  29.563   3.811
54628W        W20108  29.424   3.853   3.379
54629W        W20109  17.063  33.924   3.216
54630W        W20110   4.448  12.322   1.901
54631W        W20111  40.886   6.326  14.793
54632W        W20112  16.664  42.027  11.040
54633W        W20113   4.295   5.427   2.280
54634W        W20114  41.913  13.695   0.316
54635W        W20115  25.000  14.773   0.759
54636W        W20116  12.236  44.466   2.207
54637W        W20117  23.669   9.349   0.865
54638W        W20118  23.068  39.477  11.050
54639W        W20119   7.221   5.925  13.404
54640W        W20120  11.753  17.670   0.743
54641W        W20121  17.081  27.968   4.749
54642W        W20122  30.412   9.361  10.508
54643W        W20123   4.728   3.838   4.601
54644W        W20124   1.840  30.004  14.438
54645W        W20125   5.196   3.248   0.443
54646W        W20126  10.382  13.337  11.566
54647W        W20127  30.488  29.993   4.657
54648W        W20128  27.449  23.108   4.179
54649W        W20129  28.489  13.699  11.502
54650W        W20130  36.001  18.758  13.331
54651W        W20131   8.670   2.378   3.317
54652W        W20132  13.789   4.769  10.060
54653W        W20133  13.816  15.657   0.931
54654W        W20134  15.254  11.297  13.488
54655W        W20135  11.767  41.822   2.310
54656W        W20136   0.912  12.698  13.394
54657W        W20137   0.887  37.491  10.595
54658W        W20138   9.167  32.560   3.746
54659W        W20139  14.218  28.971  14.411
54660W        W20140  24.985  34.955   4.599
54661W        W20141  22.159  44.812  13.883
54662W        W20142  31.496   7.905  13.972
54663W        W20143  39.973   6.900   2.815
54664W        W20144   2.943  38.556   1.884
54665W        W20145  19.276  34.597  13.021
54666W        W20146  28.981  15.280   2.762
54667W        W20147  35.582  14.789   1.841
54668W        W20148  33.113   0.919   2.776
54669W        W20149  43.463  12.308   4.293
54670W        W20150   6.696   5.315   2.285
54671W        W20151  13.222  30.629  13.818
54672W        W20152   3.280  25.664   5.133
54673W        W20153   5.764  44.279  11.108
54674W        W20154  27.540   2.904   1.372
54675W        W20155  36.084  41.439   2.342
54676W        W20156  12.655  40.957   1.250
54677W        W20157  38.865  31.613   4.211
54678W        W20158   7.700  28.606  14.469
54679W        W20159  28.134  29.520   1.449
54680W        W20160  12.185  25.681   0.950
54681W        W20161  31.099   8.181  12.883
54682W        W20162  17.239  22.627  10.899
54683W        W20163   1.430  28.049  13.804
54684W        W20164  10.154  17.759  13.974
54685W        W20165  39.022   6.716  14.455
54686W        W20166  27.561  22.192  13.367
54687W        W20167  20.562  31.965   4.676
54688W        W20168   2.433  20.747  13.333
54689W        W20169  32.899  12.294  14.386
54690W        W20170  21.593   3.867   3.367
54691W        W20171  44.475  40.002  14.000
54692W        W20172  31.049  20.039   2.790
54693W        W20173  35.964  15.187   1.828
54694W        W20174  23.526  38.467  13.861
54695W        W20175  44.430  34.577   4.616
54696W        W20176   4.889  28.638  14.772
54697W        W20177  24.084  22.511  13.840
54698W        W20178  14.688   0.386   4.244
54699W        W20179  30.951  40.457  12.048
54700W        W20180  36.567  38.458   3.841
54701W        W20181   0.817   9.315   1.350
54702W        W20182  35.590  15.287   1.764
54703W        W20183   7.694  33.008   0.796
54704W        W20184  44.779  38.385   2.234
54705W        W20185  26.119  26.572  13.994
54706W        W20186  24.053  33.503   2.406
54707W        W20187  26.519   5.931  11.387
54708W        W20188  13.763  16.728   4.296
54709W        W20189  40.351  26.504  12.028
54710W        W20190   0.839  44.876   0.374
54711W        W20191  41.834  24.050   2.327
54712W        W20192  16.728  42.434   1.411
54713W        W20193   9.816  26.499   2.838
54714W        W20194  18.735   3.925   2.767
54715W        W20195  12.619   8.834  11.857
54716W        W20196   3.955  28.997  13.531
54717W        W20197  28.173  16.214  12.984
54718W        W20198   9.374  34.371   4.218
54719W        W20199  19.714   6.904   2.882
54720W        W20200  26.990  10.830  10.943
54721W        W20201  43.307  20.664   3.168
54722W        W20202  15.142  27.631   2.746
54723W        W20203  24.606  38.943   0.855
54724W        W20204  22.564  21.171  11.596
54725W        W20205  27.959  17.586   1.908
54726W        W20206   9.261  18.104  12.857
54727W        W20207  27.625  24.979  12.465
54728W        W20208  34.447   2.282  11.881
54729W        W20209   2.291  20.258  11.119
54730W        W20210  40.487   5.764  14.901
54731W        W20211  33.504   0.354   3.312
54732W        W20212   0.407  32.589  12.938
54733W        W20213  29.642  17.748  13.527
54734W        W20214  24.137  26.970   3.832
54735W        W20215  39.430   0.399  13.903
54736W        W20216   2.947  20.090  11.880
54737W        W20217  26.510  20.118  13.369
54738W        W20218  26.512   5.747   4.741
54739W        W20219  37.997  35.500   1.404
54740W        W20220  18.287  11.671   1.812
54741W        W20221  16.657  19.161   2.258
54742W        W20222  13.176  22.590   3.653
54743W        W20223  25.595  33.919  10.964
54744W        W20224  32.117   5.878  12.065
54745W        W20225   9.790  40.023  11.530
54746W        W20226  43.021   5.931   3.336
54747W        W20227   9.766  24.023   2.738
54748W        W20228  28.979  42.961   4.690
54749W        W20229  16.671  17.651  13.470
54750W        W20230  32.420  14.589   0.278
54751W        W20231  30.508  43.288   4.272
54752W        W20232   4.935  34.083  12.920
54753W        W20233  42.376  33.119  12.993
54754W        W20234  33.973  33.450   4.194
54755W        W20235  20.691   1.737  10.935
54756W        W20236  37.364  44.482   4.754
54757W        W20237  19.086   5.229  12.069
54758W        W20238  41.372  31.075  14.774
54759W        W20239   1.858  36.373   3.344
54760W        W20240  33.002  24.527   0.866
54761W        W20241   7.187  42.930   0.353
54762W        W20242  28.449  12.279  13.987
54763W        W20243   1.459  12.174   3.782
54764W        W20244  41.895   1.875   2.810
54765W        W20245  23.051  19.210   0.768
54766W        W20246  18.072  44.991   4.332
54767W        W20247  43.360  34.041  11.955
54768W        W20248  17.607  31.935  10.567
54769W        W20249   7.391  22.613   0.307
54770W        W20250  43.802  21.088   2.264
54771W        W20251   8.402  23.505   4.660
54772W        W20252   6.799  33.973  10.898
54773W        W20253  36.457   7.772   2.200
54774W        W20254  27.520   4.345  11.989
54775W        W20255  28.460  13.755  12.392
54776W        W20256  13.185  34.961   3.153
54777W        W20257   4.357  39.063   3.354
54778W        W20258  35.954  36.917  13.816
54779W        W20259   3.859  24.717   0.267
54780W        W20260  41.488   1.389   2.819
54781W        W20261   4.420  41.859   0.728
54782W        W20262  18.722  21.244  13.891
54783W        W20263  21.028  18.281  12.383
54784W        W20264  24.602   0.949  12.354
54785W        W20265  18.136  10.682   1.245
54786W        W20266  39.934   8.289  14.498
54787W        W20267   3.385   6.830   1.317
54788W        W20268  36.043  30.919   2.411
54789W        W20269   0.942   0.374  13.395
54790W        W20270  42.019  35.047   2.876
54791W        W20271  34.384  15.769   3.868
54792W        W20272  18.065  14.219  10.934
54793W        W20273  23.595   1.924  10.481
54794W        W20274  33.519  25.480  13.843
54795W        W20275  25.634   4.743  12.971
54796W        W20276  25.589  42.423   2.390
54797W        W20277   1.386  17.165   2.874
54798W        W20278  11.162  32.074   1.712
54799W        W20279  43.901  21.535  11.103
54800W        W20280  26.112  39.370   1.934
54801W        W20281   0.893  14.281   1.279
54802W        W20282  20.672  24.591   0.416
54803W        W20283  36.577   4.423  11.425
54804W        W20284  44.990  17.221  10.963
54805W        W20285  20.233  43.421   0.293
54806W        W20286  26.575  12.359  14.932
54807W        W20287  38.443  40.535   0.747
54808W        W20288  15.721  12.788   1.917
54809W        W20289   4.319  10.274   4.137
54810W        W20290  12.692  30.631  12.555
54811W        W20291   2.326  42.492   1.296
54812W        W20292  35.394  10.866  10.421
54813W        W20293   2.787  21.758   3.220
54814W        W20294  28.560  33.064  14.393
54815W        W20295  44.288  28.681  14.934
54816W        W20296  29.516  21.186  12.023
54817W        W20297   4.733  30.120  10.537
54818W        W20298   4.886  26.675  12.565
54819W        W20299  39.468  44.368  12.855
54820W        W20300  15.623   0.440  11.917
54821W        W20301  40.836  14.621   1.909
54822W        W20302  22.224  23.203   1.827
54823W        W20303  42.837  12.762   2.668
54824W        W20304  19.680   9.329   1.219
54825W        W20305   1.314   9.842   3.201
54826W        W20306   1.292  22.020   1.821
54827W        W20307  11.277  40.389  13.800
54828W        W20308  35.096  15.697  11.035
54829W        W20309  40.028  10.191  11.920
54830W        W20310  34.457  24.097   0.760
54831W        W20311  26.204  40.832  10.447
54832W        W20312  32.617  40.528   1.871
54833W        W20313  15.186  18.682   3.649
54834W        W20314  40.912  30.654   1.805
54835W        W20315  29.524  29.064   4.346
54836W        W20316  35.445  28.631  14.967
54837W        W20317   5.406  16.308   1.830
54838W        W20318  27.675  34.025  11.594
54839W        W20319  14.158  37.904   2.226
54840W        W20320  20.735  32.537   3.376
54841W        W20321   1.444   7.403  14.996
54842W        W20322   5.280  37.432  14.320
54843W        W20323  37.040   2.252  13.497
54844W        W20324  22.008  16.760   3.157
54845W        W20325  26.129  15.698   4.656
54846W        W20326  23.674   3.336  14.972
54847W        W20327  21.693   0.369   2.240
54848W        W20328  35.586  39.439   3.700
54849W        W20329   2.760  14.180   4.199
54850W        W20330  18.744  33.979  10.887
54851W        W20331  30.930  16.779  10.594
54852W        W20332  13.782  31.441  11.901
54853W        W20333  42.852  43.481  11.024
54854W        W20334  43.942  19.679  10.461
54855W        W20335   7.272   0.855  11.428
54856W        W20336  17.081  15.116   5.280
54857W        W20337  40.958  31.543  10.914
54858W        W20338   4.916   7.770   0.359
54859W        W20339   4.803   7.241   0.842
54860W        W20340   4.366  32.413   1.705
54861W        W20341  22.206  31.614  14.473
54862W        W20342   1.362  39.820  14.314
54863W        W20343  36.854  24.634  11.537
54864W        W20344  25.639  10.219  11.434
54865W        W20345   7.750  12.241  14.436
54866W        W20346  24.560   1.460  14.499
54867W        W20347  33.432  28.646   9.938
54868W        W20348  33.087   1.349   1.345
54869W        W20349  25.502   3.864  13.808
54870W        W20350  37.948  13.786  13.839
54871W        W20351  10.293  22.517  13.538
54872W        W20352   9.361   9.150  14.007
54873W        W20353  15.628  38.526   9.963
54874W        W20354  21.588  10.835   0.812
54875W        W20355  38.909  15.811   5.173
54876W        W20356  31.611  38.518   3.254
54877W        W20357  31.604   2.895  14.438
54878W        W20358  24.669  44.815   2.406
54879W        W20359  10.328   7.378   4.741
54880W        W20360   6.283  28.471   4.751
54881W        W20361   4.812  42.983   1.250
54882W        W20362  15.220  29.448  10.918
54883W        W20363  35.487  19.154  13.491
54884W        W20364  37.576  10.213   3.640
54885W        W20365  44.310  13.208   0.750
54886W        W20366  37.997  18.723   3.260
54887W        W20367   8.890   9.784   4.796
54888W        W20368  32.521  40.816  11.488
54889W        W20369  41.529  30.924   0.731
54890W        W20370   2.755  37.040   3.783
54891W        W20371   9.803  11.806   2.816
54892W        W20372  18.598  10.700   4.779
54893W        W20373  38.027   1.243  10.997
54894W        W20374  44.988  11.834  12.930
54895W        W20375  28.182   8.758  14.408
54896W        W20376   0.828   7.323  11.958
54897W        W20377  21.027  27.685  11.038
54898W        W20378  21.214   4.378   3.310
54899W        W20379  22.588  37.924   3.756
54900W        W20380  38.876   6.428   3.736
54901W        W20381  24.664  37.927   3.637
54902W        W20382  40.858  33.488   0.821
54903W        W20383   7.328  43.462  13.390
54904W        W20384  22.571  12.265   3.728
54905W        W20385  32.530  33.475   2.815
54906W        W20386  42.402  40.852   1.704
54907W        W20387  32.076  12.179  11.887
54908W        W20388  21.543  38.021  14.819
54909W        W20389  16.749  44.388  13.447
54910W        W20390   1.850  29.984   3.831
54911W        W20391   8.714   7.893   4.618
54912W        W20392  33.493   3.234  13.407
54913W        W20393  32.089  23.100   1.226
54914W        W20394  29.052  33.583   4.275
54915W        W20395  40.305  44.799  14.866
54916W        W20396  30.463  10.852   0.376
54917W        W20397  17.155   7.779   5.099
54918W        W20398  31.102   4.769   4.162
54919W        W20399  19.573   2.966   0.382
54920W        W20400  36.096  19.687  11.011
54921W        W20401   2.328   2.912  12.497
54922W        W20402   0.361  10.278  12.878
54923W        W20403  35.033   9.749  14.937
54924W        W20404  13.615  10.681  13.341
54925W        W20405  28.123  19.740   4.303
54926W        W20406  39.886  27.620   2.318
54927W        W20407  14.230  10.307  12.423
54928W        W20408  25.613  37.510  10.113
54929W        W20409   4.205  39.891   3.791
54930W        W20410  17.748  37.923  14.936
54931W        W20411  18.214  30.037   2.799
54932W        W20412  23.706  14.182   0.438
54933W        W20413   3.379  27.980   4.307
54934W        W20414  32.635   3.260   3.257
54935W        W20415   3.713  40.927   2.300
54936W        W20416  25.694  15.265  14.777
54937W        W20417   6.740  36.370   1.839
54938W        W20418   9.267   2.364  14.329
54939W        W20419  23.722   5.836   3.719
54940W        W20420  14.106   8.188  11.012
54941W        W20421   1.786  14.821  10.575
54942W        W20422  22.217  41.459  12.484
54943W        W20423  20.525  29.939   3.686
54944W        W20424  35.887  11.218   1.397
54945W        W20425   1.840  16.123   0.328
54946W        W20426  27.644  44.805  10.895
54947W        W20427  15.822  31.905  14.410
54948W        W20428  32.007   9.251  12.510
54949W        W20429   6.889  24.999  11.121
54950W        W20430  26.071  34.410  14.971
54951W        W20431   4.867  21.211  11.042
54952W        W20432  37.358   8.685   1.388
54953W        W20433  39.000  31.543  12.047
54954W        W20434  34.890  22.529   3.827
54955W        W20435   2.411  20.709  11.969
54956W        W20436  23.204  40.047  10.624
54957W        W20437  30.532  40.517  12.391
54958W        W20438  10.180  18.786  14.390
54959W        W20439  20.139   4.745   2.802
54960W        W20440  11.646  24.084   3.377
54961W        W20441  15.722  11.351   4.784
54962W        W20442  41.846  25.219   3.355
54963W        W20443   4.825   2.312  10.491
54964W        W20444   9.217  32.928  10.887
54965W        W20445  35.955  31.579   2.391
54966W        W20446  37.485  39.992   2.187
54967W        W20447  17.084  40.529  14.487
54968W        W20448  32.136  12.263  13.438
54969W        W20449  43.335  40.867   2.295
54970W        W20450  26.117  36.363  13.422
54971W        W20451   7.786  29.559  10.125
54972W        W20452   3.895  29.485   1.396
54973W        W20453  34.486  30.635  12.931
54974W        W20454  10.635   1.891  13.530
54975W        W20455   5.762  23.074  11.094
54976W        W20456  39.881  13.830   4.773
54977W        W20457  15.590  21.190  11.423
54978W        W20458  31.416  38.975  11.990
54979W        W20459  34.445  36.855  12.498
54980W        W20460   9.156   6.374   2.229
54981W        W20461  44.760  17.242  11.388
54982W        W20462   1.733   1.335  12.009
54983W        W20463   3.353  34.991  10.485
54984W        W20464  12.269  15.189   3.329
54985W        W20465  15.117   3.453  11.119
54986W        W20466  14.600  25.568   2.675
54987W        W20467  20.195   7.885   4.320
54988W        W20468  36.070   6.715   0.845
54989W        W20469  10.344  10.285  14.334
54990W        W20470  15.745  39.929  14.434
54991W        W20471   3.755  21.149  13.334
54992W        W20472   4.351  17.790   0.844
54993W        W20473   7.672  23.037   0.948
54994W        W20474  21.052  21.668  14.312
54995W        W20475   7.358  22.174   1.913
54996W        W20476  34.500  37.426   1.435
54997W        W20477  38.534  18.649   4.267
54998W        W20478  28.013   3.331   9.987
54999W        W20479  30.998  42.435   4.643
55000W        W20480  27.950  11.369  12.096
55001W        W20481  16.262  27.141  13.018
55002W        W20482  11.694  10.860  14.029
55003W        W20483   0.775   7.357   5.245
55004W        W20484  39.936   2.344  10.931
55005W        W20485   2.747   7.177  10.579
55006W        W20486  40.946  28.586  11.442
55007W        W20487  32.990  26.032   4.315
55008W        W20488  19.262  34.950  10.601
55009W        W20489   7.243  23.538  11.558
55010W        W20490  33.906   5.429  11.388
55011W        W20491   8.395  12.244  11.955
55012W        W20492  44.448  17.192   4.705
55013W        W20493  27.069  30.035   2.735
55014W        W20494  37.994  31.900   2.784
55015W        W20495  11.154  19.546  14.386
55016W        W20496  42.469   3.770  13.010
55017W        W20497  43.435  42.497   0.477
55018W        W20498  36.957  44.329  10.639
55019W        W20499   5.392  24.673   1.817
55020W        W20500   6.279  41.955  14.389
55021W        W20501  18.641  12.830  11.912
55022W        W20502  39.432   0.750   3.287
55023W        W20503   2.239  26.659  14.872
55024W        W20504  27.113  14.821  10.617
55025W        W20505  21.633  35.464   4.748
55026W        W20506  16.239  34.375   4.282
55027W        W20507  10.339   1.286   1.368
55028W        W20508  39.880  39.432   1.788
55029W        W20509   9.821  29.046   2.366
55030W        W20510  25.652  17.654  14.935
55031W        W20511  25.666  31.596  12.053
55032W        W20512  33.978  42.871  12.077
55033W        W20513   2.407  10.245  14.903
55034W        W20514  25.112  10.168   3.672
55035W        W20515  34.938  21.073  13.054
55036W        W20516  44.384  27.511  14.501
55037W        W20517  35.066  16.281   4.779
55038W        W20518  39.538  25.966  12.451
55039W        W20519  34.490  38.042  11.486
55040W        W20520  33.597  30.011  14.412
55041W        W20521  31.152   1.977   2.187
55042W        W20522  34.118  36.582  11.477
55043W        W20523  16.769  24.096   1.818
55044W        W20524  33.986  21.625  13.406
55045W        W20525  21.067  29.591  13.529
55046W        W20526  12.747  26.686  13.938
55047W        W20527  41.839  33.918   3.247
55048W        W20528  13.211  17.739  14.310
55049W        W20529   1.776  40.027  11.033
55050W        W20530  23.717  40.477   3.812
55051W        W20531   3.434   0.478  12.514
55052W        W20532  34.910   3.396  11.046
55053W        W20533  27.963  10.749   4.312
55054W        W20534  34.047   4.754  14.417
55055W        W20535  41.317  30.946   1.906
55056W        W20536  16.194  14.203   3.160
55057W        W20537  44.800   9.714  13.425
55058W        W20538  15.327  12.803  14.459
55059W        W20539   2.234  29.459  13.451
55060W        W20540   5.727  33.971   2.787
55061W        W20541  12.732  41.938   3.343
55062W        W20542  34.553   8.404   0.454
55063W        W20543  35.401  32.981  13.916
55064W        W20544  42.464  15.794  14.018
55065W        W20545  14.744  35.519   3.326
55066W        W20546   7.853  18.210   0.955
55067W        W20547   9.816  44.883   2.895
55068W        W20548  13.167  15.758   4.700
55069W        W20549  25.041   9.264  12.939
55070W        W20550   6.684  29.596  14.831
55071W        W20551  26.054  29.990  13.931
55072W        W20552  23.568  30.612   0.953
55073W        W20553  32.946   6.789  12.399
55074W        W20554  20.207  37.531  12.368
55075W        W20555  16.086  12.814  11.938
55076W        W20556  21.560  40.382   2.876
55077W        W20557  35.948  30.469   2.694
55078W        W20558  20.714   1.476   0.949
55079W        W20559  41.862   6.239   5.126
55080W        W20560  43.875  20.704  12.921
55081W        W20561   6.726  21.242  12.884
55082W        W20562  32.437   3.788  13.348
55083W        W20563   6.367  36.561  14.786
55084W        W20564  44.776  24.014  13.355
55085W        W20565   5.309  39.870  14.927
55086W        W20566  23.196  40.497   3.348
55087W        W20567  40.994  39.022   3.328
55088W        W20568  29.078  23.731   0.481
55089W        W20569  18.081  40.348   1.695
55090W        W20570  16.812   5.235   4.773
55091W        W20571  15.305  14.783   1.439
55092W        W20572  35.050  41.817   3.193
55093W        W20573  37.836  26.013   2.383
55094W        W20574  37.470  31.028   1.276
55095W        W20575  36.567  20.174   3.301
55096W        W20576  21.562  22.199   2.401
55097W        W20577  18.664  28.528  12.516
55098W        W20578   1.257  30.149   4.298
55099W        W20579  38.469  20.158   2.373
55100W        W20580  42.524   4.757  13.927
55101W        W20581  36.444  23.667   4.819
55102W        W20582  24.130  25.572  10.601
55103W        W20583  16.754  15.194   1.349
55104W        W20584  33.932  42.982   3.747
55105W        W20585  14.189  13.106   1.368
55106W        W20586  33.464  21.032   2.827
55107W        W20587  39.952  22.562   2.320
55108W        W20588   0.978  17.091   2.245
55109W        W20589   0.442   9.709  14.015
55110W        W20590  25.015  13.150  10.908
55111W        W20591   7.899   1.850   0.874
55112W        W20592  27.527  36.373  13.454
55113W        W20593  35.461   1.838  10.432
55114W        W20594   4.356  20.215   1.699
55115W        W20595  25.995  40.917   2.330
55116W        W20596   3.860  16.687  14.772
55117W        W20597  17.735  43.786   2.840
55118W        W20598   3.739  37.007   0.828
55119W        W20599  40.944  35.500   4.638
55120W        W20600  23.022  13.762   1.694
55121W        W20601  41.975  28.029   3.360
55122W        W20602  44.791   4.894   2.671
55123W        W20603  43.908  17.129   4.318
55124W        W20604   4.402  25.218  11.094
55125W        W20605  30.153  11.851   1.769
55126W        W20606  36.976   3.289  14.016
55127W        W20607  35.523  44.491   4.775
55128W        W20608  28.566  15.756  14.487
55129W        W20609  43.487   8.296   1.412
55130W        W20610   0.801   2.824  14.920
55131W        W20611  27.004   5.242  12.486
55132W        W20612  42.816   1.766  14.850
55133W        W20613  23.173  25.023  11.600
55134W        W20614  26.000  24.666  13.871
55135W        W20615  35.468  30.574   0.290
55136W        W20616  35.563  44.323  12.549
55137W        W20617  39.469   8.241   2.845
55138W        W20618   5.403   3.246   5.114
55139W        W20619  41.318  22.177   4.286
55140W        W20620  23.041  10.252  11.432
55141W        W20621  32.957  33.928   0.366
55142W        W20622  25.514  43.825   9.599
55143W        W20623   2.849  19.773  14.396
55144W        W20624  37.077   5.418   4.200
55145W        W20625  15.303  23.987   1.793
55146W        W20626   4.913  10.274  13.313
55147W        W20627  19.766   9.716   4.774
55148W        W20628   4.352  34.603   0.272
55149W        W20629  43.384  23.587   0.770
55150W        W20630  36.950  35.086  14.291
55151W        W20631   0.490   6.745  13.486
55152W        W20632  16.253  21.579   2.251
55153W        W20633  41.402  28.032   0.771
55154W        W20634  36.092  40.332   4.115
55155W        W20635   6.323   7.837  11.001
55156W        W20636  25.624   5.318   2.747
55157W        W20637  40.981  25.995   1.226
55158W        W20638  15.147  38.819  13.328
55159W        W20639   9.743  25.168   4.661
55160W        W20640   8.325  28.443   0.456
55161W        W20641  25.502  18.584  11.372
55162W        W20642   8.357  20.759  10.476
55163W        W20643   0.770  14.729  12.094
55164W        W20644   8.882   2.740  13.979
55165W        W20645  38.042  27.681   1.374
55166W        W20646  41.014  21.562   4.697
55167W        W20647  44.407  13.622  14.871
55168W        W20648   6.218  11.815  10.056
55169W        W20649  36.569   9.283   3.649
55170W        W20650  14.755  21.066   4.255
55171W        W20651  17.791  28.569  13.902
55172W        W20652  12.659  43.927   1.316
55173W        W20653   9.328  39.358   3.792
55174W        W20654  34.036  21.172  14.416
55175W        W20655  13.124  33.963   2.333
55176W        W20656  19.693  34.498   0.425
55177W        W20657  17.223  17.230   0.469
55178W        W20658  29.466   3.739   1.338
55179W        W20659  42.798  21.661  14.892
55180W        W20660  34.957  26.537  10.142
55181W        W20661   2.939  11.232   3.744
55182W        W20662  38.962  28.626   4.333
55183W        W20663  24.561  18.700   2.852
55184W        W20664  40.409  16.192   1.764
55185W        W20665  17.607   9.347  13.931
55186W        W20666  14.197   3.727   0.850
55187W        W20667  10.800  39.398  11.122
55188W        W20668  42.335  30.005   3.379
55189W        W20669  42.778  24.579   3.294
55190W        W20670  41.394  36.042  12.008
55191W        W20671   5.921  39.930  14.762
55192W        W20672   6.380  11.147  12.435
55193W        W20673  31.006   3.229   5.193
55194W        W20674  10.746  36.539   1.773
55195W        W20675   8.295  34.956  14.930
55196W        W20676  21.194   5.869  12.066
55197W        W20677  28.090   3.767  14.927
55198W        W20678  28.161  27.478  10.975
55199W        W20679  30.467  29.579  12.553
55200W        W20680   4.446   5.274   4.633
55201W        W20681  43.798  33.599  11.913
55202W        W20682  10.321   3.424  12.066
55203W        W20683  22.502  34.926  10.108
55204W        W20684   1.970  22.021  12.975
55205W        W20685   6.703  24.002   0.788
55206W        W20686   9.355  22.535  13.932
55207W        W20687   2.804  39.320   1.757
55208W        W20688  15.266  18.095  11.481
55209W        W20689  21.562  15.217  11.459
55210W        W20690   5.383  35.386  12.506
55211W        W20691  19.545   9.801  14.805
55212W        W20692  32.485  13.203   3.292
55213W        W20693  10.678   1.909   3.355
55214W        W20694  14.808  34.904   2.849
55215W        W20695  36.942  34.429  11.509
55216W        W20696  22.608   5.765  13.855
55217W        W20697  32.583  43.339   0.843
55218W        W20698  35.874   1.784  12.828
55219W        W20699  21.629  33.959  14.282
55220W        W20700  31.539  20.185   0.295
55221W        W20701   7.319  19.163  12.490
55222W        W20702  39.535  42.408  13.420
55223W        W20703   5.802  13.729  11.572
55224W        W20704  24.223  16.158  13.517
55225W        W20705   9.725  36.055   4.276
55226W        W20706  35.505  34.083   3.330
55227W        W20707  30.989  11.814   4.632
55228W        W20708  20.123  36.947  11.855
55229W        W20709  36.980  17.622   3.869
55230W        W20710  29.652  32.496   4.731
55231W        W20711   2.263   3.414  14.416
55232W        W20712   8.200   7.757   0.821
55233W        W20713  10.736   5.254   0.393
55234W        W20714   5.279  20.086  13.896
55235W        W20715  20.254  28.586  10.999
55236W        W20716  33.085  28.958  14.761
55237W        W20717  11.715  22.722  14.365
55238W        W20718  19.136  27.188  13.997
55239W        W20719  43.837  16.744   1.231
55240W        W20720   8.732  19.768   4.836
55241W        W20721  40.984  15.712  13.060
55242W        W20722  26.134  25.650   2.228
55243W        W20723  34.998  10.267   5.151
55244W        W20724  36.535  18.702  10.444
55245W        W20725  37.485  20.157  13.931
55246W        W20726   6.890  24.147  12.533
55247W        W20727  41.874  42.944   2.226
55248W        W20728  34.910  24.632  14.996
55249W        W20729  33.619  35.972  13.384
55250W        W20730   7.816  44.270   2.674
55251W        W20731   1.316  34.458   5.139
55252W        W20732   3.219   2.865  13.478
55253W        W20733  44.369  27.182   4.311
55254W        W20734  35.979  19.601   3.181
55255W        W20735  14.199  24.021   3.221
55256W        W20736  27.075  10.261   0.950
55257W        W20737  16.115  27.048   4.800
55258W        W20738  21.665  18.183   2.843
55259W        W20739  25.111  15.775  12.456
55260W        W20740  38.882  41.836   1.876
55261W        W20741  40.383  16.072  14.786
55262W        W20742  20.135   0.382   0.933
55263W        W20743  32.954   8.741  13.890
55264W        W20744  42.288  14.757  13.317
55265W        W20745  35.951  11.271   2.252
55266W        W20746  23.168  35.097   4.613
55267W        W20747  14.636  15.181  13.375
55268W        W20748  36.436  44.460  10.080
55269W        W20749  25.106   9.255  14.335
55270W        W20750  22.247  28.023  11.589
55271W        W20751   9.711   2.396  12.382
55272W        W20752  39.832  20.606   3.792
55273W        W20753   5.381  26.192  14.396
55274W        W20754  14.104  30.925  13.967
55275W        W20755   6.343  33.525  12.910
55276W        W20756  14.740  31.534  14.392
55277W        W20757   3.816  25.080   3.166
55278W        W20758  20.207  14.791   3.684
55279W        W20759  16.178  15.807   0.305
55280W        W20760   5.298   7.787   2.796
55281W        W20761  39.881  34.529   1.840
55282W        W20762  42.782   2.265  14.425
55283W        W20763   2.440  25.028  13.002
55284W        W20764  41.504  13.761  12.924
55285W        W20765  39.860   2.465   1.712
55286W        W20766  18.789   9.658   1.904
55287W        W20767   2.381  37.536   1.313
55288W        W20768   3.875  39.318   1.698
55289W        W20769  25.605  29.424   4.170
55290W        W20770  26.130  37.857  10.986
55291W        W20771  16.319  13.620   1.769
55292W        W20772  20.161  31.904  12.884
55293W        W20773   0.804  11.153   3.197
55294W        W20774  31.964  11.347   0.419
55295W        W20775  14.294  34.082   4.695
55296W        W20776  23.663   2.228   1.910
55297W        W20777  40.444  12.695   3.361
55298W        W20778  30.454  20.261  11.052
55299W        W20779  13.623  40.512   2.865
55300W        W20780   9.782   7.308   2.352
55301W        W20781   4.707  41.459   3.317
55302W        W20782  40.440  22.538   4.300
55303W        W20783   2.308  31.905   1.751
55304W        W20784  25.697  20.548  14.003
55305W        W20785  22.717  40.514  12.932
55306W        W20786  36.966  35.459   0.844
55307W        W20787   6.715   4.810   0.441
55308W        W20788  29.553  25.161  14.306
55309W        W20789  43.004  41.034   4.793
55310W        W20790  44.816  40.044   2.269
55311W        W20791  27.121  17.746   3.383
55312W        W20792  25.476  26.958  14.854
55313W        W20793  32.946  20.743   2.320
55314W        W20794   1.284  26.152  11.565
55315W        W20795   1.471   4.204  11.586
55316W        W20796  23.678  27.131  12.003
55317W        W20797  12.152  10.344   0.882
55318W        W20798   8.764  43.512  10.524
55319W        W20799  32.041   7.324  12.008
55320W        W20800  17.106  15.745   2.178
55321W        W20801  28.136  19.573  14.794
55322W        W20802  37.366  30.916  13.509
55323W        W20803  28.021   5.738  12.864
55324W        W20804  11.757   8.212  14.960
55325W        W20805   4.787  41.922   4.146
55326W        W20806  23.621  20.187   1.722
55327W        W20807   4.361  26.574  13.001
55328W        W20808   8.384   3.345  13.970
55329W        W20809  22.009  26.969   4.242
55330W        W20810  12.643  42.358   3.699
55331W        W20811   2.276  42.345   2.352
55332W        W20812   5.244  11.724  10.572
55333W        W20813  17.680  39.939   1.777
55334W        W20814  37.016   0.958  12.009
55335W        W20815  42.798  14.640  10.516
55336W        W20816  27.195  33.611  11.483
55337W        W20817  17.767   2.885   3.294
55338W        W20818  31.026  38.052   4.764
55339W        W20819   4.253  10.324  14.922
55340W        W20820  22.155  35.879  14.891
55341W        W20821   2.878  18.159  12.823
55342W        W20822   1.891  13.190   4.709
55343W        W20823  21.158  27.574  12.919
55344W        W20824  17.105   3.828  13.311
55345W        W20825  36.399   1.854   1.218
55346W        W20826  27.528  42.978   3.758
55347W        W20827   1.834  26.690   2.879
55348W        W20828  42.855   3.252   1.850
55349W        W20829  44.762  23.189  12.501
55350W        W20830  23.506  43.983  14.374
55351W        W20831   7.289  17.263  13.876
55352W        W20832  40.455  20.151  12.376
55353W        W20833   8.207  23.178   0.481
55354W        W20834  21.067  32.006   0.338
55355W        W20835   6.349   1.238  13.485
55356W        W20836  36.856  35.867   1.443
55357W        W20837  38.827  27.004  11.887
55358W        W20838  41.927  40.017  11.040
55359W        W20839  18.725  22.073   4.838
55360W        W20840  12.635   8.368  12.385
55361W        W20841  20.220  13.263   1.428
55362W        W20842   5.716  12.227   0.946
55363W        W20843   9.840  24.571  14.465
55364W        W20844  39.541   6.776  12.087
55365W        W20845  40.854   3.283  11.994
55366W        W20846  35.440  22.109  14.460
55367W        W20847  42.004  34.084   4.211
55368W        W20848   9.254   8.772  12.507
55369W        W20849   1.942  42.797   2.266
55370W        W20850  34.370   5.731   2.283
55371W        W20851   6.399   2.411  11.059
55372W        W20852  24.570  14.614   2.199
55373W        W20853   1.408   4.887   0.341
55374W        W20854  37.398  39.351  13.868
55375W        W20855   6.230   4.355  14.911
55376W        W20856   5.930  16.190  10.917
55377W        W20857  37.886  17.798  14.944
55378W        W20858  20.099  40.382   4.724
55379W        W20859   2.937   8.891   2.186
55380W        W20860  26.622  41.034   2.363
55381W        W20861  26.071  24.661  11.857
55382W        W20862  11.828  29.582   2.664
55383W        W20863   1.385  42.848   4.729
55384W        W20864  12.627   8.168   3.221
55385W        W20865  11.229  43.821   1.365
55386W        W20866  10.672   0.476   2.825
55387W        W20867  39.980  12.701  11.125
55388W        W20868  21.126  42.889  12.383
55389W        W20869   1.446  19.252   4.600
55390W        W20870  10.213  25.696  14.912
55391W        W20871  16.159  14.339   1.304
55392W        W20872  13.687   5.334   3.375
55393W        W20873   3.741  36.928  10.955
55394W        W20874   3.945  33.097  13.060
55395W        W20875  44.316   7.336   4.238
55396W        W20876   1.329  21.176  14.307
55397W        W20877  24.099  19.653  12.419
55398W        W20878   4.757  39.919  10.576
55399W        W20879  19.246  10.752   4.819
55400W        W20880   7.332  43.464   0.378
55401W        W20881  34.461  17.572  14.916
55402W        W20882   0.406  35.387   2.196
55403W        W20883   8.697  16.748  13.893
55404W        W20884   6.245   2.346   1.913
55405W        W20885  24.139   1.370   4.712
55406W        W20886  15.161  35.388   4.799
55407W        W20887  21.604   7.217  14.915
55408W        W20888  34.430  44.491  12.040
55409W        W20889  12.654  33.607  12.478
55410W        W20890  15.653  40.391   1.834
55411W        W20891  43.504  39.540  12.922
55412W        W20892  10.870  20.223   1.849
55413W        W20893  44.011   9.661  13.418
55414W        W20894  39.423  11.173   4.236
55415W        W20895  19.567  33.886  13.535
55416W        W20896  20.147  19.267   2.235
55417W        W20897  18.051   3.862   2.781
55418W        W20898  15.597  15.715  14.332
55419W        W20899  32.635   8.175   1.220
55420W        W20900  26.077  31.427  13.018
55421W        W20901  24.143   7.377   2.843
55422W        W20902   6.391  19.048  13.374
55423W        W20903   4.832  26.137   4.721
55424W        W20904  39.906  39.318  10.439
55425W        W20905  18.578  41.911   4.234
55426W        W20906  33.922  44.789  10.516
55427W        W20907  19.760  14.601   4.655
55428W        W20908  27.096  13.717   1.345
55429W        W20909  40.826  31.632   3.846
55430W        W20910   5.199  21.592   2.228
55431W        W20911  16.771  25.184   0.955
55432W        W20912  41.425  18.106  14.926
55433W        W20913  41.944   7.666   3.291
55434W        W20914  21.088  30.089  11.885
55435W        W20915   7.678  13.225   2.738
55436W        W20916  24.014  36.001   1.311
55437W        W20917  43.990  36.357   2.804
55438W        W20918  11.842  36.074   4.162
55439W        W20919   5.308  18.264   1.781
55440W        W20920  43.278  21.065   3.694
55441W        W20921   6.393  38.377  12.889
55442W        W20922  13.287  40.030   1.379
55443W        W20923   2.392  34.904  12.873
55444W        W20924  37.488  10.175   1.873
55445W        W20925  16.687  42.502   4.298
55446W        W20926  36.425   6.816  14.367
55447W        W20927   7.347  39.054   1.242
55448W        W20928  34.082  28.585  10.971
55449W        W20929  22.026  19.247  12.864
55450W        W20930  38.535  27.015   0.888
55451W        W20931  21.635  15.199   1.795
55452W        W20932  15.613  24.159  14.313
55453W        W20933  26.497   2.840   4.316
55454W        W20934  39.023  34.482   3.793
55455W        W20935  39.971  27.165  12.923
55456W        W20936  28.563  24.202   0.276
55457W        W20937  37.986  37.434   0.321
55458W        W20938   7.178   8.698  14.807
55459W        W20939  12.716  24.197  14.783
55460W        W20940   5.379   2.835  12.890
55461W        W20941  35.541  43.349   1.820
55462W        W20942  35.891  27.455   4.239
55463W        W20943  35.538  12.158  12.849
55464W        W20944  13.180   9.658   2.385
55465W        W20945  37.379  27.558   0.424
55466W        W20946  19.741  15.172   4.166
55467W        W20947   3.245  37.898   1.323
55468W        W20948  30.506   1.322   4.353
55469W        W20949  40.438  22.632   4.637
55470W        W20950  11.754   2.470   3.703
55471W        W20951   9.367   7.244   0.398
55472W        W20952   1.920  27.076   1.799
55473W        W20953   0.931   1.272  12.429
55474W        W20954  26.664  22.039  12.058
55475W        W20955   4.255  33.454   2.827
55476W        W20956  16.717  10.761   2.405
55477W        W20957  23.072  32.060   0.778
55478W        W20958  30.619  32.023  10.536
55479W        W20959   0.833   0.258   3.382
55480W        W20960  13.346  32.083   1.355
55481W        W20961  36.432  10.290  14.494
55482W        W20962  38.909   7.285   4.160
55483W        W20963  17.150   4.314   0.933
55484W        W20964  31.931  29.598  14.875
55485W        W20965  36.057  37.846  13.384
55486W        W20966   3.353  12.655   0.868
55487W        W20967   2.941  27.984  14.791
55488W        W20968  36.854  30.089   2.293
55489W        W20969  24.504  22.596   2.840
55490W        W20970  28.996  18.787  14.895
55491W        W20971   1.303   6.215   2.866
55492W        W20972  30.924   2.359  11.471
55493W        W20973   6.875  42.445   2.777
55494W        W20974  16.673  34.542  12.350
55495W        W20975   1.744  44.810   0.933
55496W        W20976  36.420  21.528   3.286
55497W        W20977  18.562  26.208  13.058
55498W        W20978  16.261  37.926   2.275
55499W        W20979  44.358  13.214  14.340
55500W        W20980   1.942  36.349  13.956
55501W        W20981  16.159  40.317  10.593
55502W        W20982  39.032   9.660  11.596
55503W        W20983  36.898  40.898  13.964
55504W        W20984  37.361  34.080   3.188
55505W        W20985  12.687  19.681  14.414
55506W        W20986   7.671  26.559   3.339
55507W        W20987  11.797  16.126   0.401
55508W        W20988  12.135  27.196   4.122
55509W        W20989   0.416  29.068  11.937
55510W        W20990  34.989   1.336   4.832
55511W        W20991   6.813  20.097  12.465
55512W        W20992  15.818  24.672  11.940
55513W        W20993  44.867  25.103  13.042
55514W        W20994  27.623  30.481   1.867
55515W        W20995  27.947  15.585  12.364
55516W        W20996  15.680  16.779   0.853
55517W        W20997  42.409  20.076   4.194
55518W        W20998   5.790  35.909   1.738
55519W        W20999  22.503  11.795  14.904
55520W        W21000  44.973  10.632   3.843
55521W        W21001   7.690  15.696   5.214
55522W        W21002   4.878  11.247   0.892
55523W        W21003  19.178   8.235   3.184
55524W        W21004  37.875  19.111  13.795
55525W        W21005   2.755  32.972   3.707
55526W        W21006  14.159  12.738  12.934
55527W        W21007   4.288  40.043   0.425
55528W        W21008  27.604  22.085   4.682
55529W        W21009  35.920   7.231   2.289
55530W        W21010  11.647  43.399   2.682
55531W        W21011  29.949  37.062   4.775
55532W        W21012  32.031  19.253   4.144
55533W        W21013  33.987  13.337   1.359
55534W        W21014   9.676   5.832   0.256
55535W        W21015  34.991   0.386  13.451
55536W        W21016  34.074  16.134  13.823
55537W        W21017  21.732  15.808  10.422
55538W        W21018   8.239  24.672  11.584
55539W        W21019  25.583  41.527  11.119
55540W        W21020  40.025  42.955   4.224
55541W        W21021  26.046  10.164  10.420
55542W        W21022  18.676  13.217   4.621
55543W        W21023   8.686  22.700  12.345
55544W        W21024  23.500  22.682  12.979
55545W        W21025  14.169  44.852   4.210
55546W        W21026  27.014  14.248  13.499
55547W        W21027  37.985  42.971   0.279
55548W        W21028  40.923  36.523  11.604
55549W        W21029  35.992   3.916   2.662
55550W        W21030   1.883  13.330  14.816
55551W        W21031  40.498   4.296  12.393
55552W        W21032  39.878  28.000  12.579
55553W        W21033   3.915  30.932   1.290
55554W        W21034  21.142   2.442  14.379
55555W        W21035  37.432   5.195   0.461
55556W        W21036   2.279  18.585  12.445
55557W        W21037  44.802  24.506   3.833
55558W        W21038  38.075   7.300  12.413
55559W        W21039  15.284  30.636  12.096
55560W        W21040  19.652  19.041   1.300
55561W        W21041   1.283  43.942  13.362
55562W        W21042   5.302  21.642  12.882
55563W        W21043  23.654  27.655  10.917
55564W        W21044  23.521  38.856  11.585
55565W        W21045  41.993  20.061  12.472
55566W        W21046  40.507  33.078   2.306
55567W        W21047  25.032  10.758  14.831
55568W        W21048  16.773  32.508  11.062
55569W        W21049   0.416  18.715  11.570
55570W        W21050  32.492  37.000  12.463
55571W        W21051  11.846  13.764  14.469
55572W        W21052   9.232  16.625   4.254
55573W        W21053   6.824  24.563   4.658
55574W        W21054  17.148   3.358   4.836
55575W        W21055   9.258  39.866   1.370
55576W        W21056  10.829  17.659   1.915
55577W        W21057   2.230   8.205   3.146
55578W        W21058  17.155  16.714   4.696
55579W        W21059  16.763  21.542  11.591
55580W        W21060  42.971   1.483   4.740
55581W        W21061  16.749  35.969  13.818
55582W        W21062  16.690  39.921   1.431
55583W        W21063  12.310   7.375  11.549
55584W        W21064   5.866   6.846   4.167
55585W        W21065  11.302  36.455   1.862
55586W        W21066  10.156  20.204  13.803
55587W        W21067   9.352  18.072   4.246
55588W        W21068   6.193   2.334  10.514
55589W        W21069   6.814   1.823  10.939
55590W        W21070  34.410  33.444   4.231
55591W        W21071  23.055  31.467  12.835
55592W        W21072   6.749   6.416  13.433
55593W        W21073   8.883  22.148   1.444
55594W        W21074   1.429  29.447  10.495
55595W        W21075  39.528  27.030   2.703
55596W        W21076  35.041  26.208  10.630
55597W        W21077  41.897   0.935  13.383
55598W        W21078  31.414  26.115   0.932
55599W        W21079  22.685  14.621  11.430
55600W        W21080  26.508  26.976  12.059
55601W        W21081  23.064   7.892   1.821
55602W        W21082   0.908  38.390   4.249
55603W        W21083  34.615   6.922  13.488
55604W        W21084  44.905  24.648   3.324
55605W        W21085   8.686  44.965  13.452
55606W        W21086  35.012  33.417   4.304
55607W        W21087  27.111  42.008  10.427
55608W        W21088  18.560  39.525   4.823
55609W        W21089  31.625  36.540  12.874
55610W        W21090  33.956  37.052   0.319
55611W        W21091  41.805  40.006   0.354
55612W        W21092  43.872   0.911   3.727
55613W        W21093  15.114  26.138  11.611
55614W        W21094   7.175  28.550   1.392
55615W        W21095  12.143   1.298   3.276
55616W        W21096   0.449  32.061   2.693
55617W        W21097  38.833  18.660  12.394
55618W        W21098   5.786  31.583   2.879
55619W        W21099  27.181  36.012  11.921
55620W        W21100  43.796  43.846  11.081
55621W        W21101  39.850  39.323   2.784
55622W        W21102  42.306  33.534   0.799
55623W        W21103  21.521  17.087  11.446
55624W        W21104  10.694  18.057   1.340
55625W        W21105  26.481  40.478   0.383
55626W        W21106  37.017  28.455  12.032
55627W        W21107  37.400  20.764   0.357
55628W        W21108  19.552  44.968   3.779
55629W        W21109   0.362  35.363   4.827
55630W        W21110  15.609   1.849  13.896
55631W        W21111  17.103  35.001  14.792
55632W        W21112  44.956  15.222  10.574
55633W        W21113   3.936  35.080   5.598
55634W        W21114  31.534  13.715   1.796
55635W        W21115  17.235   7.774   4.826
55636W        W21116  27.667  18.133  13.033
55637W        W21117  13.135  22.251   2.380
55638W        W21118  31.945  15.267   3.834
55639W        W21119  11.324  23.013   1.254
55640W        W21120  39.859  24.000   1.782
55641W        W21121  11.749   5.257   4.240
55642W        W21122   6.796  10.843   0.926
55643W        W21123  35.548  21.522   3.674
55644W        W21124  16.690  44.398   1.430
55645W        W21125  44.858  29.168  13.425
55646W        W21126  31.083   2.961  12.989
55647W        W21127  34.435   4.338  10.417
55648W        W21128  36.906  33.389   3.855
55649W        W21129  35.079  25.476  13.400
55650W        W21130  39.430  15.733   0.905
55651W        W21131  16.179  38.334   3.146
55652W        W21132  35.483  30.443   3.834
55653W        W21133  26.139  27.588   1.933
55654W        W21134  10.743  29.590   0.892
55655W        W21135  22.580  25.983   2.665
55656W        W21136  15.579  15.781   2.810
55657W        W21137  44.411  14.680  13.901
55658W        W21138  20.705  29.024   4.656
55659W        W21139  12.708  24.072  11.104
55660W        W21140  44.330   8.198  14.375
55661W        W21141  26.979  26.194   0.361
55662W        W21142  43.471   3.909  11.442
55663W        W21143   5.789  40.995   1.427
55664W        W21144  30.437  30.498  11.124
55665W        W21145  31.934  12.139   1.743
55666W        W21146  39.350  28.522  13.859
55667W        W21147  35.477  30.937   1.768
55668W        W21148  13.310  10.258  14.390
55669W        W21149   3.228   4.722  13.964
55670W        W21150  15.700  31.133  10.643
55671W        W21151  30.974  13.608  11.375
55672W        W21152  32.927  38.008   4.312
55673W        W21153  13.200   1.436   4.647
55674W        W21154  43.855  20.612  11.604
55675W        W21155   0.823  34.415  10.948
55676W        W21156  28.114  31.644  10.547
55677W        W21157  40.451  31.003   2.406
55678W        W21158  13.228  16.806   0.413
55679W        W21159  34.442  33.581  12.031
55680W        W21160  24.500   2.913   1.881
55681W        W21161  36.399  39.481  11.396
55682W        W21162  32.533   0.436  14.827
55683W        W21163  19.084  23.511  12.974
55684W        W21164  14.142   2.796   2.755
55685W        W21165  21.041  28.062  11.609
55686W        W21166  44.493  33.545  11.431
55687W        W21167  27.179  32.924  12.909
55688W        W21168   3.869  17.198  14.913
55689W        W21169  17.245  24.995  13.813
55690W        W21170  34.552  41.537   1.856
55691W        W21171   6.415  14.623  13.513
55692W        W21172  19.133   1.839   2.350
55693W        W21173  15.099  39.052   4.251
55694W        W21174  44.358  27.071  14.030
55695W        W21175   8.843  41.804   2.188
55696W        W21176  19.042   2.401   0.855
55697W        W21177  37.565  17.170   0.476
55698W        W21178  43.273  34.371  12.090
55699W        W21179  44.007  13.253   0.839
55700W        W21180   4.839  40.894   4.303
55701W        W21181   2.427  34.039   1.292
55702W        W21182  10.687  14.685   1.811
55703W        W21183  17.692  27.569  13.801
55704W        W21184  15.095  15.742   2.829
55705W        W21185  36.894   4.445  13.942
55706W        W21186   1.864  12.259   0.825
55707W        W21187   6.345  23.557   2.664
55708W        W21188  43.004  25.584   5.181
55709W        W21189   1.474  23.139  11.007
55710W        W21190   1.275  10.248  12.064
55711W        W21191  10.805  19.742  14.942
55712W        W21192  38.393  10.808   4.675
55713W        W21193  25.117  41.960  12.989
55714W        W21194  24.071   8.901   0.476
55715W        W21195  29.526  33.931  13.496
55716W        W21196  19.534  19.775  10.905
55717W        W21197  32.072  44.878  13.325
55718W        W21198  24.041  25.497   2.237
55719W        W21199   3.324   7.819  11.600
55720W        W21200  12.119   6.767   4.170
55721W        W21201  11.211  35.970  13.008
55722W        W21202  14.739  19.619  14.374
55723W        W21203   8.312   0.900  10.487
55724W        W21204  37.522  43.861   0.402
55725W        W21205  35.060  22.148  11.929
55726W        W21206  34.060  22.694   0.322
55727W        W21207  38.003  17.735  13.359
55728W        W21208  30.440  36.857   2.903
55729W        W21209  21.545  43.360  13.412
55730W        W21210   8.659  15.308  11.586
55731W        W21211   3.243   8.657  13.009
55732W        W21212   5.886  37.043  11.091
55733W        W21213  22.612  23.682   2.781
55734W        W21214  42.832  28.617  13.963
55735W        W21215  16.780  30.471   3.270
55736W        W21216  10.678  41.510   3.765
55737W        W21217  33.563  32.431  11.023
55738W        W21218   8.731   1.467   0.270
55739W        W21219  37.507  42.451   1.257
55740W        W21220   8.851  43.770  12.837
55741W        W21221  18.088  18.740  10.453
55742W        W21222   1.251  21.653  14.877
55743W        W21223  44.371   1.412   0.867
55744W        W21224  27.476   7.242   3.701
55745W        W21225  14.601  42.784  13.966
55746W        W21226  40.412   6.238   1.763
55747W        W21227   4.918  42.786   3.778
55748W        W21228   0.906  19.273  11.988
55749W        W21229  34.902  36.008  14.394
55750W        W21230  21.601  26.089  11.127
55751W        W21231   6.216  23.046  12.549
55752W        W21232  22.593   8.363  11.610
55753W        W21233  42.927  11.743  10.505
55754W        W21234  41.363  17.182   1.368
55755W        W21235  34.399  21.675   3.224
55756W        W21236  21.705  33.465   2.365
55757W        W21237  43.429  12.329  12.086
55758W        W21238  32.391  41.861   2.214
55759W        W21239  16.610  20.253  14.446
55760W        W21240  36.998  18.122  12.012
55761W        W21241  41.521  14.607  11.584
55762W        W21242   5.294  40.504  14.009
55763W        W21243  16.201  36.065  10.450
55764W        W21244  33.064  28.485   3.794
55765W        W21245  28.063  36.493  14.384
55766W        W21246  31.048   7.296   1.446
55767W        W21247  31.430   2.425  12.068
55768W        W21248  26.532  30.523   4.343
55769W        W21249  13.664  37.345  13.932
55770W        W21250  13.782  33.978   3.347
55771W        W21251   7.865  24.723   3.343
55772W        W21252  39.433  12.720  12.893
55773W        W21253  31.940   7.906   5.210
55774W        W21254  25.615  19.689  13.939
55775W        W21255  20.127   5.230  11.395
55776W        W21256   9.358  18.155   4.767
55777W        W21257  44.835  12.146  14.893
55778W        W21258  42.909  28.504   3.194
55779W        W21259  28.983   0.447  11.102
55780W        W21260  26.973  32.629  13.466
55781W        W21261  37.025  29.608   1.286
55782W        W21262   5.844  32.525  12.093
55783W        W21263  12.147   2.318   4.774
55784W        W21264  32.636  25.049  13.996
55785W        W21265  16.157  14.603   2.275
55786W        W21266  29.016  33.051   0.250
55787W        W21267   5.704  33.457  11.979
55788W        W21268  27.067  15.702   9.960
55789W        W21269  38.539  35.895  11.064
55790W        W21270  26.191   7.193   2.797
55791W        W21271  35.484  39.484   1.913
55792W        W21272  29.460  28.498  14.433
55793W        W21273   1.341  42.421   3.189
55794W        W21274   2.247  19.642   2.351
55795W        W21275   5.788  24.076  11.019
55796W        W21276  12.820   7.797  12.423
55797W        W21277   3.929  27.529  12.962
55798W        W21278  21.607  40.405  12.012
55799W        W21279  26.578  21.544  13.482
55800W        W21280  11.665  33.118  14.871
55801W        W21281  15.120  33.526  12.039
55802W        W21282  19.606   4.743   4.690
55803W        W21283  15.752  29.587  12.038
55804W        W21284   8.291   5.283  14.027
55805W        W21285  36.465  26.070   3.184
55806W        W21286  22.049   6.798  11.008
55807W        W21287  14.678  15.172   3.791
55808W        W21288   3.277  19.113   4.315
55809W        W21289  40.972   8.307   4.793
55810W        W21290  36.464  13.812  13.393
55811W        W21291  39.013  39.493   1.272
55812W        W21292   6.230  37.559   3.765
55813W        W21293   2.266   0.339   1.427
55814W        W21294  33.093  11.859  13.508
55815W        W21295  22.531  39.051  13.470
55816W        W21296  39.031  10.177   3.256
55817W        W21297  17.124  38.372   3.809
55818W        W21298  30.056  36.906   2.748
55819W        W21299  41.856  33.032  12.573
55820W        W21300  42.309  28.522   4.626
55821W        W21301  37.429   0.249  13.394
55822W        W21302  25.673  27.022  14.286
55823W        W21303  26.584  41.462  14.896
55824W        W21304  14.761   3.728   4.775
55825W        W21305  33.991  13.631  12.460
55826W        W21306  31.934   1.861   1.229
55827W        W21307  31.413  23.097  10.617
55828W        W21308  31.997  41.799  14.483
55829W        W21309  21.186  15.194   4.702
55830W        W21310  13.350   2.754  12.991
55831W        W21311   3.222  43.994  10.558
55832W        W21312  15.167  40.539   0.748
55833W        W21313  38.009  38.855   3.314
55834W        W21314  17.305  33.440  13.545
55835W        W21315  24.174  32.942   4.678
55836W        W21316  15.098   4.437  10.615
55837W        W21317  34.011  41.503   2.793
55838W        W21318  24.624  40.467   2.398
55839W        W21319  41.838  20.679  13.929
55840W        W21320  14.834   8.342   0.243
55841W        W21321   6.763  15.209   2.358
55842W        W21322  44.988  37.932  10.445
55843W        W21323  30.132   2.388   4.713
55844W        W21324  30.446  21.647  11.869
55845W        W21325  10.247  29.030   3.386
55846W        W21326  34.471   9.783   2.255
55847W        W21327  31.919  30.157   2.336
55848W        W21328  30.508  33.519  14.963
55849W        W21329  11.227  38.927  14.893
55850W        W21330  10.647  19.542  12.339
55851W        W21331  17.679  16.733  13.485
55852W        W21332  41.786   9.734  11.102
55853W        W21333  28.601  37.861  11.607
55854W        W21334  26.190   0.259  14.419
55855W        W21335  38.912  27.079  11.074
55856W        W21336  42.786  35.075  10.937
55857W        W21337  18.635  27.511  11.023
55858W        W21338  40.529   6.417  14.897
55859W        W21339  12.282  20.741  13.912
55860W        W21340   3.394   2.854   2.827
55861W        W21341  24.154  21.043  14.774
55862W        W21342  39.939  43.381   2.888
55863W        W21343   3.719   2.758   2.776
55864W        W21344  25.633  19.572   0.433
55865W        W21345   4.385  29.569   2.821
55866W        W21346  39.877   8.163   4.755
55867W        W21347  41.872   9.364   1.279
55868W        W21348  31.016  11.286   3.240
55869W        W21349  17.726  41.996   4.173
55870W        W21350  24.703   7.892  14.008
55871W        W21351  23.527  40.417  14.451
55872W        W21352   7.294  24.572   2.708
55873W        W21353  25.534   5.790   1.905
55874W        W21354  24.024  36.031  13.346
55875W        W21355   9.653   6.276  13.360
55876W        W21356  42.893  44.383  11.022
55877W        W21357   2.849  36.976   1.398
55878W        W21358  10.171  43.802  10.947
55879W        W21359  40.855   8.789  12.573
55880W        W21360  20.171  32.550  12.971
55881W        W21361  42.301  38.555   3.736
55882W        W21362   2.812   6.307  11.556
55883W        W21363   4.889   1.458  13.847
55884W        W21364  22.161   8.884  12.910
55885W        W21365  26.012   5.859   0.335
55886W        W21366  16.235  43.818  14.962
55887W        W21367   0.394  17.284   2.860
55888W        W21368  39.927  31.063  12.444
55889W        W21369   5.270  19.136  11.945
55890W        W21370  14.708  16.086  14.032
55891W        W21371   1.414  21.519  10.421
55892W        W21372  21.598  37.524   0.463
55893W        W21373  23.082  18.564   4.256
55894W        W21374  37.454  24.674  14.966
55895W        W21375  33.558  41.385  14.330
55896W        W21376  36.472  28.079   3.853
55897W        W21377  38.563  26.100   1.310
55898W        W21378  23.607  14.209   3.770
55899W        W21379  18.584  33.080   0.250
55900W        W21380   6.716  10.651  12.880
55901W        W21381  37.045  16.703   0.350
55902W        W21382  21.113  40.535  11.597
55903W        W21383  44.466  19.258  12.447
55904W        W21384  11.210   9.318   3.178
55905W        W21385  35.506  36.445   1.859
55906W        W21386   2.869  29.997  12.411
55907W        W21387   4.861  42.945   4.163
55908W        W21388  19.562  40.009   3.838
55909W        W21389  21.019  44.982   2.868
55910W        W21390  15.169  12.198   9.452
55911W        W21391  25.508  40.358  10.907
55912W        W21392  34.586  12.618  12.038
55913W        W21393  32.896  23.526   1.229
55914W        W21394  35.419  36.966   3.352
55915W        W21395  18.635   7.367   3.843
55916W        W21396  34.977  12.186   1.861
55917W        W21397  44.281  11.634   4.296
55918W        W21398  31.532  24.607  14.828
55919W        W21399  14.793   1.776  11.993
55920W        W21400   3.944   7.252   1.277
55921W        W21401  21.629  35.957   2.881
55922W        W21402  43.022  20.541  12.430
55923W        W21403  13.628  16.219  14.491
55924W        W21404  27.459  21.231   0.477
55925W        W21405  17.201   2.301  12.545
55926W        W21406  41.489  17.098  10.948
55927W        W21407  19.052   8.753   1.243
55928W        W21408   5.729  23.183   3.276
55929W        W21409  39.884  12.797  12.361
55930W        W21410  43.394   8.795   5.301
55931W        W21411  20.749  44.267  11.943
55932W        W21412  36.841  42.447  14.428
55933W        W21413  22.101  28.127  13.452
55934W        W21414  10.257  38.984   3.210
55935W        W21415   0.356  18.562   1.924
55936W        W21416  37.521  20.274  12.846
55937W        W21417  16.180  39.848  14.478
55938W        W21418  14.770  22.706   1.277
55939W        W21419   3.407  10.343   3.364
55940W        W21420  25.170  43.332   4.686
55941W        W21421  39.929  18.557  13.812
55942W        W21422  31.409  18.222   3.653
55943W        W21423  31.144  17.263  13.323
55944W        W21424  36.069  30.084   1.246
55945W        W21425  35.971  14.179  12.500
55946W        W21426   5.798  42.779   3.653
55947W        W21427  14.758  12.292   3.868
55948W        W21428  11.631  10.807   1.703
55949W        W21429  11.692  43.375  13.798
55950W        W21430  29.997  19.259   0.433
55951W        W21431  31.547   1.251  10.979
55952W        W21432   1.964  37.964   3.160
55953W        W21433  24.147  14.673  10.420
55954W        W21434   6.767  13.322  14.929
55955W        W21435  27.177   0.831   2.859
55956W        W21436  40.473  32.001  11.997
55957W        W21437  29.074  16.303   1.214
55958W        W21438  40.881   2.856  10.155
55959W        W21439   2.880   3.448   1.257
55960W        W21440  32.916  11.317  12.040
55961W        W21441   5.275   0.846   4.657
55962W        W21442   7.786  43.877   3.831
55963W        W21443  18.075  15.236  12.401
55964W        W21444  21.667  37.563  14.960
55965W        W21445  44.007  36.506   1.224
55966W        W21446  28.055   6.752   4.249
55967W        W21447  13.190  26.629  13.966
55968W        W21448  30.602  22.216   2.853
55969W        W21449  35.596  38.512  14.439
55970W        W21450  36.001  10.322   0.825
55971W        W21451   7.702  38.530  13.359
55972W        W21452   7.704   4.818  11.550
55973W        W21453  15.769  19.068   2.403
55974W        W21454   0.802  34.470   2.210
55975W        W21455  42.961  30.986  14.969
55976W        W21456  23.148  19.130   4.689
55977W        W21457   7.261  39.356  14.895
55978W        W21458  42.781  17.727   0.426
55979W        W21459  35.043  26.668  14.775
55980W        W21460  28.500  11.708  14.876
55981W        W21461  44.785  17.567   3.341
55982W        W21462   9.778  39.418   1.280
55983W        W21463  14.807   7.260  12.563
55984W        W21464   5.851  12.699  13.317
55985W        W21465  38.038  22.627   4.817
55986W        W21466  33.520  21.533  10.411
55987W        W21467   3.919  36.877  10.161
55988W        W21468  16.113  41.409  10.951
55989W        W21469   8.875   9.221   0.276
55990W        W21470   0.389  16.597  14.974
55991W        W21471  28.583  13.223   1.382
55992W        W21472  15.648  44.503   4.611
55993W        W21473  24.168  32.505  12.057
55994W        W21474  11.635   9.703  10.622
55995W        W21475   4.404  12.671  11.399
55996W        W21476  16.172   3.257  10.154
55997W        W21477   2.949  42.948   2.897
55998W        W21478  34.449   4.712   0.810
55999W        W21479  29.519  37.527  14.023
56000W        W21480   0.395  31.145   4.165
56001W        W21481  29.096  34.605   2.872
56002W        W21482  26.458  17.176   2.239
56003W        W21483   9.286  12.314  10.591
56004W        W21484  33.421  20.729   4.145
56005W        W21485  36.922  31.500  14.795
56006W        W21486  21.603  31.622   0.325
56007W        W21487  39.931  18.055  14.861
56008W        W21488   1.765  13.757   2.772
56009W        W21489  33.603  17.103  12.531
56010W        W21490  20.163  29.554   2.354
56011W        W21491  28.091  33.026   1.429
56012W        W21492  24.604  35.892  14.491
56013W        W21493   1.403  12.615  11.895
56014W        W21494  43.956  39.379  10.576
56015W        W21495  32.607  19.144   3.643
56016W        W21496  42.482   2.877   0.371
56017W        W21497  19.680   7.912   5.103
56018W        W21498   3.728  42.827  12.519
56019W        W21499  34.564  38.384   1.854
56020W        W21500  39.915  33.506  12.416
56021W        W21501   3.824   6.760   2.229
56022W        W21502  36.993  41.839   2.292
56023W        W21503   7.345  10.688   4.229
56024W        W21504  31.112   3.750   3.371
56025W        W21505   1.404  33.388  13.361
56026W        W21506  11.677   5.276   1.865
56027W        W21507  38.328   6.809  13.481
56028W        W21508  42.352   0.297  11.022
56029W        W21509  41.446  15.633   4.187
56030W        W21510  22.156  15.190  11.899
56031W        W21511  20.117  30.097  13.348
56032W        W21512  29.446   2.735  11.004
56033W        W21513  22.691  11.161  14.347
56034W        W21514   0.288  41.986   4.165
56035W        W21515   4.909   6.357   3.642
56036W        W21516  37.844  29.036   4.662
56037W        W21517   5.754  12.831  11.945
56038W        W21518  42.287   1.456  11.466
56039W        W21519  17.263   9.885  10.120
56040W        W21520   1.843  19.556   3.843
56041W        W21521  10.871   8.184   1.449
56042W        W21522  18.660   6.280   4.626
56043W        W21523  42.778  23.136  11.045
56044W        W21524   4.341  32.440  14.811
56045W        W21525  34.517  42.424  14.514
56046W        W21526  24.106  36.907  13.794
56047W        W21527  40.015  35.956  13.799
56048W        W21528  28.655  11.743  13.428
56049W        W21529  28.177   2.356  12.094
56050W        W21530  15.680  41.326   3.357
56051W        W21531  23.529  30.437  14.993
56052W        W21532   8.774  29.077  11.025
56053W        W21533  25.037  26.654  12.572
56054W        W21534  21.745  20.585   1.763
56055W        W21535  44.418  29.661   0.387
56056W        W21536  19.099  13.158  12.922
56057W        W21537  34.450  38.352  12.062
56058W        W21538  41.328  34.944   2.733
56059W        W21539  20.661   4.441   4.353
56060W        W21540  17.599  16.231   3.775
56061W        W21541  21.578  42.516  11.590
56062W        W21542  27.999  30.418   3.836
56063W        W21543  43.986  23.597   4.237
56064W        W21544  42.806  43.392  14.816
56065W        W21545  11.754   5.242   2.902
56066W        W21546  12.299   2.281   1.835
56067W        W21547   2.432  38.481  10.962
56068W        W21548  26.072  24.576  12.435
56069W        W21549  44.976   4.753  10.968
56070W        W21550  33.523  16.247   4.121
56071W        W21551  12.706  28.993   1.874
56072W        W21552   8.887  36.531   1.276
56073W        W21553  39.045  36.391   0.860
56074W        W21554  10.736  23.511   2.360
56075W        W21555   2.242  34.589  12.050
56076W        W21556   7.235  29.538  10.943
56077W        W21557  38.337  43.914  14.274
56078W        W21558   3.781  25.631  14.361
56079W        W21559  12.705   3.326   3.865
56080W        W21560   5.355  15.605  12.493
56081W        W21561  34.428  29.584  13.505
56082W        W21562  24.142  13.163  11.593
56083W        W21563  36.424  31.064  12.425
56084W        W21564  23.681  36.404  13.426
56085W        W21565  21.517  21.116  11.046
56086W        W21566  36.950  35.437  10.959
56087W        W21567  21.750  26.486  13.522
56088W        W21568  12.122  33.927  11.106
56089W        W21569  37.908  35.865  10.091
56090W        W21570   0.263   3.890  11.927
56091W        W21571   1.838  36.000   2.400
56092W        W21572  43.891  17.085   4.620
56093W        W21573  31.601  17.776   1.819
56094W        W21574  11.695  41.335  14.927
56095W        W21575  24.189   8.876  14.950
56096W        W21576  14.762  37.397   2.842
56097W        W21577  17.625  43.803   3.823
56098W        W21578  31.956  41.908  13.026
56099W        W21579  44.975  23.502   1.819
56100W        W21580  37.836  18.726  13.922
56101W        W21581  19.743  40.986  14.334
56102W        W21582  34.511  25.669   4.280
56103W        W21583  29.464   2.894  12.878
56104W        W21584  19.093  20.053  14.907
56105W        W21585  24.548   8.748  10.644
56106W        W21586  33.465  15.326   4.790
56107W        W21587   9.172  22.614   2.718
56108W        W21588  28.666  12.224  14.903
56109W        W21589  23.513  32.498   4.247
56110W        W21590  42.336   4.345  11.609
56111W        W21591   4.913   4.430   2.264
56112W        W21592  44.430   0.860  13.891
56113W        W21593  13.808  30.106  12.864
56114W        W21594  31.035  32.085   2.806
56115W        W21595  16.101   6.782  10.461
56116W        W21596   6.830  16.236  13.959
56117W        W21597  27.198  12.769   1.776
56118W        W21598   3.788  17.750   1.900
56119W        W21599  27.025  41.021   2.724
56120W        W21600  28.537  32.901   0.954
56121W        W21601  39.917  18.072   2.311
56122W        W21602  43.343  18.105  11.494
56123W        W21603  38.000  23.054  14.967
56124W        W21604  24.614  27.100   4.157
56125W        W21605  29.121  10.831  12.835
56126W        W21606  18.716   2.423  12.825
56127W        W21607  11.275   4.722   2.224
56128W        W21608   6.343  26.547  13.347
56129W        W21609  32.532  34.421   2.894
56130W        W21610  33.025  43.456   1.443
56131W        W21611  14.243  21.240  11.869
56132W        W21612  41.891  24.493   2.741
56133W        W21613   9.806  10.800   2.870
56134W        W21614  28.592  44.377   0.415
56135W        W21615  30.569  12.141  14.282
56136W        W21616  22.685   6.784   5.145
56137W        W21617  22.104  44.870  14.500
56138W        W21618   0.811  29.492  14.975
56139W        W21619   7.195  19.630   0.874
56140W        W21620  16.720   3.325   2.317
56141W        W21621  36.872  32.434  12.871
56142W        W21622  37.950  38.887   3.864
56143W        W21623  29.958  14.802  13.954
56144W        W21624  30.594  10.286   0.892
56145W        W21625  38.390  28.975   4.216
56146W        W21626  10.820  18.143   4.668
56147W        W21627  42.960  27.141  11.545
56148W        W21628  36.947  44.481  10.972
56149W        W21629   2.830  40.532  10.641
56150W        W21630  35.088   7.263   1.401
56151W        W21631  12.357  27.171   1.927
56152W        W21632   7.884  13.751   1.788
56153W        W21633  38.904  29.053   4.599
56154W        W21634  18.165  16.241  12.879
56155W        W21635  43.292  17.763   4.834
56156W        W21636   9.667   2.925  13.384
56157W        W21637  43.838  36.434  12.862
56158W        W21638  19.158  28.137  12.464
56159W        W21639   5.384   7.670  11.423
56160W        W21640  31.568  33.024  13.368
56161W        W21641  22.023  28.460   0.472
56162W        W21642   3.420  26.964  14.279
56163W        W21643  12.655  31.911   5.232
56164W        W21644  39.880  35.431  14.979
56165W        W21645  11.803   6.684  13.307
56166W        W21646  10.304  26.500   0.887
56167W        W21647  15.667  20.677  14.357
56168W        W21648   9.803   7.725  14.405
56169W        W21649  36.496   9.690   3.327
56170W        W21650  35.585  24.493  12.973
56171W        W21651  18.648  17.221  10.921
56172W        W21652   0.940  26.969   2.287
56173W        W21653  33.391  32.028   3.736
56174W        W21654  36.564  33.970  11.566
56175W        W21655   9.269  42.929   4.811
56176W        W21656  29.670   4.380  10.496
56177W        W21657  21.135  24.505   1.705
56178W        W21658  20.158  14.795   1.367
56179W        W21659  29.148   2.387  12.948
56180W        W21660  33.011  14.214  10.956
56181W        W21661  41.007   6.881   3.833
56182W        W21662   9.691  11.233   4.313
56183W        W21663  17.301  35.560  12.078
56184W        W21664  27.995  44.320   4.132
56185W        W21665  40.840   2.324  11.099
56186W        W21666  38.495  30.535  14.902
56187W        W21667  18.140  21.234  13.467
56188W        W21668  26.632  19.278   4.742
56189W        W21669  27.456  14.625  13.504
56190W        W21670  23.666  44.882   9.962
56191W        W21671  11.286  25.059   2.387
56192W        W21672   6.298  32.046   4.801
56193W        W21673  21.073  26.970   2.225
56194W        W21674  19.206   2.741  12.422
56195W        W21675  40.950  44.837   0.458
56196W        W21676   3.425  34.574   5.620
56197W        W21677  32.612  19.239   4.615
56198W        W21678  27.649   9.801  11.965
56199W        W21679  22.561  23.996   3.256
56200W        W21680  28.105  19.100   0.948
56201W        W21681  37.479  14.645  11.470
56202W        W21682  43.938  40.910  12.092
56203W        W21683  18.553  19.159   1.836
56204W        W21684  29.434  38.370  11.381
56205W        W21685  22.531   4.747  13.321
56206W        W21686   7.335  29.101   1.916
56207W        W21687  29.130  39.483   1.413
56208W        W21688  26.155   0.484   5.249
56209W        W21689  42.824  11.220   1.761
56210W        W21690   1.427  29.559   4.599
56211W        W21691  28.553  11.127   0.799
56212W        W21692  21.063  31.043  11.087
56213W        W21693  20.109  29.467   1.386
56214W        W21694  24.113  43.495  10.447
56215W        W21695  42.031  42.815  10.965
56216W        W21696   5.864  29.994  11.053
56217W        W21697  14.651  40.426   2.710
56218W        W21698  12.244  18.113  11.028
56219W        W21699  34.950  17.648  14.478
56220W        W21700  17.123  44.883  14.773
56221W        W21701   0.926  36.433  11.124
56222W        W21702  18.569   7.305   1.774
56223W        W21703  12.186  38.035  14.312
56224W        W21704  25.546   2.305  12.823
56225W        W21705  20.541  30.025  14.782
56226W        W21706  41.344   4.389   2.401
56227W        W21707  33.066  35.526  12.373
56228W        W21708  24.634  28.988   4.173
56229W        W21709  37.469  43.328  12.914
56230W        W21710  43.946  12.360  11.403
56231W        W21711  13.271  39.460  11.610
56232W        W21712  27.508  18.770   4.715
56233W        W21713  41.021   5.717   0.474
56234W        W21714   5.691  43.435  12.008
56235W        W21715   2.428  22.098  13.368
56236W        W21716  18.747   3.948   2.186
56237W        W21717  14.099  42.882  14.365
56238W        W21718  39.402  21.188   4.325
56239W        W21719  36.366  23.161  12.917
56240W        W21720   1.851  11.232  11.513
56241W        W21721   8.687   2.722  11.478
56242W        W21722  22.527  36.953  11.411
56243W        W21723  37.871  20.089  11.602
56244W        W21724  14.602  24.064   4.778
56245W        W21725  36.397  43.290  13.841
56246W        W21726   6.339  13.843   3.295
56247W        W21727  30.126  44.282   1.228
56248W        W21728  33.074  34.429   0.337
56249W        W21729  41.459  26.163   3.308
56250W        W21730  35.565  21.186  14.513
56251W        W21731  24.651  16.624   1.354
56252W        W21732  11.697  19.625  13.495
56253W        W21733  19.743  31.147  13.319
56254W        W21734   9.802  33.921   0.294
56255W        W21735  28.609  33.598   2.741
56256W        W21736  23.012  32.437   4.172
56257W        W21737  21.547   4.264  11.957
56258W        W21738  16.094  26.032  13.875
56259W        W21739   4.384  40.880  11.045
56260W        W21740  10.651   2.832   4.608
56261W        W21741  22.704   8.391   3.376
56262W        W21742  44.760  22.609   3.356
56263W        W21743  31.916  20.218  10.978
56264W        W21744  30.949   3.338   4.702
56265W        W21745  25.588   8.805  14.281
56266W        W21746   7.320  21.215  12.017
56267W        W21747  34.484  35.035  11.937
56268W        W21748  11.317  15.107   3.822
56269W        W21749  26.623  34.903   3.721
56270W        W21750  42.467  30.450  12.360
56271W        W21751   9.299  22.582   4.631
56272W        W21752   3.427  19.145   3.304
56273W        W21753  26.529  26.688   4.751
56274W        W21754  44.826  22.693   1.872
56275W        W21755  24.591  20.575   1.272
56276W        W21756   0.336   1.880   2.282
56277W        W21757  44.415  10.294  12.913
56278W        W21758  19.133  32.094   3.343
56279W        W21759  38.407  22.180   2.888
56280W        W21760  22.243  23.608  12.853
56281W        W21761  36.089  14.712   4.184
56282W        W21762  32.013  28.624  10.633
56283W        W21763   9.773  33.542   1.723
56284W        W21764   2.232  41.412   0.919
56285W        W21765   2.312  26.639  12.341
56286W        W21766   0.414  14.674   1.922
56287W        W21767  26.134  11.203  12.419
56288W        W21768  18.584  19.122   3.325
56289W        W21769  37.523   3.768   2.893
56290W        W21770  37.076  36.965  12.077
56291W        W21771   2.723  34.003   3.809
56292W        W21772  29.548   0.280   1.754
56293W        W21773  18.296  18.755  13.967
56294W        W21774  21.035  33.922   1.791
56295W        W21775   6.211  17.700   1.283
56296W        W21776   8.735  32.118   2.877
56297W        W21777  21.736   5.195  10.908
56298W        W21778  16.771   4.938  12.962
56299W        W21779   7.393  27.099   1.337
56300W        W21780  26.981  39.945  13.959
56301W        W21781  19.704  38.053   1.288
56302W        W21782  32.093  31.547  13.990
56303W        W21783   3.453  34.443  10.535
56304W        W21784  13.164  16.109   2.237
56305W        W21785  29.975  13.631   1.384
56306W        W21786  39.950   4.826  11.565
56307W        W21787  44.757  39.854  11.904
56308W        W21788  11.799   3.759   0.873
56309W        W21789  37.475  31.575   4.681
56310W        W21790  44.914   4.939  14.960
56311W        W21791   0.820  44.798  10.910
56312W        W21792  41.442   6.877   4.253
56313W        W21793  32.586  27.462  13.982
56314W        W21794  38.990  42.908   2.409
56315W        W21795  38.061  37.909  11.116
56316W        W21796  43.379  43.911   4.279
56317W        W21797   5.342   4.310   2.267
56318W        W21798  32.606   9.829   3.785
56319W        W21799  42.485   9.843  14.275
56320W        W21800  39.405  41.415   4.230
56321W        W21801  22.154   7.313   3.344
56322W        W21802  24.021  29.156   2.395
56323W        W21803  32.550   2.230   2.178
56324W        W21804  21.645  21.669  12.569
56325W        W21805   2.891  36.397   4.639
56326W        W21806   4.412  35.515   4.285
56327W        W21807   1.412  34.533  14.283
56328W        W21808  21.107  15.715   4.315
56329W        W21809  25.062  24.543  12.372
56330W        W21810  27.952   7.873   1.726
56331W        W21811  24.184  12.318  12.975
56332W        W21812   6.715  12.819   2.717
56333W        W21813  29.046  40.409   1.873
56334W        W21814  10.861  37.381   5.125
56335W        W21815  35.494  30.990   0.425
56336W        W21816  38.936   1.952  11.454
56337W        W21817  30.584   0.831   0.792
56338W        W21818  10.636  21.702   3.826
56339W        W21819   2.261  39.926  13.441
56340W        W21820  14.718  26.593  13.910
56341W        W21821  13.182  10.815   1.714
56342W        W21822  15.579  15.239   0.919
56343W        W21823   8.809   9.275  12.364
56344W        W21824  40.485  37.845  12.922
56345W        W21825  42.886  35.392   4.272
56346W        W21826   1.462  11.642   2.746
56347W        W21827  36.386  39.328   2.691
56348W        W21828  18.246   2.395   3.174
56349W        W21829  27.508  19.765  10.515
56350W        W21830  32.495  14.205  10.036
56351W        W21831  25.532  43.380   0.843
56352W        W21832  40.991  20.228   3.783
56353W        W21833  14.624  27.646   4.350
56354W        W21834  33.430   5.827   4.712
56355W        W21835  40.495  23.130   4.318
56356W        W21836  36.586  42.831   4.157
56357W        W21837  23.664  40.543   0.292
56358W        W21838  12.334  17.195  14.852
56359W        W21839  24.661  17.101   0.907
56360W        W21840  22.537  32.609   2.233
56361W        W21841  13.216  25.519  10.890
56362W        W21842  19.585  34.554  13.835
56363W        W21843  12.285  17.267  13.892
56364W        W21844  31.077  18.755   3.710
56365W        W21845   9.775   4.211   0.803
56366W        W21846   0.484  29.997  10.503
56367W        W21847   1.328  11.730   2.370
56368W        W21848  28.076  10.217   3.781
56369W        W21849   2.961  35.365   1.767
56370W        W21850  42.934  16.683  10.082
56371W        W21851  22.523  24.537   3.329
56372W        W21852   2.851   7.242  10.900
56373W        W21853  18.136  43.494  14.945
56374W        W21854  10.877  13.645  11.122
56375W        W21855  43.313  39.834  14.459
56376W        W21856  44.965   6.198   2.861
56377W        W21857  39.861  11.761   2.868
56378W        W21858  18.190  38.548   3.168
56379W        W21859  36.476  44.883  11.877
56380W        W21860  20.742  40.883  11.094
56381W        W21861  28.463  20.586   2.862
56382W        W21862  29.115  13.242   3.695
56383W        W21863  39.944  20.764   2.344
56384W        W21864  21.691  23.174  11.372
56385W        W21865  42.439  40.447   1.403
56386W        W21866  20.249   4.737  12.505
56387W        W21867  33.109   7.718  11.539
56388W        W21868  30.074   7.788   4.747
56389W        W21869  29.648  33.027   2.366
56390W        W21870  36.865  10.803   2.221
56391W        W21871  25.180  21.714   4.644
56392W        W21872  14.267  37.562  12.041
56393W        W21873  16.307  19.053   3.865
56394W        W21874  33.524  27.491   3.717
56395W        W21875  12.362  43.765   2.886
56396W        W21876  26.672  28.953   0.791
56397W        W21877  10.306  24.654   1.815
56398W        W21878   6.329  24.722  11.997
56399W        W21879  14.636   0.308  13.376
56400W        W21880  18.289  43.344   1.423
56401W        W21881  30.545  27.543  13.895
56402W        W21882   9.839  21.069   4.344
56403W        W21883   3.944  44.458   4.765
56404W        W21884  28.567  40.543   1.916
56405W        W21885  13.336  14.296   2.685
56406W        W21886  40.506  24.504   4.837
56407W        W21887  20.700   3.245   3.724
56408W        W21888   7.683  34.894   1.701
56409W        W21889  18.238  24.502   4.203
56410W        W21890   0.443   2.755   2.709
56411W        W21891  18.095  31.128   1.923
56412W        W21892  39.883  42.011  10.624
56413W        W21893  38.039  13.143   2.346
56414W        W21894   4.231  37.504   4.660
56415W        W21895   9.323  28.030   0.826
56416W        W21896   0.493  15.155  12.420
56417W        W21897  18.093  14.610  11.004
56418W        W21898  29.919  25.099   2.683
56419W        W21899  40.907   2.761  13.528
56420W        W21900  40.324  23.716  10.548
56421W        W21901  40.879   2.260   2.340
56422W        W21902  20.648  32.560  12.470
56423W        W21903   2.453  37.965  10.604
56424W        W21904   8.863  19.602  12.472
56425W        W21905  37.893  36.517  13.036
56426W        W21906  25.049  39.364   1.733
56427W        W21907  15.173   9.872  11.479
56428W        W21908  20.662  41.978  12.525
56429W        W21909  31.030  19.148  12.507
56430W        W21910  10.863  28.025   9.982
56431W        W21911  43.814   6.808  12.939
56432W        W21912  36.884   0.388   1.391
56433W        W21913  18.062  32.502   0.428
56434W        W21914  38.895   6.375  10.611
56435W        W21915  17.229   1.811  11.011
56436W        W21916  30.440  15.242  13.860
56437W        W21917  26.475  23.603  14.291
56438W        W21918  44.283  43.867  12.577
56439W        W21919  44.945  22.243  11.549
56440W        W21920  19.638  38.552   3.280
56441W        W21921  30.502   6.713   1.838
56442W        W21922  28.079  28.938   3.800
56443W        W21923  11.337   7.911  11.376
56444W        W21924  28.459  10.793   4.342
56445W        W21925  36.961   7.767   2.359
56446W        W21926   3.342  10.245   4.192
56447W        W21927  18.763  30.634   3.349
56448W        W21928  38.997  21.594  13.953
56449W        W21929  22.120  38.481  11.546
56450W        W21930  44.266  16.739   4.650
56451W        W21931  28.679  27.104   4.742
56452W        W21932  23.725  37.576  12.863
56453W        W21933  10.671  26.179   1.706
56454W        W21934  34.104  43.446   0.366
56455W        W21935  20.645  15.790   1.877
56456W        W21936  19.724  14.173   3.730
56457W        W21937  35.575  23.680   3.631
56458W        W21938  24.179  24.146   3.156
56459W        W21939   4.858  37.519  12.897
56460W        W21940  11.250  14.201   3.786
56461W        W21941  43.891  36.522   0.479
56462W        W21942  15.089  20.701   2.719
56463W        W21943  43.276  13.817  14.364
56464W        W21944   9.820  28.096  13.436
56465W        W21945  31.003  28.588  11.944
56466W        W21946  13.304  11.781   3.786
56467W        W21947  36.444   9.753  11.127
56468W        W21948   3.445  42.788   2.284
56469W        W21949  42.346  27.138  13.876
56470W        W21950  41.972  33.553  12.981
56471W        W21951  21.083  25.093  13.855
56472W        W21952   3.382   7.399  11.387
56473W        W21953  38.504  11.850  14.939
56474W        W21954   6.706   7.753   0.379
56475W        W21955  25.049   0.743  14.408
56476W        W21956  31.051   8.278   3.244
56477W        W21957  30.531  32.599   3.870
56478W        W21958  17.291  12.341   2.389
56479W        W21959  25.513  41.462   9.980
56480W        W21960  31.462  20.602  11.427
56481W        W21961  26.028   1.461   2.803
56482W        W21962  13.653  25.999   1.217
56483W        W21963  12.122  16.237   0.282
56484W        W21964  12.286  27.121   0.432
56485W        W21965  28.048   6.816  12.882
56486W        W21966  24.060  42.937  14.298
56487W        W21967  33.916  43.806   2.719
56488W        W21968  15.222  28.437  13.830
56489W        W21969  14.267   8.749  14.330
56490W        W21970  11.801  38.883  11.862
56491W        W21971   4.925  43.514  10.460
56492W        W21972  14.698  22.609   0.948
56493W        W21973  35.095   1.330  13.933
56494W        W21974  41.325  10.815   3.372
56495W        W21975  23.536   3.447  13.510
56496W        W21976  19.638  32.442   0.741
56497W        W21977   0.364  19.576  11.108
56498W        W21978  31.454  31.453  11.588
56499W        W21979  44.810  13.792   0.451
56500W        W21980  15.160   6.765   3.756
56501W        W21981  39.830  33.546  11.541
56502W        W21982  40.831   4.736   0.388
56503W        W21983   5.232  33.968  14.472
56504W        W21984  14.638  17.105  11.575
56505W        W21985  18.574  29.660   0.771
56506W        W21986  10.287  33.495   0.463
56507W        W21987  19.674  26.635   3.763
56508W        W21988  44.408   4.780   1.919
56509W        W21989   1.358   0.339   0.833
56510W        W21990  38.482  23.098   0.849
56511W        W21991  38.383  21.675   1.234
56512W        W21992  34.484   8.188  12.388
56513W        W21993   4.807  11.313  13.527
56514W        W21994  26.536  35.911  13.879
56515W        W21995  11.756  15.761  12.848
56516W        W21996  40.540  40.051   0.370
56517W        W21997   4.223  19.778   1.211
56518W        W21998  17.252  30.593   0.769
56519W        W21999  38.932  13.319   4.343
56520W        W22000  29.160  18.082   0.467
56521W        W22001   9.719  11.680  14.865
56522W        W22002  38.847  12.307  13.316
56523W        W22003   3.360  42.977  12.982
56524W        W22004  15.656  23.492   2.800
56525W        W22005  11.675  10.137  13.345
56526W        W22006   7.326   5.877   1.808
56527W        W22007  17.223  22.247  10.503
56528W        W22008  16.789   8.363   4.622
56529W        W22009   5.291  29.965  11.459
56530W        W22010   7.892  36.382  11.973
56531W        W22011  39.431  16.273  11.033
56532W        W22012  32.024  41.303  12.072
56533W        W22013  33.418   9.322   3.259
56534W        W22014  19.741   2.770   4.117
56535W        W22015  23.078  14.763   4.703
56536W        W22016   2.851   1.770  14.027
56537W        W22017  13.182  29.014  14.007
56538W        W22018   7.688  25.604   2.317
56539W        W22019  16.283  28.461  13.852
56540W        W22020   8.879   7.713  14.823
56541W        W22021  34.511  15.632  12.511
56542W        W22022  13.283   8.181  11.456
56543W        W22023  44.442  22.696  14.790
56544W        W22024  20.055  28.151   0.964
56545W        W22025  25.624  17.579  13.405
56546W        W22026  42.926  13.124   3.314
56547W        W22027  35.854  23.999   1.316
56548W        W22028   6.364  25.504   4.157
56549W        W22029   7.375  23.076   2.883
56550W        W22030   8.325   6.730  12.940
56551W        W22031  13.280  37.478   0.824
56552W        W22032  28.005  30.155  13.897
56553W        W22033  28.997   9.712   1.341
56554W        W22034  10.144  17.752  13.317
56555W        W22035  22.519  25.969   3.812
56556W        W22036  25.062  29.069   4.609
56557W        W22037  29.093  18.690   3.686
56558W        W22038  21.226   1.275  12.071
56559W        W22039  41.399  30.014   0.371
56560W        W22040  40.336  27.075   0.389
56561W        W22041  13.316  31.550  12.526
56562W        W22042  44.477  12.625   2.815
56563W        W22043  35.015  13.317  11.467
56564W        W22044  33.128  18.074   1.384
56565W        W22045  17.576  40.423  14.000
56566W        W22046  39.960  43.947   2.712
56567W        W22047   9.666   0.484  11.422
56568W        W22048   8.683  33.103   0.826
56569W        W22049  31.488  22.682  12.486
56570W        W22050   6.710  23.695  12.053
56571W        W22051  31.058  36.393  11.084
56572W        W22052  23.024  27.599   3.361
56573W        W22053  24.981  11.244   3.708
56574W        W22054   5.319   8.781   4.334
56575W        W22055  28.010  21.185   1.910
56576W        W22056  28.510  12.342   2.403
56577W        W22057   2.238  28.983   0.244
56578W        W22058  34.947  25.036  12.973
56579W        W22059  17.227  42.351  14.347
56580W        W22060  39.942   3.790  11.978
56581W        W22061  24.593  30.094  12.390
56582W        W22062  31.623  26.091  10.468
56583W        W22063  23.608  19.654  13.886
56584W        W22064  20.047  30.987  11.538
56585W        W22065  18.622  34.008   9.987
56586W        W22066  38.484  38.515  12.900
56587W        W22067  36.348  38.569  12.371
56588W        W22068  37.515   4.300   1.760
56589W        W22069  14.324   3.281   3.703
56590W        W22070  21.193  14.098   0.902
56591W        W22071  32.023  15.753   1.921
56592W        W22072  21.060   4.726   1.313
56593W        W22073  31.093  31.048   2.695
56594W        W22074   8.796  24.493   1.909
56595W        W22075  39.526  44.990  11.007
56596W        W22076   0.351  21.259  11.886
56597W        W22077  36.357  13.242   4.342
56598W        W22078  15.759  19.283   4.688
56599W        W22079  38.441   6.239  12.062
56600W        W22080  25.483   6.302   0.319
56601W        W22081  20.582  20.142   3.316
56602W        W22082  34.021  19.199  13.933
56603W        W22083  44.010  20.037   0.438
56604W        W22084  43.926  39.457  11.082
56605W        W22085  42.510   8.864  13.914
56606W        W22086  30.051  27.494  14.278
56607W        W22087   9.776  28.953   4.338
56608W        W22088   7.864  27.977   5.231
56609W        W22089   3.410  43.882   2.316
56610W        W22090  10.196  15.739   3.174
56611W        W22091  43.915  24.003  13.327
56612W        W22092  34.496   3.727   1.762
56613W        W22093  43.968   6.321   0.962
56614W        W22094  35.485  42.418  14.354
56615W        W22095  11.856  30.459   4.684
56616W        W22096  35.458  20.698  12.473
56617W        W22097  33.496  23.155   1.399
56618W        W22098  31.578   7.828   1.795
56619W        W22099   5.327  15.227  11.378
56620W        W22100  11.658  21.104   4.302
56621W        W22101   4.353  11.361  13.424
56622W        W22102  41.398   3.245  13.367
56623W        W22103   2.952  20.166   0.765
56624W        W22104  13.703  24.482   1.814
56625W        W22105  26.575  30.911   1.255
56626W        W22106  38.030  30.073  13.422
56627W        W22107  36.912  41.924  10.968
56628W        W22108  23.712  31.099  14.872
56629W        W22109  22.218  16.294  14.415
56630W        W22110  23.091  28.442  14.934
56631W        W22111   5.807   6.691  12.974
56632W        W22112  40.402  37.543   2.392
56633W        W22113  17.269  20.258   4.228
56634W        W22114  36.972  36.041   0.732
56635W        W22115  36.357  10.745  13.931
56636W        W22116  43.902  38.856   0.746
56637W        W22117  21.044   9.769   0.787
56638W        W22118  30.077  15.755  11.936
56639W        W22119  43.980  29.971   4.694
56640W        W22120  37.567  32.081  11.469
56641W        W22121  41.962  22.041  13.965
56642W        W22122   5.382   7.818  14.341
56643W        W22123   9.729  21.094  11.878
56644W        W22124  32.570   5.253  10.604
56645W        W22125  16.176  18.721  14.935
56646W        W22126  37.945   4.722   2.783
56647W        W22127  13.690  17.112  10.992
56648W        W22128  26.580  38.436  11.956
56649W        W22129  21.147   8.372   3.698
56650W        W22130  28.998   0.394  14.403
56651W        W22131  41.929  34.030   0.428
56652W        W22132   8.245  13.686  10.600
56653W        W22133  30.567  28.525  12.066
56654W        W22134  25.131  35.971   1.256
56655W        W22135  34.613  35.520   0.867
56656W        W22136  19.718  18.097   1.305
56657W        W22137  32.433  13.698  14.829
56658W        W22138  40.902  42.427   3.165
56659W        W22139  38.355  28.530  13.462
56660W        W22140  43.471  37.561  13.515
56661W        W22141   4.341   4.254   1.879
56662W        W22142  37.471  32.111  12.032
56663W        W22143  22.169  32.962  13.923
56664W        W22144   6.315   9.679  10.408
56665W        W22145  40.371   8.296  10.500
56666W        W22146  39.441  32.051   1.378
56667W        W22147  17.193  24.174   0.318
56668W        W22148  36.973  19.234  11.865
56669W        W22149  44.804  23.721  12.501
56670W        W22150  43.326  39.840   3.754
56671W        W22151  42.911  26.563  13.468
56672W        W22152   0.278  18.547   3.864
56673W        W22153  30.048  24.605  11.089
56674W        W22154  28.158  28.947   2.741
56675W        W22155   5.806  37.944   0.454
56676W        W22156   7.181  35.444   4.348
56677W        W22157  41.876  16.230   2.311
56678W        W22158  15.309  34.487  13.394
56679W        W22159  31.461   3.891   3.773
56680W        W22160  39.395  13.310   0.849
56681W        W22161  24.144  17.651   3.336
56682W        W22162  26.079  12.722   0.854
56683W        W22163   2.960   2.262  11.994
56684W        W22164  17.779  19.582  10.552
56685W        W22165  41.302  35.505   0.760
56686W        W22166  39.554  16.184  10.443
56687W        W22167  39.336  20.086   2.235
56688W        W22168  38.481  41.293   4.681
56689W        W22169  37.514   6.428  10.445
56690W        W22170  39.340   6.228   1.838
56691W        W22171  31.448  24.160  14.984
56692W        W22172   9.188  29.117  11.989
56693W        W22173  28.613  16.616  10.577
56694W        W22174  23.642  26.054   1.934
56695W        W22175  14.225  22.996   3.175
56696W        W22176  27.057  29.632   4.642
56697W        W22177  11.312  11.641   4.632
56698W        W22178  15.321  40.311  13.399
56699W        W22179  19.208   2.905   3.235
56700W        W22180   4.934  37.579   0.255
56701W        W22181  42.832  37.540  14.902
56702W        W22182   3.255  30.153   2.742
56703W        W22183  21.105  16.208   1.427
56704W        W22184  23.678  15.159  13.064
56705W        W22185  32.040   5.931   2.210
56706W        W22186  12.842  40.922   0.774
56707W        W22187  12.196  40.487   3.722
56708W        W22188  10.786   9.194  14.428
56709W        W22189  20.579   2.420   2.903
56710W        W22190  21.025   9.273   2.744
56711W        W22191  23.003  27.193   3.832
56712W        W22192  18.052   4.289  11.511
56713W        W22193   2.840  36.873   2.194
56714W        W22194  38.982  26.064  12.009
56715W        W22195   4.942  43.942  13.484
56716W        W22196  35.588  42.858  12.433
56717W        W22197  16.092   4.867   2.291
56718W        W22198   1.894  33.047  11.381
56719W        W22199   9.387   0.920  11.397
56720W        W22200  34.495  30.989  14.970
56721W        W22201  25.683  21.683  12.573
56722W        W22202  10.176  35.995   3.791
56723W        W22203  11.168   8.721  12.849
56724W        W22204   0.809  25.207   4.719
56725W        W22205  16.711  42.389   3.845
56726W        W22206   0.280  38.880   3.310
56727W        W22207   5.311  18.551   3.666
56728W        W22208   3.938  28.128   3.851
56729W        W22209  38.437  12.261  13.983
56730W        W22210  33.619  41.531   1.721
56731W        W22211  23.008  10.197   0.290
56732W        W22212   4.756   7.400   1.846
56733W        W22213  22.153  28.089   2.416
56734W        W22214  18.212  21.108  14.934
56735W        W22215  43.512  18.230   1.445
56736W        W22216  17.159  20.580   0.745
56737W        W22217  36.858  35.510  11.932
56738W        W22218  39.923  22.059   3.668
56739W        W22219   1.829  33.924   0.917
56740W        W22220  24.706  21.119  14.291
56741W        W22221  35.025  15.222   4.648
56742W        W22222   0.854  26.694  10.057
56743W        W22223  35.915   0.933  12.549
56744W        W22224   1.309  20.269  11.922
56745W        W22225  32.939  39.857  14.927
56746W        W22226  22.216   1.892  11.988
56747W        W22227  23.611  44.832   2.825
56748W        W22228  36.091  41.417   0.881
56749W        W22229  18.664   7.773   1.710
56750W        W22230  29.078  15.302   4.667
56751W        W22231  28.637  28.010  12.987
56752W        W22232  18.769  33.112   3.668
56753W        W22233   6.905  38.885  13.347
56754W        W22234  17.673   1.976  10.633
56755W        W22235  16.313  14.634   3.851
56756W        W22236  16.742   2.899   3.684
56757W        W22237  19.149  23.599   1.308
56758W        W22238  19.206   8.833  10.958
56759W        W22239  24.124  11.368  11.105
56760W        W22240   8.720  12.808  14.789
56761W        W22241  18.589  17.259  14.998
56762W        W22242  42.946  17.093  12.017
56763W        W22243  12.852   8.321   0.434
56764W        W22244  36.901  38.033  13.038
56765W        W22245  36.974  14.285   1.277
56766W        W22246  44.398  16.164  12.555
56767W        W22247   4.255   9.320   4.805
56768W        W22248  26.093   4.847   2.399
56769W        W22249  42.309   4.387   3.669
56770W        W22250  15.809   0.784  10.924
56771W        W22251   8.877  12.247   1.404
56772W        W22252  15.664  24.148   3.322
56773W        W22253  43.957  15.127  12.092
56774W        W22254  42.842  34.066  11.587
56775W        W22255  30.018  43.309  10.640
56776W        W22256  29.099  33.474  11.508
56777W        W22257   0.835  29.502   3.188
56778W        W22258  23.143  22.609   3.787
56779W        W22259  25.496  28.669   1.428
56780W        W22260  31.620  11.688   4.215
56781W        W22261  34.464  24.520   1.776
56782W        W22262  14.616  36.464   1.842
56783W        W22263  32.000  18.552  13.866
56784W        W22264   8.254   1.888  11.950
56785W        W22265  11.245  43.417   0.795
56786W        W22266  29.947  33.379  13.044
56787W        W22267  44.926  43.487   4.316
56788W        W22268   5.428   9.677   4.116
56789W        W22269  31.016   3.395   2.338
56790W        W22270  19.268  39.449   2.349
56791W        W22271  28.541   4.762  11.984
56792W        W22272  11.220  27.471  14.331
56793W        W22273   3.862  40.506  10.468
56794W        W22274   0.808  28.068  11.121
56795W        W22275  25.047   2.734   2.378
56796W        W22276  14.630   0.350  12.096
56797W        W22277   2.885  37.977   4.810
56798W        W22278  36.517  26.999  12.553
56799W        W22279  42.318  34.881  12.950
56800W        W22280  15.192  25.965   1.242
56801W        W22281  21.639  37.968  14.371
56802W        W22282  24.513   7.860   4.119
56803W        W22283  27.037  43.482  14.364
56804W        W22284  34.984  32.510   2.350
56805W        W22285  10.300  30.647  12.534
56806W        W22286  41.435   6.691  10.547
56807W        W22287   5.725  35.975   0.737
56808W        W22288  25.112  40.980  10.427
56809W        W22289  18.692   5.825  11.897
56810W        W22290  16.792   4.741   1.389
56811W        W22291   5.371  26.001   1.837
56812W        W22292  10.219  19.110  13.817
56813W        W22293  18.065  23.694  11.561
56814W        W22294   5.858  40.000   2.406
56815W        W22295  29.432   8.212   4.759
56816W        W22296  18.564  32.636  11.583
56817W        W22297  37.400   4.713   4.797
56818W        W22298  19.561  37.442  14.833
56819W        W22299   8.659  11.141  14.887
56820W        W22300   0.348  33.977   2.195
56821W        W22301   1.428  12.308   1.783
56822W        W22302   3.432  11.680   4.597
56823W        W22303  43.951  13.735   2.736
56824W        W22304   5.699   3.453   2.203
56825W        W22305  25.689  22.695   2.242
56826W        W22306  26.516  24.050   4.819
56827W        W22307   1.873  31.510  13.018
56828W        W22308  26.122  17.748  10.627
56829W        W22309   6.331  16.567   3.809
56830W        W22310  26.090  22.561  10.978
56831W        W22311  14.313  32.579   5.128
56832W        W22312  15.724   9.816   1.433
56833W        W22313  30.928  38.956   3.801
56834W        W22314  10.164  22.534  14.895
56835W        W22315  22.174   8.663  11.484
56836W        W22316  14.130  34.946  12.388
56837W        W22317  15.202  36.398   0.773
56838W        W22318  11.336  17.253   2.379
56839W        W22319  33.495  39.865  10.888
56840W        W22320  39.878  42.404  11.461
56841W        W22321  22.587  10.302   0.409
56842W        W22322  33.490   0.972   4.182
56843W        W22323  40.462   9.887   4.700
56844W        W22324   1.264  19.650   3.184
56845W        W22325  37.534  14.708   4.217
56846W        W22326  42.329  17.633  11.509
56847W        W22327  16.764  12.173   0.452
56848W        W22328  39.046  18.244   3.386
56849W        W22329  25.045   8.171  14.330
56850W        W22330  13.316  21.197  13.877
56851W        W22331  35.023  25.611   1.251
56852W        W22332  33.442  28.598  10.474
56853W        W22333  29.117  35.422  13.445
56854W        W22334  35.424  42.003  12.095
56855W        W22335  10.700  42.917   3.780
56856W        W22336  41.308   7.287   5.148
56857W        W22337  34.604  15.184  12.576
56858W        W22338   1.402  13.262   1.906
56859W        W22339  33.445  17.114  14.819
56860W        W22340  39.040   2.783   4.710
56861W        W22341   7.772   3.358  11.426
56862W        W22342  18.694  20.125  13.835
56863W        W22343  10.824   5.780  11.525
56864W        W22344  36.456  19.575  14.931
56865W        W22345  22.734  27.053  14.284
56866W        W22346  32.574   1.779   4.668
56867W        W22347   5.346  35.590   4.732
56868W        W22348  35.938  11.292   0.894
56869W        W22349  15.181  10.828  13.352
56870W        W22350  33.053  33.552   2.392
56871W        W22351  39.001  11.640  13.536
56872W        W22352   2.252   7.716   4.299
56873W        W22353  33.102  39.885   2.775
56874W        W22354   6.303   1.826   1.264
56875W        W22355  11.201  26.587   1.740
56876W        W22356  39.466  10.644   3.360
56877W        W22357   8.196   3.353   4.311
56878W        W22358   7.270  29.579  11.867
56879W        W22359   3.274  44.004  12.345
56880W        W22360   1.741  26.564  11.454
56881W        W22361  10.290  17.750  11.543
56882W        W22362   3.900  24.642   4.339
56883W        W22363  35.049  23.649   9.949
56884W        W22364  20.752  20.554   3.659
56885W        W22365  12.207  14.333  14.275
56886W        W22366   4.348  44.839   0.445
56887W        W22367  28.540  41.477  10.997
56888W        W22368  35.857  26.693  11.583
56889W        W22369  16.579  35.980   0.294
56890W        W22370   5.196  40.525   2.215
56891W        W22371  12.257   3.453  10.903
56892W        W22372  44.260  38.834   2.796
56893W        W22373  43.335  21.149  11.036
56894W        W22374  10.275  43.305  12.902
56895W        W22375  17.121   3.916   0.961
56896W        W22376  40.520  10.283   3.219
56897W        W22377  34.498  21.074   1.915
56898W        W22378  39.442  40.844  11.044
56899W        W22379  39.917   6.348  11.387
56900W        W22380  12.224  26.577  13.923
56901W        W22381  33.459  29.569   1.386
56902W        W22382  17.743   3.353   1.406
56903W        W22383  31.934  28.004   1.438
56904W        W22384  31.456  35.081   0.375
56905W        W22385   5.733  26.612  10.430
56906W        W22386  34.562  14.778  13.535
56907W        W22387  27.069   0.311  11.025
56908W        W22388  16.118  41.891  13.952
56909W        W22389  11.652   8.820   2.727
56910W        W22390   5.854  37.482  10.628
56911W        W22391  19.749   0.868  13.010
56912W        W22392  19.112  40.879   1.908
56913W        W22393  16.711  40.511   0.809
56914W        W22394  31.118  19.229   2.733
56915W        W22395   0.298  20.171   2.723
56916W        W22396   4.719  34.895   4.803
56917W        W22397  22.658  34.565   4.759
56918W        W22398  40.520  16.292   3.769
56919W        W22399  34.455  24.696   4.611
56920W        W22400  13.296  33.395   3.200
56921W        W22401  17.294  34.557  11.444
56922W        W22402  10.686  16.740   1.739
56923W        W22403  12.784  29.500   2.414
56924W        W22404  22.501  11.325   0.768
56925W        W22405  17.750   9.856   4.283
56926W        W22406  40.824  15.152   4.710
56927W        W22407  10.862  19.095  14.396
56928W        W22408  28.645  44.339  11.592
56929W        W22409  27.156  25.084  14.472
56930W        W22410  29.964  39.541  14.489
56931W        W22411  10.342  33.533   1.356
56932W        W22412  24.666  33.458  12.491
56933W        W22413  11.183   3.393  14.490
56934W        W22414  35.595  12.853   0.913
56935W        W22415  37.582   5.748  13.435
56936W        W22416  37.564  34.578  14.376
56937W        W22417  34.918  20.531  14.465
56938W        W22418   1.970  37.437   2.365
56939W        W22419  30.651   1.360  11.382
56940W        W22420  40.934  11.647   0.845
56941W        W22421   8.897  22.019  14.499
56942W        W22422   8.766  10.831   3.309
56943W        W22423  17.630  10.675   3.711
56944W        W22424  23.548  15.611   2.795
56945W        W22425  10.346  37.060   3.165
56946W        W22426  30.142  42.793   0.844
56947W        W22427  30.021  39.036   9.572
56948W        W22428  42.925  21.050  13.366
56949W        W22429  36.887   1.480   2.865
56950W        W22430  40.952  36.017  14.841
56951W        W22431  14.101   5.255  14.795
56952W        W22432  28.031   3.334   2.355
56953W        W22433  32.528  22.225   2.332
56954W        W22434   5.381  42.885  11.857
56955W        W22435  15.249   0.379   4.742
56956W        W22436   2.886  29.656   0.434
56957W        W22437  11.285  14.609   3.750
56958W        W22438  40.341  37.972  14.943
56959W        W22439  38.958  26.478   1.724
56960W        W22440  40.886  37.421  14.398
56961W        W22441  39.960   2.898  14.984
56962W        W22442  41.459  37.917  12.019
56963W        W22443  28.511  36.991   2.836
56964W        W22444  33.941  29.525  10.507
56965W        W22445  17.107  26.951  12.979
56966W        W22446  20.656  36.876   2.828
56967W        W22447  12.213  29.454  14.869
56968W        W22448  26.683  17.164   1.443
56969W        W22449  35.076  11.674  11.920
56970W        W22450  23.719  10.792  13.013
56971W        W22451  31.643  17.082  13.933
56972W        W22452  36.077  20.725   1.866
56973W        W22453  25.584  29.481  13.547
56974W        W22454  38.495  12.137  14.460
56975W        W22455  42.349  14.715   3.734
56976W        W22456  17.283  33.111   4.115
56977W        W22457  35.889  36.977  10.447
56978W        W22458  19.582  35.392   4.835
56979W        W22459  35.511  29.502   3.820
56980W        W22460  43.842  21.255   0.797
56981W        W22461   8.691   1.356  13.942
56982W        W22462  33.109  13.256  12.032
56983W        W22463  11.811  23.499  12.531
56984W        W22464  30.655  43.482   1.695
56985W        W22465  33.100  29.929  12.899
56986W        W22466  30.423  41.385  11.529
56987W        W22467  29.067  18.272   2.378
56988W        W22468   1.927  13.815   0.830
56989W        W22469   7.274   8.243   1.702
56990W        W22470  27.689  44.349  14.767
56991W        W22471  44.326  33.577  12.853
56992W        W22472   8.307   9.754   0.770
56993W        W22473  21.666   7.212   2.310
56994W        W22474   3.716  32.403  13.472
56995W        W22475  16.588  13.692  11.426
56996W        W22476  10.146  36.447  11.865
56997W        W22477  24.492  26.970   0.252
56998W        W22478   7.796   8.369   3.656
56999W        W22479  12.851   6.256   3.802
57000W        W22480  14.676  10.651   1.284
57001W        W22481  40.480  39.412   3.774
57002W        W22482  24.059  14.684   3.850
57003W        W22483  23.709  20.146   2.757
57004W        W22484  26.562   4.702   1.925
57005W        W22485  27.543  11.713  13.484
57006W        W22486  28.470  42.441   3.151
57007W        W22487  14.801  26.062  12.992
57008W        W22488  21.220   4.764   2.751
57009W        W22489   8.675  29.160  13.943
57010W        W22490  23.991  42.806   2.735
57011W        W22491  21.032  22.149  10.080
57012W        W22492   1.288  37.987   2.752
57013W        W22493  20.720  14.682   4.199
57014W        W22494  26.010   7.673   0.730
57015W        W22495   7.792  28.179   4.814
57016W        W22496   1.782  11.741  12.567
57017W        W22497   0.271  30.533  14.870
57018W        W22498  33.561  11.269   3.261
57019W        W22499  31.078  16.273  12.061
57020W        W22500  39.987   2.965   1.225
57021W        W22501  33.546  23.555   2.331
57022W        W22502  35.924  40.888  13.791
57023W        W22503  34.405  14.326  11.411
57024W        W22504   2.796  39.447   4.607
57025W        W22505  34.416  16.577  14.491
57026W        W22506  27.956  23.045  11.959
57027W        W22507  33.444   5.769   1.439
57028W        W22508  12.689   4.770  12.957
57029W        W22509  24.605  42.450  12.048
57030W        W22510   0.295  32.413  14.465
57031W        W22511  12.276  30.975  14.002
57032W        W22512  10.732  26.481  14.436
57033W        W22513  28.680  26.515   1.740
57034W        W22514  16.649  36.530  10.049
57035W        W22515  39.834  15.232   0.381
57036W        W22516  38.071  37.019   4.256
57037W        W22517  30.918   0.478   1.704
57038W        W22518  24.539  44.284  14.831
57039W        W22519  13.314  22.649  10.449
57040W        W22520  40.504  44.466  14.862
57041W        W22521   2.357  30.643  13.062
57042W        W22522  26.163   8.160  13.920
57043W        W22523  21.683   1.895  11.542
57044W        W22524  43.911  15.584   2.249
57045W        W22525   7.682  24.487  12.465
57046W        W22526  23.593  30.932  11.577
57047W        W22527  42.482  25.127   2.183
57048W        W22528  38.925   0.965   0.755
57049W        W22529  16.150  15.690  13.876
57050W        W22530   7.908  18.105   4.693
57051W        W22531  26.507  11.131  14.393
57052W        W22532  34.991  39.910   3.821
57053W        W22533   9.882  37.862  14.514
57054W        W22534  25.172  26.529  12.875
57055W        W22535  44.414   0.385   4.607
57056W        W22536  30.560  34.526  14.313
57057W        W22537  29.454   5.387   4.691
57058W        W22538  14.316  41.825  11.121
57059W        W22539  31.446  11.713   0.359
57060W        W22540   6.734  39.970  14.800
57061W        W22541  21.251  16.286  12.524
57062W        W22542   3.848  15.165   2.815
57063W        W22543  15.249   4.847   3.864
57064W        W22544  33.975  20.148   1.824
57065W        W22545  15.118  27.636  12.044
57066W        W22546   1.778   2.755   0.767
57067W        W22547  41.833  34.979  14.328
57068W        W22548  17.698  38.485   2.717
57069W        W22549  16.302  14.212  13.482
57070W        W22550  44.862  21.604   3.820
57071W        W22551  38.476  16.282   4.811
57072W        W22552  22.166  43.452   9.565
57073W        W22553  37.960  19.726  12.834
57074W        W22554   8.293  43.871  14.914
57075W        W22555   8.684   5.430   4.659
57076W        W22556  18.223   4.744  10.902
57077W        W22557  14.133  12.342  13.527
57078W        W22558  21.115  25.709   0.966
57079W        W22559  31.505  30.510   4.234
57080W        W22560  23.715  19.168   2.868
57081W        W22561  21.206  18.239   3.194
57082W        W22562   2.327  27.471  11.873
57083W        W22563   5.205  25.507   2.811
57084W        W22564  20.544   5.704  14.424
57085W        W22565  18.662  29.583   4.315
57086W        W22566  35.059  44.296   1.867
57087W        W22567   0.407  27.991  10.614
57088W        W22568  40.829  42.484  12.514
57089W        W22569   2.727   0.851  13.896
57090W        W22570  10.812  19.135   2.855
57091W        W22571   5.821  42.483   0.866
57092W        W22572  18.240   5.271  11.553
57093W        W22573  37.335  28.979  13.895
57094W        W22574   3.357  10.281   1.751
57095W        W22575   1.456  24.208  11.004
57096W        W22576  28.490   8.249   4.325
57097W        W22577  15.743  29.636  12.542
57098W        W22578   4.767  38.918  14.455
57099W        W22579  34.415   1.950  13.875
57100W        W22580  35.912   1.413   4.192
57101W        W22581  39.333  32.516  13.001
57102W        W22582  31.049  29.423   2.849
57103W        W22583   3.357  44.891   4.308
57104W        W22584   8.717  32.034  12.045
57105W        W22585  30.483  25.208   2.693
57106W        W22586  31.016  16.704   3.158
57107W        W22587  36.480  17.278  10.558
57108W        W22588  36.031  33.432  11.944
57109W        W22589  28.487  37.952   4.318
57110W        W22590  24.129  44.377   2.755
57111W        W22591  17.787   2.304   4.256
57112W        W22592  23.186   3.336  12.013
57113W        W22593  39.981   1.481  12.074
57114W        W22594  11.314  23.731   1.244
57115W        W22595  31.022  32.434   4.632
57116W        W22596  28.177   0.958   2.235
57117W        W22597   5.366  40.958   4.299
57118W        W22598   5.210  43.378   4.723
57119W        W22599  11.131  23.544   2.326
57120W        W22600  13.651  22.587  14.418
57121W        W22601  20.543  12.331  14.943
57122W        W22602  16.805  27.595  14.886
57123W        W22603  39.983  19.066   2.726
57124W        W22604  38.553  15.272   1.772
57125W        W22605  23.097   4.292   2.892
57126W        W22606  29.429  11.809  13.378
57127W        W22607  19.780  17.785  13.935
57128W        W22608  26.055  27.061   0.936
57129W        W22609  41.509  34.614   4.208
57130W        W22610  23.053  23.140  10.443
57131W        W22611  27.519  41.871  12.360
57132W        W22612  23.570  20.151  14.835
57133W        W22613   8.244  42.390   1.408
57134W        W22614  28.606  42.360  13.059
57135W        W22615   8.840  32.498  11.379
57136W        W22616  32.410  38.355  10.494
57137W        W22617  43.999  14.595   0.767
57138W        W22618  23.206  32.924  11.608
57139W        W22619  44.437  36.466  13.460
57140W        W22620  12.733   7.713  13.332
57141W        W22621   6.726   5.360  11.024
57142W        W22622   9.164  16.155  12.927
57143W        W22623   1.346  41.043  12.065
57144W        W22624  12.765  39.410   2.769
57145W        W22625  33.077  32.913   1.728
57146W        W22626  34.892  32.435  12.953
57147W        W22627  44.951  39.344  11.423
57148W        W22628  14.329   5.310  13.042
57149W        W22629  40.925  40.438  12.445
57150W        W22630   5.784   6.400  14.763
57151W        W22631   8.367   6.261   0.902
57152W        W22632  10.862  15.738  14.437
57153W        W22633  33.604   3.458   1.289
57154W        W22634   0.852  11.346   1.769
57155W        W22635   6.831  28.985   4.796
57156W        W22636  27.135  40.379   1.341
57157W        W22637  43.789  32.892   0.304
57158W        W22638  22.998  23.504  12.829
57159W        W22639  43.861  13.653  14.806
57160W        W22640  39.463   1.818  13.536
57161W        W22641   1.881  44.272  13.415
57162W        W22642  15.820  34.413   2.279
57163W        W22643  36.878  23.132  14.321
57164W        W22644  10.781  14.129   2.293
57165W        W22645  39.023  31.625   3.283
57166W        W22646  10.694   0.855   3.687
57167W        W22647  19.745  31.611   2.328
57168W        W22648   0.402  20.642  13.533
57169W        W22649  35.513  41.896   4.158
57170W        W22650   5.196   9.742  10.487
57171W        W22651  21.544  15.711  12.528
57172W        W22652  13.817  40.314  12.023
57173W        W22653  29.114   6.338  12.351
57174W        W22654   7.295  38.983   3.203
57175W        W22655  20.608  30.450   4.169
57176W        W22656  43.455  23.719   2.670
57177W        W22657   3.730  35.043  14.985
57178W        W22658   1.343  25.024  14.982
57179W        W22659  19.200  36.576   4.688
57180W        W22660  29.531  25.604   0.819
57181W        W22661  32.993  28.628   0.939
57182W        W22662  10.265   1.330   3.358
57183W        W22663  39.418  30.032  10.553
57184W        W22664  12.760  22.533   1.332
57185W        W22665  31.085  14.300   5.115
57186W        W22666   5.702   0.887  10.623
57187W        W22667   1.876  27.461  12.992
57188W        W22668  23.658  13.147   0.252
57189W        W22669  12.716  15.810  10.409
57190W        W22670  33.396  31.428  11.076
57191W        W22671  27.635  30.069   3.827
57192W        W22672  19.659  18.600   3.198
57193W        W22673  44.387  35.579   2.413
57194W        W22674  22.571  15.097  11.500
57195W        W22675  35.561  19.772  12.538
57196W        W22676  20.602  11.632   1.215
57197W        W22677   2.433  20.589   4.752
57198W        W22678  14.796  38.384   4.643
57199W        W22679  30.503  36.025   4.307
57200W        W22680  41.394  36.526   3.798
57201W        W22681  14.285  28.540   4.159
57202W        W22682   7.390  27.454   4.708
57203W        W22683  20.034  28.107   4.318
57204W        W22684  40.020  28.012  11.857
57205W        W22685  19.648   4.711   2.726
57206W        W22686   7.210  15.273   3.368
57207W        W22687  36.949  35.472  10.609
57208W        W22688   4.379  13.304   0.269
57209W        W22689  36.530  30.908   1.230
57210W        W22690  27.130   7.358   2.753
57211W        W22691   7.799  29.601   0.923
57212W        W22692  34.061  41.323  12.833
57213W        W22693   2.327  44.262   2.191
57214W        W22694  27.498  39.042  11.579
57215W        W22695   5.698  24.033   3.738
57216W        W22696  36.922  29.133  11.403
57217W        W22697  19.275  39.060  13.448
57218W        W22698  33.603   6.394   4.768
57219W        W22699  25.635  30.963   1.444
57220W        W22700  13.626  31.995  13.381
57221W        W22701  14.646   8.870  12.878
57222W        W22702  20.626  44.431  13.454
57223W        W22703   0.931  23.656   4.783
57224W        W22704   2.467  41.375  12.484
57225W        W22705  16.775  19.280   1.702
57226W        W22706  27.514   1.819   3.778
57227W        W22707  25.643  21.651   0.792
57228W        W22708   6.704  32.990   4.827
57229W        W22709  35.514  24.558   2.671
57230W        W22710  23.226   0.827  11.418
57231W        W22711   3.720   5.245  13.878
57232W        W22712  25.121  19.538   4.232
57233W        W22713  37.928  38.967   1.790
57234W        W22714  43.997  33.004   2.238
57235W        W22715  22.721  15.816  12.525
57236W        W22716  38.453   3.404  12.080
57237W        W22717  39.008  37.543   4.670
57238W        W22718  44.769  44.949   3.310
57239W        W22719  13.762   7.256  14.920
57240W        W22720  25.984  36.064  10.502
57241W        W22721  21.224  24.578  10.524
57242W        W22722   7.675  13.316   1.360
57243W        W22723  35.023  10.215   0.726
57244W        W22724  21.615  28.182   3.195
57245W        W22725  32.407  40.308  13.836
57246W        W22726  39.991  41.332   1.727
57247W        W22727  16.122  39.880  10.532
57248W        W22728  20.079  21.166  12.499
57249W        W22729  37.931  38.488   0.755
57250W        W22730  11.788  34.392   3.207
57251W        W22731  30.498  19.714   1.812
57252W        W22732   6.249  29.656   2.814
57253W        W22733   6.390  40.428  12.923
57254W        W22734  42.957  22.665   0.738
57255W        W22735  35.994  35.948   0.856
57256W        W22736  24.181  21.667  11.559
57257W        W22737  30.645   1.877   4.698
57258W        W22738   0.434  12.747   2.319
57259W        W22739  13.706  35.361   3.714
57260W        W22740  26.141  42.506   0.476
57261W        W22741  30.564   6.708  12.962
57262W        W22742  19.694  28.546  11.040
57263W        W22743  35.569  21.073  13.477
57264W        W22744  25.214   9.649  13.492
57265W        W22745   2.445   0.835  14.888
57266W        W22746  44.827  43.315  11.968
57267W        W22747  44.890  32.105   3.660
57268W        W22748  18.139  17.072  13.496
57269W        W22749  38.062  23.583  12.929
57270W        W22750  20.237  42.883  13.057
57271W        W22751  31.048  39.054   0.402
57272W        W22752   7.790   5.759  11.887
57273W        W22753  20.621   5.849  12.064
57274W        W22754  33.435   8.382   3.818
57275W        W22755  21.668  27.154   2.673
57276W        W22756   2.410  19.178  14.915
57277W        W22757  41.510  44.844   1.278
57278W        W22758  41.437   0.915   4.152
57279W        W22759  11.337  24.180   3.766
57280W        W22760  26.502  30.024   2.680
57281W        W22761  24.689  23.718   2.418
57282W        W22762  39.025  11.648   0.780
57283W        W22763  37.569   3.819   0.950
57284W        W22764   2.878  12.295  14.809
57285W        W22765  44.920  18.732  14.516
57286W        W22766  35.491  30.062  12.889
57287W        W22767  24.561  14.725  14.350
57288W        W22768   3.938  23.216   4.815
57289W        W22769  44.939   8.698   0.371
57290W        W22770  37.850  44.453   2.709
57291W        W22771  39.468  23.080  11.925
57292W        W22772   9.834  40.491  11.379
57293W        W22773  14.779   8.255   4.642
57294W        W22774  23.047   0.844  13.898
57295W        W22775  32.892  37.924  13.484
57296W        W22776   9.238  42.521  11.994
57297W        W22777  22.137  40.878   4.819
57298W        W22778  17.305  21.154   2.772
57299W        W22779  44.896   2.749   3.692
57300W        W22780  25.184  18.175   2.721
57301W        W22781  29.079  39.558   0.909
57302W        W22782  18.296  13.234  12.953
57303W        W22783  20.589   5.324   2.687
57304W        W22784  42.875   8.189   0.338
57305W        W22785  25.541  16.706  14.373
57306W        W22786  24.130  20.642  14.865
57307W        W22787   3.402  37.462  11.113
57308W        W22788  28.058   7.695  13.962
57309W        W22789  22.502  41.855   3.193
57310W        W22790  15.116  32.499  11.860
57311W        W22791   3.757  34.013   2.674
57312W        W22792   4.254  40.514  14.340
57313W        W22793  31.135  32.903   2.372
57314W        W22794  20.082  29.579   0.778
57315W        W22795  30.636  39.994   3.218
57316W        W22796  30.924   0.841  12.479
57317W        W22797   3.326  13.282  12.415
57318W        W22798   3.314   3.816  13.918
57319W        W22799  40.334  41.849  10.537
57320W        W22800   6.203  33.408  12.543
57321W        W22801  13.697   1.413   9.632
57322W        W22802  21.613  11.772  13.420
57323W        W22803  30.027  42.882  11.570
57324W        W22804  32.594  42.879  11.077
57325W        W22805  36.383  18.700  11.550
57326W        W22806  40.524  19.603  13.981
57327W        W22807  34.447  20.682  14.361
57328W        W22808  17.128  41.471  12.075
57329W        W22809  26.659  18.549  11.105
57330W        W22810  17.109  31.552   3.866
57331W        W22811  13.278  17.794  10.903
57332W        W22812  17.673   1.943   2.189
57333W        W22813  26.538  17.702  11.543
57334W        W22814  24.627  16.670   3.668
57335W        W22815  41.803  29.164   4.306
57336W        W22816  14.298  19.611  10.505
57337W        W22817  27.038   5.402  14.315
57338W        W22818  20.757  28.481  13.881
57339W        W22819  24.631  26.200   2.798
57340W        W22820  11.212  38.882  12.046
57341W        W22821  22.517   1.310  10.917
57342W        W22822  11.196  22.046   4.134
57343W        W22823  16.077  14.802  13.005
57344W        W22824   5.279  40.346  14.922
57345W        W22825  35.364  43.802  12.403
57346W        W22826  11.789  31.050   3.341
57347W        W22827  36.463  25.147   4.717
57348W        W22828  21.627  39.828  11.045
57349W        W22829   9.746   3.833  13.374
57350W        W22830  44.896  33.088   1.899
57351W        W22831  23.021  41.885   3.318
57352W        W22832  25.654  13.230  11.592
57353W        W22833  30.642  28.535   4.823
57354W        W22834  12.619  30.146  14.811
57355W        W22835  18.293  16.162  14.324
57356W        W22836  41.809   2.302   3.742
57357W        W22837   3.858  42.947  13.034
57358W        W22838  26.021  29.543   0.421
57359W        W22839  20.036   0.364   3.312
57360W        W22840   9.320   3.284   3.719
57361W        W22841   7.728  27.538  14.303
57362W        W22842  38.549   2.449   1.868
57363W        W22843  35.929  11.649   0.873
57364W        W22844  44.985  44.848  14.439
57365W        W22845  38.840  32.472   0.413
57366W        W22846  29.632  44.929  10.505
57367W        W22847  29.474  42.030  12.015
57368W        W22848   3.449   2.823  13.912
57369W        W22849  16.099  11.351  10.490
57370W        W22850  18.606   8.172  12.027
57371W        W22851   8.676  36.908   1.381
57372W        W22852   3.396   5.750   4.193
57373W        W22853  33.966  18.767  12.007
57374W        W22854  21.111  21.679  10.563
57375W        W22855  33.607   3.736   4.660
57376W        W22856   8.771   7.787  11.930
57377W        W22857  33.484  24.525   1.756
57378W        W22858  14.688  32.540  12.947
57379W        W22859  26.993  14.184  10.599
57380W        W22860  41.350  30.052   4.331
57381W        W22861   9.790  22.634   4.116
57382W        W22862  33.475  13.317   9.930
57383W        W22863  29.965  22.557   2.779
57384W        W22864  19.269  39.918  13.805
57385W        W22865  28.488  18.125   3.343
57386W        W22866  36.548  29.542   4.354
57387W        W22867  34.498  19.691  11.564
57388W        W22868  23.714  28.611   1.785
57389W        W22869  20.057  17.608   4.833
57390W        W22870  21.711  31.568   4.148
57391W        W22871  16.283  11.813   0.942
57392W        W22872  19.216  40.923   0.852
57393W        W22873  30.488  41.985   5.622
57394W        W22874  21.635  16.231  14.814
57395W        W22875  24.637  26.558  10.982
57396W        W22876  30.418  30.911  11.591
57397W        W22877  13.281   1.919  13.487
57398W        W22878  23.147  21.629   2.406
57399W        W22879  16.096   7.845   4.816
57400W        W22880  36.020  21.749   4.202
57401W        W22881  21.232   8.308  13.408
57402W        W22882  16.299  25.158   4.838
57403W        W22883   9.390  11.709  10.511
57404W        W22884   8.303  22.611  14.868
57405W        W22885  44.786  36.948  11.024
57406W        W22886  27.503   7.776   4.807
57407W        W22887  36.902  14.640  12.012
57408W        W22888  41.899  15.124  10.643
57409W        W22889  26.997   7.682   3.356
57410W        W22890  24.041  41.297  13.421
57411W        W22891  33.941   6.865   0.357
57412W        W22892  15.094  13.116  10.426
57413W        W22893  20.147  37.493   2.337
57414W        W22894   2.401  11.228  14.841
57415W        W22895   7.374  40.315   2.794
57416W        W22896  12.701  43.460  12.088
57417W        W22897  26.062  34.042  11.983
57418W        W22898  11.817  33.538   5.311
57419W        W22899  31.559  28.124   2.851
57420W        W22900  43.971   4.373   2.367
57421W        W22901  14.607   3.863   0.329
57422W        W22902  31.081   8.327  14.812
57423W        W22903  42.799   7.848   0.422
57424W        W22904  35.594  39.435  14.875
57425W        W22905  40.364   0.800   1.242
57426W        W22906  16.713  33.515   2.206
57427W        W22907  28.997   9.690  14.016
57428W        W22908  32.006  10.699   4.266
57429W        W22909  11.691   5.915  11.925
57430W        W22910  14.741   1.808  10.595
57431W        W22911   9.834   6.784   3.867
57432W        W22912  18.614  24.511   1.845
57433W        W22913  44.977  37.397  11.547
57434W        W22914  24.070   1.326  13.995
57435W        W22915  17.166  13.106   4.672
57436W        W22916  13.226  37.475  10.019
57437W        W22917  23.708  37.477   4.284
57438W        W22918  26.581  37.977  12.407
57439W        W22919  12.824   2.300  13.458
57440W        W22920  26.953  21.228   1.246
57441W        W22921  18.613  13.630   4.730
57442W        W22922   4.748  30.037   0.847
57443W        W22923  42.988  17.111  10.472
57444W        W22924  31.040  17.802  10.457
57445W        W22925   1.776   9.220   0.278
57446W        W22926   2.912   0.856  14.890
57447W        W22927  38.052  10.310   0.255
57448W        W22928  32.100   9.689   2.849
57449W        W22929  16.663   7.174  11.990
57450W        W22930  19.054  29.559   0.788
57451W        W22931   7.707  16.711  13.308
57452W        W22932   0.864  15.581  11.990
57453W        W22933  21.197  43.901   3.377
57454W        W22934  41.026  21.226   1.724
57455W        W22935  41.934  28.546  14.397
57456W        W22936  14.617  32.902  13.959
57457W        W22937  26.590  34.923   4.274
57458W        W22938  41.430  15.208   4.355
57459W        W22939  10.376  18.724   5.192
57460W        W22940  17.233  30.995  12.007
57461W        W22941  36.382   7.678   0.726
57462W        W22942   8.896   7.680   4.276
57463W        W22943  27.966  36.393   2.316
57464W        W22944  15.137  38.907  14.354
57465W        W22945   5.346  41.313  12.415
57466W        W22946  42.838  31.027  13.308
57467W        W22947  17.278  21.537   0.254
57468W        W22948  25.575  38.834   2.292
57469W        W22949  39.017  41.514  13.816
57470W        W22950  29.131   6.732  14.862
57471W        W22951   5.197  16.653  11.023
57472W        W22952  37.951  32.598  12.385
57473W        W22953  43.849   6.788  13.917
57474W        W22954  43.475  38.043  12.823
57475W        W22955  22.633  28.962   3.733
57476W        W22956  42.888  35.417   1.351
57477W        W22957   8.688  18.127  13.309
57478W        W22958  35.513  43.308   2.346
57479W        W22959  22.215   8.741  12.477
57480W        W22960  30.023  24.025  11.515
57481W        W22961  38.905  19.192  12.549
57482W        W22962  44.783  28.085  14.858
57483W        W22963  24.164  41.383   3.816
57484W        W22964  37.486  29.017  11.467
57485W        W22965  33.569  14.299  13.389
57486W        W22966  36.858  14.248  11.040
57487W        W22967  16.072   8.367   1.885
57488W        W22968  27.032  22.692   2.206
57489W        W22969  19.108   5.918   4.782
57490W        W22970   9.665  40.939   2.340
57491W        W22971  43.923  24.060  12.025
57492W        W22972  19.690  30.002   2.191
57493W        W22973   8.269  32.996  13.382
57494W        W22974   4.929  37.017   4.333
57495W        W22975  15.706   7.265  12.040
57496W        W22976   9.243  16.091  11.552
57497W        W22977  38.020  17.300   3.372
57498W        W22978  40.029   2.471  13.954
57499W        W22979   1.445  30.639   0.356
57500W        W22980  13.125  24.720   1.227
57501W        W22981  36.360   6.743  13.432
57502W        W22982  25.068  22.037  11.946
57503W        W22983  23.986  15.704  10.035
57504W        W22984  38.558  35.967   3.354
57505W        W22985   4.346  23.076  10.888
57506W        W22986   9.336  19.698  12.940
57507W        W22987   3.331  40.504   1.812
57508W        W22988  41.294  36.950   0.812
57509W        W22989   8.261  31.587   2.286
57510W        W22990  34.955  26.629   0.388
57511W        W22991  28.105  29.063  10.988
57512W        W22992  30.528  24.497   0.962
57513W        W22993  33.473  15.308   1.706
57514W        W22994  10.357  33.976  14.511
57515W        W22995   4.324  44.292   0.482
57516W        W22996  19.541  20.126  11.474
57517W        W22997  36.524  25.700   1.848
57518W        W22998  35.017  28.962   0.397
57519W        W22999   9.170  10.258  13.848
57520W        W23000  36.411  33.007   4.224
57521W        W23001  14.284   7.679   1.723
57522W        W23002  22.570  12.743   3.377
57523W        W23003  42.424  27.476  12.486
57524W        W23004  14.219  15.231  13.946
57525W        W23005  18.074  14.794  14.362
57526W        W23006   6.186  40.511  14.769
57527W        W23007  15.240   4.782   2.308
57528W        W23008  25.067  34.995   1.392
57529W        W23009  36.583  20.063  12.869
57530W        W23010  44.934  31.049   1.211
57531W        W23011   9.200  35.387  12.523
57532W        W23012  35.556  37.560   0.322
57533W        W23013  29.927   5.253   4.641
57534W        W23014  27.072   4.383   4.310
57535W        W23015  18.136   4.817   2.666
57536W        W23016  22.703  14.773  11.061
57537W        W23017  16.622  13.219   1.213
57538W        W23018  41.989  19.255   2.324
57539W        W23019  19.139  12.276   3.200
57540W        W23020  30.569  17.161  13.389
57541W        W23021  13.292  18.699   4.224
57542W        W23022  39.951   2.314  12.047
57543W        W23023  41.000  14.727  14.929
57544W        W23024   5.908  14.149   1.284
57545W        W23025  11.768  10.352   3.165
57546W        W23026  28.547  29.038   2.261
57547W        W23027   2.767  11.131  11.558
57548W        W23028  42.985   5.730  14.445
57549W        W23029  44.468  33.480   0.310
57550W        W23030  30.971  10.217  12.856
57551W        W23031  22.585  12.797   4.132
57552W        W23032  11.674   3.810  12.867
57553W        W23033  26.690  40.376   0.867
57554W        W23034  44.806  31.593  13.338
57555W        W23035  25.975   3.423  13.375
57556W        W23036  11.633  15.665  12.521
57557W        W23037  39.016  10.793  11.985
57558W        W23038  20.716   3.850   2.314
57559W        W23039  18.627  21.179   4.306
57560W        W23040   1.794  17.657  10.618
57561W        W23041  23.231  35.940   1.394
57562W        W23042  31.444  36.918  11.080
57563W        W23043  43.007  42.499  13.062
57564W        W23044  20.076  22.203   3.865
57565W        W23045  16.212  25.093   2.896
57566W        W23046  12.739  18.231   3.300
57567W        W23047  23.137  32.482  12.938
57568W        W23048  16.724  15.128  13.951
57569W        W23049  10.257  28.490   3.639
57570W        W23050   4.222  16.738  14.806
57571W        W23051  12.116  18.633   0.934
57572W        W23052  32.578  40.897   3.355
57573W        W23053  13.150  41.994   2.799
57574W        W23054  36.423  13.210   1.779
57575W        W23055  12.268   7.670  13.852
57576W        W23056  30.994  27.537  10.479
57577W        W23057  41.808   8.293   1.748
57578W        W23058  37.867  31.952   0.363
57579W        W23059  26.520   0.481  14.848
57580W        W23060   9.711  11.643  10.592
57581W        W23061   0.967  18.547   4.224
57582W        W23062  42.517  44.827   3.220
57583W        W23063  29.521   1.970   4.139
57584W        W23064  30.442  24.538   0.413
57585W        W23065  18.734   7.742   0.418
57586W        W23066   6.194  30.086  10.117
57587W        W23067  27.466  17.195   4.691
57588W        W23068  27.679  10.809  14.938
57589W        W23069  23.667  28.049  12.483
57590W        W23070  31.474  13.796   1.425
57591W        W23071  39.875  18.186   2.789
57592W        W23072  26.040  36.068  13.377
57593W        W23073  10.161  25.524   3.750
57594W        W23074  11.762  40.404  11.036
57595W        W23075  17.121  19.655  12.364
57596W        W23076   1.771   2.395   0.289
57597W        W23077   9.172  31.479   3.249
57598W        W23078  31.980  32.902  13.959
57599W        W23079  26.095  30.600   0.285
57600W        W23080  30.449  16.774   4.282
57601W        W23081   4.339  24.670   3.691
57602W        W23082  32.049  44.436   0.482
57603W        W23083  39.990  43.488  12.398
57604W        W23084   6.914  11.775   3.643
57605W        W23085   0.948  44.365   4.280
57606W        W23086   1.328  18.591  13.529
57607W        W23087  17.639  24.188  14.288
57608W        W23088  16.588  17.149   0.409
57609W        W23089  10.222  15.823   4.706
57610W        W23090  33.933  27.977  12.359
57611W        W23091  20.679  25.097   3.864
57612W        W23092  10.285  41.421  12.550
57613W        W23093  41.848   0.432  13.010
57614W        W23094  34.373   9.200  12.539
57615W        W23095  12.250   3.360   3.306
57616W        W23096   1.365   9.795  11.864
57617W        W23097  16.582   1.457   2.824
57618W        W23098  36.457  30.557  13.542
57619W        W23099  29.998  32.965  10.529
57620W        W23100  34.900  28.650  13.918
57621W        W23101  42.977  36.504  11.127
57622W        W23102  10.260  34.531   9.938
57623W        W23103  32.939   6.755  12.017
57624W        W23104   3.717   3.229  12.400
57625W        W23105  25.979   8.866   3.776
57626W        W23106  30.928  28.950   1.241
57627W        W23107  20.216  18.059   4.284
57628W        W23108  44.841  18.734   1.717
57629W        W23109   7.300   9.785  10.578
57630W        W23110  12.759   1.837   4.623
57631W        W23111  22.103  19.132  14.377
57632W        W23112  30.562  40.429  14.925
57633W        W23113  18.156   9.695  12.487
57634W        W23114  12.742   1.776   4.216
57635W        W23115  25.637   4.215   3.373
57636W        W23116  29.014  24.203  12.018
57637W        W23117  19.590  27.164   0.385
57638W        W23118  16.243  11.773   4.797
57639W        W23119  41.978  32.975  14.410
57640W        W23120  17.670  13.282   5.083
57641W        W23121   6.202  30.637   2.777
57642W        W23122  32.598  17.292   0.953
57643W        W23123  42.521  17.087   0.380
57644W        W23124  31.442  12.742  13.509
57645W        W23125   9.701  31.479   3.800
57646W        W23126  28.460   2.304   2.306
57647W        W23127  40.044  18.576   1.871
57648W        W23128  15.583  22.117   2.294
57649W        W23129  32.429  44.294   2.269
57650W        W23130  30.584  25.493   4.242
57651W        W23131   9.348  38.884  13.991
57652W        W23132  17.217   6.693   4.819
57653W        W23133   2.328   4.315  12.886
57654W        W23134   4.311  16.127  14.031
57655W        W23135  26.189  41.027  14.905
57656W        W23136  35.604   2.889   2.388
57657W        W23137  40.549  39.023  14.834
57658W        W23138  30.652  28.533   3.352
57659W        W23139  41.410  16.657  12.559
57660W        W23140   7.416  18.680  14.920
57661W        W23141  25.149  19.730   2.325
57662W        W23142  10.675  22.225   1.748
57663W        W23143  41.332  12.198  14.933
57664W        W23144  43.905  37.921  11.536
57665W        W23145  12.153  25.603  14.950
57666W        W23146  24.715  34.007  11.926
57667W        W23147  39.481  16.257   3.213
57668W        W23148   5.729  31.567   2.415
57669W        W23149  25.046  38.861  10.481
57670W        W23150  31.583  40.487  12.553
57671W        W23151   1.347   4.415  14.019
57672W        W23152  36.860  41.351  13.495
57673W        W23153  15.581  22.578  12.426
57674W        W23154  31.574  44.899   2.840
57675W        W23155   4.303   3.854  12.009
57676W        W23156  12.753  17.078  13.929
57677W        W23157  43.464   2.785   1.375
57678W        W23158  39.964  21.625  12.495
57679W        W23159   5.926   0.374   4.170
57680W        W23160  20.702  15.673  14.965
57681W        W23161   3.218  13.693  13.880
57682W        W23162  12.202   2.470   2.323
57683W        W23163   8.401   1.395   1.848
57684W        W23164   8.688  25.985  10.934
57685W        W23165  11.157  27.469   0.445
57686W        W23166  20.262  16.308   0.946
57687W        W23167  12.193  14.157   2.776
57688W        W23168  11.838  24.522   1.711
57689W        W23169   5.367  42.432  11.424
57690W        W23170  21.104  19.772  14.484
57691W        W23171   0.332  19.165  13.371
57692W        W23172   8.327  23.633  13.024
57693W        W23173  42.463  37.536  13.791
57694W        W23174  30.522   9.368  13.814
57695W        W23175   4.261  26.626   0.453
57696W        W23176  37.924  22.618  13.043
57697W        W23177  10.841  40.464  12.047
57698W        W23178  13.647  12.617   1.784
57699W        W23179  17.072  22.593   1.696
57700W        W23180  30.625  31.556   4.650
57701W        W23181  10.259  13.743  11.540
57702W        W23182  20.274  42.923  11.125
57703W        W23183  34.942   6.393  12.376
57704W        W23184  24.618   4.268  11.580
57705W        W23185   0.489  33.118  10.422
57706W        W23186  25.582  39.924   2.727
57707W        W23187  10.244  29.534  12.422
57708W        W23188  11.816  20.154  13.542
57709W        W23189  11.808   9.836   1.268
57710W        W23190   5.294  44.773   4.204
57711W        W23191  10.162  16.192  13.316
57712W        W23192   1.785  13.322   4.324
57713W        W23193  42.452  18.572   1.279
57714W        W23194  12.627  20.103  10.611
57715W        W23195  19.106   0.274  13.403
57716W        W23196  40.934  18.687  11.011
57717W        W23197  15.203  36.961  12.487
57718W        W23198  28.572  23.694  13.956
57719W        W23199   4.311   8.863  10.938
57720W        W23200  16.653   4.255   1.890
57721W        W23201  16.747   4.729  13.884
57722W        W23202  12.741  40.042  11.110
57723W        W23203  37.529   6.876   0.829
57724W        W23204   8.161  16.691   3.349
57725W        W23205  26.011  44.279   0.775
57726W        W23206  12.240  32.055  14.874
57727W        W23207  31.582  25.025  14.383
57728W        W23208   1.919  35.859  14.503
57729W        W23209  30.648   6.197   3.339
57730W        W23210   0.408  21.053   0.795
57731W        W23211  32.109  15.679   5.152
57732W        W23212  13.640  16.751  12.032
57733W        W23213   2.835  15.204   3.274
57734W        W23214  17.693  32.023   1.817
57735W        W23215  26.963  41.360   2.236
57736W        W23216  32.525  34.049   2.181
57737W        W23217  36.056   7.701   3.294
57738W        W23218  13.805  44.831  13.834
57739W        W23219  29.514  31.979   1.730
57740W        W23220  30.538  42.905   1.831
57741W        W23221   4.324   1.767  10.445
57742W        W23222  25.695  19.109  11.039
57743W        W23223   4.706  15.642   3.155
57744W        W23224  34.046   2.912   0.784
57745W        W23225  25.026   8.244   0.385
57746W        W23226  44.826  14.303  12.577
57747W        W23227   1.941  44.977   4.154
57748W        W23228  10.706   4.720  14.943
57749W        W23229  22.211  29.991  14.316
57750W        W23230   9.354  35.888  11.562
57751W        W23231   5.309  18.204  12.392
57752W        W23232  44.416   6.711  14.795
57753W        W23233   7.214  37.939   0.437
57754W        W23234  34.415   4.305   0.931
57755W        W23235  36.944  36.946   4.640
57756W        W23236  44.916   0.754  12.434
57757W        W23237  35.601  24.037  14.368
57758W        W23238  38.359  23.073  12.392
57759W        W23239  40.343  16.805  12.880
57760W        W23240  21.649   6.895  13.430
57761W        W23241   0.487  21.252   1.858
57762W        W23242  10.841   8.704  11.426
57763W        W23243  18.604  37.012  13.335
57764W        W23244  41.034   8.660  11.091
57765W        W23245  43.805  13.331  11.584
57766W        W23246   6.351  33.920  13.515
57767W        W23247  12.169   0.743  12.456
57768W        W23248  35.455  39.982   1.726
57769W        W23249  16.757  44.923  11.051
57770W        W23250  18.759   9.200   4.196
57771W        W23251  15.293  31.124   1.336
57772W        W23252  33.611  18.184   3.831
57773W        W23253  44.889  44.337   3.813
57774W        W23254  35.382  28.634   2.886
57775W        W23255  27.156  12.289   4.813
57776W        W23256  25.632  38.451  10.587
57777W        W23257  43.409  40.047   1.702
57778W        W23258   0.794  40.415  14.860
57779W        W23259  42.487  18.764  12.358
57780W        W23260  14.286  44.005   1.289
57781W        W23261  37.030  21.203   3.175
57782W        W23262   9.195  26.469   4.145
57783W        W23263   8.711   0.355   0.384
57784W        W23264  36.845  32.495   0.454
57785W        W23265  11.760  42.898  14.318
57786W        W23266  35.923   5.727   2.883
57787W        W23267  15.650  14.124   4.640
57788W        W23268  37.066   9.813   1.896
57789W        W23269  18.086   1.456  12.574
57790W        W23270  41.043  43.825   0.394
57791W        W23271  12.706  33.435  11.454
57792W        W23272  36.066  13.232  10.595
57793W        W23273  36.355  25.528  12.981
57794W        W23274   3.771  20.140   2.340
57795W        W23275  27.482   7.706  14.013
57796W        W23276  20.057  32.550  10.611
57797W        W23277  44.970   6.870   2.375
57798W        W23278  43.452  35.001  10.988
57799W        W23279  35.426   0.785   4.193
57800W        W23280  13.119  34.010  11.083
57801W        W23281  22.521   6.751  13.997
57802W        W23282  15.691   3.272   1.905
57803W        W23283  29.629   9.822  13.933
57804W        W23284  40.055   5.424  11.380
57805W        W23285  42.953  21.035  12.889
57806W        W23286  28.447  31.595  13.310
57807W        W23287  33.511  34.396  11.430
57808W        W23288  21.035  30.074   4.805
57809W        W23289  19.589  22.718  11.941
57810W        W23290  18.098  16.610   3.683
57811W        W23291  17.559   9.846   3.193
57812W        W23292  20.189  44.491   3.298
57813W        W23293  23.594  18.203   1.381
57814W        W23294  39.397  14.151   1.860
57815W        W23295   1.326   6.201  12.974
57816W        W23296   0.888   3.384  12.912
57817W        W23297  20.536  24.074  13.451
57818W        W23298  22.021  28.133   2.739
57819W        W23299  13.107  42.399   0.800
57820W        W23300   9.214   4.863  13.876
57821W        W23301  39.911  40.892   0.400
57822W        W23302  31.582  22.736   3.219
57823W        W23303  14.209  41.396   0.388
57824W        W23304   2.792  34.458  12.982
57825W        W23305  42.820  36.894   4.697
57826W        W23306  12.777   6.879  12.068
57827W        W23307   3.812   0.805  14.000
57828W        W23308  42.400   7.789  12.023
57829W        W23309   4.364  25.614  12.834
57830W        W23310  28.186  40.403  11.089
57831W        W23311  16.291   5.361   1.747
57832W        W23312  37.417  10.747  14.842
57833W        W23313   7.812  25.576  12.916
57834W        W23314  35.924   0.376  11.371
57835W        W23315  33.448  20.115  10.535
57836W        W23316   9.367  33.403  13.979
57837W        W23317  18.109  13.176  11.387
57838W        W23318  19.102  23.626   1.927
57839W        W23319  21.226  18.617  10.979
57840W        W23320  28.992  21.520   2.405
57841W        W23321   0.261   5.911   1.715
57842W        W23322  27.007  14.132  11.411
57843W        W23323  32.983  32.995  11.470
57844W        W23324   4.833  40.387  11.491
57845W        W23325  35.979  15.591  14.393
57846W        W23326  16.772  37.357   1.927
57847W        W23327  34.028  36.029  12.035
57848W        W23328  23.545  12.838   4.603
57849W        W23329  40.929  41.390  12.504
57850W        W23330  40.382  39.540   4.720
57851W        W23331  21.612   6.797  10.644
57852W        W23332  33.934  16.091   3.239
57853W        W23333  16.578  12.627   3.775
57854W        W23334   7.274  21.702   3.700
57855W        W23335  42.521  33.562  12.392
57856W        W23336   1.348   0.989  12.388
57857W        W23337   3.725  38.417  10.416
57858W        W23338   2.251  11.640  13.543
57859W        W23339   5.233  30.922   3.770
57860W        W23340  25.540  42.847   0.882
57861W        W23341  36.420   3.781  10.540
57862W        W23342  21.755  26.957  12.092
57863W        W23343   8.774  23.112  10.630
57864W        W23344  24.581   5.730  13.328
57865W        W23345  41.483  44.997  13.895
57866W        W23346  42.850  43.016   4.798
57867W        W23347  14.666  32.512  12.464
57868W        W23348  29.990   2.361  13.994
57869W        W23349   2.799  12.716   2.752
57870W        W23350  30.495   4.935   0.739
57871W        W23351   0.941  22.590   3.250
57872W        W23352  13.607  33.432  11.913
57873W        W23353  26.095  28.517  10.575
57874W        W23354  32.403  17.721  10.995
57875W        W23355  41.347   7.853  10.632
57876W        W23356  39.402  41.967   1.424
57877W        W23357   8.726  28.479   1.884
57878W        W23358  27.951  40.029   2.680
57879W        W23359  11.309  10.755   3.662
57880W        W23360   8.270  21.020   1.790
57881W        W23361  41.444  38.904   1.291
57882W        W23362  16.666  28.962   2.762
57883W        W23363  34.039  28.015  10.032
57884W        W23364  32.504  41.536  11.977
57885W        W23365  41.945  20.048   0.807
57886W        W23366  22.743   0.393  13.793
57887W        W23367  16.300   1.349   1.383
57888W        W23368  43.356  11.309  14.929
57889W        W23369  40.451  29.042  12.361
57890W        W23370  22.239  31.902  14.284
57891W        W23371  34.423  24.018  14.473
57892W        W23372  39.521  19.620  13.820
57893W        W23373   3.457  24.698  11.542
57894W        W23374  17.102  42.498  10.463
57895W        W23375  41.391  34.945  11.894
57896W        W23376  12.783   5.859   1.762
57897W        W23377  12.641   0.743   2.413
57898W        W23378   0.305  30.561   3.146
57899W        W23379  13.808   3.823   2.716
57900W        W23380   1.455  26.198   4.199
57901W        W23381  24.211   8.774  10.044
57902W        W23382  30.020  31.550  10.920
57903W        W23383  18.141  21.017   0.810
57904W        W23384  22.081  38.342   3.674
57905W        W23385  21.726  25.714  10.404
57906W        W23386  26.665  32.577   3.183
57907W        W23387  39.504  31.496  11.968
57908W        W23388  36.427  34.428   2.890
57909W        W23389  14.339  33.103   0.803
57910W        W23390  24.220  36.531  11.499
57911W        W23391  13.698  21.750  12.959
57912W        W23392   4.742  16.768   0.298
57913W        W23393  40.431  30.116  10.514
57914W        W23394   4.449  35.395   5.260
57915W        W23395  13.620  37.929  13.060
57916W        W23396  19.672   9.298   2.307
57917W        W23397  35.940   3.943  14.820
57918W        W23398  14.606  42.000   0.447
57919W        W23399  11.149  18.588   1.758
57920W        W23400  36.410  43.016  14.827
57921W        W23401  36.559  25.124  13.492
57922W        W23402  16.148  18.238  10.483
57923W        W23403  12.328  25.113  10.996
57924W        W23404  30.908  29.131  11.610
57925W        W23405   6.822  18.766  10.586
57926W        W23406  44.826  23.020   0.463
57927W        W23407  36.448  37.528  12.941
57928W        W23408  12.803  14.642  10.899
57929W        W23409   4.329  37.943   0.940
57930W        W23410  18.775  38.880  11.032
57931W        W23411  13.179  33.449   1.919
57932W        W23412  17.220  11.749   1.910
57933W        W23413  28.533  34.513   3.680
57934W        W23414   5.289  17.801  14.392
57935W        W23415   7.846  15.811   0.464
57936W        W23416  38.912  44.380   1.402
57937W        W23417  42.789  23.533   4.822
57938W        W23418  17.180  15.165   1.225
57939W        W23419   7.746   7.313   3.189
57940W        W23420  32.967  40.900   0.391
57941W        W23421  44.463  21.054   4.659
57942W        W23422  40.529  29.946  12.420
57943W        W23423  40.863  39.897   1.247
57944W        W23424  43.945   5.420  10.973
57945W        W23425  20.265   7.210  12.055
57946W        W23426   7.361  32.553  11.876
57947W        W23427  25.486   1.394   0.245
57948W        W23428  17.237  35.421  13.423
57949W        W23429  40.988   2.899   3.801
57950W        W23430  37.978  42.451   4.164
57951W        W23431   9.738  18.760  13.470
57952W        W23432   8.160   7.747  11.383
57953W        W23433  35.067  27.134  11.610
57954W        W23434  14.745  15.681  13.514
57955W        W23435  40.883  21.661  13.987
57956W        W23436  20.164  15.673  14.330
57957W        W23437  15.758  29.933  13.992
57958W        W23438  30.658  39.023   5.602
57959W        W23439   7.755  27.158  14.503
57960W        W23440  26.975  29.160  11.012
57961W        W23441  18.091   6.901  13.859
57962W        W23442  12.660  19.205   3.229
57963W        W23443  24.684  39.482   0.821
57964W        W23444  33.576   2.251   1.755
57965W        W23445   7.193   0.391   2.256
57966W        W23446  37.941  39.918   0.807
57967W        W23447  28.122  39.343   3.175
57968W        W23448  42.981   2.363   2.194
57969W        W23449   0.947  16.202  14.449
57970W        W23450  43.967  30.503   1.721
57971W        W23451  42.347  14.647   1.327
57972W        W23452  33.589   1.740   1.302
57973W        W23453   6.746  30.524   0.386
57974W        W23454  15.153   1.968  13.038
57975W        W23455  12.614   1.841   3.294
57976W        W23456  22.517  31.056   2.790
57977W        W23457  26.068   9.248   0.392
57978W        W23458  34.528   4.279   2.287
57979W        W23459   2.393   8.659  14.397
57980W        W23460  20.132  22.212  13.825
57981W        W23461  15.694  17.204   4.735
57982W        W23462  15.207  13.748   2.712
57983W        W23463  39.040  37.385  14.454
57984W        W23464  44.011  27.596  11.084
57985W        W23465  32.486  11.296   1.761
57986W        W23466  39.493  33.902  14.774
57987W        W23467  27.103   7.400  10.995
57988W        W23468  33.927   6.808  12.527
57989W        W23469   2.438   1.334  13.349
57990W        W23470  17.673   1.911  14.784
57991W        W23471   9.858  33.968   4.766
57992W        W23472  35.001  13.125  12.939
57993W        W23473  37.457   0.975  14.424
57994W        W23474  26.620   8.264   1.212
57995W        W23475  38.377  34.507   2.876
57996W        W23476  33.599  41.936  12.524
57997W        W23477  34.396   3.789   1.316
57998W        W23478  16.168  14.131  11.119
57999W        W23479  23.729  20.561   0.327
58000W        W23480  18.223  30.922   3.704
58001W        W23481  33.464  33.880  11.557
58002W        W23482   0.876   9.696   1.362
58003W        W23483  25.029  31.123   0.786
58004W        W23484   3.441  21.633  10.423
58005W        W23485  15.744  25.620  14.507
58006W        W23486   4.225  38.915   2.681
58007W        W23487   0.849   5.760  14.777
58008W        W23488   9.229  22.240   0.832
58009W        W23489  34.034  43.416  11.924
58010W        W23490  42.309  38.862   3.753
58011W        W23491  36.517  29.942   1.396
58012W        W23492  18.778  16.568  12.501
58013W        W23493  39.534   1.358   2.338
58014W        W23494  13.239  30.625  11.959
58015W        W23495   9.813  27.083  12.456
58016W        W23496  42.940  35.424  14.280
58017W        W23497  31.411  14.321  12.401
58018W        W23498  38.047  13.662   1.226
58019W        W23499  28.536  30.606   5.119
58020W        W23500  39.991  28.964  13.331
58021W        W23501   5.340   8.318  14.390
58022W        W23502  27.952  13.252   1.895
58023W        W23503  13.178   3.803  14.022
58024W        W23504  42.963   0.364   2.895
58025W        W23505  26.644  23.194   2.761
58026W        W23506  15.805  42.435   2.782
58027W        W23507  15.215   4.390  14.943
58028W        W23508  35.969  41.431  12.863
58029W        W23509   2.812   5.884  13.362
58030W        W23510  17.562  33.435  13.516
58031W        W23511  36.037  36.581  14.290
58032W        W23512  11.340  41.859  10.507
58033W        W23513  43.850  26.070   2.347
58034W        W23514  37.400  31.996  14.968
58035W        W23515  15.608   7.730   4.287
58036W        W23516  21.058  22.219   3.832
58037W        W23517  28.679  34.944   1.436
58038W        W23518  16.604  21.748   2.829
58039W        W23519  41.846   5.762  13.333
58040W        W23520  30.503  44.265  12.388
58041W        W23521  24.500  36.050   3.260
58042W        W23522  15.615  32.956   2.712
58043W        W23523   4.792  34.423  11.926
58044W        W23524  34.613  20.081   0.309
58045W        W23525  33.894  37.907   2.784
58046W        W23526   8.299   8.224   4.335
58047W        W23527  12.201  13.230   2.727
58048W        W23528  36.880  22.152  13.816
58049W        W23529  27.619  26.515  14.408
58050W        W23530  40.924  23.684   1.877
58051W        W23531  27.473   2.950  11.393
58052W        W23532  37.086  39.514   3.292
58053W        W23533   7.845   8.856   5.134
58054W        W23534  20.069  38.844   3.745
58055W        W23535  37.014  24.584   0.273
58056W        W23536  14.773  44.468  13.063
58057W        W23537   8.279  39.850   1.310
58058W        W23538  35.387   4.418  12.575
58059W        W23539  20.234  30.998   2.693
58060W        W23540  29.526   9.280   1.260
58061W        W23541  32.087  25.965  14.962
58062W        W23542   7.891  44.841  14.331
58063W        W23543  18.789  20.723   2.255
58064W        W23544   9.741  14.818  11.576
58065W        W23545  35.090  29.161   4.708
58066W        W23546  38.357   7.411   3.859
58067W        W23547  38.558  25.200  14.836
58068W        W23548  23.592  32.422  12.034
58069W        W23549  26.197  33.563   3.757
58070W        W23550  42.498  11.728   2.268
58071W        W23551  38.342  24.995  12.054
58072W        W23552  37.001  26.457  11.012
58073W        W23553  43.313  10.324  11.379
58074W        W23554   7.337  27.177   3.383
58075W        W23555  29.632  19.564   0.429
58076W        W23556   3.855  36.575  12.061
58077W        W23557  32.480  43.344  12.074
58078W        W23558  24.535  44.268  13.039
58079W        W23559   1.816  19.061  11.420
58080W        W23560  41.901  43.834  10.433
58081W        W23561   5.724  40.802  10.635
58082W        W23562  15.136  32.066   2.785
58083W        W23563  17.303  43.447  12.396
58084W        W23564  32.134  20.032   3.719
58085W        W23565   8.843  24.067   2.871
58086W        W23566  34.090  11.329   4.685
58087W        W23567   9.780  17.724  14.936
58088W        W23568  13.305   8.355   4.675
58089W        W23569  20.259  37.529  13.512
58090W        W23570  16.163  12.319   2.716
58091W        W23571   2.814  36.923  11.063
58092W        W23572  42.412  27.582   3.737
58093W        W23573  19.180  40.492   0.953
58094W        W23574  17.180  16.304   0.375
58095W        W23575  10.209  37.000  10.550
58096W        W23576  37.975   7.262   1.782
58097W        W23577  30.557  44.270   1.897
58098W        W23578   3.901  35.003  14.369
58099W        W23579  14.714  36.514  14.514
58100W        W23580  10.836  24.499   4.177
58101W        W23581  32.954  39.501   1.721
58102W        W23582  38.922  29.018  13.922
58103W        W23583   8.800   0.479  13.331
58104W        W23584   0.338  37.876  12.898
58105W        W23585  25.565  26.102  14.326
58106W        W23586  14.638  11.340  10.082
58107W        W23587  28.124   5.838  10.426
58108W        W23588  17.307  31.137   3.746
58109W        W23589  42.012  17.673  13.927
58110W        W23590  41.400   0.797  10.932
58111W        W23591  25.092  34.395  13.534
58112W        W23592  25.097  41.397  14.276
58113W        W23593  12.717   8.822   4.153
58114W        W23594  41.349  27.193  12.347
58115W        W23595  18.099  29.155  14.943
58116W        W23596  25.042  10.294  10.565
58117W        W23597  24.597  28.939  10.421
58118W        W23598  14.736  15.581   1.723
58119W        W23599   9.785   1.270  11.080
58120W        W23600   3.406  34.085  11.081
58121W        W23601  38.972  28.060   2.812
58122W        W23602  15.085  42.456   1.216
58123W        W23603  43.789  40.019   1.335
58124W        W23604   6.843  17.156   3.306
58125W        W23605  37.957  22.591   3.224
58126W        W23606  37.957  24.181   1.286
58127W        W23607  44.458  40.986  12.381
58128W        W23608  14.738  30.120   2.316
58129W        W23609  36.051  30.964  12.396
58130W        W23610  39.371  28.519   3.681
58131W        W23611  38.459  44.967   3.263
58132W        W23612  20.046  33.434   9.965
58133W        W23613  16.626  43.811  14.920
58134W        W23614  25.473   1.866  14.438
58135W        W23615  40.467   3.832  14.989
58136W        W23616   9.157  14.660  11.465
58137W        W23617  25.110  15.309  12.501
58138W        W23618   9.313  25.164  13.402
58139W        W23619  43.917   8.668   4.208
58140W        W23620  30.480  26.108   3.342
58141W        W23621  35.585  43.862   3.246
58142W        W23622  28.051  23.118   0.754
58143W        W23623  29.596  21.701   0.293
58144W        W23624  37.062  28.147  11.401
58145W        W23625  10.848  18.572   4.208
58146W        W23626  39.318  19.265   3.807
58147W        W23627  32.074  25.142   3.291
58148W        W23628  25.154  43.366   0.887
58149W        W23629   1.958  43.383  10.920
58150W        W23630   9.151   3.319  10.566
58151W        W23631  20.108  26.135  14.761
58152W        W23632  19.705  12.248   1.832
58153W        W23633   2.232  34.406   1.744
58154W        W23634  17.758   3.801   1.260
58155W        W23635  41.362  36.394   0.740
58156W        W23636  18.650  17.774  12.895
58157W        W23637  22.723  36.467  11.422
58158W        W23638  21.665  42.431   3.760
58159W        W23639  16.086  42.995   1.768
58160W        W23640   1.812  32.961  13.990
58161W        W23641  20.141  13.166   3.358
58162W        W23642   6.795  33.938   2.276
58163W        W23643  34.484  20.167  12.967
58164W        W23644   7.840  39.336   4.768
58165W        W23645  24.512  13.696  14.004
58166W        W23646   6.375  25.153   2.770
58167W        W23647   3.453   4.845  14.861
58168W        W23648  41.010  16.617  11.003
58169W        W23649  41.450   1.443  11.578
58170W        W23650  14.311  32.581   0.478
58171W        W23651  15.241  35.952  11.050
58172W        W23652  25.503  40.385  10.506
58173W        W23653  25.118  38.917   4.305
58174W        W23654  20.597  11.311  14.488
58175W        W23655   6.398  35.493   3.780
58176W        W23656   6.412  16.230  10.438
58177W        W23657  42.910   3.253   4.313
58178W        W23658  22.234   0.871   5.108
58179W        W23659  15.773   1.905  11.067
58180W        W23660  32.519  15.248  12.449
58181W        W23661  29.595  25.503  11.487
58182W        W23662  32.009  15.206  14.362
58183W        W23663  12.666  41.958   4.183
58184W        W23664  29.535  41.530   5.302
58185W        W23665   4.726  21.222   4.715
58186W        W23666   3.342  20.717   9.987
58187W        W23667  29.132   4.893  13.457
58188W        W23668  32.082  32.426   4.736
58189W        W23669   7.712  17.166   4.823
58190W        W23670  31.032  22.067  10.988
58191W        W23671  30.585  23.505  14.331
58192W        W23672  12.237   0.253   2.673
58193W        W23673  12.681  29.966  13.465
58194W        W23674  30.658  18.183  14.902
58195W        W23675  21.062  35.909  10.599
58196W        W23676  13.274  20.602  13.417
58197W        W23677  32.584  17.092   4.251
58198W        W23678  26.680  28.606  12.969
58199W        W23679  10.691   0.880   4.615
58200W        W23680  22.630   8.718  14.980
58201W        W23681   5.390   1.941   1.315
58202W        W23682  28.455  11.287   0.348
58203W        W23683  30.985   3.404   0.814
58204W        W23684   9.180   2.816   3.200
58205W        W23685   3.241  18.212   0.345
58206W        W23686  36.842  15.734   1.220
58207W        W23687   7.850  37.938  13.875
58208W        W23688  12.189  17.186  12.457
58209W        W23689  14.136   7.347  14.424
58210W        W23690  40.872   6.879  11.086
58211W        W23691  11.217  14.673   2.317
58212W        W23692   1.848  25.646   4.707
58213W        W23693   0.278  41.398   3.338
58214W        W23694   3.820   1.383   3.776
58215W        W23695  19.197  43.837  13.459
58216W        W23696  20.671  37.413   1.436
58217W        W23697  38.904  19.163   2.311
58218W        W23698  37.858  31.487   3.321
58219W        W23699  30.986  13.133  12.885
58220W        W23700   7.370   5.260   4.768
58221W        W23701  35.049  23.176  11.386
58222W        W23702  33.065  27.001   0.752
58223W        W23703  40.028  31.542   2.699
58224W        W23704  18.200  12.129  14.323
58225W        W23705  43.911  23.181  13.537
58226W        W23706  43.290  19.075  13.005
58227W        W23707  33.878   4.870  12.016
58228W        W23708   1.825  32.944   5.199
58229W        W23709  34.432  27.564   3.364
58230W        W23710  22.238  42.374   3.172
58231W        W23711  26.038  25.671   4.721
58232W        W23712  23.119  38.517  14.847
58233W        W23713   6.694  12.786   3.272
58234W        W23714   7.696  20.115  12.956
58235W        W23715  43.450   9.335   3.241
58236W        W23716   5.813  34.523  10.984
58237W        W23717  25.658  34.593  11.002
58238W        W23718  12.795  20.107  11.010
58239W        W23719  10.158  35.401   2.695
58240W        W23720  36.957  39.032  11.959
58241W        W23721  21.147  42.321  11.509
58242W        W23722  16.725  41.972   1.360
58243W        W23723  41.025  37.872  14.457
58244W        W23724  14.329  24.593   2.281
58245W        W23725   0.447  18.254  14.298
58246W        W23726  21.113  23.610   1.915
58247W        W23727  35.409  35.550   2.237
58248W        W23728  31.018  16.273   1.226
58249W        W23729  10.314   4.945   2.339
58250W        W23730  33.451  34.908   4.202
58251W        W23731  39.849  43.994  11.873
58252W        W23732   5.754  25.574  11.382
58253W        W23733   9.226  10.165  14.991
58254W        W23734   0.812  26.145  13.996
58255W        W23735  38.364  23.119   2.733
58256W        W23736  31.014  18.771   0.342
58257W        W23737  23.720  19.722  12.431
58258W        W23738   6.702  39.874  12.546
58259W        W23739  12.265   7.287  14.872
58260W        W23740  43.339   2.233   1.385
58261W        W23741  27.651  25.059   0.788
58262W        W23742  24.501  27.649   0.274
58263W        W23743  15.697  22.603  13.858
58264W        W23744  31.145  25.160  10.577
58265W        W23745   2.914  30.576  14.876
58266W        W23746   2.796  31.951  13.362
58267W        W23747  33.476  21.665   0.927
58268W        W23748  42.941   4.273   0.856
58269W        W23749  20.759  30.650   4.747
58270W        W23750  13.763  23.489  13.968
58271W        W23751  18.705   2.260  10.442
58272W        W23752   5.371  10.848  12.881
58273W        W23753   6.284  41.485  14.413
58274W        W23754  40.449  28.008   3.715
58275W        W23755  37.897  34.528  12.972
58276W        W23756  10.863  27.584   4.274
58277W        W23757  14.165  18.644  12.081
58278W        W23758   6.349  18.147   2.350
58279W        W23759  41.881  12.306   1.860
58280W        W23760   8.188  33.092   1.887
58281W        W23761  11.332  10.268  12.458
58282W        W23762   8.361  34.469  11.967
58283W        W23763  28.516  13.819   1.875
58284W        W23764  37.500  11.797  10.491
58285W        W23765   0.470  43.813  10.530
58286W        W23766   4.753  20.055  12.007
58287W        W23767  19.633  17.084   0.460
58288W        W23768  38.379  20.522   0.885
58289W        W23769  40.964   3.415   5.116
58290W        W23770  39.466  35.481   0.450
58291W        W23771  16.698  10.826   0.305
58292W        W23772  40.344   2.834  13.525
58293W        W23773  16.708  34.481   3.672
58294W        W23774  10.870  25.975  12.985
58295W        W23775  13.178   4.729  14.398
58296W        W23776  11.127  41.427   4.684
58297W        W23777  39.022  41.442  11.102
58298W        W23778  30.534  38.405   1.723
58299W        W23779  12.338  27.645  14.304
58300W        W23780  44.378  29.167  13.056
58301W        W23781  13.616   1.975   3.332
58302W        W23782  30.425  30.612  13.521
58303W        W23783   9.319  33.901   3.822
58304W        W23784  25.129  40.516   0.381
58305W        W23785  28.488  39.453  12.985
58306W        W23786  18.592  43.419  11.974
58307W        W23787  14.282   0.374  12.393
58308W        W23788  13.344  18.697  13.985
58309W        W23789  22.642  10.795  12.026
58310W        W23790  19.624  41.317   2.378
58311W        W23791  24.065  25.145  14.024
58312W        W23792  15.313  24.508   3.374
58313W        W23793  27.681  15.791  14.326
58314W        W23794  28.445  33.592  14.015
58315W        W23795  19.661  16.174   2.688
58316W        W23796  25.503   4.281   4.792
58317W        W23797   3.903   8.864  13.032
58318W        W23798  12.794  24.078   1.215
58319W        W23799  26.573  27.591   2.718
58320W        W23800  43.840  37.353   2.724
58321W        W23801  19.061  28.176  14.897
58322W        W23802  11.373  19.132   2.324
58323W        W23803  27.533  38.037  12.512
58324W        W23804  22.532  43.968   3.816
58325W        W23805   3.365  39.002  13.053
58326W        W23806  37.507  14.149   2.279
58327W        W23807  40.860  11.303  13.421
58328W        W23808  25.047  10.837  13.840
58329W        W23809  13.820  41.896   4.322
58330W        W23810  19.593  36.003   0.362
58331W        W23811  35.555  21.245   3.724
58332W        W23812  31.402  39.497  12.057
58333W        W23813  32.012  33.508   3.295
58334W        W23814   4.258  13.803  14.315
58335W        W23815  40.304  44.286   4.774
58336W        W23816   1.772  35.414  14.903
58337W        W23817  44.007   4.918   0.390
58338W        W23818  34.415  26.169  11.124
58339W        W23819  31.900  15.808  10.008
58340W        W23820  34.067  32.959   4.641
58341W        W23821  38.923  30.112  13.405
58342W        W23822  11.702   2.238   3.335
58343W        W23823  43.792   9.281   2.328
58344W        W23824  36.572  41.414  11.938
58345W        W23825   9.339  25.522   1.286
58346W        W23826  19.221  18.747  11.375
58347W        W23827  39.547   6.212   3.202
58348W        W23828   9.368   1.363  14.511
58349W        W23829  43.770  10.683   1.237
58350W        W23830  30.528  42.899  10.564
58351W        W23831  35.496  13.285  14.013
58352W        W23832  17.096  43.791   2.681
58353W        W23833  35.102  27.001   4.229
58354W        W23834  12.750   1.448  10.617
58355W        W23835  31.037   2.900   3.275
58356W        W23836  43.010  27.970  11.408
58357W        W23837  30.041  36.490   2.230
58358W        W23838  11.631  18.223  11.050
58359W        W23839  43.396  12.713  11.579
58360W        W23840  14.252  17.286  13.376
58361W        W23841  12.735  29.138  13.349
58362W        W23842  25.550   5.334   1.404
58363W        W23843  17.758   6.683  10.437
58364W        W23844  36.912   0.869  11.124
58365W        W23845   1.253  14.745   1.793
58366W        W23846  24.571  31.403   1.264
58367W        W23847  25.525  38.339   1.699
58368W        W23848  31.647  12.139  12.533
58369W        W23849   3.762  32.525  11.896
58370W        W23850  41.822  44.487  14.881
58371W        W23851  20.140   6.818  12.969
58372W        W23852   1.858  29.148   3.665
58373W        W23853  19.099  33.074  10.896
58374W        W23854  41.898  19.619  10.140
58375W        W23855   7.864  23.600   3.678
58376W        W23856  38.002  24.706   0.734
58377W        W23857  28.668   7.683   2.865
58378W        W23858  25.088  35.984   4.276
58379W        W23859  15.176  24.135   0.338
58380W        W23860  14.185  35.032  14.009
58381W        W23861  36.930  32.934  13.450
58382W        W23862   7.878  37.420  10.579
58383W        W23863  44.842   7.820   0.818
58384W        W23864   9.708  29.646   2.279
58385W        W23865   2.281  32.108   2.342
58386W        W23866  37.023  16.706   4.742
58387W        W23867  34.551   0.942  10.912
58388W        W23868  28.504  38.939   1.296
58389W        W23869   8.262  43.018  12.832
58390W        W23870  35.940  32.081   1.369
58391W        W23871   8.691  20.271  12.555
58392W        W23872  15.123   1.466  12.515
58393W        W23873   4.713   3.347  14.471
58394W        W23874  40.408  13.744   4.732
58395W        W23875  18.776  16.576   3.844
58396W        W23876  34.386  41.929  10.919
58397W        W23877  13.782  14.625  12.565
58398W        W23878  24.018  39.058  10.909
58399W        W23879  42.307   8.726  12.532
58400W        W23880   3.300  11.817  12.424
58401W        W23881  36.452   3.907  10.923
58402W        W23882  33.079  31.079   3.748
58403W        W23883  21.124  42.854   1.312
58404W        W23884  43.934  36.030   3.153
58405W        W23885  32.555  34.939   4.249
58406W        W23886  19.615  29.639   2.262
58407W        W23887  22.669  32.451  11.962
58408W        W23888  28.531  43.013  10.639
58409W        W23889  37.336  30.143  11.910
58410W        W23890  18.735  18.112  14.787
58411W        W23891  31.014  16.270   2.375
58412W        W23892  43.857  44.409  12.035
58413W        W23893  16.176   0.327   1.812
58414W        W23894  31.436  25.166  13.803
58415W        W23895  39.060  18.755   0.934
58416W        W23896  12.613  38.395   4.248
58417W        W23897  33.027  44.264   4.119
58418W        W23898  12.853  39.855   1.858
58419W        W23899  29.946  40.515  13.973
58420W        W23900  36.069   2.416  10.489
58421W        W23901  16.212  16.614  14.274
58422W        W23902   5.249  26.512   3.648
58423W        W23903  25.196  27.572  10.416
58424W        W23904  10.340  10.375   2.868
58425W        W23905   5.260  38.558   1.801
58426W        W23906  31.460   8.807   3.855
58427W        W23907  39.828  42.294  10.606
58428W        W23908  40.368  34.935  11.919
58429W        W23909   4.212  44.434  11.915
58430W        W23910  14.624  24.487  11.898
58431W        W23911  30.078   9.234   2.274
58432W        W23912  35.852  18.133   1.220
58433W        W23913  23.992  25.003   1.735
58434W        W23914  44.287   4.779   3.804
58435W        W23915  23.623  11.284  11.432
58436W        W23916  43.319   4.410  14.002
58437W        W23917   9.861   9.284  12.871
58438W        W23918  43.815  20.641  14.789
58439W        W23919  44.874  42.931   3.651
58440W        W23920  34.024  42.026   1.825
58441W        W23921  11.292   6.254  10.913
58442W        W23922  12.710  18.290   2.870
58443W        W23923  15.159  16.275   0.434
58444W        W23924  30.097  28.941   1.732
58445W        W23925  29.028  33.536   0.873
58446W        W23926  27.061  40.539   0.272
58447W        W23927  19.230  34.427  12.420
58448W        W23928  33.985  14.124  12.495
58449W        W23929  44.504  41.953   5.306
58450W        W23930  12.637   6.422  14.029
58451W        W23931  14.196   2.461   3.671
58452W        W23932  37.051  33.609  14.432
58453W        W23933  20.575  34.017   2.843
58454W        W23934  38.542  40.877   2.275
58455W        W23935  36.546  29.622  11.490
58456W        W23936  17.108  19.740  10.028
58457W        W23937  24.574   9.203  12.464
58458W        W23938  20.153  29.976   0.414
58459W        W23939  18.245  44.959   1.878
58460W        W23940  24.582  29.595   1.865
58461W        W23941  21.588  37.044  13.383
58462W        W23942   1.425  26.037   2.700
58463W        W23943  43.476  26.144  14.893
58464W        W23944  41.810  29.161   2.825
58465W        W23945   7.747  13.251  11.395
58466W        W23946  40.343   4.798   2.385
58467W        W23947  42.951  42.936   1.831
58468W        W23948  26.560  26.080   2.736
58469W        W23949  17.147  30.556  11.548
58470W        W23950  31.519  33.977  14.809
58471W        W23951  13.629   7.819   3.198
58472W        W23952  30.972  44.355  13.831
58473W        W23953  27.542  24.584   1.253
58474W        W23954  36.912  15.326  14.928
58475W        W23955  32.631   8.367   4.762
58476W        W23956  31.505  13.130   0.917
58477W        W23957  28.983   9.346  14.781
58478W        W23958  38.477   6.425  12.901
58479W        W23959  27.446  14.309  13.852
58480W        W23960  26.098   2.736  14.823
58481W        W23961  35.521   2.838   4.821
58482W        W23962   1.946  31.994   3.660
58483W        W23963  14.206  13.798  14.962
58484W        W23964   1.387  24.502  14.473
58485W        W23965  33.481  20.641  14.870
58486W        W23966  41.537  10.157   4.152
58487W        W23967   3.408  12.141   0.363
58488W        W23968  30.596  35.023   0.397
58489W        W23969  44.786  35.474   3.724
58490W        W23970  35.979   9.239  12.956
58491W        W23971  43.825  23.075  12.961
58492W        W23972   5.850   4.722  14.838
58493W        W23973  11.798  44.426  11.911
58494W        W23974  35.899   5.343   2.741
58495W        W23975   9.865  19.613  12.466
58496W        W23976  44.862   0.268   2.215
58497W        W23977   6.779  29.584   3.261
58498W        W23978  17.275  43.437   3.356
58499W        W23979  16.785  32.632   3.374
58500W        W23980   3.409  35.362   1.285
58501W        W23981   1.448  17.775   2.199
58502W        W23982  14.621  17.560   0.399
58503W        W23983   1.957   6.405   4.762
58504W        W23984  32.993   3.811  13.827
58505W        W23985  19.574   3.405   3.361
58506W        W23986  31.648  34.414   2.397
58507W        W23987  32.397   7.401  10.506
58508W        W23988  23.150  26.124   3.322
58509W        W23989  43.853  14.246   0.426
58510W        W23990  16.713  25.635  13.984
58511W        W23991  17.278  12.820  11.998
58512W        W23992  19.585  22.648  13.522
58513W        W23993  24.597  16.316   4.252
58514W        W23994  40.342  11.343  12.471
58515W        W23995  37.442  28.050  14.316
58516W        W23996  19.171  44.480   4.265
58517W        W23997  26.133  29.484  11.606
58518W        W23998  41.298   0.320  13.834
58519W        W23999  35.415  38.358  12.014
58520W        W24000  35.028  19.675   1.442
58521W        W24001  29.159  33.442   1.315
58522W        W24002  17.134  30.913   1.266
58523W        W24003  43.970  17.568  12.574
58524W        W24004  44.914   7.202   3.839
58525W        W24005  37.999  23.003  11.912
58526W        W24006  36.964  24.134   0.790
58527W        W24007  29.625  15.130   3.788
58528W        W24008  24.218  12.286  11.501
58529W        W24009   4.935  34.534   5.596
58530W        W24010  21.720  27.682   0.431
58531W        W24011  17.190  44.836   2.277
58532W        W24012  30.657  11.130  14.348
58533W        W24013  21.177  31.647   2.331
58534W        W24014  13.330  29.062  11.460
58535W        W24015  15.311  37.503   0.356
58536W        W24016   7.849   2.418   3.725
58537W        W24017  17.083   9.235  13.307
58538W        W24018   4.839  11.690   4.708
58539W        W24019   2.858  24.974   0.953
58540W        W24020  14.119  43.808  14.384
58541W        W24021  42.817  35.503  10.422
58542W        W24022  28.616  34.879  12.507
58543W        W24023  28.525   4.413   3.821
58544W        W24024  24.686  34.548   1.273
58545W        W24025  13.190  29.109   3.667
58546W        W24026  20.722  32.902  14.869
58547W        W24027  40.041  22.616   0.437
58548W        W24028   7.845   5.255   0.814
58549W        W24029   3.436  18.646  11.890
58550W        W24030  40.936  10.719   0.912
58551W        W24031   8.221   6.428  12.393
58552W        W24032  10.740   2.860  11.087
58553W        W24033  22.158  12.254  14.955
58554W        W24034  13.696   0.271  12.871
58555W        W24035  40.384  29.946   3.292
58556W        W24036  44.284  40.984   4.184
58557W        W24037  24.621  25.705  12.507
58558W        W24038   1.389  40.393  11.043
58559W        W24039  20.755  15.809  10.944
58560W        W24040  27.007  24.180   1.305
58561W        W24041  27.478  14.305   1.254
58562W        W24042  14.185  36.039   3.656
58563W        W24043  37.386   5.410   4.293
58564W        W24044  36.489  32.483  11.451
58565W        W24045  19.173  38.864  14.877
58566W        W24046   9.845  27.607  14.362
58567W        W24047  39.843  19.158  14.978
58568W        W24048  13.698  20.695   4.337
58569W        W24049  19.049  13.131   0.792
58570W        W24050   5.843  18.170   4.253
58571W        W24051  36.870  39.352  12.883
58572W        W24052   8.244  28.135   1.249
58573W        W24053  39.825  26.000   1.341
58574W        W24054  13.745  28.140  13.527
58575W        W24055  12.245  31.530  14.850
58576W        W24056   6.263  38.946   2.881
58577W        W24057   3.803  14.728  10.447
58578W        W24058  35.407  33.561  12.987
58579W        W24059  24.056  23.049   4.292
58580W        W24060  39.017  11.278  12.943
58581W        W24061  25.070  10.752  14.276
58582W        W24062   4.802   6.362  11.072
58583W        W24063  33.467  32.119   4.187
58584W        W24064  24.989  18.216   1.257
58585W        W24065   1.826  31.436   4.812
58586W        W24066  39.540  11.229   3.733
58587W        W24067   0.422  10.275   4.681
58588W        W24068  35.003  40.388   0.443
58589W        W24069   6.831  23.733   4.613
58590W        W24070  16.620  32.956  14.949
58591W        W24071   8.770  18.182  11.110
58592W        W24072  41.983   2.734   5.247
58593W        W24073  29.919  37.549  14.506
58594W        W24074   2.335  40.328  11.115
58595W        W24075  33.069   8.839  11.535
58596W        W24076  11.197  15.660   3.746
58597W        W24077  31.517   7.209  12.470
58598W        W24078  39.000  23.999   1.400
58599W        W24079  34.402  21.520   1.788
58600W        W24080  10.228   3.458  12.461
58601W        W24081  38.984  14.811   4.836
58602W        W24082  41.821  21.521  13.042
58603W        W24083  38.431  22.131  14.395
58604W        W24084   8.175  17.272   0.728
58605W        W24085  24.184  30.575   5.242
58606W        W24086  16.795  13.140   1.694
58607W        W24087  41.021  23.529   0.925
58608W        W24088  19.623  12.828  13.394
58609W        W24089  30.476  42.004   5.241
58610W        W24090  42.900  37.954  13.379
58611W        W24091  22.664  35.551  11.013
58612W        W24092  18.197  39.817  11.559
58613W        W24093  35.425   4.747   2.832
58614W        W24094  19.740   2.788  14.969
58615W        W24095  33.517  44.877  13.824
58616W        W24096  23.501  11.853  14.772
58617W        W24097   0.846  36.590   1.925
58618W        W24098  17.564  43.384   2.391
58619W        W24099  28.078  27.062  10.514
58620W        W24100  39.948   1.900  12.534
58621W        W24101   7.193   2.953   4.690
58622W        W24102  24.532  12.214  14.511
58623W        W24103  43.299   5.752   0.822
58624W        W24104  24.036  26.510  11.416
58625W        W24105   0.778  43.776   0.348
58626W        W24106  26.032  25.056  11.883
58627W        W24107  18.050   7.240  12.969
58628W        W24108  34.458  23.188   4.138
58629W        W24109   2.823   0.854   2.829
58630W        W24110   0.951  20.550  14.844
58631W        W24111  21.150  15.185   0.937
58632W        W24112  38.389  40.885  10.545
58633W        W24113  23.116   4.375  12.078
58634W        W24114  24.223  21.513   3.156
58635W        W24115  15.303  36.975  13.962
58636W        W24116  25.641  40.921   4.324
58637W        W24117  37.024  43.325  11.407
58638W        W24118  18.235  13.825   2.848
58639W        W24119  20.619   4.262   2.768
58640W        W24120  30.105   8.757   1.867
58641W        W24121   9.154  18.291  14.423
58642W        W24122  21.526  28.985  13.524
58643W        W24123  42.403  33.593   1.339
58644W        W24124   4.857  21.176   9.988
58645W        W24125   2.759   6.885   4.250
58646W        W24126  40.417   7.677   1.363
58647W        W24127   3.215  35.520   4.294
58648W        W24128  28.640  27.668  13.493
58649W        W24129  40.965  20.637  14.320
58650W        W24130  38.953  11.142   1.342
58651W        W24131   5.370  34.891   2.687
58652W        W24132   7.325  20.557  10.504
58653W        W24133  17.696   8.190   4.130
58654W        W24134   7.239  37.905   1.695
58655W        W24135   3.719  36.435   3.862
58656W        W24136  44.913   7.902   2.330
58657W        W24137  28.984  39.343  10.020
58658W        W24138   3.739  29.007   0.338
58659W        W24139  33.922   1.812  12.915
58660W        W24140   0.253   3.867  13.372
58661W        W24141  17.201  36.515   0.789
58662W        W24142  21.714   5.276   1.335
58663W        W24143  21.099  34.373  10.945
58664W        W24144   5.838  26.141  14.336
58665W        W24145  26.624  36.855  12.483
58666W        W24146  24.974   8.327  12.835
58667W        W24147  44.366  17.067   4.261
58668W        W24148   3.387  38.833   1.871
58669W        W24149  18.700  35.082  14.376
58670W        W24150  41.862  17.119  14.872
58671W        W24151   0.858  42.977  14.761
58672W        W24152  23.609   1.410  13.951
58673W        W24153  21.562  44.872   1.237
58674W        W24154  17.146  22.562  10.037
58675W        W24155   7.314   9.890   3.317
58676W        W24156   8.746   3.938   2.887
58677W        W24157   3.427  10.746  12.041
58678W        W24158  11.816   4.763   1.788
58679W        W24159  21.579  44.764  12.916
58680W        W24160  24.686  23.220  14.483
58681W        W24161  16.083  20.723   3.170
58682W        W24162  12.723  37.027  10.531
58683W        W24163  18.216  27.537  13.811
58684W        W24164  39.832   5.929  10.514
58685W        W24165  18.742  13.162   2.305
58686W        W24166   0.291   9.194   1.241
58687W        W24167  25.660  21.233  12.393
58688W        W24168   7.343  40.324  13.398
58689W        W24169  18.132   0.293  10.955
58690W        W24170  20.573  33.505  13.318
58691W        W24171  25.005  21.146   3.205
58692W        W24172   5.320  11.625   0.921
58693W        W24173   8.203   8.793  12.540
58694W        W24174  36.081  18.744   0.954
58695W        W24175  28.970  29.602   3.663
58696W        W24176  39.399   2.742  13.917
58697W        W24177   0.986  17.703  12.398
58698W        W24178  33.400   5.356  14.365
58699W        W24179  39.438  33.597  11.469
58700W        W24180  30.019  32.438  12.480
58701W        W24181   2.254  22.618  12.044
58702W        W24182  13.214  10.810  14.791
58703W        W24183  18.159  11.195   4.625
58704W        W24184  30.011   2.916   1.879
58705W        W24185  10.678  12.334  14.915
58706W        W24186  21.161  39.490  10.947
58707W        W24187  22.610  19.580  13.309
58708W        W24188  44.259   8.747   3.259
58709W        W24189  40.820  30.494   2.875
58710W        W24190  21.750  39.869   4.177
58711W        W24191  39.500  22.161   0.967
58712W        W24192  42.984   6.343  14.934
58713W        W24193  27.623  39.953   9.557
58714W        W24194  34.466  38.907   4.310
58715W        W24195  43.995  39.558  12.084
58716W        W24196  11.668  36.497   0.901
58717W        W24197   6.246  11.811  14.418
58718W        W24198   8.764   9.245   4.216
58719W        W24199  29.005  24.039  11.455
58720W        W24200  21.035   7.906   2.266
58721W        W24201  34.052  30.986  11.377
58722W        W24202  24.206  24.998   2.305
58723W        W24203  30.134  24.099  14.503
58724W        W24204  40.829   3.446  10.045
58725W        W24205  12.684  24.492  11.090
58726W        W24206  42.986   5.889  13.850
58727W        W24207  21.244  23.149   4.607
58728W        W24208  40.304  23.216  12.889
58729W        W24209   8.895  42.427  11.857
58730W        W24210  36.522  36.916   4.233
58731W        W24211  17.679  14.221  13.379
58732W        W24212  32.900  44.982   2.351
58733W        W24213  26.149  19.144   1.819
58734W        W24214   0.251  11.658  11.390
58735W        W24215  28.573   9.721   0.895
58736W        W24216  14.123   6.409   0.397
58737W        W24217   6.341  13.258   0.375
58738W        W24218  36.362  41.368  12.833
58739W        W24219   0.353  19.272   2.397
58740W        W24220  21.230  15.223  11.104
58741W        W24221  33.578  21.621  13.449
58742W        W24222   5.372  30.944   2.363
58743W        W24223  40.895  23.094  11.893
58744W        W24224   6.201  12.701   4.278
58745W        W24225  13.662  37.464  14.510
58746W        W24226  13.194  44.899   0.308
58747W        W24227  24.697  35.027   2.828
58748W        W24228  31.066  35.867  13.507
58749W        W24229  11.761  44.266  12.540
58750W        W24230  32.628  24.580   3.346
58751W        W24231   4.887  26.507   3.749
58752W        W24232  34.371  21.560  14.276
58753W        W24233  42.365  14.664   3.340
58754W        W24234  16.765  12.827  10.620
58755W        W24235  22.546  18.183   0.261
58756W        W24236  39.911  24.140  14.900
58757W        W24237   7.772  15.321   4.612
58758W        W24238  34.376  31.108   0.447
58759W        W24239  27.976  23.631  10.563
58760W        W24240  18.081  32.044  14.807
58761W        W24241  30.979  42.327  12.422
58762W        W24242  42.298   0.779  10.534
58763W        W24243  16.215  42.033  12.454
58764W        W24244  41.485  42.423  12.504
58765W        W24245  24.228  27.618   3.831
58766W        W24246  34.097  41.354  13.507
58767W        W24247   0.910  35.390   2.202
58768W        W24248  42.003  40.026  14.505
58769W        W24249  34.374  40.544  11.607
58770W        W24250  22.234   0.799  12.856
58771W        W24251  35.062   1.794  10.915
58772W        W24252  19.777  31.952   1.784
58773W        W24253   2.907  32.519   1.237
58774W        W24254  23.726  13.631  12.461
58775W        W24255  12.851  25.996   2.848
58776W        W24256  25.964  17.121   0.885
58777W        W24257  30.624   9.155   2.671
58778W        W24258  19.613  14.236   1.268
58779W        W24259  40.321  30.620  12.427
58780W        W24260  37.051  30.130  14.920
58781W        W24261  40.053  20.236  14.857
58782W        W24262  20.587  42.490  13.960
58783W        W24263  43.923  37.046  11.374
58784W        W24264   2.353  31.618  10.452
58785W        W24265  16.792  41.439   2.371
58786W        W24266   4.390  41.971  13.346
58787W        W24267  44.455  30.161   0.275
58788W        W24268   1.465  14.154   0.456
58789W        W24269  10.383   8.863  11.563
58790W        W24270  36.539  41.953   4.319
58791W        W24271  25.006   9.815   3.265
58792W        W24272   1.970  44.963  11.465
58793W        W24273  14.323  21.180   3.374
58794W        W24274  41.500  38.052  14.378
58795W        W24275  20.746  22.195  14.438
58796W        W24276   2.274  38.907  14.923
58797W        W24277  39.360   5.761   1.750
58798W        W24278  10.367   7.883  11.980
58799W        W24279  19.240  43.302  12.381
58800W        W24280  37.009  34.511  14.283
58801W        W24281  29.014   4.747   4.281
58802W        W24282  10.367  36.074   2.394
58803W        W24283   0.954  37.370   9.924
58804W        W24284   6.919  43.957  11.920
58805W        W24285  19.568  12.192  12.464
58806W        W24286  11.784   0.751  12.365
58807W        W24287  35.457  41.929   0.277
58808W        W24288  18.069  12.356   4.156
58809W        W24289   8.254  35.447   2.684
58810W        W24290   3.254  13.267  14.812
58811W        W24291   3.831  43.302  13.397
58812W        W24292  36.047  10.152   2.380
58813W        W24293  27.546  21.218   2.744
58814W        W24294  32.932   3.824   1.802
58815W        W24295  27.596  29.509  10.594
58816W        W24296  34.523   4.284   0.284
58817W        W24297   1.241  25.115  11.998
58818W        W24298  23.586  38.375  12.449
58819W        W24299  44.441  22.182   4.241
58820W        W24300   1.891   7.333  12.874
58821W        W24301   9.721  36.064  14.906
58822W        W24302   1.921  17.766   1.338
58823W        W24303  13.740   8.713  14.306
58824W        W24304   6.395  23.176  13.403
58825W        W24305  17.721  20.701   0.287
58826W        W24306   6.696   5.249   0.873
58827W        W24307  41.358  41.529  14.934
58828W        W24308  23.725  11.234   4.751
58829W        W24309  28.472   2.410  12.968
58830W        W24310  35.371  19.600  12.934
58831W        W24311  18.080   6.316  11.430
58832W        W24312  42.307  39.358   2.704
58833W        W24313   7.260  23.590  14.976
58834W        W24314  41.930  42.516  13.045
58835W        W24315   6.357  44.477  11.556
58836W        W24316  28.037  11.731   0.370
58837W        W24317  20.076  32.954   0.822
58838W        W24318  32.996  25.654  11.412
58839W        W24319  41.450  38.874  14.278
58840W        W24320  36.455  16.189  12.374
58841W        W24321  41.814  14.307   2.247
58842W        W24322  13.186  20.639  14.333
58843W        W24323  40.445  25.035  13.004
58844W        W24324  23.148  41.466   4.801
58845W        W24325  20.177  11.659  14.334
58846W        W24326  26.488  38.558  14.910
58847W        W24327  26.607  44.825  12.850
58848W        W24328  10.688  12.296   0.452
58849W        W24329   7.226   5.795   0.881
58850W        W24330  36.481  34.881  10.894
58851W        W24331  12.286   2.441   2.716
58852W        W24332  33.579  20.156   0.877
58853W        W24333  13.126  40.892   2.342
58854W        W24334  36.904  37.378   0.420
58855W        W24335  38.825  21.684   1.696
58856W        W24336   1.424  21.089   4.137
58857W        W24337  13.831  42.783  13.497
58858W        W24338  17.293  39.820  13.332
58859W        W24339  29.070  26.952  12.909
58860W        W24340  29.586  40.471  14.480
58861W        W24341  19.230  18.571  12.048
58862W        W24342  36.586  33.578  12.047
58863W        W24343  30.122  43.828   3.152
58864W        W24344  26.697  40.907  12.847
58865W        W24345  16.711  33.975   0.854
58866W        W24346  36.510  13.192  13.823
58867W        W24347  35.503  19.543   0.792
58868W        W24348  36.017  38.331  10.566
58869W        W24349  44.861  17.144   3.246
58870W        W24350  32.104  36.507   5.151
58871W        W24351  20.174   9.337   2.887
58872W        W24352  40.000   1.771   4.626
58873W        W24353  25.085  41.532  13.838
58874W        W24354  35.416  33.050  14.849
58875W        W24355  18.710  21.552   0.275
58876W        W24356  16.173  31.590   3.647
58877W        W24357  14.647  41.007   2.788
58878W        W24358  29.498  12.837   2.847
58879W        W24359   5.233  22.243  12.988
58880W        W24360  42.409  29.997  10.980
58881W        W24361  42.028  30.599  10.951
58882W        W24362  30.930  24.025   1.840
58883W        W24363  11.699  16.710  10.621
58884W        W24364  11.792   0.376   0.958
58885W        W24365  39.536  14.188   4.757
58886W        W24366  32.606  20.764   4.653
58887W        W24367  44.810   4.242   2.662
58888W        W24368  37.574  20.664   1.805
58889W        W24369  27.987  27.159  13.796
58890W        W24370  30.480  36.082  10.966
58891W        W24371   4.446  14.718  14.984
58892W        W24372  20.747   2.328  14.498
58893W        W24373  39.384  21.527  10.943
58894W        W24374   6.753   6.912  12.560
58895W        W24375  42.410  21.604   4.303
58896W        W24376  25.080  11.328   3.210
58897W        W24377  21.218  11.664  13.978
58898W        W24378  43.441  34.039  11.549
58899W        W24379   5.317  44.876  13.406
58900W        W24380  12.202  14.816  13.482
58901W        W24381  27.656  16.317  14.365
58902W        W24382  44.944  37.084  13.816
58903W        W24383  15.624  26.631  13.352
58904W        W24384  44.419  41.020  10.003
58905W        W24385  21.601  35.896   4.672
58906W        W24386  41.001  23.130  12.845
58907W        W24387  18.255   0.903  13.341
58908W        W24388  15.737   9.345  12.839
58909W        W24389  15.226  14.178  14.917
58910W        W24390  35.075   2.348  12.089
58911W        W24391  32.442  39.465   3.312
58912W        W24392  23.096  33.071   2.774
58913W        W24393   5.240  31.099   1.249
58914W        W24394  34.600  11.181  14.335
58915W        W24395  42.868   3.308  12.474
58916W        W24396  20.601  17.241  11.068
58917W        W24397   2.949   3.906   4.638
58918W        W24398   0.809  14.713  14.515
58919W        W24399  38.958   3.340   1.264
58920W        W24400  37.974  10.851   1.308
58921W        W24401  35.918  26.981   0.850
58922W        W24402  11.290  21.630   3.766
58923W        W24403  37.548  41.350  10.091
58924W        W24404  40.973  14.134   4.685
58925W        W24405  21.664  29.514   3.814
58926W        W24406   4.941  37.019   2.884
58927W        W24407  24.607  38.925   2.695
58928W        W24408   5.868   4.446  12.564
58929W        W24409  40.313  34.462   0.952
58930W        W24410  14.334   4.726  14.950
58931W        W24411  19.181  29.633   2.739
58932W        W24412  24.504  17.157  11.923
58933W        W24413   2.372  11.348  11.936
58934W        W24414  18.270   3.748  12.863
58935W        W24415  16.581  10.349   4.713
58936W        W24416  12.777   1.954  13.810
58937W        W24417   2.324  25.106   2.213
58938W        W24418  22.052  29.975   3.184
58939W        W24419  26.022  24.140   1.251
58940W        W24420  14.233  29.509   3.309
58941W        W24421  16.088   6.339  13.878
58942W        W24422  23.111  43.773   2.345
58943W        W24423   3.866  32.041   1.281
58944W        W24424  33.516   3.889   3.752
58945W        W24425   4.297  28.522   3.740
58946W        W24426   2.387  21.709   1.716
58947W        W24427  18.628   4.771  13.958
58948W        W24428   6.745  24.616  11.438
58949W        W24429   5.876   2.876  11.553
58950W        W24430  10.178  18.271  10.927
58951W        W24431  31.128  35.487   4.726
58952W        W24432  42.927  22.096  13.998
58953W        W24433  23.200   7.181   1.905
58954W        W24434  33.624  11.185  14.438
58955W        W24435   3.940  32.089   4.328
58956W        W24436  36.048   0.282   0.341
58957W        W24437  18.083  37.506   1.355
58958W        W24438  36.584  25.700  10.516
58959W        W24439   5.922   5.364   0.339
58960W        W24440  17.651  42.334   4.795
58961W        W24441  36.586  29.640  14.855
58962W        W24442   9.300  13.279  12.039
58963W        W24443  39.443  17.127  11.013
58964W        W24444  12.738  32.029   0.417
58965W        W24445  21.584   1.874   0.836
58966W        W24446   6.278   7.336  14.888
58967W        W24447  42.486  44.928  10.985
58968W        W24448  44.831  40.899  13.531
58969W        W24449  25.509  22.686   4.658
58970W        W24450   7.341  29.521  12.499
58971W        W24451   4.363  33.414   0.963
58972W        W24452   0.750   0.346   0.335
58973W        W24453  10.349  15.319   4.236
58974W        W24454  13.641  20.589  13.858
58975W        W24455   1.789  34.501   2.849
58976W        W24456  11.189   7.912   4.770
58977W        W24457  43.292  36.472  13.020
58978W        W24458  17.184  35.601   2.872
58979W        W24459  29.146  12.294   2.246
58980W        W24460  33.029  42.790  13.473
58981W        W24461  41.819  16.126  13.876
58982W        W24462  24.568  33.020   3.670
58983W        W24463  37.865  19.245   3.198
58984W        W24464  35.582  39.336  14.338
58985W        W24465   9.363  25.612   0.948
58986W        W24466  34.412  41.949   2.758
58987W        W24467  39.478   8.885  10.603
58988W        W24468  26.956  37.903   4.318
58989W        W24469   2.779  17.066   3.354
58990W        W24470  20.099  44.820  14.277
58991W        W24471  31.046   6.352  11.943
58992W        W24472  42.827   1.356   1.301
58993W        W24473  25.567  30.156   0.410
58994W        W24474  44.969  34.511   0.279
58995W        W24475  28.953  44.374   3.697
58996W        W24476  35.409  41.375   1.799
58997W        W24477  31.532  29.627   4.666
58998W        W24478   4.901  13.769   4.764
58999W        W24479  23.111  23.062   0.345
59000W        W24480  42.976  23.621   0.901
59001W        W24481  35.025  12.680  10.424
59002W        W24482  17.799  16.084   2.359
59003W        W24483  40.453  10.861  11.580
59004W        W24484  42.983  27.531   3.309
59005W        W24485  30.423   8.656  12.416
59006W        W24486   1.857  18.631   3.254
59007W        W24487  44.790  30.004  11.545
59008W        W24488  43.505  25.528  12.353
59009W        W24489  20.528  28.073  14.390
59010W        W24490   6.275  43.464   1.295
59011W        W24491  19.627   5.757   1.866
59012W        W24492  18.108  27.686   2.716
59013W        W24493  39.061  25.037   4.171
59014W        W24494  18.750  33.062   1.817
59015W        W24495  43.304  12.679   0.840
59016W        W24496   7.881  38.359   2.766
59017W        W24497  11.235   1.958  10.467
59018W        W24498   2.418  30.641  10.470
59019W        W24499   2.419  40.316  10.488
59020W        W24500  26.990  11.127   1.447
59021W        W24501  22.018   3.441  11.514
59022W        W24502  19.082  35.949  14.924
59023W        W24503   4.724  30.922  10.965
59024W        W24504  37.989   3.949  14.367
59025W        W24505  44.436  32.629  11.556
59026W        W24506  41.980  36.915  12.942
59027W        W24507  21.737   1.286   4.823
59028W        W24508   2.435  11.837  10.578
59029W        W24509  43.964  15.315   2.827
59030W        W24510  16.655   2.336  13.537
59031W        W24511  41.892   3.896  12.039
59032W        W24512  34.569  14.828  14.785
59033W        W24513  19.086  42.798  12.383
59034W        W24514  37.897   1.840   0.870
59035W        W24515  22.634  11.298   3.336
59036W        W24516   2.927   5.734   1.722
59037W        W24517  34.592  21.187  12.933
59038W        W24518  36.446  12.670   2.812
59039W        W24519   7.729  28.627  14.783
59040W        W24520  25.116   8.763  10.999
59041W        W24521  22.229  27.514   0.756
59042W        W24522  26.613  18.052   0.784
59043W        W24523   8.802  16.736  11.592
59044W        W24524  16.645  21.093  13.537
59045W        W24525  18.172  38.839  13.799
59046W        W24526  34.383   9.771  13.052
59047W        W24527  44.918  31.499   4.665
59048W        W24528   2.869  31.121  10.522
59049W        W24529  33.623  44.779   3.647
59050W        W24530  15.234  40.799   1.814
59051W        W24531  27.982  43.310   2.184
59052W        W24532  24.481  19.124  10.953
59053W        W24533  30.584  39.444   0.334
59054W        W24534  40.376   9.888  14.007
59055W        W24535  27.055   5.334   1.785
59056W        W24536  13.349  10.684   4.341
59057W        W24537  37.928  26.471   4.744
59058W        W24538  28.975  33.933   3.208
59059W        W24539  22.531  39.851  14.485
59060W        W24540  31.412  40.391  11.441
59061W        W24541  31.054  36.541  11.437
59062W        W24542  36.895  24.133   3.741
59063W        W24543   5.893  44.268  13.869
59064W        W24544  40.466  33.113  14.447
59065W        W24545  34.457   3.888  13.356
59066W        W24546  23.494  18.114  14.387
59067W        W24547  36.582  22.041  11.482
59068W        W24548  38.390  32.524  12.003
59069W        W24549  23.631  13.740   4.802
59070W        W24550  42.984   9.389   2.218
59071W        W24551  42.997  26.550  12.447
59072W        W24552  21.724  39.376  12.565
59073W        W24553  28.122  42.895   0.735
59074W        W24554  27.590  29.131  10.946
59075W        W24555  22.237   2.771  10.561
59076W        W24556  26.503  25.504   2.351
59077W        W24557  13.193  42.911  14.886
59078W        W24558   9.672  10.855  11.091
59079W        W24559   8.674   3.919  12.823
59080W        W24560  24.045  10.142  14.290
59081W        W24561  42.408   5.694   9.475
59082W        W24562  10.640  40.990  13.885
59083W        W24563   2.332   2.349  12.345
59084W        W24564  19.683  11.813   0.422
59085W        W24565  32.996  35.599  12.979
59086W        W24566  18.708  31.947  10.453
59087W        W24567  33.050  39.448   5.131
59088W        W24568   4.841  26.643   0.821
59089W        W24569   9.652  29.456   1.833
59090W        W24570  11.646  25.097  10.135
59091W        W24571  31.108  42.965  13.341
59092W        W24572  15.320   4.884   1.812
59093W        W24573   1.769  43.772  13.868
59094W        W24574  32.548  17.265  14.474
59095W        W24575  26.619  36.917  11.477
59096W        W24576  10.377   4.908  14.866
59097W        W24577  33.603  37.543   2.344
59098W        W24578  39.460   0.335  11.862
59099W        W24579   7.717   8.822  13.419
59100W        W24580  20.563  39.451   1.235
59101W        W24581  36.941  21.146   4.831
59102W        W24582  35.411   5.425   2.296
59103W        W24583   8.162   1.369   3.264
59104W        W24584   4.733   6.258  13.805
59105W        W24585   4.409  22.995  12.064
59106W        W24586  35.072  22.095  13.822
59107W        W24587  42.992  10.857  11.097
59108W        W24588   9.698   7.385  12.012
59109W        W24589  31.639   5.312   0.311
59110W        W24590  16.777  29.056   4.257
59111W        W24591   6.900  41.322   4.161
59112W        W24592  36.531   2.836   0.256
59113W        W24593   0.865  19.614   2.290
59114W        W24594   9.217  16.647   4.654
59115W        W24595   9.329  13.217  10.442
59116W        W24596  20.606   3.918   0.963
59117W        W24597  16.200   7.275   1.354
59118W        W24598  28.584  38.553   0.842
59119W        W24599  39.514   4.889  14.917
59120W        W24600  43.481  14.677   3.640
59121W        W24601  18.130  30.048  12.040
59122W        W24602  34.014  35.420  13.529
59123W        W24603   8.872  17.601   3.728
59124W        W24604   1.335  14.103  10.421
59125W        W24605  40.044  30.984  14.419
59126W        W24606  29.424   7.225  13.475
59127W        W24607  29.112  14.659  11.109
59128W        W24608   0.946  17.073   5.128
59129W        W24609  25.510  19.062  12.558
59130W        W24610  23.090  16.091  12.832
59131W        W24611  34.057   2.370  11.073
59132W        W24612  26.622  38.992   1.788
59133W        W24613  20.650   5.346   3.755
59134W        W24614  23.114  40.507  14.879
59135W        W24615   7.760   9.708  14.771
59136W        W24616  33.924  39.042  10.939
59137W        W24617  35.034  22.211   2.833
59138W        W24618  27.108  23.713   0.953
59139W        W24619  31.947  16.606  11.000
59140W        W24620  24.019  20.631  12.911
59141W        W24621   0.297   7.249   1.387
59142W        W24622  33.924  15.284  12.994
59143W        W24623  15.324   8.745   2.862
59144W        W24624   0.969  41.532   5.262
59145W        W24625   9.191  16.189  14.770
59146W        W24626  24.692   6.213  10.464
59147W        W24627  39.439  17.121   4.228
59148W        W24628   4.367   2.433  11.080
59149W        W24629  27.533  22.240  10.916
59150W        W24630  18.771   5.338  12.889
59151W        W24631  36.076  35.519   2.828
59152W        W24632  28.159  35.084  12.889
59153W        W24633   5.250  42.455   3.204
59154W        W24634  15.750   1.450  11.963
59155W        W24635  27.159  21.230   2.296
59156W        W24636  18.194  43.420  12.064
59157W        W24637  42.847  16.216  12.970
59158W        W24638  21.047  40.828  13.385
59159W        W24639  11.258  23.538   4.340
59160W        W24640  36.570  20.709  10.914
59161W        W24641  11.322  24.671  14.358
59162W        W24642  18.743  43.938  13.920
59163W        W24643   8.838  18.755  12.891
59164W        W24644  26.504  10.153  13.524
59165W        W24645  42.000  44.274  12.477
59166W        W24646  14.180  41.898  11.923
59167W        W24647   4.362  41.451   1.809
59168W        W24648  15.746   5.785   1.751
59169W        W24649  39.370  12.131  12.400
59170W        W24650   6.295   3.755   2.719
59171W        W24651   5.818  26.951   4.815
59172W        W24652  33.402  41.004   0.911
59173W        W24653  12.156  27.972  12.524
59174W        W24654   2.347  36.405  14.387
59175W        W24655  41.386  11.352   3.294
59176W        W24656   3.403  37.035   0.934
59177W        W24657  24.091   6.828   0.833
59178W        W24658  12.150   7.317   1.724
59179W        W24659   7.684  39.961  11.378
59180W        W24660  30.456   6.882  11.953
59181W        W24661  23.512   2.268  14.418
59182W        W24662  44.316  16.635  13.494
59183W        W24663  41.798  19.615   0.433
59184W        W24664  31.529   5.896  14.298
59185W        W24665  19.665  21.202  14.945
59186W        W24666  42.823  13.690  12.878
59187W        W24667  32.559  30.512   1.273
59188W        W24668  23.204  33.381   0.836
59189W        W24669  35.999  38.032   3.344
59190W        W24670  13.335  24.136   4.738
59191W        W24671  25.635  33.588  11.584
59192W        W24672  10.299  25.976  14.952
59193W        W24673  16.583  40.351  14.434
59194W        W24674  30.638  34.890   3.644
59195W        W24675  13.166  12.833  11.975
59196W        W24676   9.807   2.325   4.144
59197W        W24677  23.051  11.781  12.458
59198W        W24678  28.628  32.006   1.867
59199W        W24679  15.225  20.254   0.401
59200W        W24680   7.903  31.572   1.435
59201W        W24681  37.035  34.001  14.304
59202W        W24682  14.242  13.658  11.413
59203W        W24683  15.761   8.755   2.371
59204W        W24684  19.198  15.675   3.766
59205W        W24685  43.926   0.367   2.191
59206W        W24686  19.123  33.564  14.877
59207W        W24687  18.651  39.411   0.894
59208W        W24688   7.290  32.404  14.308
59209W        W24689  22.222  35.995   3.717
59210W        W24690  37.473  33.117   3.859
59211W        W24691  15.609  40.001  11.924
59212W        W24692   4.363  35.984   3.689
59213W        W24693   1.255  28.054   4.155
59214W        W24694  13.272   2.801  13.366
59215W        W24695  30.916  35.071   3.831
59216W        W24696  21.254  11.305  10.897
59217W        W24697  23.606  10.723   0.462
59218W        W24698   8.695  16.315  14.420
59219W        W24699  36.977  43.388   1.907
59220W        W24700  25.530  40.532   2.864
59221W        W24701  38.550  10.683  11.378
59222W        W24702  36.076  13.842   3.801
59223W        W24703  18.072  43.909   2.199
59224W        W24704  18.677  31.416   0.907
59225W        W24705  16.708  15.214  14.771
59226W        W24706   1.976  29.611   3.253
59227W        W24707  32.394  43.394  14.908
59228W        W24708   2.388  18.770   4.707
59229W        W24709  35.002  17.669   1.725
59230W        W24710  23.014  33.982   1.818
59231W        W24711  15.109  42.877   3.759
59232W        W24712   9.331   6.746  12.508
59233W        W24713  12.855  32.129  13.532
59234W        W24714  33.442  26.975   2.708
59235W        W24715  10.800  35.059  13.989
59236W        W24716  41.834   9.162  12.061
59237W        W24717   7.350  43.972  10.908
59238W        W24718   2.274  44.273   0.879
59239W        W24719  16.253  26.586  12.346
59240W        W24720  27.173  21.079   0.440
59241W        W24721  12.343   9.229   3.221
59242W        W24722  11.166  41.828  11.914
59243W        W24723  39.896   9.365   2.814
59244W        W24724  38.833  32.982   4.768
59245W        W24725   2.349  41.006  12.921
59246W        W24726  15.279  40.047   2.863
59247W        W24727  28.460  34.418   2.843
59248W        W24728  37.401  19.148   1.376
59249W        W24729  29.563  37.010   1.848
59250W        W24730   0.947  12.353   1.824
59251W        W24731  32.103  10.182   3.184
59252W        W24732  35.910  42.305  14.333
59253W        W24733  31.019  39.456  14.767
59254W        W24734   1.780  40.325  14.428
59255W        W24735   3.827  43.478   1.340
59256W        W24736   4.342  28.457  12.982
59257W        W24737  17.100  36.055  11.887
59258W        W24738   5.791  27.461   3.828
59259W        W24739  39.931   2.967  10.423
59260W        W24740  23.222  30.158   3.265
59261W        W24741  36.451  32.549   1.301
59262W        W24742  41.042   3.412   9.527
59263W        W24743  21.070  13.771  10.482
59264W        W24744  23.613   8.168  12.885
59265W        W24745  20.623  43.874   4.289
59266W        W24746  25.493   1.465   3.748
59267W        W24747  22.586  12.264  12.387
59268W        W24748  19.284  15.276  14.839
59269W        W24749  12.152  18.107   3.726
59270W        W24750  42.012   1.480  10.482
59271W        W24751  29.075  12.736   1.892
59272W        W24752  28.959   6.731  13.801
59273W        W24753  15.816  27.559  11.574
59274W        W24754  27.597  33.067  13.951
59275W        W24755  29.032   8.375  14.833
59276W        W24756  41.334  12.779  12.022
59277W        W24757  18.637  12.670  14.989
59278W        W24758  10.245   2.936  14.797
59279W        W24759  43.458  35.537   3.705
59280W        W24760   3.237   9.383  14.381
59281W        W24761  32.912  11.274   1.806
59282W        W24762  28.631  21.663   4.181
59283W        W24763  18.605  36.381   3.163
59284W        W24764  11.625  35.571   1.909
59285W        W24765   6.270  18.628   0.462
59286W        W24766   2.469  19.573   5.096
59287W        W24767   5.692  24.166   4.828
59288W        W24768  28.447  43.428   0.374
59289W        W24769  13.244  16.716   2.781
59290W        W24770  16.717  13.298  11.510
59291W        W24771  22.091   0.444  11.969
59292W        W24772  22.604  15.250   2.689
59293W        W24773  15.651  19.120   2.670
59294W        W24774  10.159   7.282   3.272
59295W        W24775  11.191  36.856  14.444
59296W        W24776   0.327   9.846   1.429
59297W        W24777  10.161  18.616   0.779
59298W        W24778  12.346   7.190  12.941
59299W        W24779  20.611  33.082   2.183
59300W        W24780   6.286  30.949   3.323
59301W        W24781  28.108  21.690  11.505
59302W        W24782  37.041  38.442  10.539
59303W        W24783  11.833  11.147  13.372
59304W        W24784  21.138  26.590   5.108
59305W        W24785  21.628  19.200   2.764
59306W        W24786  41.833   1.482  11.482
59307W        W24787  10.249  15.821   1.437
59308W        W24788  38.885  19.206   5.791
59309W        W24789  28.127  19.535  11.031
59310W        W24790  18.725   8.786  13.992
59311W        W24791  12.617  19.648  14.843
59312W        W24792  18.702  14.276   5.309
59313W        W24793  16.744  35.473   1.904
59314W        W24794  30.100   1.302  13.429
59315W        W24795  31.453   3.927  14.330
59316W        W24796  39.904  23.621   1.777
59317W        W24797  41.536   1.284   4.642
59318W        W24798  11.744  35.436  13.995
59319W        W24799  42.380  21.141  11.585
59320W        W24800  16.743  12.835  13.961
59321W        W24801   3.786  25.482   2.855
59322W        W24802  26.648   1.886   0.278
59323W        W24803  39.891  15.140  11.009
59324W        W24804   6.213  32.103   2.723
59325W        W24805  19.093  33.897   1.433
59326W        W24806   9.706  38.561   2.368
59327W        W24807  39.965  28.565  12.569
59328W        W24808  14.122   2.471  10.483
59329W        W24809  32.934  10.745   4.725
59330W        W24810  37.943  38.833   0.800
59331W        W24811  13.822   3.822  12.437
59332W        W24812   3.318  38.336  14.975
59333W        W24813  23.004  21.643  14.411
59334W        W24814  34.555  38.911   1.841
59335W        W24815   0.259  32.038   1.257
59336W        W24816   0.775   8.341   3.775
59337W        W24817  13.649  29.630  13.432
59338W        W24818  25.486   6.913  12.368
59339W        W24819  43.306  41.882  14.380
59340W        W24820  21.714  42.369   3.319
59341W        W24821   0.986  39.914   4.159
59342W        W24822  15.652  44.445  13.345
59343W        W24823  29.978  16.317  14.831
59344W        W24824  13.710  14.784   3.312
59345W        W24825  12.634   3.790  14.447
59346W        W24826  11.690   3.847   4.260
59347W        W24827   8.715  36.900  12.828
59348W        W24828  11.298  11.674  14.299
59349W        W24829  36.385  28.588   4.320
59350W        W24830  12.145  18.737   2.277
59351W        W24831  32.455  18.153   4.206
59352W        W24832  22.505  14.330   2.741
59353W        W24833  41.300   7.276  12.403
59354W        W24834   4.907  29.101  12.953
59355W        W24835  38.846  35.548  10.046
59356W        W24836  19.040  10.636  11.456
59357W        W24837  33.513  10.834  13.918
59358W        W24838  11.343  21.242   0.933
59359W        W24839  21.090   8.699  13.970
59360W        W24840  25.533  37.941  11.437
59361W        W24841  25.502  30.124   4.682
59362W        W24842  28.582  38.497  12.037
59363W        W24843  20.274  36.523  12.048
59364W        W24844  25.170  13.185  14.360
59365W        W24845   4.943  37.448  12.499
59366W        W24846   3.865  10.651   4.248
59367W        W24847  41.470  31.062   4.229
59368W        W24848   1.736   1.300  13.951
59369W        W24849  32.421   5.278   1.800
59370W        W24850  14.754  44.447  12.485
59371W        W24851  36.987  19.105   4.182
59372W        W24852   1.932   9.886   2.187
59373W        W24853  26.501  41.347   1.768
59374W        W24854  27.518  40.485   3.724
59375W        W24855  34.391  27.012  12.411
59376W        W24856  32.625   1.817   3.281
59377W        W24857  35.924  16.697   4.248
59378W        W24858  19.555  15.589   0.921
59379W        W24859  32.058   4.309   2.804
59380W        W24860  11.735  22.577   4.222
59381W        W24861   6.321   1.805   1.758
59382W        W24862  32.065  41.522   2.414
59383W        W24863  34.917   3.283   0.775
59384W        W24864  43.002  41.878  10.479
59385W        W24865  42.494   4.443   1.907
59386W        W24866  15.107  29.010   2.288
59387W        W24867  32.563  14.230  10.419
59388W        W24868  14.277  19.219  14.780
59389W        W24869  32.030   3.351   1.891
59390W        W24870  35.452   9.843  10.529
59391W        W24871  17.769  28.516   2.407
59392W        W24872   7.774  38.973   0.404
59393W        W24873  28.008   2.881   1.699
59394W        W24874  19.100   9.815   3.322
59395W        W24875  19.092  23.658   3.162
59396W        W24876  25.691   2.869   1.229
59397W        W24877  19.778   9.355  12.566
59398W        W24878  18.772  40.875   2.890
59399W        W24879   9.650  40.520   2.736
59400W        W24880   4.741   0.414  11.531
59401W        W24881  44.973  24.185   3.768
59402W        W24882  39.914  19.249  12.828
59403W        W24883  27.593  39.335   3.274
59404W        W24884  43.424  42.358  14.321
59405W        W24885   0.432  41.894   0.891
59406W        W24886  14.317  41.301   4.137
59407W        W24887   4.698  20.652  11.943
59408W        W24888  15.285  12.244   2.251
59409W        W24889  30.043  40.820   0.851
59410W        W24890  19.700   0.346   3.722
59411W        W24891   5.303  34.938  11.107
59412W        W24892  30.088  28.585  14.394
59413W        W24893  11.160   9.383  10.410
59414W        W24894  33.453  25.623  13.449
59415W        W24895  16.662   8.703   2.315
59416W        W24896  18.211  33.417   4.350
59417W        W24897  15.273  41.523   0.782
59418W        W24898  37.925  28.122   2.370
59419W        W24899   5.755  14.638  13.538
59420W        W24900   9.848  35.937  10.616
59421W        W24901  11.671  38.389   4.835
59422W        W24902  44.358  38.830  10.893
59423W        W24903  22.095   6.771  12.447
59424W        W24904  29.019  43.885  12.093
59425W        W24905  39.450   4.750   3.697
59426W        W24906  38.369  37.507   3.829
59427W        W24907   6.842  38.946   0.342
59428W        W24908   1.335   9.730  11.460
59429W        W24909   1.739  39.058  10.412
59430W        W24910  44.817  18.599  11.416
59431W        W24911   9.275  29.669   0.441
59432W        W24912  16.782  20.252   0.445
59433W        W24913   4.328  44.929  11.038
59434W        W24914  33.896  41.788  14.816
59435W        W24915  44.327   0.263  11.874
59436W        W24916  44.879   0.385  13.816
59437W        W24917  30.973  40.342  10.617
59438W        W24918   5.426  43.856  10.999
59439W        W24919  40.321  33.946  11.510
59440W        W24920  20.147   0.951   3.754
59441W        W24921  35.996  20.567  11.436
59442W        W24922  16.309   1.940   0.306
59443W        W24923  16.694   9.239   1.335
59444W        W24924  36.581  14.184  12.378
59445W        W24925  44.300  42.916  11.873
59446W        W24926  41.312  42.940   0.455
59447W        W24927   8.710  43.912   2.205
59448W        W24928   8.242   0.930   4.134
59449W        W24929  30.604  21.147   4.657
59450W        W24930  35.513  36.395   4.748
59451W        W24931  38.838  33.548  12.493
59452W        W24932  41.852  31.065   4.302
59453W        W24933  19.067   7.361   2.201
59454W        W24934  19.751  32.132   2.313
59455W        W24935  11.738   1.843  14.031
59456W        W24936  17.640  23.550  11.907
59457W        W24937  40.012  13.179   2.672
59458W        W24938   3.243  13.337   4.334
59459W        W24939   3.891  18.278  12.860
59460W        W24940  35.931  37.956  13.944
59461W        W24941   6.760  26.165   1.772
59462W        W24942  25.471  44.262   4.759
59463W        W24943  25.677  10.726  11.375
59464W        W24944  33.571  17.149   3.713
59465W        W24945  14.774  17.130   0.961
59466W        W24946  44.970  29.641   0.793
59467W        W24947  44.805  33.505   2.884
59468W        W24948  22.218  43.470   4.213
59469W        W24949  34.988  17.572   2.273
59470W        W24950  19.166  12.738  14.959
59471W        W24951  31.903  23.678  11.487
59472W        W24952  33.489   2.287  14.446
59473W        W24953  35.448  30.559  13.936
59474W        W24954  34.066  20.174   2.419
59475W        W24955  21.695  18.287  13.331
59476W        W24956  30.492  31.056   4.605
59477W        W24957  32.580  27.151  10.617
59478W        W24958  22.062  31.061   2.901
59479W        W24959  29.960  22.174  13.538
59480W        W24960  26.967  32.444  12.406
59481W        W24961   7.315  10.695  10.533
59482W        W24962  41.916  13.778   1.837
59483W        W24963   5.690   7.700  11.934
59484W        W24964  37.553   7.209  14.962
59485W        W24965  37.376  41.874   3.688
59486W        W24966  43.894  40.821   0.892
59487W        W24967  25.070  11.857   2.319
59488W        W24968  38.405  21.231   2.267
59489W        W24969  22.019   0.895   3.733
59490W        W24970   9.752  15.585   3.668
59491W        W24971  10.348  14.159   1.858
59492W        W24972  24.596  27.141  12.053
59493W        W24973   1.405  44.315  13.509
59494W        W24974  27.464  21.646  10.596
59495W        W24975  32.952  35.396   1.886
59496W        W24976  15.121  36.036   0.742
59497W        W24977  38.465  15.227  11.946
59498W        W24978  31.021   0.933  13.435
59499W        W24979  44.864  40.398  11.006
59500W        W24980  42.975   9.665   0.826
59501W        W24981  39.011   1.271  14.317
59502W        W24982   8.824   9.787   1.235
59503W        W24983  12.813   6.883  11.087
59504W        W24984  28.439  28.539  13.807
59505W        W24985  33.562  13.771   1.297
59506W        W24986  10.364   0.348   3.242
59507W        W24987   1.437  13.269  12.348
59508W        W24988  35.368  43.367   3.638
59509W        W24989  21.238  41.355  10.439
59510W        W24990  14.786  29.531   3.776
59511W        W24991  34.981  22.601   3.321
59512W        W24992  40.798  29.990  13.973
59513W        W24993   4.826  24.133  10.574
59514W        W24994  35.104   1.253   2.362
59515W        W24995  38.371  24.644   0.373
59516W        W24996  14.236   6.922  12.988
59517W        W24997  28.985  39.438  12.890
59518W        W24998  37.894  32.933   1.257
59519W        W24999  23.242  40.800   3.837
59520W        W25000  22.575  26.015   0.733
59521W        W25001  27.148  21.570   3.809
59522W        W25002  12.249  35.497   1.706
59523W        W25003  35.512  44.918   4.152
59524W        W25004  15.608  36.916  13.465
59525W        W25005   8.863   5.393  14.981
59526W        W25006   1.279   9.830  10.454
59527W        W25007  22.211  33.501   0.341
59528W        W25008  35.488  14.830   0.337
59529W        W25009   7.741  17.204   3.696
59530W        W25010  41.299  22.032  10.623
59531W        W25011  19.202  18.757   0.367
59532W        W25012  13.142  18.075   0.340
59533W        W25013  29.087  27.958  13.363
59534W        W25014  28.028  35.065  13.901
59535W        W25015  38.505  26.154   0.255
59536W        W25016  39.841  16.110  11.548
59537W        W25017  16.811  34.533  10.545
59538W        W25018  33.562   3.313  14.306
59539W        W25019  15.283  23.077   1.364
59540W        W25020  37.424   4.894  11.095
59541W        W25021  31.056  12.836   1.225
59542W        W25022  29.032  34.527  12.026
59543W        W25023  20.029  15.775   1.734
59544W        W25024  33.589  31.012  13.390
59545W        W25025   0.423  29.640  14.925
59546W        W25026  43.981  30.099   1.791
59547W        W25027  22.663  43.310  13.021
59548W        W25028  11.264   9.293  11.376
59549W        W25029   9.741  44.455  13.508
59550W        W25030  29.582  19.269  13.832
59551W        W25031  15.815   9.666  12.072
59552W        W25032  33.002  15.790   3.851
59553W        W25033   4.805  41.988   4.777
59554W        W25034  22.134  26.606  10.992
59555W        W25035  40.415  14.337  11.410
59556W        W25036  29.631  26.677  11.459
59557W        W25037   8.762  11.861  14.414
59558W        W25038   4.349  41.005  14.438
59559W        W25039   6.222  36.002   1.233
59560W        W25040  27.970  16.191   0.263
59561W        W25041  17.571  16.087  14.515
59562W        W25042  37.354  44.340  13.824
59563W        W25043   9.330   7.730   1.325
59564W        W25044  28.651  22.195  10.634
59565W        W25045  35.945  27.539  12.920
59566W        W25046   0.773  21.725  13.454
59567W        W25047  29.047  29.108   2.281
59568W        W25048  35.384  14.172  13.025
59569W        W25049  43.830  38.532   1.724
59570W        W25050  27.951  36.863   1.747
59571W        W25051  34.045  16.202   0.459
59572W        W25052   8.859  27.112  14.918
59573W        W25053  37.519  33.605  14.018
59574W        W25054  22.221  22.524   0.765
59575W        W25055  20.730  27.070   1.451
59576W        W25056  15.176  27.077  12.345
59577W        W25057  39.831  38.988   4.346
59578W        W25058  27.576   9.277   1.787
59579W        W25059  19.762   1.975   4.663
59580W        W25060  35.487   5.897  12.522
59581W        W25061   0.350  16.668   4.655
59582W        W25062  33.514  43.474  10.600
59583W        W25063  16.642  39.987   0.266
59584W        W25064  39.355  23.536   2.890
59585W        W25065  43.312  43.850  14.483
59586W        W25066  40.996  31.922   5.115
59587W        W25067  31.936  16.775   4.266
59588W        W25068   3.893  19.693   4.803
59589W        W25069  12.225  39.925   3.754
59590W        W25070  11.313  27.042   3.385
59591W        W25071   9.846   3.873   1.229
59592W        W25072  10.281  40.311   0.736
59593W        W25073  24.128  12.625   3.241
59594W        W25074   7.184  43.320  12.486
59595W        W25075  26.563  22.739  11.872
59596W        W25076  44.757  27.446  12.398
59597W        W25077  39.340  25.056   1.832
59598W        W25078  21.089  14.780  13.450
59599W        W25079  13.747  40.465  11.521
59600W        W25080  29.512  17.133  13.510
59601W        W25081   5.233  32.020  12.379
59602W        W25082  24.084  10.646  13.973
59603W        W25083  24.567  35.444  10.918
59604W        W25084   3.371  36.416   3.779
59605W        W25085   7.299  44.923  11.030
59606W        W25086  12.729   9.833   2.389
59607W        W25087  18.229  38.926  14.953
59608W        W25088  17.273  26.606   2.344
59609W        W25089  29.119  13.641   0.407
59610W        W25090  38.029   6.218  13.977
59611W        W25091  32.006  28.462  13.502
59612W        W25092   5.746  20.567   3.356
59613W        W25093  27.091   1.763  12.028
59614W        W25094  22.567   8.679  10.041
59615W        W25095  13.170  40.501  11.600
59616W        W25096  44.821  21.706  12.557
59617W        W25097   5.859  21.158   5.299
59618W        W25098  39.986   4.232  12.345
59619W        W25099  17.144  23.600   3.755
59620W        W25100  42.017  36.494  10.540
59621W        W25101  10.231   2.437   1.325
59622W        W25102  24.167  44.876  12.845
59623W        W25103  31.114  25.141  11.559
59624W        W25104  42.900   8.671  11.528
59625W        W25105  13.799   8.855   4.690
59626W        W25106  30.474  32.629  10.973
59627W        W25107  26.974  12.262   2.805
59628W        W25108  23.238   4.244   0.869
59629W        W25109  37.369  38.880  10.503
59630W        W25110  11.267   9.819   1.410
59631W        W25111  17.259   9.277   2.203
59632W        W25112  26.105  43.297   1.277
59633W        W25113  31.437  29.919  13.428
59634W        W25114  44.778   1.348  14.024
59635W        W25115  38.550  13.195   2.207
59636W        W25116  16.256  44.421  14.031
59637W        W25117  10.774  12.815  11.446
59638W        W25118   0.376   4.901  11.596
59639W        W25119  22.619  21.137   3.344
59640W        W25120  25.197   2.333  14.430
59641W        W25121  16.289  34.465  13.945
59642W        W25122   1.287  21.263  13.007
59643W        W25123  26.204  42.513   1.358
59644W        W25124   9.330  18.670   4.260
59645W        W25125  22.682  18.657   0.289
59646W        W25126  40.521  30.038  13.012
59647W        W25127  26.674  27.018  14.404
59648W        W25128  12.625  36.856   4.331
59649W        W25129   6.704  24.084  11.416
59650W        W25130  43.001  24.182  11.939
59651W        W25131  23.712  43.911  13.930
59652W        W25132  38.436  32.105  12.533
59653W        W25133  12.672  29.452   0.311
59654W        W25134  30.916  16.749  11.019
59655W        W25135   2.781   4.434   1.715
59656W        W25136  43.490   1.747   1.731
59657W        W25137  11.797  15.173   4.186
59658W        W25138  29.515   4.385   3.652
59659W        W25139  36.001   9.825   4.328
59660W        W25140  22.233  44.317  12.488
59661W        W25141  10.831  31.647   4.628
59662W        W25142  28.462  20.265   0.929
59663W        W25143  15.786  32.488  11.468
59664W        W25144  43.846  17.697  13.864
59665W        W25145   1.776  28.946  13.812
59666W        W25146  11.858  19.590   9.934
59667W        W25147   6.330  23.046   0.810
59668W        W25148   8.678  28.551   2.728
59669W        W25149   0.380  36.914  10.624
59670W        W25150   6.377   7.698   1.844
59671W        W25151  27.947  31.083  12.024
59672W        W25152  19.753  30.454  11.488
59673W        W25153  30.088   4.881  11.453
59674W        W25154  40.342  28.554   4.772
59675W        W25155  23.154  28.452   4.271
59676W        W25156   8.809  37.570   0.351
59677W        W25157  21.671  11.784   2.752
59678W        W25158   1.366  29.605  13.941
59679W        W25159  25.076  23.023  12.839
59680W        W25160  42.016  26.147  11.474
59681W        W25161  42.825  31.637   2.841
59682W        W25162  10.376  21.571  12.088
59683W        W25163  11.724  30.919   0.467
59684W        W25164  42.378  16.701   1.311
59685W        W25165  35.927  16.207  12.838
59686W        W25166  38.914  36.044   4.174
59687W        W25167  16.301  15.672   5.647
59688W        W25168   6.374  28.462   3.262
59689W        W25169  30.910  30.088   0.794
59690W        W25170  22.511  29.098   1.400
59691W        W25171  34.060  37.928   0.950
59692W        W25172  18.695   0.818  14.426
59693W        W25173  13.828  25.474  10.967
59694W        W25174  11.654  21.064   2.293
59695W        W25175  36.592  26.505   2.227
59696W        W25176  23.028  16.811  11.460
59697W        W25177   2.929  40.036  14.818
59698W        W25178  43.406   4.858   3.386
59699W        W25179  11.840   7.173   3.640
59700W        W25180  37.931  12.267   0.765
59701W        W25181  14.094  24.170   4.597
59702W        W25182  30.918  38.024   0.331
59703W        W25183   5.874  10.805   4.732
59704W        W25184   8.814  31.568  14.441
59705W        W25185   7.716  22.531  12.574
59706W        W25186   8.790  11.829  11.433
59707W        W25187  38.993  23.075   3.865
59708W        W25188  31.475  26.999  11.525
59709W        W25189   5.235  18.680  12.384
59710W        W25190  36.479  33.589   0.357
59711W        W25191   1.915  12.798   1.317
59712W        W25192   4.894   4.712  10.422
59713W        W25193   5.716   2.464  12.524
59714W        W25194  24.070  15.323  10.890
59715W        W25195   5.415  24.218   0.358
59716W        W25196  32.980  38.979   1.222
59717W        W25197  13.682  44.870   2.765
59718W        W25198  20.580   8.659  12.037
59719W        W25199  33.097   6.717  12.974
59720W        W25200  19.250  31.059  12.018
59721W        W25201  11.796  21.698  14.403
59722W        W25202  36.572  44.856  13.966
59723W        W25203  15.684   6.410   3.736
59724W        W25204  34.012  44.758   4.171
59725W        W25205   5.300  43.935   0.277
59726W        W25206   7.865  29.102   4.757
59727W        W25207  24.555   7.845   3.729
59728W        W25208  44.440  44.342   1.898
59729W        W25209   0.958  41.466   2.306
59730W        W25210  19.181  22.229  13.327
59731W        W25211  24.151  18.257  10.507
59732W        W25212  25.583   3.837   2.662
59733W        W25213   5.342   4.837   1.224
59734W        W25214  38.909  17.175  13.880
59735W        W25215  20.172  39.816  13.427
59736W        W25216  34.942  43.935  10.583
59737W        W25217  38.043  28.606   2.878
59738W        W25218  11.140  11.213   2.314
59739W        W25219   0.275  17.249   2.381
59740W        W25220  35.876  24.676  11.553
59741W        W25221   9.244   8.775  14.308
59742W        W25222  13.733  36.501   2.371
59743W        W25223  21.600  23.068   4.751
59744W        W25224  11.371  18.620  14.513
59745W        W25225  38.999  28.073   0.466
59746W        W25226  42.502  44.896  12.549
59747W        W25227  21.199  24.671  12.922
59748W        W25228  12.267  28.058  10.513
59749W        W25229  21.724  41.503   2.768
59750W        W25230  10.681   2.280  13.851
59751W        W25231   3.954  36.366   4.598
59752W        W25232  19.713  25.575  14.828
59753W        W25233  16.145  14.619   2.845
59754W        W25234  19.276  31.621   4.319
59755W        W25235  17.737   7.289   0.951
59756W        W25236  10.752   0.479   1.694
59757W        W25237  31.085   8.839   4.189
59758W        W25238  10.250  14.636   4.763
59759W        W25239   3.733   0.926   2.353
59760W        W25240  25.010   3.905   1.362
59761W        W25241  13.679  32.082  11.124
59762W        W25242  19.229  12.137  14.883
59763W        W25243   3.842   4.222  11.468
59764W        W25244  43.352  39.933   0.763
59765W        W25245   1.247  16.811  14.972
59766W        W25246  15.734  37.506  14.476
59767W        W25247  16.196  11.814   3.765
59768W        W25248  21.053  27.544   3.171
59769W        W25249  37.993  39.990   4.624
59770W        W25250  13.187  42.856   1.874
59771W        W25251  40.486  42.910  10.413
59772W        W25252   4.930  18.188  10.015
59773W        W25253  24.110   9.655   4.204
59774W        W25254   6.376  29.478  11.421
59775W        W25255  12.809  30.464  10.592
59776W        W25256  24.225  19.541   9.926
59777W        W25257  42.359  41.889   4.694
59778W        W25258  23.211   4.844   2.803
59779W        W25259  40.015  31.472  12.000
59780W        W25260   4.209  10.654  11.969
59781W        W25261   1.252  17.579   0.863
59782W        W25262  41.297  36.505   2.815
59783W        W25263   0.827  40.541  14.516
59784W        W25264  41.003  15.204  14.790
59785W        W25265  12.668   5.843  14.841
59786W        W25266  15.165  26.017  14.337
59787W        W25267  36.002  41.363  14.347
59788W        W25268  27.184  35.370   0.933
59789W        W25269  27.170   5.779   4.683
59790W        W25270  33.591  23.014  13.472
59791W        W25271  26.537   3.868  14.324
59792W        W25272  26.021  35.002  11.911
59793W        W25273   1.771   6.245  11.919
59794W        W25274  32.476  36.583   1.215
59795W        W25275  29.546  27.523   4.251
59796W        W25276  33.527  37.023  11.114
59797W        W25277   8.207  18.663  12.980
59798W        W25278  19.249  44.272   0.407
59799W        W25279  12.621  42.363  13.419
59800W        W25280  31.630   2.803   4.127
59801W        W25281   3.221  22.519   1.258
59802W        W25282  31.439  33.584  14.832
59803W        W25283  22.069  42.799  13.507
59804W        W25284  14.340  14.715  14.479
59805W        W25285  23.571  36.910   1.833
59806W        W25286  11.164  34.090   3.228
59807W        W25287  37.360   5.206  12.076
59808W        W25288   9.671  43.972  12.873
59809W        W25289  42.835  15.244   0.392
59810W        W25290  40.054  33.532  13.972
59811W        W25291  39.869  16.244   4.780
59812W        W25292  26.974  25.510  10.432
59813W        W25293  30.920  43.290  13.879
59814W        W25294   2.303  19.538   2.670
59815W        W25295  30.025   7.360   0.789
59816W        W25296  36.863  29.534  12.925
59817W        W25297  10.753   9.801  13.807
59818W        W25298   3.430  14.717  10.426
59819W        W25299  12.306  36.520  13.531
59820W        W25300   2.446  23.136   2.314
59821W        W25301  35.969   2.244   0.248
59822W        W25302   5.894  21.575  14.900
59823W        W25303  24.024   5.209   3.638
59824W        W25304  10.718   9.771  10.517
59825W        W25305   2.404  26.590   5.168
59826W        W25306  11.294  17.079   0.402
59827W        W25307   9.391  17.242  13.008
59828W        W25308   6.895  40.494   3.637
59829W        W25309   5.365   9.653   0.925
59830W        W25310  40.822  15.231  13.810
59831W        W25311  13.285   0.341  12.408
59832W        W25312  25.558  22.135   1.893
59833W        W25313  23.200   3.921  12.575
59834W        W25314   2.929  22.187   2.407
59835W        W25315  26.144  31.072   0.291
59836W        W25316  10.805   2.406   3.361
59837W        W25317  27.991  15.255   0.890
59838W        W25318   2.900  31.450  14.483
59839W        W25319   3.860  39.381  14.495
59840W        W25320  32.393  32.981   4.626
59841W        W25321   5.700  11.715  14.395
59842W        W25322  23.653  13.691  14.357
59843W        W25323  22.529  11.667  12.954
59844W        W25324   9.773  32.602   4.253
59845W        W25325  27.055  42.467  13.538
59846W        W25326  42.439   7.235   4.689
59847W        W25327   8.851  28.523   0.949
59848W        W25328  36.416  16.786  12.522
59849W        W25329  14.663  30.555  14.504
59850W        W25330  38.926  34.441  10.619
59851W        W25331  36.073   8.239   2.259
59852W        W25332  11.273  42.868   0.381
59853W        W25333   0.342  32.102   1.837
59854W        W25334  41.893   1.253   4.339
59855W        W25335  14.707  35.593  14.952
59856W        W25336  17.162  27.032   3.240
59857W        W25337  41.411  23.520  11.896
59858W        W25338  44.445  32.925   3.290
59859W        W25339   6.337  11.817  11.102
59860W        W25340  18.237  14.593  11.613
59861W        W25341  31.485  35.359  11.918
59862W        W25342  35.445  24.479   2.363
59863W        W25343   7.171  26.615   3.180
59864W        W25344  17.185  13.137  12.579
59865W        W25345  30.587   3.319   1.320
59866W        W25346  25.701   6.181   4.260
59867W        W25347   6.417  29.145   0.740
59868W        W25348   5.924   3.321  12.544
59869W        W25349  15.754   4.382  10.589
59870W        W25350   8.684  39.894   0.244
59871W        W25351  30.097  12.356   2.863
59872W        W25352  40.931  43.397  12.037
59873W        W25353  33.012   1.948  13.002
59874W        W25354  15.095  34.465   1.281
59875W        W25355  21.638   6.201   4.801
59876W        W25356  11.819   0.389   3.239
59877W        W25357  43.964  11.338   3.645
59878W        W25358  19.141   8.848  13.931
59879W        W25359  42.360  22.689   1.701
59880W        W25360  26.569   4.222  11.063
59881W        W25361   9.319   9.262   2.779
59882W        W25362  39.465  40.881   2.231
59883W        W25363  19.581  20.235  13.460
59884W        W25364  37.938  17.200   0.334
59885W        W25365  25.123  17.067   3.861
59886W        W25366  28.474   5.854  13.412
59887W        W25367  27.059  26.659   2.755
59888W        W25368  11.356  10.308   3.742
59889W        W25369  39.910  11.736  10.430
59890W        W25370  22.249  24.213   4.202
59891W        W25371  16.221  33.575   0.911
59892W        W25372  19.154  40.886  11.538
59893W        W25373   8.380  30.492  14.396
59894W        W25374   4.423  44.485   3.185
59895W        W25375   1.382  38.972  11.466
59896W        W25376   1.809  24.716  14.371
59897W        W25377  39.498   8.664  11.001
59898W        W25378   2.316  28.049   3.629
59899W        W25379   2.374  25.701  11.017
59900W        W25380  38.942  24.153   2.225
59901W        W25381  24.692   2.964   4.332
59902W        W25382   2.806  13.337  12.371
59903W        W25383  40.906  15.271   0.825
59904W        W25384  31.519  22.170   2.815
59905W        W25385  13.185  25.518  12.446
59906W        W25386  33.608  33.397   2.299
59907W        W25387  30.027  12.763  13.808
59908W        W25388  12.721  38.922  11.466
59909W        W25389   8.387  27.561  13.379
59910W        W25390  31.965  35.977  14.274
59911W        W25391  24.624  18.570  14.890
59912W        W25392   8.845  20.215   0.448
59913W        W25393  39.871   1.251  12.408
59914W        W25394   3.878  26.185  12.088
59915W        W25395  24.016  29.648   0.298
59916W        W25396  43.805  40.053   0.313
59917W        W25397  23.211   0.280  13.058
59918W        W25398  40.950  19.733  14.020
59919W        W25399  41.797  25.052   1.428
59920W        W25400  23.619  36.928  13.525
59921W        W25401   9.746   2.818   0.949
59922W        W25402  17.280  11.757  12.560
59923W        W25403  30.135   4.788  14.493
59924W        W25404  34.887  35.457  14.867
59925W        W25405  19.535  42.468  11.381
59926W        W25406  30.096  27.592   2.833
59927W        W25407  12.633  30.946   3.768
59928W        W25408   9.720  18.183   0.370
59929W        W25409   9.820  26.683   4.343
59930W        W25410  30.620  37.375  13.052
59931W        W25411  21.701   0.976   3.660
59932W        W25412  41.824  26.553   9.928
59933W        W25413  44.404  25.637   4.237
59934W        W25414   3.323  36.898  14.968
59935W        W25415  32.579  32.455  14.468
59936W        W25416   3.817  26.508  12.578
59937W        W25417   3.911   3.251  11.909
59938W        W25418   4.831   7.745  14.295
59939W        W25419  18.273  24.557   2.338
59940W        W25420  10.669  28.490   4.661
59941W        W25421  12.240  25.205   4.805
59942W        W25422  19.267  36.061   4.259
59943W        W25423  41.323  44.366  11.864
59944W        W25424  41.977   6.379  11.487
59945W        W25425   1.377  39.988   2.262
59946W        W25426   3.345  33.934  11.506
59947W        W25427  16.683  41.397   1.695
59948W        W25428  27.548   6.694   2.359
59949W        W25429  33.495   4.919  10.951
59950W        W25430  10.710  22.158  12.429
59951W        W25431  18.610   2.820   4.347
59952W        W25432  14.766  19.574  10.608
59953W        W25433  43.948  37.086   2.206
59954W        W25434  38.479  15.092  10.433
59955W        W25435  13.295  22.732   3.226
59956W        W25436   9.887  27.614   2.220
59957W        W25437  40.317  22.518  13.379
59958W        W25438  32.975  13.655   2.258
59959W        W25439  22.596  25.049   5.087
59960W        W25440   8.374  33.476   1.736
59961W        W25441  20.679  39.451  13.419
59962W        W25442  35.946   4.431  12.568
59963W        W25443   1.350  35.923  13.011
59964W        W25444  24.541  18.053   1.434
59965W        W25445   8.671  18.562  10.448
59966W        W25446   4.703   8.761   1.873
59967W        W25447  39.964  26.162  10.937
59968W        W25448   8.686  12.301   3.700
59969W        W25449  27.045  27.572  11.461
59970W        W25450  37.879  33.483  11.541
59971W        W25451  12.347  25.699   3.207
59972W        W25452  14.657  39.377   0.927
59973W        W25453  32.408  37.966  12.392
59974W        W25454  44.782   5.874  12.057
59975W        W25455  25.631  15.087   1.766
59976W        W25456   9.254  22.650  10.543
59977W        W25457  20.108   2.889  10.624
59978W        W25458  32.407  40.378  12.505
59979W        W25459   2.278  12.298   2.239
59980W        W25460   4.259  14.291  13.795
59981W        W25461  29.443   9.234  12.080
59982W        W25462  16.192  12.116   4.770
59983W        W25463  10.293  26.028   3.325
59984W        W25464  38.068  35.512  12.070
59985W        W25465  17.776  12.779   4.127
59986W        W25466  35.506  35.527   1.438
59987W        W25467  34.383  10.793   0.863
59988W        W25468  21.721  10.720  11.487
59989W        W25469  31.098  43.859   4.716
59990W        W25470  42.962  44.313  12.840
59991W        W25471  21.548  17.233  14.491
59992W        W25472  31.642  35.004  13.328
59993W        W25473  32.401   2.235  13.413
59994W        W25474  27.668  23.652  11.482
59995W        W25475  43.791  35.011   0.481
59996W        W25476   9.322  35.898   4.127
59997W        W25477  12.239   9.690   3.255
59998W        W25478   6.884  22.683  11.546
59999W        W25479  35.969  43.472  13.012
60000W        W25480   8.171  25.976  10.975
60001W        W25481   9.192   6.689   4.672
60002W        W25482  23.225  10.253  11.044
60003W        W25483  22.063  13.282   2.387
60004W        W25484   9.820  40.512  10.569
60005W        W25485   4.292  22.555   4.602
60006W        W25486  13.304  17.603  13.385
60007W        W25487  22.743  25.204   4.324
60008W        W25488  26.022   6.807  10.643
60009W        W25489  33.472   0.854  10.556
60010W        W25490  37.944  39.009  14.798
60011W        W25491  12.324  14.816  12.416
60012W        W25492  24.213  32.519   2.830
60013W        W25493   3.352  27.679  10.908
60014W        W25494   2.276  33.439   3.642
60015W        W25495  36.423  32.022   0.266
60016W        W25496  20.696  17.768  14.496
60017W        W25497  32.083  25.137  12.568
60018W        W25498  32.473   9.819  13.418
60019W        W25499  14.172  30.424  13.923
60020W        W25500  35.942  23.144  13.417
60021W        W25501  32.944  22.112   2.693
60022W        W25502  27.495   4.262  11.517
60023W        W25503  30.102  31.902  12.940
60024W        W25504  44.757   4.383  13.909
60025W        W25505   8.697   5.912   4.224
60026W        W25506  23.025  36.942   1.927
60027W        W25507  12.126  33.080  11.964
60028W        W25508  14.190  12.209  12.380
60029W        W25509  21.729  28.503   9.634
60030W        W25510  24.206  15.612   0.863
60031W        W25511  23.229   2.908  14.011
60032W        W25512  19.056   4.395  13.021
60033W        W25513   6.750   1.939  12.825
60034W        W25514  27.101  38.451  12.891
60035W        W25515  38.875  24.203   0.739
60036W        W25516  15.198  22.067  11.528
60037W        W25517   5.247  29.097   1.262
60038W        W25518   6.330  14.259   3.331
60039W        W25519  27.514  24.167  11.409
60040W        W25520  42.398  43.516  12.032
60041W        W25521   4.368  20.755   3.855
60042W        W25522  14.722   3.778   0.756
60043W        W25523  32.894  33.580   4.623
60044W        W25524  23.176  33.119  11.100
60045W        W25525  43.274  29.076  13.812
60046W        W25526   6.428  35.998  11.870
60047W        W25527  11.366  39.556   1.894
60048W        W25528  24.980   2.384   2.810
60049W        W25529  14.146  15.698   1.922
60050W        W25530  29.973  31.117   0.807
60051W        W25531  32.077  34.402  11.541
60052W        W25532  16.235  35.919   0.346
60053W        W25533  17.733  29.071   2.245
60054W        W25534   5.790  27.086  11.532
60055W        W25535   9.353  41.434  13.523
60056W        W25536  36.461  42.884   2.668
60057W        W25537   9.669  35.917   1.250
60058W        W25538   9.151   7.850   2.878
60059W        W25539  25.507  30.098   1.859
60060W        W25540   4.253  20.211  10.583
60061W        W25541  10.760  26.482   0.247
60062W        W25542  37.940  38.823   2.297
60063W        W25543  27.458  32.133   4.252
60064W        W25544  25.995  26.609  10.641
60065W        W25545  36.465  44.009  11.546
60066W        W25546   6.326  29.603   3.675
60067W        W25547  23.500  15.822  13.483
60068W        W25548  24.588   6.866   2.813
60069W        W25549   9.350   0.754   2.682
60070W        W25550  26.618  12.653  10.029
60071W        W25551  14.160  36.475   4.148
60072W        W25552  28.046  14.725  14.331
60073W        W25553  13.289  40.365   2.380
60074W        W25554   7.314  10.825  14.014
60075W        W25555  36.035  37.476   2.884
60076W        W25556  29.622   6.194   4.180
60077W        W25557  27.643   0.753  11.605
60078W        W25558  36.026  31.480   1.817
60079W        W25559   6.335  22.093  14.462
60080W        W25560  22.053  10.285  13.872
60081W        W25561  14.639   6.196  10.517
60082W        W25562  26.676  12.779   3.722
60083W        W25563   2.269  32.091  12.383
60084W        W25564  34.449  15.206   1.720
60085W        W25565   7.276  27.616   1.804
60086W        W25566  18.077  42.338   1.891
60087W        W25567   5.405  12.248   4.232
60088W        W25568   6.362  24.114   0.454
60089W        W25569  10.333  21.164  10.144
60090W        W25570  26.544  27.171   0.360
60091W        W25571  22.160  28.984  13.991
60092W        W25572  15.582  15.325  12.073
60093W        W25573   8.370   9.242   2.343
60094W        W25574  22.603  13.755  13.805
60095W        W25575   1.274  13.299   3.291
60096W        W25576   1.915  35.461   1.864
60097W        W25577   2.289   8.691   1.304
60098W        W25578  44.440  34.559  12.927
60099W        W25579  37.072  22.731   4.697
60100W        W25580  34.018  29.062  13.933
60101W        W25581  23.575  37.084   3.382
60102W        W25582  32.513  33.422   0.967
60103W        W25583  18.206  29.530   1.909
60104W        W25584  29.940  27.686  14.959
60105W        W25585  33.126   0.747  10.965
60106W        W25586  21.172  29.614   0.395
60107W        W25587  17.120  31.975  14.024
60108W        W25588  30.461  34.956   4.284
60109W        W25589  19.647  44.265  11.508
60110W        W25590  40.507  42.879   2.739
60111W        W25591  37.877  11.187   3.641
60112W        W25592  21.592  18.633  14.790
60113W        W25593   7.678  16.313   4.631
60114W        W25594   8.175  40.430   1.814
60115W        W25595  43.995  23.722   0.844
60116W        W25596  20.114  37.968  14.815
60117W        W25597  22.525  25.197  13.490
60118W        W25598  15.236  18.772   1.314
60119W        W25599  41.312  25.065  13.327
60120W        W25600   2.373   7.794  12.540
60121W        W25601  29.429  26.082   0.946
60122W        W25602  24.574   1.843   1.357
60123W        W25603  42.014  11.220  12.843
60124W        W25604  41.354  28.498  11.376
60125W        W25605   7.292   8.736   2.879
60126W        W25606  36.981   8.856  14.766
60127W        W25607  32.544  43.456  13.908
60128W        W25608  27.620  22.226  12.005
60129W        W25609  15.822  13.733  11.543
60130W        W25610   6.271  30.967  11.066
60131W        W25611  32.421   8.737   3.245
60132W        W25612  29.549  43.955  11.910
60133W        W25613   1.359  42.397  11.597
60134W        W25614   7.249  36.384   1.759
60135W        W25615  40.384  36.367  11.599
60136W        W25616   1.801   7.260   0.369
60137W        W25617  34.948  11.808  14.412
60138W        W25618  31.439   6.183   2.719
60139W        W25619  30.126   0.871  12.514
60140W        W25620  16.210  21.523   3.219
60141W        W25621   2.757   4.843  14.871
60142W        W25622  14.771  21.176  12.934
60143W        W25623  25.177  38.544   2.719
60144W        W25624  43.462  28.640  11.376
60145W        W25625  35.502  29.429  14.858
60146W        W25626  25.967  43.281  10.559
60147W        W25627  26.028  42.864   4.325
60148W        W25628  12.287  14.126  12.072
60149W        W25629  40.012   3.771   4.631
60150W        W25630  32.572  10.246  10.900
60151W        W25631  36.040  41.382   1.890
60152W        W25632  28.972  19.128  13.825
60153W        W25633  13.661  11.623   4.235
60154W        W25634  21.692   5.691   2.338
60155W        W25635   2.466  39.466   3.147
60156W        W25636  20.662  32.090  12.838
60157W        W25637  28.163   5.419  13.377
60158W        W25638  23.118  37.870   3.233
60159W        W25639  32.065  36.879  11.488
60160W        W25640  31.491  11.324  10.963
60161W        W25641  11.788  16.590  10.980
60162W        W25642  37.003  11.751  11.123
60163W        W25643  38.417  12.282   3.756
60164W        W25644   0.284  22.662  14.858
60165W        W25645  42.849   6.397  10.100
60166W        W25646  34.451  42.432   4.339
60167W        W25647  17.764  24.494   0.774
60168W        W25648  37.399  29.560   4.756
60169W        W25649  18.084  20.126   1.922
60170W        W25650  37.574  14.774   0.483
60171W        W25651  25.081  26.961  13.044
60172W        W25652  39.533  19.652   5.739
60173W        W25653  23.523  22.056  14.879
60174W        W25654   0.758  17.717  10.443
60175W        W25655   7.208  15.173   1.442
60176W        W25656  27.615  35.554  10.444
60177W        W25657  36.875  44.904  13.382
60178W        W25658  26.562  39.914  14.923
60179W        W25659  22.667  23.175   2.669
60180W        W25660   8.267  25.486  14.501
60181W        W25661   4.366  33.001   2.188
60182W        W25662  43.900  24.189  14.403
60183W        W25663   1.890  44.884  12.851
60184W        W25664   3.445  17.730  11.100
60185W        W25665  28.575  27.141   2.842
60186W        W25666   2.774  28.516  12.549
60187W        W25667   9.174   1.940  10.956
60188W        W25668  23.547   8.901  10.979
60189W        W25669  17.698   4.794  14.995
60190W        W25670   5.767  17.559  12.441
60191W        W25671   1.774  30.552  10.894
60192W        W25672  30.962  14.302  13.899
60193W        W25673  33.566  40.432   1.906
60194W        W25674  44.489  41.797   2.896
60195W        W25675  34.535  34.406   4.305
60196W        W25676   5.877  41.508  13.420
60197W        W25677  18.256  43.281  10.433
60198W        W25678  44.321  35.957   4.143
60199W        W25679  26.538  27.006   1.292
60200W        W25680   9.874   6.909   0.805
60201W        W25681  22.184  32.968  11.863
60202W        W25682   4.915  44.392   2.314
60203W        W25683  42.966  26.640   2.895
60204W        W25684  30.424  10.347   2.368
60205W        W25685  39.859  37.995  14.328
60206W        W25686   7.791  13.683  10.509
60207W        W25687  27.613  24.641  12.447
60208W        W25688  21.157  20.560  12.393
60209W        W25689  13.813  16.709   1.226
60210W        W25690  23.612  33.115  14.966
60211W        W25691  34.509  11.222   0.449
60212W        W25692  10.149  29.113  12.454
60213W        W25693  10.380   4.431   0.878
60214W        W25694   5.779  21.261   4.696
60215W        W25695  33.101  12.142   4.717
60216W        W25696   7.761  20.208  14.001
60217W        W25697  35.986  26.658  10.977
60218W        W25698  15.698  37.842  13.329
60219W        W25699  44.832   9.663  12.846
60220W        W25700   0.957  23.054  13.971
60221W        W25701  44.440   0.772   4.696
60222W        W25702   3.360  35.500   3.301
60223W        W25703  25.643  30.003  10.458
60224W        W25704   4.862  19.135  13.030
60225W        W25705   7.874  14.176   2.331
60226W        W25706  33.947  13.755   3.189
60227W        W25707   2.389  30.567   4.829
60228W        W25708  29.568  40.993   9.975
60229W        W25709  13.110  23.664  12.973
60230W        W25710   9.758  11.360   3.275
60231W        W25711   1.879  21.246   4.772
60232W        W25712   7.750  36.449   1.287
60233W        W25713   7.331  15.215  10.953
60234W        W25714  15.173  23.695   4.176
60235W        W25715  24.216  40.036   3.664
60236W        W25716  36.452   9.155   4.754
60237W        W25717  24.148  21.245   2.856
60238W        W25718   8.811  36.462  10.907
60239W        W25719  28.546  42.028  13.414
60240W        W25720  40.363  11.700   3.637
60241W        W25721  27.129  13.271   3.709
60242W        W25722  11.137  44.007   2.726
60243W        W25723  42.340  43.995   1.375
60244W        W25724  35.593  23.993   2.898
60245W        W25725   4.906   1.319  11.548
60246W        W25726   4.417   0.868  13.337
60247W        W25727  15.700  33.399  10.143
60248W        W25728  14.228   9.676   0.473
60249W        W25729  36.997  23.055  13.536
60250W        W25730   5.848  44.857  10.963
60251W        W25731  23.541  41.308  14.889
60252W        W25732  33.971  40.894  14.790
60253W        W25733  31.048  34.506   0.740
60254W        W25734  19.711   0.765  11.486
60255W        W25735  16.770  24.677  13.867
60256W        W25736  15.323  32.510   0.315
60257W        W25737  21.067  20.667   0.318
60258W        W25738  44.967  29.043  11.059
60259W        W25739  37.539  23.062   1.830
60260W        W25740  27.679  20.606  11.006
60261W        W25741  14.625   0.955  13.467
60262W        W25742  40.524  27.082   1.777
60263W        W25743  42.940  37.027   1.862
60264W        W25744   5.212  12.338   2.278
60265W        W25745  40.804  11.764   4.732
60266W        W25746  38.026   0.300  12.463
60267W        W25747   3.376  44.448  10.522
60268W        W25748  28.164   6.386   1.733
60269W        W25749  41.826   7.282  11.993
60270W        W25750  28.146   8.227   3.250
60271W        W25751  21.540  26.570   1.374
60272W        W25752  18.144  10.186   1.711
60273W        W25753  23.072  12.200  12.928
60274W        W25754  21.209  31.922   2.269
60275W        W25755  15.589  31.981   5.230
60276W        W25756   8.196  39.860   4.113
60277W        W25757  23.050  31.039  13.957
60278W        W25758   2.727  25.714   0.899
60279W        W25759  37.536  37.369  10.542
60280W        W25760  14.612   4.817  11.080
60281W        W25761  34.873  42.894   0.476
60282W        W25762  44.761  29.990  12.893
60283W        W25763  28.556   3.369  14.014
60284W        W25764  40.862  25.470  14.955
60285W        W25765  13.292  29.030   4.188
60286W        W25766   7.172  16.781  14.031
60287W        W25767   0.311  41.351   4.690
60288W        W25768  35.505  23.026  12.420
60289W        W25769   6.251  18.282  12.351
60290W        W25770  38.510   7.189   1.371
60291W        W25771  37.481  15.707   2.284
60292W        W25772   6.844  26.077   4.666
60293W        W25773   2.436  16.762  11.014
60294W        W25774  20.070  34.104   0.822
60295W        W25775  12.291  44.505   4.782
60296W        W25776  21.748   4.885  11.429
60297W        W25777   2.808  42.472   4.767
60298W        W25778  38.905  12.676   2.326
60299W        W25779  38.941  22.134  12.998
60300W        W25780   2.428  34.969  13.957
60301W        W25781  22.079   6.210   9.672
60302W        W25782  25.995  27.126  11.094
60303W        W25783  23.182  25.634   4.179
60304W        W25784  11.776  33.030  12.423
60305W        W25785  24.664   6.356   1.304
60306W        W25786  20.740  20.664  12.487
60307W        W25787   9.888  44.318  12.372
60308W        W25788  42.865   7.239   1.796
60309W        W25789  34.025  21.599  10.539
60310W        W25790   7.348  41.411  12.344
60311W        W25791  11.773  18.612   2.894
60312W        W25792  27.014   9.890   1.427
60313W        W25793  19.609  19.677   4.784
60314W        W25794  39.484  37.419   2.370
60315W        W25795  19.694  31.445  12.402
60316W        W25796  28.515  30.996   1.695
60317W        W25797   5.365   3.921   1.330
60318W        W25798  42.819  26.683   1.935
60319W        W25799  19.634  22.626   3.343
60320W        W25800  24.689  28.457  13.863
60321W        W25801   7.193   0.802   0.889
60322W        W25802   7.846  19.196  13.985
60323W        W25803  30.535  25.532  12.961
60324W        W25804   6.339  13.650   1.427
60325W        W25805   0.927  10.700  12.873
60326W        W25806  12.209  25.691   4.262
60327W        W25807  14.247  24.722   4.272
60328W        W25808  10.319  43.807  10.440
60329W        W25809   8.677  17.090   4.121
60330W        W25810  16.803  21.178   3.686
60331W        W25811  39.897  33.081  10.601
60332W        W25812  17.668  11.243   1.324
60333W        W25813  43.460  33.913   1.920
60334W        W25814  21.022   4.744   2.278
60335W        W25815   1.393  15.138  12.456
60336W        W25816  44.941  16.610  13.473
60337W        W25817  32.990  20.176   2.411
60338W        W25818  40.476  19.601  11.885
60339W        W25819  16.696  34.907  13.537
60340W        W25820  43.360  12.174  10.531
60341W        W25821  44.830  36.961   3.362
60342W        W25822   9.219  14.617  14.966
60343W        W25823  10.345  32.966  14.404
60344W        W25824   5.201  32.605  11.466
60345W        W25825  23.573  42.931  13.429
60346W        W25826  34.606   4.886  12.904
60347W        W25827  25.185  12.303   1.898
60348W        W25828  20.144   9.157  12.406
60349W        W25829  38.491  22.105   3.292
60350W        W25830  37.496  11.291  13.350
60351W        W25831   9.169  25.624   2.234
60352W        W25832   2.779   1.425  11.547
60353W        W25833  32.118  29.566   1.805
60354W        W25834  14.716  42.881  14.370
60355W        W25835   6.897   6.409  13.879
60356W        W25836  38.554  28.155  13.404
60357W        W25837  27.508  11.704   3.349
60358W        W25838  33.399  11.793   9.929
60359W        W25839  40.859   9.369  12.468
60360W        W25840  42.785  22.714  10.573
60361W        W25841  35.506  11.771   2.838
60362W        W25842  23.135   5.438   2.295
60363W        W25843  39.440  40.469   0.965
60364W        W25844  38.896   5.759   3.328
60365W        W25845  37.893  12.716   4.798
60366W        W25846  19.544  16.577  10.406
60367W        W25847  33.393  16.786   3.218
60368W        W25848  38.386   1.470   2.685
60369W        W25849  12.217  31.960   2.685
60370W        W25850  44.994  11.770   3.650
60371W        W25851  34.370  11.347  12.480
60372W        W25852   7.216   6.809   0.944
60373W        W25853  31.934   3.762   3.231
60374W        W25854  17.096  31.404  14.909
60375W        W25855  18.153   5.777   2.733
60376W        W25856  26.655  18.098   2.796
60377W        W25857  29.031  29.579  13.371
60378W        W25858   4.792  31.608   0.900
60379W        W25859  18.763  41.791   3.861
60380W        W25860  21.604  22.192   0.796
60381W        W25861  26.631  18.788  14.512
60382W        W25862   2.928  32.401   5.165
60383W        W25863  20.204  32.446  14.977
60384W        W25864   3.406  32.088   0.750
60385W        W25865  39.880  23.681  14.316
60386W        W25866  28.177  11.330  14.457
60387W        W25867   3.792  33.418  12.578
60388W        W25868  30.516  14.115  11.121
60389W        W25869  28.643  30.969   4.295
60390W        W25870  17.571   5.772   3.722
60391W        W25871  30.486  19.679   3.218
60392W        W25872   8.196  32.404   1.284
60393W        W25873  20.051  43.916  14.786
60394W        W25874  35.094  41.317   1.851
60395W        W25875  22.068   7.410  10.437
60396W        W25876  22.589  22.040  12.474
60397W        W25877  16.715  35.597  13.982
60398W        W25878   1.250  31.075   3.715
60399W        W25879   3.431   0.493   2.745
60400W        W25880  25.125  19.194   0.343
60401W        W25881  24.575   7.231   0.834
60402W        W25882  31.444  42.928  13.956
60403W        W25883  36.895  17.076   1.274
60404W        W25884  11.648  18.234   4.816
60405W        W25885   6.716  10.633   2.418
60406W        W25886  34.071  13.737  11.905
60407W        W25887   1.940  10.277  11.481
60408W        W25888  32.598  44.859  10.978
60409W        W25889  32.136  23.230  11.590
60410W        W25890  38.015   9.194  13.949
60411W        W25891  37.346  23.668   0.398
60412W        W25892   7.301   5.712  11.439
60413W        W25893  11.300   5.838   1.430
60414W        W25894  30.455  36.998  12.021
60415W        W25895  14.602   2.419  13.050
60416W        W25896  13.257  13.818  12.973
60417W        W25897   6.759  42.991  10.562
60418W        W25898  31.536   7.836  11.886
60419W        W25899   1.430   2.341  14.967
60420W        W25900  13.144   3.446   2.379
60421W        W25901  37.535   1.243   1.333
60422W        W25902  19.091  41.862   1.449
60423W        W25903   6.799  36.361   2.304
60424W        W25904  40.873  34.015   4.598
60425W        W25905   2.828  40.812   0.376
60426W        W25906  19.661   1.905   2.677
60427W        W25907  37.421   4.433  11.104
60428W        W25908  10.166  42.018   0.913
60429W        W25909  25.660   1.272   4.664
60430W        W25910  42.801  27.445   0.276
60431W        W25911  36.030   2.735   1.397
60432W        W25912   8.216  35.522   1.338
60433W        W25913  10.350  14.196   3.182
60434W        W25914  32.945  12.843  14.379
60435W        W25915  32.000  21.704  10.465
60436W        W25916  19.748   4.309  10.532
60437W        W25917  34.495  39.875  14.369
60438W        W25918   1.955  44.993   3.368
60439W        W25919  33.547  32.630  14.350
60440W        W25920  32.538   7.735   2.333
60441W        W25921  38.416  16.682  11.076
60442W        W25922  15.279  30.022   2.293
60443W        W25923  35.411   4.926  12.031
60444W        W25924  15.738  16.310  14.853
60445W        W25925  10.863  24.211   0.783
60446W        W25926  40.310  17.255   0.302
60447W        W25927  22.249  13.127   2.694
60448W        W25928  22.100  32.456  11.874
60449W        W25929   6.303  11.345   0.747
60450W        W25930  14.302  42.511   5.219
60451W        W25931  15.775  22.526   2.270
60452W        W25932  27.451   8.744  14.860
60453W        W25933  34.969  18.114  13.902
60454W        W25934  26.137  34.505   1.816
60455W        W25935  41.850  39.983   4.125
60456W        W25936  36.032  38.989  14.455
60457W        W25937  40.352  13.123  13.488
60458W        W25938   9.854  18.295   3.808
60459W        W25939  20.673  18.237  14.819
60460W        W25940  37.874  27.008  13.374
60461W        W25941   5.894  42.459   1.707
60462W        W25942  34.436  25.623   0.266
60463W        W25943  30.517  14.201   3.639
60464W        W25944   9.249  31.032   0.461
60465W        W25945  37.994   7.774  13.043
60466W        W25946  43.941  18.287  14.898
60467W        W25947  40.361  10.703  12.076
60468W        W25948  19.043   9.717   4.247
60469W        W25949  36.476   8.682   5.151
60470W        W25950  20.705  19.154  11.398
60471W        W25951   3.337  32.035   4.704
60472W        W25952  35.901  22.507  13.354
60473W        W25953  18.240   6.197  14.282
60474W        W25954  33.968   0.839   3.257
60475W        W25955   7.354   1.830  11.002
60476W        W25956  29.572   3.387  11.085
60477W        W25957  32.470  31.551  12.548
60478W        W25958  41.015  21.695   0.341
60479W        W25959  35.003  18.069   3.147
60480W        W25960  20.578  44.401  14.937
60481W        W25961  22.094  25.139   2.250
60482W        W25962   8.823  26.568   4.605
60483W        W25963  31.011   2.273  12.497
60484W        W25964  36.031   5.403  10.492
60485W        W25965  31.909  38.829  13.526
60486W        W25966  42.418   7.824  10.460
60487W        W25967   2.339  25.159   4.345
60488W        W25968  42.930  20.548  10.489
60489W        W25969   3.413  21.157  12.490
60490W        W25970  33.619  12.735   9.946
60491W        W25971  22.103  22.207   3.664
60492W        W25972  21.084  20.131   2.731
60493W        W25973  39.480  16.304  13.507
60494W        W25974  23.194  20.151   1.440
60495W        W25975  13.312  19.564  14.775
60496W        W25976   1.350  44.776   3.750
60497W        W25977  33.542  19.620  13.468
60498W        W25978  39.920  38.402   4.627
60499W        W25979  23.143  12.712  11.378
60500W        W25980  42.433  10.383   4.690
60501W        W25981  29.165  43.010  11.078
60502W        W25982   5.791  30.462   4.278
60503W        W25983   8.680  15.085   0.952
60504W        W25984  26.657  17.667  12.086
60505W        W25985  40.999  26.662   4.598
60506W        W25986   1.949  24.084  10.426
60507W        W25987  34.977  38.399  13.529
60508W        W25988  10.234  31.919  14.421
60509W        W25989  40.973  14.835  14.276
60510W        W25990   4.405  24.633  14.492
60511W        W25991   7.757   2.440   1.759
60512W        W25992  22.996   6.286  10.537
60513W        W25993  14.645   9.827  14.000
60514W        W25994  13.709  43.467   0.285
60515W        W25995  41.313  16.114  11.467
60516W        W25996   9.351   5.348  14.349
60517W        W25997   6.771  17.087  12.950
60518W        W25998  19.106   2.858  14.926
60519W        W25999  24.145   1.276   0.883
60520W        W26000   8.208  12.159  12.828
60521W        W26001  14.318  10.147  13.367
60522W        W26002  33.399   6.736  14.494
60523W        W26003  19.058  19.596   1.353
60524W        W26004   5.214  14.796  12.453
60525W        W26005   6.376  43.358  11.544
60526W        W26006   1.845   3.278   3.696
60527W        W26007   4.235  13.662  13.545
60528W        W26008  33.003  17.724  12.902
60529W        W26009  33.510   6.693  10.941
60530W        W26010   5.216  17.220   4.197
60531W        W26011  24.677   8.765  13.862
60532W        W26012  40.448  10.838   0.842
60533W        W26013  44.489  18.699  11.042
60534W        W26014  35.020   4.728   0.773
60535W        W26015   3.284  44.986  13.445
60536W        W26016  30.018  30.974  13.899
60537W        W26017  11.857  17.801   4.749
60538W        W26018  15.621  27.169   3.259
60539W        W26019  18.279  44.418   4.629
60540W        W26020  33.427  13.257  10.633
60541W        W26021  26.200  38.341   2.864
60542W        W26022  30.997  30.916   4.811
60543W        W26023   7.694  14.240  13.451
60544W        W26024  32.977  28.550   1.282
60545W        W26025  34.405  38.413  12.906
60546W        W26026  40.332  41.953  14.947
60547W        W26027   1.392  39.406   1.302
60548W        W26028  13.809  23.522  10.492
60549W        W26029  26.135  24.673   2.189
60550W        W26030   3.341   3.399  14.839
60551W        W26031  43.997  29.974  11.106
60552W        W26032  37.979  21.577   2.758
60553W        W26033  23.195  16.185  10.450
60554W        W26034   5.749  41.838  14.391
60555W        W26035   7.713  39.451   1.265
60556W        W26036   2.285  39.050   2.823
60557W        W26037  39.402  40.905  10.602
60558W        W26038  37.367  31.636  14.284
60559W        W26039   4.322  35.059  12.371
60560W        W26040  21.156  10.303  14.838
60561W        W26041  40.996  34.084   3.681
60562W        W26042  22.523  44.857   0.742
60563W        W26043  44.489   1.935  13.809
60564W        W26044  23.238   7.318  14.004
60565W        W26045  17.777  24.620   2.349
60566W        W26046  10.364  12.663   4.793
60567W        W26047  14.676  20.167   3.169
60568W        W26048  44.761  29.107   2.757
60569W        W26049  21.150  37.452  14.010
60570W        W26050   9.846  33.387   0.927
60571W        W26051  23.503   4.297  13.859
60572W        W26052  36.029   1.747  12.514
60573W        W26053   7.333   5.766  11.946
60574W        W26054  34.022  35.086  11.879
60575W        W26055   5.805  30.125  11.559
60576W        W26056  39.401  30.120   0.458
60577W        W26057  44.283  37.356   0.755
60578W        W26058  12.789  19.066  12.390
60579W        W26059  38.412   4.797  14.788
60580W        W26060  20.179   8.397  13.436
60581W        W26061   9.273  11.160  13.453
60582W        W26062  41.354  11.806  13.979
60583W        W26063  40.816   7.911  10.930
60584W        W26064  37.580  38.368   4.196
60585W        W26065  15.257  19.173  11.128
60586W        W26066   7.675  43.420   0.918
60587W        W26067  41.914  41.874  13.063
60588W        W26068   1.410  29.918   1.734
60589W        W26069  22.025  21.036   1.431
60590W        W26070  16.187   9.833   1.380
60591W        W26071  43.276  24.552  13.970
60592W        W26072  29.512   7.304  12.562
60593W        W26073  28.635  24.139  12.484
60594W        W26074   8.304  25.567   0.739
60595W        W26075  24.185  37.859   3.780
60596W        W26076  13.761  33.441   4.166
60597W        W26077  12.203  23.592  14.509
60598W        W26078  24.211  44.009  12.881
60599W        W26079  19.066  11.838   1.331
60600W        W26080  15.592  13.295  12.988
60601W        W26081   3.917  24.057  11.551
60602W        W26082  24.175  16.309  13.996
60603W        W26083  41.990  32.035   0.394
60604W        W26084  37.410   4.359   3.197
60605W        W26085  39.549  44.931  10.645
60606W        W26086  13.180   8.867  11.038
60607W        W26087  24.135  14.252  10.523
60608W        W26088  30.547  41.948  13.381
60609W        W26089  12.719  41.977   0.768
60610W        W26090   0.285  14.722  13.931
60611W        W26091  14.229  23.161  13.952
60612W        W26092  41.994  29.477  11.529
60613W        W26093  16.764  22.170   1.232
60614W        W26094  38.918   9.705   1.704
60615W        W26095  19.680  21.250   2.335
60616W        W26096  26.070   5.706  11.447
60617W        W26097  37.514   2.315   0.305
60618W        W26098  36.986  25.186  11.508
60619W        W26099   3.232  44.875   0.891
60620W        W26100   9.215  30.945  13.505
60621W        W26101   2.388  18.251   0.311
60622W        W26102   4.813  13.318  13.475
60623W        W26103  24.491  26.956  14.759
60624W        W26104  24.503  42.320   2.251
60625W        W26105  44.952  11.234   2.693
60626W        W26106   5.206  21.608  11.427
60627W        W26107  25.551  36.471   0.265
60628W        W26108  40.964   9.743  14.282
60629W        W26109  12.674  27.671  13.951
60630W        W26110   4.928  41.456  11.605
60631W        W26111  34.596  24.631  11.994
60632W        W26112  42.397  10.293  10.436
60633W        W26113   3.764  31.125   0.283
60634W        W26114  42.341  18.790  14.870
60635W        W26115  40.375  16.110   2.765
60636W        W26116  39.967  37.566   0.935
60637W        W26117  20.239  27.483   4.126
60638W        W26118  26.481  31.604  13.410
60639W        W26119  25.002  34.090   2.825
60640W        W26120  18.560  27.145   4.684
60641W        W26121  36.413  40.822   0.787
60642W        W26122  11.295  16.208   1.790
60643W        W26123  41.514   3.266   3.349
60644W        W26124  34.615  28.135   2.693
60645W        W26125  21.725  34.979   2.342
60646W        W26126  16.567  13.136   0.792
60647W        W26127  16.193  34.879   3.367
60648W        W26128  25.656   3.747  12.889
60649W        W26129  38.355  17.752   4.827
60650W        W26130  35.490  33.066  12.090
60651W        W26131  28.093   0.484  14.460
60652W        W26132   3.259  29.061  14.959
60653W        W26133  43.869  29.656   3.804
60654W        W26134  38.066  19.239   4.773
60655W        W26135   7.671  20.138   2.367
60656W        W26136  26.534  25.000   0.374
60657W        W26137   5.859  43.888  12.398
60658W        W26138  27.005   0.903   2.397
60659W        W26139   5.721  16.295   0.443
60660W        W26140   7.810   4.228   3.810
60661W        W26141  40.882   9.821  14.806
60662W        W26142   3.748  41.043   0.743
60663W        W26143  34.992  16.806   2.378
60664W        W26144  11.691  19.235  12.362
60665W        W26145   9.846  14.302   2.308
60666W        W26146  36.083  11.305   1.848
60667W        W26147   1.965  43.967  14.898
60668W        W26148  33.421   8.322  14.983
60669W        W26149  27.033  20.549   1.843
60670W        W26150  36.878  11.703   4.781
60671W        W26151   4.707  32.998  13.361
60672W        W26152  27.064  21.149   3.345
60673W        W26153  18.635  36.562  12.993
60674W        W26154  15.824  39.831  10.569
60675W        W26155  11.670  41.795  11.442
60676W        W26156  10.224  32.514  14.844
60677W        W26157   5.858   2.387   3.778
60678W        W26158  43.881  31.491   0.427
60679W        W26159  18.585  10.696   1.353
60680W        W26160  29.083  30.557   4.792
60681W        W26161  39.396  22.614  12.958
60682W        W26162   8.267  28.946  12.877
60683W        W26163   0.952  18.609  12.943
60684W        W26164  17.645  18.215  14.393
60685W        W26165  31.623   3.779  11.951
60686W        W26166  42.924  37.878   0.420
60687W        W26167   5.892   4.407  10.943
60688W        W26168   5.301  17.569   4.834
60689W        W26169  15.085  24.135  12.007
60690W        W26170  26.584   7.817   2.357
60691W        W26171  24.649  17.560   4.708
60692W        W26172  42.851  25.117  12.450
60693W        W26173   4.377  18.707   0.447
60694W        W26174  38.854   4.297  13.969
60695W        W26175  43.846  18.297  13.450
60696W        W26176   4.324   5.348  10.524
60697W        W26177  14.757   1.887  13.974
60698W        W26178  40.321  44.901  12.534
60699W        W26179  34.099  36.895  13.810
60700W        W26180  39.515  28.111   3.717
60701W        W26181  41.944   6.833   2.668
60702W        W26182  38.478   8.352  12.477
60703W        W26183   9.211  15.285   0.247
60704W        W26184   2.428   5.709   4.633
60705W        W26185  20.713   6.877   1.210
60706W        W26186  10.266   6.316   3.843
60707W        W26187  24.524  11.815  14.509
60708W        W26188  14.276  38.969  10.962
60709W        W26189   3.272  27.046  11.911
60710W        W26190  28.486  31.961   3.330
60711W        W26191  34.471  28.155   0.347
60712W        W26192  34.996  14.631   1.316
60713W        W26193  19.748  41.496  14.790
60714W        W26194   4.289  16.261   0.846
60715W        W26195  23.724  19.097  14.489
60716W        W26196  34.874  44.951   1.775
60717W        W26197  43.479  13.614   0.478
60718W        W26198  33.571  38.522   0.436
60719W        W26199  27.672  35.417   0.898
60720W        W26200  37.904  38.052  11.921
60721W        W26201  36.974  35.594   0.412
60722W        W26202  17.586  27.989   0.820
60723W        W26203  29.502  13.806   0.771
60724W        W26204  19.074   6.900   0.388
60725W        W26205  42.848  42.023   4.835
60726W        W26206  38.012   7.364  14.495
60727W        W26207  37.400  43.989  13.532
60728W        W26208   8.721  37.525   1.898
60729W        W26209  27.511  41.833  11.489
60730W        W26210  23.110  19.662  10.560
60731W        W26211  21.110  18.085  14.959
60732W        W26212  17.274  24.009  13.811
60733W        W26213  35.463  20.613   0.410
60734W        W26214  44.287  31.914  11.418
60735W        W26215  12.676   0.746   3.757
60736W        W26216  37.940  33.438  11.975
60737W        W26217  34.400  26.203  13.502
60738W        W26218   4.785  36.490   2.190
60739W        W26219  14.771   4.786  10.029
60740W        W26220  14.180  14.677  13.889
60741W        W26221   7.694  34.470   0.954
60742W        W26222  15.202  27.120   4.144
60743W        W26223  35.505  10.802  14.900
60744W        W26224  19.703  27.588  11.897
60745W        W26225   7.796  33.964   3.352
60746W        W26226  32.509   8.276   4.247
60747W        W26227  38.348   5.302   1.322
60748W        W26228   2.889  27.170  12.831
60749W        W26229   6.869  22.708   0.749
60750W        W26230  11.199  35.104   3.746
60751W        W26231  11.136   1.810   2.344
60752W        W26232  23.009  42.479   0.793
60753W        W26233  26.612  21.147   4.344
60754W        W26234  16.672  44.824   2.827
60755W        W26235  18.064  39.483   1.301
60756W        W26236   3.866  20.567   4.811
60757W        W26237   8.393   7.788  12.978
60758W        W26238  22.555  14.147   0.365
60759W        W26239  28.940  42.779  12.514
60760W        W26240   2.335   0.971  11.090
60761W        W26241   8.813  23.728   4.325
60762W        W26242   2.882  26.026   3.349
60763W        W26243  15.098  44.971  14.854
60764W        W26244  42.918  34.112  10.555
60765W        W26245  23.555   4.834   4.260
60766W        W26246  24.148   9.713  13.984
60767W        W26247  30.033  32.439   2.340
60768W        W26248  24.636  21.110  14.878
60769W        W26249  11.823   4.802  12.912
60770W        W26250  14.257  42.283   4.283
60771W        W26251  18.131  30.631   4.802
60772W        W26252  44.390  27.579  13.949
60773W        W26253   9.185  35.542   0.413
60774W        W26254  24.607  38.890  10.892
60775W        W26255  12.299  20.131  13.537
60776W        W26256   7.834  21.161   4.219
60777W        W26257  19.220   6.768   4.141
60778W        W26258  33.532  32.464   2.205
60779W        W26259   9.262  29.480   9.989
60780W        W26260  14.659  28.593  14.944
60781W        W26261  18.272   6.693  14.782
60782W        W26262  21.758  17.110  12.455
60783W        W26263  29.953  29.139  14.302
60784W        W26264  14.726  16.614   2.311
60785W        W26265  27.653  36.503  14.363
60786W        W26266  24.587  31.472  12.526
60787W        W26267  42.884  16.100  13.876
60788W        W26268  28.522  23.157   1.915
60789W        W26269  18.268   3.219  13.803
60790W        W26270  28.934  38.407   3.231
60791W        W26271  42.304  32.399   2.705
60792W        W26272  35.372  21.133   0.730
60793W        W26273  36.995  30.978  11.492
60794W        W26274  12.273  26.700  11.590
60795W        W26275  41.309  28.021   1.717
60796W        W26276   2.806  40.440   4.761
60797W        W26277  22.175  34.580   3.300
60798W        W26278  16.806   9.806  12.018
60799W        W26279  18.566  41.327   1.877
60800W        W26280  32.629  13.647   0.733
60801W        W26281  42.448  35.417   2.312
60802W        W26282   6.832  25.576   4.711
60803W        W26283   1.296  14.624   2.873
60804W        W26284  18.555  41.974  13.032
60805W        W26285  28.601  31.982  14.793
60806W        W26286  22.236  32.983   4.301
60807W        W26287   5.429  14.668  14.759
60808W        W26288   2.454  22.619   5.288
60809W        W26289  15.211  30.421   3.156
60810W        W26290  38.839  39.511  11.522
60811W        W26291  44.759  25.676  12.922
60812W        W26292   7.261  31.046  14.766
60813W        W26293  16.232  16.703  11.878
60814W        W26294  37.506   3.252  11.000
60815W        W26295   9.716   2.722  10.633
60816W        W26296  39.904  42.845   0.477
60817W        W26297  27.579  29.593   0.422
60818W        W26298  26.144  37.873  10.570
60819W        W26299   4.811  28.003  13.345
60820W        W26300   9.711   8.798   1.248
60821W        W26301   4.945  12.743  12.433
60822W        W26302  21.554  12.116  14.029
60823W        W26303  21.228  28.557  13.458
60824W        W26304  38.361  24.544  10.432
60825W        W26305  43.938  42.512   1.426
60826W        W26306  33.429   7.328  13.926
60827W        W26307  42.457  19.535   9.559
60828W        W26308  29.919  23.182   1.330
60829W        W26309  16.632  26.032   0.294
60830W        W26310  37.562   0.374  13.919
60831W        W26311   4.424  12.726  12.898
60832W        W26312  29.175  29.034   4.185
60833W        W26313  27.011  42.386  11.599
60834W        W26314   0.962   7.216  11.111
60835W        W26315   9.163  31.645  11.904
60836W        W26316  27.021  29.559   1.419
60837W        W26317  19.068  29.049  13.058
60838W        W26318   1.829  19.271  14.448
60839W        W26319   6.739  42.839  13.426
60840W        W26320  17.690  17.593  13.020
60841W        W26321  42.844  13.301  10.975
60842W        W26322  24.172  18.084   0.265
60843W        W26323  23.148  41.346   4.163
60844W        W26324  15.777   4.846   5.172
60845W        W26325   0.831  10.373  12.502
60846W        W26326  21.652  15.727   1.221
60847W        W26327   5.311  28.041  12.480
60848W        W26328  10.658  14.186  13.381
60849W        W26329  38.328   2.815   4.825
60850W        W26330  28.054  12.198  13.011
60851W        W26331  40.477  42.405  11.921
60852W        W26332  37.428  17.598   3.225
60853W        W26333  39.010   9.648  10.414
60854W        W26334  43.289  31.114   3.222
60855W        W26335  30.638  21.734  11.011
60856W        W26336   1.864  19.196  13.793
60857W        W26337  42.378  37.561   1.295
60858W        W26338  40.050  13.611   1.437
60859W        W26339  25.168  24.646   1.274
60860W        W26340  13.330  25.167  10.894
60861W        W26341  26.049  12.649   1.793
60862W        W26342  35.984  13.170  14.962
60863W        W26343  29.048  13.645   1.773
60864W        W26344   7.687  17.652   2.201
60865W        W26345  38.364  13.268  11.398
60866W        W26346  11.245  12.745  13.404
60867W        W26347  29.513  17.261   3.760
60868W        W26348  13.800  25.604  12.067
60869W        W26349  41.490  37.459  13.846
60870W        W26350  32.135  27.504  14.363
60871W        W26351  24.184   0.460   3.370
60872W        W26352   0.767  30.509   2.319
60873W        W26353  27.675  41.422  12.406
60874W        W26354   5.429   2.243   4.601
60875W        W26355   4.799  29.589   4.720
60876W        W26356  31.984   1.401  12.827
60877W        W26357  13.603  20.748   0.329
60878W        W26358  44.818  16.111   0.483
60879W        W26359   6.754   9.329  11.033
60880W        W26360  27.649  31.096   1.857
60881W        W26361  31.020  28.519   4.658
60882W        W26362  39.991  23.120   4.651
60883W        W26363  11.707   4.316  13.427
60884W        W26364  30.959  14.169  12.093
60885W        W26365  44.951  11.315  11.944
60886W        W26366  33.604   5.890  13.543
60887W        W26367  38.366  30.060   1.810
60888W        W26368   9.246   3.753  14.997
60889W        W26369  33.484   0.973   3.784
60890W        W26370   4.900  16.077  14.801
60891W        W26371  26.054  15.712   4.235
60892W        W26372  26.056  38.539  12.851
60893W        W26373   1.448   2.838   0.764
60894W        W26374  25.549  42.482   1.223
60895W        W26375   1.944  28.486   3.675
60896W        W26376  42.372  25.154  13.406
60897W        W26377  17.603  22.193  10.970
60898W        W26378   0.837  22.592   4.781
60899W        W26379  32.547  38.868  12.028
60900W        W26380  27.691   0.461   4.292
60901W        W26381  18.759  17.063   1.303
60902W        W26382   8.692  30.958  14.766
60903W        W26383  10.275  36.895   2.364
60904W        W26384  18.184  30.509   2.296
60905W        W26385  20.047  29.134   2.281
60906W        W26386  38.400  43.767  10.504
60907W        W26387  16.773  33.491  12.434
60908W        W26388  30.972  23.003   4.671
60909W        W26389  34.114  39.516  10.473
60910W        W26390  23.161  42.403  13.975
60911W        W26391  31.417  40.444   0.795
60912W        W26392   5.281  25.606   1.926
60913W        W26393  20.220  10.369  13.469
60914W        W26394  32.134  10.369  12.921
60915W        W26395   9.283  31.565   1.342
60916W        W26396   8.333  11.843  11.489
60917W        W26397  19.235  15.624  14.402
60918W        W26398  27.106   4.413  13.947
60919W        W26399  16.736  41.891   4.352
60920W        W26400  37.543  40.529   0.471
60921W        W26401  30.542   7.327   1.292
60922W        W26402  10.840  15.260  11.089
60923W        W26403  12.282  36.475  10.896
60924W        W26404  18.786  25.131  14.469
60925W        W26405  25.048  10.672   4.755
60926W        W26406   9.888  37.380  14.484
60927W        W26407   1.931  39.042   2.237
60928W        W26408  14.725   9.684  11.037
60929W        W26409   1.337   6.378  13.960
60930W        W26410  28.999  33.934   4.327
60931W        W26411  10.646  14.674  12.884
60932W        W26412  29.447  41.825   3.808
60933W        W26413   1.404  16.745  13.436
60934W        W26414  28.488  28.084   1.442
60935W        W26415  38.940  11.348   3.672
60936W        W26416  23.235  25.198   2.348
60937W        W26417  14.120  34.370  13.392
60938W        W26418   7.192  43.407   4.312
60939W        W26419  37.066  32.481  13.894
60940W        W26420  15.717  42.998  11.512
60941W        W26421  35.986  41.028   4.244
60942W        W26422  15.805  10.184  10.935
60943W        W26423  36.922  14.642  14.442
60944W        W26424  31.476  41.483   3.737
60945W        W26425  37.354  12.695  12.566
60946W        W26426   9.759  38.025  10.960
60947W        W26427  28.570   1.394  10.453
60948W        W26428  29.537  17.665   2.376
60949W        W26429  28.680   9.776  12.373
60950W        W26430  19.071  40.341  13.925
60951W        W26431  38.937   9.192   0.919
60952W        W26432  29.055  36.365   4.753
60953W        W26433  26.115  38.376   0.899
60954W        W26434  33.948  37.010  14.302
60955W        W26435  32.985  39.334  13.431
60956W        W26436   6.418  41.319   2.761
60957W        W26437  17.585  44.776  12.868
60958W        W26438  30.545   4.771   5.145
60959W        W26439  43.838  12.755  12.851
60960W        W26440  21.238  40.506  13.046
60961W        W26441   3.797  28.017  10.524
60962W        W26442   5.825  44.408  14.307
60963W        W26443  43.859   3.251  10.527
60964W        W26444  41.919   7.178   3.245
60965W        W26445  20.602  24.094  10.982
60966W        W26446   5.250  30.489  13.909
60967W        W26447  11.863  38.041  14.485
60968W        W26448  10.637   2.277   4.604
60969W        W26449  12.312  40.014  14.901
60970W        W26450  36.450  38.412  10.948
60971W        W26451  13.719   9.339  12.554
60972W        W26452  22.620  32.897  12.941
60973W        W26453  30.531  10.358  13.504
60974W        W26454  44.456  38.332  11.061
60975W        W26455  35.410  36.350  14.457
60976W        W26456  44.858  39.917   0.383
60977W        W26457   6.819  30.982   3.185
60978W        W26458  34.914  20.050  11.475
60979W        W26459  20.087   7.849   0.957
60980W        W26460  37.995  26.533  11.608
60981W        W26461  42.864  40.984  12.894
60982W        W26462   6.686  31.597   3.211
60983W        W26463   9.849  35.956  13.934
60984W        W26464  34.410  19.126   1.365
60985W        W26465  33.018  17.296  10.547
60986W        W26466  28.513  41.473  13.439
60987W        W26467  16.723  40.475   2.870
60988W        W26468  25.507  40.544  14.000
60989W        W26469  37.533   0.372  12.021
60990W        W26470  15.117   0.291   9.985
60991W        W26471   6.331  29.469   4.613
60992W        W26472  41.292   6.184  10.904
60993W        W26473  40.044  18.570  12.872
60994W        W26474  14.302  20.217  13.458
60995W        W26475   9.334  31.570  12.564
60996W        W26476  10.365  40.016   0.279
60997W        W26477  29.595   1.434   3.804
60998W        W26478  13.626  17.703  10.624
60999W        W26479   7.902  25.625  13.453
61000W        W26480   5.377  11.223  10.480
61001W        W26481  20.734   0.330   4.214
61002W        W26482  39.440  39.332   3.177
61003W        W26483  29.611  38.885  13.438
61004W        W26484  18.135  12.821   4.213
61005W        W26485  25.594  43.818   0.297
61006W        W26486   7.698  11.220   4.250
61007W        W26487   0.480  27.458   4.740
61008W        W26488  28.957  18.565   1.834
61009W        W26489  38.033  44.340   9.948
61010W        W26490  40.825  43.351   1.838
61011W        W26491   4.228   4.789   1.361
61012W        W26492  11.290   7.779   1.753
61013W        W26493  15.287  31.559   4.642
61014W        W26494  43.820  11.227   2.401
61015W        W26495  11.166   7.682   1.319
61016W        W26496  36.425  42.802  11.048
61017W        W26497  33.876  11.644  10.482
61018W        W26498  36.883  20.074  12.915
61019W        W26499  39.989  27.537   1.855
61020W        W26500  43.454  32.004   1.397
61021W        W26501  38.371  35.061   4.605
61022W        W26502   0.464  44.967  13.351
61023W        W26503  41.294  38.466   3.736
61024W        W26504  32.533   4.735   0.396
61025W        W26505  18.179  10.213  13.057
61026W        W26506  13.768   2.257  12.871
61027W        W26507  33.500  10.795  11.386
61028W        W26508  33.606   2.852   4.730
61029W        W26509   4.303  30.645  12.492
61030W        W26510  26.185  26.604  14.872
61031W        W26511  22.100  35.904  11.004
61032W        W26512  14.301  41.000   2.807
61033W        W26513  15.128  38.900   3.328
61034W        W26514  35.891  18.662   3.207
61035W        W26515  38.561   5.736   1.713
61036W        W26516  27.550   8.252   4.132
61037W        W26517  34.504  41.981   1.355
61038W        W26518  20.734  14.309  10.629
61039W        W26519  39.358   1.956  10.890
61040W        W26520  15.810  16.161   4.663
61041W        W26521  38.460  43.815   0.329
61042W        W26522  37.354  35.377   2.841
61043W        W26523  20.242  25.138   1.230
61044W        W26524  11.293   9.238   0.825
61045W        W26525  29.488  31.533   1.391
61046W        W26526  18.207   9.873   3.377
61047W        W26527   9.160  37.963  12.043
61048W        W26528  10.378  23.705   1.250
61049W        W26529  36.417  20.703   4.275
61050W        W26530  22.110  12.618   2.352
61051W        W26531  31.506  16.125   0.367
61052W        W26532   4.396  21.088  13.056
61053W        W26533  33.116   4.394   3.769
61054W        W26534  11.352  13.155  10.545
61055W        W26535  26.084  23.017   1.788
61056W        W26536  15.154   3.223   4.129
61057W        W26537  17.571   7.238  14.962
61058W        W26538  12.795  43.371   4.213
61059W        W26539  37.968  10.784  13.883
61060W        W26540  42.827  29.656  12.497
61061W        W26541  26.681   8.244   0.447
61062W        W26542  10.254   5.294   4.147
61063W        W26543  12.260  37.376  13.448
61064W        W26544  10.379   9.697   2.225
61065W        W26545   4.874  30.428  12.391
61066W        W26546   7.295  20.567  11.551
61067W        W26547   3.280  41.341  12.349
61068W        W26548  39.819   7.332  13.841
61069W        W26549  44.934  21.255   0.921
61070W        W26550  15.134  30.540   2.787
61071W        W26551   9.839  27.482  10.582
61072W        W26552  14.217  42.966   0.304
61073W        W26553  14.160   9.297   4.788
61074W        W26554  16.588  42.029  11.880
61075W        W26555  11.332  34.957   4.352
61076W        W26556  19.109  16.741  10.525
61077W        W26557  34.999  34.989  11.026
61078W        W26558  30.505  16.665   4.638
61079W        W26559  10.298  44.332  10.528
61080W        W26560   7.227  37.972   0.918
61081W        W26561   7.670  31.057   4.327
61082W        W26562  32.589  36.961   0.457
61083W        W26563  13.779  14.200   2.218
61084W        W26564  35.573  40.469  10.612
61085W        W26565   7.699  41.312   1.803
61086W        W26566  14.284  24.563   3.779
61087W        W26567  29.579  29.637   2.697
61088W        W26568  16.706  22.039   3.334
61089W        W26569  36.861   9.151   0.329
61090W        W26570  31.898  41.536   3.241
61091W        W26571  19.087  19.703   0.312
61092W        W26572   7.909   3.407   4.223
61093W        W26573  12.697  27.188  11.461
61094W        W26574  44.327  24.990  12.900
61095W        W26575  16.297  16.265   2.799
61096W        W26576  12.300  10.634  12.059
61097W        W26577   3.456  33.067  14.308
61098W        W26578   5.871   1.915   0.959
61099W        W26579  18.204  29.487   0.766
61100W        W26580  18.066  42.796  10.932
61101W        W26581  37.831   3.787  11.039
61102W        W26582  40.804   1.258   3.239
61103W        W26583  40.827  13.305  12.943
61104W        W26584  21.548  41.042  14.285
61105W        W26585  28.527  12.305   1.857
61106W        W26586  24.988  11.628  12.401
61107W        W26587  14.829   6.300  11.538
61108W        W26588  10.818  22.013  13.538
61109W        W26589  14.277  17.109   2.206
61110W        W26590  11.214  31.141   3.294
61111W        W26591  33.558  19.125   2.405
61112W        W26592  35.995  36.842   1.369
61113W        W26593  15.601  14.234   1.859
61114W        W26594   3.825  29.069  13.954
61115W        W26595   4.883   8.834  13.537
61116W        W26596  40.307  23.594   2.885
61117W        W26597   7.781   5.279  11.873
61118W        W26598  12.802  12.127  12.947
61119W        W26599  17.760  14.664   9.991
61120W        W26600   6.769  31.478  13.349
61121W        W26601  21.256  10.806  14.388
61122W        W26602  30.608   6.841  12.518
61123W        W26603  12.327  19.662   4.155
61124W        W26604   5.310   9.328   3.665
61125W        W26605  15.775  14.786   4.624
61126W        W26606  36.917  10.382   3.288
61127W        W26607  40.535   6.731   3.755
61128W        W26608   0.473   3.230  11.572
61129W        W26609  41.867  28.558   3.318
61130W        W26610  19.221  38.052  13.849
61131W        W26611  17.306   3.355  11.877
61132W        W26612  14.291  17.718  13.965
61133W        W26613  22.243  11.745  13.844
61134W        W26614  39.055   6.218   0.785
61135W        W26615  10.373   6.305   1.732
61136W        W26616   2.903  35.399   2.728
61137W        W26617  16.635  39.412   1.268
61138W        W26618  40.423  20.542   4.351
61139W        W26619  20.168  37.848  14.026
61140W        W26620  11.655   8.321  13.015
61141W        W26621  22.595   8.900  12.535
61142W        W26622  11.296  16.760  14.506
61143W        W26623   0.312  17.147   1.762
61144W        W26624  28.113  20.206   2.303
61145W        W26625  23.091  14.320  12.835
61146W        W26626   6.330  15.606   1.301
61147W        W26627  28.590  42.404  14.390
61148W        W26628  27.135  16.583  14.515
61149W        W26629  34.922  35.978   2.375
61150W        W26630  18.598  26.200  12.520
61151W        W26631  18.179  26.160   0.265
61152W        W26632   4.822  38.557  10.489
61153W        W26633  38.064   2.857  11.451
61154W        W26634  34.900  34.108  13.953
61155W        W26635   9.765  17.581  10.939
61156W        W26636  40.917  29.081  10.628
61157W        W26637  36.449   8.842  13.339
61158W        W26638  10.228  22.113  11.467
61159W        W26639  38.556  17.214   0.364
61160W        W26640  32.053   6.355   2.721
61161W        W26641  43.341   9.331   2.229
61162W        W26642  22.103  27.634   3.638
61163W        W26643   7.309  22.070  11.469
61164W        W26644  18.088  33.083   1.257
61165W        W26645  41.798  12.751  10.129
61166W        W26646   6.867  10.667  10.939
61167W        W26647  15.643   1.459  11.026
61168W        W26648  20.547  26.958  11.395
61169W        W26649   5.294   9.788  12.377
61170W        W26650  28.152  13.660  14.828
61171W        W26651  43.833   5.922   0.249
61172W        W26652  21.636   9.723  11.428
61173W        W26653  10.730  23.716  12.038
61174W        W26654  29.040   4.732  14.882
61175W        W26655  18.133   7.194   4.180
61176W        W26656  15.155   2.777  14.886
61177W        W26657   3.442  16.146   3.314
61178W        W26658  27.537   7.882   0.866
61179W        W26659  26.045  21.214   2.197
61180W        W26660  27.080  26.130  12.876
61181W        W26661  34.373  23.559   1.221
61182W        W26662  26.142  38.448   3.369
61183W        W26663  19.706  11.756   3.242
61184W        W26664   9.285  31.430   4.699
61185W        W26665  43.319  31.536   3.645
61186W        W26666   5.279  34.582  13.955
61187W        W26667  37.398   0.746   5.147
61188W        W26668  35.441  22.552  12.081
61189W        W26669   8.743  12.707   1.418
61190W        W26670  26.500  22.606  13.322
61191W        W26671   6.414  31.038   4.763
61192W        W26672   5.212  28.085  14.847
61193W        W26673   4.698   7.404  12.912
61194W        W26674   7.878   6.404  14.438
61195W        W26675  36.526   4.357   3.254
61196W        W26676  11.638  29.606  13.537
61197W        W26677  35.095  19.753  13.989
61198W        W26678  11.196  43.777  12.873
61199W        W26679  22.211  26.199  11.886
61200W        W26680   4.292  24.723   1.384
61201W        W26681   0.844  11.799  13.317
61202W        W26682  19.262  38.369   1.347
61203W        W26683  42.343  32.915   2.249
61204W        W26684  40.476  15.238   4.680
61205W        W26685  30.060  33.925   0.312
61206W        W26686  14.811   8.816  12.426
61207W        W26687  13.144  32.498  12.462
61208W        W26688  25.005  34.450   4.317
61209W        W26689  19.249   9.814   0.472
61210W        W26690  17.068  37.982  12.825
61211W        W26691  43.803  27.986   1.259
61212W        W26692  16.577  27.563  12.089
61213W        W26693  21.576   6.216   5.147
61214W        W26694  14.282  41.325   2.307
61215W        W26695  30.988   4.852  11.447
61216W        W26696  34.504  39.496  11.455
61217W        W26697  10.856  18.225  14.460
61218W        W26698  23.200  10.676  12.400
61219W        W26699   0.343  11.366  14.832
61220W        W26700  25.105  13.600  14.418
61221W        W26701   8.315  41.020   0.738
61222W        W26702  13.338  22.723   1.230
61223W        W26703   4.810   4.340   0.333
61224W        W26704  44.756  22.627   1.375
61225W        W26705  30.502  40.379   1.729
61226W        W26706  35.426  42.471  12.086
61227W        W26707  32.911  13.226  11.096
61228W        W26708  43.317  17.187  14.808
61229W        W26709   5.221  43.860   2.679
61230W        W26710  40.547  16.735  10.541
61231W        W26711  34.608  33.937  14.872
61232W        W26712  31.582   0.942   1.283
61233W        W26713  26.668  29.432   4.689
61234W        W26714  20.749  10.338   0.284
61235W        W26715  25.684   9.201   0.394
61236W        W26716  37.568   2.801  14.410
61237W        W26717  11.700  33.561   2.800
61238W        W26718  19.561  20.697   1.808
61239W        W26719   6.187  44.335   2.352
61240W        W26720  27.541   9.179  12.988
61241W        W26721  21.033   2.418   3.631
61242W        W26722  23.596  36.442  13.934
61243W        W26723   3.418  10.181  11.870
61244W        W26724  26.041  36.419   1.765
61245W        W26725  32.116  14.114  13.397
61246W        W26726  23.689  11.143   4.329
61247W        W26727  17.194  34.875  14.388
61248W        W26728  34.007  24.593  14.003
61249W        W26729  34.864   9.190  13.921
61250W        W26730  36.077  44.436  14.949
61251W        W26731   9.364  35.484   2.185
61252W        W26732  12.640  38.846   1.700
61253W        W26733  17.095  36.557   2.345
61254W        W26734  17.672   9.742  14.921
61255W        W26735  38.958  27.527  14.481
61256W        W26736  44.435   6.774  11.572
61257W        W26737   5.748  31.464  11.892
61258W        W26738  24.090   0.324   0.275
61259W        W26739  16.183  11.246  11.885
61260W        W26740   4.249   6.884   0.819
61261W        W26741   6.916  12.685  13.898
61262W        W26742  32.619  43.477  13.544
61263W        W26743  16.594  43.501  10.059
61264W        W26744  42.874  24.109   3.801
61265W        W26745  20.224   8.232   1.834
61266W        W26746  32.584   6.233   1.783
61267W        W26747  15.292  12.231   1.264
61268W        W26748  16.164  12.649  13.007
61269W        W26749  34.013   3.784   4.211
61270W        W26750  16.185  43.280  11.507
61271W        W26751  44.484  23.016   4.805
61272W        W26752   0.335  40.835   0.425
61273W        W26753  10.783   9.647   2.829
61274W        W26754   1.379  37.481   1.243
61275W        W26755  26.095   9.689   1.904
61276W        W26756   0.785  30.032  12.497
61277W        W26757  14.118   1.383   2.725
61278W        W26758  43.802  39.000  10.933
61279W        W26759  19.737  23.226   2.680
61280W        W26760  31.621  36.045   0.796
61281W        W26761  26.976   9.300  14.333
61282W        W26762  24.008   3.793   0.457
61283W        W26763  27.489   1.404   3.217
61284W        W26764  35.058  15.676   3.221
61285W        W26765   8.874  43.497  11.873
61286W        W26766  37.947  20.273  10.575
61287W        W26767  22.668   1.742   1.335
61288W        W26768  26.582  10.778  11.422
61289W        W26769  36.385   4.699   0.363
61290W        W26770  14.756  38.821   0.284
61291W        W26771   9.244  37.347  14.809
61292W        W26772   5.915   0.958  13.391
61293W        W26773  22.249  36.868   0.447
61294W        W26774  11.825  11.250   2.311
61295W        W26775  10.322  37.343   2.846
61296W        W26776   0.941  28.070   3.299
61297W        W26777  33.047  30.525   3.869
61298W        W26778   4.821  17.777  11.550
61299W        W26779  41.350   8.175   3.839
61300W        W26780  32.099  15.713  12.485
61301W        W26781  41.825  31.528  14.910
61302W        W26782  14.296  17.656   3.779
61303W        W26783  41.799  38.513   1.884
61304W        W26784  44.872  37.346   2.736
61305W        W26785  43.847  10.234   0.766
61306W        W26786  11.175  17.788   0.482
61307W        W26787  16.101  30.932   4.666
61308W        W26788  33.036  23.503  11.386
61309W        W26789  44.990  35.086   0.451
61310W        W26790  11.278  16.305   0.935
61311W        W26791  42.285   7.283  13.396
61312W        W26792  34.070  34.953   3.667
61313W        W26793  25.057  22.675  11.895
61314W        W26794   4.921  36.519  14.407
61315W        W26795   4.907  42.502   1.832
61316W        W26796  21.633  33.927  12.546
61317W        W26797  39.852   8.393   1.395
61318W        W26798  41.384  17.674   1.412
61319W        W26799  16.712  40.023  13.983
61320W        W26800  40.993  37.386   0.463
61321W        W26801  18.547  35.853   1.428
61322W        W26802  22.113   3.932  10.935
61323W        W26803  38.011  30.143   4.169
61324W        W26804  19.119  17.651  14.768
61325W        W26805  44.916  16.206   1.713
61326W        W26806   7.753   0.782   4.659
61327W        W26807  29.544   9.277  10.584
61328W        W26808  33.506   2.856   3.734
61329W        W26809  22.048  11.801  10.102
61330W        W26810   4.851  17.234  13.308
61331W        W26811  27.475  38.476  11.532
61332W        W26812  35.878   7.202   2.862
61333W        W26813  19.090  27.117   0.369
61334W        W26814  30.531   1.841   1.912
61335W        W26815   8.370   2.451  13.956
61336W        W26816  19.283   8.234  10.511
61337W        W26817   0.849   8.332   2.381
61338W        W26818  32.981  15.151  10.438
61339W        W26819  30.027  20.610   3.716
61340W        W26820  40.026  42.382   3.808
61341W        W26821  34.564   4.753  10.588
61342W        W26822   7.874   6.893  12.522
61343W        W26823  14.130   9.236  14.506
61344W        W26824  31.996  26.084   0.431
61345W        W26825  26.169  35.880   3.247
61346W        W26826  35.593  44.290   1.893
61347W        W26827   2.454  14.760   0.472
61348W        W26828  12.188  12.343  13.492
61349W        W26829  33.053  31.972   1.801
61350W        W26830   0.788  31.482  11.043
61351W        W26831  15.632   6.690  10.430
61352W        W26832  26.644  20.766   1.233
61353W        W26833  35.538  29.175  14.501
61354W        W26834  31.064  23.242   2.416
61355W        W26835  15.722  19.141  11.933
61356W        W26836   8.863  35.417  10.569
61357W        W26837  41.939   4.786  13.320
61358W        W26838   5.908  42.284  13.461
61359W        W26839  40.367  39.835   2.407
61360W        W26840  27.132  42.946   0.468
61361W        W26841  35.056  16.164   1.329
61362W        W26842  22.170   5.705   4.245
61363W        W26843  23.713  14.213   1.277
61364W        W26844  15.292  11.828   5.161
61365W        W26845  34.883   6.234   2.246
61366W        W26846  11.199  35.040   3.274
61367W        W26847  18.059  28.681  13.538
61368W        W26848   9.170  17.289  14.412
61369W        W26849  16.754  23.997  14.940
61370W        W26850  29.595  13.312  13.308
61371W        W26851  14.727  16.227   4.189
61372W        W26852  17.578  15.724   4.185
61373W        W26853  12.325  20.105   2.730
61374W        W26854   7.318   7.683  14.282
61375W        W26855   3.347  24.697  10.405
61376W        W26856   6.300   3.826   4.262
61377W        W26857  35.524  15.607  12.886
61378W        W26858   9.195  40.491   4.696
61379W        W26859  26.581  30.434  10.443
61380W        W26860  14.713  37.467   4.775
61381W        W26861  35.472  26.164  12.034
61382W        W26862  23.086  36.426   3.237
61383W        W26863  37.425  35.580   1.438
61384W        W26864  10.346  23.167  13.858
61385W        W26865   3.927   3.734   1.259
61386W        W26866  41.485   7.340  11.949
61387W        W26867  44.388  38.824  12.469
61388W        W26868  21.563  44.376   0.845
61389W        W26869  14.597  16.085  11.018
61390W        W26870   9.841  14.217  13.912
61391W        W26871  17.127   6.840  14.923
61392W        W26872   7.291  14.262   2.181
61393W        W26873  17.621  39.462   3.338
61394W        W26874   1.960   9.351   1.231
61395W        W26875  32.446  25.073  11.929
61396W        W26876   4.238  19.186   2.826
61397W        W26877  41.790  12.815  13.875
61398W        W26878  33.491  29.001  13.387
61399W        W26879  19.669   0.977   1.350
61400W        W26880  37.385  24.176   3.190
61401W        W26881  33.517  35.104   0.921
61402W        W26882   6.693  41.357  10.444
61403W        W26883   1.739  26.127   4.266
61404W        W26884  37.578   4.298  11.414
61405W        W26885  29.129  36.096  10.919
61406W        W26886  20.697  23.589   2.723
61407W        W26887  16.625  43.424  14.316
61408W        W26888  20.078  28.125   4.646
61409W        W26889   6.845  34.608   2.208
61410W        W26890  12.837  28.942  12.955
61411W        W26891   6.891  26.683  11.466
61412W        W26892  26.080  12.665   4.767
61413W        W26893   3.724  26.170  12.892
61414W        W26894   4.789  26.116   5.180
61415W        W26895  14.644  13.347   1.291
61416W        W26896   7.765  40.363  13.424
61417W        W26897  25.092  14.709   2.775
61418W        W26898  14.828  26.663   1.242
61419W        W26899  18.201  15.273   0.939
61420W        W26900   7.754   7.309  10.064
61421W        W26901  20.635   0.408   9.932
61422W        W26902  24.117   3.793   3.779
61423W        W26903   1.395   0.373   1.752
61424W        W26904  40.434  12.162  13.944
61425W        W26905   7.375   7.666  10.503
61426W        W26906  14.815   9.744  12.889
61427W        W26907  29.555  10.363  10.975
61428W        W26908  32.889   6.902   1.764
61429W        W26909  15.693  32.591   1.218
61430W        W26910  12.160  30.605   1.777
61431W        W26911  23.580  29.081  13.952
61432W        W26912  22.225  26.194  10.977
61433W        W26913   1.788  19.225  12.013
61434W        W26914  38.069   9.797  13.810
61435W        W26915  12.737  13.161  12.897
61436W        W26916  40.887   7.871   2.415
61437W        W26917  10.276  41.028   3.856
61438W        W26918  38.850   4.928   5.260
61439W        W26919  29.026  24.125   3.754
61440W        W26920  35.988  43.986  13.048
61441W        W26921   9.747   9.820   4.773
61442W        W26922  43.365  43.271   3.322
61443W        W26923  10.184  36.903  10.934
61444W        W26924   1.783   8.399  14.936
61445W        W26925  34.586  15.585  14.965
61446W        W26926  26.661  42.474   0.899
61447W        W26927  41.459  36.440  10.513
61448W        W26928  43.021  18.659  12.031
61449W        W26929  16.748  14.320   0.369
61450W        W26930  29.644  41.996   4.257
61451W        W26931   4.732  10.843   2.790
61452W        W26932  26.615  37.909   2.409
61453W        W26933  29.133  21.538  12.830
61454W        W26934  22.227  25.139   3.801
61455W        W26935  27.944  30.136  11.515
61456W        W26936  34.586  20.715  12.987
61457W        W26937   4.787  25.066   0.784
61458W        W26938  19.066   8.393  14.426
61459W        W26939  22.026   9.150  13.952
61460W        W26940  38.032   9.680   4.240
61461W        W26941  23.661  29.440  14.313
61462W        W26942  32.592  33.960  14.401
61463W        W26943   0.451  19.641  12.933
61464W        W26944  12.849  40.485   0.448
61465W        W26945  15.325  18.705  12.564
61466W        W26946  43.378   0.810   1.354
61467W        W26947  34.090  16.593   3.231
61468W        W26948  10.202  34.594   0.933
61469W        W26949  40.441  17.778   2.866
61470W        W26950  18.787  15.810  12.456
61471W        W26951  23.524  25.206   4.175
61472W        W26952  29.468  25.706   1.730
61473W        W26953   1.803  39.357   4.141
61474W        W26954  29.446  44.398   3.195
61475W        W26955   0.380  31.589   2.865
61476W        W26956  25.606  34.984  11.857
61477W        W26957  11.189  29.593   4.763
61478W        W26958  20.040  41.951   2.732
61479W        W26959  41.410  19.073   2.298
61480W        W26960  36.018   6.317  10.507
61481W        W26961  14.834  29.651   3.157
61482W        W26962  22.560   5.788  12.919
61483W        W26963  17.702  17.769  12.571
61484W        W26964   9.715  35.573  14.401
61485W        W26965  11.798  43.494  11.425
61486W        W26966  22.618  32.923   2.328
61487W        W26967  29.948  24.627   3.814
61488W        W26968  16.142  43.823   4.721
61489W        W26969  24.213  25.469  13.539
61490W        W26970  28.444  18.604  11.919
61491W        W26971  18.237  37.469   5.180
61492W        W26972  33.007  28.991   1.759
61493W        W26973   8.199  33.459  12.571
61494W        W26974  22.607  27.683   1.241
61495W        W26975  42.855  41.863  12.879
61496W        W26976  44.270   7.892  11.533
61497W        W26977  29.082   7.863   1.742
61498W        W26978  27.533   8.281   2.344
61499W        W26979  37.873  44.759  11.878
61500W        W26980  18.686  10.326  13.373
61501W        W26981  43.953  12.774  12.414
61502W        W26982  37.357  25.985   4.660
61503W        W26983   7.380   8.836   0.443
61504W        W26984  11.210  25.183  11.026
61505W        W26985  33.548  38.051   4.673
61506W        W26986  13.771  20.741  11.604
61507W        W26987   3.898  42.827   3.686
61508W        W26988  13.723   2.379   0.468
61509W        W26989  10.785  14.227  14.812
61510W        W26990  27.127  10.789   1.329
61511W        W26991  36.896   6.285   0.323
61512W        W26992  19.740  11.136  10.636
61513W        W26993  25.020  36.429  11.454
61514W        W26994  24.068  33.456   1.444
61515W        W26995  36.885   4.813   4.700
61516W        W26996  34.481   6.338  14.030
61517W        W26997  35.905   8.203  11.025
61518W        W26998   4.814   5.750  12.481
61519W        W26999   7.397  38.950  14.020
61520W        W27000  41.491  27.636   2.285
61521W        W27001  16.733  11.267  11.866
61522W        W27002  21.112  33.994   2.723
61523W        W27003   2.339  24.048  11.970
61524W        W27004  43.298  36.021   3.317
61525W        W27005  35.582  11.274   3.634
61526W        W27006  16.706  35.540  12.966
61527W        W27007  43.476  35.470   1.215
61528W        W27008   6.304   3.810  12.976
61529W        W27009   9.815  32.591   2.718
61530W        W27010   2.231  28.006  12.978
61531W        W27011  21.146  21.219  13.310
61532W        W27012  42.515   5.817   0.284
61533W        W27013  44.325  38.500  12.904
61534W        W27014   8.659  27.959   3.697
61535W        W27015  42.880  40.334  14.506
61536W        W27016   6.421   1.785  13.903
61537W        W27017  43.868  38.404  11.424
61538W        W27018   7.842  26.624  11.938
61539W        W27019  40.311  19.772  14.335
61540W        W27020  22.556  29.160   4.796
61541W        W27021   8.381  18.075   4.626
61542W        W27022  25.679  26.153  14.023
61543W        W27023  27.511  23.083   1.381
61544W        W27024  31.522  34.910  14.399
61545W        W27025  25.602  41.921  13.380
61546W        W27026  37.923  13.674  14.309
61547W        W27027  32.104  14.604   3.196
61548W        W27028  14.785   5.218   0.735
61549W        W27029  43.376  16.092  11.095
61550W        W27030   3.333   5.898  11.941
61551W        W27031  24.636   5.781  12.989
61552W        W27032   0.749   9.370   4.273
61553W        W27033  39.502  40.305  14.806
61554W        W27034  22.040  28.120  13.961
61555W        W27035   8.860   1.417   1.849
61556W        W27036  18.788  30.124  11.398
61557W        W27037  40.410  40.370   2.739
61558W        W27038  34.053  34.045  11.922
61559W        W27039  27.179  38.366  14.434
61560W        W27040  21.610  27.175   1.335
61561W        W27041  23.513   7.407   0.367
61562W        W27042  40.925  44.757  10.965
61563W        W27043   9.232   2.784   2.873
61564W        W27044   3.295  24.548   3.805
61565W        W27045   5.788  13.318   0.456
61566W        W27046  37.833  23.523  11.495
61567W        W27047  25.528   2.833  10.550
61568W        W27048  10.252   5.249  12.400
61569W        W27049  11.209   6.233   2.686
61570W        W27050   9.822   7.415   3.640
61571W        W27051   0.940  34.055  14.965
61572W        W27052  26.492  28.442   1.264
61573W        W27053  16.688  25.192   0.278
61574W        W27054   9.234  22.023   1.229
61575W        W27055  14.134  40.371   0.821
61576W        W27056  16.124  42.397  13.045
61577W        W27057  21.538  19.658   0.835
61578W        W27058  18.790   9.683  13.913
61579W        W27059  12.623  15.182   1.429
61580W        W27060   3.869  22.521   4.336
61581W        W27061  36.357   3.368   1.269
61582W        W27062  15.623   0.978   4.179
61583W        W27063  41.401  19.603   3.297
61584W        W27064  32.558  35.452  13.331
61585W        W27065  33.886   0.883  14.011
61586W        W27066   9.861  34.518   1.922
61587W        W27067  29.530  34.875  13.474
61588W        W27068  10.828   0.454  14.313
61589W        W27069  18.252   2.778  13.372
61590W        W27070  44.991  22.723   0.277
61591W        W27071  35.430  30.441  12.449
61592W        W27072  43.285   3.733   4.124
61593W        W27073   5.420  44.772  12.971
61594W        W27074   9.240  36.592   0.805
61595W        W27075  36.365  39.836   3.739
61596W        W27076   5.349  13.193  13.502
61597W        W27077  38.869   5.327   1.884
61598W        W27078  30.004  28.114  13.485
61599W        W27079  13.239  23.028  13.505
61600W        W27080  36.427  27.158  10.986
61601W        W27081   1.849   0.427   1.420
61602W        W27082  44.483   7.170  12.977
61603W        W27083  21.548   8.748  13.478
61604W        W27084  30.659  25.062  13.355
61605W        W27085  18.283  40.319  13.493
61606W        W27086  10.642  25.712  14.458
61607W        W27087  33.454   6.762   4.327
61608W        W27088  23.991  19.189   2.335
61609W        W27089  17.677  28.483   3.867
61610W        W27090  39.316  26.051   4.815
61611W        W27091  26.664  32.113  14.493
61612W        W27092  41.508   0.482   0.806
61613W        W27093  38.941  23.198  14.794
61614W        W27094  24.491  43.994   0.404
61615W        W27095  13.311  26.139   0.729
61616W        W27096  23.658  38.537   4.222
61617W        W27097  14.759  29.062  13.500
61618W        W27098  32.047   1.907  12.520
61619W        W27099  38.447  37.556  13.986
61620W        W27100  24.691  30.659   0.755
61621W        W27101  30.463  17.139   2.193
61622W        W27102  41.524  21.127  11.074
61623W        W27103  42.927   4.391   2.725
61624W        W27104  43.927  31.000   2.256
61625W        W27105  34.972  19.738   4.694
61626W        W27106  15.801  36.942  14.800
61627W        W27107  42.489   0.368   3.198
61628W        W27108  19.148  20.207  12.959
61629W        W27109   6.376  41.465   2.414
61630W        W27110  42.889  13.608   4.326
61631W        W27111  27.004   2.245   2.205
61632W        W27112  39.493  24.029   0.341
61633W        W27113  36.855  44.942  10.625
61634W        W27114  33.944  23.123  10.602
61635W        W27115  27.637   1.802   2.836
61636W        W27116   1.358  30.610   1.319
61637W        W27117  41.790  30.114  11.896
61638W        W27118   2.234   2.866  13.961
61639W        W27119  26.127  31.934   2.308
61640W        W27120  33.878  19.653  11.873
61641W        W27121  39.926  13.142   4.818
61642W        W27122   0.793  36.921  14.352
61643W        W27123   1.775  33.499   0.441
61644W        W27124  20.753  42.423   4.314
61645W        W27125  37.435  30.992   3.646
61646W        W27126  26.179  18.068   4.327
61647W        W27127   8.368  33.463  11.475
61648W        W27128   7.829  13.229   4.655
61649W        W27129  39.856  12.142  10.634
61650W        W27130  41.338  34.081  14.326
61651W        W27131   4.762   9.358   1.323
61652W        W27132  21.550  35.913  14.789
61653W        W27133  16.622  28.473  12.886
61654W        W27134  17.687   8.395  11.032
61655W        W27135   6.299  31.028  10.428
61656W        W27136  23.611  18.682   4.258
61657W        W27137  37.964   1.741   1.756
61658W        W27138  38.991  44.323   3.851
61659W        W27139  10.305  39.326  12.369
61660W        W27140  27.197   2.319  11.466
61661W        W27141  16.236  20.751   4.323
61662W        W27142  22.667  12.140   2.360
61663W        W27143  19.626   3.837  11.104
61664W        W27144  42.910  19.078  11.436
61665W        W27145  20.701   0.396   5.620
61666W        W27146   9.706  23.555   0.871
61667W        W27147  34.953   3.255  12.376
61668W        W27148  29.601   2.416   1.300
61669W        W27149  34.446   0.264  14.942
61670W        W27150   9.686   2.435  11.478
61671W        W27151  35.882   4.250  13.933
61672W        W27152  38.407  28.994   0.951
61673W        W27153  27.986   8.794   0.378
61674W        W27154  35.939   6.255   1.444
61675W        W27155  17.121  26.144   3.834
61676W        W27156   6.742  44.932   3.765
61677W        W27157  16.174  18.227   1.777
61678W        W27158  13.837  30.615  13.046
61679W        W27159  15.707  14.256   2.678
61680W        W27160  24.562  38.931  13.483
61681W        W27161  42.994  11.747   5.150
61682W        W27162  26.096  39.919   4.119
61683W        W27163   0.912  12.357  11.534
61684W        W27164  24.155  26.082   3.274
61685W        W27165   3.741  37.087  14.334
61686W        W27166  42.797  10.827  14.859
61687W        W27167  10.725  14.716  13.532
61688W        W27168   0.421   8.654  14.381
61689W        W27169  15.744  22.057  13.918
61690W        W27170   1.378  29.006  11.081
61691W        W27171  22.044  13.674  14.004
61692W        W27172  26.694  29.970  12.456
61693W        W27173   5.757  33.015   2.240
61694W        W27174  17.635  12.240   0.322
61695W        W27175   5.264  43.275  14.384
61696W        W27176  20.077  39.430   1.224
61697W        W27177   5.779  42.449  10.542
61698W        W27178  19.208  31.567   1.845
61699W        W27179  31.612  32.420   3.207
61700W        W27180  14.811   6.260   0.278
61701W        W27181  11.714  34.917  13.389
61702W        W27182  25.031  43.859   4.243
61703W        W27183   3.335  40.039  11.407
61704W        W27184   0.978  41.009  10.631
61705W        W27185  42.348  22.250  11.420
61706W        W27186  16.738   2.441  12.566
61707W        W27187  30.500   9.798  11.556
61708W        W27188  31.452  10.194   1.807
61709W        W27189  24.207  23.551   2.746
61710W        W27190  34.938  38.020  10.581
61711W        W27191   4.897  30.942  10.581
61712W        W27192  34.088  44.399   2.802
61713W        W27193  40.802  13.689  13.961
61714W        W27194  25.696  24.614  14.785
61715W        W27195  26.560  34.424   1.733
61716W        W27196  22.578  32.051   0.346
61717W        W27197  12.158  11.134  10.983
61718W        W27198  25.075   4.426   0.766
61719W        W27199  38.343  10.692  12.873
61720W        W27200   2.354  44.864   4.115
61721W        W27201  18.169  33.973   3.798
61722W        W27202  16.084  10.799   3.791
61723W        W27203  17.129   1.340  14.006
61724W        W27204  28.067  11.793  10.904
61725W        W27205  38.843  39.900  12.536
61726W        W27206  31.048  24.189   2.275
61727W        W27207  12.264  44.821  10.495
61728W        W27208  35.588  34.575  13.836
61729W        W27209  15.119  36.519  14.878
61730W        W27210  25.514  11.364  14.453
61731W        W27211  27.958   7.740  10.069
61732W        W27212  22.099  41.475  12.913
61733W        W27213   8.709  19.143   4.678
61734W        W27214  26.022  37.444  14.803
61735W        W27215  29.175   0.407  13.472
61736W        W27216  22.747   0.776   2.322
61737W        W27217  16.312  19.228   2.864
61738W        W27218  44.285  33.916   0.453
61739W        W27219   8.226  38.987  14.890
61740W        W27220  43.823  34.879   3.791
61741W        W27221   9.278  38.944   1.391
61742W        W27222  12.160   1.947  14.286
61743W        W27223  26.691  24.204  11.111
61744W        W27224  40.435  33.057  12.987
61745W        W27225  26.698  15.676  14.391
61746W        W27226  28.038  32.437  10.557
61747W        W27227  19.094  38.546  14.923
61748W        W27228  16.223   0.491   0.371
61749W        W27229  44.467  27.001  14.370
61750W        W27230  15.675  11.719   4.652
61751W        W27231  20.580  29.654  11.992
61752W        W27232  44.497  39.901  11.866
61753W        W27233  28.171   9.324   3.183
61754W        W27234   1.348  19.180  10.499
61755W        W27235   7.322  10.138   1.868
61756W        W27236   9.719  32.432   3.835
61757W        W27237  40.445  33.446  12.015
61758W        W27238  20.246  28.463  13.794
61759W        W27239  15.692  31.139  14.276
61760W        W27240  39.957  39.497   4.206
61761W        W27241  12.738  14.693   2.760
61762W        W27242  14.733  11.209   3.244
61763W        W27243  10.837  11.686  11.098
61764W        W27244   6.384  28.132  12.528
61765W        W27245  19.570  42.881   0.384
61766W        W27246  35.361  21.173   1.337
61767W        W27247  20.556  31.066  13.794
61768W        W27248  26.513  32.520   1.755
61769W        W27249  44.795  26.098   1.745
61770W        W27250  29.444  28.039   0.381
61771W        W27251   7.262   9.217  12.977
61772W        W27252  29.480  30.068  11.931
61773W        W27253  21.590  13.821   3.286
61774W        W27254  43.911  19.761  13.456
61775W        W27255  43.930  23.625   2.388
61776W        W27256   4.335  42.388   0.335
61777W        W27257  31.053  37.892   5.246
61778W        W27258  43.838  28.442   2.402
61779W        W27259  34.470  25.975   0.760
61780W        W27260   0.263   3.281  13.858
61781W        W27261  17.188  33.465   9.513
61782W        W27262  31.958  21.079  13.487
61783W        W27263   5.824  27.193  12.000
61784W        W27264   0.849   0.395  10.642
61785W        W27265  44.322  11.768   2.261
61786W        W27266  37.397   3.904   4.150
61787W        W27267  15.591  29.071  13.352
61788W        W27268   8.720   3.377  11.875
61789W        W27269  23.709  41.397  12.514
61790W        W27270  42.928  32.549   3.254
61791W        W27271  38.430   0.459  14.308
61792W        W27272   1.938   4.307  14.277
61793W        W27273  17.284   0.859  13.844
61794W        W27274  36.875  38.371  14.854
61795W        W27275  20.658  24.188   4.341
61796W        W27276  17.699  30.036   0.780
61797W        W27277  17.593  23.599  14.948
61798W        W27278  33.410  18.161  11.110
61799W        W27279  25.202  41.507  12.528
61800W        W27280  36.094  44.328   1.389
61801W        W27281   8.320  14.183   0.899
61802W        W27282  34.938  40.814  10.601
61803W        W27283  34.057  36.074   1.445
61804W        W27284  12.298  11.176   1.247
61805W        W27285  21.579  16.254  11.911
61806W        W27286   3.949   4.417  14.904
61807W        W27287  12.241  28.970  11.915
61808W        W27288  31.607  32.912   2.759
61809W        W27289  13.650  38.510  11.460
61810W        W27290   1.388  23.221   1.825
61811W        W27291  33.924  19.257  12.000
61812W        W27292  34.562  12.784  14.283
61813W        W27293   5.883  36.554   1.737
61814W        W27294  27.626   2.950   4.344
61815W        W27295  35.478   4.254   1.722
61816W        W27296  32.491   4.724   3.319
61817W        W27297  12.748  18.144  12.886
61818W        W27298   4.310   5.347   0.334
61819W        W27299  10.208  19.600  14.283
61820W        W27300  15.191   8.346  14.785
61821W        W27301   3.257  42.439   2.405
61822W        W27302  39.542  10.800   4.210
61823W        W27303   5.378  17.798   3.156
61824W        W27304  27.137   0.953  11.510
61825W        W27305  15.653  17.207   3.161
61826W        W27306  32.066  37.832   1.835
61827W        W27307  44.763   3.803  10.456
61828W        W27308  41.530  44.388  12.944
61829W        W27309  37.522  39.036  13.956
61830W        W27310  30.094  17.236  10.406
61831W        W27311   1.963  21.114  14.817
61832W        W27312  37.840   5.781  12.839
61833W        W27313  30.450  18.259  11.559
61834W        W27314  24.611  22.247  11.046
61835W        W27315   4.940  12.802  12.089
61836W        W27316  39.822  10.863  10.981
61837W        W27317   8.872   5.900   0.256
61838W        W27318  40.903  26.564   0.892
61839W        W27319  44.455  34.402   2.269
61840W        W27320  10.825  20.532   1.853
61841W        W27321  39.968  40.543  14.360
61842W        W27322  35.458  24.082  13.935
61843W        W27323  30.526   4.221   1.241
61844W        W27324  24.540  35.365  11.404
61845W        W27325   6.277  35.988  10.556
61846W        W27326  18.763  39.838  10.553
61847W        W27327   8.307  10.193   1.389
61848W        W27328  24.202   6.265  11.510
61849W        W27329  15.284   9.870  11.081
61850W        W27330   4.764   9.711   0.406
61851W        W27331  30.449  24.158  12.970
61852W        W27332  27.041  30.503  14.292
61853W        W27333   0.325  42.007   1.393
61854W        W27334   5.239  32.015  12.051
61855W        W27335  36.426   2.943  10.425
61856W        W27336  19.721  42.377   1.882
61857W        W27337  10.226  12.214   1.768
61858W        W27338  32.030  25.125  14.342
61859W        W27339  34.045  11.153  10.551
61860W        W27340   3.757   1.295   0.398
61861W        W27341   0.304  29.627  10.928
61862W        W27342  39.450  17.564   1.867
61863W        W27343  22.558  19.554  11.031
61864W        W27344  20.247  26.614   0.727
61865W        W27345  19.232  23.140   3.288
61866W        W27346   7.824  21.085  14.293
61867W        W27347  28.020   5.753  11.536
61868W        W27348   5.300   6.787   3.384
61869W        W27349   6.274  30.975   2.194
61870W        W27350  14.217  25.600  13.485
61871W        W27351  19.697   5.850   0.772
61872W        W27352  14.605  25.175   0.802
61873W        W27353  29.107  29.958  12.838
61874W        W27354  24.977  28.474  13.017
61875W        W27355   3.350  30.422   4.331
61876W        W27356  22.058   6.728   2.278
61877W        W27357  17.287  20.683   3.757
61878W        W27358   0.406  10.155  13.810
61879W        W27359  22.075  15.599  13.041
61880W        W27360  14.664  32.972  11.515
61881W        W27361  32.520  10.271  10.158
61882W        W27362  43.837  41.467   2.273
61883W        W27363  43.980   0.370  11.858
61884W        W27364  42.988  26.670  11.446
61885W        W27365  31.983  14.174   4.749
61886W        W27366  35.990  19.742  12.415
61887W        W27367   9.309  17.734  13.888
61888W        W27368  27.105  29.616  14.406
61889W        W27369  35.049  40.903   2.349
61890W        W27370  41.293  39.832  13.308
61891W        W27371   5.865  18.128  12.916
61892W        W27372  42.478  41.896  10.904
61893W        W27373  43.273  27.646  12.552
61894W        W27374  10.335   4.282   1.362
61895W        W27375  20.164  20.622  10.522
61896W        W27376  10.158  23.039  13.338
61897W        W27377  33.039   9.680   1.706
61898W        W27378  35.044  41.910   3.833
61899W        W27379  27.138   3.928   0.734
61900W        W27380  34.025  38.352  13.341
61901W        W27381  12.694  35.028  14.398
61902W        W27382  12.297   6.402  11.957
61903W        W27383   1.935  17.225  12.544
61904W        W27384  16.191  27.975   2.287
61905W        W27385  36.086  21.732  11.501
61906W        W27386  31.932  38.992   4.333
61907W        W27387  24.715  43.912  11.968
61908W        W27388  22.548   4.332   3.671
61909W        W27389  25.171  39.514   3.682
61910W        W27390   3.818  31.019   1.764
61911W        W27391  33.481  37.408   4.680
61912W        W27392  43.972  18.684   1.406
61913W        W27393  27.613  37.404   2.662
61914W        W27394  22.248  40.340   1.736
61915W        W27395   6.302  41.005   4.619
61916W        W27396  11.802  26.999   4.676
61917W        W27397  26.586  27.639  14.005
61918W        W27398  18.119  22.199   2.779
61919W        W27399  28.485  15.237  14.292
61920W        W27400  37.341   5.747  11.984
61921W        W27401  29.100  17.190  12.580
61922W        W27402  30.626  21.174  12.401
61923W        W27403  17.708   6.817  13.533
61924W        W27404  27.039  13.628   0.891
61925W        W27405   5.196  23.007   0.319
61926W        W27406  28.989  31.026   4.249
61927W        W27407  17.726   4.356  13.518
61928W        W27408  19.613  28.539   3.637
61929W        W27409  14.107  18.761   4.241
61930W        W27410   1.821  24.529   0.786
61931W        W27411  36.044  18.628   1.876
61932W        W27412  38.400  36.053   3.710
61933W        W27413  22.195  26.199  13.428
61934W        W27414  22.597  35.984   2.291
61935W        W27415  40.515   1.865  11.034
61936W        W27416  13.731  37.978   0.910
61937W        W27417  29.061  14.142   1.361
61938W        W27418  19.088   9.164   4.662
61939W        W27419  13.249   4.327  14.456
61940W        W27420  23.026   2.795   2.247
61941W        W27421  13.744   0.322   4.297
61942W        W27422  11.340  41.833  12.417
61943W        W27423  37.999  20.256   4.816
61944W        W27424  20.610  32.997   0.873
61945W        W27425   8.702   9.793  14.813
61946W        W27426   4.255  26.153   0.791
61947W        W27427  14.106   5.330  13.924
61948W        W27428   6.904  20.561  11.003
61949W        W27429  32.058  41.427   0.364
61950W        W27430  18.746  17.279  13.947
61951W        W27431  31.540  40.375   0.308
61952W        W27432  23.989  41.400  12.503
61953W        W27433  29.139  21.624   1.889
61954W        W27434   9.269  31.067   2.307
61955W        W27435  10.330  29.131  12.022
61956W        W27436  43.332  26.999   3.700
61957W        W27437   1.912  38.480   2.278
61958W        W27438  29.154  27.011   1.320
61959W        W27439  10.657  17.779  12.921
61960W        W27440  41.513  28.183   3.864
61961W        W27441  44.496   5.271   2.215
61962W        W27442  14.781  23.149   1.718
61963W        W27443  17.172  14.751   2.245
61964W        W27444  12.657  12.676   1.441
61965W        W27445  38.901  23.066   2.252
61966W        W27446  17.139  20.248   0.308
61967W        W27447   5.428  20.526  13.855
61968W        W27448  31.104  39.354  12.939
61969W        W27449  30.030   4.394   0.262
61970W        W27450  17.633  28.503   4.135
61971W        W27451  27.643  40.907  13.330
61972W        W27452  39.377  23.650  10.437
61973W        W27453   4.847  19.252  12.442
61974W        W27454  33.874  34.469  10.523
61975W        W27455  41.519  33.432  11.492
61976W        W27456  39.947   4.736   2.900
61977W        W27457  26.968  14.330  11.952
61978W        W27458  39.532   3.825   5.268
61979W        W27459  42.802  34.875   1.711
61980W        W27460  33.433  19.650  10.117
61981W        W27461  14.656  18.598   3.819
61982W        W27462  21.120  44.832  12.043
61983W        W27463  40.440  12.277   4.321
61984W        W27464  42.892  39.318   4.722
61985W        W27465  37.446  26.132  10.943
61986W        W27466   7.175   8.391   0.799
61987W        W27467   3.895   3.364   2.225
61988W        W27468  37.525   1.417   1.894
61989W        W27469  26.108  33.587   4.117
61990W        W27470  15.661  28.444   3.722
61991W        W27471   2.809   1.811  10.456
61992W        W27472  18.726  33.942  11.436
61993W        W27473   2.462  32.549  12.081
61994W        W27474   9.726  35.359  12.425
61995W        W27475  33.945  25.688   0.895
61996W        W27476  29.066  37.518  11.932
61997W        W27477  22.677  20.759   3.378
61998W        W27478  30.964  19.157   3.274
61999W        W27479  17.296  12.151   1.755
62000W        W27480  26.686  12.846   0.847
62001W        W27481  12.151  22.189  12.433
62002W        W27482  33.387  19.567   0.878
62003W        W27483  40.815  24.619   2.888
62004W        W27484   6.190  32.539  14.911
62005W        W27485  16.708  26.633   0.855
62006W        W27486  13.638  14.106   1.388
62007W        W27487  31.965  44.979   2.227
62008W        W27488  31.104  34.536   4.838
62009W        W27489  38.899   2.956   0.944
62010W        W27490  34.930   3.450   4.210
62011W        W27491   1.257  19.197   0.279
62012W        W27492  12.277  13.601  11.896
62013W        W27493  33.491  31.981  11.932
62014W        W27494  14.309   7.216   3.237
62015W        W27495  43.293  10.369   3.157
62016W        W27496  13.725  29.549  14.901
62017W        W27497   4.380   2.889   3.385
62018W        W27498  34.549  40.483   2.803
62019W        W27499  43.765  41.850   3.738
62020W        W27500   2.399  41.354  12.839
62021W        W27501  13.341  13.802   9.498
62022W        W27502  28.120   0.378  11.514
62023W        W27503  26.048  42.947  12.061
62024W        W27504   4.913  26.605  11.880
62025W        W27505  32.059  21.721  10.900
62026W        W27506  18.726  33.977  14.334
62027W        W27507  23.683  24.212  11.582
62028W        W27508  13.256  32.593   0.954
62029W        W27509  21.574   2.379   4.620
62030W        W27510  41.404  24.637   4.704
62031W        W27511  18.703  16.317   3.251
62032W        W27512   8.879  31.526   0.246
62033W        W27513   1.309  20.753  13.033
62034W        W27514  14.122  31.106  12.407
62035W        W27515  40.800  19.167   0.294
62036W        W27516  11.684   9.374   2.292
62037W        W27517  39.000  21.147  11.510
62038W        W27518   1.413   5.309  14.938
62039W        W27519  26.473  35.976   1.337
62040W        W27520  23.735  43.320   2.331
62041W        W27521  23.548  27.581   1.366
62042W        W27522  39.431   1.479  10.636
62043W        W27523  17.200  12.781  11.016
62044W        W27524  42.864  41.464   4.253
62045W        W27525  26.478  10.263   3.691
62046W        W27526  24.673  17.609  11.009
62047W        W27527  12.824  16.147   4.288
62048W        W27528  18.772  21.144   3.835
62049W        W27529   7.838  16.293   0.814
62050W        W27530  39.451   5.729  11.397
62051W        W27531  15.753  27.495   0.843
62052W        W27532   6.779  42.956   4.788
62053W        W27533  23.030  31.630  11.930
62054W        W27534   9.887  31.038   0.862
62055W        W27535  17.297   5.424  12.938
62056W        W27536   2.918  22.104  13.511
62057W        W27537  34.890  37.571  10.079
62058W        W27538  24.210  30.515  12.410
62059W        W27539  35.951  25.037   1.352
62060W        W27540  16.274  29.606   1.255
62061W        W27541  23.684  22.556   0.470
62062W        W27542  37.516  39.359   3.169
62063W        W27543  33.041  35.529  10.942
62064W        W27544  12.645  26.541  10.982
62065W        W27545  18.578   7.669  13.478
62066W        W27546   0.380   3.336  10.598
62067W        W27547   7.362  17.062   2.250
62068W        W27548  20.754  41.354  14.311
62069W        W27549  38.527  17.635   0.379
62070W        W27550  14.811   0.372  13.846
62071W        W27551  43.482   3.871   1.900
62072W        W27552  41.366   5.261   1.389
62073W        W27553   3.270  37.532  12.839
62074W        W27554   9.235  22.096   2.283
62075W        W27555  15.813  35.079  12.497
62076W        W27556  33.381   1.970  12.938
62077W        W27557  43.480  38.330  14.850
62078W        W27558  31.439  14.181   1.923
62079W        W27559  39.011  43.465   4.779
62080W        W27560   3.355  33.529  11.505
62081W        W27561  13.772  21.634  12.042
62082W        W27562   9.326  32.114   3.809
62083W        W27563  40.463   1.777  13.026
62084W        W27564   1.774  42.958   4.807
62085W        W27565  20.683  12.848   3.244
62086W        W27566  11.625  12.681  10.969
62087W        W27567  27.120  12.655   2.289
62088W        W27568   6.837  36.092  13.869
62089W        W27569  38.480  33.478   1.745
62090W        W27570  15.818  31.409  11.501
62091W        W27571  33.020   4.871   1.866
62092W        W27572  26.560  32.048  13.491
62093W        W27573  27.581   6.814  12.481
62094W        W27574  25.527  35.460   3.148
62095W        W27575  37.963  25.990   2.796
62096W        W27576  26.474  32.428  13.040
62097W        W27577  40.477  19.547   0.904
62098W        W27578  43.978   3.841  12.467
62099W        W27579  41.043   8.660  14.995
62100W        W27580   0.928  26.069  11.960
62101W        W27581  10.270  33.881  11.539
62102W        W27582  10.190  15.718  10.602
62103W        W27583  39.847  21.109  11.931
62104W        W27584  22.589  32.552   1.705
62105W        W27585  12.242  29.176  11.050
62106W        W27586  27.137  21.043  14.920
62107W        W27587  28.620   5.241  13.445
62108W        W27588   6.903  29.937  12.369
62109W        W27589   5.264  13.819   2.801
62110W        W27590  23.183  23.698  10.966
62111W        W27591  14.695  30.654  10.467
62112W        W27592   1.286  21.697   0.393
62113W        W27593  40.924  25.471   0.426
62114W        W27594  25.971  33.582   2.264
62115W        W27595  39.475  19.086  14.481
62116W        W27596   5.226  14.133  10.433
62117W        W27597  15.643   9.756   2.248
62118W        W27598  12.272  19.572  13.882
62119W        W27599  11.662  41.444  11.002
62120W        W27600  35.110  13.262  10.924
62121W        W27601  43.765  27.465   0.808
62122W        W27602  33.543  25.992   0.880
62123W        W27603  39.491  15.091  13.888
62124W        W27604   9.217  17.635  11.537
62125W        W27605  19.591  32.549  12.936
62126W        W27606   8.684  37.362  14.007
62127W        W27607  39.338  33.607  14.919
62128W        W27608   2.236   3.335  10.437
62129W        W27609  33.929  20.239  14.324
62130W        W27610  22.050  31.013  11.127
62131W        W27611  37.964  16.207   3.823
62132W        W27612   3.409  30.986  13.905
62133W        W27613  32.931  11.808  14.331
62134W        W27614  15.586   9.366   2.861
62135W        W27615  17.260  28.942   4.291
62136W        W27616  19.123  38.355  14.384
62137W        W27617  37.888   0.289   1.437
62138W        W27618  16.162  24.198  12.576
62139W        W27619  29.475  32.907  11.484
62140W        W27620  29.147  22.648  13.019
62141W        W27621   3.861  41.855  10.645
62142W        W27622  33.936  14.666   2.873
62143W        W27623  19.585  38.366  10.892
62144W        W27624  24.134  30.136  10.561
62145W        W27625  40.856   0.434  14.948
62146W        W27626  34.939  10.150   4.213
62147W        W27627  44.837   7.189   4.343
62148W        W27628   6.682  23.683  11.416
62149W        W27629  21.142   9.852  12.518
62150W        W27630  39.318  35.525   2.708
62151W        W27631  36.875  17.168  12.968
62152W        W27632  23.654  26.700  10.935
62153W        W27633  15.644  28.582   0.441
62154W        W27634  21.562  40.514  14.495
62155W        W27635   4.275  36.841  12.350
62156W        W27636  40.984  31.060  15.000
62157W        W27637  19.770  21.564  13.382
62158W        W27638  44.345   3.270  12.373
62159W        W27639  36.589   0.774  10.492
62160W        W27640  26.510   4.791  12.544
62161W        W27641   4.338  43.872   0.732
62162W        W27642  38.874   4.445  10.110
62163W        W27643  16.591  25.039  13.893
62164W        W27644   0.438  43.907  12.519
62165W        W27645  28.529   8.837   1.870
62166W        W27646  20.227  30.618  10.005
62167W        W27647  26.047  42.833  11.555
62168W        W27648   3.751  36.502   4.343
62169W        W27649  36.559  35.500   0.738
62170W        W27650  35.915   8.721   3.688
62171W        W27651  27.533  29.436   1.220
62172W        W27652  30.592   1.437   3.651
62173W        W27653  41.338  40.458   5.144
62174W        W27654   5.385  23.639  12.996
62175W        W27655  27.968  14.144  12.866
62176W        W27656  29.469  19.152  10.478
62177W        W27657  43.352  19.624   1.837
62178W        W27658   4.288  11.829   2.876
62179W        W27659  15.784  27.116   2.263
62180W        W27660  14.712   5.406   1.427
62181W        W27661  25.673  18.242   0.759
62182W        W27662   0.960   1.279   1.896
62183W        W27663  44.311   6.732   1.389
62184W        W27664  35.098   5.344  13.025
62185W        W27665  21.246  19.155  14.510
62186W        W27666  37.912   2.947   4.766
62187W        W27667  36.547   6.398  11.576
62188W        W27668  26.182   3.351  11.416
62189W        W27669  25.193  32.453  14.860
62190W        W27670  20.128  14.652  11.478
62191W        W27671  29.993  39.319   0.314
62192W        W27672   3.380  36.901   1.934
62193W        W27673  38.917  20.583  12.497
62194W        W27674  23.085   8.828  11.382
62195W        W27675  36.399  25.077   0.847
62196W        W27676   4.874  15.325  12.996
62197W        W27677  25.176  20.636  11.611
62198W        W27678  36.574  36.943   2.858
62199W        W27679  23.085  40.986   1.842
62200W        W27680  14.802  21.580   3.702
62201W        W27681  23.020  30.620  11.008
62202W        W27682  23.089  28.677  12.469
62203W        W27683  17.172   3.268   2.746
62204W        W27684  43.458  33.387  11.910
62205W        W27685  24.195  21.222   2.265
62206W        W27686   0.334  25.137   4.838
62207W        W27687  44.395  14.215   2.327
62208W        W27688  40.465  24.086   0.945
62209W        W27689   8.284  12.621   2.710
62210W        W27690  38.895  26.128  13.467
62211W        W27691  25.157  26.561   4.687
62212W        W27692  17.172  27.038  11.956
62213W        W27693  41.520  33.398  14.368
62214W        W27694  42.494  24.481  10.989
62215W        W27695   1.330   8.194   4.707
62216W        W27696   1.395  16.261  10.495
62217W        W27697  12.162   3.862  13.929
62218W        W27698   4.757  14.713   3.363
62219W        W27699  10.139   3.384   0.289
62220W        W27700  27.944   6.425   1.356
62221W        W27701   5.705  26.607   1.762
62222W        W27702   6.336   6.855  10.454
62223W        W27703  10.322   0.427   4.806
62224W        W27704  16.706   9.278   4.743
62225W        W27705  40.033  22.058  13.034
62226W        W27706  30.628  35.493  12.086
62227W        W27707  14.752  11.291   5.705
62228W        W27708  20.639   4.944   4.660
62229W        W27709  43.372   6.771  14.027
62230W        W27710  27.512   5.934  10.640
62231W        W27711  44.378  37.991   0.318
62232W        W27712  37.582   8.864   3.656
62233W        W27713   8.751  22.553   4.196
62234W        W27714   9.315   1.264  14.998
62235W        W27715  24.689   7.288  10.600
62236W        W27716  36.405  41.291  13.884
62237W        W27717   1.310   8.739  13.363
62238W        W27718  25.133  40.480   1.832
62239W        W27719  35.045  11.758   2.206
62240W        W27720  10.769  12.231   1.901
62241W        W27721  43.412  38.869   3.687
62242W        W27722  32.422   8.346   2.884
62243W        W27723  43.900  38.516   0.967
62244W        W27724  15.795   7.763   0.385
62245W        W27725   7.850  13.827  11.955
62246W        W27726  30.495  18.656   3.830
62247W        W27727  35.556  41.018   2.393
62248W        W27728  33.132  11.838  10.428
62249W        W27729   8.272  24.019  11.376
62250W        W27730  31.459  27.520   0.762
62251W        W27731  16.231  16.176   1.313
62252W        W27732  20.605  16.254  12.352
62253W        W27733  42.900  20.655  11.551
62254W        W27734  28.529  17.599   0.762
62255W        W27735  27.090  12.687   4.270
62256W        W27736  27.662  12.678   3.817
62257W        W27737   4.309  12.780   0.410
62258W        W27738   5.832  13.195   1.389
62259W        W27739  27.501  13.738  10.412
62260W        W27740  14.692   1.808   0.360
62261W        W27741  21.651  31.476  10.952
62262W        W27742  33.589  43.981  13.978
62263W        W27743  33.420  23.578  14.021
62264W        W27744  37.923  19.737  10.492
62265W        W27745  41.957  10.168   2.803
62266W        W27746  36.964  41.884   4.775
62267W        W27747  24.113  42.355   1.326
62268W        W27748  20.089  16.287  12.365
62269W        W27749   2.442  43.514   2.668
62270W        W27750  15.099  26.997   4.632
62271W        W27751  21.729  19.169   2.310
62272W        W27752  41.918  22.212   0.840
62273W        W27753  13.810  33.571  12.422
62274W        W27754  37.345  13.622   3.785
62275W        W27755  17.063  32.069   3.289
62276W        W27756  21.666  11.260  10.975
62277W        W27757  39.491   8.234   1.809
62278W        W27758  36.887  12.190   1.719
62279W        W27759  38.564  18.186  11.482
62280W        W27760  31.402  15.216   2.195
62281W        W27761   5.919   8.393  14.457
62282W        W27762  44.443  22.695  12.839
62283W        W27763  27.684   8.255   4.672
62284W        W27764  12.324  21.197  14.332
62285W        W27765  19.171  23.046  12.523
62286W        W27766  33.384  19.620  11.085
62287W        W27767  19.614   5.259   4.756
62288W        W27768  30.576  19.096   2.377
62289W        W27769   9.711   9.179   0.453
62290W        W27770  23.014  21.181   2.410
62291W        W27771  37.002  30.497   0.883
62292W        W27772  29.453   6.741   4.678
62293W        W27773  14.203   5.410   4.682
62294W        W27774  15.308  29.987   3.768
62295W        W27775  26.474  32.566   5.254
62296W        W27776   9.346  38.529   4.759
62297W        W27777  17.756   5.353   2.413
62298W        W27778  23.639  18.635  13.958
62299W        W27779  32.029  17.208  11.058
62300W        W27780  17.203  26.030  12.921
62301W        W27781   5.738  34.967  12.850
62302W        W27782  43.515  11.729  12.408
62303W        W27783   8.377  25.689   3.311
62304W        W27784   5.867  23.674  13.030
62305W        W27785  39.457  13.235  12.855
62306W        W27786  26.973  25.037  14.978
62307W        W27787  33.077  40.037  11.976
62308W        W27788   1.379  33.572   0.934
62309W        W27789  15.673   2.250  12.848
62310W        W27790  19.780  34.441  13.477
62311W        W27791  34.562  21.663   0.837
62312W        W27792  23.104  25.671   2.792
62313W        W27793   0.360  30.112  13.438
62314W        W27794  14.162  31.454   4.682
62315W        W27795   8.887  36.447   3.705
62316W        W27796  24.538  28.645  11.549
62317W        W27797  23.107  26.610   2.880
62318W        W27798   4.729  14.609   0.384
62319W        W27799  36.024  24.156  10.563
62320W        W27800  27.538  30.919  12.557
62321W        W27801  13.748  16.752   3.381
62322W        W27802  27.677  44.842   3.683
62323W        W27803   2.908  21.516  10.912
62324W        W27804  17.627  24.700   4.281
62325W        W27805  29.002  16.198  14.323
62326W        W27806  42.992  11.850   4.677
62327W        W27807   5.764  16.152   2.348
62328W        W27808  34.414   3.828  13.897
62329W        W27809  10.656   3.806   3.676
62330W        W27810   6.713  30.108   3.218
62331W        W27811  28.136  24.633   2.710
62332W        W27812  17.180   9.273   3.332
62333W        W27813   1.355  23.625   1.439
62334W        W27814  31.636   6.920   3.830
62335W        W27815  19.045  12.677  11.567
62336W        W27816  29.167  17.288   2.316
62337W        W27817   0.271  39.355  14.951
62338W        W27818   3.388  35.582   3.795
62339W        W27819  33.467   1.835  10.630
62340W        W27820  19.204  17.232  12.507
62341W        W27821  21.161  23.624   4.738
62342W        W27822  31.469  40.323  12.908
62343W        W27823   7.335  12.813  12.893
62344W        W27824   6.696   9.324  14.378
62345W        W27825  40.799   7.236   2.808
62346W        W27826  11.154  34.599  10.645
62347W        W27827  11.167   3.231  10.516
62348W        W27828  16.755  22.737  13.025
62349W        W27829  12.804   4.399  13.321
62350W        W27830   7.215  15.134  13.444
62351W        W27831  38.337  21.053   4.133
62352W        W27832  36.001   2.944  11.612
62353W        W27833  17.601  40.968   4.736
62354W        W27834  42.970  14.327  14.409
62355W        W27835   6.896  28.452  13.791
62356W        W27836  11.727  27.999  11.050
62357W        W27837  26.604   6.736   0.293
62358W        W27838  32.469  36.877  11.584
62359W        W27839  35.010   8.277   0.840
62360W        W27840  33.616  10.672   4.597
62361W        W27841  26.554  40.995  13.477
62362W        W27842  15.221  25.137  13.482
62363W        W27843   6.255  24.026   4.661
62364W        W27844  13.681   4.450   0.878
62365W        W27845   1.416  25.588  13.862
62366W        W27846  18.267  28.980   0.247
62367W        W27847  30.536   7.717   3.205
62368W        W27848  10.168  21.135   0.322
62369W        W27849  18.128  35.072   1.273
62370W        W27850  33.590  22.206   9.950
62371W        W27851  21.151   8.693   0.738
62372W        W27852  27.033  25.147  11.894
62373W        W27853  21.153   4.309   0.375
62374W        W27854  40.982   1.966   3.170
62375W        W27855  27.103  12.301   2.247
62376W        W27856  24.665  41.913  13.984
62377W        W27857  44.926  33.422   4.648
62378W        W27858  31.114  33.099   3.259
62379W        W27859  25.022  23.196  14.793
62380W        W27860  13.115  23.192  11.991
62381W        W27861  43.458  12.839  12.490
62382W        W27862  21.201  19.659  11.519
62383W        W27863  20.664  27.060   2.723
62384W        W27864  13.267  23.004   4.667
62385W        W27865  42.336   0.834  13.806
62386W        W27866   0.780   9.309  13.998
62387W        W27867  36.349  41.484   0.958
62388W        W27868   9.715  22.995   1.696
62389W        W27869  40.430  33.435  12.517
62390W        W27870  27.669  15.318  10.928
62391W        W27871  25.650  12.228   0.766
62392W        W27872   5.757  28.559  14.820
62393W        W27873  11.716   1.330  13.510
62394W        W27874  33.596  15.631  12.094
62395W        W27875  25.980  23.992   3.354
62396W        W27876  23.101  26.607   4.703
62397W        W27877  36.983  20.548  14.974
62398W        W27878  14.252  44.346  11.042
62399W        W27879   9.742  24.190   3.736
62400W        W27880  41.891  20.072   3.657
62401W        W27881  39.020  42.990  14.783
62402W        W27882  40.534  22.061   2.685
62403W        W27883   7.195  34.089  14.352
62404W        W27884  39.552  25.208   3.647
62405W        W27885  12.284  23.554  10.548
62406W        W27886  26.111  24.616  14.354
62407W        W27887  12.803   0.442   3.658
62408W        W27888  41.826  11.143   3.776
62409W        W27889  17.174   7.402  14.307
62410W        W27890  22.076  26.690   3.256
62411W        W27891  14.764   9.662  14.856
62412W        W27892   1.343  24.527  11.065
62413W        W27893  15.645  23.028  10.449
62414W        W27894  34.085   2.748   1.775
62415W        W27895  25.164  23.690   1.287
62416W        W27896  43.864  12.645  13.328
62417W        W27897   1.949   8.191   3.720
62418W        W27898  31.965  36.966   2.343
62419W        W27899  13.793  42.374  14.418
62420W        W27900  14.331  20.071   4.298
62421W        W27901  17.583  16.774   4.661
62422W        W27902  22.013   2.240  14.417
62423W        W27903   7.719  15.314  12.461
62424W        W27904  25.127   5.259   2.671
62425W        W27905   5.300   0.367   4.611
62426W        W27906  31.432  24.636  10.524
62427W        W27907  43.996  19.055  11.496
62428W        W27908   1.349  19.661  11.538
62429W        W27909  12.782  18.750  12.356
62430W        W27910  37.402  16.761  12.050
62431W        W27911   1.960   0.796   3.839
62432W        W27912   8.238  22.553  13.908
62433W        W27913   5.419  18.255   4.802
62434W        W27914  43.354  16.072   1.802
62435W        W27915  22.111  23.050   4.334
62436W        W27916  18.583  15.176  10.971
62437W        W27917  22.078  10.227  10.010
62438W        W27918  23.597  22.729   4.630
62439W        W27919   0.892  10.658   1.229
62440W        W27920  31.631  12.347  11.406
62441W        W27921   8.329  34.054   4.304
62442W        W27922  42.348   1.434   3.699
62443W        W27923  34.475  23.207  12.861
62444W        W27924  18.147  30.021   9.505
62445W        W27925  39.940  15.759  13.497
62446W        W27926  39.435  18.645   3.150
62447W        W27927  29.599  15.623  11.506
62448W        W27928  37.920   5.764  13.865
62449W        W27929   3.438  30.469  12.437
62450W        W27930   3.931   1.764   3.178
62451W        W27931  21.133  23.134  10.503
62452W        W27932  35.956  31.525   4.124
62453W        W27933  20.034   2.368  12.030
62454W        W27934   5.756  32.469  13.015
62455W        W27935  12.252  41.423  12.381
62456W        W27936  13.320  25.033  10.160
62457W        W27937   5.705  36.987  12.498
62458W        W27938  17.664  36.922  13.841
62459W        W27939   4.342   4.902  10.488
62460W        W27940  28.602  34.105  14.377
62461W        W27941  37.897  27.623  10.517
62462W        W27942   6.336  10.322   0.448
62463W        W27943  21.682  41.817  11.898
62464W        W27944  44.912  38.469  10.928
62465W        W27945  33.876  10.258   0.839
62466W        W27946  44.769   6.895  10.552
62467W        W27947   2.319  18.203  14.338
62468W        W27948  19.611  33.913   1.351
62469W        W27949  34.505  30.596   3.860
62470W        W27950   1.280  35.979  11.069
62471W        W27951  35.034  29.611   2.715
62472W        W27952  11.353   4.439   1.379
62473W        W27953  16.149  42.493  11.389
62474W        W27954  44.333   4.793   2.285
62475W        W27955  41.803  42.924   5.161
62476W        W27956   6.318  35.519  14.427
62477W        W27957  36.401  25.626  14.005
62478W        W27958  25.604  18.295   4.188
62479W        W27959   0.359   3.878  12.499
62480W        W27960  33.405   4.246   0.300
62481W        W27961  24.592   0.954   0.265
62482W        W27962   6.703   7.901   3.303
62483W        W27963   9.323  37.844  13.940
62484W        W27964  38.860  36.915   0.340
62485W        W27965  34.887   9.213   1.854
62486W        W27966  43.454  29.023  10.939
62487W        W27967  20.665  36.404  13.355
62488W        W27968  17.093  22.011   2.748
62489W        W27969  12.737  17.677  11.563
62490W        W27970   4.806  35.990  11.998
62491W        W27971  30.127  13.647   2.339
62492W        W27972  13.740  15.788  14.490
62493W        W27973   8.819  43.993   1.361
62494W        W27974  42.968   4.820  14.970
62495W        W27975  18.640   6.893  10.535
62496W        W27976   5.889  40.472   4.603
62497W        W27977   0.358  22.703   3.829
62498W        W27978  31.470  38.486   1.904
62499W        W27979  42.374   1.816  12.983
62500W        W27980   7.317   2.312   0.383
62501W        W27981  19.175   9.339  13.416
62502W        W27982  22.113   8.761  11.112
62503W        W27983  34.460   3.769  12.569
62504W        W27984  34.077  23.627   3.262
62505W        W27985  41.525  10.855  11.586
62506W        W27986  24.482  29.151   2.845
62507W        W27987  27.054   9.323   2.390
62508W        W27988  16.768   4.242  13.933
62509W        W27989  18.208  35.884  14.392
62510W        W27990   3.332  44.377  13.796
62511W        W27991   4.350  32.975  11.569
62512W        W27992  30.514   2.378  10.550
62513W        W27993  27.496  44.281   0.876
62514W        W27994   6.358   4.738   1.288
62515W        W27995  30.980  16.596   1.312
62516W        W27996  28.466   4.273  11.433
62517W        W27997  27.555  25.209   3.284
62518W        W27998  25.638  15.185  13.893
62519W        W27999  38.886   9.173   2.802
62520W        W28000  23.046  15.269  10.525
62521W        W28001  17.072  29.978  14.766
62522W        W28002  24.537  24.647  10.600
62523W        W28003   4.806  25.528  14.292
62524W        W28004  30.512  30.455  10.543
62525W        W28005  41.518  34.594   0.342
62526W        W28006  12.804   4.325   0.795
62527W        W28007  32.512  25.982  14.346
62528W        W28008  34.590  42.028  13.484
62529W        W28009  40.465  17.068   1.724
62530W        W28010   1.957   8.746   2.400
62531W        W28011  26.147  26.036  11.862
62532W        W28012  25.504  22.653  12.558
62533W        W28013   6.230  38.395   3.366
62534W        W28014  11.350  35.969  12.054
62535W        W28015  41.407   9.265   0.286
62536W        W28016  35.934  26.651  13.347
62537W        W28017  35.428  40.324  14.359
62538W        W28018   2.441  38.948  13.446
62539W        W28019  16.188  35.107  12.093
62540W        W28020  26.133  21.236   0.807
62541W        W28021  22.503   0.853   2.865
62542W        W28022   1.335  24.636  11.596
62543W        W28023   3.845  15.269  13.373
62544W        W28024  31.433  18.748  11.110
62545W        W28025  39.053  39.336  13.793
62546W        W28026   3.833   2.469  12.061
62547W        W28027  15.698  18.217   2.262
62548W        W28028  38.046  28.476  11.946
62549W        W28029  39.959   9.761  14.442
62550W        W28030  43.829   5.855   1.729
62551W        W28031  15.653  32.887  10.146
62552W        W28032  41.445  13.235  13.540
62553W        W28033  35.360   9.195  10.415
62554W        W28034  23.613   5.411  14.795
62555W        W28035  30.159  11.747   0.473
62556W        W28036  34.574  13.652   3.671
62557W        W28037  20.266  26.530  12.429
62558W        W28038  16.203  30.528  10.618
62559W        W28039   0.474  20.668  10.931
62560W        W28040  34.017  23.650  13.951
62561W        W28041  11.149  11.796  10.916
62562W        W28042  40.975  16.168   5.139
62563W        W28043  25.548  31.543  14.802
62564W        W28044  22.213  11.709   3.177
62565W        W28045  22.030  37.542  10.629
62566W        W28046  34.953   0.257   0.792
62567W        W28047  31.578  17.745  13.054
62568W        W28048  37.499  14.812  12.869
62569W        W28049  15.809   4.223  13.860
62570W        W28050  34.584  12.293   1.451
62571W        W28051   3.794  26.146   4.349
62572W        W28052  33.922  20.089  11.128
62573W        W28053  15.638   0.778   5.285
62574W        W28054   0.478   1.750   3.167
62575W        W28055   5.792  29.481   0.935
62576W        W28056  18.613   1.347   1.247
62577W        W28057  13.734   0.317  12.025
62578W        W28058  35.543  39.989   0.904
62579W        W28059   7.854   9.657  14.508
62580W        W28060  21.200   4.277   0.948
62581W        W28061   2.446  41.039  14.958
62582W        W28062   0.295  35.543  11.108
62583W        W28063  22.653  24.497   1.829
62584W        W28064  37.490  32.927   2.798
62585W        W28065  41.523   0.422  12.885
62586W        W28066  22.747  42.908   2.847
62587W        W28067  40.325  39.026   2.387
62588W        W28068  18.100  31.943   2.851
62589W        W28069  15.131  39.042   4.691
62590W        W28070   5.896  24.644  10.500
62591W        W28071   1.470   1.766   3.191
62592W        W28072   1.455  16.787   4.598
62593W        W28073   7.356  41.041   0.862
62594W        W28074  21.601  36.094   4.232
62595W        W28075  38.975  34.025   1.789
62596W        W28076  42.817  43.437  12.576
62597W        W28077   5.353  19.210   1.723
62598W        W28078  18.296   6.266   1.736
62599W        W28079  24.111  33.963  11.482
62600W        W28080  29.471   8.399  13.932
62601W        W28081  13.221   8.895   3.739
62602W        W28082  41.496  28.133   2.704
62603W        W28083  44.879  14.811   2.317
62604W        W28084  33.592  13.302   1.812
62605W        W28085  39.842  35.072  13.939
62606W        W28086  24.597  14.831  12.379
62607W        W28087   1.958  20.562  10.537
62608W        W28088  18.596   8.672  10.557
62609W        W28089  19.140  12.185  12.043
62610W        W28090   5.251  18.227  13.023
62611W        W28091  40.831  44.359  10.609
62612W        W28092   7.700  20.649  10.958
62613W        W28093  31.040  38.447   5.753
62614W        W28094  34.099  17.243  11.517
62615W        W28095  19.155   0.331   4.188
62616W        W28096  18.157   5.283   0.935
62617W        W28097  34.385  28.033   1.913
62618W        W28098  31.430  13.347   4.326
62619W        W28099  22.525  13.727  13.359
62620W        W28100  17.580  27.513  12.478
62621W        W28101  39.459   1.855   5.214
62622W        W28102  29.451   4.369   1.266
62623W        W28103  32.980  37.409  12.910
62624W        W28104  17.193  42.995   2.229
62625W        W28105  26.082  12.832   0.362
62626W        W28106  39.944  27.174   0.421
62627W        W28107  37.039  41.319  11.393
62628W        W28108  11.816  23.197   2.783
62629W        W28109  16.221  37.394  13.307
62630W        W28110  29.017  23.077   2.684
62631W        W28111  39.351  18.789  12.061
62632W        W28112  37.447   4.240  12.972
62633W        W28113  24.118  36.878  11.967
62634W        W28114  44.311  15.701  14.765
62635W        W28115   9.381  20.721  14.022
62636W        W28116  32.113  20.722  13.466
62637W        W28117  39.452  33.583  13.352
62638W        W28118   8.237  38.337   2.356
62639W        W28119  35.463  23.165  14.465
62640W        W28120   7.801   6.869  10.466
62641W        W28121  37.876   8.261   0.365
62642W        W28122   4.756  17.632   0.275
62643W        W28123   0.490  12.698   0.251
62644W        W28124  41.443   6.771   3.796
62645W        W28125   6.839  36.398   3.747
62646W        W28126   8.665  40.028   4.648
62647W        W28127  17.644  20.613   3.630
62648W        W28128   7.291  27.691   0.835
62649W        W28129   6.306   5.288   1.880
62650W        W28130  41.343  20.523   1.824
62651W        W28131  37.420  35.980  11.577
62652W        W28132  39.977  13.812  12.980
62653W        W28133  10.757  16.606   0.958
62654W        W28134  22.515  16.231   4.255
62655W        W28135  20.218  14.309   9.947
62656W        W28136  30.598  23.129   1.215
62657W        W28137  42.315  33.489  13.951
62658W        W28138  42.373  17.288   3.721
62659W        W28139  44.984   7.751  11.404
62660W        W28140  21.161  21.092  14.782
62661W        W28141   9.757  15.824  13.497
62662W        W28142   1.779  29.570   4.282
62663W        W28143   9.337  25.484   4.748
62664W        W28144   9.183  24.640   1.261
62665W        W28145  36.918   8.229   0.759
62666W        W28146  14.268   9.377   4.141
62667W        W28147  39.456   4.778   1.281
62668W        W28148  29.492  39.891  12.570
62669W        W28149  32.506   1.318  12.907
62670W        W28150   1.827   4.371  14.900
62671W        W28151  32.064  26.635   2.347
62672W        W28152  41.415  10.263   4.627
62673W        W28153  19.649  16.630   4.206
62674W        W28154   5.311  29.599   3.331
62675W        W28155   0.922  21.662  10.489
62676W        W28156  12.194  41.859  10.542
62677W        W28157  28.007   4.866  11.950
62678W        W28158   9.297   7.355   0.808
62679W        W28159   5.906  22.996   0.799
62680W        W28160   4.364  32.546   0.259
62681W        W28161  38.350  16.589   4.729
62682W        W28162  28.553   1.246   4.692
62683W        W28163  28.571  43.828  14.773
62684W        W28164  27.022  39.010  13.446
62685W        W28165   4.829  32.576  11.022
62686W        W28166  34.880  36.938  14.485
62687W        W28167  14.154   1.261  10.428
62688W        W28168  21.683  27.480   3.723
62689W        W28169  19.107  38.865   4.160
62690W        W28170  22.045  24.571  10.935
62691W        W28171   2.321  30.558  11.613
62692W        W28172  43.461   0.932   3.777
62693W        W28173  13.147   2.930   3.703
62694W        W28174   9.313   0.870   2.410
62695W        W28175   0.461  36.443   2.827
62696W        W28176  40.433  10.744  13.845
62697W        W28177  27.610   8.703  12.390
62698W        W28178  20.074  36.542  13.473
62699W        W28179  27.523  10.317   4.330
62700W        W28180  18.667  20.064  11.856
62701W        W28181   0.380  27.602   0.256
62702W        W28182  35.866   1.977  10.950
62703W        W28183  44.406  16.219  14.317
62704W        W28184  24.089   3.389  10.914
62705W        W28185  16.630  10.194   1.339
62706W        W28186   5.870  35.084  12.048
62707W        W28187  35.541  14.296   0.481
62708W        W28188  39.907   2.379   3.222
62709W        W28189  11.227  33.985  10.587
62710W        W28190  39.849  38.541   3.159
62711W        W28191  18.705  31.103   2.804
62712W        W28192  20.128   6.401   3.789
62713W        W28193  11.816  18.639   1.713
62714W        W28194  33.466  15.180   2.219
62715W        W28195  21.150  25.132   0.947
62716W        W28196  35.891  32.979   4.179
62717W        W28197  31.029   7.368   3.826
62718W        W28198  19.710   3.813   2.791
62719W        W28199   8.387  40.472   0.379
62720W        W28200  25.212  26.195  12.908
62721W        W28201  33.615  23.178   3.680
62722W        W28202   8.846   3.257  11.373
62723W        W28203  38.485   4.254  14.299
62724W        W28204   0.258  36.914  12.449
62725W        W28205   7.187  42.361  11.561
62726W        W28206   0.856  33.931  13.360
62727W        W28207  25.103  21.117  10.518
62728W        W28208  16.277   5.235  11.422
62729W        W28209  15.748  33.982   1.370
62730W        W28210  16.289  15.184  12.008
62731W        W28211  39.900  39.560  12.441
62732W        W28212   0.470  43.409  10.407
62733W        W28213  38.555  20.144   0.305
62734W        W28214  17.272  40.985  10.582
62735W        W28215  39.962   5.800   2.685
62736W        W28216  17.587  29.146  14.442
62737W        W28217  44.501  33.996  10.568
62738W        W28218  11.706   9.338  14.005
62739W        W28219  26.516   9.168  14.500
62740W        W28220  19.091  16.632  10.930
62741W        W28221  30.939   5.916   1.743
62742W        W28222  17.797  44.849  11.530
62743W        W28223  30.956   0.454   3.746
62744W        W28224   6.428  24.557  13.978
62745W        W28225  33.047  10.210  13.447
62746W        W28226  41.417  37.512   5.155
62747W        W28227   3.366  35.911  12.869
62748W        W28228  35.398  29.069   0.455
62749W        W28229   5.832  18.791  12.019
62750W        W28230  39.872  10.713  11.912
62751W        W28231  43.779  10.855  11.008
62752W        W28232  24.640   5.300  13.537
62753W        W28233  12.322  44.415  12.951
62754W        W28234  37.383   0.338   4.666
62755W        W28235  26.696   5.277  10.420
62756W        W28236  43.422  24.057  14.976
62757W        W28237   4.309  13.332   3.641
62758W        W28238  36.046  24.006  13.458
62759W        W28239  31.940   2.778   4.200
62760W        W28240   4.399  32.002   1.306
62761W        W28241   7.333  33.001  11.000
62762W        W28242  16.805   7.767   2.291
62763W        W28243  30.600  41.347  13.860
62764W        W28244  21.050  31.472   3.272
62765W        W28245  15.184   0.758  11.075
62766W        W28246  15.799   6.330   0.334
62767W        W28247  39.985  27.001   0.961
62768W        W28248  11.791  13.843   1.869
62769W        W28249  28.999  44.967   3.711
62770W        W28250   4.896  41.489  14.882
62771W        W28251  33.559  33.596   3.689
62772W        W28252  33.082  20.767  14.954
62773W        W28253   5.213  23.002  12.913
62774W        W28254  24.512  43.016   2.884
62775W        W28255  20.594  31.464   4.162
62776W        W28256  38.486  29.023  10.470
62777W        W28257  44.373  34.956  10.472
62778W        W28258  41.471  13.272   5.312
62779W        W28259  15.694  41.913  13.832
62780W        W28260  13.715   5.361   2.330
62781W        W28261  36.393  14.137   4.757
62782W        W28262  35.435  31.139  12.484
62783W        W28263  32.924  19.108   1.884
62784W        W28264  36.932   0.265   0.955
62785W        W28265  25.602  27.092  11.047
62786W        W28266  41.963   1.932   4.187
62787W        W28267  35.041  14.722  13.015
62788W        W28268  42.431   1.944  11.465
62789W        W28269  44.441  37.929  11.422
62790W        W28270   8.729  12.318   4.118
62791W        W28271  33.115  36.408  12.448
62792W        W28272  31.570  16.656  12.573
62793W        W28273  11.638   8.351  12.503
62794W        W28274  19.204  20.068   1.918
62795W        W28275  42.324  39.866   1.275
62796W        W28276  18.105   5.908  11.403
62797W        W28277  26.012  25.992   2.331
62798W        W28278   5.830   0.401  10.581
62799W        W28279  29.533  34.058  11.478
62800W        W28280  34.461  21.688  12.565
62801W        W28281  38.556  13.710   2.388
62802W        W28282  13.141  14.831  11.560
62803W        W28283  14.652   3.889  14.289
62804W        W28284  36.844  30.549  10.498
62805W        W28285   0.760  24.559  14.028
62806W        W28286   5.869  40.856  12.084
62807W        W28287  43.307  41.883   2.405
62808W        W28288  16.719  22.132   2.693
62809W        W28289  21.586  13.673  12.838
62810W        W28290  17.138   9.829  10.431
62811W        W28291  41.485  11.748   0.733
62812W        W28292  29.930  34.108  12.989
62813W        W28293  24.168  32.587  14.285
62814W        W28294   0.400  32.941  14.439
62815W        W28295   9.788   0.881   0.317
62816W        W28296   8.226  13.652   4.267
62817W        W28297  38.065  38.029   3.638
62818W        W28298  44.816  41.839  13.935
62819W        W28299   4.716  33.453  12.559
62820W        W28300  25.003   7.384  13.929
62821W        W28301  26.633  12.705  14.864
62822W        W28302  16.243  28.130   4.224
62823W        W28303   4.810  31.408   4.701
62824W        W28304  38.933  14.716  12.578
62825W        W28305  31.556  40.964   1.417
62826W        W28306  44.341  36.872   1.772
62827W        W28307  37.484   2.349   1.331
62828W        W28308  17.239  25.713  11.976
62829W        W28309   0.948  23.605   2.325
62830W        W28310  18.222  13.783  13.428
62831W        W28311  41.860  24.025   4.148
62832W        W28312  20.246  19.564  12.016
62833W        W28313   7.678  25.704  13.965
62834W        W28314  21.159  22.649  12.885
62835W        W28315  27.686   3.292  14.281
62836W        W28316  29.632  20.206  11.035
62837W        W28317  16.159  17.726  10.427
62838W        W28318   4.893   4.211   1.450
62839W        W28319   1.935  36.894   3.260
62840W        W28320  23.163  30.038  14.831
62841W        W28321  26.180  30.926   3.204
62842W        W28322  32.625   0.359  12.492
62843W        W28323   8.722  13.162  10.466
62844W        W28324   5.818  19.247   1.229
62845W        W28325  29.146  26.587   9.973
62846W        W28326  39.427  35.957  10.543
62847W        W28327  34.992  13.729  13.002
62848W        W28328  21.127   4.762  14.431
62849W        W28329  41.400  29.579   2.858
62850W        W28330  42.927  40.402   4.164
62851W        W28331   9.700   0.771   0.828
62852W        W28332  22.215   0.339  13.835
62853W        W28333  20.723   2.333   2.178
62854W        W28334  15.296   0.928  10.017
62855W        W28335  43.311  16.176   1.288
62856W        W28336  36.886   9.864   2.734
62857W        W28337  20.260  35.101   2.376
62858W        W28338  18.706  34.099  12.376
62859W        W28339  32.514   8.778   0.445
62860W        W28340   6.212  27.038  12.016
62861W        W28341  39.901   7.269  12.543
62862W        W28342   0.428  37.944  12.466
62863W        W28343  11.293  44.342  14.832
62864W        W28344  34.426  23.667  11.568
62865W        W28345   9.807   0.774  11.869
62866W        W28346  39.016   7.417  10.642
62867W        W28347  39.501  32.616   1.222
62868W        W28348  36.058  32.046   0.306
62869W        W28349  37.956  18.603  13.399
62870W        W28350   7.853   9.849   0.886
62871W        W28351  38.549  13.790  11.537
62872W        W28352  11.840  37.074   0.786
62873W        W28353  38.023  44.826   0.429
62874W        W28354  27.474  21.613  11.427
62875W        W28355   8.794  21.071   1.921
62876W        W28356   4.404   8.688   1.863
62877W        W28357  17.588  39.930  12.996
62878W        W28358   2.819   0.932  12.495
62879W        W28359  25.668   3.239   0.478
62880W        W28360   4.207  23.087   2.714
62881W        W28361  19.251  37.409   2.762
62882W        W28362  35.585   0.959  10.967
62883W        W28363  30.658  10.801  10.556
62884W        W28364  42.452  34.055  10.931
62885W        W28365  15.724  20.266  14.016
62886W        W28366   9.362  15.647   9.996
62887W        W28367   2.327  42.845   1.732
62888W        W28368  24.571  36.382  10.938
62889W        W28369   6.385  20.600  10.157
62890W        W28370  31.463  44.418  11.952
62891W        W28371   9.875  40.033   2.887
62892W        W28372  39.960  28.148   4.248
62893W        W28373   2.906  31.949   3.216
62894W        W28374   3.883  12.726  12.052
62895W        W28375   0.339  40.802  12.938
62896W        W28376  39.377  30.947   1.412
62897W        W28377   0.871  28.467  14.881
62898W        W28378  34.911   9.733  12.551
62899W        W28379  31.629  15.768   3.325
62900W        W28380  39.821  35.032   4.646
62901W        W28381  41.463   9.878   0.416
62902W        W28382  36.060  19.231   0.800
62903W        W28383   2.332  20.222   1.926
62904W        W28384  22.225   4.256   1.369
62905W        W28385  40.456  26.632   0.783
62906W        W28386  27.118  11.623  14.372
62907W        W28387   6.369   1.956   2.191
62908W        W28388  15.822  30.430   1.411
62909W        W28389  27.654  14.322  11.429
62910W        W28390  28.964  12.811   1.265
62911W        W28391   4.814  29.606  11.972
62912W        W28392  11.813  31.134   2.675
62913W        W28393   9.828   4.942  10.892
62914W        W28394   4.722  28.026  12.026
62915W        W28395  31.941  27.148   0.371
62916W        W28396  36.843   7.359   4.159
62917W        W28397   4.217   9.304   4.215
62918W        W28398  37.481  41.343   2.364
62919W        W28399  20.722  39.356   1.733
62920W        W28400   8.826  23.609  10.591
62921W        W28401  24.603   2.733   3.811
62922W        W28402  14.760   6.262  12.886
62923W        W28403  15.256  38.053   2.188
62924W        W28404  29.600  39.053   3.802
62925W        W28405  37.388   5.287   3.837
62926W        W28406  10.701  44.769  11.491
62927W        W28407  37.059  12.797   1.400
62928W        W28408  27.553   1.841  11.894
62929W        W28409  38.998  37.566  11.606
62930W        W28410  13.290  13.713   5.567
62931W        W28411  20.147   7.831  13.412
62932W        W28412   4.750  12.612  13.545
62933W        W28413  39.878  24.013   0.335
62934W        W28414  38.414  30.448   1.912
62935W        W28415  41.304  22.649   3.232
62936W        W28416  35.018  12.705   5.299
62937W        W28417  20.633  27.121   0.839
62938W        W28418  25.680  27.603   4.325
62939W        W28419  41.461   4.222   1.723
62940W        W28420  37.351  25.057  14.365
62941W        W28421  40.006  18.664  11.859
62942W        W28422  31.434  20.070   4.157
62943W        W28423   8.200  35.532   0.260
62944W        W28424  11.372  24.653  13.005
62945W        W28425  30.505  18.648   0.453
62946W        W28426  36.874  14.815   4.327
62947W        W28427  26.511  23.492  11.934
62948W        W28428   5.313  10.165  11.100
62949W        W28429   4.725  31.001   2.805
62950W        W28430  33.447  31.971  14.376
62951W        W28431   9.794  30.466  12.844
62952W        W28432  20.140  37.884  13.422
62953W        W28433   9.376  33.950  14.450
62954W        W28434  20.186  35.853   2.380
62955W        W28435  25.534   6.689  11.071
62956W        W28436   5.712  22.116  14.364
62957W        W28437  36.377  18.091  12.964
62958W        W28438  12.142  11.229   2.329
62959W        W28439   9.230  20.633  12.016
62960W        W28440   2.371   9.716  10.616
62961W        W28441  44.830  37.016  11.552
62962W        W28442  11.282  29.956  13.538
62963W        W28443  35.970  21.644   3.261
62964W        W28444   3.791  24.043   3.236
62965W        W28445  30.434  23.183   3.798
62966W        W28446  21.253  30.929  11.523
62967W        W28447  14.827  18.786   1.801
62968W        W28448  15.600  26.014  11.874
62969W        W28449   0.846  18.621  11.497
62970W        W28450  11.639   3.261   0.953
62971W        W28451  13.256  18.205   9.997
62972W        W28452  16.792   6.734   1.217
62973W        W28453  24.128  17.800   0.950
62974W        W28454  19.216   1.971  12.453
62975W        W28455  10.634   9.733   4.605
62976W        W28456  10.829   0.813   0.730
62977W        W28457  23.119  16.172   0.824
62978W        W28458  41.529  30.548   2.418
62979W        W28459  35.597  44.978  13.456
62980W        W28460  41.888  31.057   0.815
62981W        W28461  32.445  19.763   5.269
62982W        W28462   8.373  21.717   4.674
62983W        W28463  21.191  43.923  11.565
62984W        W28464  38.977  23.992   3.168
62985W        W28465  40.027  40.516   4.154
62986W        W28466  31.513  32.424  11.944
62987W        W28467  14.680  31.466  11.586
62988W        W28468  38.838   7.299  13.515
62989W        W28469   4.311  36.563  10.910
62990W        W28470  41.802  13.161  14.351
62991W        W28471   5.829   3.820  12.998
62992W        W28472  11.651   6.792   4.316
62993W        W28473  19.683  44.468  14.347
62994W        W28474  25.707  44.896  12.569
62995W        W28475   9.864  15.242  11.041
62996W        W28476  24.518  41.511   4.178
62997W        W28477  23.694  18.678   4.742
62998W        W28478  22.631  32.481   1.249
62999W        W28479   9.326  19.650   0.787
63000W        W28480  17.152  19.542  13.934
63001W        W28481  28.435  40.314   1.226
63002W        W28482  16.289  16.672   1.790
63003W        W28483  38.983  28.055   1.885
63004W        W28484  36.360  23.032  10.956
63005W        W28485  23.731  17.302   4.217
63006W        W28486  18.131  39.861   2.892
63007W        W28487  17.761  40.855  12.574
63008W        W28488  15.813   4.382  11.869
63009W        W28489  16.176  20.269  11.878
63010W        W28490  33.911  29.109  11.375
63011W        W28491  27.003  14.271  14.491
63012W        W28492  28.049  38.846   1.381
63013W        W28493   9.726  20.160  11.070
63014W        W28494  19.237  36.977  11.474
63015W        W28495  31.447  19.553  13.895
63016W        W28496   6.774  13.306  11.063
63017W        W28497   8.240  26.528  13.810
63018W        W28498  32.613  43.493   0.305
63019W        W28499  12.285  16.621  13.004
63020W        W28500  31.152  38.406   2.399
63021W        W28501  32.052   5.429  13.446
63022W        W28502   4.757   1.329   0.942
63023W        W28503  16.201  44.403   3.665
63024W        W28504  44.971  42.804   2.662
63025W        W28505  27.099  42.300  13.864
63026W        W28506  21.565   1.242   0.748
63027W        W28507   6.260  43.894   3.730
63028W        W28508  23.029   6.237  11.412
63029W        W28509  10.243  26.029   5.292
63030W        W28510  18.160  19.284   2.318
63031W        W28511  30.423  30.928  12.487
63032W        W28512  34.470   3.733  12.032
63033W        W28513   8.742  28.147  13.802
63034W        W28514  22.026  30.654   3.203
63035W        W28515  25.671   3.873  11.399
63036W        W28516  33.076  22.698   3.368
63037W        W28517   2.392  21.568   3.376
63038W        W28518  24.001  19.149  11.902
63039W        W28519  30.575  11.355   3.733
63040W        W28520  27.012  37.991  12.992
63041W        W28521  33.926   8.172   2.296
63042W        W28522  13.721  19.284  14.419
63043W        W28523  19.659  37.922  14.278
63044W        W28524  20.560  24.661   4.792
63045W        W28525   8.730  30.015  10.590
63046W        W28526   5.893  22.543   3.805
63047W        W28527  34.441  26.470  14.275
63048W        W28528  30.993   6.372   0.252
63049W        W28529  30.152   9.883  13.530
63050W        W28530  21.656  32.408   4.299
63051W        W28531  37.473  43.799  14.774
63052W        W28532  18.583  22.699   2.359
63053W        W28533  16.198  36.447   4.175
63054W        W28534   4.310  40.830  12.072
63055W        W28535  40.944  20.233  13.341
63056W        W28536  33.101   8.882  14.497
63057W        W28537  40.497   4.827  11.549
63058W        W28538  16.726  31.928  10.983
63059W        W28539   1.420   6.827  13.468
63060W        W28540  12.285  44.478  13.794
63061W        W28541  36.457  41.905  12.076
63062W        W28542  35.927  39.513   4.168
63063W        W28543  35.923  28.531  11.953
63064W        W28544  21.609  32.934  13.893
63065W        W28545  20.619  24.580   4.118
63066W        W28546  16.585  27.467  14.324
63067W        W28547  22.674  10.801   0.848
63068W        W28548  41.400  11.296  14.999
63069W        W28549  11.230  23.992  11.439
63070W        W28550  18.078  12.661   0.762
63071W        W28551  41.996   1.960  13.471
63072W        W28552   0.797  34.496   3.356
63073W        W28553  34.418  16.681  13.403
63074W        W28554  15.610  43.312   0.735
63075W        W28555  25.208  11.304   4.769
63076W        W28556  34.461  23.132   2.853
63077W        W28557  37.545  16.243   3.768
63078W        W28558  19.185  29.506   5.163
63079W        W28559  39.532  37.944   4.623
63080W        W28560  40.879  42.937  13.353
63081W        W28561   2.329  19.186   0.952
63082W        W28562  14.591  44.932   3.772
63083W        W28563  32.404  43.401  12.831
63084W        W28564   6.371  19.754  12.860
63085W        W28565  24.077  29.494  12.423
63086W        W28566  16.792  40.012   4.824
63087W        W28567  19.126   6.712   1.241
63088W        W28568  30.446   5.705   1.773
63089W        W28569  11.714  39.925   1.851
63090W        W28570  44.937  30.018   2.345
63091W        W28571  18.546   9.303  13.931
63092W        W28572  43.920  31.526   1.712
63093W        W28573  32.409   4.375  14.986
63094W        W28574  12.641  43.376   5.161
63095W        W28575   3.802  12.653  13.857
63096W        W28576  26.657  36.529  14.906
63097W        W28577  14.754   5.928   4.320
63098W        W28578  29.546  38.375   2.828
63099W        W28579  21.698   9.181   2.727
63100W        W28580  40.800  43.481  13.322
63101W        W28581  23.531   9.795  12.917
63102W        W28582   7.355  29.011   3.219
63103W        W28583   1.421   4.877  13.380
63104W        W28584   2.239   1.466  12.553
63105W        W28585  33.504  17.700   1.391
63106W        W28586   9.813  10.219  12.447
63107W        W28587  28.138  11.684   2.194
63108W        W28588  44.415  39.459  11.962
63109W        W28589  28.520  13.795   3.301
63110W        W28590  12.635  39.886  10.574
63111W        W28591  31.551  29.458  14.338
63112W        W28592  16.667  42.987   3.212
63113W        W28593  33.922  25.054  11.091
63114W        W28594  27.630  31.474   2.830
63115W        W28595  13.315  44.947   2.197
63116W        W28596  20.111   4.734  12.066
63117W        W28597  36.044  44.297   4.182
63118W        W28598  22.221   1.283   2.275
63119W        W28599  35.072  29.574   1.897
63120W        W28600  41.037   9.827   0.871
63121W        W28601   5.801  21.695   1.892
63122W        W28602   8.187  17.678  11.589
63123W        W28603  37.016  33.879  11.449
63124W        W28604  23.618  31.524   1.404
63125W        W28605  11.813  12.151  13.046
63126W        W28606   6.753  13.223  11.393
63127W        W28607  11.263  14.733  11.468
63128W        W28608  38.364  23.650   4.185
63129W        W28609  11.633  18.066  14.482
63130W        W28610  20.243  28.600  13.483
63131W        W28611  43.488  36.877   0.926
63132W        W28612  39.317  12.182   0.406
63133W        W28613  23.010  20.154  12.020
63134W        W28614  15.699  40.007   1.359
63135W        W28615  10.754  31.529   1.233
63136W        W28616  21.075  24.181   4.782
63137W        W28617  26.166  12.321   0.966
63138W        W28618  23.705  23.079  10.955
63139W        W28619   1.462   9.319  11.597
63140W        W28620  34.386  21.528  10.437
63141W        W28621  39.372  13.706  12.092
63142W        W28622  32.534  10.878  10.504
63143W        W28623   7.173  12.795   1.415
63144W        W28624  14.623  34.426   1.760
63145W        W28625  22.578   2.472   1.696
63146W        W28626   6.216  17.093   1.350
63147W        W28627  34.548  30.974   2.797
63148W        W28628  24.986  16.733  11.945
63149W        W28629   2.346  26.519  13.376
63150W        W28630  25.088  15.788  12.834
63151W        W28631  15.181   2.461  11.613
63152W        W28632  34.902  23.109  13.531
63153W        W28633  12.209   0.441  12.507
63154W        W28634  22.071  24.486   3.833
63155W        W28635  19.131  16.774  14.900
63156W        W28636  27.983   6.813  11.419
63157W        W28637  42.367  34.863   3.282
63158W        W28638  42.406  43.833  13.995
63159W        W28639  38.331  41.510  11.071
63160W        W28640   7.332  14.213  11.102
63161W        W28641   3.309  16.105   0.406
63162W        W28642   3.809  29.634   1.769
63163W        W28643  34.483  15.632  12.888
63164W        W28644  42.947  31.038   2.823
63165W        W28645  26.645  40.840  12.417
63166W        W28646  17.195  18.270   3.175
63167W        W28647  15.649  37.911  14.990
63168W        W28648   5.912  11.699   4.618
63169W        W28649  28.533  18.715   0.862
63170W        W28650  37.989  15.667  10.426
63171W        W28651  23.116  40.946   0.821
63172W        W28652   6.295  44.941  12.467
63173W        W28653  34.542  11.232  13.424
63174W        W28654  16.178  40.949  10.564
63175W        W28655   5.899  36.045   2.391
63176W        W28656  43.288  26.083   0.321
63177W        W28657  37.524  39.388   0.405
63178W        W28658  43.393  14.273   4.202
63179W        W28659   6.291  30.588  11.557
63180W        W28660  42.862  42.365  13.417
63181W        W28661  31.999  42.357   3.650
63182W        W28662  42.873  44.381  14.341
63183W        W28663  14.723  32.888  10.617
63184W        W28664  16.124  37.035   2.221
63185W        W28665  15.779  16.168   3.294
63186W        W28666  43.330  22.159   1.229
63187W        W28667  27.504  24.042   4.244
63188W        W28668  28.449   7.779  13.865
63189W        W28669  17.710  27.637   3.794
63190W        W28670   6.900  40.949   3.771
63191W        W28671  40.004  17.203   5.319
63192W        W28672  35.920  37.439  14.387
63193W        W28673  31.023   7.826   2.268
63194W        W28674  26.024   5.232   4.235
63195W        W28675  31.903  43.935  11.577
63196W        W28676  29.970  25.994  12.049
63197W        W28677  43.411   9.680  12.918
63198W        W28678  10.183   9.861   4.828
63199W        W28679  31.612  16.141   1.365
63200W        W28680  38.953  30.461  12.040
63201W        W28681   8.276  22.734  11.589
63202W        W28682  11.719  15.328  10.468
63203W        W28683  26.482   6.766  10.932
63204W        W28684  31.025   8.862   3.654
63205W        W28685   6.408  23.593   0.327
63206W        W28686  33.397  18.626   1.735
63207W        W28687  18.552   3.328   1.814
63208W        W28688  32.112  25.988   1.335
63209W        W28689  36.970   3.751  14.310
63210W        W28690  16.761   7.907  14.993
63211W        W28691  33.426  16.754   1.436
63212W        W28692  44.849   4.860   0.455
63213W        W28693  10.171  20.157   2.762
63214W        W28694  32.894   7.370   1.770
63215W        W28695   4.338  15.810  12.363
63216W        W28696  23.988  43.425   0.868
63217W        W28697  35.448  10.674  12.952
63218W        W28698  41.358   8.660   1.760
63219W        W28699  12.117  37.950  12.901
63220W        W28700  13.146  33.543  10.447
63221W        W28701   9.157  14.216  11.897
63222W        W28702   1.262  43.855   4.644
63223W        W28703  26.040  32.999   3.696
63224W        W28704  29.428  16.584  11.931
63225W        W28705   4.919  40.045   1.899
63226W        W28706  34.500  35.377  14.022
63227W        W28707  43.458  15.286  11.968
63228W        W28708  13.752  21.179  14.896
63229W        W28709  21.677  40.525  11.421
63230W        W28710  18.066   3.945  11.582
63231W        W28711   3.763  42.973   4.354
63232W        W28712  25.157  40.305  11.437
63233W        W28713   5.250  30.004   4.730
63234W        W28714   6.832  39.406  14.830
63235W        W28715  36.027  18.063  12.395
63236W        W28716  16.111   2.933  14.407
63237W        W28717   2.385  24.041  14.972
63238W        W28718   7.847  30.992  12.388
63239W        W28719  42.923  44.468  11.916
63240W        W28720  36.886  21.573   1.393
63241W        W28721  23.703  38.536   1.744
63242W        W28722   8.705  44.360   5.322
63243W        W28723   0.793  12.339   0.405
63244W        W28724   7.673  31.984   1.230
63245W        W28725  26.606  37.437   4.755
63246W        W28726  39.500  13.136   3.704
63247W        W28727  31.531  19.673  14.285
63248W        W28728  32.486  30.543   0.290
63249W        W28729  42.287   9.263  14.845
63250W        W28730  37.852  36.071   3.286
63251W        W28731   8.814  32.569   0.793
63252W        W28732  39.971  11.844   4.750
63253W        W28733   0.273   0.968   0.317
63254W        W28734  17.163   9.324  14.467
63255W        W28735  31.497  24.699   3.761
63256W        W28736  19.698   9.172  13.362
63257W        W28737   1.326  32.916  10.968
63258W        W28738  14.253   1.469   4.180
63259W        W28739   3.866  16.673   4.210
63260W        W28740  41.919  39.038  10.091
63261W        W28741  30.931   2.431  14.871
63262W        W28742  31.897  32.492   5.282
63263W        W28743  14.126  43.479   1.796
63264W        W28744   8.749  24.207   3.345
63265W        W28745  36.591  17.101  11.114
63266W        W28746  44.356   5.874  12.523
63267W        W28747  33.432  34.929   2.308
63268W        W28748  36.941  18.160   2.894
63269W        W28749  21.542   6.891   1.450
63270W        W28750  35.019  37.452  12.865
63271W        W28751  27.490  43.290   1.796
63272W        W28752  27.088  19.082   3.198
63273W        W28753  32.418  36.372   3.810
63274W        W28754  18.160   5.409   1.426
63275W        W28755  17.669  37.525   4.691
63276W        W28756  11.151  29.669  11.555
63277W        W28757  29.435   3.301  13.835
63278W        W28758  40.395  41.382   0.942
63279W        W28759  14.754  12.612  13.810
63280W        W28760  40.523   7.795  10.469
63281W        W28761   7.372  35.908  12.562
63282W        W28762   1.245  40.038  11.543
63283W        W28763  25.214  17.119  13.824
63284W        W28764  36.001  25.153   4.230
63285W        W28765  27.473   8.311   1.276
63286W        W28766  16.622  44.995   3.657
63287W        W28767  29.570   7.346  13.979
63288W        W28768  15.236  19.562   0.814
63289W        W28769  26.630  37.961  10.969
63290W        W28770  21.113  24.499   4.180
63291W        W28771  40.947  34.105  14.972
63292W        W28772   4.864  43.817  14.425
63293W        W28773  27.084  19.274   4.333
63294W        W28774  32.407  36.936  14.919
63295W        W28775  37.347   7.290  13.974
63296W        W28776   2.375  24.657  11.039
63297W        W28777  18.748  21.622   2.366
63298W        W28778  19.583   3.307   2.820
63299W        W28779   2.726  25.064  12.969
63300W        W28780  42.422   7.385  11.113
63301W        W28781  19.232  24.154  10.514
63302W        W28782   7.268  43.781   0.390
63303W        W28783   8.846  30.013   3.783
63304W        W28784  31.589  13.176  10.936
63305W        W28785  43.886   5.282   0.962
63306W        W28786   0.948  44.413   3.365
63307W        W28787  18.710  35.509  10.935
63308W        W28788  18.197  12.811  13.959
63309W        W28789  28.163  30.499   4.802
63310W        W28790  31.142  18.073  11.084
63311W        W28791  36.436  36.553   3.352
63312W        W28792  40.380  20.121   0.765
63313W        W28793  11.338  38.535  12.043
63314W        W28794  40.400  32.119   0.462
63315W        W28795  15.188  26.122  10.585
63316W        W28796  16.636  27.158  11.521
63317W        W28797  19.734   4.759  11.985
63318W        W28798  23.533  44.494   3.309
63319W        W28799   9.164   6.250  13.461
63320W        W28800  10.778  32.608   1.750
63321W        W28801  16.314  32.062   2.341
63322W        W28802  38.548  18.693  14.846
63323W        W28803  29.965   3.736   4.251
63324W        W28804   7.771  39.040   4.217
63325W        W28805  16.766  10.872  10.912
63326W        W28806   3.868  31.904  12.038
63327W        W28807  26.566  15.136   4.741
63328W        W28808   1.473  33.120  14.492
63329W        W28809  11.654  38.334   1.251
63330W        W28810  36.560  20.628   2.901
63331W        W28811  23.599  36.957  14.998
63332W        W28812  42.917  34.490   0.389
63333W        W28813   6.746  16.200   4.676
63334W        W28814  25.519   1.328  11.933
63335W        W28815  34.539  21.224  14.002
63336W        W28816   0.284  21.669  12.854
63337W        W28817   4.331  29.048   3.725
63338W        W28818  12.689   7.334  12.466
63339W        W28819  39.061  43.370  14.338
63340W        W28820  28.508  10.176   0.246
63341W        W28821  30.478  44.447  14.483
63342W        W28822  15.286   0.818  11.516
63343W        W28823  26.703  23.147   4.621
63344W        W28824  33.034  44.799  14.960
63345W        W28825  24.033  36.884  14.449
63346W        W28826  37.941  25.171   1.241
63347W        W28827  22.174  41.881  11.080
63348W        W28828  17.587  12.162   9.992
63349W        W28829  31.439  37.851   3.682
63350W        W28830  23.709  14.218   4.192
63351W        W28831  35.563  23.098  13.486
63352W        W28832  40.454   9.247   0.806
63353W        W28833  13.820  34.390  11.451
63354W        W28834  31.408  19.055   0.457
63355W        W28835  18.256  28.582   3.200
63356W        W28836  36.538  28.500   1.805
63357W        W28837   6.295  36.444  13.968
63358W        W28838  16.283  27.072   3.692
63359W        W28839  15.707   4.410   3.824
63360W        W28840  11.706  12.210  14.369
63361W        W28841   2.884  19.551   1.779
63362W        W28842  34.384   9.666   0.365
63363W        W28843  28.072  39.831  12.558
63364W        W28844  24.107  29.435  11.421
63365W        W28845  24.023  44.425   3.788
63366W        W28846  39.366   2.766  12.072
63367W        W28847  27.639  32.524  10.588
63368W        W28848  20.641   5.747   4.319
63369W        W28849  44.778  21.730  14.489
63370W        W28850  36.465  44.796  10.554
63371W        W28851  43.275  15.764   4.722
63372W        W28852  37.490  13.840  13.981
63373W        W28853  33.905  37.979   3.199
63374W        W28854   7.777  38.847   4.599
63375W        W28855  39.549  27.594  11.066
63376W        W28856  17.108  27.451  13.962
63377W        W28857  16.106   4.826  12.014
63378W        W28858  13.769  11.228   1.365
63379W        W28859  21.644   3.402   4.348
63380W        W28860  16.689   6.236   2.354
63381W        W28861  43.997  14.210   2.838
63382W        W28862   0.767  25.473   2.262
63383W        W28863   1.280  29.933   3.300
63384W        W28864  34.084  26.173   2.811
63385W        W28865  23.073  44.812  11.906
63386W        W28866  13.731  41.406   1.721
63387W        W28867   2.941  42.838  11.912
63388W        W28868   4.410  18.100   1.263
63389W        W28869  32.103  40.932   2.900
63390W        W28870  39.872  37.053  10.942
63391W        W28871  35.941  32.463  11.924
63392W        W28872  16.159   3.441  12.824
63393W        W28873  36.452   1.772   4.184
63394W        W28874  36.430  21.605   0.861
63395W        W28875  39.530  33.939  11.088
63396W        W28876  32.472   0.886   3.871
63397W        W28877  41.947  21.544   0.470
63398W        W28878  22.014  24.554   0.806
63399W        W28879  10.640  19.658  10.535
63400W        W28880  27.067  18.164  12.906
63401W        W28881   4.296  14.810   3.213
63402W        W28882  27.619  15.319   0.293
63403W        W28883  19.251  13.146   2.902
63404W        W28884  29.049  17.196   0.930
63405W        W28885  12.769  24.135   2.726
63406W        W28886   5.370  31.088  13.871
63407W        W28887  13.126  35.949  11.959
63408W        W28888   3.846  25.539  11.404
63409W        W28889  24.576  38.400   0.251
63410W        W28890   1.851  27.964  14.343
63411W        W28891   2.777  22.527  14.457
63412W        W28892  18.752  10.148  14.382
63413W        W28893  10.235  40.913   2.336
63414W        W28894  20.050  17.266  10.535
63415W        W28895  33.047  30.617  14.360
63416W        W28896  42.870  28.042   0.864
63417W        W28897  44.933  31.574  10.503
63418W        W28898  10.807  16.187   4.311
63419W        W28899  34.556  20.755  10.598
63420W        W28900   6.849  16.570   2.675
63421W        W28901  42.786   8.876   4.243
63422W        W28902  32.957  19.747   1.274
63423W        W28903  26.491  10.297  10.522
63424W        W28904  40.454   3.344   1.252
63425W        W28905  11.368   2.236  11.949
63426W        W28906  37.936  13.758   4.297
63427W        W28907  41.435  18.056  13.426
63428W        W28908  16.717  42.487  10.937
63429W        W28909   5.830   3.294   2.739
63430W        W28910   5.273  22.012  11.593
63431W        W28911  25.579  23.009  11.093
63432W        W28912  39.420  19.203  10.997
63433W        W28913  26.008   4.355  11.554
63434W        W28914  25.670  43.930   3.167
63435W        W28915  14.301  43.771  11.065
63436W        W28916  16.308  29.963  11.951
63437W        W28917  30.145  36.870  14.764
63438W        W28918   8.173  22.698  12.485
63439W        W28919   8.709  41.458   1.877
63440W        W28920   6.210  25.166   0.731
63441W        W28921  13.283   3.886   2.287
63442W        W28922  10.876  26.177   2.287
63443W        W28923  12.310  16.760  14.498
63444W        W28924  19.147   6.226  14.339
63445W        W28925  44.367  10.213   4.638
63446W        W28926  40.500   4.847  12.029
63447W        W28927  44.457  31.101   2.319
63448W        W28928  27.954   6.913   1.795
63449W        W28929  43.882  11.635   4.292
63450W        W28930  23.177  15.703  11.520
63451W        W28931  10.842  26.514  11.442
63452W        W28932  10.193  27.176   4.636
63453W        W28933  44.492   8.256   2.792
63454W        W28934  11.151  35.584  10.496
63455W        W28935   2.745   2.810   3.256
63456W        W28936   7.833  33.537  13.852
63457W        W28937  33.477  26.049   1.262
63458W        W28938  39.994  10.781  13.546
63459W        W28939  35.590   8.327  12.003
63460W        W28940  42.921  11.851   1.822
63461W        W28941  34.402  15.257   0.846
63462W        W28942  27.540   2.347   0.785
63463W        W28943  35.472   9.650   3.254
63464W        W28944  36.555  16.611   2.324
63465W        W28945  37.848   9.309   0.388
63466W        W28946  31.967  42.902  11.119
63467W        W28947  26.659  35.358   4.170
63468W        W28948  26.130  37.988  13.368
63469W        W28949  42.935  36.066  12.396
63470W        W28950  21.046   7.825   0.952
63471W        W28951  18.552  18.053   4.125
63472W        W28952   6.202  19.683  11.881
63473W        W28953  37.950  39.926  11.495
63474W        W28954  35.428  12.810   4.252
63475W        W28955   9.740  34.870   4.666
63476W        W28956   7.835   1.880   3.187
63477W        W28957  41.386   5.424  13.316
63478W        W28958  35.041   1.409   1.720
63479W        W28959  16.209   2.399   4.752
63480W        W28960   1.866  24.524  13.004
63481W        W28961  32.038  20.225  13.851
63482W        W28962  12.741  32.393   4.232
63483W        W28963  10.773  44.841   4.245
63484W        W28964  21.092   6.880   0.769
63485W        W28965  37.490  25.100   4.246
63486W        W28966  33.106  40.472   2.340
63487W        W28967  26.516   9.735   0.403
63488W        W28968   9.385   1.898   4.146
63489W        W28969  20.242   0.289   2.233
63490W        W28970   2.909  44.850   0.276
63491W        W28971  28.680  38.450   5.673
63492W        W28972  43.010  15.140  13.890
63493W        W28973  39.426   9.293  11.470
63494W        W28974  36.453   4.284   4.304
63495W        W28975   3.428  29.961   4.262
63496W        W28976  28.036   8.841   1.443
63497W        W28977   1.947  24.125  14.768
63498W        W28978  41.933  31.455   2.277
63499W        W28979  15.731   2.376  13.836
63500W        W28980  14.277  11.847   3.344
63501W        W28981  36.056  30.921  13.064
63502W        W28982  23.617   9.355   1.391
63503W        W28983  38.030  39.549   1.787
63504W        W28984  13.674   5.885  13.015
63505W        W28985  18.147  33.497  14.928
63506W        W28986   0.298  31.584  10.890
63507W        W28987   5.356  12.122   1.815
63508W        W28988   9.270  40.957  12.570
63509W        W28989   5.285  29.140   4.671
63510W        W28990  14.658  36.357  10.439
63511W        W28991   8.391  16.196   0.882
63512W        W28992  43.983  40.906   2.718
63513W        W28993  38.868  44.836  10.590
63514W        W28994   6.312  11.215  10.035
63515W        W28995   6.865  42.423   4.818
63516W        W28996  39.512   5.329  12.953
63517W        W28997  13.107  16.243   2.828
63518W        W28998  17.626  14.741   1.727
63519W        W28999  24.547  13.800  11.920
63520W        W29000  35.443  32.423   0.265
63521W        W29001  11.722  19.157   4.198
63522W        W29002  19.610  21.728  12.457
63523W        W29003  40.016   3.278   1.735
63524W        W29004  34.478  24.681   4.253
63525W        W29005  17.755   0.386   1.931
63526W        W29006  40.899  18.572  12.933
63527W        W29007  14.802  33.992  11.519
63528W        W29008  29.980  29.530   0.327
63529W        W29009  22.631  12.171  13.323
63530W        W29010  44.465  42.325   2.899
63531W        W29011  25.151   9.336  13.925
63532W        W29012  27.128  39.546   1.748
63533W        W29013  24.043  16.170   3.284
63534W        W29014  34.425   7.255  14.030
63535W        W29015  26.141  25.197   4.810
63536W        W29016   0.986  15.127   2.669
63537W        W29017  10.183  35.881   1.753
63538W        W29018   8.347  22.723   1.821
63539W        W29019  20.533  34.453  12.870
63540W        W29020  28.128  11.296   1.432
63541W        W29021   0.960  36.867  13.919
63542W        W29022  43.928  12.657  10.606
63543W        W29023  44.971  25.543   1.286
63544W        W29024  28.448  13.224  10.501
63545W        W29025  44.882   1.842  11.459
63546W        W29026  17.232  14.618  12.914
63547W        W29027   4.736  17.774  10.524
63548W        W29028  27.194   0.252  12.535
63549W        W29029  44.791  39.843   0.810
63550W        W29030  16.270  22.067   2.177
63551W        W29031  39.058   8.742  14.347
63552W        W29032  27.987   2.375   1.873
63553W        W29033  36.528   4.417   1.298
63554W        W29034   1.733  25.177   0.912
63555W        W29035  37.050  34.413  13.537
63556W        W29036  28.166  29.550   4.712
63557W        W29037  42.281  25.668  12.884
63558W        W29038  38.386   2.873   2.216
63559W        W29039  40.484  39.424   4.236
63560W        W29040  39.018  29.508   0.840
63561W        W29041  16.782  35.965   1.285
63562W        W29042  36.857  26.664   2.366
63563W        W29043  23.139  44.942  13.987
63564W        W29044  10.227  44.500  11.608
63565W        W29045  22.048   4.378  12.555
63566W        W29046  33.111  44.413  10.973
63567W        W29047  31.064   5.775   3.311
63568W        W29048  32.998  29.976   2.235
63569W        W29049  23.211  14.638  12.445
63570W        W29050  37.468  42.015  13.918
63571W        W29051  19.170   0.345  10.511
63572W        W29052  32.068  21.576  14.347
63573W        W29053   0.440  41.837   1.739
63574W        W29054   7.379  20.544   4.135
63575W        W29055  43.861  24.224  10.950
63576W        W29056  40.484  26.095   3.238
63577W        W29057  44.866  34.970   0.763
63578W        W29058  28.461  35.438  11.944
63579W        W29059   2.388  14.775   0.737
63580W        W29060  36.397   0.343   3.255
63581W        W29061  35.091  11.367   2.782
63582W        W29062  30.138  41.504  11.418
63583W        W29063   2.807   8.731  13.018
63584W        W29064  41.320  26.550  13.889
63585W        W29065  27.004   6.706   0.251
63586W        W29066   1.742  32.562  11.945
63587W        W29067  41.468  35.997   2.284
63588W        W29068  33.941  36.057  13.795
63589W        W29069  37.082  40.417   4.665
63590W        W29070  43.802   3.458  12.414
63591W        W29071  10.181  26.490   4.788
63592W        W29072   6.814  27.014  13.371
63593W        W29073  41.537  34.406  13.459
63594W        W29074  11.725  24.185  12.837
63595W        W29075  21.041  42.447   2.381
63596W        W29076  34.448   6.264  11.068
63597W        W29077  24.167  35.437   2.208
63598W        W29078  34.500   5.371   2.850
63599W        W29079  31.012  20.135   4.212
63600W        W29080  38.968  33.391   1.925
63601W        W29081  35.473  33.896   4.694
63602W        W29082  20.609   7.248  13.944
63603W        W29083   0.328  14.108   0.267
63604W        W29084   4.765   7.866   4.317
63605W        W29085  44.969   9.165   3.682
63606W        W29086  18.157   9.656  10.888
63607W        W29087   2.764  26.078   1.325
63608W        W29088  34.551  21.200   4.801
63609W        W29089  14.330  31.621  11.591
63610W        W29090  29.003  35.001   0.398
63611W        W29091  15.661  42.284   1.268
63612W        W29092  29.487  34.945  11.054
63613W        W29093  30.961  26.694   9.927
63614W        W29094  42.894  14.304  12.574
63615W        W29095  15.285  39.360  13.547
63616W        W29096  11.331  33.439  11.010
63617W        W29097  27.006  43.789  14.864
63618W        W29098  43.413  33.009  13.463
63619W        W29099   6.318  21.220  12.015
63620W        W29100  15.232  41.901   2.836
63621W        W29101  24.679  14.251   2.381
63622W        W29102  31.082  32.497   1.257
63623W        W29103  43.436  39.998  13.501
63624W        W29104  41.960  36.020   0.778
63625W        W29105  14.097  29.117   0.276
63626W        W29106  27.533  22.251  10.438
63627W        W29107   1.798  16.692  11.448
63628W        W29108   3.278   3.407  10.536
63629W        W29109  25.059  38.340   3.218
63630W        W29110  23.676  16.282   1.916
63631W        W29111  34.099   8.823  12.407
63632W        W29112   9.250  22.244   3.242
63633W        W29113  27.062  36.432   1.335
63634W        W29114  36.367  19.638   2.297
63635W        W29115  37.447  22.063   0.331
63636W        W29116  38.374  26.544   2.842
63637W        W29117  17.226  14.683  13.995
63638W        W29118  12.810  43.975  11.016
63639W        W29119  20.259  41.301   2.188
63640W        W29120   0.349  25.474   4.141
63641W        W29121   6.247  16.761  14.880
63642W        W29122   1.754  33.949  12.066
63643W        W29123  38.453  30.132   3.206
63644W        W29124  18.587  18.101   5.272
63645W        W29125  16.706  43.445  12.490
63646W        W29126   7.705  16.796   0.463
63647W        W29127  16.104   3.380  13.503
63648W        W29128  32.999   0.315   2.816
63649W        W29129  36.951  24.633   1.289
63650W        W29130   8.160   8.242  13.825
63651W        W29131  23.549   2.284  12.061
63652W        W29132   9.230   7.863   2.418
63653W        W29133   7.339  30.593   3.661
63654W        W29134  13.657   4.257   4.246
63655W        W29135  40.824  25.062   0.260
63656W        W29136  33.394  38.933   3.265
63657W        W29137  40.873  15.292   3.734
63658W        W29138  13.828  19.598  13.929
63659W        W29139  11.224  28.072  11.523
63660W        W29140  43.283  11.259   3.749
63661W        W29141  41.301   6.836  11.434
63662W        W29142   9.821  24.191  11.038
63663W        W29143   4.320  31.897  12.369
63664W        W29144  26.034  44.842   3.821
63665W        W29145  34.987   8.225  11.563
63666W        W29146  13.600  25.019   1.280
63667W        W29147   7.269   9.251   2.411
63668W        W29148  31.636  29.003  13.045
63669W        W29149  16.689  14.611   1.264
63670W        W29150  11.190  21.686  12.459
63671W        W29151  25.050  18.687   2.349
63672W        W29152  15.143  32.063  12.914
63673W        W29153  18.242  41.822  14.820
63674W        W29154  32.023  33.417   4.282
63675W        W29155  20.189  27.526  12.933
63676W        W29156   9.362  21.162   0.910
63677W        W29157  32.529  20.159   3.223
63678W        W29158   8.889  23.714  13.506
63679W        W29159  19.641  43.303  13.527
63680W        W29160   2.317  10.370  10.894
63681W        W29161   1.447  26.049  11.888
63682W        W29162  33.598  44.304   0.805
63683W        W29163  28.643  39.019   4.709
63684W        W29164  33.112  29.663  14.850
63685W        W29165   7.214  22.609  11.984
63686W        W29166  28.132   4.433   3.322
63687W        W29167  39.506  12.794   4.342
63688W        W29168  18.651  14.298   3.682
63689W        W29169  13.292  26.655   3.148
63690W        W29170  37.537  12.343  14.932
63691W        W29171  25.132   7.814   3.238
63692W        W29172  28.987  32.970  13.864
63693W        W29173  38.909  35.041  14.370
63694W        W29174  43.766  17.254  12.505
63695W        W29175  41.833   9.390  14.401
63696W        W29176  35.604  11.296  14.340
63697W        W29177  24.220  39.877   4.330
63698W        W29178  43.272  23.997  10.906
63699W        W29179  17.800  34.528  12.923
63700W        W29180  18.064  41.882   1.824
63701W        W29181   0.333  39.007  14.455
63702W        W29182  37.872  38.403   4.794
63703W        W29183  11.715  16.724  14.510
63704W        W29184  14.729  24.677  12.838
63705W        W29185  25.662  19.076  11.519
63706W        W29186  43.292  25.118   5.085
63707W        W29187  29.990  33.984   1.725
63708W        W29188  27.061  24.206   3.858
63709W        W29189  27.637  42.910   0.262
63710W        W29190  21.068  40.968   0.834
63711W        W29191  23.012   1.254  13.843
63712W        W29192  42.441   7.337  14.431
63713W        W29193  30.973  30.471   2.188
63714W        W29194  17.302  19.545  13.543
63715W        W29195  18.778  18.179   4.654
63716W        W29196   7.377  22.052  11.067
63717W        W29197  32.423  17.083  11.979
63718W        W29198   1.864   8.231   1.388
63719W        W29199   9.380  32.499   2.371
63720W        W29200  17.563   9.287  13.524
63721W        W29201  14.309   8.670  10.607
63722W        W29202  41.306  22.599   4.274
63723W        W29203   8.798  24.121   3.835
63724W        W29204  20.131  24.520  14.385
63725W        W29205  18.656  25.213   2.368
63726W        W29206  22.050  36.885   2.704
63727W        W29207  29.004  35.370   3.827
63728W        W29208  32.475  24.536   2.881
63729W        W29209  41.995  22.731  13.419
63730W        W29210   8.872  37.015   0.726
63731W        W29211  42.812  39.428   3.639
63732W        W29212   1.342  10.792  13.865
63733W        W29213  22.153  18.069  12.834
63734W        W29214   0.788  38.520  12.498
63735W        W29215  14.600  13.161  13.928
63736W        W29216   1.451   0.882  10.904
63737W        W29217  28.483  34.975  14.386
63738W        W29218  36.020  38.359  14.393
63739W        W29219  24.122  34.423  12.506
63740W        W29220  29.499  41.851   0.449
63741W        W29221  28.069  13.228  13.962
63742W        W29222  16.261  10.649   0.298
63743W        W29223  12.313  26.526   4.115
63744W        W29224  44.832   8.282   0.749
63745W        W29225  28.648  28.656  12.400
63746W        W29226  21.108  30.989   5.168
63747W        W29227  12.206   5.783  14.286
63748W        W29228  12.269   8.754   2.373
63749W        W29229  10.847  30.542  14.299
63750W        W29230  16.242  37.399   1.434
63751W        W29231  30.453   1.471  11.078
63752W        W29232  30.139  21.531   4.165
63753W        W29233  38.443  18.134   0.783
63754W        W29234  43.975  10.296   1.832
63755W        W29235   6.788  35.387  12.004
63756W        W29236   8.328  29.160  14.485
63757W        W29237  29.438  13.603   1.830
63758W        W29238  31.948  25.656   5.272
63759W        W29239  12.650   4.246   0.339
63760W        W29240  40.375  14.225  11.089
63761W        W29241  32.061   4.825   1.905
63762W        W29242  29.160  27.669  10.987
63763W        W29243  13.845  23.224  12.070
63764W        W29244   2.875  20.100  12.908
63765W        W29245  12.651  28.171  14.396
63766W        W29246  27.003  13.823  10.503
63767W        W29247  22.246  13.795   3.259
63768W        W29248  11.652  19.665   5.143
63769W        W29249  39.362  14.738  13.422
63770W        W29250   4.838  20.710   3.753
63771W        W29251  39.948  35.521   1.392
63772W        W29252  32.546   0.329   5.211
63773W        W29253  17.287  24.123   3.234
63774W        W29254  33.517  38.863  12.443
63775W        W29255  44.804  16.078  14.384
63776W        W29256  20.630   1.323   3.340
63777W        W29257   6.361   7.414  11.449
63778W        W29258  33.012  30.578   1.336
63779W        W29259   3.428  11.256   1.759
63780W        W29260  35.072   9.352   3.221
63781W        W29261  34.933   2.927  11.568
63782W        W29262  28.649  33.047  11.429
63783W        W29263   2.893   8.880  14.513
63784W        W29264  21.174  20.694   2.401
63785W        W29265  24.203  13.110   3.372
63786W        W29266  20.593  21.643   4.261
63787W        W29267  13.625  42.785   4.325
63788W        W29268  33.571  26.106  12.393
63789W        W29269  36.514  13.186   0.270
63790W        W29270  27.092  18.656   0.270
63791W        W29271   5.251   2.325   2.388
63792W        W29272  15.252  14.606   2.322
63793W        W29273  33.475  28.008   3.252
63794W        W29274  19.568   5.910  14.298
63795W        W29275  22.599  19.663   1.275
63796W        W29276  43.004   0.403  13.960
63797W        W29277  40.360  18.619  14.831
63798W        W29278  16.738  11.669   1.794
63799W        W29279  26.090  21.728  14.395
63800W        W29280  41.936  19.748   1.449
63801W        W29281  23.514  27.567   1.922
63802W        W29282  24.979  12.839   3.861
63803W        W29283  33.591  29.670   0.310
63804W        W29284  12.652  18.104   0.885
63805W        W29285  32.491  27.118  11.910
63806W        W29286   9.188  23.190   2.392
63807W        W29287  44.310  34.091  14.336
63808W        W29288  41.789   8.239  14.414
63809W        W29289  35.400  23.680   4.178
63810W        W29290  18.109  10.795  11.382
63811W        W29291   1.907  44.990  11.123
63812W        W29292  12.186  16.305  14.291
63813W        W29293  15.785  13.217   4.227
63814W        W29294   7.804  18.784  13.342
63815W        W29295  37.543   6.920  13.944
63816W        W29296  25.542  25.072   1.277
63817W        W29297   1.238  35.001  14.475
63818W        W29298   0.262  29.953  10.970
63819W        W29299  10.303  15.285   9.982
63820W        W29300  29.507   2.944  10.515
63821W        W29301  33.059  15.592  13.540
63822W        W29302  18.079  42.481  12.415
63823W        W29303  23.497  32.393   1.360
63824W        W29304  40.323  44.475  11.383
63825W        W29305  43.986  15.724  11.407
63826W        W29306   4.847   4.823  11.596
63827W        W29307  22.186   8.757   0.846
63828W        W29308  39.376  13.655   4.195
63829W        W29309  40.033   6.912  11.112
63830W        W29310  26.083   2.869  13.457
63831W        W29311  15.723  32.432   0.329
63832W        W29312  36.371  43.778  11.093
63833W        W29313  13.115  10.254   5.198
63834W        W29314   9.268  36.944  13.859
63835W        W29315  37.540  44.872   2.216
63836W        W29316  30.079  33.566  13.792
63837W        W29317  38.063  41.476  10.997
63838W        W29318  26.616   8.677   4.656
63839W        W29319   6.337  29.510  12.952
63840W        W29320  14.331   7.710  10.435
63841W        W29321  40.325  37.459   1.290
63842W        W29322  38.993  16.626   0.300
63843W        W29323  37.866  29.068  12.079
63844W        W29324  20.761  15.164  14.489
63845W        W29325   0.885   1.906   2.749
63846W        W29326  33.504  24.184  14.851
63847W        W29327  44.923  15.660   3.693
63848W        W29328  31.403  39.030   1.262
63849W        W29329  38.057  43.357  10.474
63850W        W29330  44.362  19.059  10.955
63851W        W29331  16.752  20.722   2.202
63852W        W29332  25.584   7.673  10.474
63853W        W29333  37.867   9.697   2.272
63854W        W29334  42.956   0.403   1.378
63855W        W29335  40.495  12.345  14.979
63856W        W29336  30.524   9.799   3.353
63857W        W29337  12.798  33.010   2.769
63858W        W29338  44.443   6.857   3.151
63859W        W29339  36.418   1.402   3.371
63860W        W29340   1.392   7.274  13.417
63861W        W29341  26.135  27.574   3.210
63862W        W29342   1.764  12.324   4.817
63863W        W29343  17.577   1.236   3.381
63864W        W29344  42.966  19.588  12.524
63865W        W29345  33.012  35.439   3.655
63866W        W29346  30.458  15.121   2.792
63867W        W29347  18.787  16.569  11.417
63868W        W29348  39.459  10.161  11.441
63869W        W29349  23.120  21.094   4.766
63870W        W29350  30.125   5.782  14.980
63871W        W29351  42.374  34.380  13.837
63872W        W29352  40.495  43.795   1.741
63873W        W29353  30.553  30.015  11.108
63874W        W29354  34.062  11.177   0.404
63875W        W29355  40.348  27.059  10.607
63876W        W29356  38.462  34.886  13.035
63877W        W29357  37.962  41.944   2.870
63878W        W29358   9.177  19.651   2.290
63879W        W29359  23.027  34.059  13.991
63880W        W29360  38.056  28.497   4.228
63881W        W29361  29.077   1.866  14.358
63882W        W29362  39.366  10.796   0.869
63883W        W29363   2.754  28.090  14.274
63884W        W29364   7.712  31.533  12.013
63885W        W29365  12.157  25.567   0.292
63886W        W29366   6.692  34.483   4.710
63887W        W29367  20.592  30.621   3.817
63888W        W29368  36.437  13.241   3.844
63889W        W29369  10.305  30.563   3.239
63890W        W29370  30.556  40.048  10.591
63891W        W29371  33.032  33.455  14.801
63892W        W29372  42.443  41.988   1.869
63893W        W29373  40.415  13.758  13.917
63894W        W29374  10.751   5.839   2.801
63895W        W29375   0.247  22.665   3.209
63896W        W29376  15.698  20.757  10.633
63897W        W29377  13.758  15.673  13.002
63898W        W29378   7.225  26.976  14.412
63899W        W29379  36.473  31.090  12.091
63900W        W29380   1.429  21.089   3.838
63901W        W29381  42.026  42.014   1.290
63902W        W29382   3.944  29.005   4.779
63903W        W29383   3.917  10.796   4.697
63904W        W29384  36.986   3.789  13.862
63905W        W29385  18.194  14.301   2.283
63906W        W29386  33.086   9.756   2.825
63907W        W29387  38.517   8.339  12.963
63908W        W29388  22.089  15.617  13.373
63909W        W29389  36.456  16.311  14.859
63910W        W29390  21.610   0.759  10.968
63911W        W29391  43.865  29.024   4.198
63912W        W29392  25.065  10.721  13.512
63913W        W29393   2.381  20.038   0.902
63914W        W29394  35.900  44.970  10.585
63915W        W29395  31.579  31.914  14.914
63916W        W29396  26.991   4.306   3.773
63917W        W29397   7.727  21.599  12.513
63918W        W29398  40.986  15.735  11.924
63919W        W29399  25.096  13.124   0.902
63920W        W29400  29.091  27.629   4.725
63921W        W29401  24.154   0.798   0.935
63922W        W29402  30.042  14.282   0.384
63923W        W29403  18.675  13.780  14.471
63924W        W29404  43.950  35.993   2.885
63925W        W29405   2.789  40.477   2.202
63926W        W29406  17.130   5.245   3.691
63927W        W29407   9.227   5.200   1.897
63928W        W29408  23.003   5.844   4.136
63929W        W29409  33.623  36.413   1.254
63930W        W29410   2.901  29.075  10.951
63931W        W29411  23.695  33.622   2.336
63932W        W29412   7.254  23.216   3.277
63933W        W29413  15.304  22.732   3.341
63934W        W29414  22.696  32.008  14.835
63935W        W29415  21.647   6.224   0.348
63936W        W29416  31.594  39.880  13.489
63937W        W29417  35.869  37.547  14.902
63938W        W29418  37.033   9.238   3.733
63939W        W29419  36.858  19.273  11.084
63940W        W29420  44.419   8.837   2.370
63941W        W29421  33.023  16.582  14.795
63942W        W29422  31.054  19.734   4.224
63943W        W29423   2.728  19.216   1.409
63944W        W29424  32.012  15.259  12.350
63945W        W29425  11.203  13.647  13.008
63946W        W29426  37.341   5.388   2.180
63947W        W29427  10.217  43.863  12.369
63948W        W29428  25.080  15.637   4.629
63949W        W29429  24.093  23.536  12.391
63950W        W29430  44.005   4.262   4.288
63951W        W29431  43.973  34.447  14.934
63952W        W29432  22.746   6.336  13.836
63953W        W29433  42.434  15.774  12.825
63954W        W29434  41.827   3.795  10.525
63955W        W29435  26.552  43.965   2.763
63956W        W29436  33.079  25.126   4.160
63957W        W29437  12.773  42.967   0.433
63958W        W29438  26.150   8.744  12.839
63959W        W29439  20.204  12.809   2.861
63960W        W29440   8.257  43.508   4.342
63961W        W29441  39.053  16.760   4.292
63962W        W29442  31.115   3.936   1.872
63963W        W29443  19.651   5.291   3.240
63964W        W29444  32.629  12.630  12.037
63965W        W29445  17.574   8.404   1.832
63966W        W29446  25.019  31.604  11.580
63967W        W29447   6.297   1.775  14.797
63968W        W29448  13.173  33.008   0.947
63969W        W29449  33.507  34.987  11.027
63970W        W29450  19.143  28.515  14.298
63971W        W29451   6.329  30.496   1.368
63972W        W29452  18.140  23.733   1.366
63973W        W29453  35.093  40.387   3.672
63974W        W29454  26.516  29.580  13.337
63975W        W29455  43.488  35.507  14.304
63976W        W29456  40.504  39.448   1.925
63977W        W29457  17.643  13.216   3.372
63978W        W29458   4.375  42.899   0.285
63979W        W29459  43.841  39.525   0.892
63980W        W29460   7.807  33.944   0.331
63981W        W29461   9.305  22.064   4.737
63982W        W29462  20.120  38.567  12.577
63983W        W29463  26.681  43.297   3.808
63984W        W29464  28.077  18.054   1.747
63985W        W29465  26.981  38.870  11.903
63986W        W29466  26.202  19.576  13.475
63987W        W29467  17.063   9.329  12.064
63988W        W29468  27.656  19.128  13.804
63989W        W29469  39.831  23.232  10.591
63990W        W29470  21.553   7.297  11.412
63991W        W29471  43.975  40.860   2.345
63992W        W29472  26.056  34.492   2.670
63993W        W29473  25.514   1.256   4.348
63994W        W29474  40.890  37.452   2.858
63995W        W29475  20.053  30.928  14.783
63996W        W29476  17.062  42.319   3.704
63997W        W29477  15.220   9.656  13.040
63998W        W29478   6.373   3.311  13.354
63999W        W29479  15.740  41.973  11.453
64000W        W29480  37.084  32.458  13.408
64001W        W29481  35.462  34.524   4.729
64002W        W29482  38.983   6.400  14.448
64003W        W29483   8.878  13.255  13.316
64004W        W29484  33.979  13.796   4.135
64005W        W29485  11.647   3.777  13.320
64006W        W29486  43.852  38.899  10.423
64007W        W29487  19.245  33.095  13.308
64008W        W29488   0.491  27.960   2.408
64009W        W29489  20.083  23.237   3.169
64010W        W29490  30.520  44.911  12.075
64011W        W29491  40.881  24.990  13.935
64012W        W29492  43.015  37.003   2.873
64013W        W29493   9.222   4.816   9.950
64014W        W29494  27.140  16.249  11.876
64015W        W29495   1.241   6.752   2.182
64016W        W29496  13.246  22.072   2.812
64017W        W29497  33.388  40.944  11.544
64018W        W29498   9.203  22.571   2.380
64019W        W29499  10.178  27.663  12.934
64020W        W29500  28.587  33.891   4.148
64021W        W29501  41.392  32.074  12.467
64022W        W29502  37.495   1.765   0.272
64023W        W29503  35.521   9.289  12.474
64024W        W29504  25.500  38.906  13.018
64025W        W29505  31.946  12.292  11.604
64026W        W29506  19.586  15.184  14.011
64027W        W29507  16.236  36.349   2.255
64028W        W29508   2.771  37.409   4.265
64029W        W29509  11.653  12.652  13.881
64030W        W29510   8.190  44.305  10.107
64031W        W29511  12.134  33.492  12.027
64032W        W29512  40.427   5.856  13.515
64033W        W29513  24.198  11.849  12.979
64034W        W29514  44.400   6.421  12.964
64035W        W29515  33.058  18.262  14.437
64036W        W29516  43.478   7.314  12.079
64037W        W29517  36.099  21.645   1.873
64038W        W29518  32.949  33.473   2.901
64039W        W29519  14.318  12.848   4.726
64040W        W29520   3.303  26.689  10.560
64041W        W29521  40.367  39.054  13.518
64042W        W29522  21.164  15.805  11.416
64043W        W29523  26.061  14.247   0.261
64044W        W29524  34.555  42.856   2.250
64045W        W29525  33.028  43.876  12.535
64046W        W29526  40.376  39.830  10.589
64047W        W29527   5.892  25.562  13.338
64048W        W29528  32.601   4.225   2.193
64049W        W29529   4.734  44.865   0.287
64050W        W29530  13.823  44.474  11.864
64051W        W29531  25.543   0.750  11.017
64052W        W29532   5.259  11.228  13.985
64053W        W29533   3.827  41.445   3.242
64054W        W29534  38.349  16.271  11.921
64055W        W29535  17.707   0.923   1.238
64056W        W29536  23.733   8.210  11.495
64057W        W29537  44.933   8.179   1.894
64058W        W29538  15.648   9.845   4.737
64059W        W29539  14.123  32.433  11.392
64060W        W29540  17.760  30.980   4.681
64061W        W29541   9.335  19.208  13.807
64062W        W29542  22.635  21.598   3.858
64063W        W29543   9.196  32.086   5.181
64064W        W29544   8.243  14.289  13.898
64065W        W29545  18.768  35.599   2.189
64066W        W29546  20.182  18.147   1.350
64067W        W29547  37.079  10.281  10.947
64068W        W29548  25.533   6.189  12.376
64069W        W29549   9.321  33.542   1.887
64070W        W29550  39.888  43.327   4.297
64071W        W29551   5.253  36.024  13.428
64072W        W29552   4.741  32.103   0.885
64073W        W29553  24.701  18.629  14.296
64074W        W29554  20.672   9.150   2.695
64075W        W29555   7.341  35.956  11.972
64076W        W29556  37.492  17.257   2.374
64077W        W29557   1.946  38.039  14.997
64078W        W29558   7.739  25.632   4.335
64079W        W29559  21.027  28.108   2.399
64080W        W29560  21.604  20.075   0.860
64081W        W29561  10.769  22.656   9.951
64082W        W29562  30.543  20.597  11.913
64083W        W29563  26.536   2.418   2.840
64084W        W29564   6.415  44.305   4.127
64085W        W29565  32.990   3.391   2.880
64086W        W29566  19.737  18.097  11.063
64087W        W29567   7.666   6.216   0.747
64088W        W29568  12.229   0.427  14.320
64089W        W29569  37.422   2.318   1.855
64090W        W29570  35.450  25.650  13.358
64091W        W29571   1.838  24.231   3.320
64092W        W29572  19.755   9.373  14.329
64093W        W29573   3.272  40.912   2.238
64094W        W29574  37.008  11.856  13.314
64095W        W29575  21.662  16.650   1.419
64096W        W29576  24.555  35.011   3.687
64097W        W29577  34.871   0.817  13.518
64098W        W29578  17.786  24.975  11.909
64099W        W29579  29.050  44.000  11.090
64100W        W29580  31.123  23.146   4.143
64101W        W29581  20.663  33.558  14.808
64102W        W29582  11.750  35.991  12.065
64103W        W29583  35.424  33.886   1.791
64104W        W29584  15.647  20.159   1.256
64105W        W29585   5.852  13.126   0.945
64106W        W29586  30.072  39.932  12.878
64107W        W29587  36.007  20.671   3.785
64108W        W29588  36.354  20.605  10.487
64109W        W29589   9.273  20.077   0.754
64110W        W29590  25.092   0.886  10.458
64111W        W29591   9.657   5.691  13.973
64112W        W29592  20.227   9.298   3.150
64113W        W29593  20.694   9.374  10.962
64114W        W29594  15.687  17.688  12.571
64115W        W29595   4.239  27.603  14.399
64116W        W29596  11.256  40.943   2.787
64117W        W29597  31.483  22.130  11.009
64118W        W29598  24.522  14.307  10.609
64119W        W29599  17.277  23.623  13.900
64120W        W29600  37.346  21.678  14.475
64121W        W29601  30.444  18.167  12.486
64122W        W29602  37.937  32.405   1.920
64123W        W29603  23.567  21.626   1.785
64124W        W29604   5.196  33.581   0.821
64125W        W29605   5.788  38.472  13.486
64126W        W29606   4.384   3.906   2.823
64127W        W29607   1.384  11.775  12.438
64128W        W29608  10.315  16.707  14.408
64129W        W29609  31.446   0.394  10.580
64130W        W29610  44.408  23.699   0.309
64131W        W29611  25.601  24.550  12.467
64132W        W29612  11.637  29.156   1.350
64133W        W29613  36.074  16.641  14.763
64134W        W29614  41.432  38.496   3.274
64135W        W29615  17.597  11.139  14.410
64136W        W29616   1.950   7.288  12.044
64137W        W29617  17.260  42.343   2.264
64138W        W29618  23.604  43.917   2.302
64139W        W29619  33.072  30.642   0.861
64140W        W29620  27.667  23.145   4.648
64141W        W29621  21.236   7.849   1.384
64142W        W29622  23.167  25.472  11.951
64143W        W29623   4.381  38.073   0.307
64144W        W29624  15.813  44.385   0.246
64145W        W29625  38.826  28.989  12.506
64146W        W29626   0.970  39.451   3.281
64147W        W29627  18.275  19.698   0.869
64148W        W29628  20.108  33.886  12.955
64149W        W29629  33.030   6.371   4.158
64150W        W29630   2.395   4.255   2.303
64151W        W29631  40.044  28.008   3.188
64152W        W29632   0.373  22.535  11.058
64153W        W29633  17.755   1.261  12.011
64154W        W29634  38.478  34.496   3.306
64155W        W29635  19.663  11.366   2.861
64156W        W29636  25.995   1.799   3.838
64157W        W29637  19.057   0.965  13.312
64158W        W29638  36.427  13.302   5.177
64159W        W29639   7.719  29.137  14.494
64160W        W29640  41.361  17.307   4.192
64161W        W29641   2.340  29.628   2.414
64162W        W29642  37.457  22.537  13.417
64163W        W29643   0.975   6.918   2.185
64164W        W29644  29.574  29.635   0.317
64165W        W29645  29.117  43.463  11.925
64166W        W29646   4.891   1.418  14.340
64167W        W29647  22.592  43.903   0.333
64168W        W29648  24.690  20.764   0.374
64169W        W29649  43.798  10.725   3.694
64170W        W29650  35.491   1.470  14.329
64171W        W29651  13.133  40.348  14.869
64172W        W29652   0.342  15.148  11.059
64173W        W29653  32.037  24.644   2.844
64174W        W29654  37.050  23.059  11.096
64175W        W29655  31.947  20.714  14.921
64176W        W29656   1.934   1.959  12.570
64177W        W29657  28.625  25.615  14.467
64178W        W29658   1.336  29.430   2.319
64179W        W29659  13.129  16.719   3.327
64180W        W29660  27.449  11.770  11.489
64181W        W29661  16.218  16.695   1.251
64182W        W29662  14.663  37.983   0.303
64183W        W29663  39.454   2.931  12.469
64184W        W29664  27.027  41.484  10.473
64185W        W29665  42.862  34.090  12.001
64186W        W29666  12.216  30.535  13.493
64187W        W29667  21.143  22.035  12.489
64188W        W29668  44.299  33.932   2.221
64189W        W29669  36.091  19.258  13.442
64190W        W29670  34.997   9.366  12.973
64191W        W29671  19.748  36.378   2.686
64192W        W29672  15.125   7.765   0.353
64193W        W29673  18.219  28.536   5.197
64194W        W29674  20.603  20.256   3.835
64195W        W29675  12.719   5.849  12.918
64196W        W29676  33.043   4.297   2.883
64197W        W29677   4.783   0.320  12.999
64198W        W29678  12.256  42.459  13.856
64199W        W29679  21.547  31.548  14.872
64200W        W29680  44.489   4.731  10.434
64201W        W29681   1.315  44.007  11.481
64202W        W29682  17.065  16.804   3.150
64203W        W29683  42.888  40.996   1.821
64204W        W29684  29.553  25.520   3.632
64205W        W29685   6.322   3.269   3.640
64206W        W29686   6.426   8.215   3.781
64207W        W29687  39.836  31.954   1.246
64208W        W29688  36.567  16.148   0.462
64209W        W29689  36.968   6.188   2.741
64210W        W29690  17.634  28.562  12.408
64211W        W29691  44.850  20.247  11.418
64212W        W29692  12.701  12.754  14.510
64213W        W29693  42.497  11.842  10.987
64214W        W29694  30.572  38.381   1.272
64215W        W29695  30.939  24.596   4.799
64216W        W29696  23.499  40.519  14.812
64217W        W29697   2.805  30.659  13.892
64218W        W29698   6.765  14.632  10.983
64219W        W29699  33.444  10.318  11.603
64220W        W29700  17.725  11.737  12.892
64221W        W29701  32.586   4.419  12.020
64222W        W29702  18.625  43.809   2.321
64223W        W29703  25.145  31.087  10.629
64224W        W29704  21.608  43.489   1.437
64225W        W29705  34.900   3.432  12.956
64226W        W29706   2.272   7.335   4.285
64227W        W29707  38.963  22.247   0.774
64228W        W29708  33.028  44.850   4.838
64229W        W29709  10.768   2.733  10.540
64230W        W29710  30.053  35.497  11.094
64231W        W29711  32.416  34.922  12.068
64232W        W29712  44.465  33.536  14.967
64233W        W29713  16.684  41.999  12.387
64234W        W29714   5.698   9.245  13.335
64235W        W29715  36.904  35.556  12.960
64236W        W29716  14.318   6.306   5.249
64237W        W29717   6.770   9.277   4.172
64238W        W29718  29.645  27.979  14.834
64239W        W29719  23.234  10.731   2.190
64240W        W29720   5.709   5.829   0.761
64241W        W29721   7.325  12.247  10.467
64242W        W29722  18.743   8.260  11.531
64243W        W29723  26.966  22.582   1.266
64244W        W29724   7.681  13.697   0.353
64245W        W29725  38.979  25.508   0.328
64246W        W29726  21.636   0.363   1.248
64247W        W29727  28.629  11.251   3.669
64248W        W29728   6.735  23.146   3.171
64249W        W29729  25.682  40.976   0.851
64250W        W29730   1.863  20.653  10.906
64251W        W29731   6.297  23.544  11.541
64252W        W29732  37.082  27.466  11.525
64253W        W29733  42.956  14.331  10.584
64254W        W29734  19.153  42.348  12.404
64255W        W29735   5.819  23.023  12.037
64256W        W29736   1.740  41.985   3.251
64257W        W29737   8.277   8.177  11.022
64258W        W29738  22.581  22.099   3.184
64259W        W29739  13.105   8.344   0.729
64260W        W29740   9.374   4.777  12.459
64261W        W29741  29.992  18.674   0.343
64262W        W29742  30.078  21.224   3.824
64263W        W29743   9.666  42.803   1.346
64264W        W29744  24.977  14.741  13.538
64265W        W29745   0.762  38.931  12.858
64266W        W29746   5.834  44.443  10.520
64267W        W29747   1.259  29.087   4.250
64268W        W29748  27.649  33.440   1.830
64269W        W29749  21.583  37.025  14.965
64270W        W29750  32.919  34.567   1.245
64271W        W29751  31.985  28.536   4.609
64272W        W29752  11.719  10.828  11.527
64273W        W29753  41.486  21.583   4.784
64274W        W29754  44.468  28.006   1.239
64275W        W29755  23.502   7.306   4.119
64276W        W29756   7.410  34.593  14.373
64277W        W29757  43.296   4.215  13.324
64278W        W29758  25.701  15.190   0.776
64279W        W29759  15.733  37.031  12.073
64280W        W29760   2.392   9.802  14.966
64281W        W29761  12.659   5.275   1.305
64282W        W29762  14.225  29.621   1.792
64283W        W29763  38.521   9.288   1.727
64284W        W29764  22.100  41.923  14.413
64285W        W29765  32.540  14.239   1.281
64286W        W29766  40.995  17.066  14.296
64287W        W29767  26.097   8.163  12.495
64288W        W29768  25.179  33.432   3.198
64289W        W29769  27.635   8.305  12.867
64290W        W29770  17.744  11.292   0.449
64291W        W29771  27.002  29.094  14.996
64292W        W29772  33.899  13.147   3.686
64293W        W29773  10.357   7.183   5.250
64294W        W29774  12.202   6.314  12.363
64295W        W29775  12.701   5.276  14.942
64296W        W29776   4.272   0.865  12.563
64297W        W29777  20.592  30.501   0.728
64298W        W29778   1.766   3.244   4.598
64299W        W29779   2.245  31.025  12.500
64300W        W29780  11.672  22.602  11.512
64301W        W29781  31.976  42.980  14.463
64302W        W29782   8.685  40.505  12.547
64303W        W29783   5.328  35.550   0.364
64304W        W29784   5.815  10.241   3.632
64305W        W29785   3.234  12.832   3.338
64306W        W29786  12.147  11.197  12.008
64307W        W29787  37.534  20.691  12.430
64308W        W29788  18.059  43.455   3.787
64309W        W29789  28.126  28.077   3.160
64310W        W29790   4.243  27.998   3.246
64311W        W29791  14.225  17.794   1.403
64312W        W29792   5.417   2.390  11.989
64313W        W29793   7.285  27.942   0.375
64314W        W29794  38.962   9.800   2.365
64315W        W29795   1.881   6.324   2.412
64316W        W29796  31.486   4.237  10.454
64317W        W29797  33.092  34.503  12.992
64318W        W29798  25.972  41.843  11.954
64319W        W29799  34.999  15.629   0.785
64320W        W29800   6.212  10.298   1.810
64321W        W29801   8.741  23.695  13.832
64322W        W29802  28.028  28.476  14.428
64323W        W29803   2.728  34.864   3.340
64324W        W29804  41.464  41.296   1.231
64325W        W29805  31.052  37.419   1.902
64326W        W29806  28.039  27.684   4.282
64327W        W29807  38.556  13.822  13.050
64328W        W29808  39.814  10.646  10.422
64329W        W29809  37.488  21.194  10.958
64330W        W29810  27.146  10.183  12.551
64331W        W29811  22.064  22.648   2.802
64332W        W29812  37.858  27.537   3.346
64333W        W29813  37.841   4.395  11.044
64334W        W29814   5.790  39.434   4.327
64335W        W29815  35.537  14.828  13.396
64336W        W29816  22.224   5.396  14.967
64337W        W29817  25.541  22.123  14.328
64338W        W29818  13.814  36.898  13.430
64339W        W29819  18.563   0.482  13.881
64340W        W29820   8.822   5.762   0.933
64341W        W29821  37.435  18.714   1.410
64342W        W29822  44.264   0.489  14.514
64343W        W29823  31.950   1.910  13.859
64344W        W29824  38.486   8.782   0.293
64345W        W29825  25.119  17.209   1.821
64346W        W29826  16.303  33.488  10.496
64347W        W29827  13.346  15.212  13.429
64348W        W29828  28.621   6.238   4.824
64349W        W29829  22.218  34.927  10.443
64350W        W29830  36.065  43.296   3.159
64351W        W29831  18.652  39.366  11.498
64352W        W29832  42.827   6.325  10.645
64353W        W29833   1.874  38.042   2.732
64354W        W29834  33.076  34.464  12.057
64355W        W29835  25.997   2.268  11.000
64356W        W29836  39.491  44.766   3.790
64357W        W29837  11.637   7.767   2.411
64358W        W29838  28.569   6.258  13.348
64359W        W29839  40.844  37.945   2.214
64360W        W29840   9.381  32.528   4.690
64361W        W29841   1.930   6.763  12.993
64362W        W29842  36.359  43.413   4.171
64363W        W29843   9.685   8.183   3.751
64364W        W29844   3.262  13.163   1.279
64365W        W29845  40.896  17.622   4.116
64366W        W29846  39.995  37.486  10.992
64367W        W29847  40.960  35.501   4.177
64368W        W29848   0.865  32.506  12.412
64369W        W29849  44.785  34.545  12.980
64370W        W29850  41.326   5.902   0.283
64371W        W29851  32.527  41.389   0.729
64372W        W29852  30.122  36.402  11.542
64373W        W29853  41.904   9.837  14.959
64374W        W29854   6.242  37.910   4.764
64375W        W29855  11.855   4.868   5.322
64376W        W29856  40.995   0.488   3.264
64377W        W29857   1.376  41.831  14.351
64378W        W29858  17.256  36.942   2.697
64379W        W29859   5.373  22.124   3.738
64380W        W29860  20.641  34.587   3.183
64381W        W29861  24.670  10.267   3.771
64382W        W29862  14.303  11.690   2.901
64383W        W29863  40.927   1.758  13.913
64384W        W29864  15.817  26.489  10.624
64385W        W29865  17.569  35.550  13.532
64386W        W29866  40.470  43.806   4.657
64387W        W29867  22.588  42.956  13.461
64388W        W29868  37.990  15.173   1.873
64389W        W29869  22.128   6.300  13.355
64390W        W29870   0.987  36.033   1.725
64391W        W29871  42.977   3.810  11.084
64392W        W29872   1.927  44.292   1.392
64393W        W29873  42.317  44.011  12.538
64394W        W29874  32.414  18.194  14.472
64395W        W29875  31.012   2.248  12.011
64396W        W29876  14.763  33.479  14.314
64397W        W29877  30.008  18.734  14.368
64398W        W29878   6.398  22.653   5.302
64399W        W29879  15.729  11.275  13.481
64400W        W29880  22.131  38.440   0.875
64401W        W29881  31.557  10.194   3.241
64402W        W29882  39.350  16.125   2.671
64403W        W29883  41.358  34.390  14.279
64404W        W29884   2.240  41.535  11.898
64405W        W29885   2.864  43.498   0.445
64406W        W29886  40.392  27.182   2.207
64407W        W29887  41.823   9.161   2.349
64408W        W29888  24.507  20.550  12.472
64409W        W29889  28.623  44.503  13.365
64410W        W29890  11.747  37.475  12.933
64411W        W29891  35.081  38.521   3.258
64412W        W29892  42.308   0.881  12.474
64413W        W29893  43.430   3.885   1.301
64414W        W29894   2.388  34.569   0.357
64415W        W29895   5.902  23.631   2.673
64416W        W29896  15.233   2.807  14.390
64417W        W29897  42.372  19.227  13.984
64418W        W29898  34.612  23.006   3.160
64419W        W29899  14.196   7.252   1.846
64420W        W29900   2.420  13.828  11.953
64421W        W29901  38.828  16.690   3.662
64422W        W29902  42.948  21.616   1.416
64423W        W29903  17.184   7.893   3.221
64424W        W29904   8.840  30.154   0.245
64425W        W29905  14.308  30.152  11.963
64426W        W29906  38.473  13.692   0.415
64427W        W29907  20.066  17.560  10.947
64428W        W29908   6.418   7.826  14.929
64429W        W29909  37.491   7.263   9.991
64430W        W29910  37.562  32.937  13.809
64431W        W29911  19.085  22.184   4.808
64432W        W29912  21.522   6.871   4.614
64433W        W29913   0.250  41.975  11.115
64434W        W29914   6.395  35.882  11.613
64435W        W29915  31.996  34.994  12.344
64436W        W29916   0.369   8.901   1.801
64437W        W29917   9.351  13.681   2.405
64438W        W29918   7.902  41.486  13.462
64439W        W29919  43.466  11.658  10.994
64440W        W29920  11.233  29.953  11.503
64441W        W29921  11.301  31.614   3.805
64442W        W29922  39.921  38.835   3.191
64443W        W29923  11.690  34.964   0.798
64444W        W29924  27.096  14.150  10.920
64445W        W29925  38.964  12.845  13.853
64446W        W29926   6.803  28.445   2.734
64447W        W29927  21.661  27.674   2.399
64448W        W29928   8.262  11.687   2.401
64449W        W29929  25.200  42.429   3.368
64450W        W29930  21.178  44.830  14.886
64451W        W29931   7.885  21.072  12.003
64452W        W29932  29.057  20.203  14.399
64453W        W29933   6.270  22.093   4.598
64454W        W29934  14.766  26.663  14.488
64455W        W29935  25.497  42.374   3.719
64456W        W29936  10.198  44.310   5.101
64457W        W29937  15.132  24.170   3.287
64458W        W29938  15.187   0.475   3.666
64459W        W29939  34.085   6.295   1.714
64460W        W29940   6.313   6.345   1.733
64461W        W29941   0.787  27.546  10.576
64462W        W29942  32.006  29.935  13.021
64463W        W29943  10.697  21.136  10.442
64464W        W29944  12.149  40.027   1.225
64465W        W29945  27.546  22.553  12.974
64466W        W29946  39.883  40.462  10.403
64467W        W29947  11.743  25.042   0.428
64468W        W29948  24.626   9.182   0.850
64469W        W29949  19.057  10.773  13.059
64470W        W29950  43.846   7.733  14.923
64471W        W29951  34.980  30.549   2.673
64472W        W29952  15.195  15.664  14.788
64473W        W29953   9.290  35.579   4.636
64474W        W29954  12.357  36.936   0.310
64475W        W29955  24.180  14.173  12.058
64476W        W29956  29.128   2.828   3.752
64477W        W29957  36.448  34.485  14.396
64478W        W29958  24.129   8.668  13.383
64479W        W29959   7.366  25.550  11.461
64480W        W29960  34.400  10.784   1.796
64481W        W29961  38.517  21.191  11.458
64482W        W29962  23.609  15.279   2.293
64483W        W29963  25.542  14.781  11.075
64484W        W29964  13.621  24.101  10.532
64485W        W29965  23.167   3.391   2.251
64486W        W29966  29.991  34.959   1.721
64487W        W29967  12.711   5.850  12.084
64488W        W29968  38.336  42.969   2.368
64489W        W29969  33.900  44.773  13.990
64490W        W29970   4.779  28.499  10.592
64491W        W29971  13.732  38.345   4.165
64492W        W29972  37.969  35.935   0.916
64493W        W29973  10.822  37.521   2.266
64494W        W29974   2.292  27.476  11.127
64495W        W29975  18.719   4.769  10.989
64496W        W29976  20.113  25.677   1.399
64497W        W29977  26.587  31.916  13.063
64498W        W29978  33.004  33.914   2.311
64499W        W29979  12.244  32.045   4.152
64500W        W29980  15.620   1.477   4.698
64501W        W29981  27.637  36.942   2.260
64502W        W29982  38.839   9.395   1.329
64503W        W29983  24.554  25.598   3.709
64504W        W29984  39.504  35.867   4.317
64505W        W29985  33.572  41.014  13.867
64506W        W29986  25.689   6.707  12.075
64507W        W29987  20.537  13.696  10.454
64508W        W29988  28.450  26.652  10.642
64509W        W29989  36.390   6.415   1.359
64510W        W29990  16.800  16.585   1.445
64511W        W29991  10.328  33.416   2.716
64512W        W29992   1.363  32.107   4.250
64513W        W29993  19.119  28.601  13.926
64514W        W29994  24.517  23.705   4.206
64515W        W29995   0.340  13.127   0.449
64516W        W29996   3.251  13.159   5.227
64517W        W29997   2.271   5.299  12.489
64518W        W29998  11.333  27.995   3.857
64519W        W29999  44.292  40.930   3.182
64520W        W30000  24.483  15.102  11.902
64521W        W30001   2.289   1.782  10.038
64522W        W30002  21.127  37.000  13.016
64523W        W30003  36.414  29.101   1.845
64524W        W30004   0.853  15.328   2.301
64525W        W30005  10.877  38.557  13.341
64526W        W30006  39.028  22.533   4.138
64527W        W30007   4.706  26.640   1.233
64528W        W30008  36.443  44.907   2.412
64529W        W30009  32.099   0.287   1.832
64530W        W30010   6.245  29.086   3.851
64531W        W30011  22.160  28.492   3.168
64532W        W30012  32.598  23.720   0.773
64533W        W30013   1.369   9.216  10.474
64534W        W30014  14.222   7.844   2.800
64535W        W30015  24.532  13.813  14.319
64536W        W30016  24.542  24.059  14.845
64537W        W30017   3.219   1.464   3.718
64538W        W30018  10.199  16.161   3.205
64539W        W30019  36.001  28.563  10.607
64540W        W30020  37.936  25.121  11.537
64541W        W30021   3.427  14.774  12.920
64542W        W30022  17.283  13.236   4.336
64543W        W30023  17.769   8.719  13.996
64544W        W30024   8.669  38.958  13.415
64545W        W30025  40.329  33.423   1.918
64546W        W30026   2.424  15.626   4.598
64547W        W30027  33.964  32.033   0.300
64548W        W30028  28.668  32.135   1.257
64549W        W30029   6.375  24.184   2.207
64550W        W30030  24.008  27.952  13.829
64551W        W30031  11.818   7.217  10.037
64552W        W30032  34.995  28.517   1.806
64553W        W30033  13.140  28.656   4.755
64554W        W30034  11.154   3.922   2.321
64555W        W30035  16.600  10.171  10.972
64556W        W30036   6.329  21.738   0.349
64557W        W30037  40.364  27.963   5.297
64558W        W30038  22.012   8.862  13.476
64559W        W30039  23.501  15.218  10.628
64560W        W30040  23.643  26.207   2.352
64561W        W30041  11.231  22.068   2.251
64562W        W30042  23.685  40.487   3.279
64563W        W30043  19.559  22.098   0.742
64564W        W30044  29.980   1.291  12.520
64565W        W30045  35.880  18.712   2.418
64566W        W30046  29.026  27.535  10.637
64567W        W30047  40.328  24.662   4.334
64568W        W30048  35.881  37.988  14.912
64569W        W30049   4.312  17.128   2.828
64570W        W30050  30.579  42.826   2.386
64571W        W30051  28.435  33.952   3.346
64572W        W30052  34.102  15.625   2.871
64573W        W30053  17.675  34.432  11.402
64574W        W30054   3.910   5.744   2.242
64575W        W30055  11.789   5.417  11.587
64576W        W30056  32.904  12.257   2.665
64577W        W30057  14.228  23.730   2.314
64578W        W30058  17.166  25.595   2.770
64579W        W30059  13.687   2.426   4.232
64580W        W30060  34.896   8.293   4.303
64581W        W30061   8.161   8.671  14.992
64582W        W30062  34.902  13.270  12.526
64583W        W30063  36.867  38.909  12.502
64584W        W30064  23.656  12.301   2.760
64585W        W30065  31.967  39.527  10.471
64586W        W30066  40.345   0.339  14.318
64587W        W30067  35.494  40.923  10.476
64588W        W30068  25.108   1.745   2.869
64589W        W30069  44.367  15.235   2.179
64590W        W30070   9.665  23.108  13.827
64591W        W30071  13.164  44.906   2.889
64592W        W30072   6.764  12.659   4.731
64593W        W30073  32.592  22.579   0.381
64594W        W30074   4.325  17.291  14.787
64595W        W30075   7.365  17.163  12.951
64596W        W30076   0.902  39.061   1.332
64597W        W30077  13.814  28.065  14.998
64598W        W30078  31.645  33.402   0.329
64599W        W30079  39.064  38.343  14.895
64600W        W30080  18.059  33.419   1.242
64601W        W30081  24.616   3.337   4.237
64602W        W30082   7.776  42.374  10.412
64603W        W30083  26.205  25.033  12.458
64604W        W30084  33.464  43.017   0.314
64605W        W30085  42.032  23.633  11.404
64606W        W30086   1.863   8.766  11.394
64607W        W30087  16.137  22.592  14.405
64608W        W30088  21.640  36.523  12.989
64609W        W30089   0.369   7.372   0.344
64610W        W30090  21.226  20.056  14.959
64611W        W30091  43.813  27.487   3.365
64612W        W30092  38.544  19.219   0.478
64613W        W30093  16.205  39.039  11.522
64614W        W30094  24.128  19.692   1.776
64615W        W30095  36.464   5.907   4.354
64616W        W30096  15.588  10.288   1.425
64617W        W30097   1.793  20.648  13.804
64618W        W30098   9.781   2.318  10.439
64619W        W30099   1.864   2.754   2.812
64620W        W30100   7.839  25.567  12.508
64621W        W30101  35.102  23.182  14.458
64622W        W30102  19.138  40.386  12.444
64623W        W30103  11.720   3.750  12.550
64624W        W30104  15.591  32.133   4.623
64625W        W30105  31.947  39.526   1.819
64626W        W30106  41.976  20.651  14.282
64627W        W30107   6.761  12.784  12.425
64628W        W30108  31.932  22.638  13.048
64629W        W30109  38.475  43.771   3.719
64630W        W30110  21.212  40.850   1.796
64631W        W30111  21.566  22.119   3.672
64632W        W30112  25.037   2.441   1.226
64633W        W30113  16.647  26.136   2.222
64634W        W30114  42.919  27.643   3.746
64635W        W30115  26.168  14.692  10.988
64636W        W30116  38.535  21.072   1.255
64637W        W30117  37.079   2.772  11.949
64638W        W30118  39.909   2.915   4.268
64639W        W30119  27.540  37.019  14.448
64640W        W30120  11.827  12.124  10.638
64641W        W30121  21.537  32.972   1.703
64642W        W30122  43.354   2.421   0.391
64643W        W30123  27.124  40.527  11.997
64644W        W30124   8.743  34.560   2.411
64645W        W30125  16.582   6.896   4.353
64646W        W30126  43.982  34.047   2.319
64647W        W30127  12.808  20.626  11.559
64648W        W30128  36.584  37.509   9.999
64649W        W30129  25.028  17.250   3.333
64650W        W30130  32.524   5.864  12.413
64651W        W30131  31.538  16.227  11.992
64652W        W30132  29.037  18.245  14.011
64653W        W30133  14.277   0.385   2.765
64654W        W30134  42.957  10.869   4.636
64655W        W30135  38.398  32.926  12.944
64656W        W30136  13.737  23.106  14.876
64657W        W30137   1.905  41.878  13.898
64658W        W30138   7.339   3.726   0.259
64659W        W30139  30.942  10.741  14.007
64660W        W30140  29.165  22.713   2.732
64661W        W30141   5.712  13.632   1.428
64662W        W30142   9.340  10.157  10.146
64663W        W30143   1.364   6.904  14.876
64664W        W30144  26.005  43.905   2.391
64665W        W30145   6.198  25.192   4.245
64666W        W30146  31.535  39.964   2.875
64667W        W30147   8.379  37.390  10.596
64668W        W30148   5.882  43.274   1.790
64669W        W30149   1.355   0.314  14.493
64670W        W30150  35.442  23.613  10.629
64671W        W30151  18.754   5.756  12.394
64672W        W30152  42.855  44.434   5.193
64673W        W30153   4.280   0.796   2.335
64674W        W30154  34.552  10.655  12.557
64675W        W30155  24.172  24.530  14.764
64676W        W30156   2.894   4.389  10.933
64677W        W30157   2.829  20.750   1.889
64678W        W30158   0.426  38.893  12.874
64679W        W30159   6.267   1.281   2.869
64680W        W30160  40.501  12.174   3.665
64681W        W30161  20.705  41.378   4.647
64682W        W30162  27.506   1.753   2.380
64683W        W30163  20.751  44.410  11.104
64684W        W30164   1.770  31.978   0.944
64685W        W30165  19.160  30.076  11.001
64686W        W30166  21.715  38.494  13.455
64687W        W30167   5.437  15.610   0.768
64688W        W30168  20.738   8.766   2.307
64689W        W30169  13.165  31.541   1.303
64690W        W30170   4.357  20.621  11.021
64691W        W30171  41.953  42.318   4.801
64692W        W30172  29.567  31.481   2.775
64693W        W30173  40.048  12.142  11.569
64694W        W30174  27.544   2.963   2.753
64695W        W30175  24.486   8.822   1.844
64696W        W30176  43.407  37.454   2.187
64697W        W30177  29.085  29.159  12.344
64698W        W30178   9.211  14.118  14.298
64699W        W30179  16.652  16.185  12.563
64700W        W30180  41.976  22.161   2.787
64701W        W30181  13.752   5.380   2.788
64702W        W30182  44.424   3.941  13.980
64703W        W30183  37.502   6.780  14.330
64704W        W30184  14.616  22.092   4.255
64705W        W30185  32.632  39.413  13.312
64706W        W30186  11.261  20.064   3.746
64707W        W30187  38.047  29.455   3.284
64708W        W30188  25.078  40.490   2.215
64709W        W30189  39.021  24.547   4.232
64710W        W30190  41.043   1.426   2.216
64711W        W30191  31.945  12.262  14.360
64712W        W30192   6.391  32.551  10.522
64713W        W30193   3.790  11.255   1.825
64714W        W30194  41.405  39.543   3.729
64715W        W30195  35.387  15.196   3.837
64716W        W30196  33.433  40.814   2.705
64717W        W30197  22.599  28.088   1.320
64718W        W30198  33.501  16.264   1.395
64719W        W30199  31.456   0.969   0.356
64720W        W30200   1.384  24.087  10.452
64721W        W30201   5.815  25.670   0.752
64722W        W30202  14.711   6.278   1.240
64723W        W30203   5.255  10.760   1.345
64724W        W30204  39.905  20.139  12.425
64725W        W30205  40.028   2.834  12.823
64726W        W30206  38.945  22.548  13.962
64727W        W30207  20.200  12.356   2.802
64728W        W30208  11.228  14.613  11.059
64729W        W30209  21.717  21.720   0.832
64730W        W30210  23.205  21.073  14.463
64731W        W30211  11.703   1.839  12.406
64732W        W30212   5.829  12.615  14.472
64733W        W30213  18.604   0.839   2.274
64734W        W30214  41.893  23.093  12.422
64735W        W30215  40.899  27.956  14.991
64736W        W30216   7.780  31.469  13.369
64737W        W30217  29.017  19.057   1.893
64738W        W30218  42.854  14.742  12.059
64739W        W30219  21.116  18.132   5.171
64740W        W30220  41.954   3.926   4.601
64741W        W30221   6.739   8.804  13.799
64742W        W30222   6.781  34.979  11.551
64743W        W30223  25.498   1.917   5.313
64744W        W30224  28.972  26.601   0.283
64745W        W30225  40.016  17.201  14.890
64746W        W30226  12.769  33.953  14.400
64747W        W30227  40.016   2.813   1.929
64748W        W30228   9.701  15.171   4.698
64749W        W30229  15.201   0.359  11.062
64750W        W30230   1.433  20.592   4.748
64751W        W30231  42.984  16.311   3.304
64752W        W30232  30.452  38.367  12.013
64753W        W30233  21.246   5.871   3.776
64754W        W30234  17.581  21.083   4.655
64755W        W30235  41.798   5.701  14.802
64756W        W30236  24.071  37.467   2.282
64757W        W30237  26.189  42.957   0.387
64758W        W30238  29.932  32.941   1.820
64759W        W30239  12.848   1.782   1.907
64760W        W30240  40.042  16.214   2.286
64761W        W30241  42.418   2.725  12.375
64762W        W30242  42.342   3.930  14.936
64763W        W30243   5.295  39.504   1.838
64764W        W30244  28.135  34.402  10.986
64765W        W30245   7.327  13.130  11.857
64766W        W30246  24.655  35.511   2.389
64767W        W30247  22.561  10.794   5.231
64768W        W30248   3.880  18.697  12.517
64769W        W30249   0.429   1.437  14.929
64770W        W30250  41.331  37.961   3.720
64771W        W30251  20.578  12.348   2.331
64772W        W30252  28.180  11.246   3.290
64773W        W30253  25.123  41.835   0.372
64774W        W30254   8.669  22.998   1.802
64775W        W30255   7.879  21.241   3.323
64776W        W30256   3.450   9.699   4.736
64777W        W30257   7.175  31.565   0.473
64778W        W30258   5.279   3.887  13.005
64779W        W30259  11.736  38.473  14.459
64780W        W30260  15.263  41.305  12.005
64781W        W30261  21.695  32.579   2.823
64782W        W30262  16.610  39.326  14.401
64783W        W30263  31.138  43.442  13.466
64784W        W30264  18.164   0.963  11.987
64785W        W30265  10.230  15.655   3.652
64786W        W30266  39.521  34.564   0.938
64787W        W30267  22.012   3.382   4.837
64788W        W30268  21.091  26.578  13.977
64789W        W30269  27.093  24.620  10.516
64790W        W30270  35.022  13.834   2.190
64791W        W30271  22.600  25.567   4.738
64792W        W30272  10.878  27.472  13.440
64793W        W30273   5.823  43.805   0.470
64794W        W30274   1.756  15.249  12.839
64795W        W30275   7.249   5.298   2.360
64796W        W30276  21.725  10.314   4.611
64797W        W30277  25.554   0.880  13.026
64798W        W30278  32.633  34.394   2.247
64799W        W30279  13.196  21.687   0.479
64800W        W30280  12.222  44.950  13.876
64801W        W30281  33.606  10.186  13.334
64802W        W30282   7.349  10.702   0.967
64803W        W30283  27.193  34.441  14.938
64804W        W30284  27.632   2.346  10.548
64805W        W30285   5.742   9.156   0.279
64806W        W30286   2.746  21.188   0.788
64807W        W30287  28.485  21.694  14.888
64808W        W30288  28.450  16.624  11.408
64809W        W30289   9.692  30.933  14.966
64810W        W30290  38.056  13.755   1.698
64811W        W30291  43.476   4.868  13.032
64812W        W30292  27.633   5.838  12.041
64813W        W30293  19.249  24.134   2.864
64814W        W30294  18.127  10.277   1.244
64815W        W30295   8.755  38.040   4.121
64816W        W30296   7.323  33.056   4.636
64817W        W30297   1.414   5.202  10.547
64818W        W30298  15.149  28.514   1.872
64819W        W30299  22.718  23.052  12.365
64820W        W30300   6.904  11.756   2.691
64821W        W30301  35.031  25.180  11.397
64822W        W30302  12.669  30.433   1.283
64823W        W30303   0.897  44.348  10.523
64824W        W30304  10.224  11.691  12.517
64825W        W30305  26.513   0.412  10.898
64826W        W30306   0.337  20.104  12.014
64827W        W30307  32.897  26.170   3.269
64828W        W30308   9.688  27.627  10.953
64829W        W30309  22.042  10.278  10.409
64830W        W30310  31.473  19.263  13.440
64831W        W30311  21.747  21.697  13.392
64832W        W30312   5.863  31.081   0.866
64833W        W30313  15.299  32.517  13.380
64834W        W30314  17.263  25.559  11.577
64835W        W30315  35.588  10.186   3.716
64836W        W30316  11.828  24.528   0.877
64837W        W30317   3.807   6.386   4.620
64838W        W30318  35.377  42.931   2.727
64839W        W30319  15.115  27.995  12.908
64840W        W30320  38.326  28.603   1.896
64841W        W30321   8.384  32.075  11.524
64842W        W30322   9.156   1.361   2.751
64843W        W30323  27.964  14.596  12.997
64844W        W30324  38.919  19.095  14.921
64845W        W30325  10.797  20.737   0.937
64846W        W30326   8.858   5.359   2.336
64847W        W30327  16.217  34.477  11.462
64848W        W30328  35.515   2.260   2.793
64849W        W30329  32.579  32.095   3.638
64850W        W30330   6.232  26.596  10.549
64851W        W30331  38.986  42.504   2.182
64852W        W30332  30.925  34.386   1.234
64853W        W30333  29.604  18.065   1.390
64854W        W30334  23.595  16.609  13.430
64855W        W30335  20.710  37.513  14.446
64856W        W30336  19.555  38.516  14.457
64857W        W30337  27.687  19.778   3.667
64858W        W30338  25.504  40.042   2.199
64859W        W30339  19.615  13.227  13.844
64860W        W30340  20.537  32.465   2.399
64861W        W30341   3.365   1.750  13.029
64862W        W30342  24.224  20.607   3.675
64863W        W30343  35.907   1.439  11.390
64864W        W30344  29.585  11.763   0.843
64865W        W30345  23.705  30.988  10.458
64866W        W30346  41.837  43.476   0.965
64867W        W30347   9.253  13.124   3.680
64868W        W30348  20.074   7.351  13.969
64869W        W30349   2.407  42.805   2.326
64870W        W30350  36.432  15.258   2.358
64871W        W30351   8.691   1.939  13.480
64872W        W30352   1.325   5.827  11.998
64873W        W30353  24.128  21.038  10.544
64874W        W30354  35.491  19.082   0.823
64875W        W30355  21.257  38.360   2.218
64876W        W30356  17.598  10.728   3.345
64877W        W30357  41.405  10.742  12.967
64878W        W30358  44.890  19.617   0.857
64879W        W30359   3.917  35.993  13.807
64880W        W30360  36.366  20.046  13.531
64881W        W30361   2.243  25.498   4.273
64882W        W30362  31.491  39.402  12.991
64883W        W30363  13.205  37.429  10.932
64884W        W30364  38.495  18.144  12.344
64885W        W30365  40.349   2.905  14.487
64886W        W30366  19.735  35.360  14.815
64887W        W30367  31.110   8.308   2.805
64888W        W30368  20.687  10.637  11.480
64889W        W30369   3.762  40.380  10.947
64890W        W30370  20.580  36.051   4.714
64891W        W30371  18.601  30.136   3.312
64892W        W30372   7.830   6.272   3.161
64893W        W30373  42.896  34.095  14.385
64894W        W30374   0.291   8.689   3.239
64895W        W30375   7.371   7.884   4.192
64896W        W30376  34.111   1.267   3.684
64897W        W30377  37.973  30.542   1.827
64898W        W30378  36.096  34.440  10.896
64899W        W30379   2.850  28.455  14.295
64900W        W30380  35.535   9.836  11.079
64901W        W30381  23.576  10.838  10.945
64902W        W30382  35.919  14.214  14.032
64903W        W30383  21.736  36.973   2.699
64904W        W30384  35.384   3.870   3.159
64905W        W30385  21.116  12.639   3.247
64906W        W30386   2.452  36.553  12.417
64907W        W30387  39.388   5.905  11.928
64908W        W30388  28.094  14.157  11.060
64909W        W30389  15.681   0.879   0.883
64910W        W30390  21.213   6.419  13.062
64911W        W30391  44.483  38.485   1.933
64912W        W30392   6.681  18.135   3.286
64913W        W30393  24.615  43.499  13.040
64914W        W30394  20.579  42.894  13.012
64915W        W30395  35.588   8.668  11.982
64916W        W30396  31.461   5.716   1.792
64917W        W30397  38.357   0.778  12.555
64918W        W30398  29.559  43.303   0.772
64919W        W30399  40.381  11.774   0.853
64920W        W30400  32.419   2.939   2.827
64921W        W30401   1.931   1.341  10.603
64922W        W30402  32.910  42.399  13.976
64923W        W30403  38.025   6.296   4.747
64924W        W30404  39.383  20.734  11.385
64925W        W30405   6.233   9.817   1.798
64926W        W30406  14.672  20.553  12.576
64927W        W30407  34.499   4.369  11.602
64928W        W30408  14.261   3.947   3.816
64929W        W30409  35.446  25.088  11.868
64930W        W30410  12.243  27.075  14.342
64931W        W30411  19.718  18.598   2.782
64932W        W30412  44.386   4.260   1.854
64933W        W30413  44.934  11.864  10.106
64934W        W30414  14.707  35.396  14.436
64935W        W30415  42.459  25.188   4.637
64936W        W30416  13.301  42.331  14.013
64937W        W30417   9.264  28.930   4.314
64938W        W30418  44.501   2.383  12.501
64939W        W30419  16.139  21.151   0.743
64940W        W30420  11.625   4.872  13.528
64941W        W30421  21.139  28.170  12.074
64942W        W30422  27.681  10.759   3.342
64943W        W30423  32.428  43.896  11.876
64944W        W30424  22.158  25.661  11.448
64945W        W30425  30.594   7.866   2.818
64946W        W30426  36.085  14.722   2.202
64947W        W30427  43.802  13.178   4.731
64948W        W30428  40.437  43.499   2.409
64949W        W30429  18.291  30.658  13.414
64950W        W30430  42.896  17.250   2.718
64951W        W30431  29.919   6.329  13.820
64952W        W30432  11.278   1.959   1.291
64953W        W30433  42.504  18.654   3.305
64954W        W30434  35.005   5.692  12.950
64955W        W30435   8.792  30.158   2.851
64956W        W30436   0.426  17.249  11.414
64957W        W30437   5.320  23.622   4.242
64958W        W30438  31.144  27.066  12.977
64959W        W30439   3.949   1.901  10.425
64960W        W30440  26.569  36.088   2.219
64961W        W30441  37.531  12.700   4.667
64962W        W30442   2.464   7.906   3.670
64963W        W30443  37.388  43.447   0.952
64964W        W30444   4.821   3.394  12.926
64965W        W30445  32.096  10.762  13.338
64966W        W30446  21.585   0.898   1.859
64967W        W30447  35.892   4.746   1.788
64968W        W30448  36.855  18.199  14.771
64969W        W30449  35.510  32.004  10.534
64970W        W30450  11.242  19.683   2.254
64971W        W30451   4.904  34.098   2.824
64972W        W30452   3.400   0.861   0.381
64973W        W30453  28.160  44.754   2.679
64974W        W30454  11.197   9.692  10.610
64975W        W30455  23.038  44.371   4.192
64976W        W30456   8.685  33.435   3.832
64977W        W30457  40.388  42.489   0.756
64978W        W30458  35.034  29.524  12.367
64979W        W30459  17.219   8.396   4.161
64980W        W30460  18.580  28.964   2.301
64981W        W30461  29.918  42.016  10.408
64982W        W30462   3.245  38.859  12.381
64983W        W30463  30.146   7.202  14.423
64984W        W30464  29.169  38.833   2.390
64985W        W30465   8.404   5.266   3.708
64986W        W30466  28.441   0.447   2.322
64987W        W30467  43.884  31.017   4.754
64988W        W30468  37.053  17.216  14.985
64989W        W30469   9.259  34.431  13.393
64990W        W30470  44.799  26.492   0.443
64991W        W30471  11.853  21.654   3.870
64992W        W30472   7.752  11.294  14.356
64993W        W30473  22.699  43.315   5.591
64994W        W30474  27.973  39.331   0.404
64995W        W30475  40.919  24.621  12.024
64996W        W30476  39.847  29.488  12.529
64997W        W30477  12.232  18.171  10.633
64998W        W30478  16.638   3.275  14.769
64999W        W30479  21.050  27.082  12.859
65000W        W30480  41.355  39.907   1.890
65001W        W30481  16.774  22.507   1.392
65002W        W30482   0.317  39.826   1.240
65003W        W30483   6.241  39.496   0.255
65004W        W30484  32.045   8.691  11.486
65005W        W30485  41.009  41.882   2.890
65006W        W30486  43.768  29.120  11.481
65007W        W30487  14.761  23.566  12.071
65008W        W30488  18.237  42.925   1.211
65009W        W30489  24.088   6.318   0.369
65010W        W30490   4.400  32.928  12.096
65011W        W30491  24.988  28.489  11.933
65012W        W30492   3.835  38.834   1.252
65013W        W30493  11.262  21.090  14.899
65014W        W30494  24.606  27.954  14.285
65015W        W30495   3.304  25.559  13.858
65016W        W30496  24.042  18.609   3.208
65017W        W30497  22.244  15.119  14.006
65018W        W30498  23.141  31.404  13.921
65019W        W30499  27.598  13.149  13.893
65020W        W30500  21.243  39.505   4.606
65021W        W30501  36.030  27.091   4.176
65022W        W30502  23.036  10.381  13.056
65023W        W30503  41.886  26.505   3.237
65024W        W30504  19.741  42.780   2.824
65025W        W30505  41.795  35.866  13.817
65026W        W30506  27.115  20.090   4.731
65027W        W30507  37.504   9.798  13.015
65028W        W30508  44.330  13.154   2.762
65029W        W30509  12.330  34.119   3.320
65030W        W30510   0.871  21.206   3.368
65031W        W30511  12.120  11.679  12.980
65032W        W30512  40.915  16.621   0.248
65033W        W30513   0.352   0.416   2.375
65034W        W30514  13.604  40.528   3.307
65035W        W30515  19.141  26.159  13.340
65036W        W30516  12.666  21.140  11.984
65037W        W30517  11.205  18.058  10.980
65038W        W30518  12.803  18.766   3.826
65039W        W30519  43.876  30.576   4.785
65040W        W30520   3.816  44.479  11.943
65041W        W30521  20.051  22.241  14.331
65042W        W30522  33.941  31.603   1.244
65043W        W30523   8.883  23.550  11.083
65044W        W30524  36.363  30.602   4.675
65045W        W30525  40.976  19.216   3.350
65046W        W30526   1.745  42.948   3.348
65047W        W30527  10.294  34.516  12.953
65048W        W30528  21.223  39.058   5.198
65049W        W30529  17.635  33.488   2.717
65050W        W30530   0.410  26.965  10.970
65051W        W30531  17.639   0.266  13.032
65052W        W30532  23.489  39.354   4.243
65053W        W30533  23.547  39.975  12.843
65054W        W30534  13.770   2.279  13.857
65055W        W30535  32.544  43.516  10.442
65056W        W30536  17.078  10.329   2.399
65057W        W30537  17.268  13.223   0.750
65058W        W30538  28.996  40.024   2.242
65059W        W30539  32.930  26.666   4.758
65060W        W30540  10.260  11.287  11.079
65061W        W30541   4.304   7.239   1.731
65062W        W30542  18.226   8.305  12.430
65063W        W30543  22.046  24.033  13.410
65064W        W30544  16.233  12.127   0.954
65065W        W30545  29.595  44.328  12.452
65066W        W30546  14.777  26.035   1.397
65067W        W30547  30.909  30.030  11.601
65068W        W30548  38.462  11.325   0.755
65069W        W30549  18.698  44.926   2.838
65070W        W30550  38.939  38.852   2.771
65071W        W30551  38.922  35.433   4.167
65072W        W30552  18.721  23.186  14.457
65073W        W30553  34.613   3.882   4.197
65074W        W30554  29.992  37.990  12.895
65075W        W30555  29.964  29.599   4.296
65076W        W30556  34.080  21.216   0.754
65077W        W30557   0.354   6.739  14.827
65078W        W30558  26.699   4.306  11.607
65079W        W30559  36.878  18.658  14.015
65080W        W30560  42.022  36.060   5.177
65081W        W30561   1.972  16.614  10.425
65082W        W30562  21.067   3.832   1.341
65083W        W30563  24.980  25.628  11.495
65084W        W30564  15.132  18.150   2.720
65085W        W30565  30.979  34.509   2.864
65086W        W30566  43.961  27.619  12.971
65087W        W30567  22.742  28.954  13.826
65088W        W30568  31.586   0.777   1.815
65089W        W30569  21.220   3.763  11.991
65090W        W30570  24.690  10.232  13.043
65091W        W30571  13.159   8.200   1.451
65092W        W30572  12.201  18.674   1.344
65093W        W30573  43.357  14.309   2.295
65094W        W30574  23.144   1.784   1.757
65095W        W30575   5.409   2.859   0.770
65096W        W30576  26.205  26.683   4.290
65097W        W30577   0.867  14.755  14.863
65098W        W30578  15.151   0.288  14.950
65099W        W30579  19.691  43.397   2.200
65100W        W30580  16.803   3.388  13.532
65101W        W30581  18.208  23.544  12.467
65102W        W30582  12.846  15.172   3.303
65103W        W30583  44.377  26.461   3.155
65104W        W30584  25.100  32.591  14.383
65105W        W30585  27.948  23.029  14.838
65106W        W30586   1.254  28.135   3.217
65107W        W30587  20.748  40.870  12.076
65108W        W30588  16.575  11.278   1.404
65109W        W30589   6.921  40.932  12.048
65110W        W30590  22.736  32.571  12.878
65111W        W30591   3.295   1.417  12.486
65112W        W30592   3.290   0.354   0.901
65113W        W30593  24.485  35.420   1.433
65114W        W30594  27.968   3.336   5.122
65115W        W30595  41.424   7.737   5.110
65116W        W30596  14.119  35.015  11.453
65117W        W30597  43.500  43.431  11.090
65118W        W30598   4.778   0.456  10.644
65119W        W30599  33.549  31.952  10.978
65120W        W30600  43.389  31.438   1.841
65121W        W30601  39.015  27.616  11.465
65122W        W30602   6.198  43.293   4.172
65123W        W30603  12.705  34.383   3.184
65124W        W30604  44.797   5.351  10.985
65125W        W30605  20.105  10.675   0.907
65126W        W30606  14.813  34.578  12.980
65127W        W30607  20.226  15.717   0.425
65128W        W30608  24.510  21.608  14.870
65129W        W30609  35.359  20.705  11.082
65130W        W30610  33.402  38.478   1.852
65131W        W30611  13.732  18.222  14.795
65132W        W30612  23.578  16.278   2.846
65133W        W30613  18.257  10.719  14.004
65134W        W30614  15.292   1.299  10.570
65135W        W30615  38.011  38.869  12.348
65136W        W30616   5.825  18.584  12.909
65137W        W30617  41.870  29.008   2.252
65138W        W30618  38.345  34.598  10.574
65139W        W30619   7.766  41.842   0.959
65140W        W30620  30.919  32.060   4.693
65141W        W30621  31.561  34.552  13.400
65142W        W30622  24.058  10.370  10.940
65143W        W30623  42.414  42.440  13.536
65144W        W30624  35.096  35.361   3.362
65145W        W30625  33.082   9.245   0.418
65146W        W30626  30.526  33.079  10.992
65147W        W30627  13.747  39.350  14.792
65148W        W30628  38.374  10.825  13.527
65149W        W30629  41.439  27.955  13.382
65150W        W30630   0.296   1.368  14.461
65151W        W30631   2.790  16.244   3.693
65152W        W30632  41.293   4.756  11.593
65153W        W30633  35.477  38.920  12.988
65154W        W30634  20.106  35.916   3.666
65155W        W30635  26.194  35.493   1.294
65156W        W30636  19.673  18.075   3.271
65157W        W30637   3.340   4.725   0.391
65158W        W30638  10.164  26.954   1.911
65159W        W30639   8.183  37.892  14.878
65160W        W30640  22.151  12.748  13.521
65161W        W30641  18.559  42.803   4.168
65162W        W30642  44.011  11.658  14.280
65163W        W30643  16.639  37.464  12.954
65164W        W30644  33.621   2.385   1.237
65165W        W30645  11.793  17.104   0.899
65166W        W30646  42.308  28.018  11.604
65167W        W30647   8.755  23.161  12.881
65168W        W30648  24.650   4.390   3.361
65169W        W30649   5.800   7.765  14.276
65170W        W30650  13.187  10.644   2.705
65171W        W30651  30.096  20.070   3.181
65172W        W30652  11.635  17.299   0.365
65173W        W30653  29.149  42.363  12.864
65174W        W30654  43.293  26.603   5.155
65175W        W30655  10.673  10.802   4.162
65176W        W30656  24.509  13.767   0.354
65177W        W30657   3.941   3.795  11.044
65178W        W30658  26.183  23.693  11.874
65179W        W30659  10.866  23.010   4.294
65180W        W30660  37.957  11.365  11.580
65181W        W30661  28.434  34.610  13.899
65182W        W30662   4.893   8.230   3.341
65183W        W30663  35.046  34.442  11.865
65184W        W30664   9.279  18.238   0.924
65185W        W30665  37.945   0.857  11.032
65186W        W30666  17.566  38.999   1.390
65187W        W30667  44.870  26.192  14.841
65188W        W30668  31.097  32.415  13.487
65189W        W30669   1.273  38.006  12.533
65190W        W30670   2.839  42.360  14.862
65191W        W30671  20.724   1.951   2.861
65192W        W30672  35.023  34.472   3.263
65193W        W30673   1.391   5.790  10.897
65194W        W30674  35.032  44.890  12.396
65195W        W30675   5.419  25.181   3.160
65196W        W30676  19.700  32.436   1.340
65197W        W30677   6.376   4.820   4.177
65198W        W30678   9.369  32.920  10.612
65199W        W30679  28.172  40.916  13.498
65200W        W30680  28.655  42.970  10.945
65201W        W30681  42.844  34.519  14.987
65202W        W30682  38.342  35.921  13.818
65203W        W30683  26.529   7.245   1.345
65204W        W30684  41.033  39.853  13.873
65205W        W30685   4.721  15.308   1.330
65206W        W30686  34.999   0.750  10.582
65207W        W30687  36.927  40.858   1.892
65208W        W30688  26.079  31.046  14.888
65209W        W30689  31.914  36.406  14.793
65210W        W30690   6.789  40.812   2.700
65211W        W30691  29.998  32.428   3.652
65212W        W30692   4.853  26.089  12.992
65213W        W30693   5.816   1.953   3.804
65214W        W30694  39.951  23.646  10.898
65215W        W30695  30.107  12.654  14.371
65216W        W30696  43.288  32.398   0.397
65217W        W30697  30.126  34.593   1.845
65218W        W30698   3.293   1.795   4.618
65219W        W30699  40.536  16.714   5.236
65220W        W30700   2.455  21.535  12.453
65221W        W30701  21.602   6.880  12.095
65222W        W30702  17.671  38.051  11.480
65223W        W30703  11.340  24.038   0.475
65224W        W30704  12.628  32.407  11.560
65225W        W30705  16.195  32.459  13.499
65226W        W30706  42.488  14.804  12.826
65227W        W30707  18.701  19.633  12.514
65228W        W30708  37.932  35.877  14.380
65229W        W30709  40.426  24.124  13.828
65230W        W30710   3.840  13.257   1.756
65231W        W30711  44.755   2.937  11.576
65232W        W30712  11.214   1.440   1.260
65233W        W30713   5.338  19.163   2.679
65234W        W30714   1.242  25.139  12.459
65235W        W30715   7.715   4.717   2.835
65236W        W30716   0.891  39.946  12.345
65237W        W30717  19.731   9.332  11.926
65238W        W30718  26.127  38.566  11.959
65239W        W30719  25.561  20.531  14.445
65240W        W30720  40.946  29.669   0.425
65241W        W30721  36.859  16.643  13.897
65242W        W30722  14.764  21.217   1.880
65243W        W30723  11.139   0.860  11.100
65244W        W30724  12.187  25.665  10.404
65245W        W30725  10.756  42.509   0.328
65246W        W30726  11.300  40.324   2.304
65247W        W30727  12.701  31.116  13.417
65248W        W30728   8.796  12.224  11.585
65249W        W30729  18.583   9.297  11.375
65250W        W30730  18.085  39.916  14.281
65251W        W30731  19.591  18.164   2.697
65252W        W30732  38.033   4.424  14.865
65253W        W30733  30.041  38.457  13.362
65254W        W30734  28.158   2.399  14.816
65255W        W30735  24.660   0.821  14.936
65256W        W30736  20.663   9.360   4.233
65257W        W30737  10.380  20.532   4.722
65258W        W30738  20.166  14.153   0.942
65259W        W30739  14.631  33.051  14.415
65260W        W30740   0.742   8.879  11.455
65261W        W30741   9.683  21.606   3.347
65262W        W30742  21.582  27.112   3.759
65263W        W30743  36.590  14.673  14.804
65264W        W30744  35.034   7.898  13.914
65265W        W30745   6.746  19.059  14.334
65266W        W30746  29.149  34.962  11.383
65267W        W30747   2.911  31.544  11.528
65268W        W30748  42.996  40.427  12.863
65269W        W30749   3.777  16.233  14.487
65270W        W30750  43.783  25.512   4.837
65271W        W30751   8.386  17.090   4.283
65272W        W30752  25.128  13.244  13.896
65273W        W30753  12.704  11.230  11.424
65274W        W30754  37.999  39.876   2.325
65275W        W30755  22.546  41.841   1.305
65276W        W30756  11.176  42.834  14.030
65277W        W30757   4.819  10.268  12.888
65278W        W30758  32.117   7.761  10.468
65279W        W30759  36.387  43.947   1.245
65280W        W30760  42.777   5.803  11.052
65281W        W30761  33.093  35.434   4.304
65282W        W30762  35.063  38.333   2.300
65283W        W30763  11.772  35.084  11.508
65284W        W30764  33.468  38.507   1.428
65285W        W30765  34.056   1.763   1.304
65286W        W30766  41.904   3.421   5.179
65287W        W30767   8.784   1.385   4.271
65288W        W30768  44.944  26.987   1.324
65289W        W30769  44.891  23.690  14.919
65290W        W30770  37.427   1.903  10.437
65291W        W30771   6.425  26.589   5.183
65292W        W30772  17.762  14.174  12.921
65293W        W30773   5.396  20.100  12.049
65294W        W30774  19.116  33.392  12.367
65295W        W30775  35.418  37.480  11.923
65296W        W30776  36.952  14.619  10.561
65297W        W30777  40.047  26.664   3.831
65298W        W30778  36.511  12.283   1.301
65299W        W30779  24.198   3.434  12.971
65300W        W30780  40.492  24.718   3.384
65301W        W30781  28.567   4.336   2.356
65302W        W30782  44.345  17.079  12.011
65303W        W30783  41.355   2.278  12.472
65304W        W30784  38.476  19.060  13.315
65305W        W30785  22.039  35.505   1.826
65306W        W30786  17.570  11.855  11.520
65307W        W30787  41.309   2.383  11.005
65308W        W30788  12.222  29.120  13.516
65309W        W30789  11.218  27.102   2.215
65310W        W30790  32.513  24.083   4.669
65311W        W30791  38.337  37.340   1.775
65312W        W30792   3.897  25.496   3.264
65313W        W30793  18.609  10.310   3.175
65314W        W30794  39.057  27.461   5.284
65315W        W30795  12.710  32.399  12.072
65316W        W30796   4.244  38.039   2.208
65317W        W30797  27.039   2.952   0.399
65318W        W30798  29.933  41.916  12.929
65319W        W30799   4.435  35.366   2.889
65320W        W30800   8.343  14.735  13.521
65321W        W30801  11.221   6.816  14.397
65322W        W30802  40.356   0.416   1.904
65323W        W30803  28.602   0.764   3.337
65324W        W30804  29.513  32.004  12.009
65325W        W30805  32.458  42.483   2.706
65326W        W30806   4.323  29.035   1.733
65327W        W30807   4.788  21.042  11.587
65328W        W30808   7.352  21.193   4.831
65329W        W30809  39.404   5.362  14.788
65330W        W30810  40.382  36.045  14.398
65331W        W30811  18.282  18.721   4.735
65332W        W30812  21.579  40.456  11.043
65333W        W30813  18.716   5.255   2.365
65334W        W30814  13.604  22.227  14.392
65335W        W30815   3.310  33.555  13.474
65336W        W30816  24.532  26.693   4.298
65337W        W30817  16.797  22.674  10.990
65338W        W30818  10.223  43.006  10.998
65339W        W30819  12.674   8.320  11.990
65340W        W30820   7.309  33.626   0.401
65341W        W30821  22.084  15.765  14.339
65342W        W30822  39.933  15.228   2.283
65343W        W30823  37.371  19.053  14.321
65344W        W30824  14.612  40.505  10.950
65345W        W30825  23.510  40.956  14.997
65346W        W30826  24.985  21.160   2.797
65347W        W30827  10.826  10.355  10.461
65348W        W30828  29.635  23.205   4.824
65349W        W30829  32.540  41.308  10.948
65350W        W30830  25.031  26.120   2.784
65351W        W30831  11.275   7.770  14.355
65352W        W30832  24.077   6.423   3.709
65353W        W30833  23.623  31.082  12.354
65354W        W30834  18.251  28.120  14.772
65355W        W30835  20.566  34.606   2.191
65356W        W30836  10.195  13.728  14.348
65357W        W30837  21.714   9.177  10.501
65358W        W30838  32.926   8.335   0.936
65359W        W30839  22.106   9.716   4.793
65360W        W30840  14.799   8.296   1.355
65361W        W30841   7.824  20.592  14.322
65362W        W30842   9.660  44.355  11.114
65363W        W30843   0.286  33.885  12.910
65364W        W30844  39.931  13.263  13.435
65365W        W30845   6.719  10.250  13.827
65366W        W30846  21.245  30.958  10.477
65367W        W30847  43.290  41.468  14.894
65368W        W30848  35.995  33.120  10.959
65369W        W30849  33.422  13.346   3.710
65370W        W30850   8.163   7.229  10.456
65371W        W30851   2.248   6.717  10.953
65372W        W30852  39.455  14.690   4.283
65373W        W30853   2.267   4.238  14.284
65374W        W30854  10.820   8.750   2.875
65375W        W30855  32.966  41.533   3.182
65376W        W30856  35.502  41.855  10.409
65377W        W30857  16.691   5.841  13.407
65378W        W30858  21.623  18.242   1.350
65379W        W30859  39.975  35.397   1.906
65380W        W30860   0.834   2.357  14.376
65381W        W30861  28.436  41.505  12.467
65382W        W30862   8.873  39.519   4.336
65383W        W30863  37.942  41.983   0.893
65384W        W30864  17.610  10.232   4.114
65385W        W30865  30.121  12.303   4.259
65386W        W30866  32.961  37.420  12.354
65387W        W30867  41.887  38.521   3.736
65388W        W30868   6.399  35.885  11.041
65389W        W30869  20.050  13.166  13.809
65390W        W30870  40.331   6.830  13.539
65391W        W30871  13.187  29.096  12.921
65392W        W30872  21.516   6.290   3.767
65393W        W30873  38.442  40.304  10.603
65394W        W30874  33.124   7.232  10.618
65395W        W30875  15.591  26.167  11.598
65396W        W30876  16.088  10.747   2.710
65397W        W30877   8.720  11.187   3.182
65398W        W30878  42.944   5.724  13.330
65399W        W30879  35.551  25.128   2.792
65400W        W30880   2.435  11.639  11.917
65401W        W30881  44.759   0.959   1.366
65402W        W30882  11.706  11.661   0.879
65403W        W30883  19.709  32.100   5.301
65404W        W30884  32.896  21.032   0.845
65405W        W30885  44.376  29.534   1.762
65406W        W30886   3.384  12.614  13.437
65407W        W30887  34.096  35.898   3.763
65408W        W30888  31.471  36.418  10.495
65409W        W30889  31.020  26.114  11.969
65410W        W30890  14.297   1.367   1.726
65411W        W30891  33.985  11.280   2.780
65412W        W30892   5.692  17.785   1.750
65413W        W30893  26.193  27.455  12.839
65414W        W30894  32.630  21.139   3.296
65415W        W30895  27.056   0.777   4.794
65416W        W30896  23.998  31.149  10.618
65417W        W30897   7.203  30.502  13.436
65418W        W30898  27.159   7.297  13.513
65419W        W30899   6.365  29.627   2.247
65420W        W30900  15.595  41.834   2.288
65421W        W30901  42.375  13.222   2.754
65422W        W30902  18.756  14.770  14.792
65423W        W30903  24.191  17.220  12.900
65424W        W30904  18.150  12.715  12.930
65425W        W30905   7.183  21.527  13.391
65426W        W30906  13.301   3.731  10.593
65427W        W30907  38.819  35.500  11.580
65428W        W30908  20.743  14.789  12.522
65429W        W30909  32.891   0.370  14.883
65430W        W30910  36.926  23.989  13.946
65431W        W30911  22.074  35.505  12.367
65432W        W30912  33.884  10.712   0.930
65433W        W30913  34.551  39.889   1.908
65434W        W30914  25.691  24.655   0.799
65435W        W30915   4.243   1.848   1.256
65436W        W30916  25.103  23.694   4.601
65437W        W30917  10.804  26.124   3.859
65438W        W30918  32.542  31.082   1.305
65439W        W30919   9.647  23.085   3.294
65440W        W30920  12.186   0.421  11.515
65441W        W30921  20.269   3.925   4.296
65442W        W30922  36.547  44.821   1.410
65443W        W30923  15.704   4.793  11.527
65444W        W30924   6.251  33.471   3.288
65445W        W30925  43.017  38.828   5.165
65446W        W30926  22.713  35.936   3.687
65447W        W30927  26.066  20.714  14.330
65448W        W30928  37.565  34.612  11.975
65449W        W30929  28.172  39.541  14.347
65450W        W30930  14.773  36.502   4.202
65451W        W30931  25.117  27.974  13.397
65452W        W30932  34.403  22.019   3.707
65453W        W30933  30.429  28.582  11.555
65454W        W30934  38.992  15.619  10.549
65455W        W30935  30.921  26.554  11.539
65456W        W30936  41.044  34.920  10.977
65457W        W30937  43.478   7.759  13.977
65458W        W30938  11.134  16.727   4.833
65459W        W30939   9.181  23.638  14.308
65460W        W30940   8.201  44.424  10.442
65461W        W30941  25.200   3.348  13.405
65462W        W30942  44.312  17.167   3.845
65463W        W30943   1.965  43.443   1.834
65464W        W30944  31.403  14.643  12.427
65465W        W30945  28.944  23.526  11.097
65466W        W30946   9.364  14.791   1.903
65467W        W30947   0.919  24.491  13.548
65468W        W30948  19.270  40.970  12.527
65469W        W30949  24.689  11.642   1.824
65470W        W30950  42.523  40.444   1.819
65471W        W30951  22.628  21.137  11.954
65472W        W30952  17.261  39.355   4.260
65473W        W30953  27.181  33.542   2.391
65474W        W30954  43.936  32.060  10.627
65475W        W30955  34.022   6.263  11.064
65476W        W30956   7.667   2.939   4.278
65477W        W30957  32.582  17.755  14.895
65478W        W30958  19.041  27.560  14.852
65479W        W30959  43.013   6.257   2.415
65480W        W30960  34.407  24.574   2.335
65481W        W30961  13.753  36.555  11.389
65482W        W30962  10.271  36.050   0.785
65483W        W30963   7.325  15.817  13.026
65484W        W30964  31.499  16.731   0.317
65485W        W30965   1.972  35.421  13.331
65486W        W30966  14.617  43.941  12.470
65487W        W30967  24.665  19.085  11.581
65488W        W30968  25.196  28.163   2.375
65489W        W30969   9.643  28.514  11.588
65490W        W30970  34.001  36.002  12.345
65491W        W30971  33.997   9.877  14.832
65492W        W30972  14.249   0.359   1.250
65493W        W30973  24.115  23.002   1.695
65494W        W30974  15.178   5.290  11.003
65495W        W30975   1.759   7.237  10.948
65496W        W30976  16.731  35.038   1.427
65497W        W30977  24.636  30.075  12.951
65498W        W30978  39.984  18.637  13.366
65499W        W30979  29.127   2.389   1.709
65500W        W30980  34.872  19.645   2.347
65501W        W30981  13.278  40.029   0.882
65502W        W30982  13.279   9.748   1.712
65503W        W30983  42.805  35.602  12.887
65504W        W30984  15.740  21.083   0.787
65505W        W30985   5.393   4.430   2.891
65506W        W30986  16.242  20.581  12.997
65507W        W30987  33.485  33.964   0.940
65508W        W30988  27.972   1.452  11.001
65509W        W30989  37.498  44.415   1.847
65510W        W30990  33.880   6.217  14.980
65511W        W30991  35.886  43.829  13.954
65512W        W30992  38.065   7.325   5.107
65513W        W30993  14.796  16.569  12.565
65514W        W30994  30.118  26.968   2.663
65515W        W30995  21.630  39.500   1.250
65516W        W30996  18.637  22.199   4.244
65517W        W30997  38.941  17.148  12.045
65518W        W30998  27.057  43.455   2.783
65519W        W30999  26.460  39.414  11.005
65520W        W31000  19.684  39.020  11.591
65521W        W31001   2.737   7.726  11.610
65522W        W31002  37.408  32.922   3.155
65523W        W31003  13.835  32.543   0.832
65524W        W31004  28.151  19.141  10.553
65525W        W31005  37.336  42.309  13.848
65526W        W31006   0.308  40.920  10.527
65527W        W31007  41.315   2.786   1.816
65528W        W31008  44.908  24.979  11.930
65529W        W31009  24.998  39.530   4.602
65530W        W31010  42.361   4.379   1.335
65531W        W31011  39.901  26.183  11.949
65532W        W31012  13.111   4.435   4.737
65533W        W31013  31.150  33.419  11.885
65534W        W31014  33.416  35.432  14.362
65535W        W31015   7.375   8.273   1.395
65536W        W31016   6.903  20.677  11.475
65537W        W31017  19.086  43.889   4.277
65538W        W31018  40.409  36.561   0.746
65539W        W31019  16.309  30.591   5.131
65540W        W31020  21.704   4.830   4.755
65541W        W31021   2.251  34.979   0.855
65542W        W31022  27.495  34.985   4.114
65543W        W31023  16.791  23.586   0.349
65544W        W31024  36.939  26.040  10.637
65545W        W31025  38.023  40.489   4.623
65546W        W31026   2.755  37.339  11.890
65547W        W31027  14.810  30.589   2.753
65548W        W31028  33.522   9.715  12.823
65549W        W31029  38.462  37.388   0.946
65550W        W31030  40.916  34.434   1.312
65551W        W31031  18.151   8.859  13.364
65552W        W31032  44.495   1.760   2.389
65553W        W31033  27.963  44.480  11.381
65554W        W31034  42.391  27.085  11.959
65555W        W31035  44.426  11.282  10.486
65556W        W31036  12.179  32.015  11.907
65557W        W31037  41.509   0.809   3.309
65558W        W31038  18.056  24.563  11.437
65559W        W31039  36.531  11.730   1.833
65560W        W31040   3.270   5.784  11.415
65561W        W31041  25.068  26.514  14.407
65562W        W31042   7.798  16.290   1.923
65563W        W31043   8.685  28.124  11.465
65564W        W31044   8.890   4.791   3.819
65565W        W31045  37.432  37.897  14.828
65566W        W31046   3.259  11.747  14.009
65567W        W31047  26.562   6.186  13.884
65568W        W31048  40.805   3.441  13.502
65569W        W31049   2.330  21.555  14.777
65570W        W31050   9.848  36.998   1.915
65571W        W31051  13.616  15.159  13.411
65572W        W31052   7.249  31.949   0.966
65573W        W31053  23.729  39.986   0.244
65574W        W31054   7.696  13.113   0.952
65575W        W31055  40.318  29.648  10.482
65576W        W31056   7.196  17.623  13.538
65577W        W31057   5.930   0.479  13.996
65578W        W31058  22.238   3.782   4.702
65579W        W31059  20.695  34.482  13.523
65580W        W31060   7.352  19.242   3.859
65581W        W31061   4.919   5.315   1.856
65582W        W31062   5.774  21.207  12.460
65583W        W31063   5.831  32.960   0.455
65584W        W31064  22.058   5.206  11.579
65585W        W31065  18.263  40.382   2.418
65586W        W31066   2.302  20.535   1.316
65587W        W31067   7.381  30.614   2.381
65588W        W31068  12.773  24.192   0.892
65589W        W31069  30.932   7.259  12.887
65590W        W31070  31.959  25.066  13.808
65591W        W31071   0.394  18.071   0.808
65592W        W31072  20.551  24.633   3.762
65593W        W31073  17.102   5.402  13.478
65594W        W31074   0.446  10.316  14.334
65595W        W31075  16.673  17.095  11.978
65596W        W31076  13.247  29.443  14.976
65597W        W31077  22.142  41.431  11.540
65598W        W31078   6.287  33.034  14.331
65599W        W31079  35.027   1.815   2.718
65600W        W31080  10.633  32.968   3.242
65601W        W31081  20.033  12.362   3.211
65602W        W31082  12.767   6.860  12.463
65603W        W31083  25.469  23.605   1.785
65604W        W31084   9.770   7.334   0.350
65605W        W31085  33.416   7.208  10.969
65606W        W31086   2.962  37.515  12.366
65607W        W31087  32.620  34.065  12.567
65608W        W31088  17.242  32.528  13.807
65609W        W31089   4.263  37.548   9.975
65610W        W31090  29.136   4.273   3.260
65611W        W31091  17.738  13.804   1.442
65612W        W31092  21.647  13.198  10.530
65613W        W31093  29.489  14.117   3.169
65614W        W31094  20.071  27.631   1.834
65615W        W31095  15.262   1.246   1.844
65616W        W31096  25.593  13.661   1.440
65617W        W31097  29.527   2.770  13.901
65618W        W31098  30.581  24.521   4.329
65619W        W31099  16.759   1.837  13.426
65620W        W31100  18.732   7.909  10.444
65621W        W31101  40.387   0.767  11.866
65622W        W31102  22.693  18.702   3.288
65623W        W31103   8.699   7.399   1.264
65624W        W31104  24.641  32.053   1.877
65625W        W31105  30.977   3.413   0.275
65626W        W31106   6.328  21.108   1.872
65627W        W31107  36.438  37.553   0.425
65628W        W31108   6.376   5.336  11.437
65629W        W31109  13.315   8.833   1.788
65630W        W31110  29.153  19.243  10.898
65631W        W31111  12.224  31.055   2.757
65632W        W31112   1.756   8.281   4.617
65633W        W31113   4.409  10.831   1.232
65634W        W31114   7.844  41.849  11.051
65635W        W31115  44.489   3.748   3.183
65636W        W31116  19.658  33.879  11.552
65637W        W31117  44.904  33.487  11.574
65638W        W31118  19.682  38.053   3.669
65639W        W31119  23.575   5.903   4.214
65640W        W31120  31.424  18.223  10.617
65641W        W31121  43.840  25.620   0.778
65642W        W31122  37.048  19.611   2.688
65643W        W31123  25.511   5.692   4.683
65644W        W31124  28.052   7.702  11.518
65645W        W31125  35.956   8.211   2.751
65646W        W31126  43.356   7.874   9.997
65647W        W31127  26.667  39.035   3.310
65648W        W31128  32.119  16.250  11.409
65649W        W31129  21.107  34.967   3.267
65650W        W31130  39.468  23.023   2.825
65651W        W31131   3.752   1.353  14.827
65652W        W31132  19.644  27.097  14.779
65653W        W31133  10.825  23.986   3.329
65654W        W31134  10.139  22.043  13.979
65655W        W31135  19.182  33.936  10.573
65656W        W31136   9.884  23.226  13.471
65657W        W31137  14.262  37.051   2.199
65658W        W31138  32.585  19.697  12.365
65659W        W31139  33.597  22.503   3.282
65660W        W31140  11.130  30.455  14.470
65661W        W31141  40.954  27.684   3.657
65662W        W31142  11.313  29.483   3.740
65663W        W31143   9.187   2.816  12.395
65664W        W31144  27.542  44.432   4.319
65665W        W31145  27.042  29.955   3.668
65666W        W31146  11.356  19.587  11.111
65667W        W31147  21.149  15.658  13.996
65668W        W31148  44.385  12.291   3.362
65669W        W31149  43.935  12.662  14.351
65670W        W31150  26.527   4.252   0.463
65671W        W31151  18.135  13.836  11.438
65672W        W31152  34.429  39.552  13.856
65673W        W31153  11.680   9.666   0.889
65674W        W31154   7.703  42.906  12.051
65675W        W31155   0.457  27.688   2.821
65676W        W31156  12.613  40.355  10.510
65677W        W31157  37.923  28.077   4.804
65678W        W31158  40.508  43.474   4.710
65679W        W31159  14.821   0.805   3.828
65680W        W31160   9.773  38.034  10.410
65681W        W31161  20.756  41.950   0.775
65682W        W31162  25.069  21.698  12.953
65683W        W31163   4.787  32.559   3.296
65684W        W31164  24.001   3.234  10.514
65685W        W31165   2.316  23.611   1.229
65686W        W31166  13.804  36.362   4.205
65687W        W31167  23.690   0.840   1.770
65688W        W31168  33.626  38.483  14.490
65689W        W31169   0.413  41.931   2.862
65690W        W31170  21.137  23.596   2.361
65691W        W31171  39.913  18.180   3.737
65692W        W31172  34.046  40.429  13.878
65693W        W31173  31.553  10.667  11.514
65694W        W31174  28.114  26.507  12.842
65695W        W31175  20.237  36.481  12.543
65696W        W31176  10.674  35.603   4.717
65697W        W31177  25.002  25.216   4.320
65698W        W31178   3.871  18.189   5.203
65699W        W31179  15.778  39.004  13.895
65700W        W31180  28.039  42.959  10.031
65701W        W31181  37.365  20.735  10.962
65702W        W31182  22.710  33.988   9.949
65703W        W31183   8.832   6.263  12.498
65704W        W31184  21.202  20.170   4.145
65705W        W31185  20.582  35.498  11.564
65706W        W31186  29.655  29.633   2.265
65707W        W31187   4.779  27.036   3.822
65708W        W31188  13.274  26.581   2.308
65709W        W31189  41.957  22.062   3.649
65710W        W31190  32.129  19.209   3.250
65711W        W31191  12.827  27.675   0.800
65712W        W31192   5.278   9.186   2.898
65713W        W31193  15.803  12.667   9.471
65714W        W31194  39.953   5.377   2.264
65715W        W31195  27.589   3.293   4.659
65716W        W31196  18.739   8.253   1.294
65717W        W31197   0.879  23.619   3.375
65718W        W31198  33.511  38.044  13.314
65719W        W31199   3.936  18.592   2.331
65720W        W31200   3.733  35.596  13.061
65721W        W31201  44.770  13.283  12.922
65722W        W31202  24.211  40.872  10.998
65723W        W31203  35.531  31.440  14.302
65724W        W31204  43.819  25.513  12.046
65725W        W31205   9.736  26.577   3.790
65726W        W31206  12.160  34.021  13.324
65727W        W31207  40.041  21.024   1.317
65728W        W31208   9.203   1.771   0.747
65729W        W31209  20.735  10.203   3.680
65730W        W31210  18.546  38.328   4.642
65731W        W31211  32.981  18.229  12.512
65732W        W31212  22.711  14.599   2.776
65733W        W31213  32.596   2.321   4.705
65734W        W31214  38.920  35.862   2.780
65735W        W31215  12.123  42.901  14.975
65736W        W31216  21.735   2.243   1.395
65737W        W31217  39.946   7.866   0.738
65738W        W31218  42.359  24.660  12.464
65739W        W31219  33.537  24.113   1.708
65740W        W31220   1.454  18.120  12.544
65741W        W31221   4.781  39.530  11.026
65742W        W31222   8.313  21.076  10.451
65743W        W31223  31.476   9.679   1.709
65744W        W31224  11.176   2.954  11.927
65745W        W31225  38.037  17.560   4.287
65746W        W31226  16.208   9.237  10.407
65747W        W31227  40.460  40.936   1.285
65748W        W31228   4.853  29.926   1.709
65749W        W31229   1.459  17.612   1.773
65750W        W31230  40.856   4.923  12.569
65751W        W31231  21.213  38.455  12.460
65752W        W31232  26.509  24.056  14.502
65753W        W31233  15.734  19.173   0.460
65754W        W31234   3.856  27.095   2.258
65755W        W31235   3.390  30.923   0.956
65756W        W31236   7.703  23.598   0.853
65757W        W31237  41.306  37.844   2.760
65758W        W31238  23.653  14.254  13.455
65759W        W31239  18.185  12.613  10.938
65760W        W31240   8.818  14.678   4.149
65761W        W31241  34.573  38.939   0.404
65762W        W31242   5.361  27.587  12.545
65763W        W31243  35.432   8.848   1.406
65764W        W31244  18.785  42.968  11.026
65765W        W31245  20.727  19.580  12.991
65766W        W31246  19.284  32.040  13.457
65767W        W31247  10.699   5.199   3.861
65768W        W31248  16.255  18.726   3.723
65769W        W31249  37.867  27.468  12.358
65770W        W31250  14.713  27.166  10.917
65771W        W31251  32.031  25.529  13.403
65772W        W31252  10.736  24.543   3.798
65773W        W31253   1.812   9.788  12.373
65774W        W31254  24.559  23.695   3.259
65775W        W31255  19.704  16.608  14.976
65776W        W31256   6.417  43.887  13.474
65777W        W31257  17.286  14.204   1.391
65778W        W31258  14.799  36.494  11.466
65779W        W31259  28.023  20.557   2.899
65780W        W31260  33.495  39.336  14.819
65781W        W31261  19.105  11.842   3.283
65782W        W31262   2.230  34.029   2.214
65783W        W31263   7.722   5.688   3.856
65784W        W31264  33.958   1.477   0.423
65785W        W31265  31.520   9.727   4.809
65786W        W31266  41.788  10.805   2.240
65787W        W31267   3.947  15.694   1.375
65788W        W31268  30.447  28.598   1.280
65789W        W31269  39.868  34.569   3.855
65790W        W31270  19.087  11.183   3.821
65791W        W31271  19.199  34.460  11.890
65792W        W31272   4.927  42.020   3.361
65793W        W31273  40.942  33.032  13.397
65794W        W31274  39.403  12.309  14.939
65795W        W31275  42.938  24.175  13.443
65796W        W31276   9.249   8.884  13.996
65797W        W31277  15.307  22.567   1.418
65798W        W31278  34.073  37.923  13.923
65799W        W31279  28.981  29.562  12.379
65800W        W31280   7.869  32.530   3.721
65801W        W31281  11.771  16.123  13.894
65802W        W31282  19.060  36.985  12.506
65803W        W31283  23.063  40.463  13.054
65804W        W31284   2.348  31.639  14.797
65805W        W31285  22.605  28.505  10.556
65806W        W31286  40.388  14.195  11.954
65807W        W31287   2.807  19.179  14.801
65808W        W31288  30.944  13.817   0.735
65809W        W31289  38.360  21.127   3.173
65810W        W31290  32.475  19.126   2.366
65811W        W31291  28.956  35.954  11.535
65812W        W31292   7.302  22.612   4.734
65813W        W31293  14.833  33.491   2.286
65814W        W31294  20.230  17.295   4.700
65815W        W31295  14.812  39.473   3.196
65816W        W31296  22.717   3.797   1.404
65817W        W31297   9.319  25.133  12.079
65818W        W31298  10.193  28.970   4.685
65819W        W31299  29.602  14.097   1.423
65820W        W31300  27.456   4.878  13.475
65821W        W31301   2.817  24.682  13.848
65822W        W31302  41.870  24.193  13.855
65823W        W31303   3.444   8.321  12.033
65824W        W31304  26.085  28.084   3.845
65825W        W31305  42.328   5.892   3.212
65826W        W31306   1.784  41.500   4.279
65827W        W31307  18.555   1.366  11.551
65828W        W31308  15.124  38.456  14.328
65829W        W31309  21.105   5.233   4.731
65830W        W31310  28.649  26.681  14.003
65831W        W31311   8.297  23.555  13.832
65832W        W31312  43.021  40.480  10.613
65833W        W31313  14.682   5.219  12.462
65834W        W31314  39.495  19.574  10.590
65835W        W31315  35.413   0.485  13.326
65836W        W31316  37.959  21.635  14.503
65837W        W31317  18.199   4.240  14.942
65838W        W31318  25.686  34.562  13.843
65839W        W31319  37.895  24.022  12.435
65840W        W31320  36.480  22.093  12.390
65841W        W31321  14.828  29.134   2.252
65842W        W31322  24.105  25.651  14.974
65843W        W31323   6.774  21.668   1.808
65844W        W31324   4.446  41.458  12.864
65845W        W31325  30.978  25.497   2.844
65846W        W31326  18.286  37.998  11.952
65847W        W31327  42.812   9.766  11.873
65848W        W31328  36.532  25.155  10.619
65849W        W31329  16.790  15.299  14.424
65850W        W31330  29.561  16.303   0.473
65851W        W31331  18.180  28.539   1.379
65852W        W31332  18.628   8.234   2.196
65853W        W31333  31.143   6.810  13.351
65854W        W31334  43.909  13.608  11.994
65855W        W31335  29.982  40.546   2.815
65856W        W31336  39.483  18.141  11.006
65857W        W31337  10.343  11.369   1.393
65858W        W31338  14.626  38.937   2.181
65859W        W31339  11.172   1.301   4.803
65860W        W31340   9.780  21.151  10.981
65861W        W31341   3.727  39.516  10.947
65862W        W31342   9.850  44.499   3.335
65863W        W31343  24.641  37.356   3.649
65864W        W31344  17.191  26.015  14.337
65865W        W31345  16.698  44.986   2.317
65866W        W31346   9.884  32.499   3.273
65867W        W31347  35.403  42.833  14.318
65868W        W31348  20.729   0.423  11.093
65869W        W31349  10.362   9.242   1.316
65870W        W31350  40.861  24.655  11.388
65871W        W31351   8.898  43.337   0.950
65872W        W31352   3.274  23.541  13.808
65873W        W31353  25.616  20.198  13.005
65874W        W31354  39.050  15.227   9.936
65875W        W31355  39.065  42.527  14.455
65876W        W31356  27.061  26.639   0.750
65877W        W31357  42.508   9.651   3.647
65878W        W31358  34.997   2.317  14.291
65879W        W31359   7.413  21.679   0.814
65880W        W31360  16.786  42.781   0.452
65881W        W31361  14.130  26.510  13.029
65882W        W31362  43.478  36.458   4.653
65883W        W31363  29.001  37.529   4.198
65884W        W31364  33.893  19.778   4.770
65885W        W31365  20.696  41.336  12.908
65886W        W31366  23.541  39.437  14.426
65887W        W31367  10.666   6.902   2.244
65888W        W31368  21.531  19.593   2.676
65889W        W31369  36.353  38.329   4.653
65890W        W31370   4.750  30.147   1.335
65891W        W31371   6.237  44.869   0.328
65892W        W31372  12.792   1.801   0.252
65893W        W31373  31.495  14.770   3.716
65894W        W31374  21.092  15.089  14.856
65895W        W31375   3.878   8.702  11.007
65896W        W31376  19.111  14.326   2.392
65897W        W31377  11.369  25.045   3.859
65898W        W31378  40.313   1.242  13.474
65899W        W31379  27.636  28.495   0.379
65900W        W31380  10.853  14.211  12.865
65901W        W31381  30.445  11.745  11.587
65902W        W31382  42.870  27.575  14.304
65903W        W31383   0.443  30.549  14.420
65904W        W31384  15.824   9.299  11.094
65905W        W31385  12.766  27.470   0.298
65906W        W31386  39.417   5.414   2.208
65907W        W31387  34.885  28.950  13.046
65908W        W31388   8.177  40.883  14.335
65909W        W31389  40.529  24.221  14.881
65910W        W31390  32.101  22.008   3.217
65911W        W31391  28.965  17.248  10.929
65912W        W31392   1.326  23.719   2.249
65913W        W31393  28.133  33.409   3.298
65914W        W31394  25.606  23.097   4.837
65915W        W31395  36.952  17.156  14.314
65916W        W31396  44.353  20.215   0.808
65917W        W31397  30.088  10.279   1.876
65918W        W31398  15.818  32.434   4.827
65919W        W31399  39.488  37.977   0.797
65920W        W31400  33.525  17.777  11.970
65921W        W31401  22.523  23.041   3.685
65922W        W31402  10.173  41.350  10.499
65923W        W31403  37.856  36.547   0.782
65924W        W31404   6.297   7.769  10.117
65925W        W31405  32.596   7.911  11.877
65926W        W31406  23.212   4.443   1.842
65927W        W31407   4.372  41.977   3.849
65928W        W31408  21.642   7.865  12.992
65929W        W31409  33.621   2.277  14.786
65930W        W31410  17.121   8.867   4.326
65931W        W31411  14.262  39.503  11.042
65932W        W31412  22.234  18.638   4.763
65933W        W31413  17.267  31.076  14.423
65934W        W31414  40.950   4.217  13.809
65935W        W31415  34.012  23.506  13.472
65936W        W31416   8.390  22.079   2.223
65937W        W31417  36.428  42.339  11.025
65938W        W31418  23.734   4.442  10.457
65939W        W31419  42.877   1.302  13.921
65940W        W31420  27.159  23.188  14.966
65941W        W31421   0.278  42.288   2.792
65942W        W31422  39.381  40.863   0.379
65943W        W31423  27.615   6.223  10.464
65944W        W31424   1.412   7.303   1.421
65945W        W31425   7.847   0.250   2.345
65946W        W31426   5.920  22.041   4.337
65947W        W31427  27.484  27.161  12.036
65948W        W31428  34.909  12.285  14.820
65949W        W31429  38.507  27.067   1.317
65950W        W31430  39.452  29.067   1.321
65951W        W31431  35.572  37.375  12.893
65952W        W31432  31.995  36.384  14.280
65953W        W31433  15.093  29.106   1.719
65954W        W31434   4.811   9.822   3.219
65955W        W31435   2.267  40.398   0.474
65956W        W31436  18.619  41.502   4.808
65957W        W31437  23.677  38.033  11.902
65958W        W31438  10.244   0.811  10.006
65959W        W31439  33.575  36.949   2.824
65960W        W31440  44.797  40.842   1.766
65961W        W31441  34.927   1.964  14.392
65962W        W31442  42.852  24.115  12.540
65963W        W31443  43.977   5.722   3.719
65964W        W31444  29.967  17.097  12.430
65965W        W31445  13.273  20.137   1.326
65966W        W31446  31.945  12.150   3.630
65967W        W31447  32.562   5.242   0.271
65968W        W31448  17.222  28.152   1.285
65969W        W31449  15.180   2.275  11.067
65970W        W31450  30.939  26.592  13.534
65971W        W31451   2.837   8.669   4.298
65972W        W31452   5.195  42.949  13.455
65973W        W31453   7.713  44.966   1.441
65974W        W31454  44.782  37.001   2.799
65975W        W31455   0.275  14.167  13.802
65976W        W31456  31.432  29.619   4.180
65977W        W31457  38.356   0.865   1.419
65978W        W31458   6.775   7.796  10.631
65979W        W31459  29.561  41.976   0.746
65980W        W31460  14.736  27.543  10.628
65981W        W31461  16.779  27.649   3.286
65982W        W31462   9.747  24.602  12.541
65983W        W31463   1.792  32.034  14.429
65984W        W31464  23.169  43.464   5.304
65985W        W31465  21.578   7.735   0.249
65986W        W31466  37.354   5.265  10.496
65987W        W31467  41.979  34.552   0.856
65988W        W31468  37.386  32.458   1.893
65989W        W31469  12.321  36.399   4.280
65990W        W31470  40.881  31.108  12.848
65991W        W31471  35.910   3.377  12.545
65992W        W31472  43.380  22.124  12.918
65993W        W31473  31.099  31.431  11.060
65994W        W31474  30.496  17.145   0.792
65995W        W31475  43.511  18.165  14.423
65996W        W31476  26.106  17.623  14.402
65997W        W31477  13.644  23.133   4.809
65998W        W31478   6.897  16.697   0.262
65999W        W31479   2.865   0.313   0.798
66000W        W31480  26.612  28.503   0.883
66001W        W31481  10.210  19.693  12.037
66002W        W31482  26.010  31.564  10.416
66003W        W31483  44.325  15.254  12.965
66004W        W31484  14.828  24.100   0.734
66005W        W31485   2.260   9.394  13.992
66006W        W31486  34.955  34.560   4.214
66007W        W31487  37.392  22.570   1.862
66008W        W31488  42.863   6.856   1.262
66009W        W31489  25.208  12.721  11.482
66010W        W31490  12.245   2.958   3.661
66011W        W31491  23.531  31.992  13.826
66012W        W31492  20.156  44.376   2.824
66013W        W31493  31.950  15.327  11.109
66014W        W31494  31.473  25.598   4.302
66015W        W31495  22.124  33.404   0.940
66016W        W31496  32.574   9.872  12.006
66017W        W31497   1.770   0.466  12.524
66018W        W31498  38.043  34.880   4.639
66019W        W31499  26.610  39.912   2.825
66020W        W31500  11.235  37.539   4.736
66021W        W31501  29.630  24.650  10.918
66022W        W31502  42.457  14.164   1.834
66023W        W31503  29.541  24.718   1.238
66024W        W31504   9.850  11.711  11.031
66025W        W31505  37.560  13.296  12.443
66026W        W31506  33.548   3.821  11.561
66027W        W31507  14.734  25.520   1.841
66028W        W31508  31.413  42.289  14.938
66029W        W31509  12.756  39.945   3.739
66030W        W31510  42.885  13.133  11.980
66031W        W31511  20.688  18.150   2.752
66032W        W31512  12.683  30.935  14.352
66033W        W31513  43.774  15.620  13.529
66034W        W31514  26.497  34.874  10.435
66035W        W31515   8.207  29.638   1.826
66036W        W31516  21.545   7.254  14.441
66037W        W31517  14.325  44.473   2.263
66038W        W31518  21.210  16.734  13.391
66039W        W31519  26.078  32.430   4.302
66040W        W31520  15.262  13.737   0.784
66041W        W31521  42.839  15.662   4.822
66042W        W31522   7.703  32.540   0.315
66043W        W31523  23.084  33.427  10.418
66044W        W31524   8.686  20.636   2.397
66045W        W31525  24.567  36.017   0.908
66046W        W31526   7.205  41.306   3.790
66047W        W31527   9.857  39.370  14.991
66048W        W31528  10.744  23.514  10.938
66049W        W31529   6.192   4.219  13.855
66050W        W31530  36.006  34.536   1.840
66051W        W31531   2.746  29.040  14.356
66052W        W31532  15.583  16.300  10.099
66053W        W31533  27.106   2.359   2.774
66054W        W31534  15.779  34.454   0.443
66055W        W31535  28.122  39.050  11.393
66056W        W31536   5.400  23.552   4.647
66057W        W31537  11.269   9.336  12.860
66058W        W31538  26.955  30.598   4.319
66059W        W31539  24.183  14.759   4.640
66060W        W31540  38.859  41.514  13.375
66061W        W31541  37.927  31.551   0.278
66062W        W31542   8.854  34.396   1.775
66063W        W31543   8.758   8.672   0.357
66064W        W31544  26.576  31.987  13.882
66065W        W31545  41.529   5.924   3.244
66066W        W31546  14.195  16.806   3.311
66067W        W31547   0.956  30.649  12.917
66068W        W31548   0.376  33.478  10.542
66069W        W31549  33.115  18.709  11.451
66070W        W31550  29.471  14.597  10.583
66071W        W31551  29.436  22.123   1.416
66072W        W31552  38.405  39.869   2.229
66073W        W31553  15.815  34.953   2.366
66074W        W31554   5.881  25.113  14.361
66075W        W31555  20.634  25.000  10.486
66076W        W31556  42.948  18.271  12.095
66077W        W31557   1.429  24.166   0.382
66078W        W31558   8.851  40.858   3.750
66079W        W31559  16.078  39.960   0.754
66080W        W31560  23.075  24.143  13.867
66081W        W31561  41.896  28.670   4.154
66082W        W31562  27.548  37.429  10.442
66083W        W31563  21.718  39.036   1.280
66084W        W31564  31.034  27.080   2.781
66085W        W31565  40.333  17.687  13.841
66086W        W31566  15.777  31.066   0.960
66087W        W31567  30.980  23.567   4.781
66088W        W31568  39.516  26.537  14.329
66089W        W31569  21.604  44.903  14.821
66090W        W31570  36.565  14.593  14.410
66091W        W31571   5.792  27.592  14.027
66092W        W31572  31.095  10.825   1.225
66093W        W31573  23.561   7.247  14.882
66094W        W31574  10.160   1.267   0.867
66095W        W31575  27.596   8.703  12.010
66096W        W31576   7.743  20.581  12.375
66097W        W31577  28.101   7.201   3.632
66098W        W31578  30.650  24.021  12.092
66099W        W31579   3.357  22.562  14.390
66100W        W31580  29.608  23.725   4.322
66101W        W31581   5.419  43.407  12.940
66102W        W31582  41.400   9.797   1.720
66103W        W31583  34.069  14.166   4.312
66104W        W31584  25.097  34.595   4.630
66105W        W31585   8.186   6.713   4.768
66106W        W31586  12.320   7.904  14.447
66107W        W31587   8.295  27.120   1.798
66108W        W31588  36.413  40.005   4.805
66109W        W31589  37.051  14.251  10.413
66110W        W31590  31.909  41.831   3.358
66111W        W31591  30.552  41.376   2.736
66112W        W31592   9.201  37.429  12.906
66113W        W31593  33.944   1.950   4.274
66114W        W31594  22.059  15.137  10.498
66115W        W31595  34.471  10.294   2.891
66116W        W31596  11.180  31.430   2.391
66117W        W31597  35.387  43.883  13.050
66118W        W31598  38.460   9.815   0.280
66119W        W31599  25.635  34.598   1.702
66120W        W31600  22.160  26.619   4.203
66121W        W31601   8.355   6.772  14.283
66122W        W31602  14.317  11.830   1.810
66123W        W31603  19.280   5.789   1.891
66124W        W31604  43.347  31.529  10.890
66125W        W31605  10.707  18.052   4.131
66126W        W31606  30.074  30.016  10.621
66127W        W31607  40.984  27.478  13.792
66128W        W31608  14.686  27.031   2.189
66129W        W31609  18.697   1.977   5.090
66130W        W31610  19.700  41.490  14.463
66131W        W31611  10.347   5.848  14.458
66132W        W31612  36.578  11.649   0.300
66133W        W31613  44.330  23.523  12.518
66134W        W31614  39.911  11.225   4.311
66135W        W31615   8.193  22.054  13.021
66136W        W31616  36.573  44.443   2.799
66137W        W31617  33.900   7.769  12.846
66138W        W31618   6.850  22.540   3.749
66139W        W31619  12.302  17.647   0.252
66140W        W31620   7.385  44.974   1.860
66141W        W31621  21.730  35.036   2.842
66142W        W31622  37.056  12.789  14.311
66143W        W31623   8.338  44.429  11.525
66144W        W31624   4.441   1.466   0.450
66145W        W31625  27.146   5.898  13.525
66146W        W31626  23.079  33.511  11.387
66147W        W31627   0.941  31.588   4.814
66148W        W31628  21.199  26.539  10.018
66149W        W31629  12.770   1.950   1.426
66150W        W31630  16.787  34.550   0.459
66151W        W31631  43.953  37.988  12.893
66152W        W31632  31.620  32.423  10.531
66153W        W31633   1.378  41.500  12.961
66154W        W31634  34.925  34.559  12.922
66155W        W31635  25.576   3.818   3.687
66156W        W31636  16.794   5.371  14.828
66157W        W31637   0.946  34.974  12.081
66158W        W31638  39.359  42.445  12.089
66159W        W31639  21.646  18.050  10.538
66160W        W31640  19.599  10.845  14.835
66161W        W31641  38.937  33.382   5.095
66162W        W31642  35.420   4.211  13.532
66163W        W31643  36.033   4.700  14.404
66164W        W31644   1.843  22.639   4.327
66165W        W31645  27.584   4.338   0.870
66166W        W31646  35.955  22.710   4.146
66167W        W31647  33.998  23.675  10.558
66168W        W31648  27.454   1.418  13.982
66169W        W31649   7.678   0.921  13.396
66170W        W31650   5.306  33.479   1.802
66171W        W31651  39.983   9.817  10.974
66172W        W31652  31.914  43.414   2.396
66173W        W31653  12.773  40.506   3.326
66174W        W31654  31.528  42.347   0.847
66175W        W31655   1.473  14.650  10.464
66176W        W31656   0.265  11.181  10.543
66177W        W31657  39.956  16.783   9.981
66178W        W31658  23.613  18.067   2.235
66179W        W31659  19.167  42.346   1.848
66180W        W31660   5.313  31.015  10.629
66181W        W31661  13.217   5.710   2.350
66182W        W31662  15.770  17.076   1.749
66183W        W31663   0.848  34.099  13.851
66184W        W31664  16.179  24.214  11.072
66185W        W31665   8.222   2.249  13.447
66186W        W31666  10.662  19.603  11.953
66187W        W31667  38.399  41.008  13.375
66188W        W31668  25.981  44.323   4.125
66189W        W31669  21.068  34.533  11.876
66190W        W31670  16.084  10.747  11.894
66191W        W31671   7.860  39.876  14.374
66192W        W31672  10.836  22.743   0.400
66193W        W31673  44.996  25.494   4.182
66194W        W31674  27.075  23.501  13.837
66195W        W31675   0.780   9.375  10.600
66196W        W31676  24.590  19.614  10.428
66197W        W31677  40.328   8.711   4.822
66198W        W31678  13.674   9.320   4.816
66199W        W31679  12.704  13.636  13.033
66200W        W31680   0.791  21.599  14.277
66201W        W31681  35.462  39.823  14.811
66202W        W31682  40.825  31.555  13.352
66203W        W31683  37.470  32.477   0.374
66204W        W31684  43.325   6.811   0.377
66205W        W31685  14.246  26.139   0.876
66206W        W31686  32.903  33.886  13.030
66207W        W31687  18.166  41.877   0.835
66208W        W31688  12.655  42.298   0.461
66209W        W31689  16.138  37.382  10.075
66210W        W31690  31.022  20.221  14.830
66211W        W31691  43.335   3.344  13.493
66212W        W31692  10.256  23.735   9.941
66213W        W31693  26.658  33.526  10.437
66214W        W31694  23.697  13.813  12.965
66215W        W31695   3.904  43.495   3.820
66216W        W31696  21.572   5.244  13.396
66217W        W31697  44.434  21.092  14.344
66218W        W31698  42.288   3.239  10.539
66219W        W31699   2.293  33.081  12.424
66220W        W31700  33.537  20.234   0.335
66221W        W31701  34.583   7.832  10.899
66222W        W31702  20.108  33.113  14.017
66223W        W31703  35.003  13.645  14.903
66224W        W31704  10.768  39.997   0.432
66225W        W31705  33.967  15.090   1.922
66226W        W31706  25.125  26.651  10.631
66227W        W31707  30.118  12.711  11.459
66228W        W31708  32.085  42.903   2.241
66229W        W31709  28.471  35.473   3.848
66230W        W31710  34.870  22.569   2.178
66231W        W31711   2.842  20.656  13.539
66232W        W31712   7.744  17.746   1.850
66233W        W31713   3.730  22.737   1.422
66234W        W31714  44.454  32.115  12.931
66235W        W31715  27.016  29.150   4.297
66236W        W31716  38.404  31.080   0.285
66237W        W31717  39.894  37.337   1.392
66238W        W31718  31.559  31.413  12.982
66239W        W31719   3.849  15.306   0.930
66240W        W31720  32.064  21.189   4.221
66241W        W31721  10.315   6.785   1.218
66242W        W31722  12.711  21.665  13.475
66243W        W31723  28.645  25.142  14.338
66244W        W31724   2.720   7.899   0.866
66245W        W31725  41.827  34.951   0.728
66246W        W31726  15.237  33.495   3.853
66247W        W31727  44.965  32.062  10.412
66248W        W31728  44.841  38.458  14.408
66249W        W31729  41.293  43.833   0.802
66250W        W31730  31.505   2.317   1.762
66251W        W31731  35.963  17.064   1.905
66252W        W31732  16.256  16.568   4.772
66253W        W31733  31.447  44.810   4.612
66254W        W31734  28.676   0.948   2.343
66255W        W31735   5.356  24.043  13.388
66256W        W31736  18.280   9.795   4.280
66257W        W31737   0.962  29.987  13.910
66258W        W31738  30.042  37.861   2.725
66259W        W31739  15.237   3.954   4.133
66260W        W31740  38.902  22.579  11.028
66261W        W31741  33.918  36.898  12.360
66262W        W31742   1.338   9.771   4.613
66263W        W31743  16.223   8.298  13.440
66264W        W31744   9.222   9.362  14.809
66265W        W31745  14.185  39.058  14.850
66266W        W31746  33.545  37.370   4.118
66267W        W31747  14.696  16.284  10.572
66268W        W31748  33.029  18.124  13.916
66269W        W31749  42.828   2.431   0.764
66270W        W31750   3.743  41.894  10.965
66271W        W31751  31.104  32.004  12.955
66272W        W31752  41.311  34.889   2.416
66273W        W31753   4.387  11.162  10.538
66274W        W31754  44.504   9.348   4.246
66275W        W31755  20.215  12.293  12.576
66276W        W31756  12.654  26.601  10.459
66277W        W31757  35.503  11.215   4.275
66278W        W31758  12.775  23.155   1.831
66279W        W31759  10.262  37.569   4.634
66280W        W31760  28.437   8.210  10.998
66281W        W31761  12.319  39.977  13.346
66282W        W31762   6.697  25.133  12.885
66283W        W31763  18.634  32.003   3.242
66284W        W31764  20.607  21.123   3.737
66285W        W31765  20.236  14.663   0.728
66286W        W31766  18.093  29.637  13.318
66287W        W31767  21.555  44.278  13.503
66288W        W31768  42.392  34.556  12.476
66289W        W31769   3.319  38.344   4.177
66290W        W31770  21.147  26.095  12.497
66291W        W31771  42.902   4.440   9.999
66292W        W31772  16.572  17.114   4.735
66293W        W31773  30.064  30.462  11.380
66294W        W31774   1.280  38.532  14.900
66295W        W31775  16.184  36.554  10.894
66296W        W31776  43.808  25.670   4.241
66297W        W31777  14.323  22.582   1.359
66298W        W31778   3.924   3.810   3.238
66299W        W31779   3.929  13.215   4.270
66300W        W31780  25.582  14.755  13.417
66301W        W31781  19.642  35.082   1.216
66302W        W31782  35.559   6.749  13.901
66303W        W31783  18.283  25.200  11.474
66304W        W31784  27.689   5.874   4.145
66305W        W31785   8.878  28.437  11.001
66306W        W31786  24.601   0.404  10.579
66307W        W31787  17.728   2.795  14.843
66308W        W31788  22.147  29.639   2.676
66309W        W31789  22.040   8.709  11.911
66310W        W31790  16.129  44.344   1.311
66311W        W31791   5.326   1.257  10.635
66312W        W31792  39.932  42.921  10.936
66313W        W31793   1.464  36.023  13.817
66314W        W31794  22.510   3.327  13.545
66315W        W31795  40.476  37.087  11.052
66316W        W31796  10.790  15.268   1.793
66317W        W31797  22.012   5.224   0.729
66318W        W31798  18.716  19.727  11.376
66319W        W31799  31.552  14.171   2.771
66320W        W31800  33.100   4.364  12.924
66321W        W31801  15.103  16.208   2.307
66322W        W31802  27.012  34.042  13.044
66323W        W31803  39.498  29.538   3.654
66324W        W31804   1.736   3.765  11.526
66325W        W31805  37.437  30.599  13.362
66326W        W31806  11.789  31.588  10.426
66327W        W31807  13.719  43.013  12.995
66328W        W31808  24.652  42.931  12.900
66329W        W31809  41.802  22.568   0.874
66330W        W31810  31.533  27.520   3.811
66331W        W31811  43.768  15.272   4.615
66332W        W31812   7.300  40.496   4.125
66333W        W31813  21.210  11.299  13.013
66334W        W31814  28.590  17.297   0.904
66335W        W31815  11.221   9.758  13.913
66336W        W31816  28.535  25.088  14.813
66337W        W31817   7.864  10.251  13.343
66338W        W31818  34.606  25.160  11.404
66339W        W31819  17.102  10.306  14.353
66340W        W31820  38.908  37.441   3.237
66341W        W31821  21.535  20.055  11.579
66342W        W31822  20.547  34.555   2.800
66343W        W31823  33.929   7.173   4.125
66344W        W31824  17.143  22.528  12.350
66345W        W31825   5.279  44.324   4.148
66346W        W31826  18.279   9.802   0.361
66347W        W31827  39.417  43.297   1.722
66348W        W31828  17.276  37.343   0.406
66349W        W31829  20.057  31.114   4.781
66350W        W31830  34.531  17.659   4.678
66351W        W31831  28.957  10.195  13.500
66352W        W31832  20.738  25.139  11.994
66353W        W31833  15.591   6.310   1.371
66354W        W31834  29.657  26.103  14.833
66355W        W31835  37.960  29.586   0.854
66356W        W31836  17.561  23.042  14.954
66357W        W31837  29.514  26.034   4.764
66358W        W31838  14.295  44.408   1.830
66359W        W31839  20.053  16.271  14.439
66360W        W31840  13.830  32.894   4.151
66361W        W31841  30.617  29.918   0.946
66362W        W31842  31.005  44.313  10.081
66363W        W31843  16.579  11.298  12.342
66364W        W31844  21.744   1.819  14.395
66365W        W31845  10.323  30.593   1.239
66366W        W31846  12.340   4.304   0.290
66367W        W31847   9.864  21.177   0.465
66368W        W31848  27.485  30.478   2.839
66369W        W31849  31.487   9.196   3.381
66370W        W31850  25.048   4.291  12.072
66371W        W31851  17.715  15.595   0.456
66372W        W31852   0.440  32.499   4.353
66373W        W31853  26.952  14.808  13.531
66374W        W31854  37.364  23.661   1.247
66375W        W31855  39.455  10.179   2.223
66376W        W31856  16.771   6.264   3.647
66377W        W31857  10.165  21.560   4.118
66378W        W31858  38.478  32.600   3.165
66379W        W31859   7.373  26.197  13.348
66380W        W31860  29.068  39.470   4.624
66381W        W31861  43.780  37.981   2.891
66382W        W31862   0.872  11.362  12.496
66383W        W31863  40.367  13.174   0.730
66384W        W31864  43.888  27.121  14.977
66385W        W31865  14.231  25.534  11.425
66386W        W31866  18.785   0.402  14.843
66387W        W31867  40.524   6.902  14.011
66388W        W31868  38.348  20.083   0.864
66389W        W31869   9.679  29.549  10.976
66390W        W31870  31.996  22.006  11.500
66391W        W31871   6.227  44.952  11.976
66392W        W31872  31.510  29.060  14.938
66393W        W31873  13.760  43.440  14.932
66394W        W31874  41.296  11.782  14.382
66395W        W31875  40.383  42.983   4.835
66396W        W31876  13.623   9.670   1.249
66397W        W31877  20.574   6.829  11.500
66398W        W31878  27.615  44.997   0.416
66399W        W31879  44.870  40.485  11.491
66400W        W31880  16.793  39.952  11.545
66401W        W31881  11.156   1.734   0.893
66402W        W31882   9.186  37.078   1.210
66403W        W31883  32.634  22.224  10.470
66404W        W31884  32.054   1.288   4.330
66405W        W31885  44.981  24.529  14.803
66406W        W31886  42.031   3.261   3.680
66407W        W31887  31.605  26.539  12.933
66408W        W31888  13.135  23.566   1.368
66409W        W31889  34.396  18.136  12.395
66410W        W31890  24.079  14.765  13.344
66411W        W31891   2.438  39.481  14.962
66412W        W31892  16.585   4.445  13.309
66413W        W31893  17.663  11.708   2.672
66414W        W31894  42.371  38.970   1.819
66415W        W31895  15.194  41.982   0.922
66416W        W31896   1.761  25.139   2.818
66417W        W31897  25.502  29.031   3.231
66418W        W31898  18.262  37.898   2.761
66419W        W31899   9.863   1.408   2.190
66420W        W31900  17.209   5.846   3.189
66421W        W31901  17.269  20.094  10.432
66422W        W31902  19.114   3.329   0.320
66423W        W31903   7.820   5.363  10.420
66424W        W31904   5.808   1.854   0.464
66425W        W31905   1.906  20.250  10.609
66426W        W31906   9.741   9.670  12.514
66427W        W31907  19.545   4.229  13.945
66428W        W31908  30.958   7.338   1.820
66429W        W31909  31.645  42.518  11.070
66430W        W31910  12.847  31.903  11.481
66431W        W31911  41.855   5.916   2.900
66432W        W31912   6.374  23.594   2.215
66433W        W31913   4.340  34.941   3.714
66434W        W31914  44.298  37.396   2.346
66435W        W31915  36.947  22.710   2.179
66436W        W31916  32.034  36.537   1.736
66437W        W31917  38.860   3.417   2.852
66438W        W31918  42.972  41.535   0.808
66439W        W31919  41.808  21.708  13.407
66440W        W31920  40.507  15.644   1.321
66441W        W31921   8.754  11.857  13.837
66442W        W31922  43.283  18.712  14.505
66443W        W31923  28.115   4.792  12.389
66444W        W31924  10.691  21.670   4.351
66445W        W31925  37.071  33.407   0.279
66446W        W31926  37.868  19.688   5.120
66447W        W31927  15.796  12.660   2.380
66448W        W31928  31.940  24.645   1.332
66449W        W31929  17.666  36.356  11.515
66450W        W31930  33.505   0.950  11.459
66451W        W31931  28.537  37.418  11.977
66452W        W31932  20.616  36.369  12.906
66453W        W31933  31.047  24.638   4.221
66454W        W31934  20.086  23.225  12.930
66455W        W31935  37.340  33.952   3.696
66456W        W31936  22.524  31.530   1.739
66457W        W31937  38.506   8.890   1.364
66458W        W31938  34.978   6.824   1.232
66459W        W31939  20.733  15.104   1.764
66460W        W31940  13.312  16.268  14.990
66461W        W31941  41.860  24.677   4.696
66462W        W31942  40.405  19.095  13.948
66463W        W31943   7.843  17.694  11.448
66464W        W31944  31.613  10.285   2.237
66465W        W31945  43.935  23.182   3.351
66466W        W31946   9.885  38.408   0.834
66467W        W31947   0.438   9.704   2.216
66468W        W31948  24.087  19.047  10.479
66469W        W31949  27.621  30.146   0.952
66470W        W31950   8.725  18.695  14.970
66471W        W31951  42.813  33.966  13.876
66472W        W31952  39.887  30.637  10.624
66473W        W31953  11.174  42.868  10.961
66474W        W31954  29.152   6.286  11.099
66475W        W31955  17.271   7.712  12.405
66476W        W31956  16.199  36.967  10.487
66477W        W31957   3.727   5.326   1.884
66478W        W31958  22.208  43.322  10.610
66479W        W31959   4.389   9.210  14.933
66480W        W31960  27.621   8.698  12.835
66481W        W31961  20.270  35.508   0.855
66482W        W31962  38.437  40.412   2.799
66483W        W31963  29.473   2.262   1.906
66484W        W31964  34.396   6.699  14.871
66485W        W31965  17.273  13.168  10.593
66486W        W31966  18.121  40.022   1.287
66487W        W31967  27.043  37.851  14.336
66488W        W31968   5.912  21.110   1.334
66489W        W31969  17.094  29.005  12.549
66490W        W31970   1.833  40.956   3.738
66491W        W31971  42.950  41.518  11.872
66492W        W31972   6.370  29.537  12.579
66493W        W31973  32.459  19.700   2.670
66494W        W31974  21.707  15.123   0.798
66495W        W31975  37.488  29.084  12.842
66496W        W31976  39.510   5.749  10.590
66497W        W31977  10.145  25.134   3.327
66498W        W31978  16.116  11.180  13.363
66499W        W31979  18.100  18.591   1.259
66500W        W31980  15.296  20.044  12.009
66501W        W31981  34.055  10.186   1.305
66502W        W31982  15.295  26.678   5.175
66503W        W31983  40.330  21.754   4.263
66504W        W31984  43.922  38.411  13.516
66505W        W31985  11.794  43.996   4.226
66506W        W31986  12.362   1.822  13.394
66507W        W31987  10.159  40.999  13.795
66508W        W31988  43.844   0.796   2.305
66509W        W31989   4.435  11.309   0.780
66510W        W31990   8.379  26.047  11.597
66511W        W31991  41.320  31.007  13.367
66512W        W31992  12.214  17.084   3.653
66513W        W31993   2.360  18.173  10.945
66514W        W31994  35.420  12.177   0.915
66515W        W31995  17.221   8.162   3.163
66516W        W31996  11.207  27.609  14.884
66517W        W31997   7.214  44.809  11.384
66518W        W31998   9.237  15.231  11.501
66519W        W31999  28.516  23.117  11.124
66520W        W32000  27.625  14.821  11.546
66521W        W32001  30.073  31.994   1.779
66522W        W32002  27.078  43.017  13.948
66523W        W32003  21.609  12.147  14.981
66524W        W32004  30.428  13.670   4.182
66525W        W32005  32.418  24.616   4.213
66526W        W32006  22.218  20.079   1.429
66527W        W32007  20.271   9.345   4.169
66528W        W32008   9.253   9.382  12.094
66529W        W32009  39.510  24.048  10.445
66530W        W32010   4.348  15.789   1.935
66531W        W32011  35.981   7.289   3.306
66532W        W32012  21.263   4.704  10.622
66533W        W32013  42.928  34.947   2.723
66534W        W32014  15.698  15.734  13.856
66535W        W32015  25.552  39.826  11.462
66536W        W32016  38.996  39.358   3.191
66537W        W32017  29.130  17.217  11.561
66538W        W32018  27.032  35.034   3.715
66539W        W32019   1.799  24.055   0.797
66540W        W32020  17.699   4.309   1.806
66541W        W32021   0.828   5.851   2.744
66542W        W32022  27.155  10.285  13.497
66543W        W32023  26.145  34.047   4.748
66544W        W32024  25.555  26.153  14.906
66545W        W32025  18.777   2.328  11.490
66546W        W32026  25.619  18.712   1.438
66547W        W32027  33.025  41.302   0.850
66548W        W32028   7.354  36.367   3.149
66549W        W32029  40.528   1.927   5.227
66550W        W32030  39.010  27.174  10.520
66551W        W32031  18.272  41.452   1.225
66552W        W32032  29.545  43.413  13.477
66553W        W32033  33.545  18.557   4.272
66554W        W32034  40.960   3.342  10.487
66555W        W32035  25.176  35.005  11.531
66556W        W32036  24.040  44.943  14.025
66557W        W32037  16.659   2.440   0.296
66558W        W32038  34.119  28.609   4.633
66559W        W32039  25.609  35.382  14.878
66560W        W32040   9.810  40.526  14.809
66561W        W32041  14.805  17.230   3.803
66562W        W32042  42.438   6.842   4.790
66563W        W32043  21.647  21.722  10.603
66564W        W32044  13.164  33.126   0.318
66565W        W32045  38.863   3.838  14.984
66566W        W32046  42.910  34.459  10.484
66567W        W32047  19.606   0.889  11.902
66568W        W32048   0.254  42.447  10.982
66569W        W32049  40.851  27.622   0.276
66570W        W32050  24.578   4.444  12.976
66571W        W32051  18.260  19.230   1.335
66572W        W32052  13.714  18.230   2.214
66573W        W32053  21.701  29.624  11.382
66574W        W32054  18.259  29.513  14.488
66575W        W32055  23.150  15.667   0.482
66576W        W32056  17.578  14.810   5.636
66577W        W32057  17.235  33.406   2.739
66578W        W32058   4.823   6.765   3.242
66579W        W32059  36.403  35.567  14.774
66580W        W32060  18.290  27.568  14.818
66581W        W32061   4.829   0.371  14.939
66582W        W32062  36.485  20.690  13.452
66583W        W32063  15.787  35.924   1.354
66584W        W32064   7.667   5.292   0.467
66585W        W32065  19.668  26.194  13.999
66586W        W32066  25.122  42.313  14.865
66587W        W32067  18.599   9.847  11.969
66588W        W32068  27.951   1.742   0.381
66589W        W32069  16.612   8.764   3.657
66590W        W32070  22.544  26.586   0.810
66591W        W32071  24.721  43.959  11.121
66592W        W32072  33.586  43.466  14.917
66593W        W32073  34.591  44.284   2.223
66594W        W32074  41.795   8.180  10.430
66595W        W32075  26.041  43.326  12.024
66596W        W32076   5.329  18.083  14.839
66597W        W32077   3.409  28.480  14.860
66598W        W32078  27.009  11.842  13.008
66599W        W32079  32.967   5.926   0.295
66600W        W32080  10.372  44.782  13.415
66601W        W32081  38.063   6.326  12.997
66602W        W32082  18.146  31.018   4.656
66603W        W32083  20.532  17.189  10.566
66604W        W32084  42.793  28.649   1.262
66605W        W32085  36.084  16.282  14.902
66606W        W32086  26.633  18.196  10.993
66607W        W32087  25.124  37.019   3.679
66608W        W32088  34.439   8.689   1.309
66609W        W32089  23.081  21.513  11.953
66610W        W32090   6.897  32.992   2.756
66611W        W32091  19.142   3.432   2.332
66612W        W32092  34.866  34.988  14.357
66613W        W32093  33.082   1.852   1.222
66614W        W32094  23.684  18.642   1.391
66615W        W32095  41.991  29.168  11.577
66616W        W32096   7.847   1.893   4.757
66617W        W32097  18.137  20.674   0.368
66618W        W32098  12.303  14.314   1.915
66619W        W32099  15.714  31.116   0.278
66620W        W32100  38.352  26.056  13.009
66621W        W32101  16.810  41.501   3.387
66622W        W32102  13.648  21.669  14.295
66623W        W32103  16.576  18.575   4.167
66624W        W32104  23.662  28.929   1.249
66625W        W32105  10.694   7.775   2.360
66626W        W32106  35.511  42.923   2.229
66627W        W32107  18.277  21.552  12.050
66628W        W32108   5.871  34.010   4.627
66629W        W32109  28.143  34.913   1.236
66630W        W32110  34.397  20.174  14.291
66631W        W32111  19.240   4.385  10.584
66632W        W32112  20.623   7.881   0.342
66633W        W32113  10.150  27.515   0.309
66634W        W32114  29.638  11.238   3.762
66635W        W32115  11.734  29.563  13.864
66636W        W32116  16.702  36.361   0.325
66637W        W32117  10.737   1.400   3.316
66638W        W32118   0.834  30.077  10.478
66639W        W32119  17.254   2.859   0.247
66640W        W32120   4.719  16.633  12.004
66641W        W32121  26.985  42.883  10.954
66642W        W32122  43.795   5.331  10.561
66643W        W32123   4.699  40.405  14.492
66644W        W32124   0.876  11.698   3.802
66645W        W32125  21.651  19.097  14.898
66646W        W32126  28.052  19.041   4.699
66647W        W32127  31.092   1.457   3.854
66648W        W32128  39.927  38.483  12.351
66649W        W32129  28.123  42.930  10.947
66650W        W32130  23.005   4.246  12.450
66651W        W32131   7.887  23.211  12.381
66652W        W32132  31.454  24.121  10.427
66653W        W32133  39.944  22.100   0.893
66654W        W32134   8.812   2.249  14.318
66655W        W32135  28.598   7.325  10.907
66656W        W32136   7.709  33.527   1.852
66657W        W32137   2.900   6.900  10.421
66658W        W32138   8.879  24.076  11.904
66659W        W32139   7.763  19.210  11.086
66660W        W32140   2.780   4.889  13.335
66661W        W32141  27.461   5.212   4.226
66662W        W32142   2.820  14.212   2.285
66663W        W32143  17.176  21.743   1.288
66664W        W32144  41.339  24.692   0.822
66665W        W32145  27.653  39.043  10.632
66666W        W32146   2.751  11.127  11.070
66667W        W32147  25.150   6.818  13.867
66668W        W32148  16.589  33.512  13.417
66669W        W32149  20.188  41.447   3.733
66670W        W32150  40.346  39.549  14.445
66671W        W32151  28.123  44.794  12.548
66672W        W32152  39.979   4.727   3.244
66673W        W32153   1.312  26.969  10.973
66674W        W32154  29.542  41.466   2.871
66675W        W32155   0.423  23.992  13.988
66676W        W32156  15.728  17.066   1.222
66677W        W32157  31.068  40.832   2.290
66678W        W32158  29.666  12.824  10.115
66679W        W32159   1.930  35.568  10.420
66680W        W32160  11.134  20.176  14.977
66681W        W32161  26.008  22.131  13.801
66682W        W32162   2.738  15.688  13.546
66683W        W32163  33.402   8.319  13.333
66684W        W32164  37.836  21.226  14.445
66685W        W32165  10.675  38.461   0.294
66686W        W32166  39.358  13.318   1.723
66687W        W32167   2.787  14.328  12.917
66688W        W32168  32.468  42.018  13.546
66689W        W32169  42.848  19.599   3.685
66690W        W32170  28.069   9.254  12.898
66691W        W32171  23.520   3.733  14.953
66692W        W32172  16.661  41.805   0.943
66693W        W32173   7.711   5.732   4.832
66694W        W32174  12.330  23.204   0.938
66695W        W32175  31.539  33.935  13.026
66696W        W32176  37.429  35.589   1.813
66697W        W32177  33.444   2.379  12.936
66698W        W32178  35.567   7.707   1.817
66699W        W32179  22.124   7.699   2.276
66700W        W32180  31.473  22.013   1.378
66701W        W32181  18.761   3.289  12.941
66702W        W32182  22.241  34.959  12.558
66703W        W32183  26.524  41.032   0.268
66704W        W32184  18.614  37.006   3.806
66705W        W32185  15.747  31.057  14.961
66706W        W32186  17.195  39.393   0.464
66707W        W32187   0.330   8.751  11.954
66708W        W32188  31.137  30.448   4.718
66709W        W32189  29.944  37.970   3.274
66710W        W32190   1.815  11.765  12.927
66711W        W32191  38.358   1.935  13.337
66712W        W32192  20.109  22.611  10.059
66713W        W32193  29.518   6.255   0.804
66714W        W32194   5.263  18.167   3.352
66715W        W32195   4.810  43.798   0.888
66716W        W32196  38.977  19.744   3.371
66717W        W32197  35.867  42.979  11.909
66718W        W32198  36.035   4.216  13.422
66719W        W32199   5.228  33.396   2.714
66720W        W32200  13.121  36.039  14.487
66721W        W32201   5.731  26.158  13.794
66722W        W32202  24.203   1.946  11.067
66723W        W32203   8.248  44.958   0.911
66724W        W32204  15.126   5.708   0.924
66725W        W32205  29.953  14.279  12.365
66726W        W32206  40.864  42.013  11.506
66727W        W32207  26.579  13.843   4.631
66728W        W32208  40.408  21.247   3.353
66729W        W32209  43.909  35.524   3.311
66730W        W32210  16.255   2.349  12.939
66731W        W32211  27.117   7.912  12.421
66732W        W32212  33.066  14.827  13.381
66733W        W32213  32.994  35.920  12.445
66734W        W32214  29.038  42.442  12.080
66735W        W32215   7.798  19.116  12.520
66736W        W32216  37.024   4.838  14.477
66737W        W32217  16.635   9.849  13.496
66738W        W32218   8.401  27.632  12.048
66739W        W32219  33.485  35.881  12.882
66740W        W32220  34.426  19.709   4.753
66741W        W32221  43.359  32.623  14.905
66742W        W32222  20.588  19.776   0.374
66743W        W32223  12.300  21.616   1.721
66744W        W32224  29.066  15.103  13.996
66745W        W32225  31.112  42.469  13.310
66746W        W32226  21.088  37.940  14.392
66747W        W32227  38.381  41.531  13.404
66748W        W32228  11.233   6.909   1.807
66749W        W32229   1.380  12.212   2.740
66750W        W32230  15.769   4.262  13.015
66751W        W32231   2.421   5.337   2.251
66752W        W32232  31.905  36.064   2.844
66753W        W32233  35.066  37.009   2.787
66754W        W32234  35.883  24.077  12.988
66755W        W32235  21.646   5.258  12.489
66756W        W32236  44.980  18.201  10.495
66757W        W32237  22.544   3.428   0.892
66758W        W32238  12.204  11.193  14.770
66759W        W32239   7.732  12.666   0.762
66760W        W32240  24.638  18.738  12.081
66761W        W32241  10.832   5.232  12.087
66762W        W32242  30.619  18.237   3.736
66763W        W32243  40.389  35.017  13.319
66764W        W32244  18.073  24.577   9.927
66765W        W32245  21.155  31.559   4.730
66766W        W32246  31.578   3.770  10.914
66767W        W32247  36.060   4.878  11.508
66768W        W32248  29.501  10.343   4.764
66769W        W32249  32.593  26.590   2.316
66770W        W32250   2.455  11.222   4.823
66771W        W32251   5.776   2.271   0.337
66772W        W32252  35.066  17.086  14.421
66773W        W32253  39.014  39.372  14.828
66774W        W32254  13.277  13.777  13.855
66775W        W32255  20.155  11.868  13.520
66776W        W32256  44.808   2.966   0.927
66777W        W32257  21.720  10.632   4.198
66778W        W32258  26.513  26.143  10.618
66779W        W32259  38.047  37.851  11.538
66780W        W32260  20.723   9.206   0.396
66781W        W32261  32.631   2.273   3.714
66782W        W32262  21.227  38.928   4.800
66783W        W32263   8.761   9.806  11.524
66784W        W32264   2.383   4.352   3.860
66785W        W32265  35.030  21.582  11.901
66786W        W32266  29.523  17.236  11.057
66787W        W32267   2.275  39.979   1.819
66788W        W32268  25.583  15.585  12.902
66789W        W32269  42.869  29.551   5.086
66790W        W32270  27.645  42.931   2.343
66791W        W32271  13.188  37.951  12.506
66792W        W32272   6.732  15.812   2.209
66793W        W32273   6.843  10.317   2.775
66794W        W32274  16.651  35.476  14.909
66795W        W32275  13.263  36.868   4.750
66796W        W32276  25.189  30.067  13.369
66797W        W32277  14.726  39.545   2.350
66798W        W32278  40.913  22.632  10.486
66799W        W32279   1.796  29.031  14.376
66800W        W32280  43.274  38.823  14.960
66801W        W32281  12.656  35.859  14.960
66802W        W32282   6.384  25.054  11.556
66803W        W32283  12.279  29.427  13.419
66804W        W32284   0.828  23.240  14.275
66805W        W32285  28.989  38.879  14.907
66806W        W32286   7.226   7.417   3.655
66807W        W32287   3.935  29.029   3.825
66808W        W32288   8.733  26.962   1.839
66809W        W32289  11.731  37.027  13.832
66810W        W32290  25.181   4.445  13.491
66811W        W32291  12.133  12.191  10.968
66812W        W32292  31.548  32.052  13.349
66813W        W32293  16.111  35.383  10.001
66814W        W32294  27.615   8.851   3.817
66815W        W32295  42.811  34.008  12.941
66816W        W32296   3.843  14.325  10.899
66817W        W32297  33.996  24.010  14.937
66818W        W32298  12.279   1.849   3.808
66819W        W32299  44.394  14.204   0.360
66820W        W32300  37.923  34.961   2.257
66821W        W32301  19.045  27.597  12.869
66822W        W32302  43.861  24.208  11.400
66823W        W32303  44.290  28.560   2.734
66824W        W32304   4.229  22.613  12.492
66825W        W32305  11.840  13.136   2.255
66826W        W32306   9.183  20.614   4.623
66827W        W32307  38.526   1.477  10.457
66828W        W32308  35.080  26.579  10.512
66829W        W32309   0.746   7.667   3.760
66830W        W32310  15.231  32.483  10.931
66831W        W32311  11.734  27.628  14.944
66832W        W32312  15.271   5.731  13.398
66833W        W32313   7.712  17.781  10.462
66834W        W32314   0.454   2.780  11.982
66835W        W32315  36.401  24.060  13.988
66836W        W32316  26.072  10.243   1.789
66837W        W32317  19.694  35.907   3.677
66838W        W32318   5.273   5.920  10.565
66839W        W32319  28.124   4.444   1.833
66840W        W32320  38.030  41.953  10.612
66841W        W32321  18.789  16.205   1.799
66842W        W32322  11.723   8.381   1.319
66843W        W32323  42.004  20.561  14.768
66844W        W32324  43.865  32.579  11.385
66845W        W32325  32.142  35.986   2.216
66846W        W32326  25.004   8.333  11.884
66847W        W32327  13.305  15.180  10.449
66848W        W32328  33.902  36.536   2.308
66849W        W32329  28.110  19.600  12.447
66850W        W32330  11.643  20.601  12.079
66851W        W32331   1.757   4.782  12.043
66852W        W32332   8.328   1.241  12.416
66853W        W32333   4.345  20.611   1.256
66854W        W32334   4.877  23.111  11.098
66855W        W32335  44.333  37.428   4.316
66856W        W32336  14.601  21.118  14.825
66857W        W32337  12.698  26.143   0.774
66858W        W32338  10.669  39.018  13.384
66859W        W32339  14.126   5.890   2.186
66860W        W32340  13.115  41.830   0.949
66861W        W32341  30.628  19.059   1.851
66862W        W32342  21.224  29.595  12.510
66863W        W32343  43.785  14.141  12.922
66864W        W32344  43.441  40.971  12.405
66865W        W32345  24.192  41.033  11.567
66866W        W32346   6.259  38.865   9.979
66867W        W32347  41.985  28.025  10.454
66868W        W32348  30.455  29.160   3.632
66869W        W32349   5.318  10.271   3.353
66870W        W32350  32.449   4.366   4.338
66871W        W32351   0.940  16.072  10.419
66872W        W32352  36.409  19.729   3.857
66873W        W32353  14.762  39.993   2.809
66874W        W32354  11.362  15.818  11.014
66875W        W32355  30.124  16.602   3.303
66876W        W32356  40.882  23.192   0.258
66877W        W32357   6.280  39.882   0.372
66878W        W32358  13.786  18.718  12.084
66879W        W32359  44.969   7.886   1.769
66880W        W32360  12.720  26.529   3.213
66881W        W32361   1.302   7.876  13.053
66882W        W32362  19.112  30.063   4.778
66883W        W32363   5.370  23.683  14.958
66884W        W32364  29.583  10.847   0.863
66885W        W32365  40.332  20.180  13.885
66886W        W32366  40.369  23.717   4.306
66887W        W32367  16.179   6.303   2.796
66888W        W32368  31.595  33.127  12.078
66889W        W32369   6.415  10.859   0.856
66890W        W32370   6.682   6.197  10.970
66891W        W32371  10.865  27.614   3.312
66892W        W32372  28.968  29.471  12.079
66893W        W32373  35.368  39.045  14.773
66894W        W32374  16.636  36.378  13.804
66895W        W32375  31.579  27.470  12.883
66896W        W32376  19.648  40.797  13.853
66897W        W32377   7.330   1.315   4.670
66898W        W32378   9.828  17.569   3.281
66899W        W32379  32.481  15.818  12.533
66900W        W32380  13.108  19.651  14.397
66901W        W32381  18.774  35.473  10.543
66902W        W32382  26.478  29.098  12.399
66903W        W32383  37.577  29.427   0.731
66904W        W32384  27.071   1.879  14.321
66905W        W32385  39.315  38.334  13.423
66906W        W32386   5.786  18.695  13.500
66907W        W32387  12.630  10.775  14.498
66908W        W32388  22.210  13.203  11.985
66909W        W32389  29.114   3.773   0.463
66910W        W32390  36.001  29.503   0.860
66911W        W32391  17.150   4.756  13.407
66912W        W32392  27.996  29.467   3.361
66913W        W32393  43.872  42.977  12.525
66914W        W32394  30.079   3.881  10.576
66915W        W32395  38.852  44.409   2.854
66916W        W32396  36.501  31.531   2.389
66917W        W32397   2.739  17.657  13.347
66918W        W32398  16.792  38.846  14.849
66919W        W32399  22.055   8.798   4.736
66920W        W32400   6.851  41.993  11.109
66921W        W32401  31.622  38.569  11.996
66922W        W32402  29.985   6.427   4.153
66923W        W32403  36.435  38.849  13.425
66924W        W32404  33.112   1.854  11.050
66925W        W32405  32.086  36.043  13.961
66926W        W32406  17.102  31.945   4.184
66927W        W32407  32.459  20.720   4.174
66928W        W32408   6.355   4.901   0.396
66929W        W32409   5.833   3.352   4.297
66930W        W32410  43.320  43.868   3.735
66931W        W32411  41.293   7.673  12.082
66932W        W32412  33.089  23.190   3.708
66933W        W32413  11.646  26.472   1.849
66934W        W32414  18.669  21.052  10.548
66935W        W32415  23.122  40.865   3.177
66936W        W32416  44.950  29.938  14.391
66937W        W32417  36.072  25.020  14.831
66938W        W32418  30.544   8.772   2.877
66939W        W32419  18.139  26.478   2.413
66940W        W32420  10.165  17.176   0.788
66941W        W32421  31.539  22.557   0.914
66942W        W32422  30.570   3.235   2.250
66943W        W32423  28.484   3.942   3.344
66944W        W32424  21.544  15.251   0.348
66945W        W32425   5.360  16.122  12.548
66946W        W32426  34.889  31.416  12.567
66947W        W32427  44.289  29.094  10.583
66948W        W32428  17.201   9.847  14.354
66949W        W32429  37.840  29.147   2.257
66950W        W32430  22.225  31.967   3.213
66951W        W32431  25.130  41.440  12.031
66952W        W32432  19.564   8.315   2.861
66953W        W32433   9.694   3.779   3.767
66954W        W32434  32.141  24.683  14.500
66955W        W32435  12.247   3.287  14.899
66956W        W32436  38.055   8.305   1.371
66957W        W32437  10.793  10.381   1.295
66958W        W32438  32.590  26.535  13.450
66959W        W32439   9.885   1.380   2.801
66960W        W32440  32.495  30.091   4.272
66961W        W32441  40.966  11.128   0.860
66962W        W32442   7.316  25.674  13.467
66963W        W32443  35.911  38.881  13.431
66964W        W32444  33.938  31.106  13.377
66965W        W32445  19.214   7.400   3.225
66966W        W32446  12.803  24.208  12.340
66967W        W32447  17.722  18.616  14.466
66968W        W32448  32.573   7.912   0.803
66969W        W32449  42.983  30.423  12.487
66970W        W32450   5.857  31.987   2.732
66971W        W32451  37.911  14.266   3.808
66972W        W32452   1.802   3.853   4.272
66973W        W32453  10.746  33.536   3.833
66974W        W32454  29.117  21.089   2.345
66975W        W32455  37.434  33.501  12.439
66976W        W32456  33.600  20.579  12.030
66977W        W32457  33.381  42.970   5.199
66978W        W32458  40.362  38.922   1.797
66979W        W32459   3.917  10.226   3.742
66980W        W32460  31.052  43.983   3.201
66981W        W32461   1.915   7.731   4.327
66982W        W32462  16.707  14.226   2.807
66983W        W32463  29.667  35.394   3.150
66984W        W32464  41.901  41.418  12.408
66985W        W32465  18.205  27.537   3.787
66986W        W32466  38.434  28.479   4.782
66987W        W32467  36.055  26.112  14.995
66988W        W32468   3.907   2.863  10.605
66989W        W32469  21.664  40.543   2.236
66990W        W32470  31.463  14.101   4.650
66991W        W32471  37.378  25.069   3.324
66992W        W32472  37.460  39.920  13.370
66993W        W32473   7.374  43.934  12.022
66994W        W32474  20.115   6.236   1.908
66995W        W32475  17.801  41.440   0.868
66996W        W32476   6.769  30.475   2.251
66997W        W32477  18.231  25.152   3.353
66998W        W32478   4.816  29.450  14.509
66999W        W32479  23.102  16.624  13.361
67000W        W32480  16.233   8.292  14.308
67001W        W32481   5.798   4.305  13.477
67002W        W32482  44.318  22.179   0.453
67003W        W32483   0.292  18.268  13.357
67004W        W32484  18.699  35.432   3.790
67005W        W32485  37.022   1.244  14.464
67006W        W32486  35.981  22.067   3.783
67007W        W32487   8.373  17.567  13.046
67008W        W32488   7.311   1.882  11.594
67009W        W32489  22.053   2.232  12.549
67010W        W32490  19.159  15.267   3.179
67011W        W32491  28.181   7.781   1.388
67012W        W32492   9.786  31.415  14.992
67013W        W32493  33.389  30.162  13.320
67014W        W32494  36.947   7.285   3.246
67015W        W32495  29.987   6.873   3.239
67016W        W32496  10.313   7.201  13.054
67017W        W32497   4.699  26.118   0.866
67018W        W32498   8.793   3.338   0.924
67019W        W32499  15.155  28.958  10.960
67020W        W32500  22.505  41.295  10.438
67021W        W32501  37.029   9.221  11.436
67022W        W32502  34.084  27.571   0.468
67023W        W32503  12.843   1.434   2.686
67024W        W32504  36.864  20.085   4.214
67025W        W32505  43.815  30.494  10.500
67026W        W32506   6.732   0.827   0.340
67027W        W32507   4.273  14.650   4.629
67028W        W32508   2.288   8.287   1.389
67029W        W32509  10.734  31.464   2.221
67030W        W32510   0.785  28.595   4.171
67031W        W32511   8.845  28.449   4.155
67032W        W32512  31.609  24.687   2.783
67033W        W32513  36.063  32.930   3.777
67034W        W32514  37.063   5.297  12.074
67035W        W32515   9.160  37.381  13.482
67036W        W32516  34.876   4.238  12.425
67037W        W32517  36.499  40.539   3.337
67038W        W32518  31.563   3.798  13.513
67039W        W32519  28.118  36.026   4.689
67040W        W32520  30.040  32.506  14.300
67041W        W32521   3.383  10.162   1.338
67042W        W32522   7.361  28.009   4.237
67043W        W32523   1.275  14.256  12.976
67044W        W32524  25.213  34.977  13.978
67045W        W32525  18.669  40.826  11.518
67046W        W32526  22.136  32.090  12.390
67047W        W32527  40.496  17.299  14.499
67048W        W32528   6.755  26.048   2.874
67049W        W32529  33.003  30.495  14.788
67050W        W32530  14.694   2.892   0.274
67051W        W32531  17.750  41.038   0.933
67052W        W32532  32.054  42.429  14.766
67053W        W32533  38.395  12.801  13.902
67054W        W32534  44.861  11.646   4.171
67055W        W32535  35.017   1.897   3.825
67056W        W32536  12.203  33.475   0.368
67057W        W32537  32.945  27.952  11.059
67058W        W32538  20.160  36.955   3.862
67059W        W32539  44.948  33.038  11.517
67060W        W32540  36.984  30.119   4.308
67061W        W32541  33.519  29.109  11.452
67062W        W32542  32.892  41.407   4.193
67063W        W32543  13.827   2.921   3.830
67064W        W32544  33.920  20.649  13.010
67065W        W32545  26.522  41.019   4.163
67066W        W32546   2.927  37.355  14.817
67067W        W32547  11.747  43.824  14.813
67068W        W32548  15.185  31.517  12.488
67069W        W32549  22.549  23.608  10.029
67070W        W32550  41.295  42.429  13.984
67071W        W32551  15.128  17.562  13.508
67072W        W32552  22.022  11.675  13.446
67073W        W32553  36.024  41.406  11.032
67074W        W32554  29.440  23.669   3.306
67075W        W32555  14.591  35.495   4.320
67076W        W32556  44.897  18.565   4.758
67077W        W32557  35.463  40.336  11.594
67078W        W32558  23.093  24.644  13.012
67079W        W32559  21.710  19.721  11.867
67080W        W32560  37.928  14.819   2.886
67081W        W32561  18.595  17.752  10.560
67082W        W32562  17.176  32.969   4.634
67083W        W32563  19.727  32.017  13.494
67084W        W32564   9.349  34.995   4.317
67085W        W32565  21.025   4.407   3.658
67086W        W32566  21.644   0.817  14.380
67087W        W32567  20.218   3.946   4.617
67088W        W32568  21.735   4.860  10.955
67089W        W32569  44.920  32.529  12.518
67090W        W32570  34.595   5.800  13.327
67091W        W32571  30.650  14.620  11.115
67092W        W32572  12.856  16.769   4.132
67093W        W32573  10.363   1.259   2.779
67094W        W32574  37.546  30.034   4.129
67095W        W32575  22.163  33.503   2.756
67096W        W32576  34.871  27.942   4.317
67097W        W32577   0.821  32.915  12.862
67098W        W32578   8.349  42.380  12.857
67099W        W32579   7.794  19.113  11.955
67100W        W32580   8.859  13.316  12.525
67101W        W32581  37.072  33.382   0.898
67102W        W32582  41.473  42.962   1.358
67103W        W32583  39.429  25.647   4.614
67104W        W32584  26.556  43.312   2.829
67105W        W32585   1.896  25.648  11.061
67106W        W32586  24.000  36.884   4.779
67107W        W32587   6.851  23.995  12.920
67108W        W32588  14.686  43.903  11.553
67109W        W32589  23.711  43.439  13.310
67110W        W32590  18.063  13.268  11.952
67111W        W32591  35.065  27.169  14.842
67112W        W32592  42.374   6.829  10.959
67113W        W32593  19.749  42.463   4.244
67114W        W32594  39.440  36.077  13.028
67115W        W32595  34.487  22.556  14.799
67116W        W32596   8.283  17.573   4.354
67117W        W32597  11.235  29.969  12.977
67118W        W32598   3.311   7.876  10.584
67119W        W32599  30.521  22.177  12.505
67120W        W32600   5.351  42.359  10.541
67121W        W32601   9.795  37.530   4.673
67122W        W32602  17.716  20.209   0.409
67123W        W32603   6.297  22.164  14.859
67124W        W32604  11.698  27.067   3.167
67125W        W32605  21.629  30.549   1.710
67126W        W32606  34.479  36.846   0.853
67127W        W32607  25.096  32.002  11.010
67128W        W32608  12.754   7.724   3.365
67129W        W32609  44.768  27.943  10.007
67130W        W32610  27.071  29.606   2.385
67131W        W32611   2.862   0.322  11.410
67132W        W32612  33.964  25.165  13.857
67133W        W32613   4.390   3.836   3.767
67134W        W32614   6.186  22.685   0.259
67135W        W32615  39.059  21.599  12.482
67136W        W32616  25.676  18.268  11.933
67137W        W32617  23.707   4.332  14.884
67138W        W32618   1.256  22.185  11.449
67139W        W32619  26.015   6.311  13.966
67140W        W32620  13.845  42.986   3.779
67141W        W32621   6.302  35.492   1.318
67142W        W32622  31.139  17.633   2.287
67143W        W32623  17.582  14.610   0.350
67144W        W32624  14.609  23.656   1.923
67145W        W32625  42.883  10.872   3.190
67146W        W32626  23.699  15.804  14.465
67147W        W32627   9.393  39.981   4.649
67148W        W32628  21.608  44.406   0.384
67149W        W32629  41.884  28.175   4.286
67150W        W32630   4.742  15.806   2.853
67151W        W32631  31.118   7.184  12.028
67152W        W32632   0.251  42.294  12.894
67153W        W32633  29.662  31.475  12.064
67154W        W32634  15.791  42.980  13.802
67155W        W32635  40.498  27.562   1.777
67156W        W32636  11.359  13.319  14.327
67157W        W32637  36.550  11.269   2.253
67158W        W32638   1.246  29.509  13.523
67159W        W32639   1.852  38.991   2.670
67160W        W32640  28.629   3.287   0.804
67161W        W32641  11.197  20.640  11.096
67162W        W32642  33.079  22.507  13.344
67163W        W32643  39.485  25.580  11.101
67164W        W32644  18.764  22.676  12.523
67165W        W32645  40.507  32.935   3.289
67166W        W32646  27.689  41.924   1.890
67167W        W32647  36.986   0.414   4.198
67168W        W32648   7.325  36.458  11.575
67169W        W32649  16.689  15.801  11.531
67170W        W32650   8.284   4.231   3.314
67171W        W32651  33.955  28.583   0.738
67172W        W32652  22.705  23.220  11.425
67173W        W32653  31.613  31.140  11.115
67174W        W32654  10.858  20.274  12.829
67175W        W32655  43.340  30.527   0.405
67176W        W32656  41.465   6.838  14.786
67177W        W32657  18.274   1.954  10.473
67178W        W32658   1.382  39.836  12.357
67179W        W32659  34.599  13.814   4.170
67180W        W32660  22.164  42.481  11.061
67181W        W32661  16.744  23.196  12.021
67182W        W32662  25.129  25.601  10.994
67183W        W32663  16.112  41.397   4.350
67184W        W32664  35.438  39.822  12.476
67185W        W32665  18.126   0.357   4.693
67186W        W32666  34.906   0.371  14.009
67187W        W32667  36.362  17.241  12.078
67188W        W32668  36.973  18.761   1.904
67189W        W32669  44.863   9.381   3.273
67190W        W32670  13.165  18.053   4.714
67191W        W32671  42.952  15.111  12.553
67192W        W32672   0.760  18.123   2.334
67193W        W32673  14.157  21.175   9.962
67194W        W32674  39.390  33.613   0.415
67195W        W32675  10.647   7.344   0.744
67196W        W32676  28.142   2.750  11.014
67197W        W32677  24.182  12.210   0.479
67198W        W32678  17.732  32.912  11.102
67199W        W32679  20.161  32.550  10.903
67200W        W32680   8.293  37.051   1.334
67201W        W32681   1.283  43.864  12.976
67202W        W32682  16.577  28.668  14.323
67203W        W32683  34.546  31.135  11.449
67204W        W32684  15.125  43.308   2.864
67205W        W32685  17.791  25.097   4.214
67206W        W32686  36.455  17.131   1.351
67207W        W32687  14.132  27.594   3.274
67208W        W32688  12.238  31.019   1.872
67209W        W32689  32.013   3.320   4.685
67210W        W32690  41.845   6.738   5.687
67211W        W32691  27.992  30.095   1.321
67212W        W32692  26.068  41.809  10.548
67213W        W32693  29.548   1.857   0.319
67214W        W32694  18.082  17.085   2.721
67215W        W32695  30.001   6.344   1.429
67216W        W32696   5.369   0.895  14.814
67217W        W32697   9.188  19.707  10.407
67218W        W32698  34.393  29.564  11.542
67219W        W32699  22.218  17.079   3.315
67220W        W32700  34.416  43.486   1.745
67221W        W32701  24.001   8.345   3.242
67222W        W32702  30.538  15.734   0.931
67223W        W32703  19.659  31.463   3.317
67224W        W32704  32.963   8.302  10.549
67225W        W32705  22.691  13.136  11.966
67226W        W32706  14.153  33.537  13.318
67227W        W32707   7.757  22.239   1.255
67228W        W32708  34.431  35.556   3.150
67229W        W32709  22.613  28.161  12.933
67230W        W32710  18.727  10.143   3.671
67231W        W32711   8.698  12.648   4.722
67232W        W32712  39.872  22.593   0.902
67233W        W32713  17.758  32.123   2.873
67234W        W32714  25.703   7.778   1.362
67235W        W32715  33.395  35.445  14.901
67236W        W32716  40.313   8.207   0.339
67237W        W32717   0.483   9.662  13.012
67238W        W32718   9.183  12.158  12.507
67239W        W32719  27.150  36.000  10.913
67240W        W32720  40.924  20.618   2.849
67241W        W32721  36.911  38.000  12.477
67242W        W32722  29.558  43.298   4.186
67243W        W32723  16.281  42.998  11.903
67244W        W32724  33.958  33.907   2.278
67245W        W32725  11.785  22.712   5.193
67246W        W32726  22.532  17.619  11.430
67247W        W32727  17.727  41.323  11.085
67248W        W32728  25.688  21.255  11.478
67249W        W32729  31.647   3.322  12.352
67250W        W32730   5.390  14.277  11.004
67251W        W32731  35.988  20.586  13.001
67252W        W32732  24.696  29.516  11.425
67253W        W32733  34.084  42.511  14.471
67254W        W32734  16.800   6.323  12.443
67255W        W32735  24.723  19.640   2.317
67256W        W32736  35.493  40.437   2.306
67257W        W32737  25.545   9.357   9.523
67258W        W32738  37.487  37.856   2.341
67259W        W32739  35.534  24.573   0.802
67260W        W32740  40.503  39.354  11.464
67261W        W32741  11.790  12.119  14.797
67262W        W32742  13.794  20.118  11.934
67263W        W32743  36.534  20.732  11.954
67264W        W32744  32.442  17.673   0.773
67265W        W32745  30.946  25.084   2.885
67266W        W32746  21.232   3.261   0.263
67267W        W32747  22.237  43.488  14.858
67268W        W32748  33.456  16.648  13.889
67269W        W32749   1.300   2.774   2.806
67270W        W32750  35.528  14.651  11.433
67271W        W32751   1.415  17.186   1.897
67272W        W32752  20.211  42.006   2.228
67273W        W32753  33.935  44.427  10.013
67274W        W32754   2.818  12.730   2.259
67275W        W32755  18.236   4.896  11.378
67276W        W32756  27.489  19.208   2.709
67277W        W32757   8.703  22.010   3.722
67278W        W32758   3.815  25.713  10.944
67279W        W32759  33.098  25.096  11.013
67280W        W32760   0.306   9.808   4.283
67281W        W32761  26.593  16.074  13.956
67282W        W32762  26.459  36.909   2.365
67283W        W32763  22.204  20.711  14.292
67284W        W32764   4.762  32.110   4.641
67285W        W32765  16.750  41.878  14.322
67286W        W32766  30.438   0.361   1.302
67287W        W32767  25.493  44.357  14.443
67288W        W32768  19.562  32.607   3.192
67289W        W32769  40.040   7.253   2.363
67290W        W32770  25.526  21.672  14.325
67291W        W32771   2.390  37.974   4.622
67292W        W32772  25.665   1.281  13.465
67293W        W32773  41.498   1.839  14.955
67294W        W32774  41.002  41.480   4.705
67295W        W32775  13.245   4.354   4.205
67296W        W32776  26.662  26.037   1.722
67297W        W32777  18.670  17.073   1.734
67298W        W32778   5.358  42.810   0.245
67299W        W32779  28.996  42.419   3.674
67300W        W32780  35.461  44.941  12.472
67301W        W32781  42.464  31.012   1.298
67302W        W32782   7.348  40.462   1.801
67303W        W32783  28.552  41.966  11.067
67304W        W32784   1.238  15.124   2.671
67305W        W32785  21.692  24.069   1.297
67306W        W32786  13.149  26.607   4.129
67307W        W32787  35.451  12.673   2.200
67308W        W32788  43.316  29.491   1.449
67309W        W32789  27.034  39.315   3.365
67310W        W32790  13.292  28.652   3.197
67311W        W32791  15.307   3.858  12.837
67312W        W32792  18.093   2.810  14.813
67313W        W32793  14.308   9.772  12.507
67314W        W32794  33.957   9.164  10.529
67315W        W32795   0.335  16.294   0.737
67316W        W32796  10.178  42.836   2.385
67317W        W32797  44.924  32.538  11.032
67318W        W32798   7.807  31.920   2.296
67319W        W32799  33.394  22.207   4.328
67320W        W32800  42.967  16.143   2.707
67321W        W32801   3.445   0.383   0.324
67322W        W32802  43.787   3.352   1.308
67323W        W32803   1.405  35.569  13.968
67324W        W32804   6.409  18.105  10.897
67325W        W32805  26.102  37.505  10.513
67326W        W32806  26.062  22.568   4.827
67327W        W32807  20.102  30.508  11.963
67328W        W32808  38.384   0.959  11.447
67329W        W32809  11.628  16.772   3.656
67330W        W32810   0.822  30.133  11.929
67331W        W32811  15.798  17.131  11.938
67332W        W32812   0.287  14.137  13.332
67333W        W32813   3.458  34.101  13.936
67334W        W32814   0.770  41.365   1.783
67335W        W32815   3.733  28.634  10.624
67336W        W32816  38.999  17.597   1.876
67337W        W32817  10.141  27.650  12.558
67338W        W32818   1.783  42.385   4.715
67339W        W32819   2.430  22.221   0.326
67340W        W32820  29.582   9.889  14.508
67341W        W32821  27.508  40.329  11.565
67342W        W32822  43.877  22.070  13.408
67343W        W32823  39.013  20.218  12.025
67344W        W32824  13.643  40.867   4.651
67345W        W32825  17.665  27.649   2.207
67346W        W32826  15.195  37.437  13.902
67347W        W32827  27.124  21.021  10.022
67348W        W32828  29.613   1.841   2.196
67349W        W32829  33.580   7.215  14.912
67350W        W32830  25.658   1.290  14.968
67351W        W32831  17.640   8.887   4.355
67352W        W32832   9.839   9.193  12.575
67353W        W32833   0.952  17.671  14.912
67354W        W32834   7.387   2.838  11.060
67355W        W32835   7.200   5.694   3.281
67356W        W32836  22.534  11.216  11.927
67357W        W32837  37.023  31.494  10.586
67358W        W32838   1.305  29.573   3.159
67359W        W32839  13.762   8.796   3.222
67360W        W32840  20.259  13.761   3.785
67361W        W32841  39.555  16.316   0.270
67362W        W32842  22.526  31.501   4.153
67363W        W32843  30.543  32.515  12.025
67364W        W32844  43.861  16.743   2.338
67365W        W32845  12.142  14.750  13.969
67366W        W32846  12.235  30.039  13.937
67367W        W32847  28.611  16.317  12.516
67368W        W32848  36.088  40.971   4.697
67369W        W32849  28.449  36.903   0.422
67370W        W32850  31.559   1.961  11.009
67371W        W32851   3.301  17.164  11.911
67372W        W32852  20.078  38.424   1.818
67373W        W32853  26.466  35.991  10.927
67374W        W32854  12.154  41.445  13.355
67375W        W32855   0.455  10.361  14.805
67376W        W32856  42.473  36.425  10.440
67377W        W32857  24.981   4.370   4.165
67378W        W32858   5.401  38.028   3.782
67379W        W32859   1.479   3.775  14.307
67380W        W32860  31.969  43.802  14.984
67381W        W32861  20.642  19.135   3.684
67382W        W32862   0.415  21.216  13.394
67383W        W32863  34.909  28.007   0.385
67384W        W32864  12.129   7.899   2.364
67385W        W32865   4.805  39.054   0.265
67386W        W32866   5.207  11.282  11.597
67387W        W32867  31.476   4.251   1.919
67388W        W32868  42.860  44.865   4.136
67389W        W32869  16.707   4.802  10.520
67390W        W32870  27.171  27.555   1.288
67391W        W32871  12.779  39.360  10.914
67392W        W32872   4.214  38.325  10.580
67393W        W32873  30.453   5.344   0.290
67394W        W32874  41.452  13.179  11.070
67395W        W32875  11.829  37.363  13.857
67396W        W32876   6.749  37.355  13.838
67397W        W32877  10.312  28.943  13.461
67398W        W32878   2.324  17.765  11.413
67399W        W32879   5.901   1.736  12.532
67400W        W32880  12.287   0.480  10.494
67401W        W32881  12.257  11.152  10.449
67402W        W32882  19.773   6.327   2.409
67403W        W32883   0.328  31.936  12.448
67404W        W32884  43.820  44.297  10.637
67405W        W32885  27.664  23.095   3.220
67406W        W32886  13.714  20.056  14.420
67407W        W32887  32.419  27.544   3.689
67408W        W32888  34.504  16.243   1.310
67409W        W32889  29.987  44.262   0.730
67410W        W32890   4.292  33.484   3.867
67411W        W32891  34.038   4.225  10.436
67412W        W32892  36.053   3.293  11.576
67413W        W32893  13.322   2.300   2.390
67414W        W32894  30.559  32.102  12.825
67415W        W32895   6.306  22.146   1.813
67416W        W32896  33.070  10.203  11.410
67417W        W32897   6.236  34.477   0.374
67418W        W32898  28.174   0.891   1.858
67419W        W32899  15.238   6.399  12.513
67420W        W32900   3.372  33.016   4.605
67421W        W32901  36.991  20.234   3.277
67422W        W32902  29.134   4.304   2.408
67423W        W32903  13.771  18.732  12.953
67424W        W32904  21.701  41.893   3.370
67425W        W32905  38.835  41.012   4.282
67426W        W32906  14.224   9.385   2.290
67427W        W32907   3.409  31.585  14.937
67428W        W32908  26.649  27.470  14.482
67429W        W32909  28.023  37.081   1.350
67430W        W32910   3.890  36.974  11.913
67431W        W32911  14.798  20.682  11.454
67432W        W32912  15.153  16.622  14.464
67433W        W32913   2.908   1.369  14.973
67434W        W32914   1.962  14.747   4.818
67435W        W32915  26.954  24.019  12.874
67436W        W32916  25.049  37.409   0.284
67437W        W32917  41.414  23.209   0.906
67438W        W32918  36.063  20.640   0.887
67439W        W32919  19.576  20.161   1.703
67440W        W32920  38.375  23.520   0.941
67441W        W32921  36.472  42.971  10.030
67442W        W32922  31.077  40.859   3.219
67443W        W32923  32.078  37.864   4.640
67444W        W32924   8.395  12.818  11.557
67445W        W32925   2.911  13.252  13.046
67446W        W32926   3.242  42.800   0.363
67447W        W32927  43.476  18.247   3.386
67448W        W32928   5.255  35.062  13.912
67449W        W32929  18.224  28.581  11.550
67450W        W32930  35.415  33.950  10.519
67451W        W32931  36.883   2.809   4.311
67452W        W32932  39.956  35.406  12.991
67453W        W32933  18.060  27.515  12.871
67454W        W32934  15.714   8.737  10.447
67455W        W32935  34.550  38.438  13.830
67456W        W32936   9.329  40.452   1.861
67457W        W32937  31.050  13.170   4.331
67458W        W32938   6.875  42.448  11.053
67459W        W32939   1.939   2.429  13.002
67460W        W32940  35.884  33.050   0.323
67461W        W32941   8.698  15.685   0.290
67462W        W32942   3.410  23.149   4.165
67463W        W32943  40.510  14.228  14.999
67464W        W32944  42.932  12.174   1.749
67465W        W32945  42.899  41.390  12.381
67466W        W32946  40.047  38.984  13.923
67467W        W32947  29.973  31.059  10.474
67468W        W32948  21.026   5.692  10.580
67469W        W32949  29.962  25.169   4.233
67470W        W32950  35.590  39.043   1.278
67471W        W32951  28.966  12.155   1.860
67472W        W32952  14.108  23.681   1.906
67473W        W32953  31.544  18.290  10.926
67474W        W32954  19.207  28.078  11.944
67475W        W32955  16.581  36.477  13.371
67476W        W32956   5.270  38.920  12.360
67477W        W32957  32.985  26.205  12.017
67478W        W32958  23.704  18.153   3.851
67479W        W32959   7.796   3.305  12.408
67480W        W32960   9.828  12.195  10.408
67481W        W32961  34.443  24.205  13.483
67482W        W32962  36.502  36.086   2.800
67483W        W32963  24.198  10.140   1.393
67484W        W32964   6.248  34.482  10.022
67485W        W32965  29.074  18.728   2.695
67486W        W32966   9.815  35.588   2.349
67487W        W32967  30.032  31.551   2.746
67488W        W32968   4.783  26.521   4.781
67489W        W32969  34.569  41.501   0.777
67490W        W32970   1.803  30.651  12.838
67491W        W32971  19.693  43.373  11.378
67492W        W32972  26.973  33.021  13.870
67493W        W32973  11.779  36.352  12.385
67494W        W32974  19.656   7.210   2.781
67495W        W32975   1.330  27.645  11.603
67496W        W32976  31.471  14.601  14.492
67497W        W32977  39.013   2.368   2.728
67498W        W32978  10.170  19.734   0.925
67499W        W32979  20.206  24.561  12.090
67500W        W32980  40.951  27.651  12.366
67501W        W32981  15.214  30.060  12.363
67502W        W32982   2.736  36.913   4.145
67503W        W32983  27.032  28.644   0.329
67504W        W32984  22.175  14.109   0.908
67505W        W32985  13.700  28.544  14.029
67506W        W32986   1.746  32.442   4.685
67507W        W32987  36.036  20.602   2.201
67508W        W32988   0.869  42.957  10.454
67509W        W32989  14.822  11.668  10.605
67510W        W32990  10.302  26.557   2.330
67511W        W32991  35.990   0.453  10.541
67512W        W32992  37.043  26.609  14.286
67513W        W32993  12.331  42.430  14.937
67514W        W32994   2.472   1.870  11.863
67515W        W32995  30.423  13.168   2.899
67516W        W32996  16.230  42.816  13.034
67517W        W32997   8.357  36.021  14.988
67518W        W32998   9.193  18.216  13.455
67519W        W32999  42.376  37.876  14.999
67520W        W33000  18.130  18.119  13.412
67521W        W33001  26.569  41.469   4.225
67522W        W33002  18.669  34.394  12.856
67523W        W33003  30.471  30.092  13.999
67524W        W33004  20.537  27.947  11.474
67525W        W33005   7.696  18.546  12.387
67526W        W33006   1.454  27.082   4.170
67527W        W33007  16.265  27.172   1.787
67528W        W33008  28.102  25.481   1.386
67529W        W33009  41.973  38.076  14.515
67530W        W33010  18.628  11.178  11.373
67531W        W33011  25.570  40.515   1.727
67532W        W33012   6.366  40.008  11.016
67533W        W33013  12.310  11.623   4.827
67534W        W33014  11.307   4.857   3.309
67535W        W33015   6.774   1.838   2.703
67536W        W33016   9.218  37.433   1.852
67537W        W33017  14.267  32.003  12.866
67538W        W33018  14.154  36.994  14.900
67539W        W33019  25.051  11.722   0.921
67540W        W33020  19.118  12.305  12.410
67541W        W33021  27.065  23.218  12.527
67542W        W33022  42.912  37.411  11.013
67543W        W33023   7.292  44.952  14.337
67544W        W33024  32.415  23.024  13.811
67545W        W33025  29.046   4.208  12.345
67546W        W33026  20.604  36.843  13.823
67547W        W33027  27.514   8.875   0.727
67548W        W33028   3.399   4.416  14.298
67549W        W33029   4.289  43.492   1.296
67550W        W33030   4.225  44.332   0.859
67551W        W33031   0.963  14.694  12.564
67552W        W33032  13.308  29.476   2.704
67553W        W33033  37.938  30.045  14.919
67554W        W33034  19.758  27.647  11.552
67555W        W33035  19.174  10.858  13.915
67556W        W33036  16.786  27.130  11.096
67557W        W33037  25.139   6.366  10.961
67558W        W33038   8.837   3.939  14.957
67559W        W33039  34.109   7.673  13.891
67560W        W33040  18.573  33.878   3.385
67561W        W33041  28.163   0.861  12.413
67562W        W33042  23.688  33.536  11.449
67563W        W33043   0.293  29.137   0.326
67564W        W33044  32.987  35.061  10.414
67565W        W33045   9.735  11.254  14.470
67566W        W33046  37.479  32.917   0.853
67567W        W33047  33.103  39.036  12.505
67568W        W33048  12.298  37.955   2.376
67569W        W33049   3.758  44.794   1.885
67570W        W33050  17.702  14.126   2.823
67571W        W33051  33.385  27.447   3.244
67572W        W33052  42.942  17.716  14.947
67573W        W33053  10.668  15.285  14.281
67574W        W33054  15.598  28.466   3.334
67575W        W33055  30.160   9.687  13.048
67576W        W33056  33.886   8.250  10.431
67577W        W33057   8.714   3.800   1.819
67578W        W33058  13.188   9.366  14.384
67579W        W33059  34.058  29.005   0.932
67580W        W33060  16.785  10.193  10.527
67581W        W33061   4.368   7.708   3.824
67582W        W33062  26.662  10.730   1.697
67583W        W33063  42.010   8.399   0.915
67584W        W33064  38.429  37.059   3.220
67585W        W33065  18.157  13.828  12.000
67586W        W33066  39.367  16.191   0.851
67587W        W33067  11.214  42.398  13.311
67588W        W33068  36.370  26.036   1.377
67589W        W33069  16.581  15.637  10.524
67590W        W33070   5.227  40.829  11.006
67591W        W33071  17.714  41.536   2.336
67592W        W33072   3.328  33.430  13.900
67593W        W33073  11.655  12.809   2.200
67594W        W33074  38.965  37.060   3.188
67595W        W33075  31.127   2.915  13.798
67596W        W33076  15.262  41.003   1.332
67597W        W33077  35.972  29.975   4.298
67598W        W33078   0.286  38.933  12.554
67599W        W33079  29.466  30.480   2.302
67600W        W33080  28.929   5.210  14.802
67601W        W33081  14.188  21.099  12.433
67602W        W33082  20.742  16.714  10.457
67603W        W33083   0.962  29.512   0.775
67604W        W33084  31.090   4.396   0.734
67605W        W33085  18.123  34.983  14.835
67606W        W33086  32.973  38.973   0.906
67607W        W33087  31.942  17.252   0.961
67608W        W33088  37.420  42.013   4.708
67609W        W33089  17.151  36.959  12.519
67610W        W33090  17.202  12.276   2.889
67611W        W33091   3.394   1.836   3.271
67612W        W33092  34.108  32.000  12.008
67613W        W33093   4.801  38.525   4.175
67614W        W33094  42.510   3.913  11.465
67615W        W33095  34.513  34.602   1.283
67616W        W33096  20.269  41.946   3.309
67617W        W33097   9.305  29.997  10.424
67618W        W33098  30.580  16.262   0.872
67619W        W33099  30.453  36.523   0.348
67620W        W33100  40.417  39.470  13.530
67621W        W33101  21.138  23.697  14.030
67622W        W33102   6.335  12.686  14.889
67623W        W33103  43.403   5.310  12.472
67624W        W33104   6.190  16.727  11.579
67625W        W33105  34.027  22.736   2.261
67626W        W33106   4.290  38.864  14.510
67627W        W33107  12.310   2.870   0.877
67628W        W33108   6.201  26.081  10.430
67629W        W33109   1.439  27.582   1.275
67630W        W33110  10.381   6.824  12.533
67631W        W33111  14.262  41.502   3.222
67632W        W33112  21.554  33.385   4.713
67633W        W33113  15.299  22.655   0.301
67634W        W33114  34.104  36.897   2.837
67635W        W33115  38.927  29.511   4.263
67636W        W33116  12.653  33.010  13.881
67637W        W33117  44.450   1.454   1.228
67638W        W33118  35.461  35.436  13.426
67639W        W33119  14.323  38.528  11.884
67640W        W33120  17.594   0.792  10.549
67641W        W33121  11.841   3.303   0.359
67642W        W33122  35.362  43.466   4.606
67643W        W33123   5.251  10.343  12.547
67644W        W33124   6.879  41.947   4.220
67645W        W33125   7.751  32.617  12.343
67646W        W33126  39.380  12.794   4.658
67647W        W33127  23.621  35.933   1.775
67648W        W33128  33.549  37.476  13.032
67649W        W33129  34.936  18.124  12.552
67650W        W33130   8.834  32.420  12.826
67651W        W33131  16.116  41.875   9.973
67652W        W33132  38.005  28.166  12.535
67653W        W33133  17.075  22.118  12.545
67654W        W33134   3.396  26.043  12.900
67655W        W33135  39.065   0.974   4.672
67656W        W33136  41.431  33.062  12.460
67657W        W33137  31.593  20.213   4.676
67658W        W33138  15.784  31.606   5.100
67659W        W33139  14.198  11.217  13.838
67660W        W33140  11.715  29.122   0.357
67661W        W33141   0.745  37.859  10.417
67662W        W33142  43.857   8.402  13.973
67663W        W33143  44.858  29.059   3.146
67664W        W33144   0.418  33.531   3.335
67665W        W33145  31.589  37.871  13.366
67666W        W33146  33.609  37.486  11.372
67667W        W33147  33.502  20.553   3.635
67668W        W33148  14.780  42.431   0.773
67669W        W33149  15.187   7.868   3.762
67670W        W33150  26.519  10.208  11.110
67671W        W33151   1.357  43.341   4.255
67672W        W33152  31.937  24.037  12.559
67673W        W33153  12.342  18.693  12.011
67674W        W33154  26.978  15.315  12.022
67675W        W33155  21.684  26.547  12.380
67676W        W33156   5.891  30.041   3.366
67677W        W33157   7.186  20.645   2.242
67678W        W33158  38.364  13.825   4.674
67679W        W33159  40.048  43.830   1.838
67680W        W33160  36.008   7.356   0.798
67681W        W33161  26.581  27.160   1.750
67682W        W33162   9.818  40.865   2.717
67683W        W33163  18.697   6.714  12.838
67684W        W33164  17.691  43.980  12.573
67685W        W33165  10.228  10.735   4.616
67686W        W33166  15.747  12.679   0.253
67687W        W33167   0.964  29.488   2.888
67688W        W33168   6.318  22.541   9.974
67689W        W33169  31.586  18.587   4.628
67690W        W33170  35.919   8.824   3.209
67691W        W33171  44.878  40.946   3.224
67692W        W33172   5.810   5.226  10.490
67693W        W33173  10.797  31.955   4.791
67694W        W33174  11.714  38.346  12.402
67695W        W33175  24.008  22.195  12.366
67696W        W33176  34.558   2.843  12.054
67697W        W33177  28.170   8.823  10.542
67698W        W33178   0.380  36.882   4.305
67699W        W33179  35.576   2.816  12.873
67700W        W33180  10.240  31.952   0.479
67701W        W33181  26.653  15.220  12.452
67702W        W33182   5.878   6.862   2.896
67703W        W33183  33.419  27.002  11.115
67704W        W33184  42.288   7.794  11.505
67705W        W33185  18.102  15.655   3.753
67706W        W33186  44.460  28.034  14.829
67707W        W33187  16.653  44.449  11.905
67708W        W33188  22.739   2.393  12.363
67709W        W33189  10.147  13.792   1.307
67710W        W33190  44.996  42.353   2.392
67711W        W33191  44.761  24.070  11.933
67712W        W33192   6.692   2.759   1.211
67713W        W33193  39.963   7.235  13.044
67714W        W33194  34.871  41.834  12.423
67715W        W33195  11.177  32.462   3.765
67716W        W33196   5.233  25.020   0.454
67717W        W33197  29.112  28.512  13.425
67718W        W33198  15.301  30.046  14.425
67719W        W33199  33.427  17.234  13.817
67720W        W33200  30.952   9.729  10.943
67721W        W33201  19.621   4.741   0.398
67722W        W33202  30.482  39.322   1.345
67723W        W33203  10.821  41.366   0.419
67724W        W33204  16.117  29.167  12.850
67725W        W33205   8.885  17.730  12.013
67726W        W33206   4.327  21.580  14.937
67727W        W33207  19.549  41.505  10.960
67728W        W33208   8.167  18.228   1.813
67729W        W33209  41.865   2.416  11.886
67730W        W33210  28.629  20.073   0.334
67731W        W33211   3.844  11.216  12.891
67732W        W33212  43.021   1.326   2.394
67733W        W33213   8.326  41.887   4.203
67734W        W33214  38.455  36.056  13.351
67735W        W33215  10.650  22.666  13.850
67736W        W33216  35.018  22.742   1.307
67737W        W33217  24.566  10.344  12.089
67738W        W33218  28.679  29.561   1.715
67739W        W33219  20.265  24.583  10.941
67740W        W33220  24.493  43.508  14.899
67741W        W33221  39.916  40.872  14.355
67742W        W33222  13.792  44.833   5.225
67743W        W33223  38.549  22.604   3.198
67744W        W33224  23.561  24.137   2.775
67745W        W33225  23.489  26.635  12.904
67746W        W33226  29.147  19.545   3.744
67747W        W33227  39.399  10.741   4.734
67748W        W33228  20.549  25.671   3.721
67749W        W33229  33.975  18.117   1.318
67750W        W33230  36.351  22.664  13.434
67751W        W33231  23.584  20.706  12.413
67752W        W33232  44.471  19.642  11.564
67753W        W33233  43.467  28.627  13.845
67754W        W33234   3.864  41.379   0.901
67755W        W33235  15.636  22.060   3.751
67756W        W33236  25.514  36.989  10.467
67757W        W33237  10.316   3.402   1.710
67758W        W33238  13.215  32.575   3.280
67759W        W33239  35.540  20.594   3.785
67760W        W33240  16.146  21.099   4.824
67761W        W33241  22.110  16.577   2.764
67762W        W33242  40.534  42.402  14.320
67763W        W33243   8.194  33.014   2.822
67764W        W33244  38.975  12.690   9.921
67765W        W33245   8.887  24.170  13.334
67766W        W33246  10.303   0.967   0.930
67767W        W33247  19.243  30.122   3.853
67768W        W33248   1.899  34.421   9.981
67769W        W33249  31.510  34.470  12.410
67770W        W33250  28.126  23.578  14.777
67771W        W33251   0.952   4.337  10.979
67772W        W33252   3.300   8.391  14.430
67773W        W33253  42.916   9.379  12.417
67774W        W33254   2.961  41.967   3.366
67775W        W33255  41.335  14.228  13.437
67776W        W33256  19.730   4.420  12.046
67777W        W33257  14.199  18.715  10.904
67778W        W33258  13.693  21.618  12.348
67779W        W33259   6.275  38.524  11.949
67780W        W33260   3.227  20.671   1.841
67781W        W33261   5.838  17.207  13.803
67782W        W33262   2.440   1.329  11.426
67783W        W33263   1.865  35.024   5.162
67784W        W33264  12.808   7.719   1.406
67785W        W33265  22.088  35.413  10.629
67786W        W33266  22.229  14.318  11.032
67787W        W33267  13.635   7.891   0.922
67788W        W33268  20.678  32.926  12.876
67789W        W33269  36.066  17.198  10.426
67790W        W33270  29.604  24.512   4.680
67791W        W33271  28.440  19.764   3.333
67792W        W33272  18.574   2.864   1.347
67793W        W33273  37.430  43.482  12.429
67794W        W33274   3.318  14.685  11.481
67795W        W33275  13.828   7.677   3.643
67796W        W33276  17.621  43.313   3.826
67797W        W33277  36.462  17.569  12.073
67798W        W33278  36.022  24.722   1.344
67799W        W33279  31.528  25.690  11.461
67800W        W33280   3.811  15.297  10.943
67801W        W33281  12.135  29.555  13.048
67802W        W33282   4.893  18.745  14.431
67803W        W33283   1.896   7.751   4.775
67804W        W33284  35.512  26.551   2.704
67805W        W33285  28.615  43.450  12.427
67806W        W33286  23.679  13.265  14.307
67807W        W33287   1.302  30.474   2.282
67808W        W33288  14.149  11.844  12.048
67809W        W33289   3.357  37.848  14.820
67810W        W33290   6.358  42.818  14.514
67811W        W33291  44.325  14.662  12.515
67812W        W33292  40.514  15.667   0.285
67813W        W33293   1.268  34.085   3.857
67814W        W33294   4.934  13.156   1.719
67815W        W33295  19.123  42.386  14.380
67816W        W33296  12.627  10.221  12.071
67817W        W33297   8.784  10.632   2.195
67818W        W33298  10.180   0.768  10.531
67819W        W33299  31.589  35.022  11.393
67820W        W33300  17.081  37.533  12.394
67821W        W33301  34.403  24.163   3.253
67822W        W33302  11.148  25.190   4.768
67823W        W33303  41.342  42.286  11.589
67824W        W33304  34.918  12.123   2.672
67825W        W33305  33.072  44.812   1.706
67826W        W33306   2.258  27.063  10.603
67827W        W33307  13.827  34.087  10.926
67828W        W33308  15.329   2.823   2.733
67829W        W33309  17.773   1.280  14.318
67830W        W33310  23.534  35.367  12.979
67831W        W33311   7.241  40.396  11.883
67832W        W33312  12.362  31.494  13.793
67833W        W33313  29.164  39.871   1.323
67834W        W33314  20.171  42.307   0.762
67835W        W33315  37.517  23.527  10.106
67836W        W33316  12.158   6.681   3.780
67837W        W33317  24.124   3.268   5.095
67838W        W33318  29.072  10.216  11.517
67839W        W33319  32.989   7.224  10.937
67840W        W33320  15.154  23.034   0.262
67841W        W33321  16.600  20.565  12.078
67842W        W33322   3.423  36.474  11.037
67843W        W33323   0.798  44.872   3.291
67844W        W33324  37.483  18.748  10.494
67845W        W33325   5.815  34.881   4.162
67846W        W33326   4.716  32.460  14.813
67847W        W33327  31.508  21.655   4.626
67848W        W33328   6.217  33.390   2.322
67849W        W33329  40.928   0.301  11.506
67850W        W33330  38.072  25.541   0.251
67851W        W33331  23.501  24.558   1.307
67852W        W33332  43.422  10.184  10.446
67853W        W33333   6.205  30.650  10.509
67854W        W33334   7.311   6.680  10.896
67855W        W33335  16.180  16.798  13.483
67856W        W33336   6.774  39.442   2.721
67857W        W33337  15.209  19.110  14.369
67858W        W33338  43.898  41.398  14.799
67859W        W33339  41.397  42.362   2.744
67860W        W33340  10.369  22.624  12.422
67861W        W33341   5.886  20.658  10.559
67862W        W33342  44.893  41.296  12.055
67863W        W33343  43.394  12.790   1.320
67864W        W33344  19.200   3.956   2.762
67865W        W33345  33.100  24.686  10.987
67866W        W33346  31.119  25.220  14.798
67867W        W33347   2.721  31.986  14.330
67868W        W33348  35.529  23.674  11.021
67869W        W33349  41.456   9.847   1.445
67870W        W33350  18.572   7.393  14.294
67871W        W33351  35.383  21.157  14.961
67872W        W33352  10.856  12.293  11.542
67873W        W33353  18.187  17.303   1.787
67874W        W33354   6.200  15.770  12.891
67875W        W33355  13.787  30.159   0.830
67876W        W33356  32.065   5.753   0.958
67877W        W33357  35.884  40.310   2.344
67878W        W33358   8.388  19.275   1.346
67879W        W33359  19.779   3.242   3.792
67880W        W33360   2.843  27.098   3.793
67881W        W33361  31.136  25.192   3.235
67882W        W33362   1.827  10.364  10.525
67883W        W33363   5.242   7.809   2.183
67884W        W33364  25.141  13.833  13.356
67885W        W33365  12.203   0.827  11.593
67886W        W33366  27.004  35.878  10.405
67887W        W33367  27.022  13.253  13.349
67888W        W33368  21.581  28.519  13.957
67889W        W33369  32.027  30.949  12.991
67890W        W33370  15.245  27.130  13.840
67891W        W33371  17.206   9.183   2.893
67892W        W33372  19.708  13.630   2.291
67893W        W33373  35.872  16.203   0.351
67894W        W33374  14.254  43.298   4.326
67895W        W33375  34.042  40.540  10.911
67896W        W33376   5.718   6.796   0.311
67897W        W33377  43.807   9.749  12.969
67898W        W33378   3.778   4.941   4.811
67899W        W33379  17.155  13.104  13.490
67900W        W33380   3.337  32.907   0.948
67901W        W33381  36.875  25.204   0.347
67902W        W33382  21.731  43.449  10.968
67903W        W33383  15.225  26.556  11.073
67904W        W33384  17.676  30.486  10.614
67905W        W33385  13.191  43.414   2.666
67906W        W33386  29.470  19.767   1.411
67907W        W33387  36.031  14.100  14.282
67908W        W33388  25.493  32.988   4.325
67909W        W33389  29.501  15.089  10.625
67910W        W33390  30.966  42.342  13.954
67911W        W33391  38.923  27.686   1.737
67912W        W33392  30.087  27.623   4.660
67913W        W33393   4.937   6.714  13.339
67914W        W33394  15.101  37.019  11.446
67915W        W33395  20.601   4.300   3.261
67916W        W33396  21.753  27.552  11.438
67917W        W33397   6.372  14.307  11.860
67918W        W33398  21.039  34.549   3.755
67919W        W33399  33.037   3.900  11.556
67920W        W33400   6.916   4.814  10.534
67921W        W33401  12.191  39.349  14.474
67922W        W33402  13.293   8.294  13.948
67923W        W33403  24.088  13.791  13.857
67924W        W33404   7.234   4.324  11.968
67925W        W33405  36.008  12.142  11.857
67926W        W33406  12.136   9.214   4.335
67927W        W33407  12.201  37.884   0.412
67928W        W33408  40.880  34.968  10.476
67929W        W33409   0.835  34.574  13.351
67930W        W33410  41.476  32.598   4.753
67931W        W33411  41.798  35.400   1.408
67932W        W33412  21.726  10.723   1.384
67933W        W33413  42.492  25.118   3.751
67934W        W33414   4.821   3.711  13.965
67935W        W33415  24.218  29.651   3.717
67936W        W33416  38.020  21.587  11.407
67937W        W33417  10.351   2.394  10.937
67938W        W33418   0.909  26.075   4.280
67939W        W33419  40.804  35.472  14.283
67940W        W33420  14.101  33.485   3.187
67941W        W33421  36.974  19.051  13.023
67942W        W33422   6.777  34.094  13.404
67943W        W33423   0.788  24.201   2.366
67944W        W33424  41.905  34.399   4.284
67945W        W33425  35.024  43.283  11.003
67946W        W33426   2.808  33.889   2.825
67947W        W33427  40.014  10.165   3.749
67948W        W33428  40.803  32.142   1.725
67949W        W33429  33.484   9.378  10.491
67950W        W33430  23.497  39.060  14.002
67951W        W33431  23.734  27.955   0.770
67952W        W33432  10.685  23.674  10.629
67953W        W33433   2.731  44.488  14.965
67954W        W33434  31.623   6.380   0.303
67955W        W33435  39.317  30.980  12.437
67956W        W33436  40.007   7.332  11.584
67957W        W33437  29.607  19.146  14.391
67958W        W33438  10.873  11.646   2.903
67959W        W33439  32.005  33.383   4.720
67960W        W33440  18.727   5.843  14.778
67961W        W33441   8.774  10.721  12.484
67962W        W33442  17.147  30.474  14.889
67963W        W33443  42.437  30.586  11.024
67964W        W33444   8.883  38.385   2.404
67965W        W33445  33.963  34.939  13.367
67966W        W33446  14.806  11.224  13.313
67967W        W33447  29.112  12.189   1.294
67968W        W33448  41.945  25.661   2.756
67969W        W33449  43.432   7.697  14.399
67970W        W33450   7.722   3.948  10.504
67971W        W33451  27.633  22.099  12.501
67972W        W33452   5.386   0.753  11.456
67973W        W33453  10.159  11.751   1.375
67974W        W33454  28.552  34.069   1.281
67975W        W33455  25.679  43.448   3.282
67976W        W33456  44.408  15.587   9.981
67977W        W33457  19.600  24.647   1.909
67978W        W33458   2.378  14.730   2.350
67979W        W33459  39.000  15.600  12.926
67980W        W33460  17.087  44.393  14.835
67981W        W33461   5.839  13.812  12.973
67982W        W33462   5.706  40.014  11.561
67983W        W33463  42.888   5.375  12.490
67984W        W33464  17.775   9.344  12.398
67985W        W33465  37.405  44.908  12.524
67986W        W33466  42.453  13.201  13.452
67987W        W33467  40.885  38.932  14.412
67988W        W33468  28.127  25.644   3.802
67989W        W33469   8.706   1.851  12.453
67990W        W33470  19.564  30.011  14.358
67991W        W33471  33.083   6.780  14.989
67992W        W33472  40.312  31.460  13.464
67993W        W33473  17.183   1.321   3.177
67994W        W33474  44.311  27.468  11.550
67995W        W33475  22.116  42.327   0.444
67996W        W33476  37.512  40.868   0.858
67997W        W33477  42.813  39.368  10.452
67998W        W33478  13.164  19.629  11.517
67999W        W33479   2.763  39.376  14.413
68000W        W33480  23.222  41.414  11.450
68001W        W33481  38.371  28.991   2.401
68002W        W33482  23.685  10.191  13.802
68003W        W33483  43.938  28.162  14.912
68004W        W33484  33.510  40.369  12.846
68005W        W33485  39.529  23.076   2.302
68006W        W33486   7.300  34.451  13.912
68007W        W33487  32.440  18.104  12.371
68008W        W33488  27.081  15.765   1.694
68009W        W33489  38.064   6.761   2.854
68010W        W33490  41.459  19.200   2.675
68011W        W33491   0.957  15.125  14.370
68012W        W33492  31.541   4.705   0.807
68013W        W33493  28.965   2.327   0.338
68014W        W33494  13.791  38.041  10.913
68015W        W33495  36.843  38.524   1.933
68016W        W33496   7.818   0.274   2.785
68017W        W33497  27.542  44.465  11.949
68018W        W33498  26.074  12.741  12.865
68019W        W33499  26.621   3.383  10.610
68020W        W33500  38.371  42.915  13.408
68021W        W33501  40.438  15.088   1.324
68022W        W33502  25.069  16.180   0.963
68023W        W33503  22.510  41.403   4.172
68024W        W33504   7.246  39.511  11.430
68025W        W33505  19.728  29.142  11.115
68026W        W33506  38.011  19.217   2.870
68027W        W33507  36.402  31.648  12.406
68028W        W33508  42.951   3.738   0.463
68029W        W33509  39.988  43.370   1.934
68030W        W33510  31.977  13.712   4.720
68031W        W33511  20.172  44.443   4.256
68032W        W33512  43.296  14.722  12.920
68033W        W33513  37.387  29.670   5.126
68034W        W33514   5.194  40.540  12.896
68035W        W33515  28.471  22.040   1.234
68036W        W33516  32.506  40.837  11.947
68037W        W33517  21.118  20.769   4.694
68038W        W33518  22.571  31.153  12.999
68039W        W33519  14.337  19.191   2.209
68040W        W33520  33.381  44.871   1.451
68041W        W33521  41.530  27.109   2.229
68042W        W33522  27.082  17.640   1.925
68043W        W33523  43.312  19.692  12.349
68044W        W33524  43.328  26.579  14.858
68045W        W33525  27.107  20.269  11.475
68046W        W33526  36.093  16.270   1.881
68047W        W33527  33.928  37.445   0.337
68048W        W33528  32.555  38.471   0.469
68049W        W33529  42.848  11.339   3.777
68050W        W33530  43.279  29.506   0.430
68051W        W33531   2.441  31.091   3.304
68052W        W33532  14.704  35.506  11.908
68053W        W33533  17.183  31.423  10.438
68054W        W33534  29.928   8.402   0.399
68055W        W33535  30.641  29.602   1.786
68056W        W33536  26.467  36.006  14.896
68057W        W33537  30.569  44.901   1.759
68058W        W33538  19.283  31.093  12.924
68059W        W33539  12.835   9.670  13.894
68060W        W33540  17.178  43.432  14.363
68061W        W33541  19.197  43.510   3.326
68062W        W33542  42.904   7.861  10.487
68063W        W33543  30.421  40.034   4.144
68064W        W33544   7.747  18.774   1.847
68065W        W33545  26.528  34.084  12.570
68066W        W33546  37.547  33.960  14.471
68067W        W33547  14.127  37.367  11.124
68068W        W33548  25.514  39.046  12.031
68069W        W33549  21.635  12.651  10.490
68070W        W33550  36.944  26.120   1.708
68071W        W33551  35.002  30.911   4.821
68072W        W33552  18.567  28.563   3.157
68073W        W33553  26.992  41.011  13.498
68074W        W33554   4.736   1.467   3.802
68075W        W33555  19.085  35.936  14.000
68076W        W33556  29.018   7.682   0.943
68077W        W33557   1.919  18.720  11.381
68078W        W33558  36.574  36.422  13.408
68079W        W33559  19.049  15.778  12.881
68080W        W33560   5.429  26.070  13.834
68081W        W33561   8.827  15.625  13.950
68082W        W33562  26.973   3.243   5.082
68083W        W33563  18.292  43.867   3.864
68084W        W33564  28.511  22.025   3.373
68085W        W33565  18.175  13.142  13.897
68086W        W33566  22.654   0.921  14.390
68087W        W33567  33.500   2.277   4.757
68088W        W33568   2.372  23.582  11.070
68089W        W33569  12.711  18.056   0.459
68090W        W33570   6.255  39.352  14.503
68091W        W33571  26.969   1.375  11.574
68092W        W33572  30.078  31.614  13.943
68093W        W33573   1.430  42.931  10.529
68094W        W33574  37.421  12.821  12.070
68095W        W33575  29.009  27.471   2.675
68096W        W33576  27.668   0.875   3.849
68097W        W33577  25.659   4.753  10.122
68098W        W33578  40.454  28.644   0.785
68099W        W33579  12.350   7.912  10.563
68100W        W33580  44.272  38.479  12.087
68101W        W33581   4.309  27.500  10.901
68102W        W33582  44.283  25.688  14.359
68103W        W33583  25.007  42.875  10.461
68104W        W33584  16.760  12.250  10.469
68105W        W33585  13.819  19.240   4.663
68106W        W33586  35.420  17.611   4.294
68107W        W33587  35.444  26.693   3.237
68108W        W33588  24.060  18.704  14.886
68109W        W33589  22.008  29.095   4.123
68110W        W33590   3.310   1.395  11.065
68111W        W33591  20.266  34.579   4.642
68112W        W33592  18.070  40.537   0.736
68113W        W33593  22.644  32.104   1.780
68114W        W33594  32.046  25.045  10.486
68115W        W33595   9.740   2.416  14.483
68116W        W33596  28.133  32.530   2.665
68117W        W33597   7.796   7.736   4.777
68118W        W33598  23.090  44.879  12.860
68119W        W33599  14.755  10.367   3.765
68120W        W33600  22.683  23.110  13.341
68121W        W33601  32.979  31.935   0.791
68122W        W33602   0.363  11.678  10.597
68123W        W33603   0.987  41.318  10.118
68124W        W33604   7.750  42.365  12.527
68125W        W33605  17.157  17.607  13.974
68126W        W33606  41.514   6.863   9.953
68127W        W33607  40.458  21.157   0.252
68128W        W33608  36.435   8.210  14.356
68129W        W33609  33.509  11.676   1.410
68130W        W33610  12.713  17.201  13.483
68131W        W33611  32.947  17.248  14.032
68132W        W33612  25.202   1.969  12.012
68133W        W33613   7.704  29.457   1.288
68134W        W33614  14.621  43.886  13.036
68135W        W33615  32.492  34.418  13.050
68136W        W33616  17.688  10.774   2.846
68137W        W33617  10.271  14.260  12.466
68138W        W33618  34.508   0.491  13.793
68139W        W33619  22.602   4.886   1.922
68140W        W33620  21.077   9.717  11.077
68141W        W33621  28.066  33.579  12.471
68142W        W33622  12.137  38.358  11.868
68143W        W33623  32.567  39.044  11.393
68144W        W33624   5.240  30.518  12.096
68145W        W33625   2.280  28.569   4.176
68146W        W33626   4.804  35.405  11.028
68147W        W33627  20.570   6.798  14.310
68148W        W33628  30.026   2.232   1.737
68149W        W33629   8.310  19.167   0.881
68150W        W33630   6.835  22.681  13.941
68151W        W33631  32.402   1.822  10.559
68152W        W33632  30.959   5.688  11.574
68153W        W33633  35.499   8.268  11.117
68154W        W33634  22.096  43.340  12.340
68155W        W33635  13.161  41.371  14.353
68156W        W33636  24.979  38.888   0.471
68157W        W33637   6.282  23.057  10.456
68158W        W33638  40.334  28.016   1.383
68159W        W33639  16.621   4.880  11.062
68160W        W33640  38.515   1.737   0.808
68161W        W33641  41.317  34.591   0.941
68162W        W33642  28.522  34.968   3.376
68163W        W33643  19.659  40.855  12.860
68164W        W33644  41.425  15.316   0.439
68165W        W33645  13.607  31.913   2.693
68166W        W33646   4.860  14.133  10.996
68167W        W33647   6.237  27.605   0.327
68168W        W33648  13.108  26.540  12.431
68169W        W33649  44.967  22.143   2.192
68170W        W33650  10.738  40.483  14.509
68171W        W33651  19.640  13.174  14.329
68172W        W33652  40.838   7.841  12.844
68173W        W33653  39.388  41.826  11.430
68174W        W33654  20.134  27.951  14.928
68175W        W33655   6.679  30.958  10.463
68176W        W33656  23.586  42.483  12.891
68177W        W33657  31.503   3.813  14.987
68178W        W33658  33.897  42.479   0.431
68179W        W33659  15.673  10.140   0.728
68180W        W33660  23.167  13.766   4.153
68181W        W33661  36.886  38.477   4.271
68182W        W33662  39.980  12.181   0.934
68183W        W33663  15.188  44.924  11.026
68184W        W33664  18.656  23.176   3.718
68185W        W33665  13.727  24.096   4.233
68186W        W33666  28.452  31.544   0.258
68187W        W33667  22.176   1.310   3.765
68188W        W33668  22.056   5.360  10.632
68189W        W33669   7.852  10.383  10.513
68190W        W33670   9.227  33.897   1.392
68191W        W33671  18.590   1.760   1.254
68192W        W33672  11.164   9.184  13.418
68193W        W33673  44.929  18.724   3.363
68194W        W33674   8.400  29.594  11.510
68195W        W33675  22.728  22.091  11.007
68196W        W33676  38.998  22.674  14.878
68197W        W33677  41.505  28.088   1.314
68198W        W33678  27.957  33.605  12.928
68199W        W33679  27.473  32.041   3.687
68200W        W33680  17.128   2.741   3.279
68201W        W33681  17.726  10.672  11.426
68202W        W33682   9.769   9.829   2.343
68203W        W33683  19.240   9.888  12.578
68204W        W33684  22.010  24.543   2.749
68205W        W33685  41.894  41.413  10.935
68206W        W33686  17.596  30.039   3.384
68207W        W33687  29.976  39.323  11.475
68208W        W33688  13.108  43.020  12.450
68209W        W33689  12.201  44.904   9.442
68210W        W33690   5.738  29.654  14.830
68211W        W33691  20.769   7.373  14.304
68212W        W33692  28.143  37.420   1.431
68213W        W33693   8.247   9.860   1.739
68214W        W33694  28.076  44.359  13.916
68215W        W33695  31.456  39.351   2.374
68216W        W33696  25.647  17.770  10.473
68217W        W33697   2.390  19.758   3.634
68218W        W33698  36.448   1.344   2.214
68219W        W33699  26.196  19.589   4.136
68220W        W33700  33.451  41.381  14.939
68221W        W33701  23.713  22.226   4.344
68222W        W33702  32.994   5.765   2.410
68223W        W33703   4.308   3.280   3.191
68224W        W33704  20.038  14.680  14.506
68225W        W33705  12.332  21.618  13.392
68226W        W33706  44.477  36.542  11.567
68227W        W33707  25.555  19.730  12.395
68228W        W33708  26.034   6.297   2.801
68229W        W33709   5.357  40.895  13.328
68230W        W33710  36.075  28.574   3.186
68231W        W33711  10.319  36.385  12.382
68232W        W33712  12.212  44.483   2.688
68233W        W33713  37.867  10.690   4.340
68234W        W33714  21.233  40.993   2.844
68235W        W33715  38.943  10.748   1.861
68236W        W33716  31.638  30.460  14.998
68237W        W33717   9.264   9.662  10.994
68238W        W33718  25.635   0.412  12.924
68239W        W33719  14.614  31.563   3.652
68240W        W33720  27.152  21.158  10.411
68241W        W33721  41.905  39.876  11.400
68242W        W33722  25.518  39.528   0.411
68243W        W33723  33.043  19.213  14.983
68244W        W33724  31.634  42.803   0.958
68245W        W33725  14.759  35.432  10.974
68246W        W33726   8.336  30.641  14.001
68247W        W33727  28.067   4.846   2.714
68248W        W33728  24.695   6.267   4.722
68249W        W33729  23.131  18.090  14.851
68250W        W33730   0.867  31.900   1.360
68251W        W33731   4.439  14.145  13.053
68252W        W33732   8.867  43.301   3.654
68253W        W33733  13.758   0.762   2.271
68254W        W33734  28.671  37.434   2.693
68255W        W33735   3.874  14.815  13.837
68256W        W33736  38.876  37.909  12.080
68257W        W33737  29.517  44.378   5.108
68258W        W33738  20.748  39.406  14.372
68259W        W33739  10.225   8.296  14.856
68260W        W33740  42.498  20.624  14.014
68261W        W33741   9.161  36.363   3.169
68262W        W33742  13.167  17.593   0.928
68263W        W33743  36.426  19.705   5.265
68264W        W33744  15.329  42.004   1.377
68265W        W33745  20.739  35.598  13.850
68266W        W33746  14.207  23.065  11.426
68267W        W33747   2.352  43.326   0.853
68268W        W33748  14.747  26.488   0.461
68269W        W33749  43.451  31.407   1.276
68270W        W33750   8.320  44.854  13.373
68271W        W33751  19.554  34.977  11.062
68272W        W33752  24.114  42.313  10.896
68273W        W33753  10.821  44.335   0.332
68274W        W33754   9.334  33.523  11.114
68275W        W33755   6.853  32.470   4.250
68276W        W33756  34.492  28.937  13.939
68277W        W33757  44.484  32.083  14.837
68278W        W33758   2.382  19.063   4.325
68279W        W33759  44.977  34.403   4.731
68280W        W33760  12.121   8.871   0.882
68281W        W33761  33.387  37.451   1.870
68282W        W33762  27.176  11.149   3.201
68283W        W33763   1.299   7.849   2.203
68284W        W33764  10.745  42.783  11.872
68285W        W33765  44.949   3.863  14.500
68286W        W33766   2.727  42.800  13.022
68287W        W33767  11.167  32.942  13.832
68288W        W33768  27.536  33.986  14.878
68289W        W33769  19.279  44.803   4.770
68290W        W33770  41.030  12.252   4.186
68291W        W33771  15.281  15.619  13.485
68292W        W33772  17.707  40.305  12.408
68293W        W33773  17.782  19.057  13.484
68294W        W33774   6.721   5.881  11.587
68295W        W33775  34.927   7.868  14.966
68296W        W33776  28.446   1.285  13.480
68297W        W33777  12.171  15.217  12.986
68298W        W33778  39.429  42.830   2.846
68299W        W33779  25.614  12.182  13.826
68300W        W33780  42.840  36.899   1.416
68301W        W33781  15.101   9.259  12.404
68302W        W33782   3.368  15.229   4.836
68303W        W33783  25.522  34.054   4.691
68304W        W33784  33.535  36.999  13.937
68305W        W33785  24.500   1.740  13.021
68306W        W33786  26.000  14.261   3.794
68307W        W33787  41.407  28.062  12.055
68308W        W33788  26.688  43.346   3.387
68309W        W33789  33.068  31.089   1.329
68310W        W33790  12.289  20.561   1.696
68311W        W33791  19.588   7.707   0.963
68312W        W33792  17.726  16.730  13.794
68313W        W33793  18.745  37.562  13.452
68314W        W33794  29.126  15.629   1.804
68315W        W33795  10.710  35.954   5.276
68316W        W33796   9.679  27.000   2.269
68317W        W33797  31.430  21.040   3.175
68318W        W33798  18.282  31.576   3.639
68319W        W33799  14.180  27.967   0.815
68320W        W33800  19.088  38.847  10.938
68321W        W33801  23.140  22.726  13.860
68322W        W33802  36.955  41.341  13.892
68323W        W33803  42.000  42.294  10.439
68324W        W33804  43.321  41.026   0.397
68325W        W33805   5.408  12.279  14.999
68326W        W33806  26.979  36.516  12.060
68327W        W33807  42.793  40.441   3.203
68328W        W33808  31.015  44.805  12.850
68329W        W33809  15.765  10.820   2.713
68330W        W33810  26.585  15.804   1.332
68331W        W33811  14.798  20.068   0.916
68332W        W33812  26.169  14.263  13.841
68333W        W33813  39.516  39.385   4.811
68334W        W33814   2.790  31.459   1.381
68335W        W33815   0.310  19.588   4.637
68336W        W33816   9.350  26.036   1.360
68337W        W33817  32.046  32.628   1.773
68338W        W33818   4.887  23.080  13.327
68339W        W33819  24.209  31.986  10.056
68340W        W33820  35.406   2.946  10.987
68341W        W33821  27.196  34.061  10.638
68342W        W33822  12.198  26.979   3.861
68343W        W33823  25.554  37.576  10.622
68344W        W33824  19.155  25.122   0.861
68345W        W33825  10.262  36.420  11.447
68346W        W33826  30.591  18.102  10.429
68347W        W33827  29.949  14.289   2.862
68348W        W33828  23.224  41.980   3.672
68349W        W33829  26.977  16.718  11.094
68350W        W33830  18.666  19.149   0.302
68351W        W33831  10.716   8.173   2.787
68352W        W33832  10.768  37.420   1.371
68353W        W33833  27.465  43.940   0.286
68354W        W33834   6.204  24.582   1.920
68355W        W33835  29.598  13.813   4.822
68356W        W33836  14.705  41.860   0.938
68357W        W33837  31.952  17.719   2.392
68358W        W33838  18.208  17.622   4.264
68359W        W33839  44.961  35.979  11.509
68360W        W33840   3.923  18.246  10.417
68361W        W33841  35.928  13.288  14.514
68362W        W33842  10.379  35.052  10.424
68363W        W33843  26.583  12.837  14.419
68364W        W33844  13.296  37.356   2.726
68365W        W33845  33.547  39.821   1.834
68366W        W33846   0.448  12.274  12.087
68367W        W33847  11.680  19.084  11.062
68368W        W33848   4.929   9.823   3.822
68369W        W33849  25.582  18.088   0.427
68370W        W33850  19.674   6.866   0.271
68371W        W33851   9.325  10.842  10.452
68372W        W33852  32.480  21.646  14.981
68373W        W33853  27.136  28.946   1.349
68374W        W33854   2.861  10.359  11.043
68375W        W33855  12.236  12.638  12.514
68376W        W33856  36.010  23.062  10.539
68377W        W33857  35.050  11.262   4.231
68378W        W33858  40.391   0.803   3.241
68379W        W33859  42.914   3.318  14.997
68380W        W33860  27.453  20.674  11.445
68381W        W33861  23.204  44.380  14.459
68382W        W33862  19.179   2.738  14.499
68383W        W33863  31.462  16.613  10.567
68384W        W33864  16.675  14.147  13.012
68385W        W33865  35.016  41.907  14.397
68386W        W33866   5.269  15.226  12.511
68387W        W33867  30.137  22.130   1.275
68388W        W33868  32.059  40.038   3.323
68389W        W33869  23.645  17.645   2.255
68390W        W33870   9.798  37.081   1.429
68391W        W33871  23.113  24.105  11.057
68392W        W33872  40.885   2.306  10.015
68393W        W33873   6.228  25.611   2.802
68394W        W33874  40.823   1.773  13.311
68395W        W33875  11.800  14.651  11.491
68396W        W33876  22.740  44.997  13.447
68397W        W33877  15.756  41.511  11.467
68398W        W33878  21.612  26.103   4.230
68399W        W33879  40.324  36.951  12.065
68400W        W33880  27.574  11.156  11.126
68401W        W33881  31.986  18.171  13.922
68402W        W33882  31.443  40.381  13.900
68403W        W33883  13.611  22.741  10.626
68404W        W33884  26.029  21.729   3.178
68405W        W33885  27.022  21.683  13.917
68406W        W33886  38.059  39.524   0.913
68407W        W33887  38.393  27.614   4.335
68408W        W33888  30.583  40.009  11.938
68409W        W33889  20.668  27.060   5.100
68410W        W33890  26.596  30.130   3.226
68411W        W33891   3.313  41.851  11.486
68412W        W33892  31.045  16.310  10.532
68413W        W33893   2.764   3.849  12.044
68414W        W33894   0.881  30.642   5.261
68415W        W33895   5.235  39.836   2.284
68416W        W33896   2.298   2.302   0.290
68417W        W33897   0.332  15.295  10.532
68418W        W33898  38.351  27.097   3.733
68419W        W33899  36.545  15.716   0.378
68420W        W33900  10.731  39.854  11.977
68421W        W33901  40.981  42.860  11.555
68422W        W33902   4.798  11.167  11.436
68423W        W33903   7.751  40.798  12.503
68424W        W33904  38.064   4.351   3.852
68425W        W33905  37.839   8.802   0.245
68426W        W33906  32.916  31.616  14.294
68427W        W33907   0.890  14.684   3.243
68428W        W33908  10.142  24.998   3.708
68429W        W33909  24.158  22.636   2.294
68430W        W33910  34.885  15.579  13.360
68431W        W33911   0.963  22.649  12.474
68432W        W33912  22.624  29.626  13.384
68433W        W33913  19.609   5.717  12.357
68434W        W33914  20.601   0.748   2.181
68435W        W33915   4.215  24.724  14.944
68436W        W33916   6.891  11.170   0.848
68437W        W33917  20.598  39.915   1.859
68438W        W33918  12.273  30.435  12.967
68439W        W33919  41.529  28.585   3.827
68440W        W33920   7.319   0.432   3.771
68441W        W33921  35.884  32.915  12.064
68442W        W33922  41.796  37.522  13.391
68443W        W33923   4.294  37.838  10.587
68444W        W33924  20.222  38.851   4.773
68445W        W33925   0.451  20.051   2.179
68446W        W33926  14.797   8.847   4.807
68447W        W33927   6.845  43.875  13.354
68448W        W33928  42.996  23.575  13.462
68449W        W33929  30.916  33.965   0.727
68450W        W33930  21.211   3.369   5.255
68451W        W33931  33.076  43.362  10.922
68452W        W33932  39.384  20.038  13.961
68453W        W33933   4.369  27.580   3.329
68454W        W33934  18.552  29.157   1.717
68455W        W33935  29.639  20.089  12.911
68456W        W33936  39.512  33.587  13.954
68457W        W33937  41.315   3.312  11.492
68458W        W33938  10.348   7.348  11.104
68459W        W33939  37.942  21.745  12.948
68460W        W33940  31.078  20.093   2.300
68461W        W33941  35.541  22.249   4.123
68462W        W33942  38.383  26.051  14.923
68463W        W33943   4.865  29.496  13.339
68464W        W33944  39.014  26.616   5.195
68465W        W33945  38.045  19.086   1.824
68466W        W33946   2.956   6.246   0.859
68467W        W33947   4.748  42.367  12.046
68468W        W33948   4.743   3.289   5.259
68469W        W33949  31.095  20.745  10.474
68470W        W33950  19.097  30.499  12.877
68471W        W33951  32.099  25.510   0.448
68472W        W33952  30.113  12.680   4.318
68473W        W33953  12.829  24.537   1.340
68474W        W33954  17.601  28.546  14.327
68475W        W33955   2.286  43.919  14.851
68476W        W33956  30.923  26.491   3.755
68477W        W33957  26.669   7.286   1.884
68478W        W33958   6.391  40.940   3.709
68479W        W33959   3.836  21.189   3.749
68480W        W33960  30.545   7.757  14.763
68481W        W33961  37.543  11.183   2.808
68482W        W33962  24.037  10.809  12.010
68483W        W33963  15.660   3.880   2.239
68484W        W33964  36.524  30.095  14.030
68485W        W33965  43.788  11.170  14.801
68486W        W33966  33.928  36.457   4.143
68487W        W33967   1.481  24.704   2.813
68488W        W33968  34.981  36.519   1.765
68489W        W33969  24.538  39.860   1.858
68490W        W33970  34.016  34.987  10.984
68491W        W33971  41.478  38.502  10.919
68492W        W33972  40.017  17.606   3.252
68493W        W33973  16.767  16.597   4.292
68494W        W33974  20.097  21.232   0.474
68495W        W33975  23.118  42.458   1.310
68496W        W33976   5.871  13.170   4.633
68497W        W33977  38.353  25.580   0.915
68498W        W33978  39.048  21.530  10.410
68499W        W33979   9.327  19.055  11.060
68500W        W33980  18.771  31.632   4.180
68501W        W33981   2.772  39.402   2.214
68502W        W33982  34.520  35.461  11.006
68503W        W33983  25.529  11.290   1.339
68504W        W33984   1.906  12.243   1.418
68505W        W33985  43.274  32.485   0.749
68506W        W33986   5.331  44.800   1.915
68507W        W33987  13.231  22.508   1.703
68508W        W33988  36.054   1.849  14.800
68509W        W33989  14.240  31.996   1.409
68510W        W33990  20.627   8.329   2.698
68511W        W33991  20.260  34.013   4.209
68512W        W33992  33.064   7.410   2.399
68513W        W33993  26.641  10.856   3.385
68514W        W33994  39.923  11.860   3.859
68515W        W33995  18.601  21.258  10.107
68516W        W33996  33.568  18.177  10.549
68517W        W33997  11.275  39.875  13.320
68518W        W33998  19.198  11.224   0.373
68519W        W33999  35.561   0.810   1.432
68520W        W34000  26.208  17.165  14.297
68521W        W34001  12.762  22.577  12.953
68522W        W34002  44.800  17.126   1.211
68523W        W34003  40.868  30.523   4.778
68524W        W34004  35.880   0.310  10.973
68525W        W34005  24.522  43.375  11.579
68526W        W34006  17.708  29.663  14.016
68527W        W34007  15.275  13.262   2.802
68528W        W34008  15.593   5.428   1.788
68529W        W34009  32.092  16.118   3.300
68530W        W34010  13.336  39.424   4.165
68531W        W34011  24.658  33.568   2.886
68532W        W34012   9.336  42.780   1.839
68533W        W34013  25.534  38.568  11.511
68534W        W34014  18.633  17.074   0.775
68535W        W34015  14.238  23.204  13.414
68536W        W34016  38.408  33.886   4.758
68537W        W34017  44.440   8.894   9.980
68538W        W34018  20.191  43.514  12.864
68539W        W34019  26.203  40.524  11.990
68540W        W34020  15.608  38.438   3.651
68541W        W34021  10.375  19.198   3.855
68542W        W34022  26.046  26.601  13.039
68543W        W34023   5.322  41.974   4.321
68544W        W34024  33.004  10.292   2.797
68545W        W34025  12.854  12.785  11.535
68546W        W34026  25.128  20.238  10.517
68547W        W34027  16.786  39.378  13.007
68548W        W34028  44.790   9.387   2.743
68549W        W34029  16.780   5.719   3.190
68550W        W34030  38.446  17.735   0.917
68551W        W34031  17.786  22.152   1.926
68552W        W34032  29.528  22.695  12.369
68553W        W34033   4.223  28.038  14.799
68554W        W34034  28.937   7.801  11.027
68555W        W34035  37.891   1.411  13.942
68556W        W34036  27.531   8.659   2.325
68557W        W34037  43.445  43.855  10.630
68558W        W34038   0.777  29.650   4.639
68559W        W34039   5.827  23.644   1.254
68560W        W34040  31.444  29.538  11.936
68561W        W34041  14.200  30.606  14.404
68562W        W34042  12.171  26.163  13.332
68563W        W34043   8.320   5.779   2.189
68564W        W34044  11.361  20.078  12.382
68565W        W34045  12.733  26.680  11.422
68566W        W34046  33.620  18.225  14.877
68567W        W34047  40.982  40.939   2.723
68568W        W34048  10.812  23.102  12.378
68569W        W34049  18.612   0.897  13.357
68570W        W34050   4.353  17.684  12.440
68571W        W34051   4.236  26.189   3.855
68572W        W34052  23.147   2.890  10.437
68573W        W34053  29.485  13.684  10.965
68574W        W34054   9.848  38.961   3.341
68575W        W34055   4.783  38.903   2.816
68576W        W34056  42.499  38.352   1.898
68577W        W34057  37.883  30.138  12.965
68578W        W34058   6.906  32.089   2.776
68579W        W34059  38.530   1.775   4.149
68580W        W34060  31.639   7.864   0.331
68581W        W34061   1.940  16.714   2.748
68582W        W34062  10.374  23.511  12.427
68583W        W34063  33.995  21.138   2.290
68584W        W34064  14.328  39.954   0.961
68585W        W34065   5.227   2.438   3.694
68586W        W34066  12.285   1.965   1.835
68587W        W34067  25.481  41.987   2.289
68588W        W34068   9.154  33.512   0.731
68589W        W34069  16.804   8.389  14.350
68590W        W34070   7.726  26.559   1.247
68591W        W34071  18.672  43.767  14.821
68592W        W34072   0.807  33.987  11.918
68593W        W34073  18.678  20.640   1.757
68594W        W34074  24.540  41.860   0.306
68595W        W34075  17.750  14.150  13.799
68596W        W34076  34.937  21.592  13.922
68597W        W34077  14.175  44.849  11.990
68598W        W34078  35.505  37.934  12.463
68599W        W34079  27.455   3.263  13.448
68600W        W34080   6.785  18.636   0.846
68601W        W34081  35.982   1.977   2.204
68602W        W34082  30.019  40.388  11.920
68603W        W34083  10.250  19.535   0.330
68604W        W34084   2.324  38.845   3.269
68605W        W34085  17.180  30.165  12.014
68606W        W34086  14.773  37.413  11.526
68607W        W34087   3.276  34.442   3.812
68608W        W34088   0.747  21.608   4.795
68609W        W34089   8.233  38.840  12.465
68610W        W34090   2.770  21.197   2.231
68611W        W34091  20.074   0.358  12.516
68612W        W34092  37.519  28.036   0.774
68613W        W34093  22.728  41.422  12.504
68614W        W34094  14.657  25.174  14.883
68615W        W34095  34.593  18.625   3.721
68616W        W34096  19.238  44.848   2.337
68617W        W34097  42.335  23.554   0.776
68618W        W34098  26.565  29.612  11.483
68619W        W34099  15.110  13.822   0.411
68620W        W34100   0.422  12.361   1.229
68621W        W34101   0.266   0.309  13.025
68622W        W34102  16.155  32.943  13.868
68623W        W34103  12.819  20.093   4.787
68624W        W34104  44.478  19.171   0.331
68625W        W34105  44.317  32.598  11.088
68626W        W34106  42.380  44.811   0.860
68627W        W34107  32.475  35.467   2.756
68628W        W34108  38.997   5.904   9.935
68629W        W34109  15.616  16.309  11.879
68630W        W34110  32.115   7.198  14.887
68631W        W34111   3.712   5.761  12.833
68632W        W34112   9.355  33.601   3.701
68633W        W34113  30.119  39.894   3.339
68634W        W34114   9.785  32.099   0.919
68635W        W34115  42.309   5.296   1.779
68636W        W34116  26.627  34.387  14.892
68637W        W34117  13.129  11.713  11.881
68638W        W34118  25.590  17.590   0.798
68639W        W34119   1.802  17.220  12.891
68640W        W34120  44.796  15.807  13.371
68641W        W34121  12.761  15.239   2.377
68642W        W34122  41.909   8.381  11.500
68643W        W34123  29.974   4.278  12.843
68644W        W34124  14.752  28.967  12.054
68645W        W34125  21.053  39.017   2.403
68646W        W34126  24.588   0.340  10.932
68647W        W34127  20.195  13.650  10.947
68648W        W34128   5.399   6.231   0.734
68649W        W34129  24.583  26.114  12.897
68650W        W34130  25.642  28.941  13.952
68651W        W34131  10.871  10.302  11.983
68652W        W34132   4.884  12.196  11.425
68653W        W34133   9.706  10.172   2.877
68654W        W34134  33.094   5.902  11.080
68655W        W34135   1.429  41.349   3.757
68656W        W34136   3.379  34.533   0.743
68657W        W34137  14.727   0.811  14.020
68658W        W34138  10.811  13.740  12.552
68659W        W34139  30.442  37.535   2.842
68660W        W34140  19.090   5.203   2.769
68661W        W34141  29.990  32.956  12.521
68662W        W34142   2.830   8.878   3.739
68663W        W34143   8.753  44.425   4.784
68664W        W34144  28.077  35.576  14.970
68665W        W34145  36.549  38.901   2.793
68666W        W34146  11.274  11.714   1.697
68667W        W34147  25.510  12.203  11.980
68668W        W34148  29.007   6.765   3.157
68669W        W34149  17.238  15.243   0.360
68670W        W34150  29.532  16.656   2.793
68671W        W34151  13.234  41.989   1.402
68672W        W34152  32.422  33.428   3.275
68673W        W34153  36.066  16.305  12.451
68674W        W34154  13.767  32.055   2.387
68675W        W34155  17.772  35.402   2.219
68676W        W34156  30.621  27.174  13.033
68677W        W34157   2.351  17.758   1.430
68678W        W34158  30.975  37.475  14.789
68679W        W34159  20.261   1.406  12.984
68680W        W34160  37.913  42.501  12.038
68681W        W34161  32.037   9.203   4.674
68682W        W34162  42.899  38.374   4.330
68683W        W34163  30.419  24.225   1.425
68684W        W34164  25.050  33.058  11.983
68685W        W34165  26.580  40.489  12.924
68686W        W34166  32.072  28.094  11.119
68687W        W34167   7.730  32.537  13.035
68688W        W34168  33.407   3.912   0.777
68689W        W34169  22.131  38.426  10.606
68690W        W34170  26.081  35.510  14.332
68691W        W34171   0.319  28.957   4.205
68692W        W34172  15.789  30.079  11.529
68693W        W34173  23.572  38.928   0.243
68694W        W34174  23.733  44.791   1.419
68695W        W34175  20.253  12.743  14.008
68696W        W34176  26.519  40.368  14.916
68697W        W34177  16.216   5.292  10.977
68698W        W34178  17.702   0.266   2.876
68699W        W34179  18.253  37.893   3.291
68700W        W34180  15.197   7.744  13.534
68701W        W34181  14.218  29.968   2.865
68702W        W34182  21.750  16.620  14.501
68703W        W34183   3.316  30.568   0.938
68704W        W34184  38.409  29.581   3.770
68705W        W34185  37.434  13.811   4.838
68706W        W34186   7.836   5.794  12.956
68707W        W34187  24.979  26.553   1.239
68708W        W34188  41.939  13.699   4.246
68709W        W34189   2.885  28.167  13.404
68710W        W34190  21.020  19.173   0.415
68711W        W34191  13.119   3.915   0.932
68712W        W34192  34.510  23.031  10.613
68713W        W34193   7.732   7.836   4.140
68714W        W34194  40.404  20.182  11.510
68715W        W34195  10.208  10.762   2.821
68716W        W34196  18.571  30.530  10.915
68717W        W34197  34.420  18.613   2.854
68718W        W34198  19.538   2.262  13.026
68719W        W34199  30.542   1.441  14.795
68720W        W34200   6.752  20.194   1.742
68721W        W34201  44.440  42.402   1.854
68722W        W34202  44.398  30.525   4.291
68723W        W34203  41.502   8.165   4.831
68724W        W34204   1.944  33.542  13.992
68725W        W34205  42.354  27.058   0.727
68726W        W34206  24.564  33.037   4.337
68727W        W34207  23.692  25.209  13.988
68728W        W34208   5.927  27.472  11.076
68729W        W34209  14.746  28.088   9.982
68730W        W34210   5.787  32.001   1.439
68731W        W34211  38.890   8.837   3.212
68732W        W34212  13.236  20.752   0.750
68733W        W34213   2.345  37.997   1.374
68734W        W34214   2.439  17.120   4.610
68735W        W34215  23.034   1.923   4.145
68736W        W34216   0.939  12.169  12.508
68737W        W34217  19.765  21.098  12.917
68738W        W34218  44.000  44.308   0.901
68739W        W34219   3.401  41.505   3.858
68740W        W34220  37.507  30.125  13.811
68741W        W34221  11.190  10.165   2.238
68742W        W34222   8.219  35.040   3.821
68743W        W34223  24.516  32.402   2.256
68744W        W34224   8.257  16.627  14.411
68745W        W34225  39.990  37.998   0.357
68746W        W34226   8.839  31.594  11.496
68747W        W34227   1.771  41.962  10.988
68748W        W34228   1.850   4.329   2.275
68749W        W34229  18.279   7.801   3.168
68750W        W34230  19.620  25.632   2.768
68751W        W34231  14.765  15.684   1.323
68752W        W34232  26.153  38.843   0.450
68753W        W34233   2.889   7.885   1.793
68754W        W34234  22.099   9.664  12.442
68755W        W34235  22.647  24.092  12.831
68756W        W34236  15.170  21.612   1.784
68757W        W34237  26.147  40.903  13.050
68758W        W34238  23.115  29.030  12.420
68759W        W34239   7.310  15.760   2.356
68760W        W34240  22.131  15.230  10.999
68761W        W34241  15.173  26.457  11.396
68762W        W34242  19.684  16.125  12.864
68763W        W34243  10.818  11.217   4.605
68764W        W34244  40.978  15.086  11.053
68765W        W34245  14.281   9.761  11.476
68766W        W34246  10.186  13.237  12.058
68767W        W34247  33.626   2.769   2.286
68768W        W34248  22.059   4.447   1.877
68769W        W34249   9.691  35.547  11.556
68770W        W34250   3.230  36.942  11.097
68771W        W34251   1.768  20.669  11.412
68772W        W34252  38.978  32.009   2.689
68773W        W34253   4.893  34.422   1.909
68774W        W34254  43.335   3.750  12.983
68775W        W34255   0.826  32.540   1.755
68776W        W34256  16.702  32.506  10.539
68777W        W34257  22.162  18.138  13.307
68778W        W34258  24.692   3.735  13.846
68779W        W34259  40.369  18.764  13.837
68780W        W34260   7.759  29.085  10.593
68781W        W34261   4.933  24.607  14.995
68782W        W34262  10.171   5.832  11.957
68783W        W34263  40.530  16.201   2.255
68784W        W34264  18.626  20.663   1.404
68785W        W34265  41.810  40.533   1.920
68786W        W34266  40.411  24.482  11.473
68787W        W34267   0.333  33.126   3.647
68788W        W34268   4.797  17.167  14.357
68789W        W34269  42.795  34.564  10.941
68790W        W34270  23.524  37.551   0.808
68791W        W34271   7.775   0.864   0.301
68792W        W34272  33.474   6.803  12.907
68793W        W34273  31.498  11.200   4.297
68794W        W34274  27.562  38.368  12.464
68795W        W34275   0.766  38.453   2.368
68796W        W34276  29.051  21.098  10.071
68797W        W34277   2.335  31.561   3.790
68798W        W34278  38.917   6.327  12.844
68799W        W34279  35.890  25.092  13.941
68800W        W34280  37.504  22.010  14.410
68801W        W34281  22.616  34.017  12.027
68802W        W34282  28.183  20.035  11.565
68803W        W34283  23.098   8.732   0.839
68804W        W34284  35.931  33.071   4.698
68805W        W34285  29.005   8.405  11.513
68806W        W34286  37.008   5.211   3.284
68807W        W34287  39.061   4.349   4.253
68808W        W34288   0.323  42.525  13.798
68809W        W34289   7.812  39.905   1.444
68810W        W34290  20.762  41.418   2.811
68811W        W34291  41.522   0.425   2.292
68812W        W34292  12.664  35.461   2.352
68813W        W34293  31.910  27.068  11.913
68814W        W34294  30.523  15.743  11.963
68815W        W34295  30.610  10.796   3.802
68816W        W34296   6.905  39.486   4.312
68817W        W34297  40.967  21.092   5.143
68818W        W34298  35.920  36.479   4.712
68819W        W34299  35.921  11.728   1.272
68820W        W34300  42.343  36.385  11.978
68821W        W34301   2.811  14.285  12.092
68822W        W34302   6.266  19.639   4.687
68823W        W34303  39.446  11.276  13.379
68824W        W34304  13.144  18.659   0.268
68825W        W34305  10.819   4.897  13.426
68826W        W34306   5.808   8.827  12.538
68827W        W34307  36.057  13.635   0.444
68828W        W34308   3.348  26.506  10.105
68829W        W34309   9.217  30.104   0.931
68830W        W34310  15.658   4.924   0.953
68831W        W34311  26.591  41.833  13.523
68832W        W34312  44.278  39.381   4.656
68833W        W34313  33.996  26.689  12.931
68834W        W34314  37.491   0.339   4.225
68835W        W34315  27.525  30.571  12.905
68836W        W34316  18.237  16.208   3.825
68837W        W34317  38.026  26.472   1.836
68838W        W34318  39.947   2.304   0.268
68839W        W34319  22.665  16.586   4.259
68840W        W34320  38.526  21.101  14.950
68841W        W34321   6.372  18.052   0.743
68842W        W34322  12.772   1.327   3.719
68843W        W34323   4.736  24.555   4.766
68844W        W34324   5.300   0.450  14.869
68845W        W34325   7.698  29.629  11.003
68846W        W34326  22.223  10.263  14.473
68847W        W34327   6.263   2.921  10.554
68848W        W34328  41.879  12.149  14.959
68849W        W34329   3.765  28.165   0.731
68850W        W34330  32.604   0.749   2.305
68851W        W34331   5.240  34.009  12.027
68852W        W34332  24.004  42.308   0.771
68853W        W34333  38.548   7.397  10.927
68854W        W34334  35.492   2.325   4.262
68855W        W34335  23.195  11.323  13.019
68856W        W34336  41.503  25.484   4.683
68857W        W34337  16.129  27.177   0.373
68858W        W34338  15.775  22.033   1.699
68859W        W34339  37.991  12.341   1.762
68860W        W34340   5.778  38.345   0.400
68861W        W34341  25.554  26.694  12.956
68862W        W34342  41.375  11.659   0.468
68863W        W34343   7.377  10.199  11.065
68864W        W34344   9.753  14.198  14.852
68865W        W34345  11.220  38.863  12.379
68866W        W34346  39.884  13.642  14.972
68867W        W34347  35.017  27.118   2.859
68868W        W34348   4.231  20.034   3.705
68869W        W34349  16.131  28.472   3.148
68870W        W34350  10.182  38.421   4.352
68871W        W34351  18.638  15.676  13.847
68872W        W34352  40.422  36.504  11.874
68873W        W34353  42.364  11.218   4.757
68874W        W34354   9.337  25.151   2.867
68875W        W34355   2.943  39.035   4.663
68876W        W34356  15.319  35.434   3.772
68877W        W34357  18.745  33.521  10.498
68878W        W34358  34.946  24.176  14.464
68879W        W34359  18.118  30.435  12.988
68880W        W34360  25.613  29.170   0.966
68881W        W34361  42.493  36.842  13.813
68882W        W34362  36.504  36.080   1.906
68883W        W34363  16.635  17.710   1.807
68884W        W34364  34.914  14.143   1.224
68885W        W34365  21.543  30.048  13.332
68886W        W34366  27.141  12.849  11.100
68887W        W34367  27.675  22.513   1.773
68888W        W34368  23.553  38.349  14.939
68889W        W34369  17.625  21.519   4.244
68890W        W34370   8.794   3.221   5.186
68891W        W34371  34.962   7.316  12.833
68892W        W34372   9.888   9.801   1.219
68893W        W34373  21.088  29.993   0.902
68894W        W34374  22.201  11.755   0.949
68895W        W34375  22.503  44.370   1.321
68896W        W34376  20.244  13.625   4.188
68897W        W34377  40.364  19.145   1.811
68898W        W34378  43.446  39.053  10.053
68899W        W34379   4.445  36.381   3.773
68900W        W34380  28.529  30.516   0.743
68901W        W34381   4.294  18.727   2.781
68902W        W34382  31.416  34.480  14.905
68903W        W34383   8.304  19.097   3.851
68904W        W34384  26.613  25.042  11.912
68905W        W34385   2.952  35.438  13.026
68906W        W34386  24.690  28.479   0.398
68907W        W34387   2.821   7.283   3.214
68908W        W34388  29.438  14.095  11.982
68909W        W34389  20.057  11.868   0.361
68910W        W34390  10.225  26.586   1.854
68911W        W34391  19.219   1.429   1.792
68912W        W34392  22.068  36.996   1.754
68913W        W34393   4.767  20.529  11.377
68914W        W34394   8.880  40.303  11.496
68915W        W34395   1.975  39.351   1.258
68916W        W34396   6.695  44.313   0.852
68917W        W34397   5.728   7.831  12.453
68918W        W34398  39.906  30.481   0.282
68919W        W34399  16.567  33.605  13.979
68920W        W34400   0.874  20.170   0.471
68921W        W34401  15.149  11.635   3.738
68922W        W34402   8.755  16.203  12.043
68923W        W34403  26.176   6.875   4.168
68924W        W34404  44.010  16.127   2.700
68925W        W34405  32.610  32.514   3.376
68926W        W34406  32.627  13.143   4.245
68927W        W34407  38.902  26.978   4.780
68928W        W34408  33.969  38.030   1.741
68929W        W34409  27.671  12.728  11.107
68930W        W34410   9.194   2.306  13.894
68931W        W34411  24.548   6.363   2.888
68932W        W34412  12.166  11.280  11.612
68933W        W34413  35.466  24.712   1.298
68934W        W34414  11.229  44.858  13.425
68935W        W34415  18.718   0.373   3.334
68936W        W34416  10.150  14.700  13.427
68937W        W34417  23.137  32.583   4.655
68938W        W34418  10.248  33.427   4.213
68939W        W34419  32.080  40.319   0.387
68940W        W34420  26.628  19.579  11.570
68941W        W34421  36.897   4.281   1.346
68942W        W34422  41.829  17.257   3.256
68943W        W34423   4.377   4.258  10.618
68944W        W34424  13.778  30.040   1.436
68945W        W34425  15.810  23.598  11.475
68946W        W34426  11.737  11.847   3.642
68947W        W34427   1.779  28.487  14.814
68948W        W34428  19.777  24.186  14.333
68949W        W34429  10.688  21.178  13.432
68950W        W34430  10.341   3.773   0.956
68951W        W34431  36.544  10.372  12.078
68952W        W34432   7.387  41.961  11.437
68953W        W34433  44.923  41.332  12.438
68954W        W34434   6.883  12.765  12.920
68955W        W34435  41.342  26.535   3.293
68956W        W34436  41.818   8.358   3.297
68957W        W34437   7.801  38.820   1.369
68958W        W34438  12.187   4.846   4.661
68959W        W34439  19.770  42.974  11.029
68960W        W34440   0.985  19.087   3.195
68961W        W34441  34.425  17.098   0.375
68962W        W34442  32.601  38.910  13.896
68963W        W34443  18.774  22.725   2.671
68964W        W34444  16.072  10.770  14.990
68965W        W34445   6.247  31.551  12.565
68966W        W34446  43.381  12.314  13.512
68967W        W34447  25.650  31.024  12.546
68968W        W34448  22.112  33.979   3.843
68969W        W34449  43.353  24.054  10.422
68970W        W34450  17.226  12.686   3.656
68971W        W34451   3.765  39.840   3.813
68972W        W34452  26.119   9.683  10.541
68973W        W34453  34.103  19.732   2.378
68974W        W34454   9.743  41.368  10.603
68975W        W34455  37.528   6.752  12.926
68976W        W34456  16.261  36.049   4.763
68977W        W34457  41.831  12.697   3.767
68978W        W34458  36.084  15.309  13.037
68979W        W34459  24.022  29.943   2.722
68980W        W34460  19.167  15.657   3.208
68981W        W34461   1.748   7.775  12.374
68982W        W34462  14.822  21.243  11.543
68983W        W34463  29.658   9.678   3.303
68984W        W34464  42.786  30.439  13.848
68985W        W34465  20.659   9.270   0.968
68986W        W34466  23.064  34.050   2.203
68987W        W34467  43.496   0.911  10.478
68988W        W34468  29.925  29.049  11.921
68989W        W34469   2.407  31.620   3.352
68990W        W34470  36.863  39.409   0.470
68991W        W34471   1.880  14.243   0.280
68992W        W34472  18.221  42.971   3.164
68993W        W34473  43.409  36.425  13.308
68994W        W34474   8.180  14.230   1.380
68995W        W34475   4.289  17.183  13.487
68996W        W34476  36.541   8.328   4.815
68997W        W34477  14.272   7.732  11.595
68998W        W34478  35.087  12.665   3.793
68999W        W34479  14.632  28.627   4.255
69000W        W34480  38.828  23.215  14.378
69001W        W34481   3.266   4.311   4.680
69002W        W34482   8.241  37.929  14.382
69003W        W34483  22.603  17.774  10.528
69004W        W34484   1.453  33.491   1.776
69005W        W34485  37.053   1.743   0.326
69006W        W34486  38.010  34.108  11.919
69007W        W34487  20.675   5.858   0.458
69008W        W34488  32.546  29.150  10.966
69009W        W34489  17.777   2.275   0.772
69010W        W34490  21.208   1.374   2.874
69011W        W34491  36.033  43.279  14.802
69012W        W34492  37.002   8.324   3.166
69013W        W34493  27.082  18.153   0.908
69014W        W34494  18.763   8.712  10.906
69015W        W34495  34.479  11.259  10.633
69016W        W34496   1.387  32.424  12.922
69017W        W34497   0.971  24.584   0.874
69018W        W34498  34.878  43.414  11.994
69019W        W34499  35.934  42.020   3.203
69020W        W34500  28.000  14.757  11.064
69021W        W34501  19.079  39.986   2.676
69022W        W34502  29.490  33.435  10.442
69023W        W34503  35.004  31.074   2.338
69024W        W34504   5.797  18.742   0.337
69025W        W34505  33.617   5.230  14.857
69026W        W34506  10.167  25.480   1.396
69027W        W34507  35.387  11.290  13.839
69028W        W34508  23.114  40.519   3.863
69029W        W34509  33.500  15.109  12.568
69030W        W34510  17.081  20.086   0.949
69031W        W34511  40.808  26.505  11.947
69032W        W34512   6.757  26.524   2.390
69033W        W34513  14.163  19.662  11.612
69034W        W34514   0.271  19.605   4.145
69035W        W34515  33.508   9.857  10.120
69036W        W34516  18.153  18.260   4.300
69037W        W34517  36.579  33.886  13.400
69038W        W34518  18.656  20.095   0.806
69039W        W34519  13.159   1.964   2.809
69040W        W34520   8.890  31.588   3.354
69041W        W34521  43.888  20.232  14.484
69042W        W34522  24.637  24.709  12.928
69043W        W34523  35.054  31.935   1.833
69044W        W34524  36.981  22.672   3.659
69045W        W34525  44.383   3.883  12.500
69046W        W34526  26.590  19.674   2.696
69047W        W34527  10.243   5.747  11.106
69048W        W34528  37.379  37.455  14.407
69049W        W34529  13.134  32.889   3.172
69050W        W34530  29.149   2.839   0.439
69051W        W34531  39.998  25.030  13.859
69052W        W34532  11.668  43.501   4.330
69053W        W34533  12.747  16.803  13.371
69054W        W34534   5.882  21.575   0.897
69055W        W34535  31.014  17.710  12.465
69056W        W34536   9.831  37.021  12.024
69057W        W34537  32.533  31.941  12.497
69058W        W34538   9.786  28.009  13.812
69059W        W34539   6.323  42.992   9.936
69060W        W34540  15.277  27.637  12.541
69061W        W34541   7.812  24.046  11.075
69062W        W34542  10.173  40.006  14.293
69063W        W34543  33.975  20.170   3.759
69064W        W34544  24.067  43.989   2.863
69065W        W34545  16.147  32.028  11.895
69066W        W34546   9.318  20.737   4.119
69067W        W34547  16.717  28.656   2.865
69068W        W34548  16.604  17.582  11.037
69069W        W34549  33.558  13.193  13.927
69070W        W34550  31.095  41.347   0.853
69071W        W34551   5.701   5.768   2.210
69072W        W34552  22.718   4.744   3.779
69073W        W34553  38.478   3.303  13.889
69074W        W34554  16.318  10.189  13.428
69075W        W34555   9.254  42.881   0.461
69076W        W34556  14.790  25.594   0.955
69077W        W34557  26.140  39.845   0.348
69078W        W34558   6.728   8.253   2.326
69079W        W34559  29.440  37.522  10.925
69080W        W34560  31.067  20.156   1.226
69081W        W34561  25.006  18.617   0.852
69082W        W34562  21.565  30.571  14.951
69083W        W34563  44.392   9.202  12.050
69084W        W34564   1.734  33.979  12.358
69085W        W34565  15.815   0.969   2.187
69086W        W34566  43.499   4.268  12.034
69087W        W34567  35.540  28.588  14.435
69088W        W34568  35.883  18.204   1.842
69089W        W34569   9.847  28.989  14.403
69090W        W34570  22.518   5.836   9.921
69091W        W34571  43.516  20.610   0.252
69092W        W34572  41.990  32.105  12.391
69093W        W34573  16.255  17.254   0.294
69094W        W34574  21.727   3.717   1.922
69095W        W34575  41.986   5.314   0.438
69096W        W34576  36.866  41.868   1.812
69097W        W34577   1.340   3.264  14.345
69098W        W34578   9.809  31.984  11.579
69099W        W34579  23.993   9.322   0.397
69100W        W34580  38.535  39.473  12.456
69101W        W34581  31.037  17.580  14.353
69102W        W34582   0.838  15.291   1.713
69103W        W34583  14.150  40.988   1.243
69104W        W34584  15.651  31.558  12.373
69105W        W34585   7.885  25.689   3.653
69106W        W34586  12.208  30.414   2.269
69107W        W34587  39.009   1.445   2.208
69108W        W34588  42.910  37.006   2.343
69109W        W34589  18.550   2.237  13.868
69110W        W34590   5.407  28.591   3.862
69111W        W34591  38.849   4.823   3.853
69112W        W34592  15.128   3.827  11.077
69113W        W34593  39.853  30.120   4.774
69114W        W34594   1.483   5.423   4.228
69115W        W34595  14.675  43.020  10.073
69116W        W34596   1.332   7.176   0.953
69117W        W34597  36.940  36.899  14.416
69118W        W34598  37.887  12.827  10.901
69119W        W34599  22.533  13.240  11.601
69120W        W34600   2.963   2.458   4.319
69121W        W34601   7.708  14.320  10.576
69122W        W34602  40.864  25.529  14.281
69123W        W34603  24.677   1.906   4.122
69124W        W34604  18.292   8.713  13.799
69125W        W34605  26.674  30.524  13.012
69126W        W34606  28.620  11.302  10.953
69127W        W34607  34.408   0.425   2.388
69128W        W34608  16.100  28.681  14.808
69129W        W34609  10.784   9.294  12.874
69130W        W34610  22.502  10.846   2.329
69131W        W34611  24.603  20.088  11.070
69132W        W34612   0.806   2.853   2.698
69133W        W34613  25.571  27.112  12.075
69134W        W34614  14.740  28.115   1.787
69135W        W34615  31.627   5.851   3.862
69136W        W34616  27.617  28.642  12.066
69137W        W34617  33.924  39.021   0.915
69138W        W34618  15.612   4.726   1.368
69139W        W34619   7.772   7.190  12.053
69140W        W34620  24.581  16.172  12.062
69141W        W34621  27.643  10.695  10.606
69142W        W34622   2.471   3.443  10.100
69143W        W34623   9.776  41.336   0.439
69144W        W34624  12.774   9.852  10.434
69145W        W34625   3.361  36.896  13.410
69146W        W34626  16.597   3.929   3.635
69147W        W34627  16.277  13.666   0.782
69148W        W34628  27.640  32.589  13.904
69149W        W34629  21.242  37.942  12.026
69150W        W34630  17.267  33.897  14.031
69151W        W34631   0.253  36.895  14.276
69152W        W34632   5.754  20.085  10.517
69153W        W34633   6.416  18.665  10.927
69154W        W34634   3.413  32.487   1.827
69155W        W34635   9.392  23.223   0.482
69156W        W34636  40.861  35.495  13.982
69157W        W34637  28.010  39.027   3.271
69158W        W34638   7.837   0.446   0.769
69159W        W34639  43.514  19.045   1.909
69160W        W34640  44.328  14.094  12.441
69161W        W34641  31.137  22.733  10.534
69162W        W34642  43.772  44.389   0.320
69163W        W34643  33.887   3.399  14.863
69164W        W34644   1.786  20.161  12.371
69165W        W34645  27.976  36.906  12.515
69166W        W34646  14.691   7.414  10.644
69167W        W34647   4.824  41.946  13.875
69168W        W34648  37.410  17.142   1.894
69169W        W34649  28.081  19.053  14.799
69170W        W34650  14.270  14.295   3.731
69171W        W34651  26.689  18.120  14.835
69172W        W34652  28.155  33.006   2.219
69173W        W34653  27.084  11.682   0.736
69174W        W34654   7.260  44.485   0.250
69175W        W34655  35.875  43.503   2.178
69176W        W34656  40.377  23.662  12.933
69177W        W34657  22.606  33.107  11.992
69178W        W34658  30.933  16.127   0.756
69179W        W34659  19.209  22.509  14.417
69180W        W34660   9.883  18.676   3.768
69181W        W34661  41.900  18.778  13.379
69182W        W34662  34.875  20.088   2.208
69183W        W34663  41.834  43.905  11.565
69184W        W34664  38.388  34.396   0.436
69185W        W34665  13.110  13.763   3.270
69186W        W34666   8.397  36.497  12.412
69187W        W34667  30.476  16.719   2.328
69188W        W34668   3.326  24.100   5.151
69189W        W34669   2.253  40.376   1.287
69190W        W34670  22.590  30.579   2.745
69191W        W34671  38.906  40.538  13.502
69192W        W34672  12.696   9.385  14.867
69193W        W34673  44.477  28.447  10.892
69194W        W34674   6.244  25.653  12.084
69195W        W34675  11.277  35.449  13.813
69196W        W34676  39.023   0.828  12.890
69197W        W34677   6.362  34.924  10.032
69198W        W34678  36.347  40.018  14.905
69199W        W34679  40.467  22.233  14.482
69200W        W34680  29.572  34.936   4.670
69201W        W34681  37.338  43.281  11.944
69202W        W34682   2.807  32.951  12.053
69203W        W34683   4.206  29.618   3.249
69204W        W34684  24.532  24.692   0.446
69205W        W34685  23.595  25.630  13.312
69206W        W34686   5.818  22.680  12.446
69207W        W34687  38.407  10.376  12.996
69208W        W34688  17.784   2.965  13.496
69209W        W34689  13.221  28.000  13.417
69210W        W34690  38.535   9.761  12.846
69211W        W34691  19.734  11.285   1.262
69212W        W34692   0.447  23.586  14.025
69213W        W34693  31.061  39.533  13.908
69214W        W34694  15.765  30.618   0.349
69215W        W34695  29.425  12.716  10.417
69216W        W34696   0.467  44.946  11.027
69217W        W34697  36.433  44.462   0.301
69218W        W34698   5.729  32.894   4.786
69219W        W34699   6.816   0.767  12.435
69220W        W34700  35.104   9.201  10.601
69221W        W34701  34.891   8.368  13.803
69222W        W34702  24.560  38.862  11.877
69223W        W34703   1.402  43.318   2.323
69224W        W34704  39.557  21.607  11.383
69225W        W34705   8.297  20.069  12.897
69226W        W34706  30.637   8.876   4.719
69227W        W34707  31.436  37.941   0.318
69228W        W34708  43.484  23.985   4.836
69229W        W34709  42.367  19.729  11.948
69230W        W34710   3.714  33.975  11.017
69231W        W34711  42.299   5.298   2.900
69232W        W34712   7.315  11.360  13.061
69233W        W34713  11.135  37.082  10.999
69234W        W34714  31.960   0.955   2.253
69235W        W34715  13.730  14.253   2.738
69236W        W34716   6.291  21.633   3.651
69237W        W34717   2.847  26.995   2.782
69238W        W34718  29.159   3.781  12.903
69239W        W34719  30.467  21.544  12.951
69240W        W34720  20.540  32.525  11.000
69241W        W34721   2.733  20.072  11.032
69242W        W34722   7.675  15.135   3.185
69243W        W34723  33.047  36.067   0.451
69244W        W34724  30.437  22.656  14.924
69245W        W34725  11.835   3.289  11.607
69246W        W34726  19.738  19.774   1.341
69247W        W34727  31.634  33.625   1.281
69248W        W34728   5.775   4.900   2.726
69249W        W34729  32.098  22.055   2.398
69250W        W34730  33.052   5.779  12.497
69251W        W34731  38.458  15.729   1.261
69252W        W34732  23.084  17.206  12.874
69253W        W34733  29.003  28.025  10.542
69254W        W34734  29.478  39.891   1.400
69255W        W34735  43.983  30.986  12.004
69256W        W34736  12.257   5.773  10.454
69257W        W34737  30.988  31.638  13.465
69258W        W34738  43.796  30.512   3.752
69259W        W34739  44.865  38.479  13.371
69260W        W34740  14.263   0.945  13.372
69261W        W34741  44.488  22.694  13.320
69262W        W34742  42.855  10.148   3.672
69263W        W34743  18.706  30.606   4.746
69264W        W34744   1.239  13.157  12.889
69265W        W34745  29.526  40.800   0.379
69266W        W34746  38.552  21.234  10.584
69267W        W34747  41.466  34.468  13.822
69268W        W34748  31.029   5.730  12.384
69269W        W34749  17.276  35.028  12.951
69270W        W34750  24.210  34.079  12.012
69271W        W34751  15.733  30.098   3.643
69272W        W34752   5.774  33.416   0.784
69273W        W34753   5.722  40.813   2.749
69274W        W34754  25.514  13.147  14.328
69275W        W34755  11.295  44.006   3.212
69276W        W34756  31.953   7.842  11.465
69277W        W34757  43.981   3.942  14.388
69278W        W34758   3.455   0.344  11.061
69279W        W34759  24.670   9.811  13.321
69280W        W34760   7.673  34.441  10.513
69281W        W34761  34.973  25.495   3.862
69282W        W34762  23.604  19.225  10.635
69283W        W34763  10.726  14.735  14.823
69284W        W34764  19.228  29.477  12.054
69285W        W34765   0.276   2.775   4.273
69286W        W34766   2.234  38.047  14.374
69287W        W34767  17.266  19.214   0.767
69288W        W34768  35.939  34.381  14.926
69289W        W34769  10.690  19.143   4.836
69290W        W34770  20.606  40.404   3.326
69291W        W34771  17.624  12.197   1.342
69292W        W34772  26.002  20.137  11.866
69293W        W34773  22.044  35.590  14.985
69294W        W34774   5.801  22.098   1.383
69295W        W34775  12.820  26.158   2.233
69296W        W34776  38.073  44.502   4.248
69297W        W34777  28.676  41.529  11.890
69298W        W34778  20.573   1.976  13.024
69299W        W34779  21.679  40.525  12.954
69300W        W34780  22.029  31.574  12.025
69301W        W34781   1.351  29.578  11.429
69302W        W34782   7.675   1.427   1.726
69303W        W34783   0.948  38.031   0.328
69304W        W34784   7.791  12.311   0.844
69305W        W34785  32.031  22.154  12.448
69306W        W34786  16.188  39.396   0.767
69307W        W34787  21.567   4.393  13.370
69308W        W34788  21.712  41.003   2.697
69309W        W34789  15.660   0.907  13.475
69310W        W34790  23.503   6.709  11.927
69311W        W34791  11.810  35.582   2.233
69312W        W34792  21.081  29.973   4.196
69313W        W34793   1.818  24.225  11.945
69314W        W34794  17.239  23.141   2.767
69315W        W34795  40.889  16.606  10.078
69316W        W34796  12.222   6.851  11.519
69317W        W34797  40.878  25.509  11.979
69318W        W34798  25.612   6.733   3.671
69319W        W34799  43.506  15.124   0.957
69320W        W34800  20.190   8.305   3.686
69321W        W34801  44.341  18.773   9.989
69322W        W34802   8.889   1.835   0.966
69323W        W34803  22.641  19.581  12.991
69324W        W34804  25.595  33.387   5.291
69325W        W34805  38.325  11.301  14.457
69326W        W34806  13.314  40.050   0.451
69327W        W34807  43.006  39.996  11.469
69328W        W34808  35.393  22.207   3.747
69329W        W34809  43.293  10.811   3.676
69330W        W34810  32.124  43.918  12.938
69331W        W34811  19.743  19.589  11.965
69332W        W34812  19.168  34.436   3.200
69333W        W34813  13.674  36.030  14.369
69334W        W34814  33.974  14.654   3.715
69335W        W34815   5.885  42.371   0.283
69336W        W34816  22.057  31.127  10.446
69337W        W34817  27.569   8.300  10.509
69338W        W34818  41.888  37.936  13.479
69339W        W34819  27.631  40.483  14.945
69340W        W34820  10.140  37.017  12.578
69341W        W34821  27.073  14.818  13.964
69342W        W34822  30.547  34.477   1.783
69343W        W34823  42.810  30.030  14.999
69344W        W34824  10.640  37.962  12.572
69345W        W34825  30.076   7.767   0.729
69346W        W34826   7.820  11.666   5.106
69347W        W34827  13.826   0.838   0.737
69348W        W34828  14.201  26.180  11.079
69349W        W34829   6.895  41.314   1.707
69350W        W34830  13.129  30.136  11.113
69351W        W34831  13.642  15.808  14.787
69352W        W34832   2.831   8.167  14.958
69353W        W34833  37.341  23.513   3.712
69354W        W34834  18.566  38.475   0.370
69355W        W34835  10.293  41.880  12.956
69356W        W34836  31.435  34.873  12.546
69357W        W34837  22.018  26.652   0.801
69358W        W34838  22.560  35.551   0.462
69359W        W34839  25.596  40.831   2.833
69360W        W34840  17.760   0.383   3.746
69361W        W34841   0.896   7.698   9.953
69362W        W34842  16.134  18.687   2.885
69363W        W34843  33.489  40.481   0.383
69364W        W34844  30.474  25.520   3.177
69365W        W34845  31.089  20.604  14.414
69366W        W34846  36.506  16.628  14.941
69367W        W34847  21.066  25.548  12.385
69368W        W34848  30.040   2.755  12.065
69369W        W34849  44.497   5.239   0.877
69370W        W34850  42.348  30.908   4.319
69371W        W34851  26.631  13.135  11.502
69372W        W34852  12.815  36.895  13.355
69373W        W34853  18.295  37.917   4.296
69374W        W34854  43.283  17.741  13.325
69375W        W34855   2.731   9.715  11.043
69376W        W34856  25.484   0.859   0.925
69377W        W34857  41.887  41.813   4.242
69378W        W34858  31.107  19.277  14.952
69379W        W34859  15.694  33.546   9.641
69380W        W34860  25.195  23.093  11.992
69381W        W34861  25.187  22.592  14.487
69382W        W34862  40.502  16.225   0.805
69383W        W34863  19.564  12.810  13.005
69384W        W34864  29.173  20.087   1.818
69385W        W34865   6.291  33.548   5.182
69386W        W34866  14.134  31.551  10.901
69387W        W34867  40.478  25.586   4.130
69388W        W34868  21.721  20.204  14.770
69389W        W34869   9.736  32.445  13.439
69390W        W34870  19.184   9.716  13.438
69391W        W34871  27.101  23.660   3.743
69392W        W34872  32.569   5.306   4.607
69393W        W34873  28.050  28.960   4.783
69394W        W34874  40.859   8.370   4.176
69395W        W34875   1.958   7.700   0.263
69396W        W34876   2.424  43.470   3.737
69397W        W34877  37.072  32.599  11.103
69398W        W34878  44.767  44.913   0.432
69399W        W34879  28.022  25.544  12.863
69400W        W34880  18.656   9.787   4.342
69401W        W34881  26.501  15.307   2.312
69402W        W34882  41.001  12.123  14.407
69403W        W34883   5.351  10.330  13.433
69404W        W34884  39.492  29.022   0.320
69405W        W34885   7.384  15.736   0.894
69406W        W34886  34.488   0.295   4.313
69407W        W34887  14.738   6.853   4.283
69408W        W34888  20.172  23.026  10.931
69409W        W34889  43.816  17.068   2.347
69410W        W34890  27.035  23.027   2.674
69411W        W34891  13.787   1.756  14.926
69412W        W34892  11.733   0.969  13.350
69413W        W34893  17.694   4.845  11.460
69414W        W34894   0.763  43.990   2.831
69415W        W34895  23.549   6.803   1.703
69416W        W34896  19.620  12.213   0.922
69417W        W34897  38.068  31.487   4.148
69418W        W34898   4.262   3.405  13.473
69419W        W34899  12.805   3.293   4.146
69420W        W34900  23.052  36.056   0.952
69421W        W34901  43.455  36.466  11.026
69422W        W34902  18.239  14.273   3.367
69423W        W34903  27.658  27.116   0.359
69424W        W34904  29.104  40.521  11.897
69425W        W34905   7.412   8.866  10.552
69426W        W34906  13.782   7.879  10.553
69427W        W34907  31.640   1.775  14.921
69428W        W34908   0.290  29.528   0.464
69429W        W34909  35.876  41.335  10.499
69430W        W34910  27.969  42.390   4.141
69431W        W34911  25.655   5.716  10.917
69432W        W34912   7.760  11.731  12.553
69433W        W34913  35.530  33.093  11.036
69434W        W34914  42.944  38.867  12.075
69435W        W34915  12.245   7.898  10.888
69436W        W34916  27.996  36.877   2.763
69437W        W34917  40.489  24.489  13.521
69438W        W34918  35.404   8.335  13.392
69439W        W34919   1.404  29.092  13.978
69440W        W34920   9.843  18.252  11.534
69441W        W34921  11.126  21.252  11.040
69442W        W34922  11.814   2.417   4.200
69443W        W34923   5.203  13.282   1.751
69444W        W34924  38.428  42.976   1.390
69445W        W34925  25.024   6.799   3.786
69446W        W34926  27.592  32.615  14.493
69447W        W34927  19.616  31.606   0.833
69448W        W34928   9.181   3.409  11.052
69449W        W34929  40.428  25.169   0.932
69450W        W34930   0.489  40.911   0.826
69451W        W34931  34.459  34.066  11.125
69452W        W34932  37.490  29.617   2.355
69453W        W34933   9.655  38.535  13.910
69454W        W34934   1.421   6.384  12.555
69455W        W34935  32.499  28.484  12.417
69456W        W34936  26.092  18.161  13.488
69457W        W34937  20.633  34.993  13.018
69458W        W34938  19.590  17.251  12.465
69459W        W34939  40.348   1.305   2.221
69460W        W34940   2.874  16.105   1.700
69461W        W34941  23.000  14.202   3.320
69462W        W34942   8.267  36.491  11.587
69463W        W34943  26.685  14.113  11.483
69464W        W34944  24.095  22.174   2.819
69465W        W34945  10.680  36.930  13.052
69466W        W34946  12.274  31.072  14.841
69467W        W34947  16.724   7.776  14.362
69468W        W34948   2.471  22.008   4.671
69469W        W34949  42.487  20.216  10.015
69470W        W34950   9.231  34.117  13.837
69471W        W34951  23.551  26.078  12.911
69472W        W34952  11.770  40.906   2.351
69473W        W34953   7.735   1.949   2.361
69474W        W34954   7.173   8.738  11.125
69475W        W34955   9.334  44.428  13.372
69476W        W34956  23.222  34.392   0.465
69477W        W34957   5.928   9.884  11.922
69478W        W34958  37.036   1.782  13.476
69479W        W34959   2.444  26.580  10.889
69480W        W34960   2.898  22.044   0.793
69481W        W34961   0.815  39.965  13.857
69482W        W34962  37.936  18.102  14.486
69483W        W34963  42.420   2.748  10.594
69484W        W34964   8.866  34.431   3.236
69485W        W34965   8.698  35.418   1.701
69486W        W34966   7.176  14.310  14.304
69487W        W34967  21.050  33.567  12.455
69488W        W34968  31.056  35.058  14.497
69489W        W34969  14.279   6.384  11.402
69490W        W34970  44.891  24.719   0.390
69491W        W34971  31.902  15.625   0.826
69492W        W34972  33.470  40.358   1.354
69493W        W34973   0.303  34.979   4.607
69494W        W34974  43.912  15.801   4.194
69495W        W34975  39.496  18.146  11.870
69496W        W34976   0.776   9.290   1.858
69497W        W34977  37.038   2.864  14.462
69498W        W34978   8.895   2.871   4.648
69499W        W34979  44.368  19.603  10.940
69500W        W34980   9.387  41.796   2.201
69501W        W34981  38.014  41.507  11.960
69502W        W34982  11.267  28.104  13.503
69503W        W34983  11.772  40.935   3.755
69504W        W34984  30.611  42.448  11.375
69505W        W34985  25.604   8.779  13.389
69506W        W34986   7.828  22.704   2.760
69507W        W34987   8.837  13.699  11.940
69508W        W34988  20.557   1.817  13.327
69509W        W34989  40.857   8.231   3.776
69510W        W34990  43.990  12.611   2.340
69511W        W34991  10.381  23.531  13.834
69512W        W34992   7.363  39.931   2.805
69513W        W34993  26.532  27.580   1.370
69514W        W34994  13.343  19.278  11.465
69515W        W34995  15.820  10.376  11.875
69516W        W34996  23.610  36.904  11.441
69517W        W34997  44.874  43.375   4.692
69518W        W34998  19.110  12.355   4.687
69519W        W34999  40.847  22.206  12.419
69520W        W35000   6.766  34.405  13.405
69521W        W35001   2.936  35.952   1.277
69522W        W35002  22.601  23.117  14.897
69523W        W35003  25.521  13.819  12.534
69524W        W35004  28.664  16.692   3.808
69525W        W35005  28.458  34.937   3.748
69526W        W35006   5.400  42.458  12.522
69527W        W35007  13.839  43.319   2.212
69528W        W35008  44.828  41.372  10.906
69529W        W35009   9.370  22.654  11.007
69530W        W35010  38.882  13.632   1.301
69531W        W35011  25.007  42.900   0.857
69532W        W35012  40.915   0.365  12.345
69533W        W35013   2.862  11.772  14.787
69534W        W35014  23.603   1.378  10.505
69535W        W35015  20.686  20.743   4.287
69536W        W35016  31.449  15.744   2.848
69537W        W35017  23.705  16.752  12.989
69538W        W35018  24.596  18.086  12.899
69539W        W35019  35.556  17.673   0.419
69540W        W35020  29.519  18.243  14.279
69541W        W35021  18.129  29.529   3.719
69542W        W35022  24.523  27.445  14.284
69543W        W35023   4.766   1.408  14.984
69544W        W35024  33.587  17.699   3.238
69545W        W35025  40.830  22.057  14.380
69546W        W35026  18.673  26.667  14.370
69547W        W35027  44.466  30.008   2.288
69548W        W35028  37.911  33.560  13.497
69549W        W35029  36.050   7.368  10.986
69550W        W35030   2.412  26.131  11.972
69551W        W35031  28.015  20.200  10.928
69552W        W35032  30.963   9.828   4.772
69553W        W35033   9.324  41.967   4.824
69554W        W35034  23.561  28.043  11.498
69555W        W35035   2.935  38.877   3.344
69556W        W35036  35.435   8.722   2.353
69557W        W35037   9.173  30.578   1.308
69558W        W35038  41.470   1.877   0.855
69559W        W35039  22.652  17.561   0.293
69560W        W35040  36.859   7.888  14.865
69561W        W35041   3.389  10.705   2.268
69562W        W35042  16.303  35.042  13.854
69563W        W35043  18.606  29.549   1.307
69564W        W35044  22.197  15.230   4.838
69565W        W35045  11.329  12.755  14.981
69566W        W35046  43.883  23.104  10.573
69567W        W35047  12.287   5.822  11.535
69568W        W35048  41.827   9.388  11.552
69569W        W35049  22.225   5.918   2.902
69570W        W35050  44.420  15.649   3.385
69571W        W35051  36.014  21.696  14.907
69572W        W35052  44.884  26.572  14.803
69573W        W35053  22.208  43.306  11.493
69574W        W35054   0.321  16.773   1.420
69575W        W35055  32.135  11.170   0.837
69576W        W35056  41.373   5.423  10.407
69577W        W35057   2.818  26.564  10.604
69578W        W35058  41.337   1.332  13.970
69579W        W35059  20.526  33.923  14.870
69580W        W35060   8.797  14.267   1.263
69581W        W35061  26.156  32.129   4.325
69582W        W35062  20.541  44.291   3.189
69583W        W35063  35.535  12.249  12.550
69584W        W35064  39.431  42.437   3.793
69585W        W35065  13.351  44.468   0.764
69586W        W35066  32.442  10.691   0.900
69587W        W35067  22.718  40.424   5.203
69588W        W35068  23.611   2.782   3.161
69589W        W35069   1.292  25.679   4.815
69590W        W35070  31.609  18.560   2.829
69591W        W35071  18.195  28.165  14.341
69592W        W35072  12.193  42.478   0.327
69593W        W35073   0.324   3.935   3.257
69594W        W35074  10.634  29.650  11.987
69595W        W35075  36.973  10.730   4.657
69596W        W35076  30.048   5.862   2.215
69597W        W35077  16.714   6.223   0.952
69598W        W35078   8.276  30.618   3.183
69599W        W35079  42.950  25.219   2.302
69600W        W35080   6.744  10.222  12.090
69601W        W35081  21.067  10.743   0.366
69602W        W35082  16.760   3.264  11.600
69603W        W35083  29.028  34.999   4.300
69604W        W35084  43.783   4.327  12.579
69605W        W35085  23.071  20.055   2.844
69606W        W35086  20.121  22.591   2.792
69607W        W35087  41.401  24.093   1.896
69608W        W35088  25.980  19.628  14.421
69609W        W35089   3.814  37.528   2.257
69610W        W35090   9.299  19.212  12.468
69611W        W35091  23.666  42.978  14.806
69612W        W35092  29.541   6.279  10.623
69613W        W35093  16.703  30.634   2.368
69614W        W35094  20.599   5.907   1.917
69615W        W35095   7.713  41.894   0.311
69616W        W35096  40.492   3.801   4.342
69617W        W35097  15.280  36.458   0.433
69618W        W35098  25.110   9.225  11.950
69619W        W35099   3.278  19.606  11.986
69620W        W35100   5.412   9.728  13.487
69621W        W35101  43.299  25.098   0.483
69622W        W35102   6.240  20.095  13.507
69623W        W35103   5.244  33.054  14.300
69624W        W35104   2.758  36.471  13.531
69625W        W35105  19.772  33.984   3.811
69626W        W35106  40.022  33.910  12.469
69627W        W35107  39.406  18.127   3.719
69628W        W35108  20.139  18.609  14.289
69629W        W35109   2.805  38.565   3.354
69630W        W35110   6.873  18.780   0.367
69631W        W35111  28.966  26.686   1.434
69632W        W35112   9.212  15.203  13.960
69633W        W35113  43.326  23.057  11.948
69634W        W35114  16.268  44.893  14.386
69635W        W35115   0.811   0.866   4.322
69636W        W35116  26.106   4.216   4.687
69637W        W35117  30.157  28.655   4.609
69638W        W35118  23.077  19.688   0.955
69639W        W35119  10.718  41.316  11.382
69640W        W35120   9.196  27.988  11.945
69641W        W35121  34.051  42.452  13.388
69642W        W35122  44.376  34.892  11.987
69643W        W35123  32.016  36.535   3.229
69644W        W35124  41.954  23.062   0.746
69645W        W35125  12.825  31.447  14.975
69646W        W35126  31.130  13.796  12.000
69647W        W35127  31.572  13.628   3.215
69648W        W35128  41.388  41.380   2.664
69649W        W35129  41.032  14.259   2.743
69650W        W35130   5.922  22.143   0.443
69651W        W35131  18.276  32.478  14.479
69652W        W35132  35.894  43.291   3.768
69653W        W35133  24.184  25.982  14.992
69654W        W35134   3.861  44.486  14.314
69655W        W35135  33.608  13.178   3.232
69656W        W35136   7.409  17.085  12.339
69657W        W35137  15.295  24.087  13.011
69658W        W35138  34.907   3.263  12.059
69659W        W35139  28.016  28.598  12.523
69660W        W35140  23.717  10.749   3.351
69661W        W35141  19.196  21.634  11.885
69662W        W35142  34.558  18.665  12.858
69663W        W35143  40.952  17.611  14.326
69664W        W35144  22.680  34.076   1.264
69665W        W35145  11.271  11.271  11.993
69666W        W35146  39.822  44.351  14.347
69667W        W35147  28.434  30.429   2.417
69668W        W35148  26.617  32.402  10.517
69669W        W35149   8.221  15.225  14.460
69670W        W35150   6.804  41.936  12.055
69671W        W35151  36.960  15.092   3.220
69672W        W35152  43.924  23.497   3.707
69673W        W35153   1.793  23.998   4.179
69674W        W35154  28.147  10.273   0.299
69675W        W35155  38.933  34.987  11.030
69676W        W35156  32.618  24.501   0.414
69677W        W35157  17.615   3.797   1.930
69678W        W35158  13.803  39.831   5.232
69679W        W35159  15.152  33.537  12.349
69680W        W35160  22.700   9.887   0.329
69681W        W35161  24.651  44.313  14.290
69682W        W35162   6.275  40.959   1.411
69683W        W35163   8.319  36.864   4.752
69684W        W35164  41.512  26.611  11.423
69685W        W35165   2.848   9.222   1.776
69686W        W35166  44.422  10.836   2.208
69687W        W35167  31.952   7.416  13.891
69688W        W35168   4.275  30.476   4.350
69689W        W35169   0.976  12.359   0.875
69690W        W35170  16.784  27.654   2.817
69691W        W35171  42.993  29.473  13.352
69692W        W35172  38.949  17.627   3.186
69693W        W35173   8.761  39.020  14.826
69694W        W35174  37.471  37.875   0.473
69695W        W35175  39.528  10.197   1.410
69696W        W35176  26.971  14.613   3.259
69697W        W35177  19.155  30.970   1.855
69698W        W35178  39.037  34.501  12.085
69699W        W35179  37.382  16.688  10.505
69700W        W35180  36.355   5.243  10.925
69701W        W35181   4.859  37.383  14.507
69702W        W35182  16.177  15.138   2.293
69703W        W35183  26.602  43.346  14.017
69704W        W35184  11.175  14.182   4.631
69705W        W35185  24.120   4.732  13.513
69706W        W35186   2.795  17.707   3.735
69707W        W35187  31.621  42.965  13.352
69708W        W35188  15.823   2.817   0.314
69709W        W35189  43.921  34.100  14.832
69710W        W35190  21.550  16.287  10.611
69711W        W35191   5.767  25.112   3.176
69712W        W35192  40.411   3.913   5.802
69713W        W35193  13.624   7.312   0.473
69714W        W35194  33.057   5.873   1.388
69715W        W35195   4.700  38.841   0.849
69716W        W35196  24.004  37.083  10.552
69717W        W35197   6.428  30.146  14.909
69718W        W35198  23.055  21.741   4.770
69719W        W35199  13.674  22.251  11.588
69720W        W35200  34.521  36.543  14.018
69721W        W35201  14.712  41.838   2.739
69722W        W35202   3.319  35.052   5.783
69723W        W35203   2.923   9.778   1.905
69724W        W35204  30.438  13.637  10.996
69725W        W35205  43.940  35.418   4.615
69726W        W35206  11.135  24.491  10.553
69727W        W35207   5.268  41.451   0.304
69728W        W35208   8.245   7.175   3.712
69729W        W35209  15.669   0.989  14.007
69730W        W35210  15.316   1.848  14.365
69731W        W35211  22.080   3.927  12.068
69732W        W35212   0.794   9.375   2.885
69733W        W35213  40.848  25.024   0.755
69734W        W35214  13.751   8.312   2.771
69735W        W35215  34.915   4.263  14.423
69736W        W35216  41.413  23.213   2.723
69737W        W35217  36.973  18.703   2.204
69738W        W35218   7.761   0.754  12.572
69739W        W35219  34.961  34.033  12.005
69740W        W35220  10.813   2.458   0.823
69741W        W35221  12.634  21.021   0.265
69742W        W35222  13.180  21.075   3.827
69743W        W35223  17.774  26.514  12.940
69744W        W35224  33.458  42.864  13.904
69745W        W35225  21.240  43.967  11.012
69746W        W35226  11.242  24.025   4.316
69747W        W35227  36.922  25.033  13.468
69748W        W35228  10.364   0.824  11.497
69749W        W35229  29.602  23.159   1.428
69750W        W35230  31.500   7.317   3.325
69751W        W35231   7.796  11.868  12.859
69752W        W35232  13.241  17.742  11.407
69753W        W35233   7.894   5.262   1.837
69754W        W35234  15.306  30.146  11.897
69755W        W35235  13.346  39.952  12.826
69756W        W35236  13.331   6.747  13.831
69757W        W35237  15.773   3.331  11.521
69758W        W35238  14.633  30.918  11.571
69759W        W35239  31.529  30.500  14.293
69760W        W35240  15.760  32.075  13.022
69761W        W35241  34.380  29.568   4.812
69762W        W35242   1.902  36.470   3.730
69763W        W35243  11.800  32.935  13.801
69764W        W35244  43.908   4.878   0.936
69765W        W35245   4.734  24.141   2.664
69766W        W35246  27.033  15.117   0.329
69767W        W35247  18.570   4.334  14.890
69768W        W35248  32.998  20.540   3.830
69769W        W35249  12.239  42.791   0.944
69770W        W35250   9.827  21.625   2.768
69771W        W35251  34.604  28.551  13.804
69772W        W35252   0.948  14.289  12.373
69773W        W35253  27.596   4.873  14.939
69774W        W35254  24.561   4.429   0.308
69775W        W35255  26.653  38.846   2.307
69776W        W35256  40.408  37.023  10.531
69777W        W35257   2.807  32.413   1.695
69778W        W35258  17.127  16.696  13.910
69779W        W35259  10.780   3.381   4.158
69780W        W35260  14.660   2.450   0.894
69781W        W35261   0.475   9.343  11.478
69782W        W35262  16.657  44.306  10.919
69783W        W35263  12.734  26.469  14.808
69784W        W35264  40.351  39.828  14.015
69785W        W35265  11.833  22.096  14.397
69786W        W35266  38.404  29.587   4.750
69787W        W35267  33.497  33.440   0.848
69788W        W35268  31.097  21.203   1.730
69789W        W35269  20.548  28.658   3.322
69790W        W35270   1.243  35.414   2.386
69791W        W35271   7.340  21.601   2.370
69792W        W35272   1.943   1.241  14.338
69793W        W35273  14.118  34.936   2.336
69794W        W35274  18.705  19.277   2.334
69795W        W35275  22.551  30.418  10.043
69796W        W35276  29.175  29.531   2.667
69797W        W35277  35.453   5.827   2.234
69798W        W35278  12.771   7.285  14.799
69799W        W35279  28.052  14.158  13.493
69800W        W35280   2.839   8.233  13.369
69801W        W35281  10.868   8.683   3.229
69802W        W35282  16.665  37.024   3.260
69803W        W35283  31.095   7.363   4.118
69804W        W35284  32.024  17.279  10.415
69805W        W35285   8.893  37.989   1.362
69806W        W35286  39.848  14.658  12.823
69807W        W35287  18.783   7.328  14.900
69808W        W35288   1.834  29.993  13.882
69809W        W35289  43.350   2.962   5.316
69810W        W35290  38.890   7.784  13.448
69811W        W35291  31.134  36.479   1.809
69812W        W35292   3.932  26.587   3.293
69813W        W35293   5.833  35.460  14.412
69814W        W35294  20.686   0.292   0.811
69815W        W35295  34.374  40.800  12.522
69816W        W35296  44.503   8.259   0.260
69817W        W35297  38.029  10.831   3.336
69818W        W35298  21.732  37.384   0.964
69819W        W35299  15.617  11.339   2.755
69820W        W35300   1.238  40.304  10.441
69821W        W35301  12.829  16.640   1.364
69822W        W35302  16.220  16.163  11.492
69823W        W35303  22.094  33.445  11.604
69824W        W35304  37.519  23.639  11.103
69825W        W35305  37.005  34.581   1.381
69826W        W35306  34.535  23.563   1.806
69827W        W35307  35.425  11.835   0.364
69828W        W35308   3.434   0.826   2.393
69829W        W35309   5.828  10.210  12.523
69830W        W35310   9.865   3.746   3.338
69831W        W35311  35.108   1.974  11.474
69832W        W35312   2.861  32.625  11.439
69833W        W35313  31.409   3.948   4.225
69834W        W35314   1.865  23.103  11.471
69835W        W35315  29.633  35.434   2.407
69836W        W35316  12.322   9.327   3.667
69837W        W35317  42.914   9.750   3.847
69838W        W35318   1.415  11.237   0.261
69839W        W35319  38.965   6.210  14.855
69840W        W35320  35.955   2.454  14.992
69841W        W35321  22.717  11.300   3.779
69842W        W35322  15.810  38.987  10.449
69843W        W35323  22.086  43.991   1.767
69844W        W35324  15.708  12.335  11.082
69845W        W35325   8.366   4.928  12.883
69846W        W35326   1.322   4.346   3.257
69847W        W35327  16.254  15.226   0.262
69848W        W35328  12.286   3.893  13.499
69849W        W35329   9.853  25.078   2.856
69850W        W35330  14.152  31.532   3.839
69851W        W35331   3.309  14.252  11.868
69852W        W35332   1.273  20.697  11.059
69853W        W35333   2.448  26.199   3.304
69854W        W35334   6.322  19.084   4.698
69855W        W35335  42.818  31.615   3.172
69856W        W35336   0.467  35.964   2.743
69857W        W35337  15.106  13.251  14.930
69858W        W35338   8.350  26.993  14.451
69859W        W35339  34.863  33.109   1.333
69860W        W35340  35.060  44.868  13.876
69861W        W35341  39.005  21.665  14.919
69862W        W35342  27.963   9.286  14.000
69863W        W35343  42.470  44.294  12.848
69864W        W35344  29.506   5.787  11.857
69865W        W35345   1.838  18.657  13.465
69866W        W35346   6.791  31.977   3.195
69867W        W35347  12.648  25.514  13.866
69868W        W35348  20.631   7.211   3.741
69869W        W35349  16.567  28.112  11.109
69870W        W35350  19.215  14.598  10.909
69871W        W35351  31.559  34.017   3.799
69872W        W35352  13.226  14.185  12.067
69873W        W35353  13.138   8.836   4.236
69874W        W35354  17.631  38.463   4.804
69875W        W35355  38.936  32.471  12.500
69876W        W35356  41.391  30.485   4.739
69877W        W35357  11.342  22.515   4.146
69878W        W35358  13.674  31.036  11.551
69879W        W35359   0.920  11.318  14.782
69880W        W35360  16.140  24.035  14.827
69881W        W35361  39.059   0.282   0.386
69882W        W35362  19.145  37.946   4.826
69883W        W35363  28.451  32.891   2.320
69884W        W35364  43.417  23.597  14.998
69885W        W35365   0.289   6.203  11.546
69886W        W35366  41.403  24.648   0.301
69887W        W35367  18.686  22.171  11.414
69888W        W35368  19.198  21.648   0.273
69889W        W35369  44.926   4.732   4.299
69890W        W35370  11.688  14.198   4.151
69891W        W35371  26.046   8.834   1.890
69892W        W35372  27.041  39.909   5.221
69893W        W35373  24.526  26.049  14.458
69894W        W35374   4.803  13.783   3.635
69895W        W35375  29.661  21.251  11.406
69896W        W35376  33.535  36.582  13.820
69897W        W35377  26.678   6.219  14.916
69898W        W35378   5.303  14.635  13.882
69899W        W35379   8.842  32.518  13.974
69900W        W35380   0.482   5.843   0.879
69901W        W35381   4.283   8.343   2.241
69902W        W35382  21.212  21.713   3.185
69903W        W35383  39.847  39.503   1.405
69904W        W35384  43.475  21.073   4.645
69905W        W35385  44.926   6.411   4.296
69906W        W35386  23.699  36.872  11.907
69907W        W35387   7.832  33.981  10.497
69908W        W35388  21.525  33.903   1.708
69909W        W35389   6.223  14.323   5.196
69910W        W35390  13.838   6.224   3.684
69911W        W35391  21.165  10.254   4.353
69912W        W35392   2.448  40.916  10.531
69913W        W35393  30.548  18.697   0.740
69914W        W35394  14.284  44.882   1.277
69915W        W35395  41.938   6.791  13.051
69916W        W35396  34.538   5.280  12.866
69917W        W35397   1.918   2.906  13.918
69918W        W35398  37.546   6.723  12.419
69919W        W35399  21.083  28.997   3.655
69920W        W35400   0.267  18.580   0.406
69921W        W35401  34.012  11.754   4.254
69922W        W35402   7.766  40.978   1.798
69923W        W35403  42.494  22.514  12.409
69924W        W35404  17.090  13.820  14.810
69925W        W35405  17.230  20.234  11.395
69926W        W35406  28.126  13.669   3.642
69927W        W35407  18.658  38.483   2.784
69928W        W35408  38.024  27.103   0.294
69929W        W35409  22.057  43.908  11.874
69930W        W35410  39.320  39.027  14.993
69931W        W35411   0.832  27.638   1.786
69932W        W35412  36.425  44.859  13.399
69933W        W35413  12.134   0.962   4.682
69934W        W35414  30.054  38.417  14.861
69935W        W35415  41.034   6.896  14.439
69936W        W35416  29.131   5.786   4.354
69937W        W35417  24.035  26.154  12.432
69938W        W35418  37.831  35.438  13.321
69939W        W35419  25.655  17.576   2.742
69940W        W35420  36.543  23.625   3.243
69941W        W35421   0.395  15.248   0.762
69942W        W35422   4.324  30.084  14.494
69943W        W35423   1.955  32.555  14.859
69944W        W35424  13.221  14.240   5.095
69945W        W35425   9.812  31.922   1.826
69946W        W35426  43.382  15.797  11.977
69947W        W35427  32.980   4.732  14.819
69948W        W35428  10.673  24.177   4.136
69949W        W35429  44.315  43.427   3.675
69950W        W35430  24.107  22.667  10.458
69951W        W35431  36.521  25.592   3.849
69952W        W35432  44.430  42.501   1.318
69953W        W35433  23.233  42.815  11.418
69954W        W35434  14.336  11.373   0.425
69955W        W35435  21.156   9.372   1.265
69956W        W35436  21.208  21.130   1.713
69957W        W35437   3.760  31.451   3.673
69958W        W35438   6.848   8.754  12.529
69959W        W35439  29.098   5.898   2.709
69960W        W35440   1.947  44.286  12.063
69961W        W35441   2.465  20.696   3.809
69962W        W35442  22.216  42.363  12.844
69963W        W35443  23.571  15.663  12.976
69964W        W35444  22.216  44.987   0.821
69965W        W35445   1.957  35.943   1.845
69966W        W35446  16.711  22.195   3.854
69967W        W35447  25.200   5.931   4.275
69968W        W35448   9.885  26.690   1.437
69969W        W35449  22.578   7.673   1.411
69970W        W35450  26.623  39.983  10.506
69971W        W35451  16.263  34.375   3.739
69972W        W35452  26.576  30.585  13.893
69973W        W35453  24.010   6.265   3.320
69974W        W35454  37.337  28.169   4.603
69975W        W35455   1.447  32.443   0.359
69976W        W35456  33.419  38.537  14.992
69977W        W35457  31.624   8.224   0.443
69978W        W35458  33.114  42.342  11.480
69979W        W35459  23.031  30.007  13.456
69980W        W35460   8.373  36.584   4.247
69981W        W35461   0.895  32.408   0.403
69982W        W35462  18.109  10.691  11.015
69983W        W35463  31.435  10.729   4.164
69984W        W35464  21.601  15.610   4.763
69985W        W35465  32.438  13.307  14.848
69986W        W35466   8.762  16.611   4.770
69987W        W35467  37.975  13.780  13.339
69988W        W35468  12.761  32.071  14.443
69989W        W35469  20.163  13.822   3.380
69990W        W35470  23.223  38.994   3.154
69991W        W35471  18.177  22.091  10.956
69992W        W35472  39.523  40.431  10.627
69993W        W35473   2.468  44.929  11.003
69994W        W35474  16.149  30.456   2.395
69995W        W35475   4.866  10.263  14.340
69996W        W35476   8.751  36.435   3.251
69997W        W35477  29.928  35.556   4.173
69998W        W35478  35.457  15.163  13.997
69999W        W35479  13.832  32.119   0.949
70000W        W35480  34.501  12.616   4.304
70001W        W35481  20.613  42.989  14.431
70002W        W35482  42.341  29.560   3.273
70003W        W35483  32.950  19.545   4.175
70004W        W35484  24.563  15.240  12.545
70005W        W35485  29.933  39.448   3.633
70006W        W35486   9.676  12.664   3.224
70007W        W35487  27.000  17.716  14.012
70008W        W35488  35.458  39.427   2.740
70009W        W35489  30.056  21.654   4.823
70010W        W35490  43.362   0.291   4.829
70011W        W35491  21.056   2.231  13.544
70012W        W35492   0.413  42.281   1.914
70013W        W35493  13.313  33.923   0.871
70014W        W35494  23.652   3.901  12.859
70015W        W35495  40.906  23.622  13.794
70016W        W35496  20.552  25.174   2.353
70017W        W35497  25.014   6.717   2.319
70018W        W35498  16.163   9.182   2.334
70019W        W35499  39.435  44.322   3.261
70020W        W35500  42.386  35.017  11.566
70021W        W35501  16.761  33.922   1.373
70022W        W35502  38.908  42.318  12.028
70023W        W35503  20.545   5.200  12.462
70024W        W35504   8.297  15.710  12.429
70025W        W35505  35.527  38.062   1.339
70026W        W35506  43.924   8.719  12.977
70027W        W35507   4.241  40.938   3.687
70028W        W35508   3.348  40.346  13.484
70029W        W35509   1.407  28.578   1.841
70030W        W35510  26.554   4.907  11.886
70031W        W35511   9.840  30.915   1.246
70032W        W35512   1.440  44.871   1.422
70033W        W35513  34.026  22.686   2.840
70034W        W35514  36.977  28.503  13.393
70035W        W35515  31.923  11.649  14.794
70036W        W35516  11.825   7.237   1.746
70037W        W35517  41.886  39.403   1.308
70038W        W35518  24.614  21.663   4.633
70039W        W35519  40.975  21.096  14.392
70040W        W35520   7.846  31.095   3.332
70041W        W35521  22.663  36.005  14.457
70042W        W35522  37.343  39.029   0.833
70043W        W35523  31.404  20.545   4.353
70044W        W35524   7.763  36.076  11.068
70045W        W35525  30.647  33.983  14.469
70046W        W35526  18.287  10.840  12.514
70047W        W35527  42.339   6.291  11.864
70048W        W35528  32.634  36.416   4.290
70049W        W35529  13.721  11.163  10.606
70050W        W35530  14.239   9.855   1.816
70051W        W35531  33.577   4.863   9.967
70052W        W35532   9.254   9.189   3.693
70053W        W35533  38.059   3.744   0.956
70054W        W35534   9.781  26.132   0.326
70055W        W35535  34.486  39.344   4.126
70056W        W35536  39.056  17.632  14.835
70057W        W35537  24.723  17.593   2.262
70058W        W35538   7.302  37.046  14.489
70059W        W35539  19.592   5.253  10.585
70060W        W35540   5.824  34.432  14.509
70061W        W35541  15.117  41.906  11.858
70062W        W35542  28.111  34.939   2.892
70063W        W35543  17.677   8.250   0.834
70064W        W35544  35.537  44.436   0.459
70065W        W35545  23.148  41.806  11.488
70066W        W35546   4.940  28.551   3.146
70067W        W35547  25.198  14.097  14.334
70068W        W35548  20.049   2.409   3.697
70069W        W35549  13.622  10.356   4.247
70070W        W35550  12.828  33.005  11.031
70071W        W35551  22.242  35.968  13.349
70072W        W35552  31.530  20.624  12.566
70073W        W35553  40.382  13.715   0.257
70074W        W35554   7.356  21.076   4.170
70075W        W35555  37.445   6.419  11.027
70076W        W35556  44.874  18.277   4.299
70077W        W35557  26.632  42.360  11.612
70078W        W35558  10.261  27.545   1.803
70079W        W35559  44.842   6.788  11.109
70080W        W35560  29.150  38.351  13.451
70081W        W35561  24.055  14.659  13.798
70082W        W35562   2.339  14.811   4.689
70083W        W35563   3.900   6.889  12.533
70084W        W35564  10.153   8.851   3.652
70085W        W35565  11.327  31.153   0.446
70086W        W35566  32.403   5.222  14.899
70087W        W35567  21.104  15.252  12.043
70088W        W35568   2.441  17.601  12.853
70089W        W35569  44.314  32.023   2.370
70090W        W35570  16.241  39.034  12.346
70091W        W35571  10.696  13.327  10.949
70092W        W35572  39.871  17.800  11.901
70093W        W35573  26.630  44.915   0.931
70094W        W35574  19.070  42.321  10.471
70095W        W35575  15.213  12.798  13.040
70096W        W35576   0.285   0.269  10.593
70097W        W35577  20.207  32.030  11.072
70098W        W35578  34.068  24.496   3.247
70099W        W35579  20.569  43.944   3.734
70100W        W35580  42.941  39.502  11.579
70101W        W35581   0.753  35.558   0.407
70102W        W35582  23.679  41.043  12.916
70103W        W35583  37.830  20.718   0.811
70104W        W35584  44.432  32.901   9.957
70105W        W35585  33.497  39.928   1.300
70106W        W35586  30.984   1.280  12.569
70107W        W35587   8.359  34.033  14.962
70108W        W35588   4.856  25.508  10.531
70109W        W35589   7.242   4.903  12.374
70110W        W35590  14.167   1.353  10.994
70111W        W35591  24.215   8.268   2.811
70112W        W35592  30.627  24.530   3.269
70113W        W35593  12.160  31.468  11.904
70114W        W35594  12.844  13.202  12.464
70115W        W35595  16.287  20.241   3.713
70116W        W35596  35.871  33.007  13.518
70117W        W35597  21.261  25.578  12.874
70118W        W35598   8.899  23.130   0.793
70119W        W35599  15.596  39.959   2.869
70120W        W35600  36.931  13.116  14.843
70121W        W35601  12.337  29.951   2.403
70122W        W35602   0.389  26.084   3.250
70123W        W35603  36.979  44.781   2.683
70124W        W35604   1.303   1.929  11.598
70125W        W35605  22.136  38.848  10.412
70126W        W35606   9.394  27.639   3.164
70127W        W35607   9.303  35.009  12.866
70128W        W35608  18.270   1.745  13.837
70129W        W35609  39.922  23.176   4.290
70130W        W35610  25.180   9.779  13.826
70131W        W35611   4.221   6.799  12.831
70132W        W35612  24.645   4.425  14.955
70133W        W35613  29.004  17.561  11.066
70134W        W35614  12.738   2.965  14.908
70135W        W35615  41.431  31.980  14.354
70136W        W35616  30.441  35.382   1.239
70137W        W35617  22.065   1.901  13.795
70138W        W35618   0.845  31.554  13.009
70139W        W35619  33.587   8.765   3.861
70140W        W35620   8.176  14.195   3.750
70141W        W35621   1.257  11.153  13.959
70142W        W35622  34.035  40.986  10.470
70143W        W35623   1.330  44.436   0.451
70144W        W35624  29.493  42.011  14.474
70145W        W35625  26.081  41.298   4.115
70146W        W35626  15.137   3.947  11.456
70147W        W35627  28.542  23.503   4.702
70148W        W35628  39.376  37.464   1.913
70149W        W35629  16.299  15.749   3.200
70150W        W35630  32.564  36.543   2.294
70151W        W35631  17.586   0.940   3.249
70152W        W35632  35.584  36.989   1.905
70153W        W35633   7.738  19.699  11.023
70154W        W35634  39.426  38.435  10.923
70155W        W35635  18.574  31.024   0.349
70156W        W35636  33.402   7.884   4.353
70157W        W35637  14.326  33.094   4.642
70158W        W35638  37.928  16.576   1.440
70159W        W35639  38.372  34.082   1.747
70160W        W35640  21.549  41.297  14.485
70161W        W35641   1.922  25.181   1.935
70162W        W35642  27.625  43.289  12.497
70163W        W35643   6.254   8.242  11.925
70164W        W35644   9.230  34.020  12.943
70165W        W35645  29.585   3.331  13.499
70166W        W35646  28.578  40.525   2.780
70167W        W35647  13.316  26.579  11.875
70168W        W35648  16.110  41.034   3.810
70169W        W35649  24.665  20.212  13.948
70170W        W35650  38.074  14.742   1.416
70171W        W35651  16.302  37.501   3.155
70172W        W35652   0.429  22.075   3.801
70173W        W35653  36.899  23.046   0.327
70174W        W35654   4.933  36.015  11.539
70175W        W35655  40.390   0.454   3.728
70176W        W35656   6.341  41.517   1.708
70177W        W35657  39.932  17.234  10.478
70178W        W35658   9.720  10.361  10.500
70179W        W35659  38.329  18.139  13.017
70180W        W35660  30.597   2.337   2.240
70181W        W35661   9.791  27.099  10.593
70182W        W35662   3.781  40.034  14.412
70183W        W35663  24.658  23.138   0.440
70184W        W35664  39.380  15.320   4.232
70185W        W35665  40.047  35.494  10.934
70186W        W35666  21.697  34.436  13.515
70187W        W35667  32.129  44.945  11.477
70188W        W35668   1.357   4.744   2.353
70189W        W35669  31.138   9.357  14.279
70190W        W35670  10.223  16.309   0.469
70191W        W35671  35.423  24.697   3.809
70192W        W35672  21.060  30.465   1.447
70193W        W35673   8.820  22.998   4.652
70194W        W35674  39.023  25.549   1.777
70195W        W35675  24.685  14.266  12.462
70196W        W35676  19.589  20.116   2.344
70197W        W35677  39.467  15.604  12.018
70198W        W35678  42.783  38.539  13.522
70199W        W35679  42.941  21.614   3.722
70200W        W35680   7.287  41.873  13.335
70201W        W35681   8.385  20.583   2.735
70202W        W35682   5.829   4.342  12.847
70203W        W35683  32.990  10.354   3.659
70204W        W35684   1.959  20.534   3.318
70205W        W35685  19.633   6.406  14.954
70206W        W35686  29.140   9.365  12.825
70207W        W35687  17.753  22.138   0.960
70208W        W35688   4.306  40.528  14.794
70209W        W35689  33.083  38.465  11.092
70210W        W35690  32.553   2.234   0.397
70211W        W35691  12.720  43.972  11.584
70212W        W35692  25.167  14.834   4.721
70213W        W35693   8.167  10.636  12.836
70214W        W35694  33.409  28.154   1.778
70215W        W35695   5.829  11.631   3.213
70216W        W35696   7.742  17.102   0.870
70217W        W35697   3.748   9.708   4.816
70218W        W35698  22.535   3.855   1.861
70219W        W35699   9.357  22.196  10.508
70220W        W35700  19.214  23.057  10.988
70221W        W35701  19.281  44.924   1.240
70222W        W35702  13.819  16.106  12.920
70223W        W35703  11.811  31.631  13.379
70224W        W35704   6.719  12.281   2.368
70225W        W35705  14.695  22.049  11.608
70226W        W35706  14.333  24.516  11.931
70227W        W35707   5.393  29.124   0.921
70228W        W35708  16.708  40.800  12.409
70229W        W35709  32.573  42.931  13.323
70230W        W35710  24.162  25.123   2.895
70231W        W35711   8.352  36.004  13.479
70232W        W35712   2.366  23.623   3.754
70233W        W35713  28.672  36.370   0.375
70234W        W35714  25.113  21.258   5.295
70235W        W35715  11.331  14.218   3.164
70236W        W35716  37.073  35.902  12.912
70237W        W35717  38.958  40.009   0.248
70238W        W35718  27.464  12.119  11.098
70239W        W35719   9.771  25.556  11.431
70240W        W35720  40.943  14.707  12.076
70241W        W35721  29.023   3.346   3.776
70242W        W35722  27.461   2.271  11.037
70243W        W35723  25.711  37.905  14.301
70244W        W35724  24.598   1.328   0.802
70245W        W35725  11.825  18.574   4.215
70246W        W35726  32.956  36.556   4.673
70247W        W35727   9.355  33.982  11.404
70248W        W35728  13.146   0.324  12.953
70249W        W35729  36.374  41.961  10.478
70250W        W35730   3.885  36.528   1.916
70251W        W35731   5.363  20.717   0.442
70252W        W35732  18.755   6.230   1.861
70253W        W35733  38.337   4.792   3.718
70254W        W35734   8.196  34.965   1.395
70255W        W35735   9.363  17.614  10.426
70256W        W35736  10.357  31.465  12.030
70257W        W35737   3.842  36.547  14.287
70258W        W35738  22.747  16.104   1.289
70259W        W35739  25.698  44.909   3.760
70260W        W35740  10.274  42.484  12.438
70261W        W35741  33.469  14.096   4.822
70262W        W35742   6.304  35.012  11.901
70263W        W35743  29.577  10.660  12.409
70264W        W35744  35.950  36.570   4.116
70265W        W35745   9.284  23.683   9.960
70266W        W35746  30.616  19.082  13.941
70267W        W35747  25.039  27.627   3.323
70268W        W35748   8.738  30.910  13.055
70269W        W35749  34.525  44.874   0.292
70270W        W35750  30.005  18.773  13.954
70271W        W35751  32.624  11.675  12.825
70272W        W35752  28.457  24.577  14.869
70273W        W35753   8.772  26.019  13.923
70274W        W35754  24.701  28.173   0.267
70275W        W35755  11.294  16.745  13.533
70276W        W35756  26.513  25.146  11.548
70277W        W35757  34.034  23.075  10.986
70278W        W35758  39.032   5.233   4.209
70279W        W35759  40.503  14.222  12.418
70280W        W35760  34.389  23.045  12.515
70281W        W35761   8.391  41.911  12.857
70282W        W35762  40.910  37.390   1.921
70283W        W35763  37.480  13.684  10.893
70284W        W35764  23.105   2.437   1.698
70285W        W35765  43.800  26.150   3.342
70286W        W35766   2.948  13.711   4.619
70287W        W35767  20.664  32.975   4.116
70288W        W35768  42.421  27.466  10.483
70289W        W35769  22.071  31.989   0.360
70290W        W35770  28.543  44.958  13.319
70291W        W35771  32.032  34.449  10.972
70292W        W35772  25.994  11.685  13.978
70293W        W35773  37.976  24.974  12.369
70294W        W35774   2.226  32.052   4.214
70295W        W35775  16.699  25.187  12.857
70296W        W35776  29.648  22.583  13.396
70297W        W35777  27.179   8.358   2.731
70298W        W35778  23.564   0.931  14.397
70299W        W35779   5.886  30.067  12.939
70300W        W35780  37.538  39.323  10.428
70301W        W35781  28.531  33.443   3.294
70302W        W35782  43.824   0.459  12.469
70303W        W35783  13.297  38.543  14.811
70304W        W35784  25.707  38.858   3.862
70305W        W35785  27.019  16.574  12.404
70306W        W35786  42.911   7.688   4.654
70307W        W35787   6.381  31.028   0.356
70308W        W35788  14.814  38.888  11.564
70309W        W35789  33.120  34.527   3.153
70310W        W35790  30.020  13.787   3.220
70311W        W35791  12.795  28.956  10.591
70312W        W35792  29.093  41.918   1.754
70313W        W35793  39.892  38.922   9.941
70314W        W35794  16.602   2.908   1.216
70315W        W35795   0.924  32.069  12.347
70316W        W35796  34.094  25.599   2.838
70317W        W35797  28.118  40.913   2.857
70318W        W35798  24.617  11.684   3.175
70319W        W35799  13.654  41.412   4.341
70320W        W35800  37.422  17.648   4.737
70321W        W35801  26.493  19.098   5.243
70322W        W35802  44.343  44.484   0.459
70323W        W35803  25.007  38.045  11.497
70324W        W35804  32.014  18.281   3.364
70325W        W35805  15.299   1.318  12.050
70326W        W35806  12.171  43.917  12.381
70327W        W35807   2.388  26.542   2.257
70328W        W35808  18.283  26.551   3.744
70329W        W35809  38.475  15.712  14.024
70330W        W35810  18.135  14.750   0.954
70331W        W35811  31.100  30.546   2.712
70332W        W35812  25.070   9.731   4.164
70333W        W35813   2.390  19.669  13.383
70334W        W35814  44.415  23.531   1.852
70335W        W35815  42.508   3.944   2.766
70336W        W35816  25.483  44.273  13.950
70337W        W35817  44.975  22.681   2.726
70338W        W35818  15.254  38.933   3.823
70339W        W35819  17.159  25.188   3.278
70340W        W35820  32.621  18.191  11.592
70341W        W35821  10.808   6.236   2.282
70342W        W35822  36.063  36.504   0.931
70343W        W35823   9.244  19.217   2.338
70344W        W35824  13.787  10.302  13.358
70345W        W35825  41.496  13.765   3.370
70346W        W35826  23.023   2.420   0.746
70347W        W35827  43.516   6.193   3.831
70348W        W35828  36.419  37.476  13.813
70349W        W35829  12.652  42.485  14.856
70350W        W35830  38.541   9.285   3.312
70351W        W35831  16.264  28.625   0.379
70352W        W35832   4.337   8.711  11.992
70353W        W35833  17.754  12.703   3.259
70354W        W35834  41.391  43.463  12.567
70355W        W35835  32.560  28.650  10.622
70356W        W35836   6.883   8.373   4.158
70357W        W35837  19.655  40.432   0.784
70358W        W35838  39.532  15.755  11.567
70359W        W35839  31.490  24.076   0.738
70360W        W35840  36.565  11.656   3.386
70361W        W35841  12.688  19.652   1.321
70362W        W35842  15.110  14.208   1.746
70363W        W35843   2.740  26.643  12.347
70364W        W35844  36.075  41.865   4.828
70365W        W35845   3.426  36.021  13.441
70366W        W35846  26.015   5.353   2.250
70367W        W35847  24.112  36.475   0.792
70368W        W35848   0.252   4.337   0.806
70369W        W35849  20.694  35.892  12.880
70370W        W35850  37.540  25.536   1.348
70371W        W35851  30.422  43.832  11.939
70372W        W35852  39.948  33.473   3.782
70373W        W35853  39.040  17.179  14.773
70374W        W35854   3.379  28.664   2.892
70375W        W35855  19.612   2.436   4.157
70376W        W35856   1.755  30.612  12.359
70377W        W35857  19.241   1.447   0.832
70378W        W35858  40.859   6.379   5.217
70379W        W35859  24.103  22.556   5.141
70380W        W35860   0.936  39.891   1.346
70381W        W35861  29.575  24.702  11.387
70382W        W35862  35.080   4.338   2.329
70383W        W35863  23.984  12.338  14.858
70384W        W35864  27.976  31.011   3.669
70385W        W35865  40.432  24.022   9.974
70386W        W35866  32.459  44.455  14.889
70387W        W35867   5.403  43.939   4.659
70388W        W35868   3.376   8.678  13.383
70389W        W35869  24.995  15.148   4.309
70390W        W35870  42.779  21.621  14.316
70391W        W35871  39.897  10.743   3.696
70392W        W35872  39.365  26.573   0.264
70393W        W35873  26.054  19.680  11.528
70394W        W35874   4.873  41.995  10.904
70395W        W35875  44.380  42.798  10.130
70396W        W35876  13.272  23.997   1.843
70397W        W35877  13.328  35.576   4.352
70398W        W35878  27.072   9.296   2.869
70399W        W35879  35.882  34.539  10.582
70400W        W35880  43.382   1.871   0.430
70401W        W35881  27.491  19.603  12.958
70402W        W35882  36.462   7.299   4.618
70403W        W35883  41.952  11.719   1.348
70404W        W35884  13.744  12.724  13.506
70405W        W35885   6.749  16.647   4.223
70406W        W35886   8.363  27.102   0.897
70407W        W35887  18.228  11.838   1.226
70408W        W35888  43.278  31.471   0.779
70409W        W35889  39.539  24.983   4.633
70410W        W35890  32.468   4.804   2.739
70411W        W35891  40.034  43.783  13.390
70412W        W35892  41.449  34.026  13.502
70413W        W35893  40.927  37.018  12.550
70414W        W35894  34.877  44.997   2.298
70415W        W35895  30.969  10.313   4.142
70416W        W35896  37.042   2.324   2.243
70417W        W35897   1.801  43.890   4.188
70418W        W35898  32.420  36.546  11.040
70419W        W35899  21.152   0.855   0.842
70420W        W35900   4.299  41.426  11.402
70421W        W35901   4.256   0.471  11.429
70422W        W35902  26.200  23.113  10.614
70423W        W35903  31.459  33.503   0.839
70424W        W35904   5.226  12.741   2.683
70425W        W35905   0.752  33.906  14.484
70426W        W35906   7.716  40.318  14.493
70427W        W35907  44.941  33.114  13.437
70428W        W35908  19.585  18.629   0.408
70429W        W35909   1.341  38.828   0.824
70430W        W35910  30.465  34.467  11.495
70431W        W35911  32.072  13.823  14.289
70432W        W35912  15.595  27.683  12.887
70433W        W35913  26.108  14.795  13.977
70434W        W35914  38.495  39.047  11.121
70435W        W35915  19.656  35.966  11.483
70436W        W35916   3.300  24.105   4.170
70437W        W35917  41.884  16.796   3.195
70438W        W35918  30.977  16.144  14.298
70439W        W35919   0.968  18.558   3.744
70440W        W35920  28.564   1.914   1.413
70441W        W35921  43.874  39.538  13.007
70442W        W35922  18.560  24.502  12.507
70443W        W35923  40.990  29.003   0.819
70444W        W35924  36.046  10.209  11.043
70445W        W35925  28.162  31.001   0.328
70446W        W35926   1.275  27.661   0.276
70447W        W35927  17.087  33.501   3.254
70448W        W35928  16.115  29.011   0.806
70449W        W35929  37.858  20.757   5.145
70450W        W35930  17.609  37.472   1.437
70451W        W35931  18.579  36.351   1.815
70452W        W35932  17.133  18.201  10.107
70453W        W35933  39.902   0.262  11.932
70454W        W35934   3.422  30.963  11.923
70455W        W35935  25.031   2.838  12.885
70456W        W35936   9.157  13.222   3.215
70457W        W35937   0.349  25.026   3.731
70458W        W35938  33.587  20.649   0.390
70459W        W35939  25.090  23.644  13.024
70460W        W35940  40.896  12.728   2.196
70461W        W35941   9.644  38.437  11.063
70462W        W35942  20.729   5.313   1.796
70463W        W35943  26.003  16.238   4.339
70464W        W35944   9.819  25.663  11.921
70465W        W35945   4.943   3.423   3.757
70466W        W35946  16.279   1.291   1.847
70467W        W35947  30.940  35.909   3.348
70468W        W35948  10.233  27.614   4.648
70469W        W35949  35.544  43.512  11.575
70470W        W35950   2.950  39.496   1.326
70471W        W35951   9.324  14.622  12.501
70472W        W35952  11.311  34.392  11.875
70473W        W35953   1.285  22.225   4.156
70474W        W35954  38.043  12.219  13.823
70475W        W35955  37.942  18.121  11.609
70476W        W35956  12.279  31.445   2.315
70477W        W35957  40.468  32.636  14.773
70478W        W35958  36.860  44.298  12.883
70479W        W35959   4.345  23.683  10.513
70480W        W35960  19.157   6.200  12.436
70481W        W35961  24.163   4.807   0.916
70482W        W35962  28.975  25.604  10.592
70483W        W35963  16.302  42.521  10.976
70484W        W35964  12.681  29.531   4.623
70485W        W35965   1.334  26.099  10.972
70486W        W35966  28.015  25.155   0.885
70487W        W35967  19.625  32.467  10.645
70488W        W35968  12.337  41.380   0.424
70489W        W35969  44.404   7.761  11.027
70490W        W35970  38.022  28.524  11.609
70491W        W35971   4.754  20.766   4.222
70492W        W35972  26.697  32.906   2.257
70493W        W35973  41.300  44.919  13.389
70494W        W35974  14.262  12.337   4.292
70495W        W35975  31.140  34.865  10.477
70496W        W35976  26.064  38.433  13.472
70497W        W35977  13.212  15.617  11.006
70498W        W35978  43.354   1.783   2.787
70499W        W35979  11.171  24.518  12.034
70500W        W35980   7.829  14.195  10.073
70501W        W35981   2.886  27.084  14.280
70502W        W35982  42.480  28.564  12.875
70503W        W35983   2.428  36.450  12.878
70504W        W35984  23.568  38.493   0.307
70505W        W35985  26.481  12.699   4.820
70506W        W35986  11.858  26.989  14.357
70507W        W35987  24.224  25.680   0.460
70508W        W35988  26.029  43.917   3.205
70509W        W35989  33.887   0.753   4.280
70510W        W35990  39.471  26.587   4.138
70511W        W35991  25.557  14.163   5.213
70512W        W35992  27.538   9.336   3.321
70513W        W35993  26.019  20.690  12.869
70514W        W35994  25.138  29.632  14.500
70515W        W35995  40.479   0.309   4.339
70516W        W35996  41.875  43.806   3.154
70517W        W35997  23.108  30.979   3.777
70518W        W35998   0.763  32.617   2.241
70519W        W35999  32.067  21.519   2.181
70520W        W36000   9.266  15.218   4.345
70521W        W36001  19.057  24.682   0.912
70522W        W36002  44.375  36.051  12.544
70523W        W36003  38.369  42.526   3.858
70524W        W36004  15.227  42.281  11.424
70525W        W36005  10.660  15.308  10.532
70526W        W36006  36.960   0.978   1.285
70527W        W36007  30.649   7.813   3.826
70528W        W36008  14.640  43.840   2.221
70529W        W36009  19.725  18.130   4.664
70530W        W36010  37.002  20.105  14.976
70531W        W36011   6.832  38.503   3.721
70532W        W36012  29.956  30.567   2.384
70533W        W36013  25.198  22.715   0.840
70534W        W36014  41.906  37.869   1.904
70535W        W36015  18.209  25.568   1.755
70536W        W36016  16.690   0.440  10.996
70537W        W36017  33.063  31.973   4.300
70538W        W36018  28.524  31.945  12.932
70539W        W36019  15.130  11.743  13.538
70540W        W36020  34.001  32.123  14.502
70541W        W36021  33.114  13.844  10.963
70542W        W36022   8.861  27.121   0.354
70543W        W36023  30.573   3.870  11.913
70544W        W36024  44.819  33.542  13.820
70545W        W36025  41.896  36.091   3.382
70546W        W36026  10.215  36.563   3.813
70547W        W36027  29.063  26.642  12.971
70548W        W36028  10.852   5.344   4.780
70549W        W36029  25.494  13.199  13.063
70550W        W36030  19.067  39.838   0.395
70551W        W36031  40.949  15.291  11.911
70552W        W36032  29.559  17.709  13.053
70553W        W36033  10.146  21.202  11.927
70554W        W36034  36.434   3.753  11.391
70555W        W36035  43.340  44.870   0.873
70556W        W36036  37.996  16.672  12.413
70557W        W36037   1.766   5.224   1.771
70558W        W36038  24.666  29.158   3.146
70559W        W36039  30.918  12.125  12.350
70560W        W36040  21.123  19.038   4.116
70561W        W36041  33.464   1.953   2.680
70562W        W36042   1.267  11.340   2.409
70563W        W36043  27.642   2.259   3.210
70564W        W36044   1.957   0.270   2.290
70565W        W36045   5.373  35.921  11.528
70566W        W36046  22.246   5.198  14.325
70567W        W36047   0.769   0.282   4.229
70568W        W36048  42.935  18.135   0.363
70569W        W36049  27.636   6.270   1.921
70570W        W36050  16.569  19.601   0.781
70571W        W36051  27.671  44.901  13.332
70572W        W36052  32.909  31.526  14.028
70573W        W36053  32.535   4.738   4.321
70574W        W36054  21.038  12.154  11.933
70575W        W36055  27.484  20.077   3.837
70576W        W36056  31.979  24.173  11.126
70577W        W36057  25.036  44.392  14.950
70578W        W36058   3.360  26.660   1.695
70579W        W36059  23.170  31.015  11.455
70580W        W36060  24.556   9.881   0.250
70581W        W36061   9.846   7.268  11.123
70582W        W36062  28.588  31.493  13.853
70583W        W36063  20.192  13.610   2.791
70584W        W36064  16.675  21.068  14.284
70585W        W36065  38.926  43.402   2.375
70586W        W36066  37.042  24.616   2.839
70587W        W36067  25.117  35.393  11.101
70588W        W36068  31.417   0.359   3.836
70589W        W36069  25.560  31.031  13.530
70590W        W36070  34.008   0.868  10.624
70591W        W36071  14.792  13.674  14.892
70592W        W36072   5.827  24.163   1.755
70593W        W36073  34.371  14.781  12.369
70594W        W36074   8.371  10.172  12.443
70595W        W36075   4.304   5.723   4.127
70596W        W36076  34.430  16.656   4.208
70597W        W36077  38.352   1.264   0.933
70598W        W36078   2.758  21.561   2.785
70599W        W36079  17.606   2.260   4.734
70600W        W36080  34.985  35.566  10.640
70601W        W36081  31.997  13.741  11.891
70602W        W36082  12.289  31.052  14.486
70603W        W36083  12.683  16.723  14.292
70604W        W36084  32.948  26.067  12.340
70605W        W36085  37.935  13.634   3.344
70606W        W36086  12.156   8.389  12.085
70607W        W36087  13.274  26.096   3.153
70608W        W36088  13.655  12.325   0.849
70609W        W36089  14.276   8.803  14.877
70610W        W36090  44.477   9.663  12.889
70611W        W36091  27.094  13.627  11.962
70612W        W36092  42.828  42.973   2.262
70613W        W36093   1.449   1.783  13.365
70614W        W36094  44.416  21.726  13.869
70615W        W36095  25.635   5.334  10.526
70616W        W36096   8.666   6.716  14.334
70617W        W36097  30.509  28.570   2.263
70618W        W36098  37.537  11.629   4.300
70619W        W36099  24.685  12.788  14.979
70620W        W36100  41.406   3.418  13.910
70621W        W36101  28.522  25.666  10.588
70622W        W36102  13.302  13.266   0.862
70623W        W36103   2.852  35.519   2.273
70624W        W36104  18.771  36.404   3.860
70625W        W36105  12.229  32.485   2.279
70626W        W36106   7.888  22.104  10.641
70627W        W36107   1.867   3.755  12.456
70628W        W36108   4.937  22.077  12.012
70629W        W36109  42.372  38.390   2.862
70630W        W36110  12.757  41.480  13.861
70631W        W36111   0.784  17.712  14.494
70632W        W36112  40.053   8.281  13.368
70633W        W36113  36.518   1.825  14.470
70634W        W36114  31.091  39.054  10.423
70635W        W36115  11.316  36.086  13.834
70636W        W36116  44.918  29.512   4.834
70637W        W36117  23.123  41.878   2.290
70638W        W36118  35.384  21.244   3.262
70639W        W36119   8.777  33.927   0.313
70640W        W36120  13.190  42.320  12.033
70641W        W36121  32.129  27.676   0.340
70642W        W36122  43.772  31.027  10.584
70643W        W36123  30.541  21.605   1.396
70644W        W36124  31.534  32.490  14.458
70645W        W36125  29.011  33.098  14.489
70646W        W36126  41.021  10.660  12.573
70647W        W36127   9.791  41.295  11.457
70648W        W36128  13.764  39.343  14.325
70649W        W36129  24.224  42.438  10.579
70650W        W36130  29.444  29.638  14.030
70651W        W36131  16.781   8.868   1.321
70652W        W36132  34.119  13.281   4.653
70653W        W36133  35.013   1.432  12.027
70654W        W36134   2.248  25.697  14.029
70655W        W36135  41.798   5.706   3.706
70656W        W36136  43.847   5.799  12.568
70657W        W36137  33.931  10.653   3.842
70658W        W36138  38.929   6.885   2.203
70659W        W36139   9.773  20.195   3.738
70660W        W36140  42.487  12.132  10.912
70661W        W36141  10.238  44.927  14.316
70662W        W36142   7.236  39.375  14.422
70663W        W36143  36.938  29.482   4.284
70664W        W36144  27.143   1.345   2.220
70665W        W36145  40.305  18.624   2.208
70666W        W36146  19.695  20.271   4.632
70667W        W36147  10.376   3.379   1.308
70668W        W36148  21.600  20.273  12.580
70669W        W36149  35.406  21.635   2.380
70670W        W36150   8.273  21.606  14.433
70671W        W36151  36.005  43.388   0.893
70672W        W36152  38.937   3.362  11.081
70673W        W36153  11.368  29.003   1.716
70674W        W36154  24.604  37.049  12.081
70675W        W36155  15.316  26.152   4.212
70676W        W36156  41.394   7.199   0.373
70677W        W36157  15.168  36.884   2.775
70678W        W36158  17.217  43.979  12.042
70679W        W36159  11.771  29.114   4.157
70680W        W36160  21.115  37.364  12.903
70681W        W36161  24.008  26.002  11.547
70682W        W36162  35.442  31.980   4.145
70683W        W36163  19.238  43.837   3.213
70684W        W36164  28.158   9.785  11.579
70685W        W36165  14.637  11.755  13.828
70686W        W36166  20.036  11.335  10.558
70687W        W36167  31.079  16.768  11.948
70688W        W36168  28.147  25.165   1.928
70689W        W36169  22.556  24.104   3.819
70690W        W36170  24.006  21.113   0.834
70691W        W36171  16.074  40.342   3.687
70692W        W36172  24.542  24.080  11.451
70693W        W36173  30.453  14.622  12.441
70694W        W36174   6.864   6.680   3.164
70695W        W36175   0.931  31.048  10.454
70696W        W36176   2.816  38.065  14.009
70697W        W36177  12.289  33.088  14.024
70698W        W36178  35.554  24.623  13.394
70699W        W36179   3.417  38.962  13.837
70700W        W36180  33.500  42.325   1.401
70701W        W36181  36.537  23.556  14.780
70702W        W36182   6.766  14.713  13.497
70703W        W36183  44.279  25.179   4.151
70704W        W36184   5.695  38.326  14.427
70705W        W36185  12.156  15.654  13.434
70706W        W36186  16.279  19.039  14.475
70707W        W36187   6.824  19.204   2.893
70708W        W36188  31.608  42.356   3.308
70709W        W36189   5.434   6.252   3.261
70710W        W36190   3.242  30.095   3.757
70711W        W36191  42.457   2.412   0.312
70712W        W36192  28.502  10.642   4.759
70713W        W36193  22.708  32.983   5.084
70714W        W36194   4.707  42.872  12.016
70715W        W36195  43.346  28.643  10.500
70716W        W36196  16.569  13.235  12.048
70717W        W36197  26.966  40.380   4.739
70718W        W36198  25.649  36.034   5.310
70719W        W36199  24.108   3.848  11.038
70720W        W36200  10.211  39.442   4.263
70721W        W36201  29.020  39.523  14.774
70722W        W36202   7.202   7.206   3.322
70723W        W36203  18.284  25.177   1.726
70724W        W36204  16.166  23.152   2.778
70725W        W36205  19.182  24.144   4.243
70726W        W36206  31.072  12.262   4.695
70727W        W36207  38.490  30.469  12.848
70728W        W36208  13.303   9.680  10.915
70729W        W36209  16.195  31.556   0.818
70730W        W36210   6.318  11.793   1.326
70731W        W36211  43.833  43.498   0.750
70732W        W36212  39.375  20.545   4.631
70733W        W36213  36.861  26.143  12.532
70734W        W36214  27.107  27.493  13.507
70735W        W36215  30.117  35.574  12.377
70736W        W36216  44.850  11.747   2.318
70737W        W36217   7.405  44.318  12.040
70738W        W36218  42.416  26.204  13.396
70739W        W36219  36.400  44.422   4.839
70740W        W36220  30.981  44.854   2.724
70741W        W36221  17.649   1.446   0.865
70742W        W36222  28.533  36.075   3.262
70743W        W36223   1.802  20.754   2.673
70744W        W36224  15.792  33.001   1.765
70745W        W36225  32.913  29.106  10.506
70746W        W36226  19.238  22.188  14.948
70747W        W36227   1.296  15.592  11.909
70748W        W36228  19.141  19.040  13.983
70749W        W36229  10.354  38.382  11.582
70750W        W36230   1.462   9.813   2.677
70751W        W36231  14.644  14.331   3.219
70752W        W36232  34.386  35.086  12.555
70753W        W36233   3.936  11.184  11.870
70754W        W36234  29.002  20.093  11.558
70755W        W36235   0.295  38.565  10.640
70756W        W36236   4.325  44.262   1.426
70757W        W36237   9.333  32.474   1.928
70758W        W36238  26.674   2.866   3.799
70759W        W36239   7.851  43.935   0.278
70760W        W36240  20.109   5.434  12.867
70761W        W36241  35.562  13.220  11.461
70762W        W36242  28.998  34.577   3.863
70763W        W36243  29.549   0.263   2.381
70764W        W36244  41.420  19.244  10.917
70765W        W36245  21.648   4.274   0.380
70766W        W36246   4.944  37.915   0.769
70767W        W36247  28.098   7.857  13.345
70768W        W36248  29.959  31.968  11.399
70769W        W36249  39.448   8.772   1.389
70770W        W36250  10.284  38.856  11.860
70771W        W36251  31.556  42.439  10.439
70772W        W36252   0.354   1.972   3.753
70773W        W36253   6.191  42.007   4.262
70774W        W36254  39.338  25.018  11.865
70775W        W36255   5.381  20.655  11.126
70776W        W36256   6.790  40.466  13.917
70777W        W36257  16.638  22.161   2.225
70778W        W36258  23.169  19.159  10.532
70779W        W36259  44.304  17.119   5.101
70780W        W36260  39.353  29.936  12.857
70781W        W36261  40.857  30.149   3.821
70782W        W36262  26.063   3.804  11.393
70783W        W36263  15.172  42.995   3.300
70784W        W36264  19.092  20.748  14.497
70785W        W36265  43.489   4.708   1.399
70786W        W36266  41.035  16.274   4.276
70787W        W36267  12.261  30.034  11.965
70788W        W36268  28.157  40.499   2.698
70789W        W36269   7.253   6.266   1.366
70790W        W36270   7.801  26.131   4.670
70791W        W36271  26.554   0.352  13.037
70792W        W36272  38.819   8.260   0.259
70793W        W36273   0.479  37.983  14.860
70794W        W36274  35.518  17.782   1.304
70795W        W36275  27.548  43.447  14.388
70796W        W36276   3.899  10.341   3.279
70797W        W36277  29.529   6.320   2.702
70798W        W36278  29.626  14.770  11.578
70799W        W36279  19.549  25.670   0.277
70800W        W36280   8.676  43.834   3.161
70801W        W36281  13.136   0.373  11.970
70802W        W36282  17.701  28.582   2.846
70803W        W36283  42.490  19.642   5.639
70804W        W36284  32.496  22.201   1.413
70805W        W36285  20.620  11.803  10.516
70806W        W36286  17.193   7.882   0.295
70807W        W36287  24.164  19.767   2.689
70808W        W36288   9.734   6.306   3.266
70809W        W36289   3.408  25.112   0.788
70810W        W36290  24.626   3.878  11.507
70811W        W36291  10.760   4.411  12.565
70812W        W36292   9.323  22.225   1.929
70813W        W36293  24.194  27.536  11.113
70814W        W36294   7.772  23.213  13.889
70815W        W36295  20.542  25.971   5.690
70816W        W36296  28.679  36.541  10.907
70817W        W36297  11.189  30.585  11.974
70818W        W36298  42.497  25.055   1.442
70819W        W36299  19.592  40.388  13.345
70820W        W36300  16.802  31.502  10.000
70821W        W36301  34.523  32.421   4.760
70822W        W36302  23.187  22.077   1.361
70823W        W36303  16.305  24.536   2.318
70824W        W36304  22.111   3.283   0.263
70825W        W36305  28.580  33.621   2.348
70826W        W36306  29.935  14.789   3.732
70827W        W36307   9.357  39.443  12.356
70828W        W36308  34.979  42.434  13.817
70829W        W36309  35.454  27.508  11.513
70830W        W36310  33.967   9.193  14.341
70831W        W36311  32.483   0.490  11.901
70832W        W36312  30.034  44.870  13.835
70833W        W36313  32.564   5.769  13.503
70834W        W36314  23.242  18.595  13.046
70835W        W36315  44.414   7.872   2.828
70836W        W36316  30.450  12.805  14.408
70837W        W36317  26.087  15.655   2.673
70838W        W36318  24.177  40.404   0.761
70839W        W36319  31.955  33.917  13.418
70840W        W36320  11.740  20.655   4.337
70841W        W36321  18.178  41.923   2.283
70842W        W36322  37.074  41.809   4.113
70843W        W36323  30.041  26.127  12.865
70844W        W36324  28.570  27.025  10.905
70845W        W36325  24.202   4.214   2.235
70846W        W36326  38.013  17.074  14.308
70847W        W36327  32.930  22.239   4.820
70848W        W36328  40.890   3.956   4.299
70849W        W36329  33.993  43.373   1.358
70850W        W36330  39.357   4.423   9.923
70851W        W36331  43.021  36.562   1.882
70852W        W36332  38.952  16.314  13.966
70853W        W36333   0.332  33.501  13.356
70854W        W36334   1.246  42.523  14.009
70855W        W36335   4.789  38.326   2.740
70856W        W36336  32.927  32.600   4.646
70857W        W36337   8.862  42.803  10.552
70858W        W36338  29.669   6.767  13.444
70859W        W36339  25.553  32.906   3.325
70860W        W36340   0.272  28.556   1.260
70861W        W36341   9.251  43.516  14.483
70862W        W36342  16.607  36.495  11.028
70863W        W36343  23.182  30.469  12.093
70864W        W36344  38.368  25.962  12.576
70865W        W36345  24.697   7.221   3.242
70866W        W36346  12.122  20.603   3.290
70867W        W36347  24.579  24.488   1.775
70868W        W36348  16.761   6.354  12.856
70869W        W36349  12.277  35.934   3.326
70870W        W36350  22.617  13.739   0.276
70871W        W36351  26.616  23.091  10.566
70872W        W36352  29.958  37.961  13.822
70873W        W36353   3.911  25.065   0.480
70874W        W36354  16.274  23.205   4.765
70875W        W36355   4.371  27.600  11.582
70876W        W36356  29.993  17.097  13.503
70877W        W36357  22.505  10.358   0.945
70878W        W36358   9.838  12.234  13.492
70879W        W36359  38.077   9.290   1.429
70880W        W36360   3.241   7.744  14.897
70881W        W36361  23.682  10.222  12.495
70882W        W36362  11.630  44.787   1.832
70883W        W36363  38.859   6.209  13.854
70884W        W36364   7.377  42.368  12.866
70885W        W36365  13.614   6.308  10.527
70886W        W36366  21.642  19.218  11.597
70887W        W36367  13.283  42.789   3.264
70888W        W36368  16.754   8.204   0.267
70889W        W36369  29.146   3.858  12.409
70890W        W36370   0.945  39.438   4.623
70891W        W36371  44.347  16.123  14.816
70892W        W36372  14.270  28.672  11.030
70893W        W36373  19.654  13.641   1.451
70894W        W36374  26.027  38.889   3.173
70895W        W36375   2.810  23.528   2.790
70896W        W36376  27.139  11.760   1.760
70897W        W36377  25.149   5.430  10.970
70898W        W36378  35.885  27.011   3.811
70899W        W36379   5.920  35.440   4.644
70900W        W36380   6.197   7.749   2.692
70901W        W36381  24.177  43.954   9.498
70902W        W36382   8.825  14.831   0.830
70903W        W36383  35.417  15.813  12.369
70904W        W36384  43.398   0.405  10.497
70905W        W36385   4.281  43.891  13.400
70906W        W36386  44.407   4.239   4.704
70907W        W36387  12.187  26.151   3.726
70908W        W36388  25.193   0.314   0.248
70909W        W36389  38.456  20.115  12.406
70910W        W36390   5.380  19.250  12.420
70911W        W36391   0.454  21.649  10.975
70912W        W36392  15.638   2.900  14.857
70913W        W36393  24.193   6.255  11.098
70914W        W36394   1.348  13.638  10.610
70915W        W36395  39.839   7.728  13.323
70916W        W36396  38.009  24.543  12.395
70917W        W36397  29.071  17.295   0.354
70918W        W36398  43.348  33.097  10.979
70919W        W36399  12.643  23.165   0.403
70920W        W36400   2.919   9.215   3.310
70921W        W36401   2.226  26.006   1.282
70922W        W36402  29.124  29.592   0.330
70923W        W36403  12.175  14.233  11.447
70924W        W36404  19.594   2.752  10.890
70925W        W36405   0.439  36.500   1.810
70926W        W36406  12.229  14.197   0.313
70927W        W36407   3.434   4.259   2.763
70928W        W36408  33.496  41.812   3.190
70929W        W36409  33.082  42.418  10.423
70930W        W36410  14.689  18.118   1.834
70931W        W36411  13.316  41.984   3.197
70932W        W36412  27.044  43.765   1.310
70933W        W36413  32.928  37.462   3.827
70934W        W36414  20.129  35.511  12.947
70935W        W36415  16.174   0.817  10.941
70936W        W36416  27.189   0.825  13.977
70937W        W36417  28.595  38.962   4.284
70938W        W36418  20.105  34.913   1.727
70939W        W36419   7.170  12.144   2.829
70940W        W36420  36.947  23.582  12.920
70941W        W36421  38.936  18.566   9.498
70942W        W36422   5.723  41.801   2.815
70943W        W36423   5.412  14.198   0.812
70944W        W36424  34.112  10.241  12.951
70945W        W36425  36.438  34.474  11.963
70946W        W36426   4.927  37.429   1.859
70947W        W36427  39.841   0.378  14.829
70948W        W36428  22.670   1.935  11.090
70949W        W36429  32.896  10.844   1.256
70950W        W36430  44.346   6.389  11.879
70951W        W36431  33.587  34.116  10.621
70952W        W36432  26.664   7.813  12.487
70953W        W36433  17.109  26.639   3.218
70954W        W36434  21.118  26.987  14.476
70955W        W36435  31.517  29.122  11.596
70956W        W36436  44.469  31.989   3.797
70957W        W36437  32.001  30.638  11.864
70958W        W36438  20.692  12.750  11.415
70959W        W36439  20.720  36.023   3.198
70960W        W36440  10.257  20.643   4.317
70961W        W36441  39.856  38.930   1.928
70962W        W36442  15.701  38.933   0.928
70963W        W36443  15.121  29.505  11.383
70964W        W36444  28.586  16.206   2.245
70965W        W36445  10.283   4.907   4.716
70966W        W36446  37.559   7.912   2.294
70967W        W36447  24.084  34.994  11.101
70968W        W36448  36.095   8.246   3.710
70969W        W36449  18.286   6.760  12.988
70970W        W36450  37.897  24.226  10.477
70971W        W36451  41.441   5.277   3.722
70972W        W36452  42.947  37.971  11.906
70973W        W36453   0.260   2.413   2.700
70974W        W36454  29.496  35.957  12.517
70975W        W36455  35.554  29.029  11.865
70976W        W36456  24.083   5.265  13.535
70977W        W36457  17.589  38.000   2.798
70978W        W36458  44.845  23.638   4.829
70979W        W36459  24.221  15.284  13.444
70980W        W36460  39.954  17.566  14.780
70981W        W36461  40.315  35.387   4.620
70982W        W36462  15.093  31.411  13.398
70983W        W36463  43.946  29.140   0.281
70984W        W36464  21.520  30.503   3.197
70985W        W36465  24.230  38.898  13.984
70986W        W36466  17.162  34.102   2.757
70987W        W36467  20.548  35.521   3.183
70988W        W36468  15.819  21.694   4.655
70989W        W36469  14.663  34.035   2.181
70990W        W36470  39.053  36.994  14.461
70991W        W36471  10.225  19.648   1.723
70992W        W36472  43.372  11.233  13.049
70993W        W36473  12.645  15.205  14.883
70994W        W36474   7.692  33.421  14.334
70995W        W36475  13.280   8.284   3.157
70996W        W36476  32.916  38.000  13.950
70997W        W36477  44.361  28.067  13.341
70998W        W36478  32.971   1.370   0.753
70999W        W36479  10.848  36.098   2.787
71000W        W36480  39.990   2.790   4.666
71001W        W36481   3.288  10.709   4.777
71002W        W36482   8.836  36.023   0.452
71003W        W36483  21.674  43.478  14.759
71004W        W36484  19.707  24.093  11.063
71005W        W36485  14.608  13.160   3.774
71006W        W36486   5.784  23.713   4.613
71007W        W36487   6.373  43.811  14.989
71008W        W36488  42.860  28.025  12.381
71009W        W36489   2.411  37.449   3.834
71010W        W36490  31.148  32.499   3.859
71011W        W36491  19.092  17.120  12.980
71012W        W36492  17.793  20.566   4.811
71013W        W36493  27.470  21.114  14.505
71014W        W36494  32.479   3.903  11.071
71015W        W36495  23.621  44.291   2.752
71016W        W36496  24.195  13.169  10.540
71017W        W36497   6.335  26.674   4.623
71018W        W36498  36.018  39.024   0.730
71019W        W36499  14.599   8.266  13.797
71020W        W36500  12.119   8.241  13.019
71021W        W36501  24.190  31.082  12.357
71022W        W36502  42.995  14.145   5.134
71023W        W36503   1.362   8.257  13.453
71024W        W36504  20.758  40.874  11.415
71025W        W36505  39.815  29.424  11.015
71026W        W36506  37.045  36.027  11.861
71027W        W36507  27.143   8.667  14.855
71028W        W36508  37.852  23.691   4.193
71029W        W36509   0.989  42.960  14.306
71030W        W36510  38.361  39.901   4.833
71031W        W36511  33.590  21.122  10.907
71032W        W36512  20.571  19.714  13.855
71033W        W36513  20.732  10.163   1.391
71034W        W36514   8.177  38.044  13.878
71035W        W36515  21.120  32.618   1.305
71036W        W36516   0.356   1.951  13.804
71037W        W36517  22.243  14.816  12.413
71038W        W36518  34.397  31.424   4.793
71039W        W36519  37.529   2.396  12.495
71040W        W36520  12.173  27.080   3.222
71041W        W36521   2.342  15.731  11.048
71042W        W36522  36.911  14.216   1.884
71043W        W36523  24.596  41.502  11.514
71044W        W36524  25.043  22.106   2.806
71045W        W36525  44.337  24.035  14.987
71046W        W36526  37.426  31.097   3.306
71047W        W36527  14.637  30.455   5.251
71048W        W36528  36.899  35.510   4.247
71049W        W36529  31.403  35.568  13.366
71050W        W36530  18.146  36.579  13.806
71051W        W36531  37.875  32.125   4.819
71052W        W36532  42.486   0.948  13.380
71053W        W36533  31.997  41.948  12.366
71054W        W36534  38.483  10.788   2.753
71055W        W36535  26.703  29.447  13.839
71056W        W36536  29.596  41.866   2.267
71057W        W36537  41.851  38.994   1.346
71058W        W36538  34.531  27.506   1.360
71059W        W36539   5.773   3.848  14.484
71060W        W36540  41.477  40.385   4.645
71061W        W36541  19.766  40.304   4.233
71062W        W36542   7.303  15.745   1.302
71063W        W36543  24.048  44.288  14.437
71064W        W36544  25.513  23.611   5.207
71065W        W36545  27.174  42.829  10.453
71066W        W36546  39.985   3.946  14.977
71067W        W36547  34.907   9.259   3.680
71068W        W36548  14.697  40.824  12.925
71069W        W36549  13.656  13.286  10.951
71070W        W36550  42.032   9.789  11.481
71071W        W36551  10.644  39.960   3.727
71072W        W36552   5.431  33.465  12.375
71073W        W36553  12.240  43.778   1.278
71074W        W36554  11.703  10.864  13.536
71075W        W36555  20.092  18.266   0.870
71076W        W36556  16.716  28.558   2.243
71077W        W36557  20.142   0.406  13.802
71078W        W36558  10.832  41.981  11.010
71079W        W36559  42.474  35.489  13.965
71080W        W36560  43.282  10.365   0.753
71081W        W36561   8.277  10.694   1.319
71082W        W36562  29.063  42.896   3.863
71083W        W36563   9.224  40.377   0.346
71084W        W36564   7.222   2.227   3.783
71085W        W36565  12.784  11.626  11.516
71086W        W36566  17.672   1.922  13.052
71087W        W36567  23.560  20.566   3.147
71088W        W36568  37.582  36.577  12.838
71089W        W36569  20.217  36.456  13.991
71090W        W36570  38.925  31.484  14.330
71091W        W36571  10.790  23.136  12.049
71092W        W36572  24.135  22.185   1.817
71093W        W36573  13.794  10.706  14.923
71094W        W36574  42.797   7.728   3.708
71095W        W36575  31.634  12.789   3.183
71096W        W36576  15.204  27.940   3.635
71097W        W36577  31.075   8.666   9.980
71098W        W36578  25.618  18.094  12.967
71099W        W36579  20.679  29.986  13.454
71100W        W36580   6.732  34.863  12.014
71101W        W36581  44.416  43.398  12.398
71102W        W36582  18.662  33.406   3.766
71103W        W36583  36.409   0.465  12.579
71104W        W36584  24.106  20.194  13.945
71105W        W36585  12.650  14.157   1.723
71106W        W36586  17.750  11.228  13.429
71107W        W36587  41.916   7.227  10.924
71108W        W36588  15.164  38.468  11.897
71109W        W36589  22.612  42.881  13.043
71110W        W36590  44.285  25.083   1.235
71111W        W36591   0.913  19.153   1.220
71112W        W36592  31.921  11.628   0.328
71113W        W36593  32.621  32.431   4.641
71114W        W36594   6.892  18.118   0.731
71115W        W36595   6.881  39.471   3.154
71116W        W36596  30.915   6.341  13.838
71117W        W36597  27.669  35.883  11.116
71118W        W36598   7.224  37.384  10.587
71119W        W36599  14.834  33.566  11.391
71120W        W36600  21.668  29.978  11.571
71121W        W36601  31.135  29.991  13.348
71122W        W36602  27.017   0.407  14.010
71123W        W36603   5.330  28.037   2.784
71124W        W36604  11.684  39.461  10.935
71125W        W36605   9.249   6.728  14.277
71126W        W36606  13.845  20.182   2.317
71127W        W36607  31.502  25.214   3.344
71128W        W36608   9.829   5.380  12.988
71129W        W36609  12.339  23.650  14.775
71130W        W36610   0.975  19.156  13.495
71131W        W36611   1.446  31.404  13.864
71132W        W36612  36.498  31.576   0.314
71133W        W36613  39.463  16.230   1.887
71134W        W36614  23.540  28.034   0.409
71135W        W36615  21.680   3.291  12.949
71136W        W36616   3.885  23.707  13.008
71137W        W36617  13.130  36.859  10.503
71138W        W36618  19.779  19.090  11.970
71139W        W36619   4.273  29.594   2.252
71140W        W36620  42.376  40.345  14.835
71141W        W36621  41.030  19.282  11.542
71142W        W36622   6.804  44.827   2.783
71143W        W36623  39.015  41.529  11.970
71144W        W36624  28.658   3.770   0.418
71145W        W36625  34.029  39.974  11.079
71146W        W36626  38.947   7.327  14.362
71147W        W36627   3.937  12.828   2.706
71148W        W36628   7.690  15.712  10.627
71149W        W36629  35.375  30.048  13.863
71150W        W36630   6.253  23.992   2.732
71151W        W36631   8.376  20.141   2.219
71152W        W36632  25.633  12.848  11.897
71153W        W36633  25.574   5.342  14.394
71154W        W36634  39.853  44.780   2.400
71155W        W36635  27.061  10.298   4.126
71156W        W36636  22.661  19.165  10.082
71157W        W36637  41.357   5.288   9.990
71158W        W36638  37.430   8.713   0.466
71159W        W36639   9.211   8.215  11.500
71160W        W36640  25.476  43.846   4.631
71161W        W36641  40.424   5.848  13.858
71162W        W36642   1.868  31.991  12.551
71163W        W36643  13.268  26.616   1.871
71164W        W36644  22.223  43.292  10.002
71165W        W36645  25.467  35.991   2.274
71166W        W36646  35.040  30.974  13.859
71167W        W36647  15.732  30.448   2.840
71168W        W36648   3.955   0.262   3.335
71169W        W36649  20.705  12.169   4.711
71170W        W36650  40.922  23.012  11.470
71171W        W36651  22.730  31.129  12.535
71172W        W36652  39.822  39.825  14.390
71173W        W36653  40.947  33.618   2.791
71174W        W36654   4.770  32.622   1.728
71175W        W36655  25.078   8.838  11.480
71176W        W36656  36.859   7.397  12.872
71177W        W36657  14.275  15.600  11.527
71178W        W36658  17.182  16.230   0.810
71179W        W36659  15.111  14.217   0.864
71180W        W36660  31.441   7.889   2.355
71181W        W36661   5.412  20.693  10.488
71182W        W36662  24.028  11.646  11.910
71183W        W36663  27.181  36.470  13.436
71184W        W36664  19.699  12.276  10.933
71185W        W36665  39.937  17.170   0.405
71186W        W36666   7.686  35.941   0.326
71187W        W36667  19.149  44.764   4.184
71188W        W36668  19.068  10.140   4.770
71189W        W36669  27.033  10.170   0.417
71190W        W36670   7.407  21.261  12.348
71191W        W36671  39.428  21.017   0.383
71192W        W36672  27.949  18.731  13.993
71193W        W36673  21.684  35.857  12.450
71194W        W36674  40.973  29.645  12.572
71195W        W36675  25.533   4.891   4.805
71196W        W36676  28.001  36.451   0.380
71197W        W36677  17.296  41.882   2.305
71198W        W36678   4.909   3.344  10.965
71199W        W36679   1.416  15.815   4.618
71200W        W36680  15.156   8.816   4.181
71201W        W36681  32.600  19.633   1.840
71202W        W36682  16.152  13.640  12.357
71203W        W36683   8.388   6.745   0.446
71204W        W36684  36.510  40.974   4.828
71205W        W36685   0.880  33.420  14.314
71206W        W36686  10.807  16.654  13.489
71207W        W36687  29.989   4.449   3.185
71208W        W36688  32.038  39.864   1.852
71209W        W36689  29.145   9.225   2.370
71210W        W36690  10.158   9.733  13.429
71211W        W36691  40.900   4.844  11.069
71212W        W36692  33.915   6.404  11.896
71213W        W36693  25.507   2.376   2.369
71214W        W36694  11.298  36.421   0.729
71215W        W36695  11.830   2.343  11.486
71216W        W36696  32.530  40.000  11.489
71217W        W36697  13.347  15.111   3.354
71218W        W36698   9.220  42.022  13.402
71219W        W36699  33.083   1.299  13.917
71220W        W36700  37.849  20.143  13.539
71221W        W36701   1.862  27.468   3.741
71222W        W36702  33.582  14.098   1.910
71223W        W36703  20.670   9.853  12.076
71224W        W36704  28.140  22.053  13.385
71225W        W36705   1.320  32.983  13.401
71226W        W36706  33.546  17.630   4.113
71227W        W36707  12.782  17.707   0.387
71228W        W36708  33.114  16.285  13.361
71229W        W36709   6.900   3.933  11.871
71230W        W36710  29.602  11.621  11.534
71231W        W36711  42.852   0.889   4.619
71232W        W36712   0.772  26.602   4.255
71233W        W36713  44.009  34.112   3.254
71234W        W36714  28.657  36.024   4.316
71235W        W36715  26.518  14.654  12.498
71236W        W36716  19.103   7.871   0.776
71237W        W36717  43.427  27.066  12.434
71238W        W36718  40.338  28.594  14.308
71239W        W36719  41.926  13.741  13.964
71240W        W36720  41.871   5.248   3.654
71241W        W36721  12.738  42.361  12.960
71242W        W36722  28.099   1.761  12.421
71243W        W36723  19.150  42.844   1.818
71244W        W36724  15.208   2.801   0.422
71245W        W36725  23.621  30.099  14.872
71246W        W36726  43.365  27.634   1.820
71247W        W36727  33.438   5.240   0.964
71248W        W36728  34.427  43.017  12.034
71249W        W36729  22.675  42.346  12.963
71250W        W36730  27.529  38.936   4.816
71251W        W36731   6.312  13.691  11.407
71252W        W36732  11.864   3.736  11.432
71253W        W36733  13.197  24.090   4.310
71254W        W36734  33.426  41.412  10.434
71255W        W36735  27.150  10.173  10.607
71256W        W36736  34.582   8.734   1.852
71257W        W36737  37.881  40.369  12.485
71258W        W36738  23.158   7.887   2.223
71259W        W36739  23.063  36.085  14.970
71260W        W36740  12.739  42.370  13.991
71261W        W36741  30.960  23.618   1.849
71262W        W36742  26.571  28.933  13.901
71263W        W36743   8.380  43.962   4.696
71264W        W36744   8.735  22.550  13.307
71265W        W36745  22.720  37.843   1.873
71266W        W36746  39.845  19.742  14.962
71267W        W36747  42.807   9.276   3.372
71268W        W36748  10.183  35.947  14.340
71269W        W36749  42.325   1.284   4.702
71270W        W36750  37.960   0.754   3.200
71271W        W36751  43.399  44.405  11.393
71272W        W36752  37.540  18.722  12.473
71273W        W36753  25.564  29.042  10.405
71274W        W36754  39.503  17.668   0.950
71275W        W36755  37.515  35.373  12.902
71276W        W36756   7.253  26.053  10.960
71277W        W36757  29.520  30.534   4.284
71278W        W36758  33.880  43.302   3.165
71279W        W36759  27.618   8.337  12.402
71280W        W36760  28.475  28.138  11.608
71281W        W36761   4.722  22.179   2.300
71282W        W36762  36.575  27.490  13.828
71283W        W36763  14.784   2.811   2.780
71284W        W36764  33.031  11.291  10.589
71285W        W36765  16.106  35.862   9.933
71286W        W36766   5.402  13.682  12.463
71287W        W36767  38.557  37.865   3.773
71288W        W36768  11.238  43.485   1.778
71289W        W36769   4.275  10.371   0.269
71290W        W36770   8.319  17.708   1.806
71291W        W36771  16.169   3.437  12.025
71292W        W36772   8.363  11.344  14.499
71293W        W36773  11.179  21.640   2.773
71294W        W36774  27.051  20.255  12.090
71295W        W36775  36.017  35.411  10.911
71296W        W36776  39.974  20.554   2.770
71297W        W36777  27.656  22.055   3.206
71298W        W36778   1.396  18.672  14.819
71299W        W36779  40.457   5.823   2.189
71300W        W36780  42.516  17.662   1.229
71301W        W36781  12.683  10.360  14.912
71302W        W36782  24.070   0.267  11.580
71303W        W36783  33.554  27.136  14.368
71304W        W36784  35.071  12.805   0.298
71305W        W36785   3.222  27.128   0.317
71306W        W36786   1.781  41.379   0.768
71307W        W36787  42.390  11.133  11.041
71308W        W36788  39.856  31.905   0.295
71309W        W36789  38.058  41.930  11.102
71310W        W36790   9.747   5.371  11.090
71311W        W36791  27.537   2.289  11.989
71312W        W36792  26.547  44.920   2.832
71313W        W36793  32.469   4.925  11.857
71314W        W36794  13.116  27.637  12.860
71315W        W36795  25.147  12.632   0.782
71316W        W36796   2.231   1.241  13.032
71317W        W36797   7.776   6.853   3.856
71318W        W36798  20.584  30.139  13.828
71319W        W36799  41.303  35.483  13.311
71320W        W36800   5.742  20.690  14.851
71321W        W36801   8.367  30.020   1.368
71322W        W36802  28.615  25.092   0.736
71323W        W36803  17.216  28.467   1.736
71324W        W36804  16.803  22.012  12.840
71325W        W36805  21.519  29.465   2.876
71326W        W36806  33.902  44.343  11.079
71327W        W36807  20.176  36.016  13.334
71328W        W36808  18.785  15.822   2.336
71329W        W36809   1.777  20.761  14.357
71330W        W36810   2.822  26.662   1.212
71331W        W36811  33.476   7.417  13.459
71332W        W36812  11.235  40.889  10.978
71333W        W36813  21.595  38.348  14.368
71334W        W36814  29.520  31.591   2.354
71335W        W36815   1.463  39.983   4.672
71336W        W36816  34.405  23.548  11.882
71337W        W36817   2.952  11.781  11.921
71338W        W36818  26.606  16.620  14.404
71339W        W36819  29.478   3.833  13.438
71340W        W36820  41.808   5.789  11.905
71341W        W36821   7.371  23.699   3.794
71342W        W36822  38.833  20.211  13.402
71343W        W36823  44.408  17.701  10.418
71344W        W36824  40.941  20.114  10.411
71345W        W36825  17.306  32.956   2.234
71346W        W36826  16.228  32.468  12.827
71347W        W36827  10.356  17.569   2.682
71348W        W36828   4.870   2.858   9.949
71349W        W36829  11.332  37.950  12.561
71350W        W36830  24.031   4.702   0.256
71351W        W36831   1.348   8.706  12.068
71352W        W36832  37.870  39.046  10.482
71353W        W36833  44.906  22.567  13.033
71354W        W36834  15.821  22.697   2.815
71355W        W36835  30.970  25.485   1.373
71356W        W36836   5.811  35.966   1.262
71357W        W36837  27.148  18.120   1.217
71358W        W36838  39.390   5.838   3.828
71359W        W36839   4.745   8.200   5.313
71360W        W36840  42.307  22.196  10.892
71361W        W36841  28.057  20.668  12.962
71362W        W36842  38.540  22.542   2.808
71363W        W36843  36.027  19.597   2.782
71364W        W36844  23.208  15.218  13.543
71365W        W36845  13.621  26.083  10.413
71366W        W36846   7.687  14.673  13.032
71367W        W36847  15.688  30.445  12.885
71368W        W36848  34.110  13.175   1.820
71369W        W36849  28.613   8.161   1.381
71370W        W36850  44.797  16.646   1.297
71371W        W36851   8.358  34.494   4.168
71372W        W36852   7.771  43.392  13.003
71373W        W36853   0.852  29.109   3.354
71374W        W36854   9.882  21.723   1.750
71375W        W36855  28.558  25.171  11.441
71376W        W36856  25.109  29.061  14.945
71377W        W36857  35.585   5.826   3.165
71378W        W36858  12.300  26.998  12.945
71379W        W36859  19.161  37.856  13.369
71380W        W36860  39.396  10.198  10.145
71381W        W36861  25.028   4.224   0.326
71382W        W36862  37.508  40.393   4.339
71383W        W36863  32.137  34.869   0.404
71384W        W36864  27.967  28.149  13.890
71385W        W36865  29.627  41.449  14.808
71386W        W36866   6.859  18.622   1.337
71387W        W36867   2.783  21.750   3.773
71388W        W36868  17.799  37.536  10.558
71389W        W36869   4.295  18.246   3.840
71390W        W36870  43.866   2.739  12.992
71391W        W36871  23.101  29.935  13.842
71392W        W36872   3.394  19.623   2.889
71393W        W36873  12.300  33.965  14.890
71394W        W36874  40.379  19.557   2.330
71395W        W36875  17.753  43.934  12.940
71396W        W36876   8.233  26.549   2.195
71397W        W36877  16.305  20.728  12.054
71398W        W36878  30.067   9.886   0.309
71399W        W36879  35.970  22.189   1.926
71400W        W36880   7.889  16.141  12.372
71401W        W36881   6.423  18.208  14.453
71402W        W36882  24.660   2.300  13.847
71403W        W36883   8.687  19.727  13.003
71404W        W36884  33.499  24.169  11.959
71405W        W36885   4.804  12.659   0.842
71406W        W36886   9.754  20.628  14.323
71407W        W36887   5.229  43.962  11.471
71408W        W36888  39.532  34.379   3.730
71409W        W36889  30.150   7.267   3.157
71410W        W36890  24.094  32.089   4.238
71411W        W36891  32.028  16.293  12.358
71412W        W36892   5.318  10.730  14.421
71413W        W36893   1.433  23.231  13.949
71414W        W36894   9.255  43.399   3.299
71415W        W36895  28.944  30.442  12.847
71416W        W36896  33.904   6.865  14.930
71417W        W36897  42.827  15.810   2.818
71418W        W36898   5.927  36.382  14.881
71419W        W36899   4.384  24.591  12.980
71420W        W36900  20.639  31.095   4.347
71421W        W36901  19.721  24.512  14.987
71422W        W36902   1.270  16.214  10.924
71423W        W36903   3.339  42.355   1.790
71424W        W36904  37.410  15.132  13.858
71425W        W36905  24.583  15.319   0.942
71426W        W36906   5.429  31.924   3.868
71427W        W36907  21.072  11.361   1.420
71428W        W36908   8.880  20.096   2.301
71429W        W36909   6.273  21.739   3.190
71430W        W36910  15.711   3.789   3.846
71431W        W36911  35.372  35.603  12.910
71432W        W36912  18.265  34.445   1.301
71433W        W36913  10.192  10.813   4.299
71434W        W36914  18.672  30.956  10.457
71435W        W36915  23.023  36.044  11.428
71436W        W36916  32.134  25.538   4.699
71437W        W36917  27.094   1.786   4.114
71438W        W36918  41.509  17.094   3.197
71439W        W36919  41.316   0.814  12.979
71440W        W36920  26.581  41.476   2.280
71441W        W36921  10.710   5.221   2.866
71442W        W36922  44.490  42.374  12.415
71443W        W36923  26.975  22.085  10.983
71444W        W36924  38.918   1.905  13.016
71445W        W36925   9.669  34.042  12.005
71446W        W36926  29.448  35.435  14.966
71447W        W36927  14.625  35.002  13.543
71448W        W36928  35.991  27.041   5.220
71449W        W36929  18.226   4.774  11.944
71450W        W36930   1.414   5.234   2.271
71451W        W36931  31.100  42.368   3.185
71452W        W36932  20.137  29.949   0.872
71453W        W36933  21.570  28.656   3.318
71454W        W36934  33.583  37.366  10.961
71455W        W36935  32.483  25.485  12.487
71456W        W36936  22.563  15.822  12.836
71457W        W36937   3.784   4.926  11.502
71458W        W36938  16.722  32.944  11.435
71459W        W36939  18.782  28.588  13.948
71460W        W36940   0.437  36.915   0.857
71461W        W36941  32.497  14.757   1.713
71462W        W36942   9.193  36.007  14.811
71463W        W36943  19.258   5.886   1.383
71464W        W36944  14.221  19.152   3.651
71465W        W36945  25.206   7.782  14.456
71466W        W36946  23.207  27.176  11.998
71467W        W36947  20.560  36.041  13.895
71468W        W36948  10.205  31.522  12.912
71469W        W36949  23.522  19.550  13.545
71470W        W36950  44.393  17.784   0.839
71471W        W36951   4.284  31.547  14.939
71472W        W36952   8.785  34.030  13.380
71473W        W36953   4.254  42.474  13.879
71474W        W36954  36.485   4.759   2.825
71475W        W36955  35.036  32.417   0.734
71476W        W36956   3.945  11.362  12.498
71477W        W36957   1.404   4.366  12.825
71478W        W36958  19.649   7.793  11.954
71479W        W36959  12.679  27.978   2.663
71480W        W36960   1.238  41.834   3.190
71481W        W36961   3.219  18.057  14.436
71482W        W36962   7.811  28.496  12.467
71483W        W36963  20.611  36.057  11.416
71484W        W36964   6.771  10.682  12.483
71485W        W36965  23.535  33.493  13.483
71486W        W36966  24.073  17.105  14.316
71487W        W36967  26.688  23.682  13.513
71488W        W36968  21.513  30.105  10.543
71489W        W36969  10.281  28.489  10.481
71490W        W36970  12.834  36.933   2.277
71491W        W36971   5.866  36.843  11.961
71492W        W36972   7.347  41.434  10.993
71493W        W36973  13.647  15.651  12.557
71494W        W36974  39.481  31.617  14.958
71495W        W36975   2.441  36.860  12.349
71496W        W36976  22.074  22.508  11.377
71497W        W36977  18.100  44.839  10.501
71498W        W36978  29.557  33.928   4.241
71499W        W36979   5.400   8.785  13.846
71500W        W36980   1.807  39.062   4.672
71501W        W36981  31.016   1.858  12.002
71502W        W36982  42.289   9.764  13.414
71503W        W36983  38.371   6.332  14.892
71504W        W36984   7.878  29.964   0.453
71505W        W36985  28.123  37.885   0.376
71506W        W36986  25.636  39.823   4.348
71507W        W36987   5.435  27.057   3.290
71508W        W36988   4.719  27.511   0.893
71509W        W36989  15.769  10.636   0.808
71510W        W36990   2.371  35.108  14.800
71511W        W36991  44.995   4.231   0.895
71512W        W36992  29.602  15.633  12.361
71513W        W36993  11.863  24.198   1.903
71514W        W36994  15.785  12.200   3.639
71515W        W36995  24.001  23.585   1.885
71516W        W36996  37.469  39.970  14.301
71517W        W36997   6.219  34.480  11.514
71518W        W36998   4.901  19.775   4.238
71519W        W36999  43.284  17.283   4.276
71520W        W37000  17.563  29.940  14.387
71521W        W37001  31.474  11.862  13.449
71522W        W37002  11.250  28.559  13.824
71523W        W37003  26.556  31.635  14.892
71524W        W37004  43.482  35.422   4.829
71525W        W37005   6.278  43.427  10.965
71526W        W37006  29.647  32.437   2.329
71527W        W37007  29.425  24.036  13.452
71528W        W37008  19.672  43.772   3.216
71529W        W37009  38.005  11.244   4.767
71530W        W37010  12.834   9.372  14.299
71531W        W37011  13.688  31.440  13.027
71532W        W37012  25.122  35.454   0.740
71533W        W37013  32.626  10.346   0.459
71534W        W37014  35.595  21.689   3.281
71535W        W37015   1.444  23.091  13.411
71536W        W37016  23.620  42.878   1.371
71537W        W37017  38.571  28.158   1.824
71538W        W37018   7.208  18.129  11.075
71539W        W37019  27.576  40.021  10.456
71540W        W37020  14.606  33.125  10.935
71541W        W37021  29.023  38.941  12.550
71542W        W37022   6.718  24.220   4.795
71543W        W37023  37.452  16.304   1.278
71544W        W37024  16.091  19.266   4.728
71545W        W37025  22.649   4.358  14.900
71546W        W37026   5.863  21.733  10.440
71547W        W37027  12.856  11.259   2.679
71548W        W37028  16.570  27.627  11.111
71549W        W37029  22.545  17.718   1.863
71550W        W37030  43.368  23.685   1.787
71551W        W37031   0.369  44.270   1.296
71552W        W37032  41.977  15.163  13.471
71553W        W37033  10.363  29.093  10.417
71554W        W37034   6.832  28.447   1.703
71555W        W37035   1.456  32.091   3.160
71556W        W37036  39.833   7.771   2.718
71557W        W37037  13.299  17.249   4.729
71558W        W37038  26.693  23.205  13.880
71559W        W37039  19.589  14.142  11.989
71560W        W37040   0.427  31.100  10.569
71561W        W37041  16.682  37.369  13.981
71562W        W37042  43.395  27.149   2.785
71563W        W37043  38.840  37.430  13.427
71564W        W37044  16.632  44.315  12.517
71565W        W37045  44.449  27.525   1.446
71566W        W37046   3.711  41.893   4.650
71567W        W37047  10.281  43.327   3.269
71568W        W37048  12.643  37.843  11.037
71569W        W37049  44.407   3.422  13.837
71570W        W37050  14.739   2.468  10.995
71571W        W37051  41.966   4.862  13.993
71572W        W37052  43.490   8.239  14.023
71573W        W37053  38.867  16.170   2.712
71574W        W37054  33.876  44.838   1.823
71575W        W37055   7.351   1.397   0.428
71576W        W37056  17.174  31.541   4.664
71577W        W37057  14.103  11.368   0.841
71578W        W37058  38.038  19.045   1.437
71579W        W37059  25.690   0.342   0.817
71580W        W37060   6.787  39.529   1.798
71581W        W37061  28.143   5.341   0.384
71582W        W37062  29.158  28.657  11.558
71583W        W37063  15.734  11.371  14.307
71584W        W37064   4.347  14.160  12.496
71585W        W37065  32.973  38.378  14.782
71586W        W37066  38.900  27.667  10.585
71587W        W37067   2.233  19.224   1.279
71588W        W37068  40.397  23.004   2.308
71589W        W37069   8.297  16.108   1.728
71590W        W37070   2.426  38.933   5.319
71591W        W37071  43.493  28.085  11.936
71592W        W37072   3.285  31.568  11.103
71593W        W37073  22.678  40.425  13.522
71594W        W37074   5.850  32.520   4.173
71595W        W37075  27.597  43.901   3.173
71596W        W37076   1.405   6.226  14.941
71597W        W37077  36.880  42.980  11.932
71598W        W37078  22.539   5.403   3.695
71599W        W37079   9.172  20.156   1.414
71600W        W37080  34.474  38.970  13.341
71601W        W37081  27.021   4.289  13.541
71602W        W37082  36.970  22.055  11.039
71603W        W37083  17.703  29.571   0.392
71604W        W37084  27.623  25.177  11.452
71605W        W37085  34.573  11.866   0.802
71606W        W37086  19.569   0.422  12.955
71607W        W37087  37.503  21.121  12.941
71608W        W37088   2.247  21.520   0.401
71609W        W37089  21.029  21.133  11.022
71610W        W37090  21.601  40.981   4.711
71611W        W37091  43.910  44.260  11.077
71612W        W37092  17.256  32.934  11.018
71613W        W37093  18.058   7.250   2.229
71614W        W37094  27.465  27.448  12.919
71615W        W37095  38.872  12.332   4.827
71616W        W37096  15.698  39.497  12.876
71617W        W37097  22.098  17.782  13.832
71618W        W37098  43.402  44.332   4.786
71619W        W37099   2.774   7.883   0.294
71620W        W37100  15.692  24.672   0.912
71621W        W37101  37.404  16.801  11.399
71622W        W37102  39.990  30.073   2.266
71623W        W37103  22.135  42.319  10.599
71624W        W37104  43.462  31.411  14.904
71625W        W37105  35.511   6.868   1.403
71626W        W37106   9.272  19.611  12.515
71627W        W37107  19.675  17.139   4.821
71628W        W37108  41.300   7.292  11.100
71629W        W37109   9.705  42.436   4.646
71630W        W37110   8.300  42.780   1.363
71631W        W37111  43.849   9.710   2.826
71632W        W37112  29.097  36.388  11.076
71633W        W37113  20.093  15.187   2.279
71634W        W37114  15.296  33.544  13.815
71635W        W37115   3.313  33.477  14.397
71636W        W37116  34.424   9.717  13.959
71637W        W37117  42.358  20.267  11.867
71638W        W37118  30.473  44.871   3.798
71639W        W37119  31.916   3.443   2.692
71640W        W37120  35.402  34.113  14.315
71641W        W37121  29.531  18.712   0.850
71642W        W37122  11.304  14.230  11.090
71643W        W37123  36.363   1.778  13.839
71644W        W37124   6.888  19.158   1.793
71645W        W37125  26.105   9.671  14.853
71646W        W37126  39.896  40.001   0.403
71647W        W37127   8.291  29.521   0.791
71648W        W37128  17.141   2.729   1.892
71649W        W37129   0.295  21.099   1.442
71650W        W37130   0.441  20.526  13.030
71651W        W37131  30.590  36.964  13.889
71652W        W37132  32.116  18.612  10.922
71653W        W37133  15.790  44.279  11.402
71654W        W37134  15.114   8.351   4.342
71655W        W37135  31.922  23.635  14.943
71656W        W37136  30.086  38.985  13.827
71657W        W37137  22.176  40.337   3.868
71658W        W37138  39.870  10.256   2.362
71659W        W37139  22.600  35.536  14.893
71660W        W37140  40.885   8.696   2.249
71661W        W37141  41.959  43.874   1.234
71662W        W37142  19.180   0.249  11.922
71663W        W37143  28.669  43.867  13.965
71664W        W37144   4.704  28.971  14.443
71665W        W37145  29.594   8.382   3.799
71666W        W37146  38.335  17.635   2.207
71667W        W37147  37.905   3.897   3.724
71668W        W37148   1.442  13.108  11.467
71669W        W37149  38.836  29.166   3.273
71670W        W37150   0.833  35.910   2.359
71671W        W37151   4.363  36.896   4.323
71672W        W37152   2.426  22.730   2.256
71673W        W37153  20.217  41.029   1.229
71674W        W37154   5.200   8.781   4.817
71675W        W37155  10.377  38.361   3.237
71676W        W37156  21.703  42.798   4.787
71677W        W37157   2.235  13.144  12.432
71678W        W37158  41.427  34.549  12.510
71679W        W37159  42.339  40.326   0.303
71680W        W37160  37.909  19.096   0.260
71681W        W37161   3.824  23.992   2.352
71682W        W37162  21.127  42.421  10.945
71683W        W37163  44.439  40.996  12.058
71684W        W37164   7.415  39.396   0.299
71685W        W37165  15.580   4.889   3.664
71686W        W37166   9.284   5.814   3.822
71687W        W37167   5.384   8.659   1.219
71688W        W37168  28.134  41.394   2.396
71689W        W37169  10.702   5.854   3.707
71690W        W37170  22.625   3.314   1.721
71691W        W37171  33.924   3.737  13.366
71692W        W37172  41.369  13.616   2.727
71693W        W37173   8.713  30.973   3.153
71694W        W37174  11.162  37.511   1.705
71695W        W37175  25.017   5.814  14.397
71696W        W37176  30.145  13.621   2.861
71697W        W37177   4.766  28.086  12.349
71698W        W37178  44.502   2.838  13.820
71699W        W37179  44.419  29.077  13.809
71700W        W37180  10.328   0.302   2.788
71701W        W37181   3.742  44.277   1.764
71702W        W37182  22.587   8.187  14.909
71703W        W37183   8.372  39.943  12.976
71704W        W37184  44.435   6.327   3.770
71705W        W37185  19.058  33.102  13.962
71706W        W37186  36.552  25.166  14.997
71707W        W37187   7.743  21.614   0.272
71708W        W37188  15.274  26.470  12.432
71709W        W37189  44.881  20.041  13.926
71710W        W37190  21.119  23.593   0.944
71711W        W37191   5.703  10.229  11.373
71712W        W37192  43.849   9.839  12.038
71713W        W37193  27.057  41.805  13.388
71714W        W37194  27.976  24.543   0.759
71715W        W37195  42.820  10.318  14.882
71716W        W37196  17.293   5.711  12.490
71717W        W37197  29.601  27.664  13.405
71718W        W37198  44.807  12.354   2.355
71719W        W37199   1.345   3.298   4.262
71720W        W37200  31.605  36.850  13.526
71721W        W37201   9.746  16.310   4.182
71722W        W37202   5.817  20.659   0.948
71723W        W37203  27.036  34.434   1.756
71724W        W37204  42.310  40.349  12.964
71725W        W37205  36.501  16.762   3.311
71726W        W37206  12.691   5.215  10.530
71727W        W37207   9.229  44.902   4.604
71728W        W37208  31.468  20.740  14.931
71729W        W37209  10.668  20.103  13.799
71730W        W37210  11.866  41.463   1.310
71731W        W37211  36.456   0.910  12.482
71732W        W37212  20.101  17.306   1.782
71733W        W37213  38.479  32.405  14.496
71734W        W37214  35.891  11.302   4.343
71735W        W37215   2.241  14.214  14.395
71736W        W37216  22.007  37.419   3.304
71737W        W37217  25.591   9.158  13.379
71738W        W37218  36.427  32.121   1.335
71739W        W37219  10.681  36.352  11.389
71740W        W37220   7.711  23.594  13.325
71741W        W37221   4.751  14.768   0.873
71742W        W37222  39.962   7.354   1.412
71743W        W37223  22.609  14.222  12.025
71744W        W37224  10.751   4.300  12.832
71745W        W37225  23.236  25.519   2.265
71746W        W37226  41.443  29.074   4.353
71747W        W37227  44.813  44.464  12.829
71748W        W37228  18.592  16.740   2.797
71749W        W37229  34.893  24.558  13.413
71750W        W37230  27.126  43.997  12.067
71751W        W37231   5.220  44.010  14.896
71752W        W37232  18.740   7.251  10.637
71753W        W37233  18.604  22.169  10.922
71754W        W37234  11.739   0.744  12.964
71755W        W37235  21.529  30.040  12.498
71756W        W37236  41.341  44.270   1.792
71757W        W37237  32.512  38.462  11.871
71758W        W37238  10.250  27.489   2.765
71759W        W37239  23.992  44.435   1.722
71760W        W37240   8.665  13.251   1.741
71761W        W37241  41.383   9.221   4.308
71762W        W37242  21.705   2.235   4.143
71763W        W37243  27.984  23.651   0.785
71764W        W37244  36.054  23.130  13.831
71765W        W37245  28.043  41.294  13.944
71766W        W37246  20.092  25.508   4.271
71767W        W37247  37.924  23.182  11.612
71768W        W37248   3.401  40.431  11.541
71769W        W37249  15.117  10.658   2.257
71770W        W37250  21.686  11.138   4.616
71771W        W37251  21.593  33.084  13.527
71772W        W37252  31.028  44.412  12.510
71773W        W37253  23.192  44.811   4.652
71774W        W37254  16.204   4.219   3.246
71775W        W37255  11.631  33.426   4.307
71776W        W37256  43.343  32.924  11.433
71777W        W37257  31.024  40.899   3.670
71778W        W37258   4.724  20.584   0.823
71779W        W37259   6.705  14.273  11.499
71780W        W37260   8.825  11.273   0.451
71781W        W37261  38.069  17.082  12.080
71782W        W37262  41.321   5.325   9.661
71783W        W37263  15.257  27.165   2.383
71784W        W37264  23.496  23.605  13.989
71785W        W37265  25.131  19.590   3.707
71786W        W37266  21.044  17.632   0.328
71787W        W37267  27.080  21.049  10.942
71788W        W37268  27.070  26.133   2.710
71789W        W37269  39.463  14.176   3.685
71790W        W37270  21.572   2.811   3.221
71791W        W37271   7.218  26.020   0.323
71792W        W37272  20.212  10.757   0.248
71793W        W37273  37.487  35.096  10.900
71794W        W37274  21.078  33.620   1.421
71795W        W37275  41.391  30.428  14.787
71796W        W37276  41.933  30.031  14.008
71797W        W37277   1.268  20.197   0.437
71798W        W37278  36.850  34.413  11.965
71799W        W37279   3.928  37.871  12.030
71800W        W37280  34.476  27.187  12.952
71801W        W37281   4.282  27.053   4.731
71802W        W37282   2.894  27.577  12.349
71803W        W37283  38.063  33.478   3.871
71804W        W37284  39.045   8.877   1.799
71805W        W37285  44.338   5.341   4.802
71806W        W37286   8.394  39.405  10.643
71807W        W37287   7.742  38.326  12.385
71808W        W37288  43.292   2.457  14.899
71809W        W37289  41.397  15.321   3.630
71810W        W37290  42.841   3.877   4.306
71811W        W37291  15.823  12.225   1.738
71812W        W37292   0.808   4.259  10.541
71813W        W37293   0.312   3.777   1.901
71814W        W37294  18.085  17.677   2.350
71815W        W37295  32.508  44.330  14.469
71816W        W37296  12.171   2.900   4.232
71817W        W37297  16.123  28.991  10.449
71818W        W37298  30.056  26.579  10.996
71819W        W37299   4.299  21.084  14.449
71820W        W37300   9.647   9.778  12.069
71821W        W37301   7.815  39.474  12.432
71822W        W37302  18.552   7.355  11.036
71823W        W37303  22.649  33.600  13.824
71824W        W37304  10.737  25.484   4.285
71825W        W37305  13.721  32.069  11.553
71826W        W37306  39.987  35.089   3.641
71827W        W37307  30.155   5.866  12.390
71828W        W37308   3.239   7.837   4.627
71829W        W37309  43.373   6.314  14.848
71830W        W37310  34.087  10.859  11.947
71831W        W37311  14.646  35.004   0.850
71832W        W37312  13.163  41.939  14.301
71833W        W37313  41.919  40.439  14.869
71834W        W37314  37.915  43.487  13.013
71835W        W37315  31.963  43.468   4.770
71836W        W37316   3.751  27.654  12.365
71837W        W37317   8.776  39.842   2.766
71838W        W37318  34.517  28.067   1.353
71839W        W37319  43.492  44.936   2.667
71840W        W37320  43.988  19.203   2.890
71841W        W37321   6.331  42.027   3.666
71842W        W37322  41.345  29.053   1.892
71843W        W37323  33.035  25.467  10.511
71844W        W37324  21.209  35.006   4.259
71845W        W37325   3.948  37.468   0.738
71846W        W37326  22.661  12.356  11.538
71847W        W37327   4.320  28.636  13.520
71848W        W37328  42.405  34.120   0.481
71849W        W37329  32.039  16.750  14.884
71850W        W37330  15.152  26.090   3.753
71851W        W37331  17.149  40.802   2.852
71852W        W37332  37.082   4.314  14.973
71853W        W37333  13.627  10.313  12.020
71854W        W37334   8.845   1.946  10.507
71855W        W37335  42.805  30.555   4.179
71856W        W37336  18.087   7.808  12.539
71857W        W37337  30.946   3.380  12.463
71858W        W37338  39.051  13.237   1.861
71859W        W37339   9.177  43.952   0.353
71860W        W37340   9.703  12.694   1.756
71861W        W37341  40.483   1.276  14.437
71862W        W37342   3.412  37.534   3.637
71863W        W37343  29.103  40.021  13.809
71864W        W37344  24.230  19.712  11.869
71865W        W37345  17.767   5.344  13.537
71866W        W37346   5.755  33.521  12.946
71867W        W37347  31.619  41.392  14.983
71868W        W37348  41.481  33.461   2.674
71869W        W37349   8.177  44.834  12.011
71870W        W37350   6.898  38.519  10.595
71871W        W37351  24.608  23.584  14.011
71872W        W37352  17.270  42.298  11.954
71873W        W37353  18.177  18.173  13.847
71874W        W37354   8.810   4.841   2.761
71875W        W37355  16.306  24.042   0.861
71876W        W37356  15.743  23.637   3.250
71877W        W37357  17.297  20.633  13.544
71878W        W37358   7.873  37.485  14.279
71879W        W37359  37.023  44.290  14.415
71880W        W37360  16.109   2.836   3.782
71881W        W37361  19.748   7.798   2.372
71882W        W37362  35.009  34.906   1.773
71883W        W37363  35.473   8.282   3.204
71884W        W37364  27.482  18.765   1.830
71885W        W37365  27.515  24.607  13.493
71886W        W37366  16.279  29.957   1.927
71887W        W37367   6.270  35.080  13.442
71888W        W37368  11.859   8.877   3.721
71889W        W37369  41.916  41.295  13.961
71890W        W37370  38.359  23.987   1.289
71891W        W37371   2.448  28.580   3.826
71892W        W37372  43.340  27.182   1.747
71893W        W37373  22.640  39.509  13.348
71894W        W37374  25.627   2.346   3.332
71895W        W37375  43.973  27.493   1.240
71896W        W37376   3.930  43.813  12.520
71897W        W37377   5.386   3.438  12.553
71898W        W37378  31.974  12.650   4.760
71899W        W37379  29.040  25.691  13.830
71900W        W37380   7.736  41.305   3.211
71901W        W37381  30.016   9.735   1.229
71902W        W37382  42.300  26.188   0.393
71903W        W37383  25.505  18.157   3.737
71904W        W37384  41.440  24.614  13.950
71905W        W37385  23.081  26.699  14.874
71906W        W37386  30.036   9.213   0.872
71907W        W37387   6.283  42.472  10.899
71908W        W37388  23.704   9.825  11.112
71909W        W37389  10.227  32.399  12.932
71910W        W37390   5.430  22.651  13.018
71911W        W37391   9.231  18.658  12.523
71912W        W37392   9.772   1.271   1.833
71913W        W37393  11.649  30.015   1.443
71914W        W37394  30.446  37.020  13.431
71915W        W37395  40.871  31.908  11.108
71916W        W37396  28.101  44.297  12.547
71917W        W37397  40.966   8.731  10.623
71918W        W37398  12.313  37.384  14.819
71919W        W37399  15.579  34.492  14.464
71920W        W37400  21.596   7.903  14.997
71921W        W37401  41.868  17.299  14.391
71922W        W37402  30.509  42.897  11.598
71923W        W37403  25.039  14.187  14.782
71924W        W37404   4.780  26.093   1.405
71925W        W37405  33.086  34.391  14.419
71926W        W37406   7.214  33.935   3.266
71927W        W37407  22.677  27.532  12.972
71928W        W37408  28.506  37.882  14.985
71929W        W37409   6.843   3.906  10.418
71930W        W37410   5.836   9.871   4.803
71931W        W37411  34.587   2.408   4.114
71932W        W37412   5.432  40.408   0.385
71933W        W37413  16.318  38.440  13.799
71934W        W37414  23.588  24.181  10.587
71935W        W37415  10.865  19.145   3.842
71936W        W37416  22.601  19.051   4.315
71937W        W37417  41.528  21.068   0.421
71938W        W37418  39.828   0.308   1.789
71939W        W37419  14.243  20.633  10.590
71940W        W37420  44.371  23.134  14.386
71941W        W37421  28.163  23.993  14.275
71942W        W37422  30.095  42.326   0.436
71943W        W37423  17.695  29.979   2.196
71944W        W37424  33.081   1.782  14.981
71945W        W37425  26.543   4.238  12.535
71946W        W37426  24.093  37.953  14.009
71947W        W37427  12.321  28.522   2.670
71948W        W37428  17.305  27.581  11.895
71949W        W37429  13.223  36.569   2.308
71950W        W37430  32.086   1.862   1.896
71951W        W37431  13.344  23.064   4.347
71952W        W37432  14.597   1.468   3.326
71953W        W37433   4.378  43.016   3.362
71954W        W37434  10.839  21.614  14.410
71955W        W37435  19.772  21.169  11.426
71956W        W37436  26.123  18.728   3.212
71957W        W37437   6.888  22.160  10.944
71958W        W37438   3.750  27.191  12.374
71959W        W37439  12.224  43.975   4.665
71960W        W37440  30.536   2.310   0.876
71961W        W37441  40.400  13.257   3.297
71962W        W37442   6.868  12.158   2.683
71963W        W37443  40.831  37.578   3.309
71964W        W37444   0.823  22.529   4.150
71965W        W37445   8.331   5.861  13.407
71966W        W37446  30.072  22.139  14.931
71967W        W37447  14.803  40.484  13.530
71968W        W37448  39.995  14.794  11.066
71969W        W37449  43.847  21.127   1.698
71970W        W37450  37.408  24.111  12.404
71971W        W37451  44.435  36.999  14.818
71972W        W37452  12.653  29.618  11.119
71973W        W37453   1.475   0.308   2.669
71974W        W37454   7.759  17.588   2.783
71975W        W37455  32.571  43.890   3.275
71976W        W37456  32.632  16.775   0.829
71977W        W37457  41.314  44.007  14.797
71978W        W37458  33.081   2.405   4.320
71979W        W37459  29.611   6.843  14.984
71980W        W37460  13.815  25.176   1.801
71981W        W37461  27.525  13.683  14.970
71982W        W37462  29.611  26.989   1.700
71983W        W37463   9.771   4.249  13.841
71984W        W37464  18.130  37.023  11.885
71985W        W37465   3.391  44.847  12.823
71986W        W37466  33.434  36.566  10.589
71987W        W37467  11.728  17.227   3.243
71988W        W37468  21.095  13.229  11.581
71989W        W37469  16.102  43.948  10.978
71990W        W37470   5.314  28.154  13.870
71991W        W37471  26.550  18.710  10.557
71992W        W37472  38.075  42.779   2.699
71993W        W37473  18.673  31.455   2.711
71994W        W37474  18.658  32.400   4.783
71995W        W37475   0.951  44.950   4.603
71996W        W37476  12.741   1.378   4.657
71997W        W37477  40.382  40.306   3.287
71998W        W37478  28.961  25.173   3.798
71999W        W37479  20.539   2.753   3.165
72000W        W37480   8.316  17.703   4.770
72001W        W37481  20.096  15.222  14.309
72002W        W37482   5.345  10.730  14.783
72003W        W37483  27.627  11.212  13.989
72004W        W37484   9.271  37.981   4.673
72005W        W37485  17.116  42.802  12.938
72006W        W37486  30.111  23.616   1.814
72007W        W37487  43.477   2.871   4.610
72008W        W37488  31.002  41.400  12.087
72009W        W37489  12.778   9.205   0.806
72010W        W37490  22.058  43.902  13.506
72011W        W37491  16.579  29.934   1.381
72012W        W37492  35.091   3.227   3.336
72013W        W37493  38.466  39.059  11.503
72014W        W37494  12.743   7.676   2.787
72015W        W37495  21.749  14.292   0.886
72016W        W37496  10.720   6.203   1.366
72017W        W37497  44.266  32.976  14.469
72018W        W37498  44.278  14.207  14.448
72019W        W37499   6.819  32.901   0.894
72020W        W37500   5.807  39.550  13.859
72021W        W37501  21.534   6.186  12.556
72022W        W37502  31.986  22.168   3.750
72023W        W37503   6.212  37.455  12.078
72024W        W37504  35.972  14.658  11.438
72025W        W37505  35.894   2.411   3.661
72026W        W37506  21.580  32.919   2.680
72027W        W37507  29.606  36.569   1.931
72028W        W37508   2.247  16.770  10.603
72029W        W37509  35.867  38.821  10.033
72030W        W37510   4.892  24.590  13.897
72031W        W37511  31.503  14.807   0.474
72032W        W37512  20.159  43.890  13.358
72033W        W37513  22.024  29.944   0.275
72034W        W37514  34.416  37.077   2.391
72035W        W37515  12.661  37.337   0.880
72036W        W37516  12.660  13.156  12.009
72037W        W37517  35.099  21.226  10.644
72038W        W37518  44.478  23.085  13.400
72039W        W37519  32.970  11.371   1.411
72040W        W37520  21.220  12.120   2.295
72041W        W37521  15.303   4.357   4.806
72042W        W37522  10.149   1.928  13.404
72043W        W37523  32.912  20.549  12.514
72044W        W37524  34.912   5.314   0.364
72045W        W37525  17.730  36.567   0.481
72046W        W37526  38.355  41.855  13.063
72047W        W37527  40.959   8.378   2.302
72048W        W37528  35.495   4.431   4.705
72049W        W37529   7.684  35.888  11.896
72050W        W37530  30.008  16.210  11.951
72051W        W37531  24.983   8.273  10.523
72052W        W37532  24.005  15.265   1.368
72053W        W37533  27.520   7.859   2.178
72054W        W37534  30.440  43.994  13.477
72055W        W37535  39.828  41.909   2.670
72056W        W37536  41.348  11.682  11.461
72057W        W37537  21.543  10.871   4.698
72058W        W37538   1.748  40.875  13.006
72059W        W37539  22.219   4.335   0.305
72060W        W37540   2.419  44.261   1.405
72061W        W37541  37.950  34.525  14.303
72062W        W37542  26.596   2.465   3.146
72063W        W37543  32.931  34.420   4.829
72064W        W37544  26.157   3.840  13.042
72065W        W37545  29.068  38.362   0.933
72066W        W37546  23.646  31.523  10.488
72067W        W37547  22.200   0.398  14.373
72068W        W37548  13.141  28.495  13.855
72069W        W37549   5.320  17.267  11.441
72070W        W37550   7.768   3.879  11.487
72071W        W37551  10.258  25.058  13.316
72072W        W37552   0.403  38.449  12.505
72073W        W37553  10.658  31.552  11.532
72074W        W37554  25.490  36.464  14.889
72075W        W37555  12.699  19.571  12.566
72076W        W37556  17.110  19.098  12.862
72077W        W37557  33.495   4.283  12.873
72078W        W37558  26.624  23.171   1.759
72079W        W37559  25.039  16.176  12.009
72080W        W37560  19.090  27.466   1.362
72081W        W37561  39.490   3.725   0.453
72082W        W37562   4.818   8.376   4.311
72083W        W37563  30.942  34.966  14.912
72084W        W37564  34.009  14.165  14.014
72085W        W37565  29.429  27.087  14.465
72086W        W37566  20.724  19.213   4.330
72087W        W37567   3.215   9.802  11.980
72088W        W37568  15.789  31.999  14.823
72089W        W37569  13.710  17.687  11.046
72090W        W37570  20.123  20.697  11.968
72091W        W37571  42.909  28.572   1.796
72092W        W37572  13.235  24.010  11.032
72093W        W37573  44.457  40.464   5.292
72094W        W37574  32.899  38.499  10.447
72095W        W37575  18.775  20.683   3.682
72096W        W37576  43.822  27.952   3.827
72097W        W37577  21.089   4.416  14.031
72098W        W37578   4.300   0.425   1.333
72099W        W37579  23.516  12.746   3.323
72100W        W37580  31.553  17.667   4.207
72101W        W37581  36.885  27.992  14.865
72102W        W37582  27.472  21.512   0.293
72103W        W37583  34.424  27.019   0.876
72104W        W37584  41.325  27.153  14.465
72105W        W37585   6.691  30.423  12.475
72106W        W37586  25.710  39.013  10.929
72107W        W37587  33.980  31.519  14.950
72108W        W37588   3.887  30.009   2.254
72109W        W37589  11.279  15.120  13.338
72110W        W37590  36.988  24.216  14.467
72111W        W37591  29.076   2.366   4.826
72112W        W37592  18.052   1.326   4.714
72113W        W37593  42.376  14.163   1.230
72114W        W37594  18.085  21.023   2.758
72115W        W37595  19.724  21.045  10.495
72116W        W37596  40.990  26.969  13.334
72117W        W37597  42.321  18.235   0.910
72118W        W37598  19.280   5.302  12.416
72119W        W37599   3.822  15.084  14.466
72120W        W37600   8.872  41.448  12.929
72121W        W37601  41.948   3.927  14.817
72122W        W37602  15.203  16.195  14.476
72123W        W37603  30.450  13.723  14.985
72124W        W37604  25.620  39.465  11.471
72125W        W37605  27.571  34.038   2.867
72126W        W37606   1.337  42.970  12.079
72127W        W37607  21.027  22.556  13.792
72128W        W37608  34.032  12.120   0.345
72129W        W37609   5.874  37.052  14.796
72130W        W37610   8.222  13.722   1.930
72131W        W37611  13.308  28.460   1.388
72132W        W37612  11.718  25.065  11.551
72133W        W37613  27.576  31.046   2.795
72134W        W37614  15.581  14.679   1.323
72135W        W37615  11.192  42.006  11.058
72136W        W37616  25.469  20.192  11.501
72137W        W37617  10.272  44.272   0.346
72138W        W37618  20.073  20.078  10.470
72139W        W37619  32.919   1.324   0.256
72140W        W37620  44.910  42.010   0.303
72141W        W37621  42.945  40.011  13.841
72142W        W37622  40.384  41.391   0.401
72143W        W37623  17.215  17.747   3.654
72144W        W37624  41.030  26.488   2.820
72145W        W37625   7.806   4.833   5.274
72146W        W37626   7.417  12.784   2.307
72147W        W37627  30.437   2.808   2.881
72148W        W37628  30.984  27.043  13.461
72149W        W37629  41.935   5.258  11.953
72150W        W37630  38.498   0.292  12.933
72151W        W37631   0.293  17.700   0.454
72152W        W37632  28.460  37.893   2.734
72153W        W37633   4.319  31.439   1.440
72154W        W37634  39.538  39.038   4.297
72155W        W37635   1.735   0.976  13.877
72156W        W37636  43.001  37.542   1.393
72157W        W37637   0.896  33.921  13.036
72158W        W37638  14.789  41.829  14.942
72159W        W37639  28.435  43.817   4.208
72160W        W37640   0.398  35.024  12.046
72161W        W37641  20.245  37.423   3.661
72162W        W37642  24.213  32.602   1.223
72163W        W37643  42.969   7.194  13.337
72164W        W37644  37.895  33.991   4.211
72165W        W37645  13.831  23.619   2.376
72166W        W37646   4.373  43.850   3.160
72167W        W37647  30.025   7.794   1.767
72168W        W37648  17.782  42.030   2.224
72169W        W37649  10.258  33.557  11.078
72170W        W37650  11.731  29.540  14.375
72171W        W37651  44.381   4.928   0.913
72172W        W37652  31.116  44.378   0.941
72173W        W37653  42.876   0.956  12.386
72174W        W37654   8.821  27.541  12.516
72175W        W37655  15.727   8.828  10.005
72176W        W37656  40.988  21.134   1.257
72177W        W37657  26.003  36.509   4.290
72178W        W37658  14.339  25.997   3.838
72179W        W37659  11.209  25.607   3.800
72180W        W37660   5.337  27.645   2.812
72181W        W37661  28.066  37.898  12.525
72182W        W37662  44.437  39.810   2.282
72183W        W37663  27.464  36.053   3.740
72184W        W37664   8.201  10.367  11.021
72185W        W37665  32.004  34.464  14.415
72186W        W37666  44.884  35.971   4.215
72187W        W37667  24.667   8.233  13.036
72188W        W37668   8.217  18.269  14.423
72189W        W37669  21.246   4.383   1.861
72190W        W37670  28.628  20.223  14.408
72191W        W37671  23.086  14.251   0.733
72192W        W37672  32.447  22.214  12.504
72193W        W37673  34.427  12.180   3.869
72194W        W37674  13.227  25.698  13.401
72195W        W37675  19.740  25.142  11.518
72196W        W37676   1.789  38.481   4.221
72197W        W37677  20.636  24.165  13.841
72198W        W37678  29.533  15.760   2.200
72199W        W37679   7.702  16.084  14.950
72200W        W37680  20.670  31.621   3.775
72201W        W37681  44.786  28.675  10.625
72202W        W37682  25.182   2.314  12.489
72203W        W37683  22.521   8.686   4.352
72204W        W37684  43.766  32.590  11.963
72205W        W37685   8.679  28.126   1.763
72206W        W37686  20.034  31.909  10.593
72207W        W37687  10.877  35.955  12.900
72208W        W37688  31.511  42.023   0.828
72209W        W37689  16.795  29.518  11.564
72210W        W37690   2.378  28.624  12.833
72211W        W37691   2.457  43.446  14.331
72212W        W37692  24.721  23.002  13.795
72213W        W37693  36.927  28.604   4.210
72214W        W37694  44.810  33.540   2.353
72215W        W37695  34.377  11.863   1.810
72216W        W37696  28.104  32.590  14.495
72217W        W37697  37.554  20.531   0.830
72218W        W37698  10.821  28.587   0.309
72219W        W37699  38.510  20.244   2.794
72220W        W37700  37.895  11.747   4.335
72221W        W37701  10.198  42.952  12.452
72222W        W37702   7.198  31.627   3.722
72223W        W37703  29.021  41.854  12.576
72224W        W37704  20.158  27.630  11.609
72225W        W37705  39.947  23.700  11.464
72226W        W37706  37.858  30.451  11.580
72227W        W37707  38.428  39.000  13.509
72228W        W37708  42.858   1.752  10.473
72229W        W37709  14.800  12.281   4.235
72230W        W37710   9.739   3.403  11.081
72231W        W37711  35.486   4.397   0.440
72232W        W37712  40.930  26.680   1.364
72233W        W37713  37.509   8.355  11.047
72234W        W37714  18.557  30.911   0.961
72235W        W37715  35.979   4.877  12.410
72236W        W37716  36.358  37.557   4.751
72237W        W37717  36.481   4.224  10.942
72238W        W37718   3.782  34.006  13.423
72239W        W37719  30.991  39.516   1.367
72240W        W37720  35.042  12.130  10.473
72241W        W37721  16.576  23.205   4.174
72242W        W37722  23.530   3.381  11.561
72243W        W37723  40.937  21.538   3.276
72244W        W37724  37.021  31.029  12.050
72245W        W37725  29.570  26.586   4.351
72246W        W37726   1.365  41.836  14.009
72247W        W37727  26.143   8.841   3.288
72248W        W37728  23.665  28.977   3.262
72249W        W37729  42.917   2.369  13.442
72250W        W37730  23.010  17.724   1.221
72251W        W37731  31.459  29.515   3.338
72252W        W37732   3.344  16.581  12.493
72253W        W37733  13.719  18.657   2.831
72254W        W37734  39.874  41.952   3.642
72255W        W37735  28.143   2.423  13.936
72256W        W37736   7.785  44.306   0.461
72257W        W37737  15.768  28.659  11.014
72258W        W37738  10.219  23.713  10.571
72259W        W37739  25.015  17.720  14.961
72260W        W37740   6.711  22.566  14.376
72261W        W37741  44.796  32.936  14.463
72262W        W37742   0.918   0.946   1.409
72263W        W37743  27.184  29.049  12.564
72264W        W37744  21.721  43.375  14.006
72265W        W37745  19.581  27.554   5.093
72266W        W37746  31.934  30.616  10.111
72267W        W37747  37.420  19.663  10.937
72268W        W37748   8.353  21.646  10.483
72269W        W37749  10.376  41.921   2.755
72270W        W37750  14.249  40.332  10.545
72271W        W37751  41.974  15.771   5.174
72272W        W37752  37.413  42.822  11.096
72273W        W37753   3.254  41.962   3.311
72274W        W37754   7.891   0.887   1.286
72275W        W37755  30.988   9.229  12.943
72276W        W37756   7.697   8.823  11.055
72277W        W37757  17.216   4.232  12.341
72278W        W37758  11.691  42.518  13.381
72279W        W37759  14.203  40.913  14.341
72280W        W37760  10.827  41.333  10.626
72281W        W37761  29.150  10.741   4.681
72282W        W37762  27.588  37.906  13.413
72283W        W37763  31.959  12.628  11.449
72284W        W37764  42.510  36.043  12.436
72285W        W37765  29.937  44.386   1.847
72286W        W37766  24.180  20.719   4.261
72287W        W37767  21.555  22.738  14.929
72288W        W37768  24.111  24.122   1.291
72289W        W37769  37.393  30.469  11.116
72290W        W37770  18.703  39.394  14.275
72291W        W37771  35.008  13.805   3.338
72292W        W37772  22.531  39.321  13.994
72293W        W37773   6.771  41.980   1.920
72294W        W37774  24.583  13.669   3.224
72295W        W37775  43.953  42.345   4.201
72296W        W37776  44.281   1.739   1.793
72297W        W37777  17.642  25.682   0.290
72298W        W37778  17.709  39.484   0.960
72299W        W37779  17.650   9.293  11.012
72300W        W37780  31.469  21.075  10.503
72301W        W37781  39.862  19.199   3.224
72302W        W37782   4.891  12.161  11.981
72303W        W37783  26.474   2.359  10.898
72304W        W37784  28.523   7.856   0.368
72305W        W37785   5.918  10.698  10.487
72306W        W37786  16.137   5.230   4.616
72307W        W37787  27.970   9.835   3.685
72308W        W37788  19.185  13.792  13.024
72309W        W37789  21.746  11.722   3.370
72310W        W37790  36.353  35.984  12.539
72311W        W37791  24.982  11.143  13.966
72312W        W37792   1.762  41.815   1.779
72313W        W37793  39.971  32.141  10.951
72314W        W37794   8.231  12.246  12.455
72315W        W37795  23.027   5.883  14.320
72316W        W37796  34.984   4.419   1.730
72317W        W37797  10.312   1.796  12.022
72318W        W37798  13.140  24.099   0.417
72319W        W37799  36.997  34.971  13.438
72320W        W37800  31.603  14.333  10.539
72321W        W37801  15.619  17.559  12.943
72322W        W37802  25.624  24.587  13.012
72323W        W37803  22.012  21.538  12.543
72324W        W37804  35.989  37.343   1.426
72325W        W37805  42.376   7.677   4.318
72326W        W37806  32.978  31.961   3.739
72327W        W37807  30.612  12.687   4.171
72328W        W37808  13.119  36.435  13.483
72329W        W37809  13.199  34.906  10.903
72330W        W37810   4.877  37.873  14.466
72331W        W37811   5.731  38.876   0.843
72332W        W37812   2.246   7.716  13.439
72333W        W37813  42.430  34.394   4.352
72334W        W37814  32.031  39.995   0.911
72335W        W37815   1.382  29.095   4.687
72336W        W37816   2.913   5.831   0.915
72337W        W37817   8.681   3.376   2.869
72338W        W37818  12.815  11.368   0.885
72339W        W37819  20.746  29.643   3.667
72340W        W37820  13.117  28.002   4.168
72341W        W37821  31.474  28.587   0.478
72342W        W37822   7.764  43.397   3.675
72343W        W37823  23.714  34.959  14.495
72344W        W37824  42.978   6.186  12.850
72345W        W37825   9.377  23.619   4.193
72346W        W37826  19.149   7.889   3.192
72347W        W37827  35.083  40.935  11.901
72348W        W37828  41.377  36.470  10.994
72349W        W37829  42.469   2.743  13.891
72350W        W37830  41.829  16.279  12.994
72351W        W37831  31.068   4.742   0.793
72352W        W37832  27.988  34.976   1.788
72353W        W37833  19.569  19.243  11.486
72354W        W37834  10.843   5.194  12.933
72355W        W37835  23.114  14.278   2.869
72356W        W37836  31.953   2.305   2.232
72357W        W37837  31.648  39.906   2.238
72358W        W37838   9.730  40.305  14.413
72359W        W37839  26.976  32.887   2.690
72360W        W37840   0.352  13.109  14.323
72361W        W37841   9.156  34.437   2.888
72362W        W37842  23.654  25.513  11.569
72363W        W37843  11.694   5.792   0.772
72364W        W37844  34.588  29.068  10.946
72365W        W37845  15.283   6.242   1.745
72366W        W37846  23.539  24.630  14.406
72367W        W37847  23.057  37.865  12.483
72368W        W37848  30.923   0.274  13.511
72369W        W37849   0.898  12.358   1.232
72370W        W37850  28.608  42.317  11.524
72371W        W37851   8.707  19.253   1.359
72372W        W37852  10.712   5.235  14.499
72373W        W37853   9.786  28.145  10.482
72374W        W37854  41.355   1.445   2.343
72375W        W37855  21.733  14.698  11.394
72376W        W37856  39.394  13.710   2.706
72377W        W37857   7.398   9.701   1.925
72378W        W37858  19.192  33.547   0.358
72379W        W37859  28.987   4.799  14.449
72380W        W37860  40.351  20.638  14.364
72381W        W37861  28.104  17.687   4.119
72382W        W37862  18.231  40.903  11.466
72383W        W37863  22.094  31.474   2.269
72384W        W37864   2.726   1.371  13.308
72385W        W37865  38.905   3.316   0.937
72386W        W37866  11.755   2.952  11.387
72387W        W37867  22.577  30.472   0.257
72388W        W37868  44.776  26.488  12.903
72389W        W37869  37.522  25.148   2.390
72390W        W37870  44.009  31.978   5.182
72391W        W37871   3.334   0.972  13.310
72392W        W37872  28.087  41.930   2.392
72393W        W37873  20.637  13.316   3.371
72394W        W37874   1.888   6.736   2.354
72395W        W37875  32.130  42.491   3.211
72396W        W37876  19.221  15.674   0.820
72397W        W37877   1.970  29.051   1.727
72398W        W37878  20.631   6.249   1.338
72399W        W37879  13.653  34.587   3.218
72400W        W37880  43.849  20.627   1.433
72401W        W37881   6.838  14.296  12.959
72402W        W37882  16.149   3.440   2.354
72403W        W37883   6.833   8.391  11.590
72404W        W37884  41.440   5.363  12.561
72405W        W37885   3.285  34.917  13.373
72406W        W37886  39.885  12.686   1.424
72407W        W37887  25.092  33.990  10.966
72408W        W37888  34.086  18.587   3.834
72409W        W37889  43.767   9.355  13.359
72410W        W37890  26.669  25.613  13.040
72411W        W37891  27.639   7.886   1.873
72412W        W37892  11.662  26.675  13.920
72413W        W37893  37.929   0.777  10.490
72414W        W37894  40.510   8.825  14.310
72415W        W37895   7.372  20.176   0.247
72416W        W37896   1.906  24.067  13.528
72417W        W37897  42.289  10.208   2.744
72418W        W37898  22.559   4.233   3.166
72419W        W37899   1.421  43.906   1.719
72420W        W37900  40.485  40.819   2.342
72421W        W37901  41.398  10.323  10.624
72422W        W37902  21.683   5.743   0.417
72423W        W37903  39.821  22.186   4.159
72424W        W37904   2.920   9.307  11.924
72425W        W37905  31.500  10.198   0.273
72426W        W37906  33.925  22.535   1.861
72427W        W37907  26.166  13.193   4.247
72428W        W37908  25.162  29.051  13.808
72429W        W37909   4.307  40.391   2.696
72430W        W37910  44.467   4.272  11.913
72431W        W37911  17.649   8.868  14.811
72432W        W37912  19.281  11.679   4.789
72433W        W37913  24.231  16.581   1.751
72434W        W37914  26.494   2.857   0.480
72435W        W37915  12.803  40.365   3.688
72436W        W37916   6.388  28.126  14.328
72437W        W37917  30.940  20.702  11.478
72438W        W37918   4.275   3.248   2.207
72439W        W37919  30.532   8.302   4.630
72440W        W37920  16.663  23.151  10.542
72441W        W37921  34.976   7.364   3.731
72442W        W37922   4.738  16.122   0.757
72443W        W37923  32.981  32.487   2.753
72444W        W37924  22.996   8.277  11.478
72445W        W37925  34.115  16.724   4.201
72446W        W37926  22.739  36.980  12.852
72447W        W37927  28.439   2.882   1.894
72448W        W37928  12.347   6.207  14.504
72449W        W37929   2.948  27.535   2.878
72450W        W37930  12.301  40.319  14.406
72451W        W37931  13.272  26.101  10.572
72452W        W37932  41.512  17.143  13.046
72453W        W37933  23.519  12.729  14.351
72454W        W37934   2.820  25.138   4.699
72455W        W37935  26.034  31.481  11.488
72456W        W37936  24.110   4.401  13.975
72457W        W37937   7.781   8.321  14.401
72458W        W37938  22.517  19.094   3.372
72459W        W37939  13.652  36.000   1.316
72460W        W37940   8.211   6.753  14.976
72461W        W37941  37.909   2.451   0.774
72462W        W37942   5.876  42.322   3.297
72463W        W37943   5.389   4.886   2.862
72464W        W37944  22.237  21.148  14.791
72465W        W37945  22.129  30.425  10.442
72466W        W37946  43.479  16.639   4.312
72467W        W37947  43.350  26.070   2.695
72468W        W37948  27.191  12.663  13.961
72469W        W37949  43.810  20.169  13.353
72470W        W37950   2.273  11.778   2.704
72471W        W37951  20.640  18.730   4.319
72472W        W37952   4.743  31.152  13.796
72473W        W37953  39.381  24.042  11.890
72474W        W37954  29.995  21.093  14.492
72475W        W37955   3.220  10.866   0.823
72476W        W37956   7.905  19.054   3.180
72477W        W37957   5.805   8.329   0.951
72478W        W37958  25.203  22.222  10.586
72479W        W37959   6.397  10.319  10.428
72480W        W37960  14.773  15.296  10.459
72481W        W37961  30.502   5.268  14.302
72482W        W37962  22.099  37.575  14.959
72483W        W37963  26.002  28.652  12.830
72484W        W37964  29.433  22.700   0.451
72485W        W37965  26.126  28.133   2.866
72486W        W37966  15.263   1.756  13.544
72487W        W37967  23.575   7.372   4.644
72488W        W37968   0.788  34.585   3.846
72489W        W37969  35.506  41.474   1.237
72490W        W37970  25.168  32.024   0.261
72491W        W37971  17.258  19.659  12.830
72492W        W37972  38.859  26.688   2.290
72493W        W37973   6.777  40.871  13.844
72494W        W37974   5.250  38.825   9.977
72495W        W37975  19.628  23.604   0.437
72496W        W37976  44.461  11.704  14.338
72497W        W37977  27.526  21.206  11.971
72498W        W37978  37.990  18.246  14.839
72499W        W37979  28.153  28.506  11.100
72500W        W37980  41.502  15.800   1.412
72501W        W37981  27.545  16.744  13.884
72502W        W37982  23.140  29.976   4.261
72503W        W37983  13.728  34.922   3.788
72504W        W37984   4.333  19.753  14.856
72505W        W37985  18.146  42.991  12.543
72506W        W37986  29.108  33.127   1.760
72507W        W37987  13.736  22.570   4.664
72508W        W37988   5.270  21.577  12.023
72509W        W37989  14.628   4.303  14.027
72510W        W37990  37.577  40.035  13.059
72511W        W37991  14.772   8.720   3.169
72512W        W37992  37.042   6.233  12.093
72513W        W37993   8.353  12.732  14.979
72514W        W37994  10.790  11.220  14.413
72515W        W37995  38.961  40.996   1.814
72516W        W37996  38.412  24.703   4.311
72517W        W37997   0.839   4.836   4.598
72518W        W37998  24.080  25.164   3.787
72519W        W37999  13.688  32.034   3.748
72520W        W38000   8.766  35.417   4.264
72521W        W38001  19.750  19.268   3.853
72522W        W38002  40.475   5.768  14.313
72523W        W38003  20.083  18.207  11.607
72524W        W38004   3.907  27.556   4.281
72525W        W38005  13.145  12.297   0.867
72526W        W38006   3.757   1.832   0.335
72527W        W38007  16.740  32.137  13.543
72528W        W38008  34.881  23.637   3.178
72529W        W38009  22.565  36.967   0.365
72530W        W38010   5.391  14.139  14.378
72531W        W38011  34.943  26.568   2.690
72532W        W38012  17.155  37.409  10.588
72533W        W38013  13.139  34.561   0.380
72534W        W38014  21.118  31.455  14.325
72535W        W38015  39.894  15.114  10.591
72536W        W38016  32.914  29.093  10.974
72537W        W38017  43.435   9.262  11.975
72538W        W38018   0.813  39.974   3.325
72539W        W38019  28.090  13.689   1.332
72540W        W38020  30.136  25.629  12.425
72541W        W38021   3.829  27.521  14.430
72542W        W38022  24.006  20.119   1.850
72543W        W38023   5.825  16.583  12.568
72544W        W38024   6.302  10.729  11.380
72545W        W38025  19.737  16.167  12.490
72546W        W38026  16.682  37.390   2.320
72547W        W38027   2.827  37.050  13.846
72548W        W38028   4.389  37.571  12.898
72549W        W38029  32.960   5.206  14.506
72550W        W38030  37.045  32.133   3.275
72551W        W38031  20.612  11.729  14.834
72552W        W38032  13.262  19.231  13.428
72553W        W38033  16.764  14.156   1.709
72554W        W38034  19.648  29.120   1.912
72555W        W38035  23.621  13.215   3.844
72556W        W38036  18.552  41.918  12.018
72557W        W38037  40.892  12.610   4.349
72558W        W38038   5.340   9.331   0.244
72559W        W38039  14.797  19.727   4.667
72560W        W38040  44.794  44.874  14.904
72561W        W38041  37.514   3.336  14.864
72562W        W38042  22.235  23.152  12.021
72563W        W38043   5.207  27.520  14.825
72564W        W38044  41.914  36.588   2.228
72565W        W38045  29.040  31.497   0.943
72566W        W38046   2.386  19.233   0.366
72567W        W38047  37.543   6.725   4.786
72568W        W38048  28.014  25.143   4.766
72569W        W38049   7.769  40.873   4.205
72570W        W38050  18.140  34.401  14.452
72571W        W38051   6.816  43.361  14.374
72572W        W38052   1.848  23.678  13.934
72573W        W38053  27.073  41.432  12.373
72574W        W38054  32.926  40.812   4.291
72575W        W38055  34.532  34.497  14.473
72576W        W38056   0.771   0.252   3.747
72577W        W38057  34.430   3.348   5.082
72578W        W38058  42.861   3.361   3.773
72579W        W38059  32.091  44.394   1.420
72580W        W38060  18.551  33.124  11.096
72581W        W38061  29.575  10.786  14.944
72582W        W38062  20.154  33.917  14.019
72583W        W38063  19.081   3.854  14.309
72584W        W38064  14.239  40.051   4.622
72585W        W38065   7.691  43.911   4.611
72586W        W38066  10.264  38.511  10.889
72587W        W38067   1.770  17.170  14.470
72588W        W38068   8.259  38.460   4.829
72589W        W38069  20.763  17.062   0.387
72590W        W38070  35.438   0.850  11.908
72591W        W38071  18.654  37.083  11.424
72592W        W38072  43.315   6.279   1.788
72593W        W38073  32.133   1.953  14.799
72594W        W38074  22.507   8.737  12.091
72595W        W38075  30.078  23.000  14.393
72596W        W38076   2.777  21.100  13.919
72597W        W38077  44.849  15.127  13.338
72598W        W38078  10.257   9.718   1.818
72599W        W38079  21.171  24.070   0.902
72600W        W38080  29.051  32.013  13.849
72601W        W38081  14.619   3.764  12.500
72602W        W38082  17.662  30.437  14.987
72603W        W38083  12.782  38.537   1.877
72604W        W38084  44.396   5.840   4.259
72605W        W38085  25.127  14.763   0.440
72606W        W38086   7.878  33.569  14.960
72607W        W38087   8.774  23.621   3.225
72608W        W38088  30.422  15.307   4.615
72609W        W38089  40.031   7.201   3.325
72610W        W38090  23.155  43.331   5.566
72611W        W38091  35.009  20.552  12.044
72612W        W38092  27.943   6.812   3.359
72613W        W38093  42.500  16.201   3.794
72614W        W38094  19.221   6.381   0.447
72615W        W38095  19.629  37.387  12.440
72616W        W38096  40.488  29.105   5.114
72617W        W38097   1.780  44.464  10.938
72618W        W38098   5.881  10.686  13.982
72619W        W38099  39.356  38.055  13.326
72620W        W38100   0.952  42.917  12.856
72621W        W38101   3.333  21.078  14.766
72622W        W38102  15.293  17.650   2.292
72623W        W38103  30.031  40.858  14.828
72624W        W38104  33.557   7.897  13.514
72625W        W38105  42.861  28.158  14.820
72626W        W38106  31.458  32.899   4.127
72627W        W38107  43.355   2.749   2.381
72628W        W38108  21.704   9.371  12.066
72629W        W38109   4.747  32.428   4.773
72630W        W38110  21.236   3.897  14.505
72631W        W38111  42.967  29.110  10.137
72632W        W38112  42.331  26.989   1.933
72633W        W38113  43.770  10.862  12.543
72634W        W38114   7.281  28.028  11.444
72635W        W38115  27.660  22.015  12.867
72636W        W38116  20.602  41.459   4.156
72637W        W38117  36.016  43.980  14.296
72638W        W38118   4.268  38.529   3.867
72639W        W38119  38.352  36.519  13.025
72640W        W38120  15.783  43.314   3.324
72641W        W38121   6.325  29.631  11.011
72642W        W38122  28.621  44.935   3.833
72643W        W38123  31.415  36.570   4.307
72644W        W38124   5.918   7.285   2.243
72645W        W38125  28.528  36.518   1.696
72646W        W38126  21.123  14.272  13.375
72647W        W38127   2.335  44.391   3.379
72648W        W38128  23.193  15.220   0.285
72649W        W38129   2.879  24.131   1.330
72650W        W38130  38.432  26.594   3.230
72651W        W38131  14.786  29.670   4.747
72652W        W38132  24.675  32.123   0.903
72653W        W38133  26.612  23.088  14.814
72654W        W38134  34.396  30.610   4.735
72655W        W38135  20.265  29.050   1.386
72656W        W38136  24.181  28.543  10.483
72657W        W38137   8.230   2.463  11.408
72658W        W38138   0.313   2.731   3.720
72659W        W38139  14.180  41.459  12.055
72660W        W38140  30.413   0.493  11.083
72661W        W38141  34.548  10.819  10.404
72662W        W38142  35.465  22.710   4.659
72663W        W38143  20.212   2.736   0.730
72664W        W38144  27.565  16.250   2.740
72665W        W38145  43.881  16.242  14.961
72666W        W38146   3.379  20.537  11.412
72667W        W38147  21.725  16.172  11.554
72668W        W38148  23.045   6.831  12.450
72669W        W38149  28.495   3.366  12.951
72670W        W38150  29.529  35.856   0.954
72671W        W38151  41.013  36.411  12.388
72672W        W38152   4.731  29.969   2.311
72673W        W38153   3.442  12.203   4.616
72674W        W38154  32.414  30.637   3.765
72675W        W38155  35.081   1.976  13.808
72676W        W38156   3.224  43.411   3.196
72677W        W38157  29.617  42.296  11.996
72678W        W38158  10.271   0.468  14.984
72679W        W38159  16.642  36.440  10.580
72680W        W38160  38.413  16.219  13.340
72681W        W38161  20.612  29.980   0.910
72682W        W38162  19.672  31.451  11.011
72683W        W38163  42.776  29.932   0.728
72684W        W38164  10.149  39.558   2.383
72685W        W38165  23.582  23.509  10.993
72686W        W38166   4.757  20.682  12.933
72687W        W38167  29.995   8.679   4.743
72688W        W38168  22.056  39.880   1.388
72689W        W38169   9.371   2.326  10.550
72690W        W38170  18.603  12.616  12.424
72691W        W38171  34.504  24.220   0.462
72692W        W38172  32.393  34.897  14.018
72693W        W38173  13.644  27.600   1.901
72694W        W38174  26.178  28.568   0.777
72695W        W38175  38.360  28.001  11.029
72696W        W38176  41.321   8.805  10.567
72697W        W38177   1.328  38.479   3.305
72698W        W38178   2.893  26.684   2.826
72699W        W38179  10.206  13.120  12.955
72700W        W38180  32.538   9.693  13.942
72701W        W38181   6.310  30.074  11.560
72702W        W38182   0.776   2.463  11.972
72703W        W38183   3.819  17.599   0.933
72704W        W38184  24.570  10.323   1.780
72705W        W38185   3.764  21.081   4.161
72706W        W38186   0.431   2.296   1.368
72707W        W38187  31.638  11.679  12.475
72708W        W38188  25.145  18.154   4.136
72709W        W38189  17.295  18.199   2.254
72710W        W38190   8.256  14.826  11.903
72711W        W38191  17.775  31.133  13.043
72712W        W38192  29.976  34.529  14.995
72713W        W38193  24.134  27.003  11.593
72714W        W38194  18.654  18.739  11.410
72715W        W38195  40.910  18.256  14.469
72716W        W38196  41.536  26.994   3.803
72717W        W38197   6.852  23.223  11.513
72718W        W38198   8.358  17.695   2.795
72719W        W38199  27.659   3.323  10.991
72720W        W38200  16.094  44.925  12.348
72721W        W38201   9.856  11.268  10.613
72722W        W38202  38.894   6.256  13.363
72723W        W38203  22.710  23.094  10.956
72724W        W38204  22.130  26.505   1.767
72725W        W38205  26.673  41.972   4.167
72726W        W38206   8.211  14.771   3.151
72727W        W38207  25.062  36.356  12.858
72728W        W38208  23.165  18.241  11.401
72729W        W38209  10.650  17.257   9.948
72730W        W38210  15.643   7.404  12.500
72731W        W38211  34.086  14.616  10.537
72732W        W38212  35.995  11.838  12.088
72733W        W38213  11.808  11.765  10.082
72734W        W38214  15.187   9.683   3.275
72735W        W38215  35.575  20.661   3.209
72736W        W38216  13.751  23.578   4.158
72737W        W38217   3.304  20.555  13.382
72738W        W38218  24.989  33.397   4.688
72739W        W38219  42.485   5.233  14.349
72740W        W38220  13.114  28.031   3.336
72741W        W38221  26.140  38.544  13.804
72742W        W38222  40.000   2.959  11.960
72743W        W38223   7.830   0.884   1.718
72744W        W38224  41.403  15.133  11.956
72745W        W38225   3.828  29.602  14.813
72746W        W38226  22.117   4.270  11.903
72747W        W38227  10.271  25.971   0.349
72748W        W38228  17.664  41.996   4.788
72749W        W38229  37.461  13.701  10.553
72750W        W38230  18.251  23.081   1.873
72751W        W38231  40.823  42.399  11.927
72752W        W38232  22.128  12.612  14.387
72753W        W38233  38.340  20.151  11.418
72754W        W38234  28.534  25.965   0.425
72755W        W38235  25.117  37.020   0.453
72756W        W38236  40.994  32.576   2.765
72757W        W38237  32.576  34.049  11.379
72758W        W38238   4.821  16.734   1.425
72759W        W38239  42.442  44.423   0.403
72760W        W38240   5.437  21.146  12.535
72761W        W38241  12.849  23.609  10.423
72762W        W38242  15.722  22.087  11.035
72763W        W38243  17.074  12.786   0.824
72764W        W38244  34.908  24.628  10.951
72765W        W38245   5.780  31.141   1.442
72766W        W38246  12.268   1.344   4.659
72767W        W38247  41.902  43.319  12.946
72768W        W38248  38.972  19.220   3.662
72769W        W38249  18.267  27.662  13.520
72770W        W38250   8.872  42.012   0.955
72771W        W38251  38.489  20.747   1.326
72772W        W38252   3.945  20.221   0.861
72773W        W38253  19.069  36.965   4.120
72774W        W38254  34.582  10.636  14.007
72775W        W38255  40.905  41.800  14.318
72776W        W38256  38.853   3.806  13.021
72777W        W38257  38.380  39.522  14.424
72778W        W38258  26.191  29.057  14.292
72779W        W38259  38.041   7.901   4.129
72780W        W38260   8.273  42.399  14.894
72781W        W38261  26.578  20.247   0.404
72782W        W38262  25.713   2.448   4.129
72783W        W38263  13.226  12.121  12.430
72784W        W38264  23.225  34.572  12.083
72785W        W38265  36.076  33.077   1.797
72786W        W38266  41.367  15.300  13.338
72787W        W38267  22.639   7.284  14.430
72788W        W38268  23.544  28.943  12.498
72789W        W38269  15.097  26.642  14.441
72790W        W38270  40.537  37.497  13.412
72791W        W38271   2.266  42.798  14.278
72792W        W38272  43.815  24.204   4.669
72793W        W38273  39.405  40.935  14.893
72794W        W38274   4.715  12.227   3.367
72795W        W38275  44.863  34.586  13.434
72796W        W38276   7.321  16.642  14.793
72797W        W38277  38.059  22.516  11.863
72798W        W38278  12.793  33.883  13.843
72799W        W38279  36.963   0.752   1.845
72800W        W38280  25.488  36.882   1.354
72801W        W38281  18.140  41.893  13.997
72802W        W38282  35.912   3.326  10.434
72803W        W38283  35.462  33.892  13.023
72804W        W38284  15.799   2.330  14.449
72805W        W38285  33.379  20.636  12.965
72806W        W38286   5.319  42.891  12.881
72807W        W38287  23.137  16.784   2.785
72808W        W38288   1.340   0.911   2.876
72809W        W38289  13.116  22.646  14.821
72810W        W38290  29.551  28.617  13.953
72811W        W38291  44.985  16.136   3.708
72812W        W38292  27.090   9.224   3.637
72813W        W38293   7.210  23.144  14.981
72814W        W38294  15.157  36.910   0.889
72815W        W38295  26.992  11.625  10.636
72816W        W38296  36.070  25.619  13.476
72817W        W38297  41.370  19.044  10.438
72818W        W38298  40.942   3.881   9.517
72819W        W38299  19.059  32.622   1.695
72820W        W38300  40.946  17.147   4.208
72821W        W38301  24.507  18.647   0.443
72822W        W38302  38.493  32.901  11.438
72823W        W38303  43.420  29.977  12.944
72824W        W38304  39.952  33.915   2.404
72825W        W38305   8.268  36.949  10.955
72826W        W38306   0.865  41.430  12.431
72827W        W38307   2.952  12.834  10.535
72828W        W38308  30.560  37.352  13.825
72829W        W38309  10.185  30.534  10.498
72830W        W38310  20.093  12.848  10.154
72831W        W38311  24.169  38.414  13.928
72832W        W38312  23.709  27.472  14.505
72833W        W38313  40.911  12.305   2.743
72834W        W38314  41.790  18.705  14.426
72835W        W38315   9.756  39.866  13.791
72836W        W38316  18.771  26.960  10.093
72837W        W38317  34.603  34.106  13.489
72838W        W38318  22.532  36.951  13.808
72839W        W38319  19.170  11.765   4.231
72840W        W38320  44.455  24.020  12.072
72841W        W38321  22.504  41.298  13.894
72842W        W38322  20.592  14.743  12.829
72843W        W38323   3.389  32.107  12.895
72844W        W38324  22.686   6.822   3.358
72845W        W38325  23.573  24.504  11.605
72846W        W38326  15.618  11.187  13.833
72847W        W38327  42.446  22.714   2.229
72848W        W38328  27.686  15.771  13.434
72849W        W38329  16.769  38.519  12.918
72850W        W38330   8.165  31.082   4.732
72851W        W38331  18.697  12.834  14.028
72852W        W38332  41.340  14.761  12.376
72853W        W38333   8.163  17.676  10.452
72854W        W38334  13.242  39.456  13.443
72855W        W38335  33.931  33.976   1.240
72856W        W38336  17.568  20.675  14.771
72857W        W38337  34.430  35.519  14.363
72858W        W38338  41.838  22.616  12.398
72859W        W38339  12.188   3.453  12.043
72860W        W38340  19.115  14.665   4.832
72861W        W38341  37.343  11.227  12.947
72862W        W38342  16.802   5.300   2.668
72863W        W38343  42.344  13.599  11.064
72864W        W38344   0.255  25.611   2.268
72865W        W38345  10.743  44.837  14.842
72866W        W38346  10.786   9.873   2.338
72867W        W38347  39.482  38.859   3.859
72868W        W38348   1.949  20.166   4.780
72869W        W38349  39.559   9.666   1.906
72870W        W38350  26.965  35.363   3.178
72871W        W38351  18.769  33.053   2.193
72872W        W38352  31.038  24.080  12.083
72873W        W38353  37.362   7.678  13.887
72874W        W38354  28.098   1.381  12.909
72875W        W38355  20.227   1.770  12.029
72876W        W38356  13.220   0.769  12.548
72877W        W38357  18.209  38.436   1.928
72878W        W38358  30.037  10.296  10.610
72879W        W38359  37.496  24.084  14.780
72880W        W38360   4.291  18.745  11.863
72881W        W38361  41.033  18.734  10.632
72882W        W38362   6.413   9.684   4.810
72883W        W38363  18.262  35.954   1.215
72884W        W38364  15.782  21.582   4.171
72885W        W38365  14.823  35.552  13.825
72886W        W38366  17.301  29.003  12.860
72887W        W38367   8.269   0.364  12.521
72888W        W38368  41.476  42.837  14.850
72889W        W38369  19.119  31.456  10.929
72890W        W38370   6.701  14.326  10.949
72891W        W38371   4.323  28.636   1.415
72892W        W38372  40.419  15.792  10.604
72893W        W38373  22.678   5.893   2.807
72894W        W38374  28.986   1.394   0.368
72895W        W38375  31.990  27.174  14.867
72896W        W38376  42.006  35.546   4.170
72897W        W38377  27.101  39.374  14.838
72898W        W38378  36.951  35.902   2.834
72899W        W38379  28.618  30.597  10.981
72900W        W38380  30.162  30.436   2.842
72901W        W38381  44.449  22.996   4.122
72902W        W38382  15.152   6.767   2.313
72903W        W38383  15.706  18.248  14.306
72904W        W38384   2.927  10.224  13.022
72905W        W38385  22.206   2.466  13.974
72906W        W38386  14.312  14.309  12.457
72907W        W38387  36.546  21.073   2.721
72908W        W38388   3.768  41.402  12.542
72909W        W38389  19.646  33.509   2.686
72910W        W38390   6.294  16.288  11.478
72911W        W38391  38.328  43.355   0.409
72912W        W38392   2.350  44.383  12.012
72913W        W38393  37.386  38.484   4.827
72914W        W38394  19.076   5.392  11.376
72915W        W38395   6.348  20.233  14.503
72916W        W38396  16.173  32.482  14.837
72917W        W38397  44.464   0.389   0.393
72918W        W38398  30.437  19.586  12.457
72919W        W38399  14.618  19.778   5.245
72920W        W38400  11.644   5.312  13.404
72921W        W38401  32.634  15.239  14.459
72922W        W38402  38.340   2.437   2.404
72923W        W38403  26.667  11.366   0.823
72924W        W38404  17.756  22.015  11.566
72925W        W38405  29.982  11.745   3.868
72926W        W38406   6.835   2.743  14.925
72927W        W38407  30.043  15.740  13.368
72928W        W38408  22.509  40.863  12.420
72929W        W38409  21.684  26.206  12.479
72930W        W38410   7.717  20.680   2.236
72931W        W38411  23.156   6.234  12.923
72932W        W38412  17.775  43.422   4.321
72933W        W38413  23.072  20.165   4.192
72934W        W38414   9.757  32.102  13.389
72935W        W38415  22.060  37.559  11.105
72936W        W38416  10.639  28.539   4.281
72937W        W38417  26.517  18.752   0.453
72938W        W38418  20.651   3.273   3.212
72939W        W38419  14.784   0.446   3.281
72940W        W38420  15.325   0.941  11.995
72941W        W38421   5.272   4.210   0.934
72942W        W38422  18.775  42.817  14.828
72943W        W38423   4.807  19.040  11.966
72944W        W38424   8.754   6.918   3.654
72945W        W38425  39.375   6.379  14.943
72946W        W38426  31.953   5.919   1.811
72947W        W38427  31.407  30.534   0.373
72948W        W38428  14.788  29.973  10.504
72949W        W38429  29.617  30.651   0.917
72950W        W38430  33.461   7.275   1.908
72951W        W38431  19.591  21.056   1.416
72952W        W38432   6.719  20.106   4.680
72953W        W38433   6.687  32.545  12.825
72954W        W38434  16.682  24.013  14.512
72955W        W38435  13.735  33.984  12.499
72956W        W38436  30.955   0.878  11.880
72957W        W38437  26.460  19.148  11.009
72958W        W38438   0.442  36.000   4.637
72959W        W38439  35.914  43.982   4.301
72960W        W38440   2.815  10.223   1.339
72961W        W38441  33.481  40.814   1.340
72962W        W38442  16.225  23.016   0.267
72963W        W38443  21.645  13.757  10.603
72964W        W38444   1.451  41.409  13.498
72965W        W38445  36.978   0.369  13.026
72966W        W38446  41.885  19.129   1.325
72967W        W38447  18.777  36.443  12.495
72968W        W38448  33.442  37.851   3.341
72969W        W38449   6.857  34.468   3.264
72970W        W38450  25.541  13.219   2.349
72971W        W38451  14.677   3.372   0.381
72972W        W38452  39.025  40.413  11.398
72973W        W38453   5.425   3.316  13.050
72974W        W38454  29.436  43.349   0.469
72975W        W38455  43.404  31.462  10.642
72976W        W38456  39.037  25.155   1.916
72977W        W38457   0.442  22.655  10.521
72978W        W38458   1.754   7.321  11.530
72979W        W38459  23.726   4.804  10.984
72980W        W38460   0.934  38.498   3.670
72981W        W38461  17.785  14.282  10.954
72982W        W38462  23.130   5.741   1.718
72983W        W38463  41.403  10.668   3.846
72984W        W38464  25.976  16.735   3.153
72985W        W38465  35.065   6.395   0.802
72986W        W38466   7.909   3.338   2.401
72987W        W38467  31.971  19.264   1.265
72988W        W38468  39.835  32.064   0.894
72989W        W38469  29.038  17.656  11.385
72990W        W38470  28.165   6.885  14.912
72991W        W38471  26.047   4.394   2.306
72992W        W38472  17.176  12.711  10.159
72993W        W38473  12.617   2.450  11.490
72994W        W38474  17.173  15.757   0.919
72995W        W38475   1.771  14.812  14.466
72996W        W38476  24.030   2.230  13.049
72997W        W38477  18.060  22.995  12.574
72998W        W38478   0.254  41.508   0.817
72999W        W38479  26.561   0.778   0.345
73000W        W38480  16.138   2.887   2.328
73001W        W38481  32.994  33.127   3.245
73002W        W38482  39.018  22.042  14.810
73003W        W38483  37.061  44.467   1.214
73004W        W38484  16.627  29.598   3.311
73005W        W38485   3.917  33.392  11.911
73006W        W38486  19.186   6.827   2.408
73007W        W38487  43.278  13.149  11.005
73008W        W38488  29.997  42.953   4.232
73009W        W38489  19.086  30.121   0.963
73010W        W38490   5.348  25.126   1.889
73011W        W38491   0.905   8.331  11.119
73012W        W38492  37.445  22.709  11.054
73013W        W38493  27.632  29.580   2.700
73014W        W38494  15.627  19.587  10.490
73015W        W38495  35.360  30.562   1.785
73016W        W38496  17.258   1.336   3.723
73017W        W38497  42.907  38.070   3.342
73018W        W38498  41.466  12.261   4.679
73019W        W38499  25.694  35.992   1.372
73020W        W38500  12.279  17.607  11.955
73021W        W38501   4.258   7.261  12.355
73022W        W38502  43.923   2.954   3.195
73023W        W38503  43.338  32.579   2.364
73024W        W38504  24.700  21.147   3.761
73025W        W38505  13.759  12.818  14.880
73026W        W38506   6.678   3.872   1.451
73027W        W38507  23.641  40.365   0.947
73028W        W38508  18.620  27.954  11.487
73029W        W38509  43.298  26.508  10.557
73030W        W38510  44.320  34.570  12.539
73031W        W38511  25.013  24.016  11.044
73032W        W38512  26.193   8.833  12.082
73033W        W38513  22.571  34.594  12.075
73034W        W38514  43.772  31.502   4.736
73035W        W38515  14.189  13.330  11.544
73036W        W38516  19.762  11.844  10.518
73037W        W38517   7.716   9.719   2.801
73038W        W38518  25.143  44.496   3.722
73039W        W38519  22.675  12.663   1.255
73040W        W38520  22.518  32.009  14.308
73041W        W38521  33.050  20.563  11.040
73042W        W38522   7.373   5.409   3.288
73043W        W38523  36.075  37.569  11.048
73044W        W38524   6.847  37.901   1.401
73045W        W38525  17.800  10.768   2.374
73046W        W38526  34.049  27.100  14.495
73047W        W38527  34.930  15.201  13.922
73048W        W38528  23.678  16.791   4.150
73049W        W38529   7.857  11.670   1.727
73050W        W38530   5.710  17.243   2.890
73051W        W38531  29.642  26.971   1.253
73052W        W38532  33.441  42.433  14.511
73053W        W38533  33.622  14.592  13.367
73054W        W38534  13.297  27.008   4.277
73055W        W38535  14.687  27.969   3.360
73056W        W38536  25.602  25.599   4.718
73057W        W38537  43.416  20.539  12.883
73058W        W38538   4.246  17.690  13.890
73059W        W38539   7.842  28.481  11.033
73060W        W38540  34.097  13.231  10.433
73061W        W38541  16.728  17.557   2.775
73062W        W38542  43.796  30.111   0.299
73063W        W38543  27.097  31.403   0.423
73064W        W38544  43.991  37.449   3.219
73065W        W38545  22.104  17.098  11.883
73066W        W38546  13.622  33.885   1.370
73067W        W38547  43.327  30.428   4.819
73068W        W38548   4.258  30.917  11.106
73069W        W38549  23.735  20.152   2.326
73070W        W38550  18.579  19.546   2.857
73071W        W38551  38.922  32.138  12.479
73072W        W38552  16.123   4.296   4.187
73073W        W38553  29.152   1.940   3.306
73074W        W38554  31.996  32.016  13.412
73075W        W38555  19.046  29.940  13.946
73076W        W38556  11.638   9.719   4.186
73077W        W38557  33.499  34.908   4.718
73078W        W38558  36.948  19.571   0.772
73079W        W38559  16.295  34.085   2.789
73080W        W38560   9.220  39.860  12.828
73081W        W38561  39.358   1.778   3.700
73082W        W38562  37.409  43.895   2.384
73083W        W38563   1.907  10.675  13.395
73084W        W38564  27.984  34.445   1.768
73085W        W38565  20.269  14.283  11.540
73086W        W38566  11.196   3.262  10.929
73087W        W38567   1.270  15.675   5.108
73088W        W38568  30.989  21.233   0.844
73089W        W38569  32.000  31.971   3.749
73090W        W38570  12.718  19.055  11.104
73091W        W38571  16.129  31.083  12.003
73092W        W38572   3.836  21.219   5.093
73093W        W38573  33.595  37.987   0.382
73094W        W38574   1.254  44.298   2.778
73095W        W38575  35.993  36.434   3.205
73096W        W38576  30.156  25.513  11.425
73097W        W38577  35.085   8.734   0.255
73098W        W38578  31.528  34.037   0.788
73099W        W38579   9.752  43.467   1.706
73100W        W38580  26.673   0.429   3.706
73101W        W38581  24.172  16.764   0.394
73102W        W38582  32.939  30.645  12.531
73103W        W38583  31.142   1.378  14.909
73104W        W38584  26.032  31.946  12.836
73105W        W38585  20.217  30.419   4.293
73106W        W38586  10.227  26.129  13.940
73107W        W38587  31.154  23.501   3.257
73108W        W38588  22.138  32.404  11.593
73109W        W38589  13.780  17.182   2.381
73110W        W38590  27.681   8.402  11.079
73111W        W38591   4.789   7.311   3.228
73112W        W38592  18.210  14.690   3.748
73113W        W38593  39.992  32.037   4.220
73114W        W38594  32.488   0.763   1.386
73115W        W38595  25.152  33.966   4.629
73116W        W38596  37.577   4.356   2.351
73117W        W38597  28.165   0.761  13.883
73118W        W38598  10.690   4.747  10.635
73119W        W38599  41.032   7.174  13.331
73120W        W38600  10.700  12.623   1.268
73121W        W38601  23.654  15.721   3.359
73122W        W38602  18.122  40.826  12.903
73123W        W38603   1.289  22.548  11.569
73124W        W38604   6.837  21.677  11.015
73125W        W38605  10.303  34.528  11.063
73126W        W38606   6.682  22.527   1.305
73127W        W38607  42.779  42.907   5.100
73128W        W38608  29.158  37.026   3.860
73129W        W38609  43.953  32.578  11.103
73130W        W38610  20.135  17.078  10.086
73131W        W38611   7.862  35.108  13.497
73132W        W38612  42.498  42.466   4.184
73133W        W38613  10.144  35.407  14.475
73134W        W38614   1.479  22.560  12.981
73135W        W38615   3.320  15.647   1.300
73136W        W38616  31.496  41.422   1.273
73137W        W38617  24.130  15.787  13.493
73138W        W38618  35.507  19.646   1.353
73139W        W38619  29.933  32.473  12.871
73140W        W38620  21.210  38.844  13.035
73141W        W38621  24.536  43.427   3.749
73142W        W38622  43.317  25.072   3.313
73143W        W38623  36.031   9.683   3.757
73144W        W38624   1.945   0.249   3.187
73145W        W38625  17.254  15.723  14.897
73146W        W38626  25.083  42.907   1.857
73147W        W38627  31.146  24.682  12.999
73148W        W38628   3.294  27.592  14.469
73149W        W38629  25.612  26.669   0.274
73150W        W38630   2.814  34.556  11.562
73151W        W38631  39.025  36.901   3.720
73152W        W38632   8.670  12.242   3.206
73153W        W38633  34.991  44.924   0.272
73154W        W38634  11.646  12.192   0.313
73155W        W38635  10.374  42.523  14.983
73156W        W38636  31.410  23.198   3.237
73157W        W38637  28.140   7.273   1.434
73158W        W38638  40.454   6.231  10.532
73159W        W38639  13.261  35.958   3.336
73160W        W38640  30.491  24.224   4.291
73161W        W38641  31.427  18.788  13.422
73162W        W38642  15.269   9.201  10.631
73163W        W38643  23.728  40.845  14.420
73164W        W38644  28.620  43.812  10.550
73165W        W38645  14.202   9.841   4.268
73166W        W38646  33.875  20.624   4.771
73167W        W38647  42.862  21.027  14.786
73168W        W38648  31.008  19.179  12.940
73169W        W38649  39.557  25.053   2.888
73170W        W38650  44.297  30.439  13.341
73171W        W38651  19.076  32.484  12.980
73172W        W38652  33.590  32.009   0.287
73173W        W38653   8.878   9.658   0.785
73174W        W38654  36.474   5.195   3.691
73175W        W38655  12.304  15.115  14.844
73176W        W38656  38.057  25.651  14.405
73177W        W38657  17.665  33.101  14.859
73178W        W38658   0.450  44.346   0.742
73179W        W38659   9.275  35.071   3.207
73180W        W38660  42.327  20.660  12.974
73181W        W38661  22.672  26.612   1.712
73182W        W38662  26.475   1.388   4.745
73183W        W38663   8.785  34.524  11.053
73184W        W38664   7.693  11.223   1.886
73185W        W38665  32.917  17.119  12.072
73186W        W38666  34.927  35.570   3.782
73187W        W38667  42.934  15.142   0.908
73188W        W38668  15.208   0.268   5.271
73189W        W38669  35.903  38.022   2.886
73190W        W38670  40.824  19.188  14.869
73191W        W38671  14.733   5.889  12.563
73192W        W38672   1.810  33.031   4.300
73193W        W38673  30.595  39.519  14.909
73194W        W38674  21.566  15.724  10.917
73195W        W38675  28.641  37.403   0.350
73196W        W38676  14.813  30.482  11.109
73197W        W38677  42.863  18.145   4.784
73198W        W38678   2.906  30.025  10.929
73199W        W38679  12.301   9.309   2.769
73200W        W38680   2.953  11.188   0.257
73201W        W38681  22.015  43.932  14.487
73202W        W38682  21.253  39.392  13.470
73203W        W38683  36.872   9.794  11.582
73204W        W38684  33.443   8.901  10.580
73205W        W38685   8.664  38.975   4.341
73206W        W38686  41.940   9.340   4.323
73207W        W38687  22.550  20.623   4.614
73208W        W38688  26.035  35.024   2.674
73209W        W38689   6.752   3.847  14.508
73210W        W38690   0.981  17.566   3.666
73211W        W38691   7.228  43.420  13.051
73212W        W38692  16.163  26.053   4.803
73213W        W38693  36.499  20.101  11.119
73214W        W38694  35.905   8.794   1.821
73215W        W38695  29.090  18.587  11.435
73216W        W38696   1.300  40.860  11.544
73217W        W38697   9.200   5.307   0.409
73218W        W38698  13.315   5.229  14.837
73219W        W38699  30.154  43.352   4.298
73220W        W38700  43.368  35.041   0.792
73221W        W38701  40.364   7.391   2.779
73222W        W38702   8.406   1.842  11.405
73223W        W38703  32.550  23.576  10.404
73224W        W38704  17.595  16.137   2.811
73225W        W38705  32.400  42.961  11.576
73226W        W38706   8.208   3.854   1.774
73227W        W38707  12.766  23.049  14.812
73228W        W38708   2.248  42.840  13.033
73229W        W38709  35.457  12.350   4.341
73230W        W38710  20.074  28.634   3.680
73231W        W38711  37.517  42.461  14.777
73232W        W38712  24.025  22.531   1.882
73233W        W38713  35.392  22.155   2.194
73234W        W38714  13.188  16.154  13.976
73235W        W38715  32.444  17.080   1.374
73236W        W38716  25.531  10.807   3.663
73237W        W38717  11.856   6.424  14.292
73238W        W38718  43.851  27.625   4.194
73239W        W38719  18.139   2.235   3.657
73240W        W38720  11.773  38.463  14.844
73241W        W38721  44.985  36.412   2.275
73242W        W38722  44.277  40.802  11.432
73243W        W38723  32.898  22.096  13.388
73244W        W38724  10.228  36.854  13.452
73245W        W38725   4.225  31.952  14.025
73246W        W38726  14.654  23.099   1.235
73247W        W38727  20.547   4.368   0.814
73248W        W38728  38.907  33.435  13.028
73249W        W38729  27.056  32.574  10.505
73250W        W38730  30.508  38.970   4.213
73251W        W38731  16.691  17.609   3.706
73252W        W38732  15.770  38.014   0.951
73253W        W38733  13.659  14.293   0.350
73254W        W38734   3.921  38.551   1.735
73255W        W38735   1.878  39.942  14.862
73256W        W38736   4.386  30.648   0.774
73257W        W38737  38.354   5.258   0.345
73258W        W38738  39.531   2.906   3.807
73259W        W38739  16.102  23.682   4.134
73260W        W38740  35.512   3.245   0.468
73261W        W38741  30.993  27.084   1.847
73262W        W38742   7.722   0.392  11.003
73263W        W38743   7.258  34.076   1.859
73264W        W38744  11.852  14.204  12.833
73265W        W38745   4.350  31.508   3.843
73266W        W38746  30.549  17.198  14.888
73267W        W38747  30.081   3.880  14.789
73268W        W38748   5.859   6.342  13.930
73269W        W38749  41.343  39.315   0.806
73270W        W38750   6.875  31.113   4.259
73271W        W38751  39.878   9.164  12.017
73272W        W38752   0.461  39.419  13.467
73273W        W38753  14.670  35.911   2.779
73274W        W38754  18.782  37.020   0.417
73275W        W38755  27.113   0.433   2.789
73276W        W38756   9.168   5.735  14.335
73277W        W38757  19.239  41.836   4.238
73278W        W38758  16.261  14.805  12.351
73279W        W38759  32.064  41.986   2.760
73280W        W38760   7.799  24.022   4.834
73281W        W38761  14.764  39.411  14.458
73282W        W38762  19.569  22.643  12.537
73283W        W38763  42.920  35.539  13.401
73284W        W38764   1.790  42.972  12.953
73285W        W38765   2.238  26.092  13.845
73286W        W38766  17.574  17.100   3.814
73287W        W38767  10.757  43.503   4.333
73288W        W38768  35.364  40.457   1.837
73289W        W38769  41.384  43.940  14.288
73290W        W38770  22.562  17.582  14.952
73291W        W38771  15.772   9.300   1.299
73292W        W38772   7.910  31.431   0.826
73293W        W38773  36.559  33.891  10.938
73294W        W38774  27.103  40.353  12.481
73295W        W38775  35.078  22.626   5.237
73296W        W38776  43.412  28.065   0.846
73297W        W38777  33.085  24.201  14.471
73298W        W38778   5.738  32.618   0.805
73299W        W38779  40.897   1.311  12.365
73300W        W38780  28.013  35.933  13.922
73301W        W38781  16.079  25.083  11.086
73302W        W38782   2.877  44.451   3.669
73303W        W38783  18.107  43.422   0.382
73304W        W38784   0.324  33.063  14.961
73305W        W38785  40.020  11.804  14.408
73306W        W38786   7.207  35.912  10.406
73307W        W38787   4.322   0.259   1.835
73308W        W38788  26.187  42.290  11.102
73309W        W38789  13.780  37.857   2.812
73310W        W38790  25.050  15.822   3.765
73311W        W38791  42.948  38.968  14.474
73312W        W38792  15.206  26.566  12.960
73313W        W38793  24.148  36.012   1.822
73314W        W38794   9.205  14.659  10.575
73315W        W38795  44.310  43.884  10.536
73316W        W38796  29.149  22.174  11.898
73317W        W38797  22.065  44.496  13.916
73318W        W38798  33.001   1.369   3.230
73319W        W38799  18.769  28.140  14.486
73320W        W38800  37.086  17.623   1.421
73321W        W38801  22.157  31.906  10.418
73322W        W38802  17.277  24.995  14.979
73323W        W38803  25.673  31.136  10.619
73324W        W38804  41.414  26.053   0.329
73325W        W38805  22.608  37.517   3.278
73326W        W38806   5.397  31.069  11.416
73327W        W38807  27.681  19.670   0.437
73328W        W38808  43.888  42.994   3.152
73329W        W38809  13.738  29.592   0.730
73330W        W38810  21.524  32.470   3.632
73331W        W38811  38.438  11.167   1.790
73332W        W38812   6.403   5.335   3.177
73333W        W38813  41.992  12.713  12.574
73334W        W38814  43.370  26.186  11.453
73335W        W38815  18.780  14.296  13.480
73336W        W38816  29.493  39.560  13.044
73337W        W38817  29.061  31.031  12.476
73338W        W38818  40.360  26.026  12.901
73339W        W38819  27.485  17.070   1.380
73340W        W38820   3.945  42.343  13.534
73341W        W38821  31.038   8.895   0.382
73342W        W38822  31.631   5.211   1.395
73343W        W38823  26.179  16.730   0.963
73344W        W38824  28.571  14.621  13.036
73345W        W38825  11.300  39.530  13.472
73346W        W38826  10.153   4.366  14.828
73347W        W38827  24.037  39.349  10.977
73348W        W38828  18.260  27.507   2.412
73349W        W38829   9.349  27.621   1.285
73350W        W38830   7.324   0.416   1.319
73351W        W38831  15.228  40.445  12.051
73352W        W38832  20.057  15.758  14.928
73353W        W38833  31.589   0.892  12.441
73354W        W38834  32.505  21.143   2.831
73355W        W38835   1.910  28.563  13.473
73356W        W38836  39.523  38.549   2.681
73357W        W38837  20.728  41.349  12.566
73358W        W38838   3.307  39.334   4.349
73359W        W38839  41.858  27.478  11.390
73360W        W38840   1.361  36.964  14.997
73361W        W38841  32.898  40.886   4.633
73362W        W38842  40.318   7.759  12.559
73363W        W38843  13.626   3.221  11.563
73364W        W38844  12.264   1.387  12.382
73365W        W38845  17.122   3.772  10.516
73366W        W38846  32.942  42.937   5.141
73367W        W38847  24.157  12.166   1.902
73368W        W38848  41.376  21.538   5.204
73369W        W38849  17.700  30.640  12.952
73370W        W38850  22.659   8.170   4.147
73371W        W38851  16.775   7.382  14.819
73372W        W38852   1.822  15.725  14.358
73373W        W38853  33.564  26.681   0.346
73374W        W38854  40.038  32.935   3.363
73375W        W38855  43.850   4.404  14.909
73376W        W38856   5.745  41.358   2.860
73377W        W38857  28.130  13.759   0.341
73378W        W38858  19.264  37.061  13.887
73379W        W38859  37.847  38.012   1.814
73380W        W38860  34.036  22.610   1.255
73381W        W38861  22.562  42.297   1.341
73382W        W38862  15.205  33.624   0.899
73383W        W38863  31.962   5.325   1.231
73384W        W38864  28.031  25.151   3.187
73385W        W38865   4.337  40.936  11.422
73386W        W38866  13.754  35.493  11.427
73387W        W38867  12.839  39.941   0.782
73388W        W38868  33.467  41.296  10.111
73389W        W38869  19.727  12.286   0.340
73390W        W38870   9.845   9.383   4.814
73391W        W38871  14.180  37.034  10.606
73392W        W38872   9.706   3.723  11.437
73393W        W38873   3.860  39.331   4.686
73394W        W38874  10.323  16.293  14.327
73395W        W38875   8.747   5.759  13.918
73396W        W38876  13.269  13.631   3.869
73397W        W38877  42.940  37.945   3.685
73398W        W38878  39.555  12.179   1.236
73399W        W38879  23.161  23.653  14.810
73400W        W38880  40.901  27.183  11.585
73401W        W38881  38.389  17.628  14.871
73402W        W38882   4.223  40.937   0.807
73403W        W38883  18.064  13.309   0.365
73404W        W38884   9.677   8.840  11.476
73405W        W38885  33.881  34.069   3.865
73406W        W38886  15.759  26.554   0.406
73407W        W38887  28.499  36.060   1.414
73408W        W38888  27.960  42.462   1.809
73409W        W38889  37.370  34.925  13.388
73410W        W38890   8.707   5.758  10.020
73411W        W38891  32.532  41.327   1.701
73412W        W38892  41.320   7.337   4.183
73413W        W38893   1.851   7.865   1.918
73414W        W38894  33.399  43.993   3.691
73415W        W38895  14.636  44.309  11.963
73416W        W38896  43.496   3.286  14.294
73417W        W38897  27.111  25.708   2.691
73418W        W38898  42.981   5.787   4.822
73419W        W38899  21.261  22.562   0.332
73420W        W38900  31.448   7.776  13.458
73421W        W38901  43.931  19.635   2.367
73422W        W38902  27.141  32.514   0.884
73423W        W38903   5.283  32.959   4.212
73424W        W38904  11.331   3.937   4.137
73425W        W38905   1.407   8.366  11.570
73426W        W38906  42.466  22.088  13.316
73427W        W38907  20.536  17.194  12.470
73428W        W38908  19.731  31.942   4.331
73429W        W38909  10.271  39.948   2.216
73430W        W38910  23.585  38.356  10.608
73431W        W38911  36.080  38.063   1.926
73432W        W38912   7.716  41.014   3.216
73433W        W38913  11.252  39.885   4.255
73434W        W38914  23.141  18.557   0.444
73435W        W38915  35.854  32.577   1.824
73436W        W38916  37.485  35.527   0.367
73437W        W38917   5.900  13.236   1.899
73438W        W38918  30.000  37.904  14.927
73439W        W38919  13.214  10.191  13.004
73440W        W38920  27.555  20.176  14.420
73441W        W38921   2.756  27.485   2.270
73442W        W38922   4.735  18.118  13.896
73443W        W38923  13.222  19.177   0.817
73444W        W38924   1.837  40.525  11.112
73445W        W38925   4.848  17.283   0.316
73446W        W38926   3.398  25.016  11.065
73447W        W38927  31.913  28.998  14.278
73448W        W38928   4.882  19.568   0.263
73449W        W38929  20.053  40.913  12.475
73450W        W38930  27.099  10.243  12.883
73451W        W38931  40.526  41.911   1.697
73452W        W38932  41.899  31.089   2.277
73453W        W38933   8.368  12.290  13.929
73454W        W38934  42.468  31.896  13.360
73455W        W38935   6.817  20.670   4.216
73456W        W38936  16.176   1.371  12.074
73457W        W38937  16.737   7.301  13.442
73458W        W38938  24.081  32.955  11.488
73459W        W38939  18.252  36.517   2.666
73460W        W38940  17.108  27.067   1.913
73461W        W38941  33.599  37.010   1.244
73462W        W38942  34.469  13.171   1.414
73463W        W38943   8.314  10.285   4.309
73464W        W38944  31.442  36.020   4.807
73465W        W38945  30.044  15.107  13.390
73466W        W38946  15.241  24.144   2.747
73467W        W38947  11.799  14.258  10.968
73468W        W38948  43.921   7.687  14.405
73469W        W38949  14.698  30.015  12.930
73470W        W38950  38.419  11.164   4.285
73471W        W38951  36.924  40.323   1.904
73472W        W38952  22.130  20.167   2.386
73473W        W38953   7.893  32.897   1.711
73474W        W38954  32.536  26.967   3.338
73475W        W38955   8.761   0.942   4.717
73476W        W38956  39.982  38.538  10.424
73477W        W38957   7.683  14.325  13.827
73478W        W38958  22.733  37.938  12.094
73479W        W38959  42.495  19.214  11.421
73480W        W38960   5.738  24.672  11.946
73481W        W38961   4.379  22.105  11.879
73482W        W38962  40.336  14.588   2.892
73483W        W38963  28.450  39.517  13.881
73484W        W38964  33.484  43.510   3.853
73485W        W38965   4.915  21.105  14.027
73486W        W38966  38.489  16.752  13.318
73487W        W38967   9.245  26.640   4.644
73488W        W38968  29.132  34.997  10.953
73489W        W38969  30.073   7.274  12.037
73490W        W38970  15.606   2.752  14.289
73491W        W38971  36.023  14.596  14.335
73492W        W38972  22.669  35.479  11.411
73493W        W38973  19.670  36.850  11.409
73494W        W38974  11.188  22.508   4.710
73495W        W38975  15.115   4.255   1.866
73496W        W38976  33.045  44.404  13.346
73497W        W38977  20.084  32.413  11.409
73498W        W38978  33.915  36.377  12.450
73499W        W38979  40.037  38.525   1.754
73500W        W38980  15.624   9.195   4.180
73501W        W38981  13.295  32.417  14.910
73502W        W38982  31.645  43.877   4.186
73503W        W38983  13.201  30.144  11.447
73504W        W38984  38.037  38.964   2.823
73505W        W38985  22.138  41.519  13.363
73506W        W38986  19.690  41.993   1.390
73507W        W38987   5.417   7.354   2.205
73508W        W38988   0.468  36.547   4.187
73509W        W38989  17.653   1.358   2.767
73510W        W38990  36.417  24.698  13.978
73511W        W38991  31.107   3.766  10.605
73512W        W38992  17.779  24.012   1.302
73513W        W38993  31.911  28.136  13.885
73514W        W38994  30.613  21.720  13.330
73515W        W38995  19.565  22.670  14.910
73516W        W38996   8.852  33.512  13.457
73517W        W38997  11.839  27.035  11.532
73518W        W38998   8.847   8.182  11.962
73519W        W38999   5.810  12.809   0.933
73520W        W39000  34.542   6.735  10.507
73521W        W39001  34.432  26.154   4.226
73522W        W39002  41.494  13.295   4.203
73523W        W39003  21.727  17.564   2.366
73524W        W39004  41.928  39.856  10.137
73525W        W39005  35.012  36.865  11.547
73526W        W39006  38.484  38.423  10.890
73527W        W39007  13.331  26.460   0.471
73528W        W39008  29.050  38.551  12.072
73529W        W39009  39.911  22.621  14.882
73530W        W39010  34.921  20.136   0.243
73531W        W39011  31.553   3.221   3.354
73532W        W39012  11.149  35.454   4.284
73533W        W39013  24.589  38.375   4.209
73534W        W39014  34.911  18.546  14.319
73535W        W39015  23.228  36.902   1.423
73536W        W39016  31.982  19.148   4.632
73537W        W39017  30.016  18.269  12.886
73538W        W39018   4.396  10.381  13.950
73539W        W39019  23.054  18.595   1.746
73540W        W39020   6.298  20.204  12.999
73541W        W39021  32.105   5.857  10.124
73542W        W39022   8.878  40.973  14.979
73543W        W39023  32.426  39.455   4.148
73544W        W39024  30.924   8.778   1.256
73545W        W39025   3.757  20.731  11.431
73546W        W39026  22.662  25.709  11.883
73547W        W39027  16.706  32.531  14.497
73548W        W39028  11.839  28.930   5.235
73549W        W39029   6.900  19.630   2.788
73550W        W39030  30.506  32.537  12.416
73551W        W39031  30.577   9.841  12.058
73552W        W39032  23.222   1.747   3.150
73553W        W39033  28.668  14.677   0.289
73554W        W39034  36.021  14.717  12.939
73555W        W39035  16.214  27.067   2.841
73556W        W39036   6.733  11.302   0.258
73557W        W39037  19.698  38.968  14.477
73558W        W39038  44.385  20.762  10.565
73559W        W39039   0.363  22.034  12.942
73560W        W39040  29.561  40.854   1.292
73561W        W39041  39.550  38.384   4.339
73562W        W39042  14.775  11.741  11.572
73563W        W39043  42.352   3.874  10.007
73564W        W39044   4.905  20.074  11.504
73565W        W39045  22.740  39.851   2.798
73566W        W39046  26.006  21.621   1.407
73567W        W39047   8.883  23.205   4.290
73568W        W39048  33.390  24.009   2.305
73569W        W39049  29.156  30.105  11.048
73570W        W39050  29.659  34.387  14.286
73571W        W39051  34.401  22.075   0.429
73572W        W39052  27.988  26.029  14.844
73573W        W39053  41.028  18.685   1.392
73574W        W39054  28.174   3.424   4.630
73575W        W39055   9.823  34.985  14.966
73576W        W39056   2.751   5.280  11.882
73577W        W39057   6.750  39.033   3.739
73578W        W39058  15.729   4.738  10.595
73579W        W39059  29.030  32.527   0.455
73580W        W39060  36.399  12.636  10.926
73581W        W39061  44.267   8.655   1.449
73582W        W39062  42.840  20.701  13.919
73583W        W39063  16.626  23.621  11.110
73584W        W39064   6.246  38.974   3.678
73585W        W39065  16.707  16.614   0.392
73586W        W39066   7.849  15.088  14.011
73587W        W39067  33.032  33.963   4.188
73588W        W39068   0.478  44.975   0.771
73589W        W39069  29.572  14.170   5.150
73590W        W39070  25.026  42.448  12.053
73591W        W39071  26.490  44.377  13.446
73592W        W39072  29.034  35.072   2.237
73593W        W39073  24.590  10.792   4.169
73594W        W39074  38.383  42.966  12.048
73595W        W39075  40.504  12.685   2.729
73596W        W39076  41.486  42.906   4.621
73597W        W39077  36.973  10.244   2.301
73598W        W39078  44.960  22.689  14.987
73599W        W39079  21.548  36.567   3.239
73600W        W39080  17.149   0.782  13.019
73601W        W39081  36.424  31.558   4.619
73602W        W39082  22.676  19.235   4.632
73603W        W39083  26.115  25.582   4.319
73604W        W39084  18.050  41.328  12.403
73605W        W39085  44.000   7.698   1.330
73606W        W39086  16.756   2.337  11.108
73607W        W39087  16.757  18.658   2.673
73608W        W39088  41.022   8.658  14.348
73609W        W39089   0.488  22.503   2.836
73610W        W39090  13.736  19.641  10.938
73611W        W39091  15.798  12.630   5.599
73612W        W39092  13.717  34.614   2.734
73613W        W39093  30.440  37.492   0.877
73614W        W39094  34.115   0.772  11.611
73615W        W39095  36.956  29.128   4.609
73616W        W39096  39.449  17.267  13.400
73617W        W39097  43.339   4.264   2.898
73618W        W39098  20.629  18.636   2.847
73619W        W39099  33.504  14.328  14.785
73620W        W39100   2.303  20.669  14.783
73621W        W39101  10.863   3.247   1.409
73622W        W39102   8.294   7.797   0.383
73623W        W39103  32.945  17.238   3.852
73624W        W39104   4.399  12.699  11.072
73625W        W39105  17.301  14.319  14.019
73626W        W39106  33.546  34.564   4.170
73627W        W39107  20.156   7.337  12.379
73628W        W39108  22.129   5.802  13.446
73629W        W39109  28.989   1.743  13.012
73630W        W39110  12.765  20.201   3.700
73631W        W39111  27.688  41.381   0.260
73632W        W39112   9.201  13.177  14.491
73633W        W39113   8.289  39.948  12.433
73634W        W39114  29.918  10.339   0.412
73635W        W39115  40.402  16.723  11.935
73636W        W39116  14.634  39.961  14.881
73637W        W39117  43.996  33.400   2.360
73638W        W39118  24.196   0.886   3.690
73639W        W39119  23.615   5.803   1.311
73640W        W39120  30.489  39.820   2.213
73641W        W39121  41.385  19.080   0.328
73642W        W39122  11.255  41.913   3.796
73643W        W39123  30.436  39.436   4.708
73644W        W39124  30.960  10.725  12.888
73645W        W39125  36.970  35.921   3.361
73646W        W39126  28.582  13.310  13.968
73647W        W39127  31.104  23.154   3.629
73648W        W39128  28.472  12.715   1.885
73649W        W39129  35.397  38.947  14.355
73650W        W39130  15.744  15.206  14.797
73651W        W39131  15.326   3.343  14.298
73652W        W39132  34.907  20.617   4.604
73653W        W39133  24.072  11.173   4.827
73654W        W39134  19.689  23.607  11.517
73655W        W39135   2.903  41.373   3.311
73656W        W39136   7.880  41.831  12.909
73657W        W39137  29.018  12.631  13.402
73658W        W39138  14.687  32.616   0.893
73659W        W39139  17.706  24.641   1.269
73660W        W39140  44.919  27.136   2.816
73661W        W39141   6.775   8.241  14.365
73662W        W39142  15.295  16.761  12.494
73663W        W39143  40.336  36.348   0.428
73664W        W39144  19.077  17.588   0.337
73665W        W39145  22.027  37.033  11.861
73666W        W39146  22.162  15.592   2.289
73667W        W39147  43.432  14.314  14.914
73668W        W39148  39.317   8.700   1.789
73669W        W39149   9.163  42.964  14.821
73670W        W39150  15.319  16.138  14.855
73671W        W39151   6.727  32.950   0.271
73672W        W39152  42.300  33.952  14.468
73673W        W39153  42.846   6.784  14.883
73674W        W39154   6.758  23.649   1.224
73675W        W39155  35.441   7.191   0.452
73676W        W39156  22.677  28.500   2.672
73677W        W39157  44.001  26.687  12.486
73678W        W39158  14.822  36.467  14.787
73679W        W39159  31.152  43.829   1.383
73680W        W39160  31.406  33.123  10.566
73681W        W39161  16.621  22.995  10.930
73682W        W39162  17.648  20.063   1.229
73683W        W39163  32.628   7.412   2.876
73684W        W39164  43.874   8.293  14.938
73685W        W39165  35.021  31.470   3.654
73686W        W39166  18.664   1.930   1.896
73687W        W39167   1.432  12.816   2.800
73688W        W39168  37.862  34.950  11.892
73689W        W39169  33.987  22.546  12.930
73690W        W39170  10.285  22.624  13.922
73691W        W39171  26.003  29.466   3.352
73692W        W39172  29.486   8.750   1.930
73693W        W39173  27.561  28.624  13.927
73694W        W39174  39.960  41.334  11.855
73695W        W39175  38.859  14.694   4.121
73696W        W39176   4.943  19.090  10.940
73697W        W39177  37.440   7.900  14.894
73698W        W39178  41.861  35.870   4.248
73699W        W39179  10.173  43.435   0.823
73700W        W39180  34.052  36.855  13.427
73701W        W39181   0.285  41.452  13.868
73702W        W39182  38.853  19.590   0.248
73703W        W39183   7.698   8.796   1.890
73704W        W39184  36.386  24.110  14.888
73705W        W39185  39.883  37.405  14.814
73706W        W39186  40.332  24.187  12.495
73707W        W39187   9.741  22.684  10.574
73708W        W39188  22.713  20.748   2.292
73709W        W39189  29.009  24.588   3.759
73710W        W39190   0.419  27.007   2.304
73711W        W39191  42.900  20.056  12.462
73712W        W39192  33.912  36.039   4.147
73713W        W39193   0.789  23.003  14.855
73714W        W39194  23.532  33.904  12.926
73715W        W39195  18.218   3.838   2.189
73716W        W39196  31.098   4.277   3.296
73717W        W39197  17.164  15.177   2.207
73718W        W39198  18.698  32.412  13.818
73719W        W39199  11.334  40.965  14.921
73720W        W39200  44.364   2.281   0.785
73721W        W39201  42.376  42.946  12.873
73722W        W39202  42.952   9.862   1.264
73723W        W39203  20.767  44.952  11.447
73724W        W39204   9.675  25.060  12.848
73725W        W39205  24.503  41.367  13.957
73726W        W39206   6.380  19.633  13.349
73727W        W39207  28.172  13.794  10.060
73728W        W39208  13.814   2.876  10.443
73729W        W39209  23.636   1.280  10.927
73730W        W39210  16.623  32.977  14.334
73731W        W39211  10.740  35.969   0.455
73732W        W39212  38.419  40.308  11.568
73733W        W39213  33.438  18.151  13.981
73734W        W39214   0.378  37.918  14.493
73735W        W39215  10.338  44.809   3.369
73736W        W39216  34.524  10.187   3.256
73737W        W39217  30.041  26.602  11.543
73738W        W39218  13.757  33.485   3.681
73739W        W39219   8.271   3.773  10.615
73740W        W39220  12.613   4.327  11.897
73741W        W39221  33.572  29.957   0.252
73742W        W39222  26.655   9.849   2.888
73743W        W39223  25.148  44.307  13.895
73744W        W39224  30.444  17.702  14.781
73745W        W39225  21.251  13.256   5.280
73746W        W39226   2.339  39.879  13.060
73747W        W39227  43.396  28.002  10.504
73748W        W39228   8.728  43.844  11.447
73749W        W39229   7.296  18.610  11.882
73750W        W39230  28.022   4.423  13.918
73751W        W39231   5.434  31.140  12.957
73752W        W39232   4.324   3.394   0.909
73753W        W39233  42.779  32.035  10.953
73754W        W39234  33.023   6.181  14.336
73755W        W39235  23.691  16.788  12.021
73756W        W39236  43.862  20.041  11.416
73757W        W39237   0.953  36.078  14.393
73758W        W39238   2.326  36.022   2.252
73759W        W39239  34.993   6.215  10.603
73760W        W39240  26.509  26.032   3.260
73761W        W39241  17.137  44.981   4.693
73762W        W39242   3.374  36.570   0.815
73763W        W39243  10.343  16.652  11.583
73764W        W39244   8.664  11.732  13.536
73765W        W39245  38.822  33.552  10.977
73766W        W39246  14.336   9.837   0.837
73767W        W39247  29.970  36.529   4.828
73768W        W39248  35.075  33.091   0.396
73769W        W39249   3.218  33.381   4.209
73770W        W39250  27.452  33.077   1.861
73771W        W39251  41.358  24.080   2.291
73772W        W39252  24.061  41.952   4.210
73773W        W39253  26.951  44.451  14.771
73774W        W39254  22.649  15.648  14.029
73775W        W39255  12.804  30.504   0.418
73776W        W39256  36.561  15.607   4.651
73777W        W39257  13.635   2.872  11.032
73778W        W39258   3.220   9.741  11.396
73779W        W39259  35.383  21.253   4.138
73780W        W39260  28.463  25.052   1.342
73781W        W39261  29.665  11.727   2.868
73782W        W39262   6.252   3.418   0.735
73783W        W39263  41.888  37.906  12.362
73784W        W39264  25.002  27.088  12.435
73785W        W39265  17.161   0.759   1.790
73786W        W39266  25.571  18.276   1.274
73787W        W39267  31.938   7.241   1.236
73788W        W39268   3.260  30.070  11.399
73789W        W39269  12.834  37.069  14.293
73790W        W39270  32.423   5.247  12.499
73791W        W39271   7.901   1.913   3.869
73792W        W39272   5.914  14.099   4.143
73793W        W39273  36.973  38.412   2.416
73794W        W39274  40.430  41.977   0.447
73795W        W39275  16.267   1.281  13.547
73796W        W39276  17.732  37.889  12.930
73797W        W39277  41.913  31.984  13.810
73798W        W39278  32.567  26.965  13.317
73799W        W39279   3.261  20.210  13.362
73800W        W39280  18.646  27.091   3.817
73801W        W39281   7.903  24.114  12.044
73802W        W39282  21.115  43.815   5.260
73803W        W39283  43.433  36.536  14.953
73804W        W39284  41.508   8.166   1.791
73805W        W39285  18.595   3.856   1.299
73806W        W39286   8.730  16.571  13.351
73807W        W39287   7.902  18.142  11.435
73808W        W39288  37.972  40.515  11.049
73809W        W39289  13.259   1.882   1.235
73810W        W39290   6.690  24.077   1.226
73811W        W39291  30.536  34.574  13.321
73812W        W39292  39.329  13.652   3.294
73813W        W39293   3.829   3.896  11.914
73814W        W39294  22.745  24.105  10.579
73815W        W39295   0.422  44.350   2.382
73816W        W39296  19.614  13.710  14.445
73817W        W39297  24.197  22.732   0.291
73818W        W39298  39.829   8.885  10.891
73819W        W39299  24.170  40.338  12.901
73820W        W39300  37.375  20.644   4.673
73821W        W39301  42.941  12.218  14.879
73822W        W39302  38.054  42.390  12.893
73823W        W39303  18.746  13.186   5.211
73824W        W39304  14.140  12.756   0.757
73825W        W39305  33.537  44.374  11.434
73826W        W39306  42.891   7.387  13.861
73827W        W39307  24.647   1.880   2.310
73828W        W39308   0.830  36.072  12.894
73829W        W39309  26.473   2.806   0.907
73830W        W39310  11.355  37.481   4.182
73831W        W39311   7.405  35.410  11.471
73832W        W39312   8.851  23.535   0.466
73833W        W39313   0.374  24.481  11.432
73834W        W39314  38.024  24.177  10.051
73835W        W39315   4.865   4.314  13.922
73836W        W39316   9.270  12.669  11.385
73837W        W39317   2.814  40.919   3.786
73838W        W39318   2.369  29.507  12.356
73839W        W39319  13.251  36.018  14.782
73840W        W39320  17.196  41.842   2.893
73841W        W39321   9.800  44.455   0.859
73842W        W39322  24.698  32.934   3.316
73843W        W39323  34.023  12.216  14.379
73844W        W39324  24.688  26.513  14.912
73845W        W39325  17.591   0.758  13.895
73846W        W39326  18.094  34.603   1.702
73847W        W39327   6.240   2.798   1.370
73848W        W39328  31.471  38.993  10.532
73849W        W39329   0.846  23.575  13.367
73850W        W39330  19.232  30.023   3.357
73851W        W39331  18.730  10.274  12.577
73852W        W39332  22.158   9.291  10.470
73853W        W39333   0.984  26.090   2.407
73854W        W39334  34.392  23.006   0.409
73855W        W39335  11.145  18.055   2.330
73856W        W39336  29.116  31.441  14.936
73857W        W39337  16.771   1.854  11.079
73858W        W39338  31.500  25.151   4.827
73859W        W39339  24.653  31.058  13.007
73860W        W39340  44.820  13.299   2.783
73861W        W39341   9.153  25.591   4.319
73862W        W39342  20.169   9.739   4.826
73863W        W39343  14.714  43.480   0.282
73864W        W39344  38.881  29.140  14.385
73865W        W39345  13.105  19.621   0.272
73866W        W39346  31.913   1.929  11.481
73867W        W39347   9.186  40.878   0.300
73868W        W39348  43.815  33.419   0.873
73869W        W39349  25.081  21.689  13.464
73870W        W39350  16.571  37.984  13.857
73871W        W39351  17.096  20.118   3.764
73872W        W39352  43.004  15.304  12.039
73873W        W39353  10.178  21.155  11.502
73874W        W39354   1.740  36.028  11.042
73875W        W39355  29.488  16.809  13.376
73876W        W39356   1.318  13.799  13.843
73877W        W39357   1.758  15.278   0.297
73878W        W39358  14.655  10.293   1.341
73879W        W39359  38.555  18.133   2.322
73880W        W39360  43.977  17.222  14.315
73881W        W39361   7.309   8.307  11.947
73882W        W39362  37.389  15.207   1.285
73883W        W39363  23.012  13.330  11.015
73884W        W39364  27.086  32.584  14.374
73885W        W39365  32.937  10.140   1.845
73886W        W39366  27.496  13.249   2.865
73887W        W39367  11.359  15.277  11.950
73888W        W39368  10.348  11.128   3.654
73889W        W39369  32.506  39.915   1.378
73890W        W39370   3.331  43.996   1.860
73891W        W39371  31.954   8.399   2.701
73892W        W39372   6.774  42.335   2.328
73893W        W39373  43.857  34.503   4.688
73894W        W39374  17.599  43.277   2.842
73895W        W39375  41.426   5.784   1.916
73896W        W39376  42.815  12.350   2.247
73897W        W39377  38.329  13.627  11.026
73898W        W39378  11.182  41.935   1.909
73899W        W39379  38.405  18.164   9.990
73900W        W39380  23.984  39.837  13.513
73901W        W39381   3.457  44.449   3.842
73902W        W39382  22.649  24.667  11.121
73903W        W39383  10.251  22.162  10.080
73904W        W39384  10.205  34.100   0.914
73905W        W39385  11.801  22.239  10.145
73906W        W39386  26.481  43.955   4.681
73907W        W39387   2.963  44.784  10.890
73908W        W39388   4.800  35.510  14.389
73909W        W39389  12.246  21.693   4.666
73910W        W39390  37.044  31.946  14.941
73911W        W39391  13.188  13.336   3.643
73912W        W39392  28.117  25.065   2.697
73913W        W39393  28.956  11.175   1.378
73914W        W39394  34.393  44.011   3.785
73915W        W39395  28.604  20.555   1.242
73916W        W39396   2.818  26.551   4.800
73917W        W39397   0.365   4.312  14.764
73918W        W39398  44.893  16.714  13.047
73919W        W39399  20.741  44.849  14.962
73920W        W39400  17.584  35.958   2.360
73921W        W39401   8.888  43.495   5.120
73922W        W39402  25.156  18.297  13.327
73923W        W39403  34.562  13.336   2.386
73924W        W39404  36.470   8.842   4.196
73925W        W39405  17.222  27.984  12.885
73926W        W39406  15.599  40.822  12.494
73927W        W39407  30.550  41.028  13.387
73928W        W39408  31.506   4.782  13.937
73929W        W39409  16.656  19.541   3.216
73930W        W39410  38.550  26.624   9.928
73931W        W39411  17.096  20.203   1.434
73932W        W39412   9.761  25.003   3.268
73933W        W39413  38.553  36.553   1.929
73934W        W39414  18.601  35.040   1.401
73935W        W39415  30.446  40.890   0.754
73936W        W39416  34.864  19.631   5.219
73937W        W39417   5.838  25.532  14.512
73938W        W39418  40.543  33.462  13.986
73939W        W39419  33.894  37.397   3.797
73940W        W39420  15.238   6.415  11.475
73941W        W39421  24.055  13.614   4.200
73942W        W39422  26.634  36.028   1.860
73943W        W39423  34.543  33.424  11.547
73944W        W39424   8.687  21.201  12.994
73945W        W39425  30.953  11.149  11.870
73946W        W39426   4.445  43.504   2.231
73947W        W39427  14.124  40.508   1.336
73948W        W39428   3.776  13.185  10.898
73949W        W39429  39.547   9.837   0.272
73950W        W39430  39.871  22.548   4.193
73951W        W39431  17.689  10.301  14.769
73952W        W39432  30.634  25.980  12.861
73953W        W39433  38.528  21.560   3.250
73954W        W39434   1.239  37.360  12.002
73955W        W39435  31.626  44.383  11.127
73956W        W39436  35.552  13.619   3.291
73957W        W39437  27.479   9.379  11.547
73958W        W39438  30.088  31.630   1.288
73959W        W39439  20.132   2.957   1.714
73960W        W39440  39.358   8.279   2.242
73961W        W39441  18.590   4.898   3.197
73962W        W39442  20.260   7.727   9.973
73963W        W39443  27.106   5.398  11.046
73964W        W39444   6.694   7.222  11.575
73965W        W39445  10.675  22.642   3.778
73966W        W39446  20.084  28.104   3.244
73967W        W39447  37.992  25.551   1.856
73968W        W39448   4.794  36.360   0.883
73969W        W39449  28.997  12.223   3.219
73970W        W39450   9.268  42.842  11.104
73971W        W39451  19.767   7.406   0.360
73972W        W39452   6.864  11.368  14.414
73973W        W39453  33.600  37.860  14.325
73974W        W39454  42.450  16.703  14.889
73975W        W39455  23.121  42.780  13.958
73976W        W39456  44.993  11.818   1.848
73977W        W39457   6.691  37.378   0.293
73978W        W39458  14.247  25.965  14.961
73979W        W39459   7.831  18.182   2.186
73980W        W39460  40.889  36.366   1.259
73981W        W39461  44.840   7.889  10.414
73982W        W39462  41.894  25.581  11.031
73983W        W39463   3.842  37.059  11.449
73984W        W39464  11.308   2.268   0.420
73985W        W39465  41.426  31.595  10.635
73986W        W39466   7.288  44.367  10.444
73987W        W39467  14.094  38.428  10.475
73988W        W39468  14.705  29.948   2.873
73989W        W39469  30.966  25.536   1.887
73990W        W39470  19.211  18.211   1.736
73991W        W39471  17.305  14.782  12.000
73992W        W39472  32.581  24.123  10.949
73993W        W39473  10.717  41.984  14.992
73994W        W39474  14.253  41.907  10.451
73995W        W39475  24.061  11.366   1.247
73996W        W39476   8.375  38.467  10.638
73997W        W39477  41.389  16.663  11.593
73998W        W39478  38.381  23.656   3.166
73999W        W39479   4.912   5.227   0.372
74000W        W39480   4.895  40.471  12.987
74001W        W39481  14.124  15.697  13.840
74002W        W39482   9.652  24.674   0.810
74003W        W39483   6.207  22.126   1.405
74004W        W39484  17.146   7.700  14.423
74005W        W39485  28.060  32.952   1.751
74006W        W39486  21.520  34.048  11.954
74007W        W39487  15.816  12.233  14.989
74008W        W39488  20.641  24.565   2.686
74009W        W39489  13.748   0.939   1.741
74010W        W39490  42.342   7.409  11.479
74011W        W39491   0.364  20.048   3.362
74012W        W39492  36.415   9.278  10.949
74013W        W39493  21.710   3.785  11.439
74014W        W39494  33.971   9.696   4.143
74015W        W39495  32.586  24.522  11.084
74016W        W39496  31.918  41.884  13.373
74017W        W39497  33.594  13.220   1.384
74018W        W39498  12.829  24.641   2.212
74019W        W39499  29.116  31.147   1.894
74020W        W39500  36.970   7.904  12.463
74021W        W39501  29.604   6.289  14.834
74022W        W39502   1.421  27.638  13.430
74023W        W39503   9.348  13.641   0.335
74024W        W39504  19.261  27.498  13.339
74025W        W39505  24.576  43.816   5.656
74026W        W39506  39.905  19.602  14.289
74027W        W39507   6.690  24.585  14.780
74028W        W39508  20.109  22.585   4.349
74029W        W39509  26.190  36.923   4.141
74030W        W39510  13.617   4.284   0.344
74031W        W39511  22.167  12.766  11.856
74032W        W39512  22.208  12.616  11.574
74033W        W39513  39.830  27.964   2.724
74034W        W39514  29.545  43.807   3.282
74035W        W39515  17.271  30.945   4.213
74036W        W39516  18.586  20.674  10.500
74037W        W39517  27.985  44.958  13.519
74038W        W39518  22.177   8.224  12.887
74039W        W39519  27.044   0.330  11.407
74040W        W39520  36.448  14.330  10.081
74041W        W39521  20.564  34.008  10.533
74042W        W39522  10.780  24.164  10.585
74043W        W39523  38.038  30.950  13.491
74044W        W39524  14.671  33.006   1.825
74045W        W39525  36.039   1.272   3.834
74046W        W39526  38.923  35.584  11.985
74047W        W39527  20.230  29.489   4.643
74048W        W39528  38.495   1.897  12.389
74049W        W39529   6.293  10.204  12.461
74050W        W39530  41.935  21.698   4.117
74051W        W39531   5.751  25.066  13.350
74052W        W39532   5.884   2.358   2.860
74053W        W39533  39.853  43.300  13.898
74054W        W39534  17.255   1.406  10.603
74055W        W39535  29.960   6.911  11.597
74056W        W39536  30.469  34.927   1.276
74057W        W39537  14.171   4.313  12.945
74058W        W39538  34.105  25.539  11.557
74059W        W39539  16.736  32.508   0.353
74060W        W39540   3.927  38.039   2.762
74061W        W39541  15.811  36.348   1.224
74062W        W39542  26.602  13.623  10.964
74063W        W39543  12.248  24.182   3.150
74064W        W39544  43.936  13.178  14.876
74065W        W39545  27.096  37.906  12.537
74066W        W39546  16.297   9.303   3.247
74067W        W39547  23.127  26.627  11.535
74068W        W39548   0.898  23.992   1.315
74069W        W39549   9.220  18.632  14.801
74070W        W39550  42.874  44.349  14.964
74071W        W39551  39.477  21.752   3.672
74072W        W39552   6.798  18.153  13.543
74073W        W39553  10.333  31.945  12.913
74074W        W39554  21.554  43.506  12.890
74075W        W39555  11.729  29.600  10.990
74076W        W39556   4.907  16.269  10.924
74077W        W39557  33.054  44.327   1.348
74078W        W39558  36.908   5.704   3.289
74079W        W39559  34.428  36.415   2.865
74080W        W39560   4.207  11.694   1.755
74081W        W39561  38.884  40.400  12.415
74082W        W39562  43.910   3.793   3.271
74083W        W39563  18.692  23.225   4.183
74084W        W39564  25.130  39.425   0.294
74085W        W39565  35.017  40.422   1.886
74086W        W39566   4.431  32.579   4.700
74087W        W39567   8.296  20.623   1.213
74088W        W39568  26.514   5.203  12.002
74089W        W39569  14.163  43.498   5.102
74090W        W39570  23.022  33.097  13.888
74091W        W39571  10.182  44.300  10.951
74092W        W39572  11.149   5.376  14.823
74093W        W39573  23.032  24.527  12.362
74094W        W39574  41.404  13.660   1.251
74095W        W39575  31.127  28.980   2.276
74096W        W39576  40.400  26.088  14.510
74097W        W39577   9.348  31.422  14.836
74098W        W39578  29.456  35.054  12.032
74099W        W39579   6.883  27.000  14.506
74100W        W39580  16.192   6.725  10.918
74101W        W39581  37.011  33.570  12.916
74102W        W39582  37.495   1.755  10.924
74103W        W39583  32.558   7.372  11.909
74104W        W39584  13.211   7.362  13.465
74105W        W39585   5.319   1.873  14.017
74106W        W39586  38.003  39.343  12.470
74107W        W39587  15.154  30.080  13.007
74108W        W39588  29.977  23.570  11.520
74109W        W39589  36.966  43.791   0.832
74110W        W39590   0.422  23.171   0.338
74111W        W39591  12.296  32.914  11.551
74112W        W39592  25.027  29.478  14.949
74113W        W39593  20.645  43.466  10.909
74114W        W39594  22.519  40.470   4.642
74115W        W39595  17.069   2.309   1.284
74116W        W39596  23.652   6.243   4.808
74117W        W39597   6.220  38.328   1.296
74118W        W39598  36.968  23.734   3.331
74119W        W39599  37.944  12.237  13.429
74120W        W39600   5.439  37.830   2.853
74121W        W39601  29.042  40.829  10.949
74122W        W39602  28.976  21.740  11.394
74123W        W39603  32.530  39.012  13.493
74124W        W39604  25.543  33.917  14.014
74125W        W39605  31.107  22.099  13.805
74126W        W39606  25.021  31.949  11.894
74127W        W39607  28.448  27.643   1.799
74128W        W39608  34.868   0.380   1.715
74129W        W39609  15.622  18.210   2.758
74130W        W39610  24.984  22.515   1.417
74131W        W39611  15.606  27.657  14.855
74132W        W39612  29.042  44.788   4.610
74133W        W39613   7.719  21.167   1.370
74134W        W39614  18.781  30.046   2.344
74135W        W39615  10.262  44.347  13.828
74136W        W39616  23.687   7.801  13.882
74137W        W39617   2.254   9.806  13.038
74138W        W39618  24.699  35.414  12.087
74139W        W39619  17.664  35.923   4.642
74140W        W39620   3.400  36.390  14.512
74141W        W39621  29.093  35.878   2.373
74142W        W39622  34.434  34.437  13.522
74143W        W39623  43.955  38.074   0.947
74144W        W39624  19.545  20.669   3.324
74145W        W39625  41.418   8.773   3.206
74146W        W39626  19.231   3.830  12.444
74147W        W39627  32.569  28.670  14.393
74148W        W39628  30.621  20.074  12.468
74149W        W39629  39.949  23.725  12.001
74150W        W39630  17.177  35.864  13.528
74151W        W39631  23.094  24.567  11.377
74152W        W39632  33.063  26.116  13.879
74153W        W39633  24.999  29.490  13.004
74154W        W39634  11.157  32.526  10.561
74155W        W39635  21.519  23.602   0.274
74156W        W39636   3.312   7.876  13.496
74157W        W39637   0.780  14.822   4.819
74158W        W39638   0.924  11.331   1.295
74159W        W39639  35.095  12.789  13.943
74160W        W39640   3.922  43.794  14.421
74161W        W39641   2.440  33.444  14.376
74162W        W39642  18.596  25.102  11.490
74163W        W39643  35.478  39.494  10.584
74164W        W39644  31.525  12.812   0.777
74165W        W39645  28.630  21.194  11.528
74166W        W39646  16.672  11.267  14.352
74167W        W39647  42.806  19.716   1.390
74168W        W39648   8.281  42.285   4.315
74169W        W39649  40.491  12.754   1.805
74170W        W39650   2.922  12.245   0.462
74171W        W39651  21.611  38.981   4.837
74172W        W39652  24.216  36.581   2.352
74173W        W39653  25.993   8.804   5.295
74174W        W39654  37.854   8.214   1.795
74175W        W39655  22.094   1.861   3.245
74176W        W39656  39.018   4.926  13.014
74177W        W39657  28.009  40.893   4.327
74178W        W39658   9.297  40.917   1.245
74179W        W39659   6.264   1.768  12.904
74180W        W39660  14.628  30.152  14.922
74181W        W39661  36.883   4.377   4.675
74182W        W39662   2.761  32.392   4.697
74183W        W39663  36.427  35.548  14.456
74184W        W39664  24.685   7.229   2.248
74185W        W39665   8.846  42.005  14.805
74186W        W39666  42.371   0.348   1.422
74187W        W39667  32.053  42.869  14.898
74188W        W39668  30.138  24.515   3.262
74189W        W39669  28.091  24.987  11.995
74190W        W39670  27.058  35.417  11.462
74191W        W39671  19.643  20.131  14.937
74192W        W39672  39.858   9.724  10.634
74193W        W39673   1.953  35.485   2.812
74194W        W39674  24.123  18.547   2.747
74195W        W39675   9.854  10.236   1.268
74196W        W39676  33.484  13.180   2.856
74197W        W39677   9.235  44.276   9.921
74198W        W39678  14.339  18.648   3.763
74199W        W39679  26.575  27.948   2.184
74200W        W39680  32.975  22.180   2.191
74201W        W39681  43.889  28.081   4.216
74202W        W39682   4.207  43.453  13.347
74203W        W39683   2.838   0.386  13.897
74204W        W39684  24.015  19.735   5.127
74205W        W39685  42.346  30.143   1.768
74206W        W39686  31.022   7.375   3.234
74207W        W39687  33.929  25.081  11.397
74208W        W39688  20.040  24.680   4.253
74209W        W39689  41.831  20.204   4.821
74210W        W39690  42.819  39.936  14.417
74211W        W39691  12.158  11.373   1.867
74212W        W39692   4.756  13.618   0.429
74213W        W39693  24.687  23.662  14.423
74214W        W39694  17.292  33.501   0.300
74215W        W39695  31.596  32.571   1.729
74216W        W39696  20.595  19.692   3.177
74217W        W39697  33.446  17.625  10.964
74218W        W39698  44.845   7.212  13.414
74219W        W39699  38.569  15.216  11.392
74220W        W39700  33.469  27.002   5.087
74221W        W39701   3.346   3.332  12.513
74222W        W39702  10.237  11.729  14.436
74223W        W39703  16.777  33.124   0.467
74224W        W39704  34.897   0.821  11.909
74225W        W39705  33.519  36.975  11.541
74226W        W39706  40.000  30.656   3.866
74227W        W39707  40.008  26.581   2.286
74228W        W39708  11.250  13.619  11.014
74229W        W39709  37.431  30.493   2.858
74230W        W39710  15.216   2.376   0.951
74231W        W39711   1.454  30.622  10.966
74232W        W39712   7.895  21.512   2.329
74233W        W39713   9.175  16.735   3.253
74234W        W39714  34.047  26.171   4.778
74235W        W39715   2.722  15.623  12.528
74236W        W39716  39.919  39.046   2.767
74237W        W39717  18.779   8.786  11.952
74238W        W39718  27.510  18.083   1.264
74239W        W39719   2.890  41.519  10.529
74240W        W39720  21.073  10.715   1.859
74241W        W39721  27.082  43.000  12.045
74242W        W39722   9.369   4.733   3.208
74243W        W39723   3.945   2.419   1.451
74244W        W39724   7.312   9.749   2.202
74245W        W39725  24.608  38.493  12.377
74246W        W39726  24.163   5.332  10.487
74247W        W39727  27.493  35.925   1.218
74248W        W39728  40.979  23.493   1.224
74249W        W39729  21.560   9.807   2.767
74250W        W39730  42.387  22.516  11.905
74251W        W39731  40.499  15.306  13.816
74252W        W39732  34.112  38.471  12.536
74253W        W39733  11.667   6.259  12.497
74254W        W39734  25.542  26.089   3.319
74255W        W39735  29.957  25.177  11.092
74256W        W39736  26.571   8.237  13.332
74257W        W39737  18.144  31.011  11.613
74258W        W39738  19.268   0.398   0.474
74259W        W39739  17.233  29.657  13.352
74260W        W39740  24.061  29.166  10.625
74261W        W39741  15.270  21.689   4.829
74262W        W39742  44.385  30.980  12.381
74263W        W39743  11.369  12.361  10.467
74264W        W39744  16.086  18.112   0.956
74265W        W39745  38.829  34.077  11.948
74266W        W39746   3.823  29.995   1.705
74267W        W39747  29.942  42.833  12.919
74268W        W39748  36.550  32.632  13.968
74269W        W39749  30.507  33.510   2.713
74270W        W39750  18.246   3.950  11.002
74271W        W39751  13.191  36.906   0.272
74272W        W39752  35.007  44.294  14.421
74273W        W39753   3.834  26.022  10.507
74274W        W39754  17.295  36.857  14.288
74275W        W39755  33.499  21.179  10.627
74276W        W39756  32.071  16.735  11.933
74277W        W39757  15.142  17.119   1.741
74278W        W39758  38.897  27.512   0.332
74279W        W39759  33.008  28.520  12.977
74280W        W39760  25.193  34.003  12.355
74281W        W39761  43.510   4.356  10.907
74282W        W39762  37.030  40.349   3.812
74283W        W39763  18.782   7.832   5.182
74284W        W39764  36.515  24.552   2.359
74285W        W39765   4.802  22.109   0.802
74286W        W39766  33.897  14.237  14.506
74287W        W39767  26.550   8.857   1.415
74288W        W39768  17.296   3.297   0.281
74289W        W39769  14.148  30.067   3.227
74290W        W39770   2.299   4.752  10.538
74291W        W39771  20.583  33.406  12.394
74292W        W39772  16.161  22.664  10.595
74293W        W39773  16.137  31.022  14.419
74294W        W39774  13.144   4.924   5.224
74295W        W39775  24.588  41.342  10.893
74296W        W39776  44.312  10.778   3.319
74297W        W39777  44.942  26.686   2.378
74298W        W39778  42.489  26.578   1.338
74299W        W39779   1.941  11.139   1.257
74300W        W39780   7.731   7.400   2.199
74301W        W39781  34.374  37.968   1.779
74302W        W39782  37.473  39.361   1.771
74303W        W39783  25.023  25.661   1.713
74304W        W39784  25.097  43.950   2.322
74305W        W39785  15.687  40.449  12.901
74306W        W39786  20.115  19.709   0.817
74307W        W39787  28.011  37.037  14.321
74308W        W39788  31.021  22.221  10.405
74309W        W39789  37.026  10.380  13.000
74310W        W39790  13.149   7.309  12.913
74311W        W39791  42.453   2.422  14.865
74312W        W39792  17.079  32.475   3.336
74313W        W39793  44.466   1.290   2.806
74314W        W39794  16.308  21.100  13.957
74315W        W39795  29.072   0.873   4.215
74316W        W39796  26.592  44.475   3.769
74317W        W39797  23.199  19.578   3.645
74318W        W39798  30.103  39.978  14.838
74319W        W39799  41.508  40.007  11.425
74320W        W39800  12.358  36.435  12.022
74321W        W39801   5.198  14.593   1.264
74322W        W39802  23.552  33.897  14.474
74323W        W39803  37.408  34.570   4.727
74324W        W39804  44.912  41.835   3.645
74325W        W39805  18.193  21.613  14.351
74326W        W39806  27.019  37.990  11.593
74327W        W39807  15.768  31.975   2.861
74328W        W39808   1.870  14.710   1.899
74329W        W39809   8.840  37.418  12.025
74330W        W39810   9.851  32.046   0.332
74331W        W39811   7.864  10.221   2.846
74332W        W39812  32.509  22.668   3.807
74333W        W39813  15.200  37.438   3.651
74334W        W39814  35.408  29.495  12.398
74335W        W39815  43.780  13.338   1.898
74336W        W39816   4.912  34.965  11.943
74337W        W39817   0.868  15.252   0.435
74338W        W39818  22.629  23.173  12.973
74339W        W39819  19.188  41.386  11.864
74340W        W39820  15.715  24.555  12.522
74341W        W39821  31.645  20.680  13.476
74342W        W39822   3.862   1.428  12.522
74343W        W39823  23.658  11.310   0.941
74344W        W39824   0.425  12.236  10.579
74345W        W39825  17.147  40.895   3.850
74346W        W39826  12.661   8.285   4.215
74347W        W39827  12.211  21.626  13.031
74348W        W39828  37.899   0.352   2.897
74349W        W39829   8.331  27.571  14.882
74350W        W39830  15.654  18.769   3.671
74351W        W39831  22.070  29.495  11.993
74352W        W39832  16.314  21.114   3.793
74353W        W39833  24.060  13.753   1.763
74354W        W39834  12.121  34.908   2.798
74355W        W39835  25.153  16.254   2.868
74356W        W39836  14.282   3.274  13.924
74357W        W39837   0.877   9.391   0.928
74358W        W39838  40.378  29.015   3.835
74359W        W39839  15.090  17.778   4.287
74360W        W39840  39.353  43.996   4.232
74361W        W39841  34.436  11.243  12.084
74362W        W39842   2.422  18.678  14.856
74363W        W39843   1.407  31.092  12.429
74364W        W39844  13.203  10.679  12.912
74365W        W39845  41.980   4.429   0.944
74366W        W39846  28.552  29.127   1.850
74367W        W39847   3.423  29.973   1.351
74368W        W39848  15.174  21.018   2.722
74369W        W39849   0.259  29.948  11.990
74370W        W39850   2.852  10.815  11.498
74371W        W39851  15.288  34.908   0.287
74372W        W39852  17.676  21.152  13.308
74373W        W39853  34.028   4.284   4.199
74374W        W39854  39.955  25.676  13.331
74375W        W39855  36.518  25.998  11.582
74376W        W39856   5.329   2.408  10.496
74377W        W39857  22.626  11.659  11.908
74378W        W39858   7.757  32.960   1.298
74379W        W39859  40.029   1.420  13.005
74380W        W39860   1.966  34.375   3.647
74381W        W39861  24.056  22.695   4.668
74382W        W39862  24.142  43.313   4.744
74383W        W39863  19.546  34.065   4.787
74384W        W39864  18.127  19.589   3.173
74385W        W39865  19.674   0.437   1.799
74386W        W39866  39.416  43.871  12.432
74387W        W39867   8.834  16.101  14.027
74388W        W39868  17.669  12.829  14.450
74389W        W39869  12.857  36.350  12.042
74390W        W39870  11.186   7.225  14.806
74391W        W39871  37.433   0.281  11.391
74392W        W39872  25.692  22.206  10.620
74393W        W39873  42.495  31.402  13.454
74394W        W39874   2.311   7.247  13.527
74395W        W39875  32.624  40.866  14.490
74396W        W39876  11.238  16.756  11.018
74397W        W39877   3.450  26.960   2.214
74398W        W39878  41.336  30.631  11.985
74399W        W39879  38.980  23.680   2.836
74400W        W39880  24.127  35.933  11.965
74401W        W39881  18.716   4.413   3.234
74402W        W39882  36.561  16.777  14.338
74403W        W39883  37.515  37.489   9.936
74404W        W39884  23.494  23.206   4.234
74405W        W39885  18.064  37.044   4.167
74406W        W39886  27.012  29.559  10.908
74407W        W39887  16.626   9.159  13.875
74408W        W39888  31.487  10.367  13.946
74409W        W39889  11.758  40.477  14.807
74410W        W39890  34.901  24.019   3.741
74411W        W39891  26.102  41.787   4.213
74412W        W39892   9.843  24.563   1.231
74413W        W39893  39.335  23.233   1.322
74414W        W39894  43.498  32.920  13.989
74415W        W39895  25.963  29.116  13.053
74416W        W39896  12.830  34.873   0.353
74417W        W39897  41.389  36.423   0.422
74418W        W39898  30.638  33.924   3.308
74419W        W39899  23.195  39.336  12.078
74420W        W39900  10.233  29.445  13.924
74421W        W39901  42.460  24.085  10.454
74422W        W39902   1.388   7.219  12.508
74423W        W39903  26.135   0.371   3.672
74424W        W39904   0.867   1.905   2.192
74425W        W39905  37.977  14.186  11.104
74426W        W39906  16.573  30.517  13.973
74427W        W39907   3.866  41.396  13.901
74428W        W39908  21.149  38.947   4.324
74429W        W39909  27.639  38.035   4.671
74430W        W39910  17.624   6.416   2.377
74431W        W39911  29.466  40.346   4.227
74432W        W39912   8.862   8.299  11.537
74433W        W39913  37.933  13.668  11.104
74434W        W39914   3.863   7.176  11.373
74435W        W39915  34.488  10.708  11.382
74436W        W39916  44.890  29.012  12.976
74437W        W39917  40.463  34.471   0.394
74438W        W39918  21.529  43.404  14.361
74439W        W39919  29.655  30.909  14.842
74440W        W39920  41.003   1.838  14.383
74441W        W39921  26.577  31.411  13.926
74442W        W39922  42.994  19.095   3.774
74443W        W39923  21.649  16.734  10.945
74444W        W39924  29.066   6.767   1.737
74445W        W39925  32.409  23.662   4.193
74446W        W39926  11.345  21.210  14.451
74447W        W39927   9.777  26.509   2.235
74448W        W39928  19.777  42.352  14.835
74449W        W39929  42.781  40.349   0.792
74450W        W39930   0.408  16.194  10.541
74451W        W39931  29.576  42.353  13.851
74452W        W39932  44.323   7.738  14.792
74453W        W39933   9.802  42.861  13.389
74454W        W39934  34.932   4.767   4.758
74455W        W39935  10.344   4.308  10.525
74456W        W39936   4.296  41.924   4.302
74457W        W39937  43.945  23.646  11.561
74458W        W39938  25.092  42.949  14.844
74459W        W39939  24.577   9.817   1.799
74460W        W39940  41.947  15.766   3.713
74461W        W39941   3.813  39.994   0.371
74462W        W39942  44.490  26.550   1.321
74463W        W39943  17.090  18.198   3.648
74464W        W39944  36.936  44.409  14.853
74465W        W39945  41.309   5.932  13.532
74466W        W39946   1.804  15.736   3.365
74467W        W39947   7.199  37.081  13.429
74468W        W39948  43.021  29.584   3.642
74469W        W39949  30.444  43.505  13.959
74470W        W39950   7.690   4.376   3.238
74471W        W39951  39.844  27.041   2.876
74472W        W39952  26.620  22.094  12.541
74473W        W39953  23.103  35.085  13.491
74474W        W39954  21.648   6.209  12.828
74475W        W39955  11.672  19.124   1.818
74476W        W39956   0.853  24.654   3.801
74477W        W39957  13.297  40.022  14.869
74478W        W39958  39.397  35.529  12.951
74479W        W39959  34.940  44.275   0.377
74480W        W39960  12.777   2.261   0.286
74481W        W39961   3.217   3.858  11.373
74482W        W39962  43.769  39.407   2.276
74483W        W39963  39.388  10.328  10.625
74484W        W39964  14.706  32.539  14.793
74485W        W39965  41.805  31.586   0.731
74486W        W39966  17.725  10.285   2.714
74487W        W39967  18.694  42.458  11.462
74488W        W39968  27.121  10.248  10.912
74489W        W39969  44.392  20.058  11.487
74490W        W39970  39.050  40.308   3.866
74491W        W39971  44.759   5.216  14.333
74492W        W39972  10.649  31.514  14.818
74493W        W39973  30.038  30.940   1.731
74494W        W39974   0.798  22.200   1.295
74495W        W39975  10.709  33.401   0.954
74496W        W39976  12.237  35.897  12.444
74497W        W39977  16.587   2.931  12.969
74498W        W39978  21.731   7.767   0.863
74499W        W39979  42.429  10.761  14.780
74500W        W39980  21.027   7.405   9.602
74501W        W39981  19.216  17.298  14.835
74502W        W39982  16.589  34.864   1.884
74503W        W39983  36.354  33.407   2.344
74504W        W39984  25.707  20.540   4.682
74505W        W39985  27.066  14.268   2.898
74506W        W39986   8.238  44.263  11.912
74507W        W39987  17.635  37.082  12.993
74508W        W39988  23.174  20.206   3.378
74509W        W39989  22.544  42.982  12.568
74510W        W39990  42.487  18.295  11.075
74511W        W39991  19.545  36.457   2.366
74512W        W39992  41.466  34.484   2.203
74513W        W39993  22.247  22.229   4.780
74514W        W39994   3.760  40.956  13.514
74515W        W39995   4.330  27.191  12.824
74516W        W39996  41.026  33.588   4.641
74517W        W39997  10.739   3.440   3.755
74518W        W39998   2.338  43.839  11.459
74519W        W39999   7.868   6.230  14.800
74520W        W40000   8.878  19.704  11.539
74521W        W40001  32.011   4.707  14.954
74522W        W40002   0.966  15.679   2.312
74523W        W40003  38.946   9.154  10.137
74524W        W40004  36.084   0.973   2.309
74525W        W40005   6.884   5.223   3.305
74526W        W40006  18.058  16.310  13.477
74527W        W40007   3.825  25.607  14.968
74528W        W40008  29.474  24.714  13.465
74529W        W40009  34.919  24.188   1.914
74530W        W40010  23.147  12.845  10.443
74531W        W40011  43.927   4.886  14.385
74532W        W40012  32.037  11.236  14.944
74533W        W40013  44.261  19.237   4.348
74534W        W40014  22.635  17.119  10.577
74535W        W40015  40.950  12.332  13.364
74536W        W40016  21.023  13.129  12.946
74537W        W40017  33.524   9.156  14.331
74538W        W40018  35.544  28.166   1.865
74539W        W40019  42.448   1.831  13.490
74540W        W40020  14.297  27.512   2.696
74541W        W40021  30.925  17.268  11.423
74542W        W40022  18.739  33.564  13.047
74543W        W40023   7.200  23.100   4.798
74544W        W40024  31.908  34.898  12.945
74545W        W40025  33.620  42.013  14.376
74546W        W40026  43.406  40.501  11.902
74547W        W40027   8.889  30.494   1.233
74548W        W40028  22.110  42.419   3.644
74549W        W40029  38.539  44.889  10.532
74550W        W40030  24.554   9.293   2.734
74551W        W40031  26.137   6.271   1.247
74552W        W40032   9.808  20.044  13.401
74553W        W40033   2.820  43.862   0.780
74554W        W40034  19.279  15.596   2.798
74555W        W40035  35.509  39.504   2.396
74556W        W40036  36.498  37.885   2.228
74557W        W40037  17.789  43.450  12.845
74558W        W40038  35.363  23.203  13.814
74559W        W40039   4.386   1.264  14.886
74560W        W40040   0.900  25.157   4.240
74561W        W40041  24.480  13.320   1.887
74562W        W40042  16.316  16.223  12.060
74563W        W40043  32.504   0.834  10.901
74564W        W40044  23.026  13.303   1.857
74565W        W40045  41.526   4.739   3.280
74566W        W40046  32.992   3.237  13.536
74567W        W40047  19.726   9.733   3.643
74568W        W40048   8.656  14.831   2.297
74569W        W40049   2.402  39.487  14.446
74570W        W40050  16.113   7.201  13.400
74571W        W40051   1.351   9.764  14.824
74572W        W40052  16.104   5.824   2.819
74573W        W40053  18.112  22.544  13.847
74574W        W40054  39.440   2.320   2.773
74575W        W40055  34.015  38.504  14.832
74576W        W40056  27.015  38.903  13.941
74577W        W40057  33.015  25.653   0.280
74578W        W40058  12.149  23.173  13.860
74579W        W40059  27.667  43.463   2.394
74580W        W40060  17.208   4.369  13.542
74581W        W40061  19.627  27.182   0.748
74582W        W40062  32.141   3.452   4.172
74583W        W40063  25.660  21.073   1.829
74584W        W40064  32.485  29.499  10.973
74585W        W40065  42.972  17.586  11.109
74586W        W40066  15.609  15.651   0.378
74587W        W40067  44.952   7.341   0.771
74588W        W40068  31.558  39.987  12.579
74589W        W40069   0.902  13.322  13.834
74590W        W40070   6.692   0.305  11.377
74591W        W40071   6.247  23.572  10.629
74592W        W40072   2.872  30.530   1.242
74593W        W40073  28.632   6.907   0.305
74594W        W40074   9.768   8.677   3.325
74595W        W40075  21.192  37.033  11.030
74596W        W40076  12.331   7.845   4.262
74597W        W40077  38.535   1.763  13.872
74598W        W40078  10.632  26.477   1.809
74599W        W40079   2.473  20.225   4.320
74600W        W40080  44.428  22.119  10.063
74601W        W40081  26.506  39.331  13.941
74602W        W40082  30.513  41.875  12.005
74603W        W40083  33.543  19.143  13.909
74604W        W40084  28.105  33.580  14.470
74605W        W40085  30.129  21.192   4.261
74606W        W40086   1.327  34.458  13.518
74607W        W40087  10.202  21.727  10.496
74608W        W40088  14.740  14.688  12.047
74609W        W40089  42.995  24.015  10.527
74610W        W40090  13.197   2.722   2.758
74611W        W40091  44.483   4.324   2.388
74612W        W40092  39.522  20.135   4.262
74613W        W40093  36.511  27.091   0.477
74614W        W40094  11.835  36.859  10.930
74615W        W40095   7.193  39.359   3.328
74616W        W40096  43.346  29.055  10.503
74617W        W40097   7.208  35.107  13.369
74618W        W40098   6.329  36.394   4.667
74619W        W40099  17.776  35.482   2.787
74620W        W40100   0.744  11.303  10.576
74621W        W40101  43.909  20.727  13.818
74622W        W40102  39.548  13.806  11.020
74623W        W40103  11.662  35.406   2.892
74624W        W40104  19.577   0.354  14.345
74625W        W40105  16.598  14.622   2.220
74626W        W40106  34.118  15.238   3.300
74627W        W40107  39.477   1.342  12.390
74628W        W40108  16.125  36.588   1.383
74629W        W40109  35.101  19.198   0.292
74630W        W40110  12.325  35.369   2.820
74631W        W40111  38.429  40.465  12.027
74632W        W40112  42.375  38.507   1.335
74633W        W40113  24.594   9.217  14.850
74634W        W40114  33.086   1.885   2.292
74635W        W40115   9.880  23.649   1.931
74636W        W40116  34.471   2.962   1.343
74637W        W40117  14.160  13.298   9.511
74638W        W40118   0.802  22.563   1.706
74639W        W40119  20.088   7.666   3.630
74640W        W40120   4.715  31.971   4.265
74641W        W40121  29.960  23.168  14.931
74642W        W40122  28.183  33.917   3.161
74643W        W40123  30.045  11.716  11.382
74644W        W40124  41.925  31.621  11.511
74645W        W40125   9.368   1.289   0.746
74646W        W40126  41.786  20.621   2.876
74647W        W40127  11.866  32.578  14.829
74648W        W40128   7.245  20.622   2.700
74649W        W40129   4.798  24.111   1.774
74650W        W40130   1.792  10.728   2.743
74651W        W40131   5.853  11.359   3.220
74652W        W40132  41.491  21.079  13.426
74653W        W40133  32.411  21.704  12.552
74654W        W40134  24.679  26.655  10.420
74655W        W40135   5.859  24.071  13.958
74656W        W40136  40.462   9.269   2.737
74657W        W40137  13.336  43.403  14.759
74658W        W40138  17.063  33.038  10.026
74659W        W40139  15.820  33.001  13.547
74660W        W40140  40.962  44.954  12.083
74661W        W40141  35.580  32.420   4.261
74662W        W40142   7.871   2.354  14.016
74663W        W40143  14.244   1.772  12.413
74664W        W40144   2.456  32.526  13.805
74665W        W40145  20.602  27.666   5.295
74666W        W40146  23.580   4.799  11.460
74667W        W40147  16.073   7.859  10.579
74668W        W40148  37.578   2.311   3.701
74669W        W40149  39.057   3.712   3.387
74670W        W40150  21.159  39.864   2.282
74671W        W40151  41.465  40.991   4.737
74672W        W40152  22.025  10.751  13.507
74673W        W40153   2.442  10.807  10.915
74674W        W40154   4.412   6.256  12.479
74675W        W40155  36.098  19.633   0.863
74676W        W40156  10.676  13.331  13.942
74677W        W40157  39.384   7.186  13.992
74678W        W40158  40.333  11.840  14.954
74679W        W40159  18.229   7.910   4.768
74680W        W40160  10.667  26.958   2.220
74681W        W40161  10.705  42.459  10.409
74682W        W40162  11.778  10.234   1.217
74683W        W40163  10.876  29.458   4.821
74684W        W40164  19.597  25.962  12.836
74685W        W40165  13.681  29.019   2.248
74686W        W40166  41.983   3.897  12.895
74687W        W40167   4.872  22.650  12.399
74688W        W40168  36.533  40.355  11.125
74689W        W40169  18.186  43.370  11.025
74690W        W40170  18.150  44.784  13.416
74691W        W40171   8.230  41.319  13.397
74692W        W40172  14.661   6.301   4.200
74693W        W40173  37.421   5.271  13.309
74694W        W40174  26.965   5.761  11.092
74695W        W40175  21.622  11.160   0.415
74696W        W40176  30.942   8.752   2.666
74697W        W40177  43.463  10.704   0.859
74698W        W40178  21.103  23.632  11.027
74699W        W40179  21.136  25.195  12.394
74700W        W40180   7.292   0.772   4.244
74701W        W40181  23.525  23.007   4.664
74702W        W40182  33.043  13.773   1.699
74703W        W40183   8.349   2.759   1.778
74704W        W40184  20.568  16.235  13.802
74705W        W40185  28.449  12.277   4.176
74706W        W40186   3.892   4.282  11.024
74707W        W40187  21.063  20.642  11.010
74708W        W40188  25.185   2.752  11.415
74709W        W40189   1.768  28.571   4.277
74710W        W40190   6.355   8.160   2.377
74711W        W40191   8.191  32.042   0.821
74712W        W40192   2.256   7.777   2.894
74713W        W40193   7.831   2.265  11.910
74714W        W40194  24.112   9.364  12.966
74715W        W40195  41.424  11.255  13.801
74716W        W40196  42.845  34.519   3.710
74717W        W40197  20.669   9.705  13.436
74718W        W40198  31.580   7.672   1.221
74719W        W40199  13.818  40.420   5.116
74720W        W40200  26.500  31.461  14.469
74721W        W40201  16.627  22.079  13.418
74722W        W40202  27.677  36.472  12.554
74723W        W40203  25.043  12.774   2.812
74724W        W40204  38.981  34.451   2.302
74725W        W40205  20.123  12.822   4.690
74726W        W40206  17.116  24.174  14.805
74727W        W40207  41.453  17.765   4.134
74728W        W40208  25.152   5.197   3.659
74729W        W40209  36.078  21.209  12.343
74730W        W40210  18.741  28.055   5.308
74731W        W40211  25.126   8.847   2.721
74732W        W40212  30.510  28.510   1.743
74733W        W40213  37.338  26.060   2.665
74734W        W40214   8.710  42.523  11.048
74735W        W40215   6.793  35.043  12.495
74736W        W40216  12.627   1.738   2.784
74737W        W40217   2.467  39.044  11.028
74738W        W40218  43.930  40.483  13.423
74739W        W40219  36.092   5.224  12.028
74740W        W40220  21.182  36.439   4.127
74741W        W40221   7.378  23.666   4.321
74742W        W40222  28.644  15.657   2.239
74743W        W40223  22.110  33.006  11.013
74744W        W40224  29.130  18.207   1.419
74745W        W40225  22.177   1.965  11.587
74746W        W40226  32.107  13.210  14.907
74747W        W40227  18.098  33.535   1.744
74748W        W40228   1.766  31.552  13.967
74749W        W40229  29.055  13.766  13.472
74750W        W40230  29.098  17.207   4.724
74751W        W40231  18.191   7.775  11.928
74752W        W40232  26.616   9.149   2.690
74753W        W40233  16.090  23.495  11.896
74754W        W40234  13.308  21.574  14.009
74755W        W40235  16.585  27.181  12.014
74756W        W40236  40.395  27.464  12.852
74757W        W40237  33.481   3.327  14.901
74758W        W40238  27.668  42.908  11.609
74759W        W40239  22.738  38.424   1.270
74760W        W40240   4.749  34.408  12.916
74761W        W40241  28.063  21.728  10.892
74762W        W40242  16.813  33.098   3.762
74763W        W40243  44.964  27.990   4.266
74764W        W40244  12.638  36.035   2.220
74765W        W40245  40.494  10.679   4.646
74766W        W40246  39.900  39.857  13.930
74767W        W40247  35.361  42.900   3.843
74768W        W40248   3.298  10.650  12.473
74769W        W40249  44.791  40.817  11.023
74770W        W40250  27.548  35.106  10.440
74771W        W40251   3.891  19.273   1.437
74772W        W40252  28.079  42.927   4.685
74773W        W40253  22.201  38.487  12.058
74774W        W40254  37.933  44.452  13.450
74775W        W40255  21.214  22.524  11.446
74776W        W40256  13.168   2.411  12.033
74777W        W40257  34.588  20.614  11.008
74778W        W40258  19.103  34.910  12.564
74779W        W40259  36.482  42.340  13.980
74780W        W40260  14.596  43.398   2.757
74781W        W40261  40.313  32.958   4.350
74782W        W40262  16.155  30.619   4.352
74783W        W40263  36.040  35.427  14.400
74784W        W40264  32.895  27.633   3.659
74785W        W40265  15.215  32.928  13.492
74786W        W40266  14.323  37.899   3.698
74787W        W40267  38.900  38.902   3.753
74788W        W40268  22.174  19.262   1.374
74789W        W40269  17.789  26.564  11.603
74790W        W40270  37.483  41.302   4.788
74791W        W40271  13.310  15.232  11.576
74792W        W40272  24.676   0.963  10.945
74793W        W40273  26.048  30.132  12.373
74794W        W40274  31.909  11.705   2.857
74795W        W40275  38.876   7.779  12.922
74796W        W40276  43.274  37.413   0.939
74797W        W40277  28.153   2.841   4.689
74798W        W40278  30.478  18.609   4.647
74799W        W40279  35.043  42.032  13.535
74800W        W40280  19.040  25.073   3.176
74801W        W40281  14.652  10.290   9.937
74802W        W40282  18.731   5.406  10.408
74803W        W40283  10.758  10.867   3.751
74804W        W40284  39.542  11.624  14.837
74805W        W40285   2.903  17.746   2.683
74806W        W40286  17.273  39.347  10.143
74807W        W40287  21.257  23.211   0.425
74808W        W40288  14.336  39.447   3.351
74809W        W40289  30.079  10.259   2.262
74810W        W40290   4.801  13.310   3.853
74811W        W40291   3.903  42.984   1.226
74812W        W40292   1.255  29.474   2.889
74813W        W40293   2.865  29.656  14.930
74814W        W40294  25.526  10.196  14.462
74815W        W40295  33.078  16.770   0.790
74816W        W40296  28.665   3.419   4.297
74817W        W40297  44.439  40.403   2.350
74818W        W40298  37.033  40.031  14.954
74819W        W40299  32.081  20.673  14.361
74820W        W40300  34.928  25.132   2.794
74821W        W40301  43.905   2.869  12.577
74822W        W40302  43.504  29.956   4.647
74823W        W40303  28.172   9.376   1.435
74824W        W40304  10.377  26.475   3.728
74825W        W40305  44.291  36.929   3.329
74826W        W40306  19.053   3.292   4.614
74827W        W40307  29.462   8.849   3.843
74828W        W40308  33.535  25.149  12.397
74829W        W40309  11.843   7.746  12.480
74830W        W40310   9.743   0.763  10.937
74831W        W40311  35.430  30.139   0.445
74832W        W40312  39.003  41.518  12.482
74833W        W40313  23.706  23.097   0.349
74834W        W40314  12.658   1.848   2.275
74835W        W40315  13.261  21.105   2.383
74836W        W40316   6.287  22.113  12.045
74837W        W40317  26.694  30.033   3.693
74838W        W40318  24.533  37.985  11.416
74839W        W40319  16.260   8.726   2.231
74840W        W40320   0.393   4.305  12.011
74841W        W40321  19.210  26.641  11.945
74842W        W40322  16.195  44.287  14.316
74843W        W40323  40.320   0.385   2.724
74844W        W40324   7.812  40.042   0.804
74845W        W40325  35.877  27.196  11.081
74846W        W40326  32.033  11.667  11.426
74847W        W40327  13.349  35.925   2.417
74848W        W40328  30.631   0.828   1.897
74849W        W40329  35.024   0.489  14.400
74850W        W40330   7.812  28.120   1.908
74851W        W40331   7.192  35.391  14.515
74852W        W40332  29.037  39.541  10.553
74853W        W40333  11.142  29.444   0.906
74854W        W40334  14.651   6.320  11.915
74855W        W40335   1.832  24.717   3.681
74856W        W40336   3.865  37.493  14.827
74857W        W40337  21.111  38.397   2.815
74858W        W40338  17.280  41.470  14.967
74859W        W40339  20.524   7.681   4.284
74860W        W40340  37.527  25.208   1.277
74861W        W40341  10.287  28.436   4.223
74862W        W40342  15.129   4.844  11.492
74863W        W40343  16.665   6.844   4.602
74864W        W40344   2.746  44.759  14.914
74865W        W40345  15.140  28.954   4.170
74866W        W40346  17.695  17.153  14.408
74867W        W40347  38.436   1.328   1.858
74868W        W40348  27.178  12.727  12.988
74869W        W40349  33.964  17.172   1.227
74870W        W40350   3.312  18.204  11.929
74871W        W40351  26.476  21.537   4.643
74872W        W40352  19.617  13.719  11.926
74873W        W40353  18.137  16.079  14.981
74874W        W40354   3.955  22.180   0.422
74875W        W40355   8.854  34.462  13.354
74876W        W40356  35.534  23.022  12.072
74877W        W40357  20.226  36.029  12.354
74878W        W40358  21.159  29.165  11.898
74879W        W40359  16.745  15.651  14.872
74880W        W40360   3.881  31.601   4.211
74881W        W40361  32.935  15.672  10.412
74882W        W40362  37.008   7.686   0.414
74883W        W40363  36.523  24.633   4.216
74884W        W40364  19.720  38.497   0.442
74885W        W40365  26.110  17.759   0.328
74886W        W40366  17.716   9.842   3.762
74887W        W40367  35.403  27.615  14.334
74888W        W40368  33.545  35.051   3.330
74889W        W40369   6.799  32.477  13.999
74890W        W40370   5.873  28.018  14.977
74891W        W40371   6.246   4.272   2.866
74892W        W40372  33.058  19.731   1.720
74893W        W40373  43.354   5.274  14.799
74894W        W40374  18.241  29.023   3.300
74895W        W40375  16.759  36.939   3.818
74896W        W40376   9.686  11.261  12.431
74897W        W40377  28.520  37.410   1.215
74898W        W40378  16.249   4.748  11.128
74899W        W40379  12.731  31.049  10.598
74900W        W40380  27.136  43.874   0.262
74901W        W40381  42.977  33.075   4.811
74902W        W40382  27.050  25.055   1.885
74903W        W40383  17.801  36.445   2.258
74904W        W40384  14.115  39.932  12.084
74905W        W40385  11.833  10.156   4.688
74906W        W40386   5.207  36.559   4.347
74907W        W40387  26.610  21.167   3.254
74908W        W40388  20.058  19.073   0.736
74909W        W40389   3.850  14.685  14.471
74910W        W40390  28.536  13.806   0.776
74911W        W40391  38.461  41.532   1.870
74912W        W40392  43.348  33.601   4.216
74913W        W40393  22.509  16.184  12.903
74914W        W40394  17.239  42.913  11.414
74915W        W40395  17.779  43.986  11.875
74916W        W40396  17.802  30.101  11.127
74917W        W40397  22.163  21.110  12.871
74918W        W40398  42.971  27.535  11.091
74919W        W40399  39.034   3.748  11.396
74920W        W40400   5.303   7.381  10.496
74921W        W40401  17.649  21.151  10.914
74922W        W40402  22.154  19.109   4.123
74923W        W40403  43.767  28.148   1.771
74924W        W40404  30.459  26.677   4.277
74925W        W40405  34.027  17.061   3.837
74926W        W40406  32.571   2.853   0.411
74927W        W40407  33.886   7.345   0.406
74928W        W40408  43.935  36.590  10.638
74929W        W40409  36.870  28.992  12.979
74930W        W40410  11.172  44.978   4.262
74931W        W40411  15.169   0.429  12.832
74932W        W40412  40.360  26.190  13.916
74933W        W40413  33.943   6.840  11.030
74934W        W40414  34.553  37.048  10.429
74935W        W40415  41.018   0.802  10.595
74936W        W40416   5.783  16.702  13.007
74937W        W40417  36.537  41.474   3.746
74938W        W40418  34.527  20.608   1.261
74939W        W40419  37.579   2.952   4.135
74940W        W40420  19.121  34.526  10.551
74941W        W40421  44.267  18.236  11.414
74942W        W40422  44.478  27.586   2.854
74943W        W40423  27.547  10.181   2.224
74944W        W40424  17.265   0.449  14.938
74945W        W40425  44.826  37.026  13.450
74946W        W40426  27.114  19.549  14.889
74947W        W40427  24.999  20.073   3.690
74948W        W40428  11.213  18.144  11.450
74949W        W40429  21.033  27.633  10.495
74950W        W40430  23.128   8.833   3.345
74951W        W40431  28.662  17.716  13.931
74952W        W40432   7.357  10.839  12.455
74953W        W40433   3.845  42.785   0.302
74954W        W40434  14.695  26.134   4.817
74955W        W40435  28.062  18.161   2.326
74956W        W40436  38.069   5.398  11.057
74957W        W40437  41.018   9.764   2.699
74958W        W40438  22.506  39.984  11.873
74959W        W40439  35.379   3.312  12.408
74960W        W40440  11.687  37.460  11.497
74961W        W40441  31.989   1.366  12.038
74962W        W40442  20.168  30.147  11.868
74963W        W40443   4.894  31.131   0.946
74964W        W40444  12.838   5.933   0.899
74965W        W40445  26.035  36.919   3.321
74966W        W40446  35.878  18.258  14.982
74967W        W40447   2.751  43.014  10.434
74968W        W40448  25.012  37.419   2.741
74969W        W40449  20.104   6.681   4.138
74970W        W40450  21.119   1.483   0.335
74971W        W40451  17.557  24.493  13.995
74972W        W40452  11.284   6.323   3.359
74973W        W40453  37.550  41.333  12.052
74974W        W40454  41.318   9.760  10.899
74975W        W40455  23.127  29.034  10.455
74976W        W40456  12.832   3.347   0.419
74977W        W40457  14.777  10.689   1.801
74978W        W40458   8.796   7.259  10.506
74979W        W40459  39.833  23.682  10.591
74980W        W40460   9.676   3.379   1.337
74981W        W40461  21.020  39.374  11.509
74982W        W40462   6.782  44.895  13.488
74983W        W40463  15.101  41.799  13.453
74984W        W40464  13.770   1.252  14.996
74985W        W40465   9.795  31.995  14.934
74986W        W40466  35.474  19.695  10.942
74987W        W40467   0.799  19.665   4.205
74988W        W40468   3.854  11.221   1.423
74989W        W40469   8.891  30.549  13.309
74990W        W40470   7.286  36.959  10.510
74991W        W40471   2.332  40.337   4.790
74992W        W40472   3.878  16.803   1.445
74993W        W40473   9.732  43.366   0.927
74994W        W40474   2.872   4.238   4.598
74995W        W40475  44.494  31.623   0.738
74996W        W40476  11.640  35.588  10.511
74997W        W40477  13.690  25.712  12.360
74998W        W40478  27.976  11.776  14.323
74999W        W40479  38.927  37.855   1.815
75000W        W40480  24.558  23.122  12.384
75001W        W40481  40.328   5.234  11.922
75002W        W40482  12.232   3.436  13.446
75003W        W40483  33.391  12.809  12.436
75004W        W40484   3.410   9.214  11.385
75005W        W40485   1.266   2.301  10.904
75006W        W40486   9.194  26.158  14.352
75007W        W40487  22.507   3.454  11.500
75008W        W40488  17.755   7.679   4.626
75009W        W40489   6.282  38.481   0.920
75010W        W40490  26.174  39.875   1.435
75011W        W40491  30.141  11.216  14.377
75012W        W40492  21.753  28.520  12.382
75013W        W40493  33.070  32.919  11.039
75014W        W40494   5.258  32.474   1.387
75015W        W40495  25.117  12.326   2.750
75016W        W40496   5.282   4.926  13.005
75017W        W40497  39.509   2.396   3.345
75018W        W40498  42.296  33.082   2.814
75019W        W40499  16.256   3.289  13.818
75020W        W40500  12.732  22.582   4.248
75021W        W40501  10.342  31.959  12.411
75022W        W40502  41.307   3.850  11.976
75023W        W40503  27.009  12.151   0.272
75024W        W40504  12.277  17.064   2.819
75025W        W40505  26.020  38.975   1.437
75026W        W40506   0.900  29.064  11.392
75027W        W40507  39.552  17.225  10.541
75028W        W40508  23.640  17.676  13.918
75029W        W40509  42.834  34.922   4.124
75030W        W40510  24.075  27.167   2.179
75031W        W40511   5.861  43.992   2.190
75032W        W40512  23.616   8.276  13.911
75033W        W40513  35.081  15.733   0.440
75034W        W40514  10.841  13.217   1.266
75035W        W40515  34.553  16.656   1.345
75036W        W40516  11.803  35.380  14.438
75037W        W40517  20.093  44.792   9.937
75038W        W40518  26.114  44.481   1.694
75039W        W40519  30.043  14.758  11.025
75040W        W40520  20.189  30.041  12.533
75041W        W40521  15.604  29.623  13.453
75042W        W40522   3.401  29.169  10.077
75043W        W40523   3.887   9.663   0.444
75044W        W40524  20.193   3.440  12.030
75045W        W40525  15.692  10.784  13.851
75046W        W40526  30.438  26.007  14.029
75047W        W40527  38.562  34.096  11.561
75048W        W40528  32.439   1.265  11.098
75049W        W40529   6.367  24.000   1.235
75050W        W40530   1.444   2.934  14.305
75051W        W40531  25.094  27.153   3.729
75052W        W40532  25.685   6.291   5.099
75053W        W40533  40.872  34.871  13.366
75054W        W40534  25.046  24.132   3.865
75055W        W40535  26.615   9.181  11.023
75056W        W40536  11.142  25.661   2.302
75057W        W40537  20.236  21.152   3.732
75058W        W40538  42.823  33.559  12.350
75059W        W40539  23.686   8.742  11.551
75060W        W40540  38.997  41.334  11.601
75061W        W40541  14.716   2.744  10.595
75062W        W40542  15.675   5.707  12.391
75063W        W40543  31.439  18.597   3.678
75064W        W40544  26.635  41.356  12.038
75065W        W40545  25.670  37.914   2.888
75066W        W40546   0.269  16.180   4.157
75067W        W40547   9.226   3.231  11.577
75068W        W40548  15.228  14.271   2.209
75069W        W40549  11.287  43.387  11.542
75070W        W40550   6.803  13.694  11.082
75071W        W40551  41.027  13.808   4.148
75072W        W40552  31.006  42.841   4.782
75073W        W40553   7.248  33.880   4.649
75074W        W40554  24.183   7.908  13.383
75075W        W40555  25.993   4.313   4.223
75076W        W40556  37.493  37.944  12.969
75077W        W40557  13.305  25.053  10.530
75078W        W40558  34.424  11.276   0.949
75079W        W40559  14.810  41.452  10.083
75080W        W40560  22.712  29.157  13.518
75081W        W40561  39.985  44.450   3.371
75082W        W40562  34.577  25.620  14.350
75083W        W40563  30.437  27.183   3.348
75084W        W40564  29.523  20.672   0.957
75085W        W40565  21.249  26.200   1.794
75086W        W40566  27.992  44.885   2.376
75087W        W40567  16.698   3.868  10.499
75088W        W40568  16.734  29.547  13.360
75089W        W40569  41.413  44.281  13.475
75090W        W40570  11.313   3.321   2.333
75091W        W40571  34.531  29.571  10.555
75092W        W40572  42.419  10.736  12.868
75093W        W40573  11.196  15.755  13.889
75094W        W40574  32.068   1.936  12.853
75095W        W40575  16.612  43.426   3.681
75096W        W40576  42.500  28.118  12.346
75097W        W40577   9.761  37.938  13.504
75098W        W40578  23.105  28.160  13.480
75099W        W40579  16.234  30.623  11.944
75100W        W40580  43.356  15.181  13.445
75101W        W40581  13.110  26.027  11.993
75102W        W40582   9.218   0.822   0.368
75103W        W40583  33.924  24.629  14.811
75104W        W40584  25.572  28.516  13.459
75105W        W40585  43.929   7.684  12.073
75106W        W40586   9.646  43.785   2.418
75107W        W40587  12.116  35.421   3.296
75108W        W40588  38.909  43.974  13.808
75109W        W40589  34.466  10.176   1.696
75110W        W40590  13.318  44.314   4.127
75111W        W40591   7.668  13.219  12.847
75112W        W40592  11.188  36.372   3.154
75113W        W40593   7.236   5.216  14.997
75114W        W40594  19.108   9.179   4.330
75115W        W40595   9.691  37.844   4.218
75116W        W40596  17.203  30.120   3.823
75117W        W40597  38.445   9.802  14.865
75118W        W40598  29.099  18.099   1.833
75119W        W40599  21.162  26.471   2.828
75120W        W40600   2.311  19.112  10.481
75121W        W40601  30.515  15.227   0.888
75122W        W40602  17.092   4.847  14.412
75123W        W40603  37.550  31.982  11.107
75124W        W40604  24.675  12.843   0.911
75125W        W40605   4.215  11.707  11.398
75126W        W40606  36.867  19.104  13.326
75127W        W40607  43.870  12.751   0.326
75128W        W40608  34.436  17.566   2.716
75129W        W40609  16.620   1.442   4.599
75130W        W40610  11.154  35.049   2.702
75131W        W40611   7.858  39.033   2.859
75132W        W40612  32.573  33.945   1.219
75133W        W40613  23.077  42.468  11.562
75134W        W40614  41.987  32.893   1.733
75135W        W40615   5.850  40.447  11.394
75136W        W40616   3.730  37.360  10.614
75137W        W40617   3.452   1.905  11.128
75138W        W40618   7.287  13.216  14.948
75139W        W40619  40.959  36.060  11.574
75140W        W40620  44.497  31.602   0.483
75141W        W40621  43.507  11.173  14.412
75142W        W40622  39.060  19.603   2.332
75143W        W40623  24.542  18.127  11.545
75144W        W40624  32.483  40.923   4.239
75145W        W40625  28.051   7.718  14.772
75146W        W40626  30.939  31.129  11.406
75147W        W40627  35.009  44.273   0.944
75148W        W40628  11.237  26.149   4.229
75149W        W40629  15.759  33.478  13.980
75150W        W40630  26.197   1.945  10.423
75151W        W40631   2.778  30.605  10.537
75152W        W40632  36.544   9.299  14.500
75153W        W40633  24.675   0.977   1.706
75154W        W40634  38.898   6.916   1.901
75155W        W40635  41.789  24.068  12.453
75156W        W40636   1.355  20.641   0.259
75157W        W40637  42.784  37.963  12.923
75158W        W40638  32.005  10.383   0.937
75159W        W40639  35.900  11.676   4.247
75160W        W40640  21.574  38.497   0.810
75161W        W40641  35.441   3.824  10.895
75162W        W40642  41.939  28.103  11.539
75163W        W40643  36.416  22.133  10.558
75164W        W40644  14.336  35.051   2.690
75165W        W40645  34.470  10.259  12.374
75166W        W40646  28.473  27.950   2.347
75167W        W40647  28.579  27.024  14.812
75168W        W40648  34.043  16.310   4.114
75169W        W40649  22.168  43.450   2.695
75170W        W40650  34.935  33.916   1.843
75171W        W40651  34.413  39.825  13.438
75172W        W40652   6.319  18.546  13.542
75173W        W40653  38.051  44.268  11.949
75174W        W40654  10.683  31.458   2.730
75175W        W40655  43.959   6.889   2.356
75176W        W40656  22.579  42.411   1.809
75177W        W40657   7.701  15.156   2.824
75178W        W40658  20.635  20.583   2.722
75179W        W40659  11.705  10.649  12.010
75180W        W40660  37.552   2.960  12.834
75181W        W40661  25.584  15.666  10.089
75182W        W40662  15.760  22.538   4.322
75183W        W40663   4.375   9.879   1.402
75184W        W40664  14.144  11.830  12.839
75185W        W40665  37.043  38.369  13.440
75186W        W40666  14.246  33.533   2.313
75187W        W40667  21.163  26.587  11.611
75188W        W40668   2.859  38.555   0.821
75189W        W40669  18.269  29.116   2.407
75190W        W40670  31.613  29.978  11.984
75191W        W40671   7.784  10.699  10.598
75192W        W40672  43.463  36.923   3.285
75193W        W40673  28.525   0.985   0.840
75194W        W40674   2.396  17.207  12.888
75195W        W40675  40.375  26.460  13.975
75196W        W40676  35.959  33.981  10.425
75197W        W40677  30.142   1.838   0.330
75198W        W40678  22.243  29.525   0.395
75199W        W40679  44.886   1.239  14.821
75200W        W40680  32.611   7.760   1.843
75201W        W40681  34.373  26.671  10.937
75202W        W40682   0.268  30.993  12.834
75203W        W40683   7.742  40.322  10.033
75204W        W40684  16.629  32.974  12.049
75205W        W40685  15.650  33.610  11.021
75206W        W40686  26.976  19.074  13.930
75207W        W40687  17.590  31.064  12.020
75208W        W40688  29.062  23.506  14.343
75209W        W40689  25.612   7.896   2.196
75210W        W40690  37.402  14.320   3.800
75211W        W40691  14.653  11.666   3.788
75212W        W40692   5.880  32.932  11.604
75213W        W40693  16.695  25.540   0.401
75214W        W40694  18.110  37.953   4.733
75215W        W40695   6.890   2.326   2.859
75216W        W40696   7.906  14.769  13.826
75217W        W40697   6.717  35.558  12.566
75218W        W40698  23.652   1.944  13.413
75219W        W40699   0.798   1.297  12.007
75220W        W40700  14.784  12.242  12.001
75221W        W40701   8.383  38.042  12.425
75222W        W40702  12.126  39.808  10.411
75223W        W40703  22.668   1.400   1.789
75224W        W40704  13.143  20.556  10.515
75225W        W40705  26.174  30.499   4.117
75226W        W40706  14.766  31.471   0.285
75227W        W40707   0.781  36.498   3.642
75228W        W40708  33.941  14.308   4.817
75229W        W40709  22.217  40.033  14.772
75230W        W40710  11.329  10.840  13.465
75231W        W40711   2.374  35.439  11.944
75232W        W40712  21.246   9.764   3.637
75233W        W40713   1.317  22.549   4.166
75234W        W40714  16.718   1.281   0.932
75235W        W40715   2.940   0.883   1.378
75236W        W40716  41.010  17.110   0.884
75237W        W40717  11.305  10.811   1.881
75238W        W40718  40.961   5.809  14.299
75239W        W40719  20.030  15.743  11.960
75240W        W40720  28.640  10.364   0.726
75241W        W40721  20.652  37.875  11.990
75242W        W40722  27.682  38.415  13.883
75243W        W40723  34.435  22.695   1.401
75244W        W40724  33.533  20.215   1.310
75245W        W40725   2.423  23.143  12.829
75246W        W40726   1.792  29.560  11.897
75247W        W40727  40.916  28.480   3.354
75248W        W40728  28.130  14.240  11.423
75249W        W40729   1.476   8.355  11.068
75250W        W40730  32.895  23.075  11.582
75251W        W40731  10.812  40.918  10.620
75252W        W40732  16.209  40.812  12.051
75253W        W40733  33.027  26.482  10.096
75254W        W40734  37.540  35.469   3.846
75255W        W40735  10.141  26.619   1.324
75256W        W40736  44.432  20.042  13.426
75257W        W40737  25.592  24.225  14.894
75258W        W40738  27.646  20.658   2.325
75259W        W40739  42.983  24.488   0.456
75260W        W40740  31.409   2.387   0.959
75261W        W40741  16.275  36.405   0.957
75262W        W40742   0.429   5.285  13.469
75263W        W40743   8.322  43.409   0.288
75264W        W40744  40.958   5.862  14.834
75265W        W40745   0.770  20.600  12.526
75266W        W40746  24.580   2.735   1.337
75267W        W40747   5.284   9.747   4.769
75268W        W40748  30.136   5.241  14.349
75269W        W40749  19.582   0.489  11.603
75270W        W40750  10.165  33.048   1.891
75271W        W40751  23.106  38.052   2.315
75272W        W40752   7.316  41.363  13.911
75273W        W40753  27.010  40.519  14.789
75274W        W40754  28.972  10.286   1.823
75275W        W40755  12.264  33.525   3.254
75276W        W40756  30.164  20.648  12.937
75277W        W40757   5.862  27.115  13.837
75278W        W40758  27.959  18.095   0.451
75279W        W40759  27.949  25.596  11.860
75280W        W40760   8.268  22.531   0.447
75281W        W40761  13.749   1.388   0.834
75282W        W40762  24.687  20.127   2.795
75283W        W40763   7.182  25.115   0.384
75284W        W40764  29.617  22.741  11.567
75285W        W40765  14.212  20.152   4.688
75286W        W40766  25.213  42.796   3.646
75287W        W40767  13.843  22.633   0.729
75288W        W40768  29.477  26.084  11.046
75289W        W40769  25.568   6.697   0.383
75290W        W40770  14.720  33.098  12.423
75291W        W40771   1.957  43.853   3.354
75292W        W40772  40.446  31.420  12.429
75293W        W40773  43.007   5.703  12.842
75294W        W40774  27.603   8.724   1.395
75295W        W40775  44.402  12.820   4.163
75296W        W40776  27.103  15.792   1.369
75297W        W40777  41.351  29.595  11.429
75298W        W40778  20.099  35.879   3.296
75299W        W40779  27.041  19.670  13.487
75300W        W40780   7.211  32.989  11.486
75301W        W40781   5.827  36.507   0.807
75302W        W40782  35.565   4.922   3.323
75303W        W40783  24.701  18.125  12.416
75304W        W40784  21.197  41.813  12.391
75305W        W40785  32.496  29.086   2.810
75306W        W40786  20.031   0.911   1.931
75307W        W40787  43.440   8.401  12.027
75308W        W40788  37.910   1.976   3.145
75309W        W40789  33.920  44.951  12.030
75310W        W40790  34.092  29.499   2.373
75311W        W40791  44.336  17.800   1.432
75312W        W40792  18.247  18.650  13.414
75313W        W40793  33.051  37.030   3.869
75314W        W40794  12.283  33.432  10.497
75315W        W40795  14.233   3.332   2.702
75316W        W40796  27.086   5.244   2.858
75317W        W40797  41.874  28.074  11.112
75318W        W40798   4.811  25.650  11.421
75319W        W40799  43.861  11.686  11.111
75320W        W40800  33.465   5.750  13.048
75321W        W40801   0.364  37.511   1.847
75322W        W40802  10.650  27.051  13.321
75323W        W40803  39.436   3.812  10.086
75324W        W40804  24.556   6.305  10.907
75325W        W40805  20.085  37.475   4.632
75326W        W40806  44.987   5.782   1.933
75327W        W40807  26.550  10.647  14.335
75328W        W40808   4.836   2.933   4.216
75329W        W40809  17.588   7.673  14.875
75330W        W40810  30.632  29.113  12.063
75331W        W40811  34.432   0.844   1.723
75332W        W40812  41.362  26.655   4.238
75333W        W40813  41.506   3.886   2.716
75334W        W40814  23.679  10.197  11.446
75335W        W40815   8.169  18.648  14.783
75336W        W40816  43.271  37.876  11.499
75337W        W40817  17.263   7.313  14.023
75338W        W40818  40.844   9.777   0.477
75339W        W40819  14.260  19.740  14.457
75340W        W40820   0.884   0.896   2.820
75341W        W40821  15.108  20.692  12.470
75342W        W40822  39.916   9.709  11.613
75343W        W40823   3.923  15.164   3.664
75344W        W40824   8.256  25.038   1.428
75345W        W40825   6.731   1.466  13.805
75346W        W40826  24.593  11.651  12.380
75347W        W40827  19.188  20.104   4.292
75348W        W40828   5.746   3.374   1.700
75349W        W40829   7.357  16.247   3.251
75350W        W40830   6.202   0.823  14.513
75351W        W40831   0.321  32.608   0.293
75352W        W40832  24.529  43.445   4.281
75353W        W40833  15.783   6.312   2.829
75354W        W40834  32.993   2.449   4.643
75355W        W40835  28.051  10.722  13.507
75356W        W40836  22.140  16.630   1.395
75357W        W40837  13.300   1.815   5.196
75358W        W40838   3.255  29.930   0.264
75359W        W40839  39.064  24.982   3.202
75360W        W40840   8.659  36.844   4.295
75361W        W40841   7.711  17.135  13.373
75362W        W40842  13.809  22.143   4.636
75363W        W40843   6.785   9.364  10.588
75364W        W40844  22.086   8.265  13.897
75365W        W40845  40.963  13.740   0.932
75366W        W40846  40.933  41.855  14.907
75367W        W40847   9.879   3.440   2.678
75368W        W40848  30.451  20.213  13.518
75369W        W40849  28.083   1.749  14.004
75370W        W40850  11.323  40.423  14.435
75371W        W40851  29.649  42.921   4.267
75372W        W40852   9.704  33.118  12.963
75373W        W40853  21.062   8.770  12.878
75374W        W40854  21.116  13.127   4.307
75375W        W40855  13.114  42.305   1.717
75376W        W40856  29.558  31.982  11.578
75377W        W40857  12.316  20.082  12.079
75378W        W40858  17.800  39.947   4.823
75379W        W40859  40.826  19.281   2.800
75380W        W40860   3.256  14.610   2.306
75381W        W40861  12.283  22.165  14.767
75382W        W40862  15.286  32.946  11.857
75383W        W40863   6.864   5.418   3.772
75384W        W40864  29.092  40.324   0.919
75385W        W40865   1.455  40.414  13.406
75386W        W40866  26.157  44.978  11.875
75387W        W40867   4.720  25.584   4.669
75388W        W40868  15.251  22.146   0.367
75389W        W40869  38.486  41.409  12.044
75390W        W40870  24.708   6.880  13.844
75391W        W40871  44.492  11.778   5.086
75392W        W40872  17.588   8.716  11.511
75393W        W40873  15.120  43.778   3.162
75394W        W40874  27.009  13.150  12.852
75395W        W40875  40.822  19.775  14.478
75396W        W40876  34.538  15.294   2.778
75397W        W40877   6.716  14.795  12.944
75398W        W40878  10.288  29.104   4.278
75399W        W40879  16.195  12.842   0.457
75400W        W40880  26.117  35.979   4.739
75401W        W40881  24.575  37.459  10.502
75402W        W40882  10.848  35.927   2.411
75403W        W40883  20.039   1.424  14.435
75404W        W40884   5.697   2.316  13.952
75405W        W40885  42.814  31.541   2.364
75406W        W40886  24.219   1.293  12.391
75407W        W40887  44.391  23.680   4.212
75408W        W40888  35.500   9.303   2.307
75409W        W40889  39.860  18.657  12.344
75410W        W40890  20.751  13.330   2.843
75411W        W40891  37.925  22.743  10.888
75412W        W40892   7.754  44.321  12.497
75413W        W40893   3.846  20.661   2.770
75414W        W40894  40.885   0.889   4.675
75415W        W40895  19.553  27.020  14.459
75416W        W40896  18.632  34.039  13.890
75417W        W40897  12.655  15.098   4.324
75418W        W40898  22.229  21.253   4.280
75419W        W40899  34.985  14.783  11.975
75420W        W40900  14.115  10.329  11.512
75421W        W40901  17.080   9.807  10.956
75422W        W40902  27.100  15.765   3.732
75423W        W40903  22.021   3.751  14.797
75424W        W40904  23.206  25.645  13.455
75425W        W40905  28.064  12.709   3.679
75426W        W40906  24.489  15.272   0.398
75427W        W40907  26.156  30.618   0.731
75428W        W40908  33.066  22.227  12.865
75429W        W40909  27.059  21.704  14.302
75430W        W40910  20.645  40.937  14.772
75431W        W40911  26.099  36.388  14.466
75432W        W40912  34.580  11.672   3.744
75433W        W40913  36.901  42.505   2.663
75434W        W40914  25.058  28.178   4.237
75435W        W40915   4.279  10.185   0.920
75436W        W40916  42.320  29.005   3.684
75437W        W40917  11.625  20.702   9.996
75438W        W40918  34.469  39.495   3.329
75439W        W40919   5.768   0.373   4.666
75440W        W40920  24.173  24.580  13.801
75441W        W40921   4.910  23.659   3.327
75442W        W40922  27.583   7.752  13.030
75443W        W40923  13.702  24.682  13.938
75444W        W40924  26.026  37.434   1.443
75445W        W40925  11.789  31.000  14.769
75446W        W40926  17.637   9.689   2.300
75447W        W40927  22.141   5.738   3.691
75448W        W40928  20.164  23.640  11.992
75449W        W40929  42.868  13.602   0.256
75450W        W40930  35.566  33.883  13.812
75451W        W40931  15.208  21.697  12.838
75452W        W40932  23.059  32.917  13.427
75453W        W40933   8.179  18.710  11.958
75454W        W40934  26.061  36.020   0.850
75455W        W40935  16.740  31.537   3.162
75456W        W40936   0.389  16.212   1.807
75457W        W40937  39.483  21.223  11.383
75458W        W40938  43.344  38.884  12.580
75459W        W40939  37.861  20.155   0.253
75460W        W40940  22.184  11.727  11.552
75461W        W40941   1.740  19.068  10.532
75462W        W40942  33.587  29.573  13.853
75463W        W40943  23.106  29.464  11.899
75464W        W40944   1.479  32.123  14.860
75465W        W40945  32.062  13.328   0.835
75466W        W40946  23.242  15.246   3.818
75467W        W40947  44.387  21.747  14.400
75468W        W40948  15.795  40.990   1.709
75469W        W40949  22.028  33.576   2.297
75470W        W40950  25.680  26.703   4.764
75471W        W40951  18.778  39.888   2.414
75472W        W40952  44.445  44.954   5.136
75473W        W40953  24.228  32.898   2.818
75474W        W40954  16.721  38.511  14.311
75475W        W40955  26.148  13.827   4.661
75476W        W40956  23.176   1.400  10.593
75477W        W40957  10.709   7.805   0.322
75478W        W40958   4.844  13.794   5.245
75479W        W40959  32.507   0.342   3.225
75480W        W40960  23.723   8.841  12.063
75481W        W40961  36.463   3.414   2.192
75482W        W40962  39.331   7.867   3.835
75483W        W40963  22.145  32.059  13.348
75484W        W40964   5.857  24.493   0.301
75485W        W40965   8.324  18.279   3.362
75486W        W40966  23.105   5.785  12.079
75487W        W40967  26.140  28.626   1.233
75488W        W40968  33.098  22.551  14.009
75489W        W40969  31.146  22.733   9.948
75490W        W40970  25.210  28.084  14.024
75491W        W40971  27.597  15.667   2.191
75492W        W40972  41.850  34.907  14.859
75493W        W40973  22.014  38.375   2.361
75494W        W40974  13.236  41.013   4.250
75495W        W40975   2.813  16.613   0.929
75496W        W40976  23.595  17.109   0.369
75497W        W40977  31.110  28.148   1.236
75498W        W40978  39.506  17.669  14.418
75499W        W40979  16.777  29.669  12.438
75500W        W40980   4.763  42.972  10.052
75501W        W40981  15.157   5.886  12.423
75502W        W40982  17.201  26.975   3.802
75503W        W40983  42.377  10.854   1.360
75504W        W40984  10.310  44.452   4.175
75505W        W40985   4.292  39.935   2.901
75506W        W40986  22.682  36.485   1.744
75507W        W40987  19.598  17.273   4.271
75508W        W40988   0.455  27.450  14.964
75509W        W40989  30.120  37.894   4.815
75510W        W40990  40.855  22.233   4.758
75511W        W40991  39.536  19.073   1.728
75512W        W40992  37.002   9.210   3.181
75513W        W40993  42.368  27.113   0.412
75514W        W40994   7.171   3.237   0.263
75515W        W40995  20.167  27.106   3.833
75516W        W40996  10.190  17.102   1.233
75517W        W40997   2.933  22.554   3.335
75518W        W40998  18.282  30.981   4.133
75519W        W40999  22.670  39.333   4.289
75520W        W41000  36.585  18.114   1.756
75521W        W41001  15.732  40.048   0.419
75522W        W41002  29.460  31.055   1.315
75523W        W41003  20.763  38.823   2.221
75524W        W41004  27.036  20.119  12.560
75525W        W41005  26.088  32.003   0.255
75526W        W41006  14.786   4.730  12.461
75527W        W41007   4.788  41.307  13.527
75528W        W41008  11.248   8.239  11.536
75529W        W41009  23.658  22.545  13.897
75530W        W41010   3.816   5.435   1.355
75531W        W41011  43.506  15.735   3.165
75532W        W41012  30.022  40.325   2.342
75533W        W41013  18.599  43.426  13.364
75534W        W41014  17.065   9.170  13.806
75535W        W41015  30.511  23.621  14.783
75536W        W41016  28.582  30.469   2.898
75537W        W41017  18.742  13.180  13.853
75538W        W41018  37.041  18.185  12.864
75539W        W41019   6.380  30.941  12.398
75540W        W41020  13.289  29.427   1.720
75541W        W41021  21.256  21.181  11.452
75542W        W41022  39.053  30.072  10.475
75543W        W41023   7.181  38.839   5.221
75544W        W41024  21.610   2.451  10.900
75545W        W41025   7.829  21.703  12.909
75546W        W41026  10.310  21.081   1.771
75547W        W41027  12.198  13.241   0.873
75548W        W41028  31.047  37.015   1.832
75549W        W41029  22.198  16.658  11.128
75550W        W41030  40.546  25.973  14.971
75551W        W41031  16.644   0.407   4.145
75552W        W41032  43.948  36.853  13.524
75553W        W41033  33.450  27.516   4.741
75554W        W41034   4.306   6.826  10.411
75555W        W41035  16.280  42.455   5.789
75556W        W41036  17.629   2.834  11.060
75557W        W41037  12.128   6.710   4.816
75558W        W41038  29.149  12.723  10.448
75559W        W41039  11.254  34.574  13.039
75560W        W41040  44.832  37.469  11.116
75561W        W41041   7.219  42.484  12.520
75562W        W41042  34.531   1.919   0.371
75563W        W41043  31.971  22.540   1.366
75564W        W41044  21.116  39.973   2.817
75565W        W41045  23.664  20.556   0.864
75566W        W41046  36.583  43.830  13.316
75567W        W41047  35.432   7.340   3.353
75568W        W41048  43.797  36.915   4.698
75569W        W41049  43.409  18.270   0.777
75570W        W41050  14.247  12.242   2.208
75571W        W41051  39.378  31.407   2.364
75572W        W41052  25.477  34.091   1.744
75573W        W41053  37.055   5.337  14.824
75574W        W41054  21.051  31.153   3.287
75575W        W41055   2.463  13.832   4.672
75576W        W41056  33.901   1.291  11.026
75577W        W41057   0.359  36.089  11.947
75578W        W41058   0.934  24.100  11.895
75579W        W41059  35.602  31.962   3.170
75580W        W41060  20.247  32.451   4.184
75581W        W41061  19.230  13.761  11.412
75582W        W41062   9.306   4.369  13.366
75583W        W41063  10.323  35.924  10.888
75584W        W41064  18.756  15.639  12.973
75585W        W41065  19.148  26.061   3.294
75586W        W41066  29.616  32.972   4.619
75587W        W41067  22.037  42.501  14.028
75588W        W41068  41.847  13.143   3.218
75589W        W41069  15.281  11.335  12.413
75590W        W41070  32.888  21.512   1.851
75591W        W41071  17.678  27.668   0.799
75592W        W41072  19.598  32.102   0.745
75593W        W41073  37.528  25.124  13.534
75594W        W41074  34.400  37.913   3.841
75595W        W41075  22.096  37.018   3.699
75596W        W41076  16.205  15.098  13.944
75597W        W41077  25.202  40.823  11.078
75598W        W41078   6.266  34.866   2.394
75599W        W41079  33.626  12.636  11.596
75600W        W41080  10.855  29.974  14.925
75601W        W41081   2.404  14.711  14.495
75602W        W41082  15.754  38.517  11.610
75603W        W41083  42.001  27.505   0.245
75604W        W41084  22.556  28.523   1.303
75605W        W41085  44.960  28.483  11.908
75606W        W41086  34.950  13.793   0.792
75607W        W41087  41.345  43.369   4.625
75608W        W41088  24.001  36.462  13.963
75609W        W41089   3.889  27.184  10.576
75610W        W41090   7.260   3.216  13.969
75611W        W41091  26.202  19.667  10.953
75612W        W41092  26.537  11.771   3.663
75613W        W41093  11.806  35.104  14.306
75614W        W41094  15.812  24.562   1.438
75615W        W41095  30.995  26.061  14.485
75616W        W41096  16.281  25.704   3.681
75617W        W41097  43.799  23.173  14.015
75618W        W41098  21.551  29.473  10.523
75619W        W41099   9.170  44.895   2.710
75620W        W41100  27.464  33.399  10.951
75621W        W41101  38.851   4.392   0.367
75622W        W41102   7.885  39.005  14.993
75623W        W41103  33.019  28.943   4.324
75624W        W41104  41.884  20.663   2.288
75625W        W41105   0.759   7.335   4.692
75626W        W41106  13.272  29.994   4.779
75627W        W41107  24.184   1.833  13.812
75628W        W41108  23.102  38.365  14.502
75629W        W41109   2.722   3.302   3.369
75630W        W41110  44.973  11.732  14.014
75631W        W41111  22.042   7.219   4.832
75632W        W41112  43.797   5.688  12.860
75633W        W41113  37.831   5.278  11.392
75634W        W41114  17.571   6.192   4.297
75635W        W41115  19.257  14.757   4.282
75636W        W41116   3.714  17.693   2.394
75637W        W41117  13.228  15.708  11.889
75638W        W41118  39.985  43.805   0.379
75639W        W41119  13.168  44.473   2.257
75640W        W41120  17.737  21.136  11.528
75641W        W41121  11.828  35.522   0.771
75642W        W41122  20.551  29.616   1.865
75643W        W41123   8.772   9.366  13.403
75644W        W41124  21.234  17.111   1.795
75645W        W41125   4.255  32.134  14.314
75646W        W41126  25.089  15.238  12.063
75647W        W41127  35.862   5.882  14.866
75648W        W41128  39.540  18.651  13.980
75649W        W41129  35.455  44.442  14.810
75650W        W41130  41.327  11.294   1.243
75651W        W41131   5.691  12.717  11.097
75652W        W41132   9.302   1.911   0.453
75653W        W41133  33.482  14.180   3.265
75654W        W41134  29.635  28.980   1.717
75655W        W41135  22.681  34.390  13.872
75656W        W41136  38.933   5.383  14.026
75657W        W41137   3.819  17.202   3.845
75658W        W41138   9.658  20.274  11.611
75659W        W41139   0.825  21.098   1.387
75660W        W41140   3.941  11.154   3.694
75661W        W41141  40.971  38.962  13.960
75662W        W41142  25.105  44.494   9.636
75663W        W41143   7.692  39.996  10.522
75664W        W41144  38.485  33.074   0.448
75665W        W41145  31.904   0.744  10.519
75666W        W41146  40.375  14.784  12.949
75667W        W41147  18.066  24.706   0.930
75668W        W41148   2.940   1.389  11.091
75669W        W41149   7.289   9.670  11.008
75670W        W41150  44.266   5.763   0.417
75671W        W41151  33.015  31.413   4.697
75672W        W41152  12.304  32.578  12.005
75673W        W41153  43.002  10.767   2.742
75674W        W41154  10.223  18.261  11.955
75675W        W41155  40.460  41.517  10.624
75676W        W41156  15.261  17.067  13.882
75677W        W41157  34.433   7.900   0.794
75678W        W41158  32.633  44.811  12.509
75679W        W41159  13.601  13.337  13.530
75680W        W41160  23.151  13.695  14.874
75681W        W41161  44.302  43.515   1.432
75682W        W41162  28.032   7.749  12.829
75683W        W41163  32.456  31.063   3.245
75684W        W41164  13.135  26.180   2.689
75685W        W41165  24.073   3.312  10.145
75686W        W41166  29.038  36.391  13.317
75687W        W41167   1.276  10.282   2.798
75688W        W41168  12.837  10.788  10.900
75689W        W41169  26.084  33.583  14.881
75690W        W41170  42.970   6.797  12.066
75691W        W41171  34.971  11.861   3.349
75692W        W41172   1.909  38.979  11.954
75693W        W41173  33.573  25.047  11.883
75694W        W41174  24.640  39.892  11.526
75695W        W41175  20.208  33.411   1.779
75696W        W41176  35.369   7.413  13.315
75697W        W41177  18.648  33.514   0.785
75698W        W41178  30.466  41.867  14.803
75699W        W41179  38.052  18.588  10.538
75700W        W41180  16.141   9.221   0.727
75701W        W41181  15.793  31.525   4.229
75702W        W41182  15.675   1.948   0.424
75703W        W41183   2.942  17.262   4.689
75704W        W41184  34.054  33.513   0.462
75705W        W41185  33.625  41.969  12.890
75706W        W41186  23.027  35.592  11.426
75707W        W41187  12.654  37.034   1.884
75708W        W41188  34.953  29.102  11.034
75709W        W41189  25.482  44.961   3.350
75710W        W41190  16.675   0.452  12.054
75711W        W41191  13.609  12.303  11.124
75712W        W41192  31.591  11.803   1.832
75713W        W41193   3.383   9.731  14.482
75714W        W41194  37.999  31.911  11.069
75715W        W41195  17.739  28.502   1.795
75716W        W41196   1.457   9.265   0.435
75717W        W41197   1.352   7.250  12.040
75718W        W41198  16.292  24.128  11.557
75719W        W41199  31.462  41.424  12.490
75720W        W41200  21.238   2.410   4.645
75721W        W41201  19.738  26.156  11.574
75722W        W41202  39.316   0.808   2.790
75723W        W41203   8.713  23.729  14.505
75724W        W41204   0.351  37.085  11.526
75725W        W41205  27.158  28.957   1.784
75726W        W41206  21.208  36.530  12.490
75727W        W41207   8.277   3.284  13.520
75728W        W41208  21.168  24.601  10.927
75729W        W41209  31.421  32.079  14.411
75730W        W41210   0.799   8.728   1.344
75731W        W41211   7.674  29.598   3.738
75732W        W41212  26.115   4.871  11.064
75733W        W41213  13.644   3.801  10.456
75734W        W41214  39.907  16.696  14.294
75735W        W41215  10.838  39.493   4.203
75736W        W41216  42.324  38.445   0.364
75737W        W41217  25.216   6.329  12.527
75738W        W41218  20.552  27.593   2.210
75739W        W41219  22.024  35.016  11.898
75740W        W41220  28.656  31.543   4.123
75741W        W41221   4.413  22.126  13.942
75742W        W41222  11.234  16.735   0.386
75743W        W41223   1.873   4.843   1.376
75744W        W41224  25.497  27.666   0.425
75745W        W41225   1.298  31.581   4.327
75746W        W41226   8.785  13.153   1.321
75747W        W41227  29.447  14.604   4.280
75748W        W41228   0.960  38.988  13.879
75749W        W41229  23.080  26.121   0.253
75750W        W41230   4.213  41.325  13.828
75751W        W41231  20.062  16.652   2.818
75752W        W41232  39.348  20.661  11.086
75753W        W41233  39.390  38.822  11.464
75754W        W41234  16.658  20.207  10.479
75755W        W41235  31.447  34.063  10.475
75756W        W41236  25.052  21.020   4.168
75757W        W41237   7.283  37.862   4.161
75758W        W41238  31.622  10.275  10.630
75759W        W41239  10.641   6.234  11.989
75760W        W41240  17.557  19.171   2.218
75761W        W41241   7.726   6.397   3.769
75762W        W41242   3.852  16.315  12.948
75763W        W41243   1.810  37.978  10.433
75764W        W41244   8.268  27.140   4.655
75765W        W41245  33.060  36.065   1.820
75766W        W41246  42.516  14.652   0.430
75767W        W41247   1.388  38.335   1.450
75768W        W41248   3.271  16.240  13.321
75769W        W41249  13.658  11.144  11.117
75770W        W41250  22.692  19.245  10.923
75771W        W41251  29.636   2.914  14.395
75772W        W41252   7.878  36.852  14.916
75773W        W41253  12.327   7.816   3.206
75774W        W41254  23.720  41.327   2.734
75775W        W41255  38.378  37.983  14.382
75776W        W41256  33.072   3.936   4.341
75777W        W41257  16.767   8.351  11.869
75778W        W41258   8.775  35.372  14.456
75779W        W41259  27.174  36.928   1.703
75780W        W41260  21.637  28.180   0.418
75781W        W41261  24.092  41.946   3.774
75782W        W41262  39.903  35.983  12.405
75783W        W41263   8.376  23.731   1.746
75784W        W41264  38.327  27.942  14.472
75785W        W41265  10.163   5.349  11.044
75786W        W41266  43.833  34.913  14.927
75787W        W41267  18.748  13.623  13.955
75788W        W41268  44.917   2.878   3.325
75789W        W41269  25.702  38.844  11.443
75790W        W41270  31.584  21.715  10.556
75791W        W41271  34.552  24.537   1.312
75792W        W41272   4.759  20.136   1.933
75793W        W41273   1.388  11.267  13.351
75794W        W41274  39.921   9.875   4.324
75795W        W41275  28.152  39.381  11.962
75796W        W41276  16.244  27.680   0.436
75797W        W41277  16.619   8.362  14.031
75798W        W41278  40.806  37.451  11.090
75799W        W41279  29.647  21.249  14.490
75800W        W41280  33.920  27.539  13.901
75801W        W41281  22.246  13.649   4.277
75802W        W41282  38.021  27.622  14.436
75803W        W41283  38.544  19.175  13.990
75804W        W41284  13.145  41.967   3.714
75805W        W41285  14.216  27.511  11.436
75806W        W41286  26.070  37.504   0.869
75807W        W41287   1.422  15.610   0.477
75808W        W41288   5.777  21.137   2.829
75809W        W41289  24.160  27.530  11.527
75810W        W41290  30.065  32.903  10.939
75811W        W41291  11.761   1.868  11.861
75812W        W41292   0.383   7.808   0.747
75813W        W41293  12.712   8.821  12.574
75814W        W41294  40.384  33.478   0.303
75815W        W41295  34.552  40.905  12.950
75816W        W41296  28.121   4.324   3.642
75817W        W41297  13.612  35.532   0.271
75818W        W41298  26.565  40.381   2.403
75819W        W41299  10.695  15.633   1.443
75820W        W41300  32.107  44.001   0.315
75821W        W41301  22.703  42.885  10.085
75822W        W41302   0.402  17.156  10.576
75823W        W41303  40.450  17.108  13.920
75824W        W41304  18.604   2.896   2.355
75825W        W41305  29.931  12.360  14.410
75826W        W41306  25.651   0.311   1.842
75827W        W41307  25.006  41.042  11.463
75828W        W41308   1.422   1.473  13.968
75829W        W41309  23.021  19.595   2.704
75830W        W41310  22.044   6.409   2.275
75831W        W41311  35.936  13.623  13.847
75832W        W41312  19.108   0.837   0.749
75833W        W41313  31.111  26.029  14.786
75834W        W41314  10.689  13.751   2.867
75835W        W41315  40.000   9.887  12.453
75836W        W41316  11.260  42.286   0.403
75837W        W41317  23.094  41.967   1.374
75838W        W41318  30.582   6.690   3.853
75839W        W41319  35.018  42.912  12.873
75840W        W41320  24.197  31.584   2.307
75841W        W41321  37.046  10.231   0.425
75842W        W41322   0.774  29.152  10.491
75843W        W41323  15.125  37.397   2.841
75844W        W41324   8.895  31.598   4.692
75845W        W41325   5.364   4.371   4.288
75846W        W41326  12.614  22.199   0.943
75847W        W41327   1.824  39.358  12.381
75848W        W41328  41.459   7.381  14.024
75849W        W41329  33.906  16.260  12.910
75850W        W41330  19.122   1.920   4.604
75851W        W41331  10.255  12.314  13.934
75852W        W41332   9.773  39.431  10.489
75853W        W41333  41.494   6.891  12.901
75854W        W41334  37.044  12.839   0.887
75855W        W41335   0.321  29.555   0.760
75856W        W41336  37.561  38.843  13.471
75857W        W41337  42.362  21.577   1.713
75858W        W41338   6.353   0.964   4.761
75859W        W41339  33.588  22.142  14.780
75860W        W41340   4.413  16.813   1.778
75861W        W41341  27.194   1.890   2.306
75862W        W41342  13.654  35.877   0.324
75863W        W41343   5.363  25.706  10.533
75864W        W41344  12.175  16.761   2.748
75865W        W41345  39.841  20.130  12.061
75866W        W41346  24.557  26.684  13.428
75867W        W41347  26.106  26.994   4.210
75868W        W41348  17.202  21.217   5.309
75869W        W41349  31.594  38.977  12.372
75870W        W41350  34.520  43.998  11.457
75871W        W41351   6.901  38.961  10.498
75872W        W41352  31.573  37.842  14.996
75873W        W41353  18.706   6.356   5.209
75874W        W41354  33.998  43.931  10.932
75875W        W41355  38.494  25.539  12.849
75876W        W41356  24.108  31.548  13.442
75877W        W41357   5.903  30.070  13.471
75878W        W41358  29.983  36.910  11.857
75879W        W41359  19.741  33.049   2.784
75880W        W41360  23.652  13.137  14.829
75881W        W41361  44.831  26.980   4.171
75882W        W41362  29.486  36.426   0.922
75883W        W41363  23.174  34.958   3.696
75884W        W41364  21.687  36.885  14.300
75885W        W41365  20.522   0.877  14.982
75886W        W41366  34.039  27.671  10.894
75887W        W41367  27.592  22.506  14.911
75888W        W41368  31.924  40.982   3.815
75889W        W41369  39.015   9.334   2.181
75890W        W41370  19.715   2.729   3.674
75891W        W41371   9.845  40.049   2.215
75892W        W41372  40.548  11.218  13.546
75893W        W41373  31.491  39.358   0.752
75894W        W41374  33.434  36.064  12.570
75895W        W41375   1.341  41.024  12.399
75896W        W41376  16.241  33.899  11.930
75897W        W41377  40.837  38.859   1.795
75898W        W41378  19.663   0.914  14.455
75899W        W41379  19.105  35.049   3.808
75900W        W41380  18.686  15.241   1.254
75901W        W41381  24.035   5.363   1.774
75902W        W41382   5.866   5.230  13.944
75903W        W41383  25.686  37.920   4.797
75904W        W41384  21.544  30.967   4.768
75905W        W41385  21.205  16.131  10.470
75906W        W41386  26.481  43.344  12.937
75907W        W41387  18.775   9.192   0.342
75908W        W41388  38.875  19.732  14.439
75909W        W41389  37.933  17.264  12.438
75910W        W41390   8.892  24.722  14.516
75911W        W41391  13.639   5.236  10.893
75912W        W41392  12.772   2.768   1.699
75913W        W41393  32.066  16.678   4.770
75914W        W41394   2.441  44.824  13.399
75915W        W41395  34.989  10.367  14.782
75916W        W41396  40.933  31.010   0.846
75917W        W41397   2.442   3.359   2.707
75918W        W41398  23.239  18.059   4.811
75919W        W41399  43.921   3.434  11.082
75920W        W41400  42.358  27.500   1.381
75921W        W41401  44.451  37.903   1.364
75922W        W41402   5.427  38.008  12.014
75923W        W41403  25.690  14.179  13.833
75924W        W41404  39.945   7.824  14.346
75925W        W41405  44.998  41.925  12.834
75926W        W41406  11.716   2.749   0.346
75927W        W41407  33.983  41.304   0.311
75928W        W41408  31.442  32.943   1.397
75929W        W41409  21.684  26.061   3.865
75930W        W41410  24.197  26.133   4.775
75931W        W41411   9.812  21.096  12.351
75932W        W41412  10.666  20.045   4.765
75933W        W41413  44.380  20.697  14.859
75934W        W41414   1.771  38.059   0.250
75935W        W41415   4.825  42.940  10.967
75936W        W41416   8.680  14.733   5.194
75937W        W41417  32.093  20.657  11.569
75938W        W41418  15.621   1.366   3.710
75939W        W41419  38.866  10.287   4.256
75940W        W41420  36.580  14.225   3.360
75941W        W41421  16.719  20.098   2.697
75942W        W41422  27.034  11.822   0.284
75943W        W41423   6.284  23.526  13.495
75944W        W41424  38.522  43.436  13.835
75945W        W41425  26.111  12.716  12.394
75946W        W41426  32.527  10.757  14.333
75947W        W41427  13.185  20.631   1.756
75948W        W41428   8.326   2.336  10.419
75949W        W41429  24.505  11.707   0.273
75950W        W41430  39.373  42.967  14.431
75951W        W41431  33.518   9.323   2.869
75952W        W41432   1.436   1.408  10.465
75953W        W41433  37.834  19.588  11.900
75954W        W41434   9.701   4.293   2.317
75955W        W41435  10.874  31.901  12.463
75956W        W41436  33.102  13.775  11.909
75957W        W41437  37.393  15.224   0.364
75958W        W41438   6.698  11.641  13.495
75959W        W41439  16.101  44.315  13.336
75960W        W41440   8.262  25.102   1.885
75961W        W41441  33.439  27.085   3.745
75962W        W41442  40.013  35.428  11.973
75963W        W41443   0.841  26.664  11.963
75964W        W41444   0.354  36.495   0.327
75965W        W41445  23.714  33.991  14.005
75966W        W41446  10.794  39.359   1.802
75967W        W41447  20.651  21.709   2.766
75968W        W41448  40.338   8.345   2.341
75969W        W41449  41.030  20.240  14.874
75970W        W41450  12.822  18.129   2.255
75971W        W41451  35.910  34.489   2.860
75972W        W41452   0.926   0.778  10.973
75973W        W41453  30.504  11.216   4.677
75974W        W41454   5.227  26.017   0.868
75975W        W41455  17.266  13.222  12.041
75976W        W41456  30.450  22.589   3.739
75977W        W41457  34.929  20.242   3.246
75978W        W41458  41.439  13.273   2.268
75979W        W41459  12.733  22.156  13.946
75980W        W41460  42.991  25.170  11.431
75981W        W41461  15.712  18.735  13.354
75982W        W41462  31.913  44.426   3.334
75983W        W41463   3.249  38.047  10.928
75984W        W41464   1.342  20.201  14.341
75985W        W41465  25.713  31.951  12.956
75986W        W41466  31.560  19.284   0.912
75987W        W41467  11.155  35.095  13.448
75988W        W41468   5.375  41.304  12.835
75989W        W41469  37.481  24.628   3.725
75990W        W41470  12.243   6.733   2.273
75991W        W41471  14.733  38.355   1.715
75992W        W41472   8.262   2.949   0.395
75993W        W41473  17.583  36.997   3.649
75994W        W41474  34.997  29.156   1.888
75995W        W41475   7.200  29.654   1.214
75996W        W41476   6.240  33.878  12.909
75997W        W41477  43.437   3.834   0.902
75998W        W41478  34.506   3.224  14.931
75999W        W41479  28.478  29.545   0.860
76000W        W41480  33.491  22.638   2.385
76001W        W41481  16.582  31.997  11.437
76002W        W41482  13.730  26.550   0.851
76003W        W41483  40.935  12.340   4.715
76004W        W41484  20.708  24.006   3.830
76005W        W41485   4.813  30.465   5.243
76006W        W41486  25.182  31.073   3.801
76007W        W41487   9.164  17.719   4.285
76008W        W41488   6.785  10.349   1.870
76009W        W41489  36.403  14.711   0.893
76010W        W41490   6.868  25.690   3.183
76011W        W41491  24.106   2.866  12.978
76012W        W41492   9.220  40.950  12.841
76013W        W41493  14.164  16.220   3.258
76014W        W41494   8.864  12.797  12.340
76015W        W41495  32.607  33.540  12.417
76016W        W41496  37.055  31.617   1.721
76017W        W41497  38.328  32.437  12.885
76018W        W41498  20.223  43.787  10.442
76019W        W41499  39.317  10.871  11.400
76020W        W41500  43.020  28.163   5.159
76021W        W41501  37.912  30.957   4.208
76022W        W41502   7.272  34.460   2.413
76023W        W41503  16.194  41.012   2.820
76024W        W41504  30.033   8.374  13.830
76025W        W41505  42.447  43.021   4.753
76026W        W41506  22.586  27.134  12.490
76027W        W41507  44.767  29.948  14.021
76028W        W41508  17.268  30.576   4.783
76029W        W41509   7.268   6.410  10.597
76030W        W41510  43.009  17.227  12.838
76031W        W41511  27.644  10.701   1.833
76032W        W41512  22.149   9.288   4.780
76033W        W41513   0.781   1.304  14.508
76034W        W41514  37.856  33.524  10.641
76035W        W41515  16.091  32.514  10.048
76036W        W41516  28.077   8.229   1.771
76037W        W41517   6.836  31.594   3.700
76038W        W41518  37.446  38.423  13.425
76039W        W41519  27.163  39.910   1.759
76040W        W41520  37.999  40.818  11.984
76041W        W41521  17.175  28.949  14.870
76042W        W41522   3.223  18.274   1.726
76043W        W41523  17.234   2.361   4.768
76044W        W41524  12.725  20.587   2.854
76045W        W41525  22.207  19.591  10.433
76046W        W41526  10.343  36.076   3.283
76047W        W41527  11.719   4.383   3.208
76048W        W41528  15.087   4.766  11.089
76049W        W41529  29.921  44.917   4.647
76050W        W41530  38.396  25.529   4.347
76051W        W41531  15.211  19.041   1.322
76052W        W41532   5.775   7.789   0.470
76053W        W41533  26.618  32.636  14.964
76054W        W41534  20.565  34.900  13.496
76055W        W41535  41.510  23.677   4.648
76056W        W41536  33.126  33.977  11.383
76057W        W41537   6.706  11.329   3.817
76058W        W41538  29.928   2.468  10.950
76059W        W41539  10.655  30.977  12.002
76060W        W41540  15.094  17.724  10.497
76061W        W41541  13.679   9.343   2.881
76062W        W41542  42.028   3.346  11.527
76063W        W41543  40.327  30.611  12.073
76064W        W41544  38.497   1.477   2.307
76065W        W41545  24.978  21.061  12.980
76066W        W41546  28.458  38.928   2.785
76067W        W41547  27.534  24.141   1.921
76068W        W41548  25.043  39.831   2.683
76069W        W41549  36.011  39.485   4.652
76070W        W41550  19.771  30.590   0.953
76071W        W41551  30.947  18.075  11.556
76072W        W41552  18.635   1.443   3.684
76073W        W41553  43.354  34.378  11.456
76074W        W41554   8.868  39.811   1.437
76075W        W41555  29.021  11.754  13.794
76076W        W41556  33.917  37.832   3.808
76077W        W41557  38.340  44.333  13.370
76078W        W41558  34.479  24.150  11.959
76079W        W41559  22.717  22.646  14.832
76080W        W41560  16.581  39.404  11.047
76081W        W41561  18.668   0.470   2.329
76082W        W41562   5.773  18.744   2.808
76083W        W41563  16.165   8.327   2.840
76084W        W41564   6.277  39.398  10.439
76085W        W41565  35.491  29.038  12.350
76086W        W41566  40.416   6.266   3.703
76087W        W41567  17.796  34.542   2.786
76088W        W41568  30.596  12.277   1.333
76089W        W41569   4.246  13.808  12.360
76090W        W41570  28.481   3.395   2.243
76091W        W41571   0.988  13.141  12.081
76092W        W41572  13.747  31.582  12.475
76093W        W41573  24.705  40.410  14.370
76094W        W41574  25.004  13.636  11.483
76095W        W41575  44.899  22.143   3.214
76096W        W41576   8.890   0.830  13.933
76097W        W41577  31.142  13.190   0.285
76098W        W41578  20.732  43.417  11.405
76099W        W41579  40.535  36.919  12.422
76100W        W41580  40.810  29.547   1.848
76101W        W41581   8.729  32.624   4.712
76102W        W41582   9.712   2.425   0.829
76103W        W41583  35.862  12.854   1.862
76104W        W41584  36.431  38.988  10.483
76105W        W41585  25.200  23.042   0.874
76106W        W41586  26.059  16.690   1.751
76107W        W41587  27.466  12.126   3.682
76108W        W41588  12.799  16.708  14.978
76109W        W41589  11.736  42.019  12.446
76110W        W41590  29.448  17.733  14.775
76111W        W41591  41.931  20.573   3.753
76112W        W41592  12.769  25.115  14.016
76113W        W41593  43.861  18.564   1.739
76114W        W41594  12.714  34.960   3.705
76115W        W41595  17.569  33.016  10.499
76116W        W41596   8.873  34.111  14.912
76117W        W41597  44.493  29.049  14.964
76118W        W41598  15.626  39.956  10.902
76119W        W41599   2.412  42.517   4.350
76120W        W41600  22.727  31.449  11.397
76121W        W41601  24.167   2.906   2.240
76122W        W41602  27.182  30.434   5.320
76123W        W41603  33.116  42.838   1.832
76124W        W41604   4.385   2.379  13.023
76125W        W41605  22.587  26.668  14.353
76126W        W41606  35.080  39.411   4.180
76127W        W41607   4.797  35.047  14.382
76128W        W41608  11.667  41.464  13.836
76129W        W41609  28.527  22.030  13.353
76130W        W41610  37.891  30.017  11.425
76131W        W41611  19.651  29.493   0.935
76132W        W41612  43.411   3.792   3.300
76133W        W41613  18.751   2.447   3.281
76134W        W41614  44.494  28.000   0.814
76135W        W41615  19.105  16.107  12.083
76136W        W41616   5.875  44.830   0.482
76137W        W41617  26.180   0.334   0.804
76138W        W41618   9.294   2.427  13.497
76139W        W41619  40.307  22.557   3.633
76140W        W41620  33.880  13.334  14.455
76141W        W41621  23.503   6.360  14.486
76142W        W41622  14.677   5.912  11.080
76143W        W41623  22.053  21.637   3.217
76144W        W41624   6.343  32.441  14.336
76145W        W41625   0.437  14.309   2.252
76146W        W41626  43.383  42.947   0.345
76147W        W41627  24.707   4.385  10.993
76148W        W41628  14.824  36.593   0.962
76149W        W41629   8.203  20.577  12.376
76150W        W41630  30.426  27.587  14.382
76151W        W41631  40.797  13.296   2.253
76152W        W41632  16.200  43.418   2.748
76153W        W41633  35.009  39.398   2.829
76154W        W41634  29.590  20.215  11.974
76155W        W41635  15.717  34.398   3.745
76156W        W41636  42.815  39.012  13.836
76157W        W41637   2.934  33.578   0.248
76158W        W41638  34.910  22.518  12.404
76159W        W41639   7.249  24.642   0.911
76160W        W41640   9.827  23.218   4.619
76161W        W41641  17.769  30.095  11.869
76162W        W41642  24.639  33.520   1.239
76163W        W41643  39.330  43.389   1.290
76164W        W41644   0.485   5.410   2.184
76165W        W41645  11.696  33.961  11.519
76166W        W41646  25.467  22.613  11.502
76167W        W41647  32.010   2.448   0.404
76168W        W41648  14.716  43.394   1.373
76169W        W41649   2.727   7.784  14.993
76170W        W41650  30.956  19.762   0.853
76171W        W41651  32.080  33.552   1.861
76172W        W41652  42.927  28.621  12.856
76173W        W41653  12.208  22.673   4.679
76174W        W41654  34.117   8.826   2.879
76175W        W41655  16.653   5.857  14.806
76176W        W41656  14.603  42.382  12.051
76177W        W41657   4.773   0.261  10.935
76178W        W41658  19.767   6.776   1.904
76179W        W41659  29.928  42.341  12.968
76180W        W41660   2.875  37.042   3.165
76181W        W41661  23.644  26.100   2.838
76182W        W41662  32.455  31.094  13.061
76183W        W41663  12.800  44.383   3.381
76184W        W41664  37.990  43.472  14.512
76185W        W41665   3.231  31.122  10.437
76186W        W41666   4.262  18.671   3.781
76187W        W41667  17.793  21.535  11.551
76188W        W41668  33.925  26.095   1.798
76189W        W41669   5.407  44.268   1.935
76190W        W41670   7.766  11.748   3.297
76191W        W41671  32.633  23.548  12.443
76192W        W41672  27.070  26.504   0.318
76193W        W41673  36.545  36.980   1.840
76194W        W41674  29.528  30.944   1.757
76195W        W41675  12.666   2.848   0.462
76196W        W41676  10.723   8.818   0.289
76197W        W41677  23.519  31.414   0.392
76198W        W41678  26.067  22.506  11.427
76199W        W41679  43.509  23.611   4.681
76200W        W41680   8.190  13.347   1.825
76201W        W41681  13.755  24.681   2.713
76202W        W41682  13.223   7.691   2.727
76203W        W41683  31.521   2.834  12.956
76204W        W41684   1.746  21.640   1.266
76205W        W41685   5.251  11.128   4.790
76206W        W41686   6.353  17.295   0.829
76207W        W41687  13.267  41.847  11.940
76208W        W41688  44.891  23.576  11.907
76209W        W41689  25.053  29.559  13.940
76210W        W41690  17.302  18.614   4.181
76211W        W41691  33.562  21.079  12.017
76212W        W41692   4.418   7.807   4.226
76213W        W41693   2.920  32.522   2.852
76214W        W41694  37.039  41.536  14.924
76215W        W41695  38.971   8.891   3.633
76216W        W41696  38.337  16.231  12.389
76217W        W41697   4.310  10.771  11.401
76218W        W41698   7.904  16.180  14.412
76219W        W41699  13.744   1.405   4.147
76220W        W41700  41.977  11.247  11.093
76221W        W41701  26.568   9.153  13.062
76222W        W41702  23.532   2.344  13.974
76223W        W41703  19.696  41.536  11.568
76224W        W41704  16.254  35.860  14.758
76225W        W41705  22.621  35.562   2.675
76226W        W41706  44.285  42.291   3.792
76227W        W41707  11.273  14.774   0.414
76228W        W41708   8.691  24.002  12.951
76229W        W41709  37.037  32.093  13.042
76230W        W41710   3.763   4.884  13.320
76231W        W41711   7.799   8.675   0.845
76232W        W41712   7.242  25.131  12.875
76233W        W41713  40.884  22.137   3.672
76234W        W41714  27.615  32.071  13.456
76235W        W41715  12.639  23.022  11.932
76236W        W41716  28.078  33.611   1.775
76237W        W41717  27.958  29.559   2.896
76238W        W41718  19.135  21.212   0.420
76239W        W41719  42.800  27.509  10.592
76240W        W41720  24.016  12.242   2.178
76241W        W41721  19.267   6.304  13.989
76242W        W41722  38.947  31.912   9.924
76243W        W41723  22.223  23.992  13.041
76244W        W41724  18.749  14.706  10.915
76245W        W41725   2.889   5.870   3.643
76246W        W41726  29.037  37.454   0.294
76247W        W41727  36.409  16.281   4.757
76248W        W41728  27.980  26.156   2.228
76249W        W41729  44.759  29.995   3.361
76250W        W41730   6.284  20.153   0.442
76251W        W41731   9.744   7.705   3.766
76252W        W41732  22.585  22.040   1.785
76253W        W41733   8.666  16.079   4.333
76254W        W41734  34.949  36.408  12.972
76255W        W41735  14.326   1.790  13.508
76256W        W41736  23.175  22.039  11.505
76257W        W41737  18.702  24.172   3.675
76258W        W41738  25.648  38.439   0.751
76259W        W41739  19.089  34.609  14.354
76260W        W41740  40.377   1.855   2.320
76261W        W41741  30.569  32.052  12.514
76262W        W41742  27.136  39.916  11.868
76263W        W41743  11.829  44.449   3.266
76264W        W41744  12.189  35.060  11.478
76265W        W41745  24.067  21.063  13.362
76266W        W41746  17.621  40.914  12.065
76267W        W41747  23.502  18.546  10.631
76268W        W41748  12.734  27.094   0.285
76269W        W41749  35.424   0.277  11.444
76270W        W41750  17.256  40.382  12.464
76271W        W41751   5.426   1.896  10.982
76272W        W41752  10.634  28.171  11.086
76273W        W41753   9.336  41.883   2.811
76274W        W41754  36.051  33.877  14.277
76275W        W41755   0.791  29.556  13.307
76276W        W41756   3.756  25.144  13.977
76277W        W41757  37.926  41.408  11.407
76278W        W41758  19.775   1.480  13.986
76279W        W41759  17.780  12.699   4.834
76280W        W41760  44.368  23.621   3.719
76281W        W41761  42.865  30.430   2.219
76282W        W41762   6.751  28.519  11.502
76283W        W41763  22.634  37.355   4.699
76284W        W41764  17.188  13.206  11.497
76285W        W41765  11.301  16.778   3.262
76286W        W41766   3.240  11.146   1.398
76287W        W41767  13.198  17.740   1.917
76288W        W41768  13.200  24.158  14.274
76289W        W41769  37.058  13.243  14.434
76290W        W41770  29.534   7.825   1.835
76291W        W41771  39.915  30.996   4.763
76292W        W41772  27.575  22.654  11.022
76293W        W41773   1.380   4.804   1.790
76294W        W41774  17.734  18.149  10.988
76295W        W41775  13.317   3.887  11.416
76296W        W41776  35.503  18.206  11.088
76297W        W41777   7.682   9.718  12.369
76298W        W41778  13.812  15.205   0.475
76299W        W41779  16.729   3.314   2.881
76300W        W41780  30.597  38.015  14.371
76301W        W41781  42.364   2.812   3.274
76302W        W41782  14.648  13.141   1.883
76303W        W41783  33.602  34.495  12.823
76304W        W41784   1.238   4.927   4.667
76305W        W41785   1.271  35.534   0.372
76306W        W41786  24.620  41.448   1.779
76307W        W41787  39.397  32.056  13.917
76308W        W41788  41.466  24.181  13.007
76309W        W41789  13.818  38.413  11.862
76310W        W41790  32.961  40.904   1.405
76311W        W41791  36.406   6.192  11.991
76312W        W41792  30.046  37.546   0.933
76313W        W41793  12.735  12.327   2.403
76314W        W41794  27.145  44.786  14.759
76315W        W41795  12.255  14.683   2.331
76316W        W41796  27.455  35.361  11.951
76317W        W41797  35.424  33.597  12.347
76318W        W41798   1.880  17.734   0.754
76319W        W41799  29.578  30.647  10.106
76320W        W41800   6.875  29.101   1.422
76321W        W41801  27.169  39.454   1.248
76322W        W41802   7.301   7.401  10.581
76323W        W41803   0.852  30.631  14.913
76324W        W41804  28.064  43.390  10.888
76325W        W41805   1.422  12.353   4.342
76326W        W41806  30.543  10.151  14.814
76327W        W41807  31.944  31.984   4.288
76328W        W41808  35.413   5.919   0.442
76329W        W41809  27.087  15.660   2.280
76330W        W41810  13.319  35.382  10.978
76331W        W41811  32.627  21.234  11.047
76332W        W41812  34.444  43.882   1.913
76333W        W41813  10.366  14.193  14.280
76334W        W41814  28.123  34.901  13.501
76335W        W41815  20.644  37.485  12.530
76336W        W41816  19.537  38.500   4.233
76337W        W41817  42.891  12.278  12.476
76338W        W41818  26.173  22.092   2.769
76339W        W41819  39.917  30.111  11.039
76340W        W41820  11.750   4.893   3.706
76341W        W41821  33.901  20.033  10.528
76342W        W41822  20.531   1.437   2.862
76343W        W41823   5.883   5.244  12.029
76344W        W41824  18.295  16.160   3.213
76345W        W41825  17.167  36.942  11.463
76346W        W41826  40.962  38.474  12.003
76347W        W41827  21.149   0.768   0.438
76348W        W41828   5.407  34.374   0.957
76349W        W41829   5.274  37.484   4.347
76350W        W41830  35.565  28.121   3.156
76351W        W41831   4.903   9.361  14.313
76352W        W41832  20.265  39.810   4.631
76353W        W41833  20.161  17.593  14.011
76354W        W41834  25.182  28.616   3.697
76355W        W41835  35.948  36.848   4.280
76356W        W41836  10.657  27.556  12.839
76357W        W41837  44.289  39.381  14.344
76358W        W41838  35.442   3.935   1.426
76359W        W41839  22.239  43.273   1.444
76360W        W41840  34.999  14.731  11.422
76361W        W41841  10.683  19.276  11.008
76362W        W41842   5.313  22.219   2.317
76363W        W41843  30.422  21.547   4.298
76364W        W41844  33.940  18.191   4.247
76365W        W41845  14.663  25.013  11.552
76366W        W41846  44.833  23.183   2.716
76367W        W41847  14.626  12.229  12.539
76368W        W41848  13.831  34.119  12.929
76369W        W41849   0.379   1.262   3.753
76370W        W41850   1.914  11.776  11.878
76371W        W41851  32.889   8.710   4.631
76372W        W41852  27.188  31.998   1.869
76373W        W41853   3.435  34.391   4.787
76374W        W41854  22.600  14.609   3.789
76375W        W41855  25.988  27.163   1.247
76376W        W41856  39.433   9.853   4.232
76377W        W41857  25.127   9.258  10.072
76378W        W41858   6.223  20.704   4.343
76379W        W41859  43.415   2.812  10.066
76380W        W41860  37.365  33.992  13.819
76381W        W41861  30.493  30.036  10.487
76382W        W41862  12.348  44.782   2.791
76383W        W41863  15.621  39.337   2.216
76384W        W41864  44.822  34.084   3.371
76385W        W41865  23.178  25.066  11.974
76386W        W41866  37.030  36.391  11.569
76387W        W41867  22.668  22.151   4.634
76388W        W41868  25.543   6.911   4.647
76389W        W41869  39.981  44.792  13.362
76390W        W41870  37.470  34.107  12.398
76391W        W41871   4.724  36.481   2.724
76392W        W41872  19.634   5.428   0.736
76393W        W41873  41.985  20.260   2.842
76394W        W41874   7.884   9.315   3.715
76395W        W41875   8.715  41.406  10.917
76396W        W41876  42.819  40.975   0.293
76397W        W41877  40.487  16.615   2.730
76398W        W41878   9.240  25.539  14.336
76399W        W41879   5.774  15.252  12.902
76400W        W41880  14.341  25.109  13.798
76401W        W41881  12.360  22.070   2.312
76402W        W41882  17.075  19.744   1.698
76403W        W41883   9.722  43.298   1.321
76404W        W41884   7.910  36.901   3.265
76405W        W41885  29.031  27.192  13.858
76406W        W41886  35.513  43.812  14.787
76407W        W41887  22.666  17.111   0.845
76408W        W41888   0.773   6.796  12.965
76409W        W41889   8.888  19.105   0.374
76410W        W41890  38.376  29.670  12.956
76411W        W41891   7.279  43.957   1.243
76412W        W41892  28.107   0.989  11.083
76413W        W41893  20.734  40.372  14.452
76414W        W41894   3.290  22.021  14.968
76415W        W41895  18.627  27.998  12.978
76416W        W41896  36.588   6.779   3.730
76417W        W41897  30.481  29.082   1.869
76418W        W41898   5.933   3.319  12.826
76419W        W41899   3.391  36.850   2.318
76420W        W41900  25.096  10.809   3.327
76421W        W41901   4.401   8.827   2.359
76422W        W41902  39.947   7.301   2.672
76423W        W41903  22.041  40.912   4.341
76424W        W41904   2.761  29.991   3.853
76425W        W41905   0.258  16.176   3.249
76426W        W41906  44.410  41.836   3.856
76427W        W41907  32.907  15.699   4.621
76428W        W41908  11.830  41.015  13.309
76429W        W41909   0.319  21.725  13.859
76430W        W41910   1.303  13.772   3.776
76431W        W41911  18.626  22.175   3.864
76432W        W41912  41.407  27.076  13.960
76433W        W41913   7.851  27.012  14.822
76434W        W41914  24.003  22.605  11.123
76435W        W41915  37.088  29.591  14.333
76436W        W41916  10.302   2.313   5.115
76437W        W41917  30.434   3.431  14.301
76438W        W41918  26.525  29.033   0.352
76439W        W41919  33.506  24.714  11.894
76440W        W41920  39.885  29.489   1.251
76441W        W41921  19.720  30.118  10.608
76442W        W41922   4.253  30.606   3.643
76443W        W41923   5.434  14.280   4.635
76444W        W41924  32.035  15.175  13.849
76445W        W41925  42.879  29.605   2.298
76446W        W41926   8.256   9.310   3.716
76447W        W41927  34.930  24.698   1.211
76448W        W41928   5.248  28.990  13.442
76449W        W41929  36.034  26.063   0.323
76450W        W41930  19.766   7.892  10.557
76451W        W41931  28.155  21.154  11.107
76452W        W41932   1.246  43.374   2.670
76453W        W41933   5.398  31.050   2.810
76454W        W41934  43.443  10.166  12.466
76455W        W41935  25.139  30.596   0.258
76456W        W41936  40.888  27.682   2.662
76457W        W41937  32.422   9.650   2.718
76458W        W41938  39.050  25.495  14.504
76459W        W41939  22.634  32.413  13.459
76460W        W41940  28.952  43.362   2.343
76461W        W41941  34.015  15.290  12.540
76462W        W41942   5.260  38.007  12.402
76463W        W41943  30.428   0.803  11.062
76464W        W41944  21.595  28.519  13.372
76465W        W41945   3.219   6.842  13.451
76466W        W41946  29.031   7.200   0.911
76467W        W41947   5.688   2.889  13.460
76468W        W41948  28.602  28.494   3.827
76469W        W41949  19.534   1.456  13.440
76470W        W41950  27.112  24.497  11.495
76471W        W41951   5.743  31.124  10.638
76472W        W41952   2.301  20.075  14.502
76473W        W41953  22.099  32.410  11.047
76474W        W41954   4.430  11.158  14.871
76475W        W41955   2.297  25.587  14.423
76476W        W41956  43.278  31.071  13.311
76477W        W41957  25.022  15.264  14.489
76478W        W41958  16.078  22.624   0.890
76479W        W41959  23.574   3.817  11.558
76480W        W41960   7.389  36.385  13.394
76481W        W41961  32.947   1.833   2.690
76482W        W41962  24.697  20.244  12.847
76483W        W41963  19.733  15.687   4.169
76484W        W41964  34.008  25.133   0.313
76485W        W41965  21.161  35.517  13.918
76486W        W41966  30.971  13.660   1.397
76487W        W41967   8.367   0.944   2.842
76488W        W41968  32.453  25.474   3.258
76489W        W41969   2.839  42.477   3.226
76490W        W41970  19.181  22.513  11.561
76491W        W41971   2.230  18.564  14.031
76492W        W41972  44.904   9.769   1.271
76493W        W41973  40.900  19.183  13.333
76494W        W41974  23.733  21.111  12.401
76495W        W41975  22.653  26.994   0.314
76496W        W41976  28.581  30.658  12.028
76497W        W41977  21.193  34.534   4.815
76498W        W41978   3.242   5.253  14.911
76499W        W41979  17.279  36.471  13.321
76500W        W41980  10.637   7.308  11.498
76501W        W41981  14.713  32.929   2.329
76502W        W41982  37.388  14.815   2.371
76503W        W41983   4.207  43.959   4.641
76504W        W41984   6.847  44.285   0.281
76505W        W41985  44.262  25.115  10.561
76506W        W41986  27.169  40.531   0.885
76507W        W41987  36.846   8.251   2.208
76508W        W41988  13.287  27.087   0.749
76509W        W41989  18.201  14.285   0.385
76510W        W41990   5.819  27.983   0.305
76511W        W41991  23.700  40.363  12.858
76512W        W41992   8.756  14.201  14.301
76513W        W41993  22.170  20.676   3.364
76514W        W41994  28.481  22.025  12.389
76515W        W41995  20.589  27.064  11.960
76516W        W41996   0.742  20.268   2.770
76517W        W41997  18.197  23.730  13.852
76518W        W41998  36.921  37.894   0.393
76519W        W41999  21.209   0.845   1.362
76520W        W42000  42.407  23.509  11.540
76521W        W42001  33.000  34.537   1.885
76522W        W42002  14.600   7.353   4.601
76523W        W42003  22.655   2.275  10.940
76524W        W42004  33.446   7.742   3.830
76525W        W42005  15.688  19.254   1.834
76526W        W42006  44.758  37.464   3.305
76527W        W42007  18.105  12.232   2.784
76528W        W42008   3.449  28.000   2.402
76529W        W42009  38.869  20.589   3.829
76530W        W42010   7.276  26.178  11.534
76531W        W42011  43.847  12.144  14.853
76532W        W42012  31.906   8.784   0.409
76533W        W42013  40.982  11.251  13.031
76534W        W42014  32.505  43.487   4.229
76535W        W42015  15.086  29.143  13.055
76536W        W42016  44.367  34.101  12.923
76537W        W42017  11.664  19.725  12.468
76538W        W42018  12.217  44.294   4.320
76539W        W42019   1.875  22.198   3.780
76540W        W42020  26.519   8.388  10.638
76541W        W42021  23.024  37.368   0.456
76542W        W42022  10.716  21.142   0.936
76543W        W42023   1.370  31.515  10.975
76544W        W42024  13.291   4.212   2.769
76545W        W42025  43.786  38.429   2.307
76546W        W42026  11.861  20.171  11.969
76547W        W42027  18.780  42.788   1.349
76548W        W42028  22.117  10.797  11.020
76549W        W42029  42.434  17.656   3.197
76550W        W42030   2.360   3.949  11.861
76551W        W42031   5.702   4.388  11.399
76552W        W42032  35.867   3.906  14.509
76553W        W42033  30.447  38.376  10.410
76554W        W42034  40.502  44.497   4.338
76555W        W42035   5.312  37.897  13.389
76556W        W42036  12.186  35.379   4.341
76557W        W42037   7.767  28.055  13.342
76558W        W42038  12.207   8.329   0.746
76559W        W42039  37.339  24.028  11.564
76560W        W42040   9.742  43.947   0.936
76561W        W42041  25.163  26.184   3.766
76562W        W42042  22.996  31.906  10.507
76563W        W42043  21.518   9.281   4.702
76564W        W42044   9.751   5.753   1.781
76565W        W42045  17.255  21.560  14.501
76566W        W42046  36.925  24.118   2.688
76567W        W42047  39.314  17.273  11.941
76568W        W42048  39.005   5.733   0.944
76569W        W42049  19.064   5.423  14.328
76570W        W42050  41.034  21.615   4.174
76571W        W42051  24.613  22.148  12.555
76572W        W42052  23.016   0.962   1.326
76573W        W42053   1.358  21.204  14.813
76574W        W42054  32.894  30.114  11.498
76575W        W42055  16.662  16.208   2.341
76576W        W42056  25.178  17.785  10.609
76577W        W42057  12.807  24.645   1.697
76578W        W42058  31.977  39.983  12.550
76579W        W42059  43.913  43.871  11.940
76580W        W42060  31.929  19.591   0.754
76581W        W42061   9.836   0.844  14.501
76582W        W42062  16.109  14.221   0.388
76583W        W42063  18.674   5.305   0.266
76584W        W42064  43.829  40.472  12.535
76585W        W42065  17.652  27.009  13.395
76586W        W42066  32.623  23.115  14.805
76587W        W42067  17.134   7.364   3.646
76588W        W42068  19.281  19.056   3.699
76589W        W42069  30.023  27.627   0.890
76590W        W42070  44.412  37.564  11.092
76591W        W42071  20.134  44.769  10.436
76592W        W42072  11.369  36.075  12.505
76593W        W42073  35.362  43.914  10.490
76594W        W42074  24.551  19.705  12.861
76595W        W42075  34.050  42.910   1.783
76596W        W42076  15.322  35.450   1.413
76597W        W42077  34.024  35.444  13.932
76598W        W42078  27.045   2.824  11.438
76599W        W42079  26.472  39.429   3.275
76600W        W42080  35.417  16.702  11.114
76601W        W42081  15.668   3.781   4.809
76602W        W42082  20.126  36.032  12.011
76603W        W42083  35.561  27.672  12.536
76604W        W42084  18.662  27.099   2.405
76605W        W42085   9.237  25.998  14.849
76606W        W42086   3.284  21.568   0.775
76607W        W42087  14.690  44.428  11.430
76608W        W42088   3.348  27.668  12.503
76609W        W42089  12.119  41.869  14.993
76610W        W42090  39.395  31.112   0.337
76611W        W42091  33.105  29.644  13.419
76612W        W42092   4.831  34.012  11.607
76613W        W42093  44.387  29.595   3.870
76614W        W42094  36.405  39.864   0.930
76615W        W42095  11.344   2.722   0.940
76616W        W42096   0.829   4.252   4.610
76617W        W42097  31.462  21.688   0.815
76618W        W42098  42.346  31.475   1.427
76619W        W42099  22.146  23.661   0.909
76620W        W42100  13.184  21.538  12.890
76621W        W42101  36.527  43.278  11.499
76622W        W42102   3.421  26.111  11.514
76623W        W42103  24.189   5.931  13.890
76624W        W42104  33.039  31.446  13.045
76625W        W42105   5.932  21.111  13.458
76626W        W42106  24.133   2.317   3.671
76627W        W42107  18.776   3.228   4.743
76628W        W42108  17.559  33.386   0.244
76629W        W42109  38.480  18.754   0.454
76630W        W42110   0.924  36.912  12.037
76631W        W42111   2.286  13.679   2.365
76632W        W42112  24.210   7.673  12.488
76633W        W42113  26.151   1.445   0.256
76634W        W42114  23.514  42.357  11.089
76635W        W42115   3.413  28.087  11.592
76636W        W42116  25.165  44.472   5.099
76637W        W42117   7.296  42.790  11.606
76638W        W42118  12.308   0.400  13.835
76639W        W42119   4.806  30.464  10.158
76640W        W42120  43.401  12.291  10.996
76641W        W42121   6.745  37.469  14.338
76642W        W42122  43.425  17.276  11.601
76643W        W42123  25.032  19.123  11.016
76644W        W42124   1.760  42.946  14.788
76645W        W42125  43.016  10.842   0.282
76646W        W42126  16.213  18.082  14.760
76647W        W42127   0.321  27.489  12.483
76648W        W42128  39.456  32.005   9.931
76649W        W42129  17.713   9.259  14.317
76650W        W42130   0.932  10.204  14.776
76651W        W42131  34.973  13.829  13.996
76652W        W42132   0.474  23.027  11.506
76653W        W42133  24.600  42.990   3.279
76654W        W42134   1.260  24.214  11.879
76655W        W42135  10.149   8.377   0.391
76656W        W42136   8.211   2.823  11.443
76657W        W42137  32.623   7.415   1.233
76658W        W42138  33.091  39.530   9.923
76659W        W42139  22.589  41.414  13.525
76660W        W42140  37.903  33.072  13.875
76661W        W42141  29.117  22.617  13.473
76662W        W42142  30.948  27.540  14.305
76663W        W42143   0.467  11.242   0.889
76664W        W42144  21.533   9.726   4.306
76665W        W42145  33.019   8.263  14.932
76666W        W42146  28.681  42.001  12.026
76667W        W42147  41.513  15.682  13.539
76668W        W42148  29.970  34.065   2.873
76669W        W42149  42.361  37.546  14.849
76670W        W42150  35.871  14.603   4.825
76671W        W42151  44.916  18.252  11.549
76672W        W42152  18.638  29.976  11.108
76673W        W42153   7.865  44.820  13.887
76674W        W42154  44.818   2.724   0.389
76675W        W42155  10.209  31.421  14.829
76676W        W42156  22.041   7.750   3.356
76677W        W42157   3.931  43.878   4.633
76678W        W42158  10.256  17.200   3.804
76679W        W42159  41.941  43.915  14.793
76680W        W42160  38.502  22.611  14.346
76681W        W42161  41.953  34.433  12.443
76682W        W42162  39.397   9.394  12.485
76683W        W42163  34.061  12.157  11.118
76684W        W42164  43.803  31.464  13.370
76685W        W42165  16.679  16.645   1.751
76686W        W42166  19.723   2.227  11.511
76687W        W42167  18.095  27.464   4.672
76688W        W42168  22.227  44.985  12.858
76689W        W42169  36.975   5.820  10.561
76690W        W42170  36.446  42.974   1.894
76691W        W42171   7.851  21.617  10.956
76692W        W42172  34.103  26.068   0.898
76693W        W42173  43.513  13.681   0.903
76694W        W42174  36.395  27.963   1.317
76695W        W42175  21.530  25.514   1.843
76696W        W42176   1.400   1.767   1.747
76697W        W42177   2.412  39.987  11.019
76698W        W42178   4.739   3.250  12.058
76699W        W42179  38.559  28.606  11.487
76700W        W42180  22.094  17.740  13.365
76701W        W42181  21.660  37.440  13.431
76702W        W42182  17.678   0.870  12.421
76703W        W42183  43.291  22.555   2.670
76704W        W42184  24.631  22.747  13.412
76705W        W42185  20.611  29.015   1.907
76706W        W42186  42.956  44.293   3.182
76707W        W42187  17.067  26.646  14.967
76708W        W42188  17.255  15.140   3.740
76709W        W42189   1.794  44.804  10.410
76710W        W42190  22.586   6.227  11.404
76711W        W42191  33.517   2.957   1.905
76712W        W42192  33.994  33.111   2.391
76713W        W42193  34.096  36.349   4.640
76714W        W42194   1.445  26.481   1.702
76715W        W42195  11.369  30.494   1.257
76716W        W42196   8.809   6.845   0.905
76717W        W42197  26.988  21.657  11.026
76718W        W42198  15.822  28.159   2.297
76719W        W42199  33.908   9.252   4.663
76720W        W42200  44.996  22.049  12.076
76721W        W42201   6.370   5.708   3.368
76722W        W42202  24.724  41.998   2.856
76723W        W42203  17.664  17.710   2.191
76724W        W42204  44.421   7.762   3.834
76725W        W42205  42.889  17.275  13.491
76726W        W42206   5.755  27.636  14.886
76727W        W42207   3.823   8.245   0.864
76728W        W42208  39.535  26.989   0.370
76729W        W42209   7.843  30.580  13.792
76730W        W42210  16.688  38.838   1.366
76731W        W42211   6.840  37.491   4.737
76732W        W42212   0.951  23.213  10.899
76733W        W42213   2.855   3.460  12.933
76734W        W42214   3.823  29.038  11.547
76735W        W42215  29.427  15.791  11.859
76736W        W42216  10.877  34.424   0.872
76737W        W42217   4.713   9.324   5.274
76738W        W42218  18.152  25.078  13.966
76739W        W42219   5.890   1.970   4.695
76740W        W42220  28.124  40.375  11.609
76741W        W42221  40.053  20.701   4.125
76742W        W42222  25.590  28.161   4.293
76743W        W42223   7.891  36.532   3.271
76744W        W42224  11.684  41.991  13.435
76745W        W42225  31.137  33.547  11.431
76746W        W42226   1.935   6.233  14.365
76747W        W42227  28.651  25.660  11.540
76748W        W42228  20.061  13.729  10.448
76749W        W42229  19.174  11.807  11.124
76750W        W42230  29.924   2.897   3.201
76751W        W42231  26.630  38.433  14.376
76752W        W42232  31.546  26.958   3.769
76753W        W42233  22.997  14.300   1.333
76754W        W42234   4.331  44.862  13.389
76755W        W42235  43.896   9.337   1.714
76756W        W42236  21.259  26.599   3.334
76757W        W42237   3.422  28.584  12.456
76758W        W42238  32.505  37.431   2.336
76759W        W42239  14.303   5.856  11.900
76760W        W42240  41.026   0.435  14.503
76761W        W42241  32.608  15.613   0.968
76762W        W42242   6.765  26.539   4.296
76763W        W42243  25.967  12.820  14.328
76764W        W42244  35.030  23.233   2.301
76765W        W42245  31.445   0.442  11.083
76766W        W42246  20.649  15.217   1.300
76767W        W42247  24.639  13.121  10.947
76768W        W42248   3.939   4.414  13.354
76769W        W42249  43.363   8.660  12.576
76770W        W42250  29.631  15.613   4.352
76771W        W42251  19.560  41.975  11.601
76772W        W42252   4.248  23.705   4.292
76773W        W42253   2.789  41.397  14.956
76774W        W42254  27.499  10.157   2.885
76775W        W42255   6.208  31.926   5.240
76776W        W42256  19.625  22.136   2.876
76777W        W42257  34.989   4.754   3.630
76778W        W42258   8.271   4.831  10.988
76779W        W42259  24.717  40.530  11.059
76780W        W42260   6.241   1.258  11.584
76781W        W42261   9.330  20.603  11.409
76782W        W42262  24.082  35.434  13.464
76783W        W42263  39.863   5.907  14.973
76784W        W42264  10.319  31.972  13.433
76785W        W42265  17.736  22.110  12.871
76786W        W42266  15.691   9.874   0.259
76787W        W42267  43.507  39.556  14.878
76788W        W42268  32.075  14.753  10.524
76789W        W42269   5.757   4.305  13.959
76790W        W42270  14.741  41.438   2.825
76791W        W42271  13.667  14.245  14.022
76792W        W42272  29.096  41.329  10.985
76793W        W42273  20.108  17.263  13.840
76794W        W42274  29.954  29.637  12.025
76795W        W42275   4.235  22.523  12.045
76796W        W42276  34.960  44.775  13.388
76797W        W42277  44.967  37.469   4.177
76798W        W42278  28.166  20.523   1.211
76799W        W42279  33.901  22.089   4.182
76800W        W42280  24.170  29.087  13.350
76801W        W42281  24.973  10.278  14.896
76802W        W42282  10.710  32.570  11.427
76803W        W42283  20.661  23.197  12.027
76804W        W42284  11.833  29.139  14.317
76805W        W42285  40.403   3.898   1.221
76806W        W42286  26.142  33.605   2.740
76807W        W42287  20.579  36.877  10.416
76808W        W42288  42.483  36.377  14.474
76809W        W42289   1.950   8.841   3.241
76810W        W42290   9.380  25.184   0.261
76811W        W42291  12.819  17.592  13.995
76812W        W42292  15.580  11.302  11.968
76813W        W42293  39.408  26.527   1.865
76814W        W42294  33.556  11.328   1.704
76815W        W42295   8.305  13.152   0.380
76816W        W42296  24.557  31.070   0.320
76817W        W42297   9.713  28.063   3.660
76818W        W42298   5.843  43.430   4.115
76819W        W42299   0.953  33.599   0.789
76820W        W42300  44.771  11.199   1.342
76821W        W42301  35.601  10.748   2.245
76822W        W42302  30.577   5.194   4.636
76823W        W42303  39.345  43.886   2.775
76824W        W42304  11.160  40.925  14.434
76825W        W42305  40.357  26.474  14.321
76826W        W42306  36.034  25.542  10.926
76827W        W42307   1.973  21.719  12.445
76828W        W42308  18.139   8.242   1.703
76829W        W42309  33.054   8.826  11.105
76830W        W42310   1.872  15.597  14.841
76831W        W42311  38.515  44.269   1.913
76832W        W42312  18.180  37.534   2.209
76833W        W42313  41.858  32.027   0.763
76834W        W42314  25.545  34.509   2.211
76835W        W42315  35.868  25.468   4.217
76836W        W42316   5.889  41.838   1.887
76837W        W42317  30.988  21.043   1.344
76838W        W42318  13.307   0.382   2.680
76839W        W42319  29.983  26.489   2.323
76840W        W42320  28.967  28.014  13.861
76841W        W42321  29.476  41.848   3.160
76842W        W42322  20.600  20.239  10.432
76843W        W42323  32.463  36.032   1.345
76844W        W42324  21.262   9.742   3.381
76845W        W42325  37.949  35.021   0.420
76846W        W42326  25.114  42.982   2.786
76847W        W42327  24.681  34.533   3.257
76848W        W42328   0.765  36.909   4.151
76849W        W42329  33.591  32.104  10.553
76850W        W42330  35.456  27.111   2.387
76851W        W42331   8.724   7.217  12.414
76852W        W42332   2.472  36.844   3.177
76853W        W42333   8.845  21.590  11.110
76854W        W42334  39.928   9.191   2.389
76855W        W42335  28.559  36.989  13.791
76856W        W42336  19.668   8.366  13.480
76857W        W42337  22.732  10.757   4.806
76858W        W42338  23.671  28.025   2.373
76859W        W42339  34.477  38.068   4.835
76860W        W42340  29.051  28.489   3.247
76861W        W42341  19.262  15.274   4.719
76862W        W42342  20.262  23.562   4.787
76863W        W42343  22.072  44.328   3.181
76864W        W42344  15.791   3.829   4.119
76865W        W42345  26.066  42.375   2.184
76866W        W42346  14.771  11.660   4.636
76867W        W42347   3.356  31.068  14.458
76868W        W42348   1.266  43.937  12.052
76869W        W42349   2.851  23.217  11.958
76870W        W42350  25.103  42.522  12.839
76871W        W42351  28.052  34.490   1.308
76872W        W42352  43.275   1.407   0.857
76873W        W42353   4.715  24.696  12.960
76874W        W42354  25.620  31.978  10.602
76875W        W42355   8.846  30.114  11.002
76876W        W42356  22.619   0.798   4.658
76877W        W42357  11.247  10.709  11.494
76878W        W42358  41.999   3.245   2.705
76879W        W42359  17.204  23.661   0.453
76880W        W42360  39.947   9.720   0.923
76881W        W42361  37.906  30.633   2.826
76882W        W42362  40.847   7.289   0.922
76883W        W42363  35.065  14.784  14.284
76884W        W42364  40.409   1.825   4.669
76885W        W42365  36.918  37.576   0.770
76886W        W42366  17.563  30.023  12.838
76887W        W42367   9.277  37.052  14.501
76888W        W42368  38.449  40.331   2.340
76889W        W42369  26.645  35.531   1.307
76890W        W42370   4.282   4.765   1.760
76891W        W42371  29.007   6.208   1.849
76892W        W42372  26.089  11.323  12.046
76893W        W42373   8.674  38.937   2.392
76894W        W42374  10.793  22.245  11.981
76895W        W42375   7.291   9.228   1.764
76896W        W42376   6.730   7.263  10.985
76897W        W42377  23.116  40.357  11.373
76898W        W42378  35.469   4.379   2.246
76899W        W42379  42.888  41.342  12.962
76900W        W42380  40.040  32.471   0.831
76901W        W42381  32.560  43.510   1.723
76902W        W42382  22.028  41.479  14.348
76903W        W42383  24.690  25.552   2.358
76904W        W42384  34.388  30.156  14.369
76905W        W42385  17.619  16.136   0.735
76906W        W42386  12.798  35.534  12.028
76907W        W42387  31.076  25.020   0.808
76908W        W42388  36.415  18.121   1.436
76909W        W42389  44.326   4.750  12.041
76910W        W42390  43.990  35.051  14.498
76911W        W42391  19.740  23.727  11.997
76912W        W42392   2.331  39.430  11.443
76913W        W42393  40.327  12.655   0.461
76914W        W42394  37.367  25.701   2.377
76915W        W42395  18.568   6.745  12.474
76916W        W42396   7.348  43.338   0.836
76917W        W42397  28.116   2.873  12.382
76918W        W42398   1.452  24.143  14.905
76919W        W42399   0.333   7.365  14.486
76920W        W42400  24.167  43.283  14.312
76921W        W42401  32.073  42.809   0.462
76922W        W42402  38.485  31.007  11.405
76923W        W42403  25.669  11.655  14.801
76924W        W42404  33.978   1.818  13.445
76925W        W42405  25.137  26.963  10.888
76926W        W42406  21.255   9.175  11.924
76927W        W42407  28.186  24.717   0.278
76928W        W42408  21.757  18.271   4.611
76929W        W42409  16.270  13.799  11.589
76930W        W42410   5.766  15.705  14.364
76931W        W42411  43.973   7.274  11.042
76932W        W42412  43.509  14.143   4.623
76933W        W42413   6.342  18.629  12.403
76934W        W42414  41.388  39.409  10.499
76935W        W42415  27.532  29.082  14.995
76936W        W42416  30.024  32.053  10.526
76937W        W42417  33.982   0.492   3.719
76938W        W42418   2.450  16.292  10.414
76939W        W42419   1.253  27.084  11.422
76940W        W42420  13.733  37.568   0.441
76941W        W42421  37.557   9.854  11.989
76942W        W42422  40.503   2.262  12.422
76943W        W42423   9.806   4.211   1.874
76944W        W42424  22.051  30.933  14.409
76945W        W42425  11.649  16.163   3.198
76946W        W42426  14.162  28.577   1.847
76947W        W42427  23.697  26.981   1.747
76948W        W42428   3.833  30.157  14.480
76949W        W42429  28.174  39.401   1.877
76950W        W42430   9.653  12.141   3.662
76951W        W42431  43.403   0.769  14.812
76952W        W42432  18.679  44.349   3.786
76953W        W42433   0.393  39.362   1.792
76954W        W42434   1.455  27.949  14.889
76955W        W42435  27.991  42.984   1.695
76956W        W42436   6.694  43.014   3.728
76957W        W42437  36.991  29.014  14.810
76958W        W42438  39.411  12.209  13.060
76959W        W42439  16.637  42.422   2.810
76960W        W42440  27.059   3.905  11.948
76961W        W42441  18.578  22.205  12.573
76962W        W42442  39.415  37.443   2.747
76963W        W42443   7.335   1.325   1.809
76964W        W42444  42.825  33.587   1.901
76965W        W42445  40.000  41.467   0.443
76966W        W42446  11.132  11.275  11.434
76967W        W42447  32.501  39.502   2.809
76968W        W42448   7.310   3.908   3.637
76969W        W42449  17.602  34.881  10.087
76970W        W42450  22.700   8.700  12.903
76971W        W42451  43.905   7.734   0.757
76972W        W42452  22.707  17.087  13.526
76973W        W42453  29.975   0.287   2.373
76974W        W42454  37.832  30.126  13.968
76975W        W42455   7.728   3.898   2.714
76976W        W42456  42.937  38.357  11.488
76977W        W42457  29.061  19.542   5.284
76978W        W42458  40.471   3.379   2.878
76979W        W42459  10.202  20.220  10.436
76980W        W42460  31.644  17.685  11.570
76981W        W42461  17.173  11.745   2.764
76982W        W42462  25.988  33.586  11.582
76983W        W42463  21.046   0.248  10.026
76984W        W42464   9.877  42.916   4.129
76985W        W42465  18.758   8.400   4.344
76986W        W42466  12.343  21.110  11.448
76987W        W42467   0.785   6.838   3.787
76988W        W42468  41.505  26.152   0.863
76989W        W42469  37.348   5.218   4.740
76990W        W42470  41.352  29.452   4.684
76991W        W42471  11.265  20.249   4.743
76992W        W42472  44.820  35.373  11.391
76993W        W42473  26.045   5.233  11.508
76994W        W42474   1.260  34.899  12.879
76995W        W42475  36.993  40.910  14.480
76996W        W42476   7.844  44.971   3.317
76997W        W42477  38.937  31.451   2.846
76998W        W42478   2.773  27.518  10.979
76999W        W42479  19.745  41.458   0.405
77000W        W42480  12.259  25.203  10.540
77001W        W42481  39.887  35.923   1.244
77002W        W42482  23.725  28.494  14.475
77003W        W42483  20.150  18.787  13.873
77004W        W42484  23.057   4.702  11.127
77005W        W42485  11.834  17.598   0.307
77006W        W42486  18.620  11.835   2.694
77007W        W42487  14.784   5.841  14.809
77008W        W42488  36.492  10.690  13.054
77009W        W42489   3.374   0.380   1.366
77010W        W42490  42.829   2.959   3.301
77011W        W42491  22.247  29.536  11.462
77012W        W42492  44.803  33.938  13.462
77013W        W42493  18.781   6.186  11.509
77014W        W42494  41.393  40.333   0.866
77015W        W42495  38.438   5.368   1.918
77016W        W42496  21.664  42.462  11.913
77017W        W42497  30.643  25.619  14.829
77018W        W42498  31.146  15.788  10.473
77019W        W42499  18.576  32.067   1.871
77020W        W42500  44.483  14.150  11.481
77021W        W42501  19.679   8.891  11.528
77022W        W42502   5.848  28.537  14.278
77023W        W42503  21.729  32.071   2.238
77024W        W42504  30.467  40.423   3.738
77025W        W42505  19.183  19.533  13.409
77026W        W42506  21.540  20.238   1.249
77027W        W42507  14.774  38.445  13.323
77028W        W42508   1.897   9.236   0.826
77029W        W42509   1.352   8.397   3.375
77030W        W42510  23.088  27.060  12.501
77031W        W42511   6.348   6.184   2.366
77032W        W42512  12.625  10.676   1.319
77033W        W42513  29.000  36.960   3.377
77034W        W42514  42.406  33.486   2.272
77035W        W42515   9.882  18.633  10.993
77036W        W42516  38.047   3.246   4.762
77037W        W42517  16.581  34.009  12.052
77038W        W42518  40.380  16.654  10.934
77039W        W42519  40.317  41.381  10.110
77040W        W42520  36.547  28.007   2.900
77041W        W42521   3.335  14.752   1.429
77042W        W42522  10.717  44.757  13.503
77043W        W42523  26.193  14.327  12.942
77044W        W42524  31.107  33.483   4.741
77045W        W42525  43.950  26.073   0.847
77046W        W42526  31.968  27.032   0.823
77047W        W42527  23.215  27.098  14.941
77048W        W42528  15.117  40.896   2.702
77049W        W42529  42.997  37.963   1.308
77050W        W42530  24.612  16.155  14.438
77051W        W42531  39.423  24.691   4.621
77052W        W42532   8.270  31.464  11.444
77053W        W42533   3.774  31.921   3.651
77054W        W42534  42.957  28.955   1.846
77055W        W42535   9.662   0.831  13.852
77056W        W42536  40.005  22.996  12.978
77057W        W42537  18.783  31.640  14.947
77058W        W42538  24.065  23.565  13.975
77059W        W42539  32.542  11.218  13.795
77060W        W42540  37.560   6.405   3.343
77061W        W42541   5.413   6.916  13.887
77062W        W42542   4.252  22.153   2.389
77063W        W42543  41.317  25.563   2.747
77064W        W42544  31.496  43.788  11.087
77065W        W42545  31.072  40.824   2.679
77066W        W42546  33.494  34.413  10.613
77067W        W42547  22.685   1.859   2.716
77068W        W42548  31.551  31.588   3.247
77069W        W42549  33.948  25.196   2.216
77070W        W42550   6.406  29.170  10.465
77071W        W42551   6.253   3.430  13.964
77072W        W42552  42.422  16.171  14.302
77073W        W42553  10.697  20.054  10.604
77074W        W42554  31.154   9.383  14.927
77075W        W42555  42.878  17.692   3.824
77076W        W42556  12.202  28.087   4.277
77077W        W42557  22.208  15.744   0.956
77078W        W42558  20.044  14.270  14.907
77079W        W42559  42.893  27.010  13.341
77080W        W42560   1.866  13.264  11.920
77081W        W42561  35.457  41.325  14.484
77082W        W42562  12.239  19.054   0.426
77083W        W42563  27.023  31.911  13.810
77084W        W42564  40.428  39.962   1.721
77085W        W42565  15.155  43.393  12.507
77086W        W42566  35.438  18.090  14.891
77087W        W42567  23.044  40.841   2.872
77088W        W42568  17.215  21.708  12.984
77089W        W42569  25.156  37.843  10.466
77090W        W42570  23.024  38.021  14.497
77091W        W42571  20.262  29.087  11.041
77092W        W42572  23.118  18.610  10.433
77093W        W42573   4.357  33.875  10.415
77094W        W42574  20.588  16.278   1.766
77095W        W42575   7.675  28.160  12.908
77096W        W42576  35.935  19.699  13.323
77097W        W42577  32.116  41.481  14.331
77098W        W42578  29.054  40.994  13.048
77099W        W42579  40.328   2.859   4.639
77100W        W42580  20.042  22.046   4.834
77101W        W42581  33.915  15.746   1.892
77102W        W42582  38.393   6.922  10.584
77103W        W42583  38.542   6.783   2.858
77104W        W42584   4.212  12.131  11.460
77105W        W42585  26.108  15.091   2.738
77106W        W42586  15.296  18.753  11.534
77107W        W42587  42.499  27.161   4.114
77108W        W42588   7.709  21.228  10.106
77109W        W42589  44.937  29.497  14.506
77110W        W42590  33.016  44.437  13.821
77111W        W42591  31.066  28.121  14.288
77112W        W42592  14.307   1.389   3.794
77113W        W42593   1.840  25.672  11.926
77114W        W42594   0.834  20.109  14.809
77115W        W42595  41.901  36.500  11.971
77116W        W42596  29.643  14.710  14.513
77117W        W42597  31.982   0.459  14.448
77118W        W42598  26.073  18.262  14.776
77119W        W42599  27.975  36.031  14.917
77120W        W42600   9.154  43.333  13.916
77121W        W42601  36.419   7.172  12.023
77122W        W42602   7.242  16.101   1.449
77123W        W42603  42.428  39.417   3.825
77124W        W42604  36.483  26.062  12.876
77125W        W42605  30.501   5.356  12.953
77126W        W42606   1.354  41.295   0.330
77127W        W42607  40.001   7.779   4.317
77128W        W42608   3.339  34.437   4.193
77129W        W42609  44.996  26.195   3.227
77130W        W42610   2.724  36.362   3.765
77131W        W42611  27.686  38.855  10.950
77132W        W42612  26.582  19.754  12.360
77133W        W42613   3.313  29.962  11.966
77134W        W42614  32.554  13.718   4.688
77135W        W42615  28.177  20.708  11.977
77136W        W42616  14.823   7.753  12.399
77137W        W42617   4.732  12.159   0.759
77138W        W42618   6.914  17.303   4.199
77139W        W42619  38.496   0.262  13.797
77140W        W42620   2.379  22.537  13.436
77141W        W42621  32.006  14.785   3.814
77142W        W42622  38.899  30.987   1.222
77143W        W42623   9.819  17.261  11.482
77144W        W42624  13.282  23.109  14.509
77145W        W42625  35.091  11.687  12.512
77146W        W42626  18.573  19.203  14.497
77147W        W42627  35.563  26.536  11.999
77148W        W42628  20.728  35.434   1.448
77149W        W42629  27.485  25.478  14.282
77150W        W42630  42.936  40.322  12.539
77151W        W42631  20.676  11.257   0.386
77152W        W42632  20.631   4.784  10.632
77153W        W42633  30.947  11.306  10.606
77154W        W42634  35.092  27.672   3.746
77155W        W42635  38.962   9.659  14.418
77156W        W42636  39.004   0.394  14.355
77157W        W42637  38.874  40.988  14.419
77158W        W42638  41.471  39.404   2.847
77159W        W42639   8.699  29.152   1.325
77160W        W42640   6.300  32.120  12.405
77161W        W42641   8.211  32.520   0.842
77162W        W42642   1.797  39.820  14.032
77163W        W42643  14.600   2.422   2.361
77164W        W42644  32.087  20.649   0.745
77165W        W42645  18.295   8.772  14.849
77166W        W42646   6.234  20.656   3.639
77167W        W42647   4.942  28.660  11.899
77168W        W42648  26.555  30.539   2.281
77169W        W42649  20.100  23.005  13.364
77170W        W42650  22.502  17.759  11.974
77171W        W42651  27.557  19.780  13.958
77172W        W42652  32.456  33.403  12.920
77173W        W42653   4.444  21.629   0.451
77174W        W42654  33.487  22.600  14.357
77175W        W42655  16.745  32.948  11.078
77176W        W42656  34.412  23.145  13.339
77177W        W42657  22.705  32.985  11.009
77178W        W42658   2.327  25.120  11.921
77179W        W42659  40.405   4.266   1.440
77180W        W42660  12.344  26.021  14.449
77181W        W42661  32.552  43.985   0.903
77182W        W42662  17.647  18.053   3.683
77183W        W42663  27.497   0.416   0.752
77184W        W42664   1.238  21.083   2.841
77185W        W42665  14.741  43.945   1.846
77186W        W42666  23.020  31.985  14.763
77187W        W42667  16.160  42.419   0.780
77188W        W42668  44.805  43.512   3.314
77189W        W42669  27.027  11.294  10.931
77190W        W42670  26.088  38.517   1.228
77191W        W42671  35.954  22.125  13.063
77192W        W42672  39.495   2.732  14.466
77193W        W42673   2.395  25.565  12.526
77194W        W42674  29.624  15.161  12.895
77195W        W42675  36.863  31.075  11.100
77196W        W42676  43.416  15.713   5.204
77197W        W42677   7.826  33.511   3.227
77198W        W42678  40.316  44.382  13.380
77199W        W42679   3.424  23.221   1.351
77200W        W42680   2.377  31.538   1.360
77201W        W42681  28.001  34.450  12.827
77202W        W42682  11.185  16.126   4.803
77203W        W42683  24.576  21.210  13.885
77204W        W42684  13.641  31.503  11.589
77205W        W42685  35.068  30.910   0.848
77206W        W42686  34.877  25.520   4.267
77207W        W42687   7.895  19.190  12.970
77208W        W42688  18.782  14.325   1.285
77209W        W42689  21.567  19.243   4.285
77210W        W42690  44.005  10.707   4.150
77211W        W42691  22.072  17.744  10.897
77212W        W42692  21.533  32.124  10.576
77213W        W42693  26.616  18.286  11.497
77214W        W42694  15.200  19.657  10.618
77215W        W42695  32.567  29.948   3.295
77216W        W42696   3.835   4.279   0.384
77217W        W42697  15.806  16.599  12.955
77218W        W42698  44.265  16.801  11.436
77219W        W42699  33.037   5.776  14.856
77220W        W42700  25.702  36.476  13.537
77221W        W42701  14.211   0.879   4.680
77222W        W42702  25.090   0.955   5.196
77223W        W42703  26.202   3.383  14.873
77224W        W42704  42.317   5.209  12.925
77225W        W42705   2.942  22.683   2.256
77226W        W42706  27.565  32.023  14.976
77227W        W42707   6.838  33.532   0.840
77228W        W42708   3.238  15.141   2.717
77229W        W42709  41.439  31.512  14.901
77230W        W42710  35.088  20.743  13.491
77231W        W42711  19.671  40.382   3.675
77232W        W42712   8.883   7.350   3.786
77233W        W42713   1.394   9.692  14.468
77234W        W42714  44.311  44.780   1.430
77235W        W42715  29.038  38.033  13.541
77236W        W42716  38.933  38.875   5.217
77237W        W42717  38.033  15.145   4.278
77238W        W42718   6.688  12.277  15.000
77239W        W42719  13.341  20.195   0.967
77240W        W42720  40.030   6.777   4.752
77241W        W42721  21.070  36.919   4.331
77242W        W42722  28.025  35.516  12.884
77243W        W42723   7.373  28.003   1.830
77244W        W42724  19.215  38.431  13.332
77245W        W42725  18.726   4.778  14.961
77246W        W42726  15.699  22.235  13.423
77247W        W42727  29.174   2.746   2.714
77248W        W42728  42.802   1.805   1.299
77249W        W42729  41.464  14.310   2.889
77250W        W42730  26.518  20.652   2.695
77251W        W42731  41.507   3.387   0.749
77252W        W42732  30.540  12.772  11.057
77253W        W42733  15.705  27.478   3.279
77254W        W42734  16.096   4.325  14.777
77255W        W42735  43.504   9.773   2.353
77256W        W42736  18.080  35.471   3.277
77257W        W42737  17.604   4.750  10.099
77258W        W42738  12.237   1.286   0.372
77259W        W42739  29.073  39.898   0.368
77260W        W42740   6.746  16.297   0.937
77261W        W42741   6.787  18.775  10.929
77262W        W42742   6.906  30.027  14.763
77263W        W42743  40.010  44.331   3.807
77264W        W42744  23.590  12.347   4.778
77265W        W42745  43.943  35.907   3.695
77266W        W42746  24.181   8.336  13.308
77267W        W42747   3.280   7.863   3.647
77268W        W42748  37.461  26.703  13.895
77269W        W42749  23.018  11.846  10.578
77270W        W42750  30.567  23.166   4.129
77271W        W42751  16.709  41.312  12.362
77272W        W42752  29.135  13.682   0.871
77273W        W42753  24.022  30.549  13.029
77274W        W42754  37.355  43.876   4.730
77275W        W42755  33.445   1.442   1.450
77276W        W42756  28.512  37.448  14.955
77277W        W42757  12.243   8.861   3.858
77278W        W42758  23.709  15.657  11.891
77279W        W42759  43.898   8.825   0.832
77280W        W42760  43.830  41.520  12.576
77281W        W42761  40.496  10.681   3.173
77282W        W42762  35.900  16.245  11.465
77283W        W42763   1.361  16.753  12.058
77284W        W42764  36.582  41.033  11.403
77285W        W42765  37.394  17.568   0.799
77286W        W42766  43.381  19.267   3.660
77287W        W42767  16.253   9.801   4.716
77288W        W42768  14.731  41.493   1.351
77289W        W42769  40.390   7.404  11.967
77290W        W42770  19.212  44.365  13.393
77291W        W42771  26.676   2.426   1.883
77292W        W42772  15.281  25.087   0.826
77293W        W42773  17.658  19.042  14.421
77294W        W42774  25.195  38.965  11.391
77295W        W42775  42.775  37.939  14.854
77296W        W42776  42.344  20.218   0.363
77297W        W42777  17.175   0.746  12.344
77298W        W42778  22.131  12.323  13.493
77299W        W42779  22.746  22.740  10.576
77300W        W42780   0.346  19.272  13.886
77301W        W42781  17.565  30.642  14.509
77302W        W42782   8.352  39.964  11.012
77303W        W42783  24.571   3.409  14.813
77304W        W42784  11.658  34.921   4.171
77305W        W42785  29.074   8.832   3.641
77306W        W42786   8.184  26.157   0.318
77307W        W42787  12.827  42.861  12.552
77308W        W42788  12.665  23.011  11.426
77309W        W42789   6.781  34.987   2.842
77310W        W42790  21.581  22.597   4.274
77311W        W42791  13.227  32.595   2.871
77312W        W42792  17.111  40.829  11.561
77313W        W42793  40.919  19.603   4.723
77314W        W42794   7.869   1.478  10.553
77315W        W42795  18.273  23.091  12.010
77316W        W42796  14.273  38.524  12.546
77317W        W42797  17.608  25.077   1.406
77318W        W42798  10.672   3.946   0.472
77319W        W42799  21.520  10.185  14.884
77320W        W42800  23.665  18.660   0.457
77321W        W42801  39.417  42.777   9.981
77322W        W42802  35.573  20.234   2.371
77323W        W42803  35.986  34.090   2.725
77324W        W42804  25.598  32.076   4.114
77325W        W42805  44.865  27.663  11.920
77326W        W42806  36.552  36.920   2.408
77327W        W42807   3.310  13.181   3.172
77328W        W42808  16.126  30.947  13.983
77329W        W42809  38.023  36.910  13.419
77330W        W42810  35.899  17.774   2.194
77331W        W42811  15.278  19.213  12.536
77332W        W42812  12.780   0.318   2.834
77333W        W42813  40.332  42.494   3.207
77334W        W42814   0.432  27.184  13.467
77335W        W42815  28.148  32.897   0.763
77336W        W42816  12.654   5.283  12.989
77337W        W42817   4.821  36.014  14.430
77338W        W42818  35.030  33.568   2.847
77339W        W42819  10.184  14.150   2.308
77340W        W42820  44.938   8.301  11.858
77341W        W42821   0.316  40.043   2.800
77342W        W42822  36.477  28.184  11.468
77343W        W42823   8.671   9.162  13.994
77344W        W42824  27.603   4.871  10.542
77345W        W42825  17.114   4.922   1.353
77346W        W42826  20.043  15.710  11.476
77347W        W42827  17.084  32.512  13.366
77348W        W42828  16.103   0.908   0.924
77349W        W42829  10.180  17.601   4.196
77350W        W42830  36.922  29.022   1.350
77351W        W42831  34.597  35.510   4.713
77352W        W42832  38.535  38.451  11.582
77353W        W42833  18.726  15.683  11.037
77354W        W42834  31.519  12.147  11.905
77355W        W42835  22.708   7.743   3.632
77356W        W42836   8.747  19.605   0.846
77357W        W42837  38.962  19.190  11.975
77358W        W42838   5.754  22.708   0.948
77359W        W42839   7.186  31.645  13.330
77360W        W42840   7.177  36.886  14.832
77361W        W42841  14.326  28.584  11.470
77362W        W42842  13.187  19.118   4.624
77363W        W42843  22.089   8.677   2.328
77364W        W42844   9.816  26.460  12.019
77365W        W42845  26.522   3.459   0.743
77366W        W42846   7.321  20.762  12.495
77367W        W42847  11.155  38.349   0.935
77368W        W42848  27.994  29.945  10.623
77369W        W42849  33.578  18.265  10.161
77370W        W42850  10.860  40.518  12.410
77371W        W42851  39.412   4.933  12.426
77372W        W42852  25.033   9.787   2.215
77373W        W42853   4.935  13.329   4.194
77374W        W42854  28.485  10.285  11.081
77375W        W42855   3.781  10.291   2.239
77376W        W42856  24.527  30.955  11.529
77377W        W42857   1.759  31.049  13.450
77378W        W42858   6.740  23.562   3.815
77379W        W42859  27.653  27.670  13.350
77380W        W42860  43.796  28.517  11.499
77381W        W42861   2.788  32.539  12.364
77382W        W42862  26.492  44.295  11.037
77383W        W42863  39.917  17.692  11.551
77384W        W42864  43.908   2.461  12.838
77385W        W42865  33.082  41.449  12.842
77386W        W42866  17.220  41.789  11.562
77387W        W42867  18.221  23.077  10.510
77388W        W42868  33.395   5.784  10.108
77389W        W42869  29.079  27.102   4.751
77390W        W42870  43.832   4.908  13.329
77391W        W42871  15.586  18.588   4.169
77392W        W42872  34.398  11.230  11.100
77393W        W42873  30.418  37.469   2.256
77394W        W42874  19.122  42.474  13.852
77395W        W42875  34.061  24.627   1.827
77396W        W42876  10.172  40.414  12.014
77397W        W42877  22.022  37.059   2.285
77398W        W42878  11.640   0.914  14.765
77399W        W42879  38.931  38.020   0.802
77400W        W42880  29.604  35.475  10.913
77401W        W42881  37.474   4.790  13.824
77402W        W42882   0.482  43.287   3.791
77403W        W42883   4.761  10.346  11.459
77404W        W42884  32.516  14.115   3.219
77405W        W42885  32.575  14.135   2.310
77406W        W42886  43.868   1.857   2.383
77407W        W42887  10.232  35.101  11.993
77408W        W42888  27.585  16.606  12.573
77409W        W42889  12.736  22.727  12.468
77410W        W42890  31.150  10.825  14.950
77411W        W42891  43.806  16.728  12.389
77412W        W42892   0.367  40.465   1.288
77413W        W42893  38.944  38.826  11.560
77414W        W42894  20.270  32.518   3.706
77415W        W42895   2.841  14.831   4.834
77416W        W42896  24.593  43.310  14.013
77417W        W42897  34.553  35.997   3.159
77418W        W42898  21.171  18.674  12.551
77419W        W42899  34.594  44.277  13.924
77420W        W42900   0.836  13.132  11.475
77421W        W42901  14.315  21.688  12.938
77422W        W42902   5.314   5.353  10.634
77423W        W42903  17.637   5.905   2.398
77424W        W42904  41.933  28.965   0.959
77425W        W42905  12.149  22.689   2.389
77426W        W42906  42.387   4.337   0.278
77427W        W42907  11.285  28.969  12.573
77428W        W42908  43.339  17.281  10.903
77429W        W42909  15.713  34.545  12.895
77430W        W42910   6.281  42.851   2.758
77431W        W42911  36.348   2.922  14.441
77432W        W42912   2.768  39.439  13.327
77433W        W42913  27.448  14.128  13.376
77434W        W42914  13.134  11.333  14.764
77435W        W42915  31.538  30.090   1.771
77436W        W42916  43.282  15.695  14.023
77437W        W42917  44.349   6.208   1.781
77438W        W42918  40.356   0.252   4.618
77439W        W42919  36.963  21.136  12.025
77440W        W42920   8.784  36.897  10.974
77441W        W42921  44.758   3.394  11.863
77442W        W42922   0.280   7.211  11.929
77443W        W42923  44.291  10.353   0.417
77444W        W42924  30.121  20.037   1.719
77445W        W42925  42.919  43.349  14.418
77446W        W42926  15.595   2.264  11.059
77447W        W42927  40.526  44.874   2.204
77448W        W42928  15.323  21.731   2.357
77449W        W42929  28.955  39.905  12.062
77450W        W42930  24.165  14.768   4.153
77451W        W42931  23.581  41.837   0.943
77452W        W42932  32.046  44.325  11.976
77453W        W42933   4.221  25.706   2.316
77454W        W42934   9.708  39.403  10.981
77455W        W42935  25.519  18.573   4.715
77456W        W42936  32.041  20.133   1.280
77457W        W42937   2.345  25.977   0.946
77458W        W42938  24.566  26.131  11.971
77459W        W42939  35.074   7.325  13.517
77460W        W42940  35.085   7.273  11.501
77461W        W42941  38.439  10.233  11.520
77462W        W42942  37.050   6.815  14.972
77463W        W42943   3.437  11.129   3.728
77464W        W42944  24.230  40.973  12.547
77465W        W42945  10.846  23.624   3.796
77466W        W42946  25.969  22.747  10.534
77467W        W42947  41.027  14.205   1.923
77468W        W42948   9.863  37.368  13.063
77469W        W42949  29.969  23.189  13.330
77470W        W42950  11.759   6.767  14.907
77471W        W42951   9.790   8.366   4.345
77472W        W42952  33.938  39.381   1.386
77473W        W42953  18.697  35.360   1.729
77474W        W42954   0.437  39.348   3.751
77475W        W42955  24.190   7.183  14.782
77476W        W42956   3.940  31.571  12.954
77477W        W42957   9.716  29.473  12.002
77478W        W42958  23.574   7.255  14.464
77479W        W42959   3.760  24.677  14.779
77480W        W42960   7.764  35.431   3.831
77481W        W42961  43.983   1.794  13.435
77482W        W42962  19.076   9.191  13.045
77483W        W42963  31.417  20.675   0.481
77484W        W42964  11.831  24.491   0.435
77485W        W42965   7.865  33.432  11.939
77486W        W42966  44.771  22.635   2.385
77487W        W42967   5.885   8.784  12.095
77488W        W42968  26.603  33.953   2.667
77489W        W42969   5.282  27.570  13.326
77490W        W42970  20.758  38.942   3.207
77491W        W42971   0.839  42.866   3.819
77492W        W42972  17.721  23.168   0.756
77493W        W42973   4.939   6.376  11.905
77494W        W42974  20.108  29.479   3.180
77495W        W42975  36.427  44.858  14.891
77496W        W42976   3.406  36.972   3.634
77497W        W42977  43.367  44.944   1.914
77498W        W42978  14.607  23.029   2.329
77499W        W42979   0.364  10.367   4.171
77500W        W42980   2.946  12.624  12.558
77501W        W42981  38.867  38.923  12.552
77502W        W42982  44.868  30.443   2.307
77503W        W42983  35.885  26.698   2.270
77504W        W42984  22.202  36.083  14.461
77505W        W42985  30.519  43.876  12.344
77506W        W42986  35.543  14.148  10.626
77507W        W42987  12.175  29.118   0.380
77508W        W42988  29.466  17.626   0.898
77509W        W42989  15.749   4.366   4.326
77510W        W42990  36.052  23.038  13.054
77511W        W42991  35.047  33.922   2.727
77512W        W42992  11.731   2.735  12.477
77513W        W42993  18.186  21.199   3.838
77514W        W42994  17.778   9.184   4.760
77515W        W42995  33.496  15.111  11.591
77516W        W42996  12.693  33.994  12.525
77517W        W42997  24.089  36.877  11.550
77518W        W42998  39.329  33.120  11.455
77519W        W42999  25.972   0.292   4.830
77520W        W43000  27.485  35.940  11.606
77521W        W43001  26.583  16.755  10.601
77522W        W43002   5.322  13.800  14.900
77523W        W43003  31.903  31.555  12.892
77524W        W43004  34.558   9.829   1.886
77525W        W43005  21.020  15.097   2.403
77526W        W43006   9.793   2.877  14.946
77527W        W43007  14.169   4.938   1.317
77528W        W43008  39.839  19.590   2.769
77529W        W43009  22.174   2.860  11.464
77530W        W43010  22.249   1.949  11.057
77531W        W43011  24.047  19.069  13.028
77532W        W43012  33.569  14.719  14.343
77533W        W43013  16.229  35.450   5.260
77534W        W43014  44.457  41.035   5.194
77535W        W43015  11.280  33.482   1.371
77536W        W43016  38.558  31.426  13.827
77537W        W43017   4.913  43.940  13.973
77538W        W43018  30.940  36.455  12.001
77539W        W43019   0.468  37.877  11.116
77540W        W43020   8.330  29.633  11.976
77541W        W43021   4.351   0.319  13.912
77542W        W43022   0.871  12.667  10.438
77543W        W43023  37.890  41.037   2.884
77544W        W43024  23.541  30.967  13.047
77545W        W43025  14.312   8.784   2.751
77546W        W43026  27.487  38.003   0.757
77547W        W43027  14.619   6.811  13.009
77548W        W43028  21.649  40.006  10.481
77549W        W43029  12.179  36.026  13.380
77550W        W43030   7.788  44.491  13.369
77551W        W43031  14.593  12.668  12.930
77552W        W43032  12.841   1.866  13.447
77553W        W43033  20.184  19.245  11.584
77554W        W43034  29.652  29.025  12.465
77555W        W43035  39.521  34.532  10.429
77556W        W43036  41.010  41.960  13.992
77557W        W43037  26.998  26.074   0.876
77558W        W43038  11.714  13.675  13.962
77559W        W43039   9.710  42.798   0.291
77560W        W43040  25.657   4.444   4.155
77561W        W43041   6.189  35.499  11.604
77562W        W43042  15.748   7.261   2.349
77563W        W43043  16.206  40.439  11.488
77564W        W43044  10.803  40.327   4.832
77565W        W43045  37.568  44.937   3.339
77566W        W43046   8.670  25.559   3.654
77567W        W43047  24.721  13.655   1.824
77568W        W43048  42.819   8.746  11.931
77569W        W43049   1.891  33.991  14.768
77570W        W43050   1.918   8.724  13.007
77571W        W43051  24.650   0.359   0.262
77572W        W43052   4.820  27.190   1.303
77573W        W43053  36.550  36.401  14.389
77574W        W43054  12.703   6.296   0.751
77575W        W43055  23.984  32.452   1.880
77576W        W43056   9.371   8.841  13.338
77577W        W43057  25.504  26.620  14.850
77578W        W43058  26.063  18.758   1.809
77579W        W43059  39.400  12.351   4.227
77580W        W43060  13.772   1.859   3.758
77581W        W43061  24.147   1.262  10.477
77582W        W43062   7.824  35.908  13.526
77583W        W43063  29.981   7.700   1.313
77584W        W43064  24.134  14.596  11.037
77585W        W43065  18.598  28.648   0.388
77586W        W43066  15.294  25.525   4.741
77587W        W43067   9.376  18.065  12.460
77588W        W43068  40.449  18.721   1.840
77589W        W43069   1.373  27.518   0.847
77590W        W43070   6.717  11.209  13.022
77591W        W43071   5.694   8.230  13.350
77592W        W43072   6.386  15.322   3.809
77593W        W43073   0.923   3.242   2.765
77594W        W43074   5.281  19.743  11.425
77595W        W43075   3.835   6.739   3.709
77596W        W43076  43.766  39.033   2.827
77597W        W43077  19.211  34.006  13.879
77598W        W43078  13.270  27.091  12.923
77599W        W43079  30.949  43.800  11.445
77600W        W43080  32.424  20.059  11.936
77601W        W43081  19.696  10.640   4.316
77602W        W43082  14.632  37.930   0.880
77603W        W43083  12.358  26.625   0.957
77604W        W43084  27.174  11.846  13.931
77605W        W43085  14.715   4.278   3.154
77606W        W43086   0.450  11.845   1.447
77607W        W43087  21.641  17.188  10.584
77608W        W43088  39.413  11.729   0.274
77609W        W43089   8.401  41.942  11.977
77610W        W43090  13.347  25.659  13.898
77611W        W43091  32.633  17.558   4.758
77612W        W43092  31.112  28.677   2.183
77613W        W43093   4.829   6.242   0.953
77614W        W43094  14.192  39.964   9.969
77615W        W43095  25.583  14.199  14.988
77616W        W43096  35.547   6.186   4.297
77617W        W43097  16.239  19.711  13.516
77618W        W43098  40.845  34.083   3.159
77619W        W43099   8.784  10.791   0.858
77620W        W43100  38.478  41.873  14.948
77621W        W43101  26.459  35.441   2.317
77622W        W43102   5.369  35.409   0.912
77623W        W43103  36.877  19.738   0.296
77624W        W43104  30.160   4.347  14.972
77625W        W43105  10.208  12.748   1.765
77626W        W43106  26.485  16.630   2.277
77627W        W43107  31.136  32.892   2.880
77628W        W43108  28.609  40.323  14.010
77629W        W43109  36.946  25.014  11.870
77630W        W43110   3.337   1.921  11.419
77631W        W43111  37.380  22.124   1.729
77632W        W43112  27.541  20.706   4.322
77633W        W43113   7.853  38.563  14.819
77634W        W43114  19.551  12.791   1.363
77635W        W43115  12.140  14.717  11.581
77636W        W43116   0.480  10.868  14.492
77637W        W43117   8.736  38.424   4.198
77638W        W43118  29.927   1.855   1.724
77639W        W43119  39.999  10.733   4.761
77640W        W43120  37.541  11.767   1.845
77641W        W43121   9.814  32.630  14.821
77642W        W43122  24.068  44.938  14.337
77643W        W43123  20.717  27.624   4.682
77644W        W43124  14.655  19.685   2.183
77645W        W43125  10.647  14.786  13.843
77646W        W43126  12.315  37.523  11.466
77647W        W43127  19.663  20.580   3.792
77648W        W43128  40.987  22.100  13.477
77649W        W43129  36.851   9.788  12.830
77650W        W43130  30.655  19.561   3.709
77651W        W43131  13.105  38.965  10.577
77652W        W43132   5.436  12.212  12.046
77653W        W43133  28.960   7.751   1.355
77654W        W43134  23.015   0.251   3.367
77655W        W43135   1.382  21.229  11.375
77656W        W43136   8.672   7.375   0.900
77657W        W43137   7.836   5.371  14.411
77658W        W43138   3.340  25.505   4.726
77659W        W43139   9.847  35.436   4.725
77660W        W43140  26.101  12.706  12.035
77661W        W43141   5.846  26.613  12.836
77662W        W43142  25.641  29.936   0.845
77663W        W43143  25.080  21.617   2.674
77664W        W43144  27.669  11.358   1.267
77665W        W43145   8.889  12.277   2.753
77666W        W43146  12.258  16.794   1.827
77667W        W43147  17.709   3.889   3.312
77668W        W43148  10.169  25.525   1.705
77669W        W43149  24.174  15.765  11.936
77670W        W43150   8.310  28.591   3.174
77671W        W43151  30.452  16.697   3.864
77672W        W43152  14.820   3.372   9.963
77673W        W43153   4.347  40.397  11.438
77674W        W43154  40.850  10.777  13.541
77675W        W43155  22.585  26.182  11.404
77676W        W43156  15.595  17.191   2.881
77677W        W43157  15.619  13.138  14.899
77678W        W43158   8.229  19.737   2.841
77679W        W43159  36.947   1.895   3.155
77680W        W43160  25.565   5.862  14.846
77681W        W43161   4.805  10.743  14.017
77682W        W43162  10.770  33.901   4.757
77683W        W43163  11.237   5.742   3.727
77684W        W43164   9.357  30.448   1.928
77685W        W43165  11.361  25.047   1.228
77686W        W43166  21.020  34.530  14.396
77687W        W43167  34.561  34.511  11.108
77688W        W43168   9.311  35.069  10.549
77689W        W43169  15.687  31.560  13.959
77690W        W43170  27.502  25.061   2.714
77691W        W43171   2.893   8.175   4.714
77692W        W43172  22.137   8.853   1.927
77693W        W43173  23.002  18.661  14.477
77694W        W43174  21.039   6.200  13.814
77695W        W43175   8.755  32.132  13.444
77696W        W43176   8.706  11.279  13.064
77697W        W43177   9.701  19.586   1.333
77698W        W43178  37.083  24.669  13.377
77699W        W43179  42.957  32.036  12.439
77700W        W43180  44.865  20.111   1.405
77701W        W43181  43.980  26.649   0.428
77702W        W43182  21.191  41.852   5.296
77703W        W43183   4.314  25.548   2.780
77704W        W43184  28.120   6.815   3.853
77705W        W43185  40.850  26.068  14.363
77706W        W43186  43.800  41.891  10.534
77707W        W43187  42.897  20.527  13.464
77708W        W43188  44.010   4.424   3.203
77709W        W43189  23.653  27.545   3.175
77710W        W43190  31.619  23.718  12.064
77711W        W43191  12.271  38.411  10.542
77712W        W43192  32.043  42.479  11.981
77713W        W43193   6.200  31.447  13.308
77714W        W43194  13.644  13.198   3.856
77715W        W43195  23.698  43.765  14.997
77716W        W43196   7.891  13.121   2.306
77717W        W43197  40.449  11.348   1.918
77718W        W43198   5.908   3.804   2.379
77719W        W43199  19.616  22.746   1.725
77720W        W43200  41.810   5.371   1.745
77721W        W43201  23.077  40.486  11.868
77722W        W43202  28.545  29.568  11.560
77723W        W43203  26.626   2.310   5.167
77724W        W43204  37.974   2.366   2.804
77725W        W43205  44.760  37.919   2.287
77726W        W43206  44.885  23.631   3.156
77727W        W43207  40.347   8.742  12.909
77728W        W43208  35.429  29.983  10.467
77729W        W43209  28.476   9.843   4.342
77730W        W43210  40.341   8.160  14.944
77731W        W43211  37.400  36.978   0.261
77732W        W43212   8.284  37.448   3.673
77733W        W43213  40.976  11.356   2.406
77734W        W43214  27.647  19.722   1.281
77735W        W43215   3.860  41.036   4.269
77736W        W43216  22.158  17.258   4.822
77737W        W43217  12.725  23.518   1.872
77738W        W43218  34.417  16.110   2.323
77739W        W43219  14.642  27.128   2.726
77740W        W43220  37.068  22.099  12.532
77741W        W43221  30.421  20.622   3.705
77742W        W43222  21.610  20.547   1.387
77743W        W43223  30.921  37.043  12.487
77744W        W43224  36.574  15.691   3.760
77745W        W43225   5.309  17.207  10.903
77746W        W43226  13.106   4.411  13.510
77747W        W43227   8.359  28.519  12.904
77748W        W43228  21.538  33.428   1.770
77749W        W43229  21.710   5.798  13.340
77750W        W43230  16.226  11.827   3.370
77751W        W43231  11.736  15.216   0.838
77752W        W43232  13.347  29.578  13.896
77753W        W43233  15.261  27.577   0.959
77754W        W43234  33.131  30.487   2.266
77755W        W43235  19.778  37.055   3.358
77756W        W43236  20.670  44.954   3.805
77757W        W43237  35.876  15.620   4.808
77758W        W43238  36.484  38.463  14.850
77759W        W43239  33.586  21.140   1.225
77760W        W43240   3.826  17.759  10.620
77761W        W43241  12.225  34.868  13.028
77762W        W43242  44.287  21.064  12.871
77763W        W43243  18.261  25.044   4.281
77764W        W43244  28.578   6.779   1.235
77765W        W43245   3.916   9.823  12.415
77766W        W43246  37.887  33.572   0.823
77767W        W43247   9.315  37.891   3.713
77768W        W43248  36.483  12.779   4.806
77769W        W43249   5.910  30.118  12.493
77770W        W43250  21.591  30.064  13.982
77771W        W43251   7.700   0.324  14.928
77772W        W43252   2.384   2.343   4.607
77773W        W43253  17.665  26.087   1.760
77774W        W43254  27.569  39.499   2.382
77775W        W43255  15.317  29.655  14.957
77776W        W43256  33.511  23.607  12.380
77777W        W43257   3.946  37.371   1.775
77778W        W43258  11.621  37.535  14.409
77779W        W43259  27.112  37.525   2.796
77780W        W43260   6.358  33.082   0.831
77781W        W43261   3.421  13.695  11.500
77782W        W43262  26.465   1.293  10.996
77783W        W43263  41.005  29.432  14.881
77784W        W43264  31.113   5.900  12.017
77785W        W43265   0.392  35.403   1.770
77786W        W43266  31.116  14.302  12.899
77787W        W43267  43.973  29.431   1.759
77788W        W43268   4.447  25.088   4.163
77789W        W43269  23.172  15.234  10.955
77790W        W43270  39.936  27.175  10.532
77791W        W43271  29.460  36.871  12.557
77792W        W43272  20.078   5.207  10.906
77793W        W43273  14.744   8.768  14.340
77794W        W43274  23.037  44.326   1.398
77795W        W43275   6.873  42.867  11.006
77796W        W43276  41.340  24.648   2.847
77797W        W43277   3.719  31.093  14.778
77798W        W43278  15.295  39.559   2.877
77799W        W43279  43.863  43.806   4.116
77800W        W43280  17.165  17.709   1.288
77801W        W43281  29.489  29.105  10.498
77802W        W43282   9.211  44.348  12.532
77803W        W43283   5.785  23.580   1.862
77804W        W43284  43.899  31.989   4.623
77805W        W43285  13.167  32.469  13.946
77806W        W43286  43.508  35.050   1.269
77807W        W43287  34.548  21.135   2.870
77808W        W43288   3.251  15.625   1.794
77809W        W43289   3.218  31.475  11.897
77810W        W43290  18.167  22.113  10.408
77811W        W43291  22.590   1.311  14.352
77812W        W43292  11.721  18.557   1.352
77813W        W43293   2.275   1.770  13.535
77814W        W43294  39.871  26.164   3.237
77815W        W43295   4.391  14.263   0.821
77816W        W43296  26.667   7.816   0.390
77817W        W43297  32.018  38.349  11.468
77818W        W43298  26.955  38.375  11.015
77819W        W43299  15.293  34.008   3.272
77820W        W43300  41.524   5.418   4.608
77821W        W43301  34.572  18.618  11.479
77822W        W43302   8.896  14.742   3.779
77823W        W43303  20.715  24.211  14.788
77824W        W43304  42.420   7.205   1.911
77825W        W43305   9.379  38.888   4.242
77826W        W43306   5.295   7.907  10.925
77827W        W43307   1.767  24.579  14.797
77828W        W43308  15.291  20.188   1.278
77829W        W43309  12.747  21.155  13.510
77830W        W43310  26.524  34.466   1.366
77831W        W43311  26.464  19.169   1.423
77832W        W43312  19.043  44.352  11.895
77833W        W43313  14.748  32.132   9.942
77834W        W43314  39.814  37.452  14.430
77835W        W43315  29.580  21.645   3.749
77836W        W43316  23.623  43.908   3.716
77837W        W43317  39.477  40.969  13.400
77838W        W43318   3.328   8.719   3.870
77839W        W43319  33.454  13.112   0.433
77840W        W43320  26.980  17.269   3.303
77841W        W43321  42.298  24.584   4.304
77842W        W43322  11.627   2.755  14.911
77843W        W43323  21.058   1.960  14.870
77844W        W43324  39.968  21.563   3.183
77845W        W43325  42.776  16.310  14.351
77846W        W43326   9.884  38.830   2.242
77847W        W43327  16.312   3.398   3.185
77848W        W43328  26.967   7.385   4.213
77849W        W43329  10.871  21.561  11.556
77850W        W43330  14.106  24.220  13.854
77851W        W43331   3.301  15.125  13.869
77852W        W43332   9.237  16.198   2.261
77853W        W43333  32.464  36.503  11.409
77854W        W43334   0.966  11.150  10.977
77855W        W43335   1.771   6.271  13.941
77856W        W43336   2.793  36.080  10.439
77857W        W43337  19.597  36.003  13.900
77858W        W43338  40.906  41.964  10.528
77859W        W43339  24.546   8.190  11.457
77860W        W43340  40.023  32.415   3.793
77861W        W43341   0.979  31.958  14.849
77862W        W43342   6.700  16.183  12.348
77863W        W43343   6.787  23.690  14.414
77864W        W43344  32.598  39.406   0.889
77865W        W43345  14.592  29.136  12.351
77866W        W43346   4.449  16.201  14.891
77867W        W43347  11.244  26.041  14.879
77868W        W43348  40.308   1.453  14.872
77869W        W43349  20.050   9.662   0.467
77870W        W43350  19.273   0.351   2.863
77871W        W43351  23.700  15.704   0.368
77872W        W43352   5.901  28.599   4.147
77873W        W43353   7.178  41.990   0.957
77874W        W43354  30.085  36.373  13.991
77875W        W43355  39.953  18.221   1.841
77876W        W43356   4.423  11.858   1.411
77877W        W43357  10.728  20.236  14.373
77878W        W43358  10.844  35.074   3.666
77879W        W43359   4.390  16.162  13.415
77880W        W43360  31.137  39.930  14.287
77881W        W43361  43.455  34.923  12.403
77882W        W43362  27.134  12.825   0.274
77883W        W43363  44.396   9.328  13.986
77884W        W43364   6.702  17.229   2.775
77885W        W43365  34.405  31.588   0.380
77886W        W43366  36.526  17.566   2.868
77887W        W43367  15.255  43.996   4.645
77888W        W43368  11.787   6.412   2.403
77889W        W43369   1.442  19.052   3.646
77890W        W43370  17.230  28.088  10.499
77891W        W43371  24.525  38.508  14.392
77892W        W43372  14.241  28.027   3.845
77893W        W43373  14.210   4.218   2.815
77894W        W43374  30.061  16.785   2.811
77895W        W43375  44.416  36.982  11.987
77896W        W43376  17.268  15.819  12.899
77897W        W43377  23.041   6.857  12.960
77898W        W43378  38.878  28.111  12.073
77899W        W43379  40.821   6.327   4.820
77900W        W43380   4.700  40.429   0.257
77901W        W43381  21.191  44.337  12.353
77902W        W43382  24.672  16.188   1.917
77903W        W43383   8.860  29.487   2.251
77904W        W43384   2.871  15.802  12.943
77905W        W43385  32.581  40.374  13.041
77906W        W43386  15.325   6.190  10.611
77907W        W43387  44.273  41.345   1.419
77908W        W43388  33.061  18.783   1.726
77909W        W43389  29.527   0.853  10.446
77910W        W43390  11.275  29.943   2.862
77911W        W43391   3.320  26.632   1.273
77912W        W43392  35.018  43.439   3.195
77913W        W43393  35.919  28.960  12.867
77914W        W43394  39.903   4.409  13.535
77915W        W43395  38.052  42.321  10.475
77916W        W43396   1.899  10.822  12.482
77917W        W43397  19.234   2.360  12.087
77918W        W43398  15.627  29.609   0.365
77919W        W43399  18.249  44.340   9.979
77920W        W43400  13.642  19.121   2.292
77921W        W43401   2.934  31.084   4.657
77922W        W43402  40.814  15.185   3.211
77923W        W43403  33.073   9.351  12.913
77924W        W43404  38.348   2.278   3.682
77925W        W43405  12.181  22.619  12.037
77926W        W43406  14.761  37.964  13.509
77927W        W43407  39.865  11.679   0.285
77928W        W43408  20.628   1.878  10.562
77929W        W43409  11.287  23.695  14.290
77930W        W43410   3.280  31.027   4.315
77931W        W43411  25.210  12.337   1.450
77932W        W43412   1.775  31.539   2.697
77933W        W43413  30.107  20.732   2.275
77934W        W43414  40.936   5.906  11.867
77935W        W43415   2.811  33.017  11.549
77936W        W43416  19.134  12.653   0.423
77937W        W43417  32.984   9.806   0.300
77938W        W43418  10.212   0.945   2.699
77939W        W43419  30.990  15.188  13.062
77940W        W43420  31.462  21.091   0.319
77941W        W43421   6.776   5.733  10.938
77942W        W43422  34.896  32.135   2.776
77943W        W43423   3.415   7.759  14.308
77944W        W43424  27.635  37.017  10.931
77945W        W43425   7.875  33.617   2.845
77946W        W43426  19.583   2.779   1.359
77947W        W43427  31.122  28.474  14.289
77948W        W43428  38.511   8.760   3.242
77949W        W43429  43.903  16.602  13.841
77950W        W43430  41.851   7.736   2.289
77951W        W43431   2.316  20.196   1.375
77952W        W43432  24.541  23.710  12.553
77953W        W43433  24.546  39.895  13.906
77954W        W43434  43.939  25.980   1.270
77955W        W43435  37.078  34.974  14.972
77956W        W43436  11.128  12.843  10.611
77957W        W43437  38.356  38.429   4.278
77958W        W43438   4.926   8.230   3.722
77959W        W43439   2.944  43.980  12.006
77960W        W43440  42.016   7.182  13.011
77961W        W43441  33.891  19.060   0.386
77962W        W43442  31.109  21.127  12.399
77963W        W43443  26.697  29.053  10.405
77964W        W43444   0.798  12.814  14.309
77965W        W43445  31.524  20.028   1.749
77966W        W43446  11.276  29.120  13.447
77967W        W43447   7.735   6.406   2.294
77968W        W43448  35.082   7.208  14.895
77969W        W43449  34.455  24.548  10.578
77970W        W43450  34.903  20.109  12.994
77971W        W43451  22.231  13.197   3.641
77972W        W43452  44.351   7.842  14.356
77973W        W43453  26.573   3.220   4.213
77974W        W43454  14.825  11.858   2.348
77975W        W43455   6.753  28.644   3.690
77976W        W43456  13.292  29.460   5.270
77977W        W43457  21.589  26.687   5.082
77978W        W43458   9.178  27.197   2.779
77979W        W43459  38.015  13.725   3.707
77980W        W43460   5.347  15.312   2.232
77981W        W43461   8.726   9.703   2.179
77982W        W43462  20.028  36.347   1.300
77983W        W43463  29.575  35.417   4.320
77984W        W43464  32.133  36.886  10.480
77985W        W43465   8.767  18.122   0.751
77986W        W43466   0.455  19.715  14.298
77987W        W43467  26.552  25.130   4.115
77988W        W43468  25.196   1.788  14.316
77989W        W43469  32.583  41.421  10.539
77990W        W43470  23.680  21.114   4.622
77991W        W43471  40.803  25.075  12.092
77992W        W43472  26.992  18.285   0.457
77993W        W43473  36.086  37.070   4.767
77994W        W43474  17.773  36.876   1.216
77995W        W43475   4.421  41.493  14.937
77996W        W43476  19.727  30.477   3.281
77997W        W43477  33.612  24.063  13.364
77998W        W43478   6.881   9.839   1.352
77999W        W43479  19.240   4.816  10.475
78000W        W43480  26.186  15.656  11.914
78001W        W43481   1.455  34.390  13.980
78002W        W43482  19.581  40.464   1.382
78003W        W43483   3.228   1.303   1.899
78004W        W43484  15.163  36.509  11.981
78005W        W43485  11.838  16.681  10.104
78006W        W43486   2.878  35.045  14.288
78007W        W43487  17.666  21.027  14.958
78008W        W43488  24.584  28.542  11.032
78009W        W43489  34.070   8.206   1.302
78010W        W43490  38.499  24.497  12.927
78011W        W43491  40.519   2.730   2.375
78012W        W43492  30.464  28.062  11.612
78013W        W43493  26.952  33.882   2.337
78014W        W43494  30.412  31.618  14.509
78015W        W43495   3.940  31.558   5.749
78016W        W43496  35.864   9.157  14.932
78017W        W43497   6.250   6.338  14.486
78018W        W43498  24.709  31.987  12.499
78019W        W43499  43.907   3.252   0.894
78020W        W43500   4.913  19.198   3.712
78021W        W43501  38.433  28.136   2.211
78022W        W43502   2.931  32.946   2.328
78023W        W43503   0.985  28.117   1.801
78024W        W43504  18.652  24.653  10.996
78025W        W43505  35.926  31.996  11.542
78026W        W43506  40.975   1.787  11.423
78027W        W43507  24.087  13.146   1.299
78028W        W43508  38.438  21.225   4.707
78029W        W43509  42.910  30.615   3.760
78030W        W43510  42.299  29.119   1.318
78031W        W43511  15.606  18.208  11.391
78032W        W43512  44.926  42.977  13.370
78033W        W43513  18.236  21.204   3.277
78034W        W43514  42.986  39.881  12.355
78035W        W43515  38.073  41.382   0.427
78036W        W43516  29.492  36.485  12.344
78037W        W43517  41.920  11.674   1.776
78038W        W43518  39.056   8.397   4.133
78039W        W43519  34.942  32.020   1.288
78040W        W43520  17.085   3.792   2.693
78041W        W43521   1.819  29.968   1.246
78042W        W43522  27.485  20.132  12.031
78043W        W43523  11.814  37.060   3.635
78044W        W43524  29.120  14.618   3.866
78045W        W43525  25.105   7.295  14.468
78046W        W43526  44.900  15.323   2.755
78047W        W43527   6.764   8.366  13.542
78048W        W43528   7.309  40.016  12.475
78049W        W43529  43.407  28.638   2.694
78050W        W43530   6.274   9.738  13.897
78051W        W43531  25.177  38.031   0.791
78052W        W43532  31.998   1.809  10.503
78053W        W43533  23.172   9.249   1.863
78054W        W43534   2.763  35.972   4.310
78055W        W43535  25.554  29.972  11.418
78056W        W43536  16.588   0.248  13.825
78057W        W43537  16.677  14.770  13.336
78058W        W43538  10.755   0.910   2.342
78059W        W43539   9.781  41.325   1.267
78060W        W43540  21.554   9.304  14.516
78061W        W43541  35.069  43.803   3.827
78062W        W43542   3.807  32.478   4.812
78063W        W43543  15.762  37.930   1.816
78064W        W43544   8.256  40.312   4.354
78065W        W43545  27.168  42.889   1.358
78066W        W43546  27.655  19.202   2.291
78067W        W43547   7.322  19.124  11.099
78068W        W43548  28.169   8.380   2.855
78069W        W43549  13.826   3.890   1.431
78070W        W43550  10.294  29.958  13.916
78071W        W43551  32.948   7.703  12.579
78072W        W43552  33.607  31.150   3.350
78073W        W43553  43.893  42.884  12.936
78074W        W43554  27.456   7.204  12.884
78075W        W43555  37.476  27.104  11.090
78076W        W43556  35.564   3.221  11.465
78077W        W43557   9.713  13.318   0.879
78078W        W43558  14.105  19.593   4.785
78079W        W43559  27.538  44.260  12.849
78080W        W43560  32.142  17.607   1.331
78081W        W43561  29.549   2.814   4.625
78082W        W43562   0.388  10.199  11.940
78083W        W43563  35.483  21.668   1.853
78084W        W43564   1.888  15.176  11.948
78085W        W43565   3.924  32.049   2.679
78086W        W43566  24.054  21.747  10.421
78087W        W43567  34.570  19.136   3.666
78088W        W43568  32.895  40.822  12.976
78089W        W43569   7.208   6.310   4.617
78090W        W43570  42.837   0.852  10.438
78091W        W43571  15.819  28.527  13.885
78092W        W43572  10.324  30.593  14.308
78093W        W43573   0.848   4.247  13.475
78094W        W43574  32.576  37.887  11.869
78095W        W43575  15.134  13.837   1.928
78096W        W43576  40.048  43.994  10.429
78097W        W43577  33.412  32.112  12.958
78098W        W43578  38.031  12.287   3.792
78099W        W43579  22.711  33.981  10.915
78100W        W43580  14.622  24.573  14.847
78101W        W43581   2.438  33.461   1.809
78102W        W43582  35.925  15.776  13.847
78103W        W43583   6.418  35.100  14.465
78104W        W43584  32.561   6.361   1.237
78105W        W43585  41.499   1.974  13.859
78106W        W43586  16.143  37.535  11.871
78107W        W43587  14.209  26.602   3.751
78108W        W43588  44.412  35.901   2.341
78109W        W43589  16.630  43.351  14.923
78110W        W43590  12.196  30.978   2.210
78111W        W43591   8.251  40.434  11.015
78112W        W43592  33.111  42.300   0.276
78113W        W43593  13.246  22.609  13.519
78114W        W43594  27.626  21.180  13.444
78115W        W43595  30.460  29.623   3.632
78116W        W43596   9.244  18.153   3.780
78117W        W43597  42.823  12.151  11.915
78118W        W43598  32.433  34.407   0.895
78119W        W43599  16.127  17.715   0.847
78120W        W43600  42.000  28.100   2.209
78121W        W43601   8.868  32.142  10.549
78122W        W43602  31.424  26.610   0.915
78123W        W43603  44.957  33.080   4.669
78124W        W43604  25.615  17.136  11.103
78125W        W43605  20.619  23.063  14.504
78126W        W43606  12.233  24.687  13.348
78127W        W43607  15.775   0.852   1.749
78128W        W43608   4.895  14.782  11.376
78129W        W43609  25.678   8.658   2.701
78130W        W43610   2.885  26.208   4.806
78131W        W43611  21.185  24.216  10.471
78132W        W43612   2.932  11.807   2.679
78133W        W43613  16.701  30.142  12.449
78134W        W43614  23.695  18.614  11.061
78135W        W43615   2.254  36.896  11.519
78136W        W43616  19.734  36.071   0.826
78137W        W43617  24.571  39.364   3.230
78138W        W43618   6.911  18.127   0.474
78139W        W43619   4.752   2.787  10.583
78140W        W43620   4.698  14.297   3.740
78141W        W43621   0.805  41.958   2.809
78142W        W43622  13.248  32.119  11.961
78143W        W43623  38.947  23.212   0.439
78144W        W43624  40.342  18.130  11.574
78145W        W43625  23.666  41.306   4.305
78146W        W43626  33.419   6.357   0.478
78147W        W43627  13.673  18.601  14.009
78148W        W43628  42.496  16.171   3.153
78149W        W43629  16.301  32.917   9.970
78150W        W43630  41.029  30.434  10.503
78151W        W43631  41.301   3.891  13.374
78152W        W43632  36.844  12.255   3.744
78153W        W43633  18.749  41.904  11.460
78154W        W43634  22.594  18.130   1.365
78155W        W43635  10.818  29.496  12.547
78156W        W43636   5.385  33.059   3.704
78157W        W43637  10.718  37.985  11.055
78158W        W43638  42.368   5.906  12.090
78159W        W43639  16.213  31.580  13.961
78160W        W43640  22.667  38.497  13.412
78161W        W43641  21.161  36.480  11.421
78162W        W43642   2.273  39.997   3.352
78163W        W43643  21.118   3.784   4.673
78164W        W43644  39.534  14.800   2.326
78165W        W43645  27.956  12.150  14.423
78166W        W43646  31.152  12.294   3.274
78167W        W43647  19.124  12.166   2.210
78168W        W43648  21.240  14.107   4.347
78169W        W43649  21.629  14.163   2.672
78170W        W43650  41.527  33.448   3.322
78171W        W43651  23.641  38.994  13.515
78172W        W43652  23.220  36.434  13.484
78173W        W43653  33.485  27.454  13.811
78174W        W43654  34.466  28.649   0.811
78175W        W43655  31.074  15.110   4.225
78176W        W43656  44.373  39.323   4.334
78177W        W43657  29.518   9.291  14.776
78178W        W43658  36.431  36.891   1.278
78179W        W43659  44.837  21.678  13.025
78180W        W43660  27.619  37.073  13.387
78181W        W43661   9.373  32.010  13.498
78182W        W43662  27.104   7.678  10.562
78183W        W43663  22.118  30.431   1.830
78184W        W43664  23.693  26.678  14.341
78185W        W43665  38.556   1.375  12.872
78186W        W43666   7.387  44.378  10.966
78187W        W43667  13.295   7.284   3.360
78188W        W43668   0.383  21.670  11.876
78189W        W43669  33.058   5.402   0.968
78190W        W43670   3.259  35.367   5.666
78191W        W43671  14.663   2.332  12.012
78192W        W43672  34.892  24.102  11.607
78193W        W43673  33.948  21.064   3.651
78194W        W43674   3.878  32.934   1.844
78195W        W43675  41.299   5.774  14.296
78196W        W43676  15.100  11.329  13.965
78197W        W43677  26.146   2.850  12.406
78198W        W43678  41.333  32.442  12.418
78199W        W43679   9.660  35.935  14.469
78200W        W43680  43.948   0.908  12.435
78201W        W43681  14.302   3.257   4.142
78202W        W43682  39.981  27.654   4.823
78203W        W43683  12.163  27.542  10.440
78204W        W43684  36.019   9.836  11.394
78205W        W43685   5.197  42.287   1.250
78206W        W43686  12.707  28.577  11.549
78207W        W43687  31.574  34.456  10.436
78208W        W43688  43.322  20.614  10.410
78209W        W43689   7.780  36.051  10.442
78210W        W43690  10.831  10.811   2.678
78211W        W43691  33.384  25.964  14.855
78212W        W43692  25.107  22.017   3.790
78213W        W43693   1.943  16.796  13.485
78214W        W43694   0.795  40.466   1.400
78215W        W43695  23.612  21.548  10.437
78216W        W43696   2.834  14.800  14.863
78217W        W43697   7.192  42.479   1.868
78218W        W43698  29.551  25.988   0.466
78219W        W43699   8.708  44.892   0.435
78220W        W43700  36.082  36.911  14.792
78221W        W43701  26.664  11.307  10.920
78222W        W43702  23.009  29.097   3.241
78223W        W43703   1.350  15.277  14.930
78224W        W43704  34.452  30.039  10.994
78225W        W43705  35.474   3.948  13.953
78226W        W43706  34.969   0.844  11.380
78227W        W43707  41.921  10.221  12.515
78228W        W43708  28.463  43.320   2.365
78229W        W43709  10.261  15.120  13.400
78230W        W43710   9.822  30.930  14.449
78231W        W43711  33.083  32.128  13.806
78232W        W43712  36.545  16.691   4.679
78233W        W43713  24.015  39.014   0.774
78234W        W43714  35.551  12.669  10.924
78235W        W43715  18.206  44.795   4.766
78236W        W43716  21.094  11.278   4.599
78237W        W43717   4.813  29.572   3.842
78238W        W43718  16.614   3.809   2.266
78239W        W43719  38.357   9.223   0.798
78240W        W43720  28.469  22.565   0.430
78241W        W43721  43.926  36.495   4.297
78242W        W43722  38.497  15.153   3.306
78243W        W43723   3.312  14.182  10.621
78244W        W43724  10.669  17.579   3.684
78245W        W43725  26.204  19.177   3.302
78246W        W43726   8.705  44.451  14.926
78247W        W43727   9.257   8.174  12.020
78248W        W43728  14.263   5.756  13.545
78249W        W43729  43.338  15.278   0.476
78250W        W43730   6.851   1.469  12.534
78251W        W43731  30.592  35.366  11.377
78252W        W43732  42.018  38.527  11.375
78253W        W43733   3.457  41.981   4.226
78254W        W43734  44.004   9.828   4.217
78255W        W43735   3.337  15.212   0.411
78256W        W43736  42.376   0.881   0.822
78257W        W43737  24.718  11.158   4.827
78258W        W43738  38.550  44.275   2.779
78259W        W43739  11.767  38.379   3.317
78260W        W43740   4.803  11.752   3.690
78261W        W43741  35.091  18.142  11.873
78262W        W43742  44.329  10.698   3.733
78263W        W43743   2.295   1.750   5.199
78264W        W43744   0.960  15.792   2.726
78265W        W43745   9.754  28.673  13.865
78266W        W43746  18.223  43.929  13.467
78267W        W43747  22.518   4.221  11.403
78268W        W43748  13.615  41.937   1.235
78269W        W43749  24.086  13.672   0.244
78270W        W43750  26.569  25.493  11.865
78271W        W43751  22.032  19.067  12.569
78272W        W43752   8.809  22.681  13.976
78273W        W43753   5.220  27.582   1.315
78274W        W43754  43.962   0.346   0.393
78275W        W43755  29.571  18.723   1.789
78276W        W43756  30.050  38.466  13.028
78277W        W43757  17.661  42.471   4.298
78278W        W43758  29.021   6.336   4.136
78279W        W43759  28.989  25.709   4.717
78280W        W43760  11.265   0.291  13.488
78281W        W43761  13.662  26.657  11.955
78282W        W43762  10.291  31.447   1.435
78283W        W43763   0.788   8.767  11.112
78284W        W43764  37.913   7.345   4.185
78285W        W43765  31.587  17.576   2.386
78286W        W43766  28.581  12.259   2.730
78287W        W43767  33.031  12.652   0.890
78288W        W43768  18.722  41.382   3.174
78289W        W43769  27.602  12.755   4.782
78290W        W43770  40.465  33.482  14.403
78291W        W43771   3.284  25.664  14.298
78292W        W43772  43.423  13.208   0.420
78293W        W43773  31.456  33.927  14.337
78294W        W43774  24.048  41.452  10.517
78295W        W43775   0.374  40.416   4.177
78296W        W43776  13.209  32.060  14.987
78297W        W43777  21.655  38.424   0.392
78298W        W43778  34.377  20.093  12.045
78299W        W43779  33.902  27.958  10.501
78300W        W43780  27.446  25.572  11.457
78301W        W43781  11.823  10.676   3.288
78302W        W43782  43.387  14.110   1.237
78303W        W43783  16.227  41.803  14.462
78304W        W43784  37.899  27.194  14.321
78305W        W43785  26.481  39.421   4.228
78306W        W43786  23.134  15.821   4.206
78307W        W43787  10.156  34.899   4.130
78308W        W43788  14.277  22.537  13.405
78309W        W43789  22.502  14.203   0.950
78310W        W43790  21.741  21.060   2.234
78311W        W43791  44.451   3.404  13.387
78312W        W43792   3.321   5.876   1.268
78313W        W43793  17.279  26.603  13.508
78314W        W43794  40.386  40.423  14.385
78315W        W43795  17.608  18.782   4.282
78316W        W43796  42.984  41.463   3.210
78317W        W43797  20.103  22.104  10.538
78318W        W43798  39.346  30.524   3.702
78319W        W43799  16.161  42.790   1.334
78320W        W43800  20.641  27.690  12.360
78321W        W43801  41.819  19.584  13.311
78322W        W43802  35.514  16.607  12.985
78323W        W43803  42.516  22.649   4.172
78324W        W43804  38.943  34.399   3.176
78325W        W43805   3.952  16.213   2.762
78326W        W43806  43.786  42.470  11.529
78327W        W43807  29.462   8.713   4.281
78328W        W43808  38.550  40.034  11.472
78329W        W43809   9.276  37.501  12.056
78330W        W43810  12.173  25.010   3.729
78331W        W43811  31.505  22.549   3.738
78332W        W43812  26.647   0.897   4.620
78333W        W43813  23.158  15.775   3.859
78334W        W43814  22.530  29.474   1.391
78335W        W43815  15.583  44.379  14.027
78336W        W43816  25.495   0.299   3.740
78337W        W43817  42.329  23.635  10.581
78338W        W43818   8.663   5.291   1.711
78339W        W43819  30.609  14.272   3.197
78340W        W43820   2.465  25.089  14.912
78341W        W43821  22.528  31.508  12.468
78342W        W43822  19.714  44.431   0.400
78343W        W43823  17.665  42.358  12.515
78344W        W43824  13.791  11.689   2.819
78345W        W43825  41.873  44.850  13.883
78346W        W43826  23.725  37.538  11.612
78347W        W43827  43.435  27.564  13.381
78348W        W43828   0.881  32.060  13.367
78349W        W43829  17.119  35.855  13.988
78350W        W43830  34.074  40.322   1.264
78351W        W43831  38.528  29.590   1.229
78352W        W43832  23.556  39.912  10.604
78353W        W43833  22.578  16.615  14.495
78354W        W43834  41.333  24.149  13.816
78355W        W43835  12.631  16.689   3.164
78356W        W43836  10.374  30.622  13.964
78357W        W43837  42.432  25.075   5.277
78358W        W43838  43.289  12.245   0.330
78359W        W43839  32.478  35.920   1.751
78360W        W43840  15.185  21.202   4.199
78361W        W43841   4.837  25.972  13.427
78362W        W43842  16.724   8.745   4.332
78363W        W43843  28.597  21.020  10.965
78364W        W43844  39.410  23.055  13.442
78365W        W43845  24.601  36.070   4.252
78366W        W43846  39.912  26.695   4.316
78367W        W43847   3.325  31.588   1.378
78368W        W43848  44.863  36.021   4.608
78369W        W43849  21.516  43.801  13.953
78370W        W43850  35.377  29.640   0.277
78371W        W43851  19.253  41.914  14.996
78372W        W43852  40.362  40.344   5.322
78373W        W43853   0.460  39.530  11.899
78374W        W43854   1.435  29.075  10.420
78375W        W43855  26.007  21.147   3.714
78376W        W43856   4.804  18.162   2.401
78377W        W43857   7.318  11.175   4.289
78378W        W43858  35.101  31.899  11.582
78379W        W43859   8.687   0.474   1.849
78380W        W43860   3.415  37.353   2.861
78381W        W43861  38.434  43.279  11.536
78382W        W43862   9.366   4.412   1.217
78383W        W43863  17.155  31.018   2.673
78384W        W43864   2.352  23.012   4.821
78385W        W43865   8.329   7.740  11.048
78386W        W43866  22.100  32.054   3.841
78387W        W43867  18.171  23.200  14.874
78388W        W43868  34.422  21.724  13.840
78389W        W43869  14.280  34.396  14.344
78390W        W43870  43.382  38.844   0.432
78391W        W43871  44.472  26.609   5.166
78392W        W43872  15.283   0.312  12.365
78393W        W43873  24.201   9.191  14.836
78394W        W43874  39.993  11.818   2.321
78395W        W43875   0.449   9.868   3.806
78396W        W43876  28.606  19.095   0.311
78397W        W43877  20.556   2.761   4.693
78398W        W43878  22.195  20.624   1.282
78399W        W43879  43.421  16.095   0.417
78400W        W43880  37.914   1.462   0.413
78401W        W43881  12.774  26.688  12.507
78402W        W43882  19.168  18.744   4.754
78403W        W43883  38.863  12.631   2.681
78404W        W43884   6.219   1.769   4.134
78405W        W43885  41.343  32.576   1.884
78406W        W43886  30.974  43.376  10.535
78407W        W43887  41.322  26.178  12.375
78408W        W43888  16.314  43.319  10.919
78409W        W43889  30.088  12.223  11.388
78410W        W43890  25.132  37.940  12.901
78411W        W43891  24.583   9.773  14.359
78412W        W43892  26.966   2.948  11.031
78413W        W43893  36.590  24.596  11.447
78414W        W43894  41.789  32.991   4.225
78415W        W43895  22.204  36.476   0.747
78416W        W43896   1.274  20.205   4.142
78417W        W43897  24.613  15.123  13.545
78418W        W43898  42.988  44.894  12.849
78419W        W43899   3.774  43.815   1.237
78420W        W43900   9.752  31.136  11.869
78421W        W43901   9.269   4.257  14.333
78422W        W43902   4.281  27.045  11.607
78423W        W43903  40.017   8.858   2.812
78424W        W43904  35.971  21.626  13.860
78425W        W43905  13.800  16.688   2.860
78426W        W43906   2.886  41.533  14.368
78427W        W43907   5.727  43.281  13.845
78428W        W43908  39.560  21.175   3.366
78429W        W43909  21.019  30.456  12.916
78430W        W43910  14.817  41.860   3.634
78431W        W43911   1.375   7.244   4.284
78432W        W43912  33.544  21.689   1.222
78433W        W43913  10.305   7.252  13.955
78434W        W43914  14.298  15.113  11.401
78435W        W43915   5.711   4.735  12.958
78436W        W43916   9.795  38.373  12.339
78437W        W43917  30.036  18.185  14.477
78438W        W43918  35.390  14.303  13.386
78439W        W43919  33.005  27.635   0.466
78440W        W43920   3.784  15.779  11.981
78441W        W43921   8.160   8.161  13.489
78442W        W43922  22.153   0.771   4.684
78443W        W43923  36.414   3.256   3.314
78444W        W43924  17.580  22.734   0.254
78445W        W43925  20.609  24.651  13.909
78446W        W43926  11.861  22.659   1.396
78447W        W43927  33.395  16.096   3.217
78448W        W43928  25.467  29.602   4.703
78449W        W43929  28.102   3.234  14.516
78450W        W43930  26.672  42.438   2.897
78451W        W43931  21.172  24.980   4.625
78452W        W43932  14.672  22.248   1.882
78453W        W43933  19.766   2.916  12.469
78454W        W43934  12.272  41.394  14.844
78455W        W43935  16.791  25.194  10.450
78456W        W43936   9.327  22.115  14.850
78457W        W43937  41.524  31.948   1.399
78458W        W43938   3.283  24.592   1.359
78459W        W43939  28.069   0.775   4.775
78460W        W43940  44.001  22.239   4.209
78461W        W43941  10.163  19.175   2.344
78462W        W43942  13.749  11.264  13.484
78463W        W43943  22.669  18.565  12.341
78464W        W43944  23.685  14.674   0.782
78465W        W43945  43.362  30.600   2.341
78466W        W43946  12.681  28.079   3.652
78467W        W43947  11.310  13.111   1.864
78468W        W43948  20.059  24.173   3.257
78469W        W43949  30.046  35.441  10.403
78470W        W43950  16.241  23.686   0.734
78471W        W43951   3.301  24.523  13.343
78472W        W43952  19.720  36.095  11.964
78473W        W43953   7.299  30.130   4.832
78474W        W43954  22.031  12.155   4.608
78475W        W43955  30.965  40.864  11.507
78476W        W43956   8.346   5.415  11.967
78477W        W43957  40.048  37.408   4.637
78478W        W43958  37.059  29.119   2.373
78479W        W43959  20.215  25.474  11.929
78480W        W43960   5.811  44.894  12.353
78481W        W43961   9.294  33.035   2.886
78482W        W43962   3.860  22.520  11.437
78483W        W43963  20.051  27.029   2.824
78484W        W43964  35.398  42.021   3.202
78485W        W43965  31.109  32.593   3.329
78486W        W43966   6.893  10.750   1.397
78487W        W43967  44.456  24.137   2.773
78488W        W43968  31.016  29.043  14.368
78489W        W43969  27.041  27.072  11.043
78490W        W43970  42.431   0.412  13.899
78491W        W43971  40.487  44.995   0.371
78492W        W43972  34.564   4.728  10.154
78493W        W43973  10.227  27.066  12.078
78494W        W43974  34.549  13.734   2.788
78495W        W43975  25.604  35.602   4.796
78496W        W43976   3.241  26.199   0.368
78497W        W43977  21.108  19.149  14.955
78498W        W43978   6.745  17.156  11.546
78499W        W43979  10.245  27.653   1.230
78500W        W43980  27.667  38.849   1.425
78501W        W43981  14.190  36.915  12.840
78502W        W43982  13.737  23.654  11.604
78503W        W43983  11.164  39.434   0.932
78504W        W43984  15.589  44.388   4.213
78505W        W43985  30.554  17.669  11.028
78506W        W43986   8.221  31.429   3.150
78507W        W43987  15.270  14.782  13.859
78508W        W43988   9.681  43.819  12.566
78509W        W43989   2.728  27.994  11.931
78510W        W43990  18.660   1.899   4.801
78511W        W43991   2.439   1.833  11.045
78512W        W43992  30.015  42.460   2.810
78513W        W43993  23.153  34.866   0.857
78514W        W43994  22.239   2.302   0.308
78515W        W43995  21.523  32.562  12.851
78516W        W43996  20.050   0.767  10.888
78517W        W43997  17.581  20.089  10.892
78518W        W43998  22.245   4.944  11.394
78519W        W43999   4.376   6.913  13.854
78520W        W44000  11.716   0.345  11.453
78521W        W44001  16.182  39.363  13.792
78522W        W44002  31.532  33.594  12.011
78523W        W44003  37.041  39.849  12.946
78524W        W44004  37.029   6.898   1.401
78525W        W44005  11.172  31.569  11.557
78526W        W44006   2.930  13.773  11.607
78527W        W44007  14.142  21.021  10.571
78528W        W44008  39.892   0.869   2.215
78529W        W44009  29.569   0.897  13.877
78530W        W44010  10.834  40.840  14.763
78531W        W44011  20.155   6.861  13.821
78532W        W44012  40.800  24.600  12.914
78533W        W44013   0.770  21.687   3.263
78534W        W44014  39.014  12.285   2.869
78535W        W44015  39.378  36.867  14.402
78536W        W44016  21.254  11.245  12.564
78537W        W44017  35.420  36.860   2.183
78538W        W44018  14.241  11.130  11.428
78539W        W44019   9.850  39.873   3.258
78540W        W44020  40.456   7.681  13.930
78541W        W44021  14.827  44.791   5.251
78542W        W44022  21.203  14.711  14.378
78543W        W44023  38.941   8.785   1.276
78544W        W44024   1.472  41.850   2.415
78545W        W44025  21.589   7.835  13.805
78546W        W44026  31.607  20.099  11.905
78547W        W44027  20.254   3.834   3.808
78548W        W44028  42.465  43.019   3.332
78549W        W44029   6.910  41.401   0.473
78550W        W44030  40.407   6.363  11.428
78551W        W44031   6.225  23.043   0.412
78552W        W44032  36.390  25.211   5.169
78553W        W44033  36.086  39.940  14.004
78554W        W44034   0.944  13.839  14.007
78555W        W44035  35.080   2.302  14.937
78556W        W44036  43.815  28.533  12.995
78557W        W44037  38.071  37.359   2.888
78558W        W44038  33.608  41.326  11.424
78559W        W44039   0.838  30.085  10.909
78560W        W44040  23.240  26.195  11.872
78561W        W44041  12.237  40.835   3.664
78562W        W44042  32.033   9.313   4.282
78563W        W44043   0.893   8.334   0.808
78564W        W44044   6.754  39.556   1.255
78565W        W44045  29.579  11.254   2.774
78566W        W44046  43.501  40.332  11.484
78567W        W44047  19.157  11.266  10.498
78568W        W44048  35.383  27.953   1.397
78569W        W44049  20.089  29.170   1.807
78570W        W44050  17.624  16.733   1.425
78571W        W44051  21.171  39.423   1.754
78572W        W44052   5.703  19.752   4.301
78573W        W44053  41.020  10.339  11.046
78574W        W44054  33.947  33.450   1.858
78575W        W44055  30.558   7.778  13.392
78576W        W44056   8.382  36.036   4.677
78577W        W44057  32.447  38.374  12.569
78578W        W44058   4.774  39.889  11.468
78579W        W44059   4.433  35.377   1.913
78580W        W44060  33.426  22.187  13.533
78581W        W44061  14.208   4.238   0.310
78582W        W44062   5.689   5.223  11.379
78583W        W44063  19.774  41.522  11.992
78584W        W44064   1.840  17.247   2.797
78585W        W44065  42.024  32.515   1.801
78586W        W44066   3.808  30.637   3.226
78587W        W44067   5.432  33.449  10.893
78588W        W44068  43.478  43.806   2.334
78589W        W44069  39.528  15.197   0.951
78590W        W44070   9.345  41.370  14.494
78591W        W44071  17.717  39.389   4.761
78592W        W44072   9.673  14.726  11.127
78593W        W44073  39.878  33.459   2.385
78594W        W44074  35.510  14.208  13.938
78595W        W44075   8.781  36.456  11.569
78596W        W44076   0.412  15.597  14.276
78597W        W44077   0.254  12.651  11.595
78598W        W44078  38.908  44.832  12.041
78599W        W44079  33.896  30.129  10.630
78600W        W44080  33.433  21.262  11.560
78601W        W44081  38.038  42.317  11.396
78602W        W44082   1.396  37.455  12.563
78603W        W44083  27.940  26.576   1.354
78604W        W44084   5.391  38.325   2.393
78605W        W44085  17.635  21.091  10.067
78606W        W44086  30.103   4.805   4.673
78607W        W44087  10.805  19.560   1.713
78608W        W44088  28.089  23.644  13.918
78609W        W44089  23.193  41.822   4.757
78610W        W44090   7.906  25.155  10.495
78611W        W44091  41.346  42.285   2.268
78612W        W44092  28.988   7.873   3.332
78613W        W44093  37.560   6.203   2.803
78614W        W44094  19.175   8.218  11.418
78615W        W44095  22.509  11.741   0.319
78616W        W44096   3.915  21.588  13.052
78617W        W44097  34.396  37.058   4.702
78618W        W44098  14.107  40.826  10.159
78619W        W44099  22.157  11.310  12.062
78620W        W44100  11.733  39.897   3.164
78621W        W44101  20.105  31.110  13.992
78622W        W44102  42.938  39.948  10.063
78623W        W44103  27.529   3.383   0.886
78624W        W44104  44.431   5.769   3.643
78625W        W44105   5.342  12.843   0.458
78626W        W44106  19.268  38.902   0.382
78627W        W44107  36.095   2.754   1.704
78628W        W44108  44.823  13.172  10.988
78629W        W44109  31.946  29.007  10.419
78630W        W44110  15.703  37.476   3.681
78631W        W44111  13.734  14.238   3.648
78632W        W44112  36.429   6.685  14.777
78633W        W44113  40.803   2.922  13.835
78634W        W44114  14.595  42.834  13.035
78635W        W44115   5.246   0.752  10.973
78636W        W44116  35.585   7.387   3.866
78637W        W44117   5.252  36.353   3.318
78638W        W44118  40.343   3.321  10.435
78639W        W44119  16.253  13.296  11.521
78640W        W44120  22.576  24.481  12.352
78641W        W44121  21.185  37.043   2.251
78642W        W44122  17.295   1.919  11.548
78643W        W44123   8.878  10.365  10.629
78644W        W44124  28.977  41.844  11.601
78645W        W44125  42.809  31.115   1.922
78646W        W44126  25.665  30.999  10.958
78647W        W44127  33.474   5.863   1.784
78648W        W44128  30.510  26.542  14.987
78649W        W44129   3.724  33.052   4.342
78650W        W44130  33.554  19.587  14.022
78651W        W44131  34.114  20.558  14.410
78652W        W44132  33.941  25.017  14.943
78653W        W44133  36.519  17.740  14.839
78654W        W44134  32.571  40.475   0.346
78655W        W44135   5.285  41.444   1.775
78656W        W44136  20.738   7.410  11.922
78657W        W44137  38.993   4.275   4.721
78658W        W44138  38.921  38.466   3.824
78659W        W44139  36.534  27.140   1.286
78660W        W44140   9.867  29.450   0.914
78661W        W44141   2.813  38.825  10.478
78662W        W44142  41.888  30.029   3.690
78663W        W44143  37.476  22.735  14.970
78664W        W44144  18.109  42.303   1.266
78665W        W44145  24.534  35.554   4.614
78666W        W44146  16.113  17.295  12.486
78667W        W44147  32.901  18.693   0.313
78668W        W44148   3.275  18.223  12.924
78669W        W44149  26.477  11.272  13.325
78670W        W44150  31.034  10.796  14.503
78671W        W44151  10.220  30.064   4.773
78672W        W44152  30.548  41.934  10.927
78673W        W44153  13.695  31.077  14.849
78674W        W44154  19.609  13.644   1.913
78675W        W44155  40.428   0.310   0.342
78676W        W44156  26.618  37.357  13.064
78677W        W44157   0.447  18.073   1.795
78678W        W44158  18.174  44.951   0.302
78679W        W44159  19.756  32.021   2.870
78680W        W44160  16.786  11.315   4.271
78681W        W44161  33.602  28.452   1.847
78682W        W44162  21.687  35.092   4.788
78683W        W44163  24.086  44.477   1.411
78684W        W44164  33.582  30.441  12.522
78685W        W44165   7.412  24.038  13.461
78686W        W44166  24.535  18.085  10.606
78687W        W44167  17.780   7.309  11.435
78688W        W44168   5.822  24.074  14.402
78689W        W44169   9.816  17.269   4.299
78690W        W44170  37.858  42.974   0.958
78691W        W44171  35.942  19.590   1.857
78692W        W44172  23.566  34.505  11.438
78693W        W44173   5.793   6.923  14.770
78694W        W44174  17.173  11.322   4.740
78695W        W44175  35.009  38.329  11.452
78696W        W44176  30.954   3.334   1.222
78697W        W44177  44.895  43.455   2.670
78698W        W44178  17.296  28.077   3.806
78699W        W44179   3.313   9.836   0.949
78700W        W44180  26.462  40.032  12.918
78701W        W44181  21.748  10.371  10.938
78702W        W44182  22.189  21.216   0.348
78703W        W44183  40.451  29.095  13.342
78704W        W44184  44.459  23.565   2.282
78705W        W44185  14.706  22.694  11.118
78706W        W44186  27.644  11.315   0.967
78707W        W44187  14.772  22.516   4.691
78708W        W44188   3.346   9.351   0.747
78709W        W44189   5.831   0.920   1.767
78710W        W44190   5.897  31.569   4.148
78711W        W44191   5.899  29.468  13.309
78712W        W44192  37.377  11.654  13.387
78713W        W44193  39.055  32.605  11.998
78714W        W44194  41.499  16.273   0.827
78715W        W44195   2.784  12.637  11.941
78716W        W44196  29.520  20.067   4.669
78717W        W44197  11.660  32.470   3.858
78718W        W44198  25.177  35.893   3.644
78719W        W44199  22.563   8.698  13.981
78720W        W44200  10.187  27.561  14.345
78721W        W44201  40.358  27.944   0.483
78722W        W44202  26.611  19.664   9.982
78723W        W44203  18.628  18.122   1.257
78724W        W44204  32.588  42.888   1.819
78725W        W44205  30.080  38.831   3.708
78726W        W44206  41.949   7.783  11.064
78727W        W44207  10.829  28.057   3.853
78728W        W44208   9.731  25.017  14.890
78729W        W44209  28.481   9.378   1.276
78730W        W44210  24.077  40.436  12.514
78731W        W44211  36.529  22.530   0.764
78732W        W44212  44.947   1.937   3.210
78733W        W44213  44.284  39.541  11.116
78734W        W44214  18.633  36.960   2.718
78735W        W44215  13.813  19.160  11.513
78736W        W44216  43.010  21.054   0.344
78737W        W44217  41.475  44.758   3.649
78738W        W44218  17.555  10.681   1.751
78739W        W44219  23.725  13.827   1.895
78740W        W44220  34.870  29.070   2.776
78741W        W44221  10.234  15.161   4.728
78742W        W44222  25.167  23.226   1.395
78743W        W44223  38.570  32.958   2.303
78744W        W44224  26.011  18.780  10.941
78745W        W44225  30.155  44.758   4.252
78746W        W44226  16.571  16.606  14.818
78747W        W44227   9.806  44.461  10.633
78748W        W44228   3.880   5.369   2.384
78749W        W44229  33.064   4.925  13.850
78750W        W44230   6.410  42.945  14.966
78751W        W44231   5.402  33.521  13.398
78752W        W44232  18.057  35.870  11.506
78753W        W44233  33.558   9.858   4.339
78754W        W44234  21.715  43.784  14.968
78755W        W44235  32.940  22.594  14.467
78756W        W44236   5.927   1.974  10.425
78757W        W44237  40.879  38.337   2.715
78758W        W44238  20.765  36.547  14.475
78759W        W44239  17.102  34.553  11.903
78760W        W44240  26.460  27.461  12.561
78761W        W44241  20.559  18.159  11.521
78762W        W44242  31.533   1.769   1.831
78763W        W44243  18.259  23.093   2.365
78764W        W44244   6.918  19.754  13.356
78765W        W44245  25.000  24.036  10.467
78766W        W44246  21.582  42.833   3.792
78767W        W44247  42.951   5.350  13.912
78768W        W44248  24.229  12.793   1.370
78769W        W44249   1.242  43.833   0.436
78770W        W44250  21.156  13.763   2.806
78771W        W44251  13.226  21.258  10.433
78772W        W44252  31.061  22.634  11.596
78773W        W44253  12.273  17.116  10.584
78774W        W44254  22.633  15.654  10.997
78775W        W44255  30.955  32.514   2.387
78776W        W44256   6.355   6.853   2.209
78777W        W44257  40.389  12.795  14.881
78778W        W44258  27.055  15.105  10.613
78779W        W44259  10.268  32.906  11.394
78780W        W44260  33.427  27.143   4.227
78781W        W44261  21.247  19.145   1.714
78782W        W44262  33.605  34.919  11.427
78783W        W44263   8.855  31.007   4.244
78784W        W44264  37.860  40.890  13.823
78785W        W44265  19.668  24.508   4.272
78786W        W44266  33.501  36.902  12.481
78787W        W44267  38.920  14.175   1.780
78788W        W44268  21.583   5.911  13.979
78789W        W44269  11.654   5.742  13.461
78790W        W44270  17.077   8.381  13.487
78791W        W44271  39.825   3.909  10.142
78792W        W44272  20.130  40.304   1.853
78793W        W44273   0.347   2.894  10.576
78794W        W44274   5.761   6.678   1.335
78795W        W44275  23.059   1.890  11.439
78796W        W44276  13.247  23.066  13.977
78797W        W44277  11.307   7.905  10.487
78798W        W44278  36.032   7.248  11.983
78799W        W44279  23.562  19.683   1.436
78800W        W44280  11.285   2.292  13.804
78801W        W44281   2.333  23.671   2.323
78802W        W44282   1.441  43.378  11.936
78803W        W44283  16.718  31.089  11.067
78804W        W44284  28.666   4.877  10.546
78805W        W44285  11.345  15.182   3.360
78806W        W44286  12.273  44.885  12.574
78807W        W44287  21.553   0.941  10.010
78808W        W44288  30.606   6.807   4.192
78809W        W44289  12.136   6.865  12.491
78810W        W44290  37.937  18.634   1.907
78811W        W44291   3.818   8.389   2.885
78812W        W44292  29.591  28.185  13.895
78813W        W44293  31.900   4.916  12.452
78814W        W44294  36.586  25.619   1.316
78815W        W44295  26.968  34.590   2.700
78816W        W44296  10.736   0.822  13.816
78817W        W44297  25.019  22.106  10.153
78818W        W44298  29.934  25.066  10.642
78819W        W44299  15.816   3.881   0.310
78820W        W44300  32.631  24.671   2.295
78821W        W44301  24.022   3.852   2.878
78822W        W44302   4.291  15.667   0.768
78823W        W44303  30.630  34.413   4.341
78824W        W44304  37.509   7.259   1.252
78825W        W44305  15.255  33.574  13.515
78826W        W44306   6.280  17.656   0.403
78827W        W44307  16.176  29.429  10.442
78828W        W44308  15.729  40.816  10.900
78829W        W44309  22.246  22.596  13.393
78830W        W44310  42.476  43.016   0.425
78831W        W44311  27.508  17.592  14.993
78832W        W44312   4.803  35.434   2.863
78833W        W44313   5.712   9.841   4.125
78834W        W44314   6.249  29.102   2.372
78835W        W44315   5.902   1.839   1.830
78836W        W44316  43.942  17.600   4.163
78837W        W44317  23.546  37.900   4.747
78838W        W44318  15.197   7.835   4.655
78839W        W44319  27.102  19.169  11.916
78840W        W44320  17.203  20.686   4.829
78841W        W44321   9.870  15.614   3.233
78842W        W44322  39.439  32.571  10.550
78843W        W44323  38.458   7.240  14.835
78844W        W44324  36.435  44.865   4.305
78845W        W44325  44.340  17.159  13.484
78846W        W44326  25.048  37.951  12.465
78847W        W44327  20.209  41.036   0.880
78848W        W44328  13.332   6.812   3.367
78849W        W44329  17.165  16.730  13.361
78850W        W44330  44.763  31.988  13.487
78851W        W44331  38.981  35.876   3.373
78852W        W44332  39.322  15.293   1.322
78853W        W44333  36.562  13.606   3.183
78854W        W44334  31.424  12.208   1.221
78855W        W44335  43.305  29.649   3.386
78856W        W44336  28.543   3.263   1.728
78857W        W44337   0.745  36.908  13.393
78858W        W44338  28.975  41.901   2.682
78859W        W44339  33.914  26.649  13.995
78860W        W44340   1.410  19.168  13.933
78861W        W44341  16.191  38.003  11.063
78862W        W44342  28.941  22.617   4.171
78863W        W44343  39.840  43.806  10.899
78864W        W44344  28.149  37.970  10.487
78865W        W44345  42.380  31.492  14.888
78866W        W44346  16.265   3.328  14.982
78867W        W44347  12.158  25.542  12.465
78868W        W44348   0.297  17.269   0.315
78869W        W44349   9.655  11.129   3.807
78870W        W44350  16.644  17.788   4.248
78871W        W44351  19.108  36.025   0.901
78872W        W44352  30.075  30.448   0.824
78873W        W44353  37.527  26.470   3.749
78874W        W44354  20.166  21.135  12.835
78875W        W44355  39.903   9.862   2.687
78876W        W44356  36.493  30.014  12.836
78877W        W44357  19.248   5.768   0.737
78878W        W44358  35.423   4.884  11.418
78879W        W44359  27.539  11.232  14.423
78880W        W44360  33.506   3.941   1.232
78881W        W44361   6.237   2.966  12.975
78882W        W44362   8.212  34.865  10.461
78883W        W44363  16.272  38.560  10.538
78884W        W44364  12.804  17.183   0.379
78885W        W44365  44.298   0.978  12.397
78886W        W44366  16.772  37.904   0.366
78887W        W44367   6.416  16.719  10.959
78888W        W44368  33.040   8.874   1.289
78889W        W44369  19.606  12.142   3.830
78890W        W44370  20.246   9.764  11.875
78891W        W44371  10.380   0.266  13.307
78892W        W44372  28.672  32.614  11.606
78893W        W44373   2.824  21.731   4.169
78894W        W44374  10.240  40.037  11.527
78895W        W44375  38.982   6.768  11.884
78896W        W44376  33.960  39.416  14.365
78897W        W44377  16.738  39.933  13.353
78898W        W44378  33.043   0.914   3.651
78899W        W44379  35.521  29.138  10.639
78900W        W44380  38.983  38.370  12.054
78901W        W44381  31.441  15.765   2.218
78902W        W44382  38.948  33.618  12.031
78903W        W44383  13.202   5.249   4.223
78904W        W44384  43.399   6.830   1.248
78905W        W44385  32.949  30.052   0.361
78906W        W44386  41.454  43.007  14.299
78907W        W44387  27.969  15.584   3.359
78908W        W44388  39.886  11.329   1.741
78909W        W44389  39.883  39.379  13.489
78910W        W44390  19.569  35.031   0.936
78911W        W44391  41.889  23.645  12.343
78912W        W44392  21.511  28.936   4.288
78913W        W44393  10.160  10.303   3.165
78914W        W44394  42.885   7.300  11.965
78915W        W44395  35.934  39.360  14.430
78916W        W44396   6.855  15.787   2.769
78917W        W44397  42.411  36.949   1.899
78918W        W44398  19.639   8.725   1.412
78919W        W44399  13.137  43.461  12.353
78920W        W44400  14.699   8.282   2.274
78921W        W44401  29.541  21.695   0.946
78922W        W44402  26.166  20.754  14.938
78923W        W44403  14.705  30.596   1.718
78924W        W44404  40.815   8.730   4.756
78925W        W44405  44.314  34.561   2.686
78926W        W44406  29.659  14.664  14.919
78927W        W44407  32.958  27.179  12.951
78928W        W44408  14.700  12.824   5.621
78929W        W44409  38.840  38.467  10.119
78930W        W44410  34.442  20.060   2.262
78931W        W44411  33.584   3.759  13.413
78932W        W44412  12.333  38.435  12.489
78933W        W44413  10.343  12.242  14.406
78934W        W44414  40.842  10.284   1.269
78935W        W44415  25.679  31.538  14.324
78936W        W44416  27.982  29.512  11.433
78937W        W44417  12.732  11.236   0.449
78938W        W44418  41.004  44.294   2.840
78939W        W44419  32.971  29.172  12.069
78940W        W44420   6.204  35.957   5.127
78941W        W44421   5.234  30.651   2.762
78942W        W44422  25.145  39.442  13.903
78943W        W44423   2.957   7.741  12.353
78944W        W44424   6.272  32.536  11.431
78945W        W44425  11.713  22.054   0.288
78946W        W44426  19.565  29.630   1.450
78947W        W44427  30.950  23.178  11.395
78948W        W44428  31.445  24.224  14.393
78949W        W44429  21.017  21.701   0.317
78950W        W44430   4.917  30.106   4.655
78951W        W44431  14.625  21.149  13.312
78952W        W44432  44.840  20.198   4.695
78953W        W44433  12.785  33.477   1.343
78954W        W44434  42.900  32.579  10.483
78955W        W44435  36.466   4.855  10.590
78956W        W44436  40.395  11.627  12.007
78957W        W44437   1.842  13.646  11.468
78958W        W44438  44.269  26.009   0.740
78959W        W44439  25.204   6.423  11.549
78960W        W44440   8.215  16.207  12.419
78961W        W44441  42.984  21.118  11.021
78962W        W44442  35.540  16.077  10.638
78963W        W44443  18.108  21.662   1.887
78964W        W44444  24.536  26.463  11.493
78965W        W44445  17.237  39.462  10.509
78966W        W44446  28.080  36.044  12.481
78967W        W44447  32.052  10.268  12.035
78968W        W44448  14.778  25.654   3.190
78969W        W44449  21.757   5.420   4.296
78970W        W44450   5.398  16.161   4.641
78971W        W44451  32.965  21.118  10.935
78972W        W44452  44.839   6.902   4.169
78973W        W44453  41.345  27.106   0.273
78974W        W44454   3.435  30.488   3.216
78975W        W44455  31.970   6.873  13.807
78976W        W44456  22.205  39.983   0.329
78977W        W44457  27.975  16.211   0.902
78978W        W44458  29.154  24.486   4.709
78979W        W44459  25.554  41.892  11.580
78980W        W44460  37.507  36.876  12.477
78981W        W44461   9.730  12.193   0.298
78982W        W44462  17.591  15.591  14.873
78983W        W44463  14.612  19.581   1.340
78984W        W44464  18.622  41.431  13.521
78985W        W44465   4.204   6.686   1.926
78986W        W44466   4.858  13.215  14.848
78987W        W44467  38.046  11.179   1.795
78988W        W44468  33.450   6.316   1.889
78989W        W44469  13.219  32.554   4.132
78990W        W44470  11.867  29.973  11.062
78991W        W44471  26.512  20.102  11.900
78992W        W44472  10.287  29.493  11.577
78993W        W44473  13.218  12.141  10.555
78994W        W44474  25.594   5.886   3.177
78995W        W44475  21.558  22.123   1.227
78996W        W44476  38.969  40.486  10.101
78997W        W44477  26.004  13.647  10.485
78998W        W44478  23.207  10.292   1.855
78999W        W44479  10.692  20.179   0.287
79000W        W44480  15.588  28.436   1.723
79001W        W44481  41.386  42.027  13.310
79002W        W44482  31.408  37.487   4.753
79003W        W44483  10.851  39.426  10.632
79004W        W44484  37.557  15.092  12.904
79005W        W44485  13.168  17.659  13.995
79006W        W44486  37.542  27.632  10.081
79007W        W44487  29.518   3.867  13.815
79008W        W44488  15.591  17.643  14.456
79009W        W44489  36.593  26.068   0.336
79010W        W44490  15.581  31.123  11.590
79011W        W44491  42.927  16.656  14.409
79012W        W44492  41.340   3.459  12.915
79013W        W44493  11.315  43.359   3.175
79014W        W44494  15.790  29.612  11.041
79015W        W44495  18.752   4.808  14.412
79016W        W44496   4.204   5.345   2.829
79017W        W44497  26.064  25.143   0.915
79018W        W44498  41.342   2.874   4.674
79019W        W44499  17.742  30.978   3.272
79020W        W44500  38.917  26.475   0.831
79021W        W44501  35.542  10.720   0.824
79022W        W44502  13.759   9.311   0.398
79023W        W44503  11.824  14.251   0.266
79024W        W44504  35.587  43.970   0.914
79025W        W44505  32.557  30.568   4.739
79026W        W44506  32.622  12.650   2.317
79027W        W44507  34.039  24.206   2.815
79028W        W44508  28.984  12.145  10.484
79029W        W44509  10.235  24.063  10.968
79030W        W44510  19.212  10.701  14.487
79031W        W44511  31.445  12.823   4.337
79032W        W44512   8.346  16.085   3.725
79033W        W44513  24.544  31.613   0.951
79034W        W44514   8.886  27.585   3.261
79035W        W44515  26.075  12.618   3.847
79036W        W44516  18.750  36.094   4.201
79037W        W44517  24.556   5.232  11.068
79038W        W44518  22.624   1.288  14.942
79039W        W44519  28.992   6.772   1.360
79040W        W44520  28.960   0.766   2.262
79041W        W44521  27.195  24.577   3.351
79042W        W44522  15.240  35.406  14.922
79043W        W44523  28.665  21.662  14.018
79044W        W44524   2.962   1.425  12.834
79045W        W44525  42.420  10.863   0.789
79046W        W44526   3.939  34.474  12.517
79047W        W44527  33.622  22.668   1.843
79048W        W44528  16.129  26.103   9.975
79049W        W44529   8.780  35.079  10.490
79050W        W44530  19.651  22.509   2.727
79051W        W44531  27.463  15.220   3.646
79052W        W44532  23.703  26.502   2.867
79053W        W44533  27.965  42.018  12.976
79054W        W44534  10.682  18.130   3.792
79055W        W44535   5.828   7.375  10.933
79056W        W44536  24.976  13.646   0.448
79057W        W44537   9.882  15.201  10.630
79058W        W44538  14.163  21.063  11.416
79059W        W44539  36.393  39.419  14.990
79060W        W44540  39.512  29.150   1.823
79061W        W44541  43.361   8.732  11.972
79062W        W44542  33.011   1.477  11.427
79063W        W44543  16.621  34.433   2.283
79064W        W44544  12.174  27.067   2.328
79065W        W44545  20.691  35.028   2.742
79066W        W44546  23.016  33.938   1.417
79067W        W44547   0.778  39.043  14.759
79068W        W44548  15.618  10.170  11.533
79069W        W44549   4.440  14.663   4.190
79070W        W44550  34.487  17.248   1.848
79071W        W44551  29.553  40.352   2.717
79072W        W44552  21.174  21.623  13.440
79073W        W44553  26.580  13.818   0.414
79074W        W44554  16.126   4.724   3.851
79075W        W44555  33.446  42.891  10.926
79076W        W44556   7.257  29.447   0.731
79077W        W44557  18.679  16.273  11.063
79078W        W44558  42.297  43.467   3.711
79079W        W44559  40.902  14.295   5.304
79080W        W44560  32.066  35.514  13.946
79081W        W44561   4.915   0.896  12.012
79082W        W44562   9.865   1.894   4.758
79083W        W44563   4.907   7.716   5.252
79084W        W44564  42.914  15.282   4.697
79085W        W44565  22.028  30.488  14.867
79086W        W44566  17.304  23.115   3.711
79087W        W44567  27.044   6.385   0.912
79088W        W44568  32.033  37.832  12.478
79089W        W44569  15.230  19.736  13.387
79090W        W44570  16.668  26.191   4.229
79091W        W44571  43.786  11.633  13.006
79092W        W44572   8.708  14.221  10.521
79093W        W44573  24.179  28.588   0.354
79094W        W44574  43.015  40.459   2.289
79095W        W44575  44.308  14.311  10.054
79096W        W44576  42.442  32.409  13.824
79097W        W44577   1.937  33.002   9.492
79098W        W44578  39.920  15.766   2.763
79099W        W44579  11.822  39.897   5.165
79100W        W44580   5.222  39.966  11.911
79101W        W44581  29.519  21.579  11.464
79102W        W44582   0.446   9.358  12.544
79103W        W44583  12.285  24.496  11.033
79104W        W44584  15.646  35.909   4.823
79105W        W44585  37.422  20.697   4.259
79106W        W44586  16.653  17.565   1.255
79107W        W44587  21.628  32.934   0.766
79108W        W44588  10.843  11.827   1.399
79109W        W44589  33.487   6.400   4.139
79110W        W44590  39.063  31.137  10.904
79111W        W44591  16.717  39.925  13.011
79112W        W44592  14.319   4.910  14.465
79113W        W44593  12.745  38.831  13.457
79114W        W44594   8.168  10.379  11.549
79115W        W44595  35.597  42.851  10.583
79116W        W44596  13.121  21.114   4.727
79117W        W44597  27.468  42.879   1.779
79118W        W44598  29.946  30.530  14.971
79119W        W44599  30.146  39.049  12.537
79120W        W44600   4.875  20.162  10.417
79121W        W44601  23.010  35.405   4.784
79122W        W44602  28.569   6.837   1.914
79123W        W44603  13.191  33.405  12.071
79124W        W44604   1.309   4.393   3.798
79125W        W44605  36.030  26.172  11.603
79126W        W44606   9.719  37.406  11.549
79127W        W44607   4.252  42.933  12.918
79128W        W44608  34.419  10.733   4.742
79129W        W44609  14.188  32.516  14.817
79130W        W44610  34.546   2.310   3.215
79131W        W44611  17.639   7.836   2.317
79132W        W44612   2.793  24.139   4.691
79133W        W44613  20.171  29.990  13.941
79134W        W44614   1.889  31.899  12.079
79135W        W44615   9.183  32.601   0.892
79136W        W44616  43.494  21.518  11.985
79137W        W44617  15.174  11.767   3.254
79138W        W44618  10.247  34.115  14.781
79139W        W44619  24.143   4.442  10.906
79140W        W44620  12.740  43.352  12.354
79141W        W44621  24.550  39.477  13.982
79142W        W44622  42.948  22.076  11.471
79143W        W44623  25.529  39.983   3.769
79144W        W44624   7.268   4.881  11.100
79145W        W44625  25.477  14.328  11.083
79146W        W44626  36.521  32.948   0.934
79147W        W44627   8.232  15.670   3.329
79148W        W44628  36.517   8.390  12.945
79149W        W44629  21.572  43.362   4.223
79150W        W44630   4.325  38.525   1.298
79151W        W44631  21.078  23.711   0.377
79152W        W44632  23.618  24.589   0.248
79153W        W44633  12.225  21.718   0.305
79154W        W44634  39.424   3.398  11.517
79155W        W44635  15.622  35.509   1.912
79156W        W44636   6.233  36.400  12.942
79157W        W44637   7.223  10.342   0.333
79158W        W44638  16.773  42.848  13.980
79159W        W44639  35.863  28.459   0.335
79160W        W44640   3.317  26.684   4.209
79161W        W44641  21.039  40.393  13.512
79162W        W44642   7.889   3.783  12.386
79163W        W44643   4.943  30.054  13.988
79164W        W44644  39.331  35.360   4.283
79165W        W44645   0.947  34.876  13.385
79166W        W44646  39.962  24.978  10.605
79167W        W44647   2.322  36.557  14.791
79168W        W44648   7.277  22.685   1.870
79169W        W44649  42.870  43.912   0.867
79170W        W44650  36.958   6.195  14.874
79171W        W44651  34.061   9.207  14.931
79172W        W44652  16.317   4.766  13.822
79173W        W44653  44.420  15.692  11.873
79174W        W44654   1.760   6.299   2.664
79175W        W44655  37.341  20.057  14.847
79176W        W44656  12.850  37.406   2.731
79177W        W44657  35.975  39.326   0.788
79178W        W44658  23.703  27.547   0.831
79179W        W44659  40.928  27.093   2.748
79180W        W44660   3.806  36.963   2.686
79181W        W44661  41.979   6.789   1.427
79182W        W44662  23.686  33.610   2.692
79183W        W44663  26.552   7.901   3.803
79184W        W44664  16.117  43.981   4.188
79185W        W44665  15.083  16.626  11.445
79186W        W44666   1.259  26.586   2.765
79187W        W44667   6.734  11.780  12.957
79188W        W44668  15.147   6.857   1.428
79189W        W44669   9.667  19.089   4.232
79190W        W44670   3.311  34.371  14.865
79191W        W44671   1.899  41.411   3.359
79192W        W44672  31.935  25.144   1.218
79193W        W44673   8.199  41.385  12.556
79194W        W44674  26.994  11.365  13.038
79195W        W44675  31.114  37.503   1.256
79196W        W44676   6.873  12.169   1.213
79197W        W44677  28.008   3.763   0.799
79198W        W44678   5.404  13.632   3.728
79199W        W44679  43.925  43.331  12.917
79200W        W44680  17.208  40.959   4.617
79201W        W44681   1.242  18.770  10.504
79202W        W44682  20.198  16.665  10.973
79203W        W44683  11.839   1.264   4.695
79204W        W44684   5.760   9.734   3.740
79205W        W44685  29.491  44.915   1.768
79206W        W44686  13.672   1.765  10.418
79207W        W44687  28.042  38.382  14.005
79208W        W44688   5.707  29.486   2.762
79209W        W44689   9.713  31.475  12.350
79210W        W44690   0.336  31.558  12.860
79211W        W44691  25.214  34.933   3.862
79212W        W44692  43.418   0.386  12.548
79213W        W44693  39.454   4.291   4.327
79214W        W44694  27.971  37.476  11.012
79215W        W44695   7.873  42.503  13.364
79216W        W44696  33.443  10.661  11.100
79217W        W44697  39.879   4.308   0.333
79218W        W44698  26.060  12.768  13.540
79219W        W44699  30.146  33.466  11.950
79220W        W44700  21.092   3.721  12.944
79221W        W44701   7.230   0.985   3.751
79222W        W44702  12.177   6.236   3.257
79223W        W44703  16.181  35.943  12.869
79224W        W44704  21.733  30.998  14.945
79225W        W44705  24.599   4.783  13.984
79226W        W44706  22.083  10.257  14.877
79227W        W44707  19.718   7.849  11.510
79228W        W44708  14.752  28.065  10.511
79229W        W44709  19.688  10.335  14.009
79230W        W44710  36.062  11.142  10.994
79231W        W44711   7.717  34.093   4.135
79232W        W44712  27.544  34.010   4.318
79233W        W44713  44.860   4.881   3.172
79234W        W44714  36.962  20.259  13.447
79235W        W44715   7.742  24.212  12.410
79236W        W44716  14.239  20.204   3.661
79237W        W44717  33.130  19.139  13.927
79238W        W44718   9.853  36.051   4.769
79239W        W44719  41.845   3.931  14.013
79240W        W44720  16.744  39.507  13.914
79241W        W44721  19.586  20.154  12.554
79242W        W44722  11.370  37.432  14.499
79243W        W44723  42.824  34.526  12.985
79244W        W44724  39.913  27.572   4.336
79245W        W44725  28.446   1.747  14.278
79246W        W44726  29.173  17.222   1.836
79247W        W44727   0.338   0.747  14.800
79248W        W44728  11.712   1.332  11.503
79249W        W44729  42.807   3.897   5.173
79250W        W44730  39.337  15.808   2.330
79251W        W44731  20.191  23.722   5.186
79252W        W44732  40.479   8.186   1.772
79253W        W44733  14.619  30.646   1.372
79254W        W44734  27.021  16.099   0.820
79255W        W44735  33.394  39.816   9.972
79256W        W44736   1.773   5.702   3.707
79257W        W44737  33.930   0.917  11.106
79258W        W44738   1.765  38.543   0.294
79259W        W44739  18.127  26.606   3.165
79260W        W44740  13.808  20.124   4.153
79261W        W44741  25.195  29.084  10.063
79262W        W44742  27.495  33.902  11.889
79263W        W44743  29.536   1.388   4.694
79264W        W44744   7.342  40.419  14.850
79265W        W44745   3.279  29.925  10.470
79266W        W44746  26.021  19.223  13.333
79267W        W44747  19.134  19.250  11.480
79268W        W44748  16.621  35.473  12.379
79269W        W44749   3.784  27.651   4.634
79270W        W44750  22.074  13.262  12.963
79271W        W44751  31.085  28.086  10.469
79272W        W44752  43.797  34.413   2.717
79273W        W44753  32.623  11.836  10.960
79274W        W44754  34.472  20.087   1.842
79275W        W44755  43.894  25.642   2.859
79276W        W44756  40.015  16.702   0.387
79277W        W44757  28.962  19.044   3.811
79278W        W44758  14.796  37.368   0.888
79279W        W44759  27.524  11.784   2.225
79280W        W44760  27.556  43.328   4.175
79281W        W44761  33.081  19.558  14.920
79282W        W44762  30.026  18.134   3.178
79283W        W44763   2.331  30.467   3.637
79284W        W44764  38.830  37.359   0.383
79285W        W44765  29.649  39.404   1.214
79286W        W44766  19.054  38.421   4.309
79287W        W44767   9.797  44.402   4.191
79288W        W44768   8.783  30.452  14.973
79289W        W44769  10.194  35.077   3.712
79290W        W44770  20.170  39.498  12.539
79291W        W44771  34.115  27.154   3.237
79292W        W44772  24.226   4.729  12.988
79293W        W44773  32.971  29.633   0.291
79294W        W44774  10.364   7.368   0.412
79295W        W44775  37.351  42.515  12.517
79296W        W44776   8.796  39.356   3.155
79297W        W44777  21.209  42.783   4.294
79298W        W44778  12.806  31.546   0.798
79299W        W44779  27.972  39.369  11.587
79300W        W44780  31.080   6.353   0.764
79301W        W44781  41.428  32.088  13.034
79302W        W44782  25.028  15.640   2.731
79303W        W44783   6.720  35.519   2.204
79304W        W44784  27.143  22.568   0.731
79305W        W44785  44.372  36.961   0.401
79306W        W44786   3.356  29.927  12.836
79307W        W44787  24.620  10.648   3.792
79308W        W44788  37.998  24.000   3.196
79309W        W44789   4.309  42.526  14.937
79310W        W44790  19.119   4.389  14.447
79311W        W44791  36.896  17.670   1.829
79312W        W44792   7.710  38.941   3.203
79313W        W44793  22.696  30.607  11.110
79314W        W44794   0.420  16.306   2.862
79315W        W44795  32.393  13.291   4.814
79316W        W44796  30.128  29.161   0.348
79317W        W44797   5.437   9.803   3.805
79318W        W44798  24.026  42.483  14.774
79319W        W44799   6.762  21.172   1.841
79320W        W44800   1.283  10.693   1.808
79321W        W44801  28.562  32.134  13.353
79322W        W44802   5.778   8.693   2.732
79323W        W44803  20.197   5.721   3.858
79324W        W44804  27.510  25.981  14.280
79325W        W44805  18.734  22.586  10.494
79326W        W44806  43.860  10.779  14.395
79327W        W44807   1.865  21.018   3.310
79328W        W44808  28.676   1.788  11.487
79329W        W44809  36.906  33.518   4.348
79330W        W44810  10.219  21.596  13.841
79331W        W44811  19.555  42.804   3.823
79332W        W44812  15.095  24.021   3.656
79333W        W44813  30.095  30.113   3.253
79334W        W44814  26.497  15.312  11.610
79335W        W44815  20.109  30.525  12.571
79336W        W44816   4.351  43.435   0.905
79337W        W44817  11.168  28.091  11.103
79338W        W44818   0.305   6.831  12.909
79339W        W44819   6.763  25.680  12.393
79340W        W44820  41.875   5.863   0.797
79341W        W44821  29.108  22.741   3.281
79342W        W44822  19.597  11.341  13.386
79343W        W44823  23.510  14.115  11.061
79344W        W44824  20.177  43.335  12.456
79345W        W44825  18.114   1.391   0.374
79346W        W44826  44.826  21.034   2.203
79347W        W44827  42.978  21.694  12.026
79348W        W44828  10.213  26.681  13.053
79349W        W44829  37.482  11.208   0.852
79350W        W44830  15.205   8.772   4.708
79351W        W44831  44.756   7.398   1.916
79352W        W44832  35.485  36.066  11.094
79353W        W44833   8.328   9.179  12.534
79354W        W44834  16.180  44.294  12.396
79355W        W44835  36.471  28.055  13.971
79356W        W44836  44.803  42.391   2.745
79357W        W44837  44.499  41.417  14.895
79358W        W44838  43.832  39.948  13.375
79359W        W44839  39.348  33.980  12.369
79360W        W44840  25.206  23.685   0.318
79361W        W44841   3.449  14.817   3.857
79362W        W44842  20.219  41.487  14.306
79363W        W44843  38.568  27.970  11.872
79364W        W44844  27.523  44.418  14.390
79365W        W44845   1.399  41.349   4.654
79366W        W44846  15.652  37.337  13.934
79367W        W44847   2.299  20.232  13.885
79368W        W44848  15.730  25.713  11.587
79369W        W44849  32.020  18.128   0.404
79370W        W44850  31.496  29.648  13.339
79371W        W44851  35.520  33.440   4.245
79372W        W44852  30.465  41.292  14.476
79373W        W44853  23.059  27.603   3.671
79374W        W44854  20.097  24.983   3.185
79375W        W44855   9.828  18.088   1.736
79376W        W44856  41.978   0.885  11.950
79377W        W44857  16.749  20.741  13.859
79378W        W44858  10.307  23.224  10.064
79379W        W44859  28.100  37.051  10.458
79380W        W44860   4.710  40.856   0.812
79381W        W44861  14.633  25.144   4.232
79382W        W44862  16.593  12.752   0.264
79383W        W44863  28.128  38.842   0.874
79384W        W44864  22.201   7.734   1.287
79385W        W44865  24.983  25.199   0.298
79386W        W44866  35.507  40.441   3.663
79387W        W44867   9.163  37.972   2.287
79388W        W44868  33.881   3.313  12.028
79389W        W44869  13.715  23.553  11.994
79390W        W44870   6.836  19.154   1.362
79391W        W44871  24.485   3.942  13.425
79392W        W44872   9.152  40.479   1.439
79393W        W44873  42.971  12.275  11.032
79394W        W44874  35.514  21.515  14.978
79395W        W44875  15.165  13.144  11.064
79396W        W44876  32.053  44.812   0.387
79397W        W44877  15.097   5.435   1.394
79398W        W44878  39.944  32.536   2.742
79399W        W44879  26.483  15.097   4.306
79400W        W44880   7.400  43.295  14.464
79401W        W44881  21.176  28.186  10.560
79402W        W44882   9.830  13.707   2.361
79403W        W44883  17.707  31.507   2.794
79404W        W44884  35.877  44.859  11.035
79405W        W44885  42.376  35.904   0.901
79406W        W44886   0.449   7.837   3.675
79407W        W44887  42.830  20.210   2.861
79408W        W44888  21.715  43.901  14.437
79409W        W44889  24.000  19.756  10.545
79410W        W44890   3.792  32.966   2.868
79411W        W44891  27.000   8.892   5.310
79412W        W44892  40.869   9.646  12.899
79413W        W44893  26.083  41.463  11.006
79414W        W44894  12.313  27.492  12.977
79415W        W44895  19.062  33.961   5.640
79416W        W44896  20.206  21.596  10.423
79417W        W44897  39.452  27.169  10.509
79418W        W44898  39.013  36.060   2.416
79419W        W44899   1.764  21.601   3.198
79420W        W44900  13.164  34.547  14.809
79421W        W44901   6.850  20.578  13.849
79422W        W44902   0.483  34.555   2.684
79423W        W44903  18.646  32.632  14.323
79424W        W44904  14.122  36.899   1.874
79425W        W44905  42.439   5.697   2.686
79426W        W44906  42.980   6.759  13.426
79427W        W44907  28.150  34.898  11.400
79428W        W44908  36.054  21.696   0.935
79429W        W44909  35.494  34.388   3.194
79430W        W44910   4.253  35.415  14.004
79431W        W44911  26.047  34.103  12.988
79432W        W44912  15.823  31.504  14.466
79433W        W44913   6.903  22.538   2.747
79434W        W44914  14.716  18.099   4.817
79435W        W44915   0.755   1.771   1.719
79436W        W44916  43.425  30.007  12.556
79437W        W44917  24.974  30.047  14.396
79438W        W44918  40.400  35.567  11.561
79439W        W44919  23.060  39.509   1.359
79440W        W44920  21.238  23.715  13.315
79441W        W44921  33.583  11.152  14.922
79442W        W44922  25.547  36.538  12.381
79443W        W44923   4.340  41.395   3.317
79444W        W44924  12.831   9.795   4.836
79445W        W44925  16.257  38.819  10.429
79446W        W44926  26.510   9.330   4.743
79447W        W44927  27.668  10.334  11.100
79448W        W44928  12.809   1.339  13.849
79449W        W44929  44.355  17.168   2.380
79450W        W44930  15.113  19.215   3.192
79451W        W44931  30.605   0.922  14.304
79452W        W44932  27.525  31.983   2.371
79453W        W44933   2.321  39.885   1.289
79454W        W44934   3.454  21.077   1.704
79455W        W44935  40.991   8.328   1.273
79456W        W44936  21.242  31.560  13.538
79457W        W44937  39.483  25.570   2.707
79458W        W44938  23.118  13.110   3.343
79459W        W44939   1.389   4.290  10.926
79460W        W44940  41.422  41.913   4.194
79461W        W44941   6.686  32.431   1.719
79462W        W44942  38.070  13.135  14.842
79463W        W44943   1.917  29.470  14.381
79464W        W44944  40.497   6.676  12.541
79465W        W44945  44.461  33.519  13.797
79466W        W44946  12.731  22.634  10.944
79467W        W44947   8.726  23.188   2.814
79468W        W44948  14.764  24.169  13.465
79469W        W44949  17.121  35.109   3.646
79470W        W44950  29.127  36.964   4.145
79471W        W44951  20.569  35.441  14.319
79472W        W44952  31.614  23.563  12.353
79473W        W44953  37.435   4.912  12.897
79474W        W44954  40.399  32.048  10.149
79475W        W44955  18.720  12.762   2.743
79476W        W44956  22.198  36.408   2.285
79477W        W44957  13.129  21.557  11.992
79478W        W44958  39.887   6.227   1.777
79479W        W44959  25.554  14.330  10.521
79480W        W44960  36.987  12.633   3.275
79481W        W44961  26.546  37.919   4.235
79482W        W44962  22.589  11.837  10.912
79483W        W44963   9.152   6.244   2.852
79484W        W44964  22.041  42.409  14.943
79485W        W44965  29.106  33.014  14.817
79486W        W44966  40.531  19.600  13.415
79487W        W44967   4.285  22.710   1.387
79488W        W44968  38.338  36.958   3.707
79489W        W44969  42.943  12.143   3.837
79490W        W44970  40.471   6.761  14.503
79491W        W44971  36.048  39.059   1.392
79492W        W44972  38.357  12.844   2.899
79493W        W44973  42.441  14.720  14.798
79494W        W44974  30.635  34.869   0.805
79495W        W44975   5.866  40.817   0.811
79496W        W44976  16.775  41.416  12.844
79497W        W44977   0.827  31.589  11.923
79498W        W44978  35.999   3.837   3.379
79499W        W44979  17.666  40.435  14.340
79500W        W44980  14.195   8.322   3.222
79501W        W44981  33.003  14.213  11.487
79502W        W44982  35.089  11.191   0.265
79503W        W44983  34.562  15.227  14.302
79504W        W44984  30.475  39.865  12.497
79505W        W44985  35.985   5.411   2.186
79506W        W44986  18.271  12.291   0.775
79507W        W44987  17.784  19.736   5.228
79508W        W44988  14.688  13.665  13.410
79509W        W44989   1.483  14.130   2.313
79510W        W44990   7.204  39.537   3.738
79511W        W44991  43.461  40.033   4.627
79512W        W44992  33.454  31.492  12.544
79513W        W44993   5.909  28.108   4.205
79514W        W44994  21.083  11.282  11.504
79515W        W44995  41.000  10.868  13.983
79516W        W44996  30.620  12.681   3.195
79517W        W44997  16.718   6.773  11.919
79518W        W44998  17.088  27.600  10.054
79519W        W44999  22.178  22.103  14.770
79520W        W45000  16.718   2.892   4.821
79521W        W45001   6.912  30.075  11.947
79522W        W45002  43.771  30.633  14.972
79523W        W45003  43.977  18.690  14.371
79524W        W45004  31.428   6.385   0.851
79525W        W45005  22.659   1.455  12.833
79526W        W45006  32.398  18.555  10.415
79527W        W45007  35.087  23.103   3.741
79528W        W45008   4.288  38.537   0.284
79529W        W45009  24.103  27.969   4.618
79530W        W45010   2.961  20.049  11.522
79531W        W45011   1.401   3.754  11.096
79532W        W45012  20.617  27.070  12.881
79533W        W45013  10.842  27.635   2.861
79534W        W45014   5.411  42.921  10.551
79535W        W45015   3.812  44.466  13.434
79536W        W45016  17.097  17.222  10.037
79537W        W45017  44.857   5.241  10.428
79538W        W45018  20.698  22.696   3.270
79539W        W45019  26.564  37.414   4.237
79540W        W45020  19.150  15.224  13.031
79541W        W45021  19.279  43.455   1.230
79542W        W45022  32.500  14.179  14.790
79543W        W45023  16.734  18.170  10.984
79544W        W45024   4.723   0.756   5.287
79545W        W45025  33.415  12.243   3.200
79546W        W45026  33.404  33.930   1.879
79547W        W45027   4.716  42.296   4.314
79548W        W45028   9.716   6.183   4.161
79549W        W45029  15.320  10.381   0.867
79550W        W45030  17.272   8.187   0.923
79551W        W45031  19.756  16.645  14.323
79552W        W45032  32.404  38.487   1.792
79553W        W45033  32.941   3.257  11.591
79554W        W45034  39.030  26.955   1.316
79555W        W45035   4.927  21.696  14.422
79556W        W45036  34.397  27.081  14.384
79557W        W45037  19.108   3.395   3.824
79558W        W45038  30.445  25.579  11.125
79559W        W45039  10.795  18.678  12.014
79560W        W45040  21.024   5.755  10.942
79561W        W45041   8.330  31.647   2.674
79562W        W45042  27.478  41.413   3.148
79563W        W45043  29.032  24.149  12.421
79564W        W45044  19.709  28.081  14.774
79565W        W45045  44.416  18.571  11.875
79566W        W45046  14.751   1.934   1.695
79567W        W45047  32.920  34.416  10.446
79568W        W45048  20.253  17.227  12.384
79569W        W45049  24.006  12.774   0.760
79570W        W45050  31.006  23.217   1.245
79571W        W45051   4.327  21.546   0.858
79572W        W45052  44.759  26.985  13.927
79573W        W45053  35.878  20.120   2.203
79574W        W45054  31.495  13.807  12.540
79575W        W45055  27.576  26.120  11.873
79576W        W45056  38.942  28.580  14.894
79577W        W45057   2.286  12.303   1.746
79578W        W45058  44.773  41.838  10.492
79579W        W45059  24.141  27.683   1.392
79580W        W45060  10.330  14.227   0.923
79581W        W45061   3.733   3.245  10.111
79582W        W45062   0.954  22.120  14.325
79583W        W45063  34.486   0.870   3.173
79584W        W45064   1.966  27.643  10.939
79585W        W45065  24.692  12.265  14.019
79586W        W45066  24.031  25.492   0.927
79587W        W45067  37.926  41.862  11.448
79588W        W45068   4.324  29.578   4.317
79589W        W45069   9.769  10.696   2.417
79590W        W45070   4.760   2.775   1.277
79591W        W45071  13.689   4.822   3.803
79592W        W45072  39.409  44.870  13.373
79593W        W45073  39.898  42.439  13.495
79594W        W45074  23.116   4.853  10.066
79595W        W45075  30.944   4.213  14.789
79596W        W45076  29.053  17.269  13.487
79597W        W45077  35.429  36.482   3.242
79598W        W45078  17.065   0.387   3.179
79599W        W45079  36.029   2.253  13.907
79600W        W45080  21.714  24.616   3.349
79601W        W45081  20.668  12.772   2.897
79602W        W45082  20.236  30.605   1.910
79603W        W45083  32.083   8.787   0.827
79604W        W45084  12.239   3.250  12.419
79605W        W45085  24.169  40.436   5.205
79606W        W45086  31.463  38.862   3.728
79607W        W45087  16.812  30.539  12.532
79608W        W45088  14.678  12.808   4.806
79609W        W45089  21.032   1.435   1.330
79610W        W45090   2.417  21.618  12.053
79611W        W45091  18.251  19.714  13.380
79612W        W45092  38.924   3.837  11.065
79613W        W45093  19.693  37.412   3.869
79614W        W45094  19.544  44.879   3.209
79615W        W45095  29.669   0.817  11.949
79616W        W45096  26.629   9.375   0.478
79617W        W45097  26.530  17.139  14.433
79618W        W45098  12.825  35.473  13.505
79619W        W45099   7.724  43.458   0.263
79620W        W45100  35.582  18.670  12.376
79621W        W45101   2.793   9.194  14.850
79622W        W45102  40.898  20.535  12.835
79623W        W45103  41.938  32.396  10.960
79624W        W45104  34.092   7.765  11.970
79625W        W45105  40.468  14.665  14.504
79626W        W45106  29.139  24.669  10.481
79627W        W45107  35.055  16.766   0.408
79628W        W45108  37.448  30.619   2.254
79629W        W45109  30.967  43.310  14.902
79630W        W45110  29.173  27.127   3.152
79631W        W45111  36.591  31.990  14.375
79632W        W45112  18.560  17.629  11.096
79633W        W45113  37.410  14.728  10.554
79634W        W45114   9.317   1.970  14.971
79635W        W45115   0.826  40.515  12.381
79636W        W45116  17.124  16.211   4.269
79637W        W45117  15.296  30.042   0.796
79638W        W45118  11.265   6.758   4.754
79639W        W45119  27.019  36.501   4.781
79640W        W45120   6.853   9.851   2.203
79641W        W45121  25.013  28.474   0.411
79642W        W45122  39.911   1.909   0.270
79643W        W45123   8.234  10.829  14.863
79644W        W45124  35.899  21.569  11.015
79645W        W45125  28.672  13.345   4.729
79646W        W45126  23.130  13.216   0.473
79647W        W45127  27.046  35.466   2.258
79648W        W45128  22.671  12.842  14.807
79649W        W45129  37.946  43.278  10.945
79650W        W45130  28.444  24.681  11.002
79651W        W45131  34.912  24.499   1.768
79652W        W45132   6.740  13.704  10.406
79653W        W45133   3.431   2.461   0.334
79654W        W45134   3.411  29.655   5.248
79655W        W45135  23.614  11.715   4.349
79656W        W45136  33.561   3.290  13.820
79657W        W45137  24.719   9.858  12.407
79658W        W45138  37.494  19.627  12.942
79659W        W45139  41.313   1.395   0.292
79660W        W45140  25.976  13.175  13.521
79661W        W45141   8.229  40.329   2.371
79662W        W45142  21.571  19.537  12.562
79663W        W45143  32.905  24.600  14.862
79664W        W45144  23.705   3.738   2.405
79665W        W45145  26.134  17.604   1.259
79666W        W45146  34.073  43.415   4.765
79667W        W45147  32.424  17.129  11.451
79668W        W45148  14.649  22.530  12.027
79669W        W45149  40.828  33.126  10.622
79670W        W45150   1.942   4.219  13.960
79671W        W45151  38.529  11.176   4.650
79672W        W45152  10.746  43.282  10.638
79673W        W45153  14.105  38.074  11.593
79674W        W45154  20.571  34.989  14.281
79675W        W45155  27.178   7.908   1.750
79676W        W45156   8.781  33.086  14.963
79677W        W45157  40.316  14.829  11.377
79678W        W45158  27.994  44.759  11.544
79679W        W45159  15.096  14.316  13.340
79680W        W45160  28.935  17.777   3.642
79681W        W45161  35.368  13.349   2.706
79682W        W45162  44.337   3.270   2.211
79683W        W45163  20.746   3.728   4.668
79684W        W45164  30.491  33.592  10.969
79685W        W45165   3.450  25.023  11.998
79686W        W45166  26.680   8.329   0.929
79687W        W45167   4.434  25.600   3.230
79688W        W45168  39.380   1.366  14.465
79689W        W45169  31.447  35.014   0.782
79690W        W45170  23.137  11.680  14.867
79691W        W45171  15.106   2.923   1.441
79692W        W45172  31.009  19.725   1.310
79693W        W45173  35.571  33.389  10.531
79694W        W45174  17.156  30.538   2.352
79695W        W45175   8.805  15.251  12.577
79696W        W45176   8.863  15.694   3.865
79697W        W45177  13.779  14.834  13.386
79698W        W45178   7.731   6.408  13.323
79699W        W45179   1.810  30.658   4.132
79700W        W45180  33.978  33.933  14.308
79701W        W45181  35.053  28.131   2.738
79702W        W45182  15.245  34.090   2.310
79703W        W45183   0.987  31.640  12.405
79704W        W45184  22.044  13.248   1.723
79705W        W45185  24.621  20.747   2.300
79706W        W45186  18.117  33.588  12.504
79707W        W45187  30.930  26.543  14.341
79708W        W45188  32.456  11.669  13.421
79709W        W45189  25.074   4.746   1.707
79710W        W45190   2.429   6.683   1.307
79711W        W45191  35.000  42.375   1.888
79712W        W45192   3.233  41.943  14.781
79713W        W45193  17.103  29.996   0.863
79714W        W45194  17.305  28.477  13.323
79715W        W45195  21.166   6.389   0.850
79716W        W45196  43.861   6.685  14.515
79717W        W45197  35.521  36.995  14.802
79718W        W45198  32.024   5.828   1.437
79719W        W45199  42.458  31.076   2.672
79720W        W45200  31.422   2.413   2.397
79721W        W45201  37.562  12.852   3.830
79722W        W45202  41.462  32.945  10.971
79723W        W45203  27.618  35.579   2.839
79724W        W45204  30.548   2.398  12.452
79725W        W45205  22.527  40.459  10.022
79726W        W45206   7.887  20.273   0.903
79727W        W45207  17.566  41.496  13.382
79728W        W45208  42.369  21.596   2.871
79729W        W45209  24.646   5.696  14.772
79730W        W45210  42.321  33.104  14.453
79731W        W45211  12.177   5.405   2.366
79732W        W45212  35.986   8.713   2.406
79733W        W45213  44.348  21.637  13.432
79734W        W45214  21.156  37.560   2.665
79735W        W45215  13.273  34.526   2.241
79736W        W45216  41.962  18.691  11.510
79737W        W45217   3.443  32.020  13.912
79738W        W45218  11.855   6.333   1.726
79739W        W45219  38.364   5.808   3.647
79740W        W45220  22.534  43.501  13.545
79741W        W45221  22.144  37.045  12.482
79742W        W45222  36.480  40.955  13.968
79743W        W45223  19.127  20.138   1.409
79744W        W45224  18.119   5.774   0.835
79745W        W45225  33.956  43.491   3.852
79746W        W45226   2.278  25.167  11.425
79747W        W45227  31.617  10.663  11.043
79748W        W45228  37.361  32.023   1.436
79749W        W45229   9.732  41.868  13.481
79750W        W45230  44.296  20.708  12.566
79751W        W45231  22.721   3.356  10.432
79752W        W45232  39.478  17.222   1.702
79753W        W45233  32.442  30.638   2.241
79754W        W45234  43.355  25.036  12.885
79755W        W45235  30.583  14.694   0.452
79756W        W45236  17.115  19.558   3.256
79757W        W45237  15.581  43.939   2.792
79758W        W45238  24.527  43.004   2.389
79759W        W45239   9.875  16.765  13.468
79760W        W45240   5.432   9.199   3.180
79761W        W45241  27.557   8.384  14.327
79762W        W45242   1.910   3.251   2.256
79763W        W45243  18.550   1.422   4.822
79764W        W45244  35.082  33.473  12.079
79765W        W45245  37.574   8.728   3.226
79766W        W45246  29.121  14.639   4.760
79767W        W45247  31.486  20.033  13.361
79768W        W45248  19.097  39.340   1.273
79769W        W45249  39.338  34.065   0.479
79770W        W45250   5.779   3.849  11.098
79771W        W45251  31.034  29.985  12.028
79772W        W45252  33.528  13.843   2.322
79773W        W45253   1.812  26.527   3.856
79774W        W45254   2.860   3.748   1.332
79775W        W45255  22.200  38.033   3.826
79776W        W45256  18.238   4.725   1.254
79777W        W45257  29.531  12.717  12.091
79778W        W45258   2.279  16.191  12.493
79779W        W45259  14.129  19.606   0.372
79780W        W45260  32.392  37.566  12.048
79781W        W45261  44.268   1.973  10.997
79782W        W45262  27.555  19.743  14.343
79783W        W45263  10.272  32.925   3.244
79784W        W45264   9.360   7.190   4.744
79785W        W45265  10.865  40.965  11.945
79786W        W45266  33.588   8.173   0.761
79787W        W45267  14.678  18.709  14.027
79788W        W45268   0.825  17.104   4.695
79789W        W45269   7.171  29.949   3.250
79790W        W45270  42.334  26.679  12.932
79791W        W45271  36.094  32.519  12.482
79792W        W45272   5.407  18.104  11.074
79793W        W45273  41.395  28.633   0.885
79794W        W45274  15.235  33.384  11.419
79795W        W45275  13.331  38.343   4.610
79796W        W45276  34.092  17.071  11.125
79797W        W45277  33.382  35.059  13.881
79798W        W45278  26.510   7.826   4.253
79799W        W45279  33.083   6.211  13.416
79800W        W45280   0.472  10.370   2.244
79801W        W45281  30.585  23.674  10.414
79802W        W45282   9.784  27.678  14.870
79803W        W45283  34.463  35.440  11.537
79804W        W45284  35.081   0.794   0.455
79805W        W45285   1.361  33.904   2.880
79806W        W45286  42.406   3.279   1.317
79807W        W45287  10.308   3.440  14.897
79808W        W45288  26.110  35.404  13.529
79809W        W45289  43.314  31.108   4.669
79810W        W45290  37.882   5.779  13.372
79811W        W45291  22.623   7.275   2.286
79812W        W45292  21.629  14.633  11.129
79813W        W45293  14.833  22.118  11.858
79814W        W45294  12.187  32.584   3.314
79815W        W45295  25.014   5.320  14.017
79816W        W45296  34.521  10.206   0.258
79817W        W45297  31.593  38.024   2.229
79818W        W45298  42.798  41.930  12.007
79819W        W45299  13.828   7.194   1.348
79820W        W45300   7.750   0.909  10.610
79821W        W45301  12.641   4.860   0.844
79822W        W45302  29.012  14.106   0.439
79823W        W45303  23.649  24.115   3.244
79824W        W45304  32.980  31.933   4.803
79825W        W45305  38.420  41.810   2.237
79826W        W45306  11.374  41.316   4.162
79827W        W45307  37.835   8.746   2.796
79828W        W45308   6.834  19.283  14.024
79829W        W45309  25.550  25.155   2.265
79830W        W45310  44.760  36.565   2.872
79831W        W45311  44.910  28.931   1.378
79832W        W45312  42.367  44.864  11.449
79833W        W45313   5.196  34.605   4.149
79834W        W45314  25.213  30.454   1.782
79835W        W45315  37.412   5.839   2.353
79836W        W45316  35.589  15.741   2.252
79837W        W45317  39.529   5.201  13.437
79838W        W45318   5.846  37.414   1.323
79839W        W45319   4.806  42.914   5.277
79840W        W45320  43.995  21.655  12.054
79841W        W45321   6.802  35.587   0.956
79842W        W45322  25.036  34.963   3.204
79843W        W45323  41.988  12.763   0.781
79844W        W45324  26.563  25.704  13.922
79845W        W45325  19.723  32.056   3.170
79846W        W45326  17.669  25.643  11.924
79847W        W45327   5.303  40.400   4.642
79848W        W45328  26.043  30.039  12.827
79849W        W45329   9.186  24.033  10.956
79850W        W45330   1.468  30.511  12.864
79851W        W45331   8.815  20.538   1.237
79852W        W45332  18.153   2.322  12.501
79853W        W45333  21.750  12.160  12.079
79854W        W45334  31.627   7.711  14.315
79855W        W45335   2.406   1.393   0.867
79856W        W45336  20.665  35.856  13.311
79857W        W45337  19.103  24.623   2.781
79858W        W45338  34.001  40.892  11.857
79859W        W45339   9.676  16.305  11.529
79860W        W45340  26.645  13.711  13.850
79861W        W45341  14.165  30.613   4.697
79862W        W45342  42.799  42.953   2.756
79863W        W45343  26.121  15.151   1.287
79864W        W45344  17.265  23.171  14.026
79865W        W45345  28.509  34.880   9.961
79866W        W45346  22.013   1.362   4.329
79867W        W45347  31.908  16.097   1.734
79868W        W45348  40.412  12.784   1.301
79869W        W45349  16.092   0.251  11.983
79870W        W45350  39.364  44.939  11.969
79871W        W45351  38.845  37.955   2.880
79872W        W45352  38.912   9.351  10.421
79873W        W45353  27.664   3.234   4.171
79874W        W45354  18.592  34.583  14.455
79875W        W45355  39.042  13.614  14.773
79876W        W45356  13.315  28.021  14.947
79877W        W45357  29.460  35.857   4.808
79878W        W45358  29.560  12.276   2.824
79879W        W45359  38.919   2.423  10.913
79880W        W45360  42.520   4.862   1.828
79881W        W45361  17.204  10.875   4.349
79882W        W45362  13.683  33.131  10.564
79883W        W45363   0.785  35.540   3.281
79884W        W45364   9.670  20.744   4.241
79885W        W45365  37.867   2.328  11.112
79886W        W45366  43.510   6.787  13.482
79887W        W45367   1.367   8.345  13.842
79888W        W45368  35.877   8.750   1.251
79889W        W45369  31.596   4.390  11.036
79890W        W45370   6.293  24.199   0.809
79891W        W45371   1.322  42.825   3.269
79892W        W45372  11.169  33.898  11.072
79893W        W45373  33.122  11.197   2.687
79894W        W45374  37.886  23.617   3.791
79895W        W45375  41.949  36.471  12.394
79896W        W45376  18.555  32.624  14.950
79897W        W45377  10.157   5.836   2.229
79898W        W45378  30.089  30.127  13.025
79899W        W45379  29.031  13.140  11.557
79900W        W45380  10.235  15.588   0.890
79901W        W45381  35.496  16.610  13.476
79902W        W45382  31.961   9.207   0.267
79903W        W45383  25.021  34.898  14.370
79904W        W45384  10.811   1.279  13.900
79905W        W45385  43.863  33.544   2.731
79906W        W45386  11.813  14.224   3.800
79907W        W45387  36.558   7.799  12.387
79908W        W45388   5.427  20.231   3.658
79909W        W45389  16.189  39.858   1.282
79910W        W45390   4.402  32.886  13.330
79911W        W45391  23.512  37.446  12.068
79912W        W45392  29.993  38.932  11.535
79913W        W45393  38.475  33.940   0.839
79914W        W45394  37.377   9.312   4.166
79915W        W45395  13.684  37.374  12.045
79916W        W45396  14.778  17.670   4.687
79917W        W45397   8.367  16.309  11.927
79918W        W45398   2.770  27.978   1.228
79919W        W45399  38.329  31.957  12.993
79920W        W45400  19.686  12.291   1.418
79921W        W45401   9.244  31.434   1.717
79922W        W45402  33.902  21.119  13.425
79923W        W45403   2.778  12.119   1.450
79924W        W45404  24.624  11.702  10.989
79925W        W45405  32.955  44.284   3.250
79926W        W45406  17.735  44.362   3.255
79927W        W45407  18.265  17.177   4.836
79928W        W45408  34.541   9.248  14.971
79929W        W45409  28.590   3.427  11.961
79930W        W45410  15.739  18.133  12.086
79931W        W45411  21.022   3.802  14.930
79932W        W45412   8.662  22.251  11.126
79933W        W45413  40.411  15.085   3.682
79934W        W45414  10.337  38.823  13.971
79935W        W45415   3.363  38.983  14.926
79936W        W45416  29.996  12.174   2.365
79937W        W45417  37.501   1.830   4.282
79938W        W45418  10.867  26.089  10.457
79939W        W45419   5.808  25.691   1.745
79940W        W45420  28.046  14.681   0.732
79941W        W45421  25.494  24.586   4.141
79942W        W45422  22.135  38.467   4.340
79943W        W45423  16.242  17.688   4.279
79944W        W45424  20.670  28.677   4.135
79945W        W45425  35.588  17.154   0.439
79946W        W45426  41.438   6.237  13.846
79947W        W45427   7.728  33.556   3.821
79948W        W45428  21.636  37.434   2.822
79949W        W45429  19.175   5.809  14.426
79950W        W45430   3.404   9.689  14.962
79951W        W45431  18.608  12.795   3.663
79952W        W45432  24.157  19.560   0.881
79953W        W45433   6.427  11.718  10.587
79954W        W45434  21.246  35.023   1.840
79955W        W45435  40.482  41.518  11.493
79956W        W45436   9.169   0.376  10.548
79957W        W45437  35.552   9.752  13.041
79958W        W45438  37.912  24.145  14.917
79959W        W45439   9.378  41.886   0.326
79960W        W45440  27.624  18.172   1.912
79961W        W45441   7.325  20.697  13.307
79962W        W45442   1.868  13.717   1.274
79963W        W45443  43.999   5.817   4.348
79964W        W45444  31.914  12.302  14.761
79965W        W45445  28.025   4.800   3.832
79966W        W45446   8.855  36.488  13.811
79967W        W45447  27.450  41.952   3.193
79968W        W45448   2.853  14.775  12.483
79969W        W45449  17.149  20.224  10.925
79970W        W45450  30.470  15.174   2.203
79971W        W45451   3.271   4.811  12.446
79972W        W45452   2.277  16.163   2.383
79973W        W45453  38.945   5.768  11.041
79974W        W45454  34.118   4.783   1.451
79975W        W45455  39.989  24.661  14.030
79976W        W45456  38.416  11.331  13.424
79977W        W45457  36.061   2.766   0.378
79978W        W45458  37.368  33.385  11.116
79979W        W45459  40.444  35.453   2.821
79980W        W45460  26.587  19.637  11.108
79981W        W45461  25.675  16.631   0.759
79982W        W45462  23.562   0.405   3.345
79983W        W45463   5.917  19.632  11.513
79984W        W45464  34.954  23.197  14.015
79985W        W45465  13.314  31.980  11.543
79986W        W45466   0.351   3.405  14.504
79987W        W45467  25.530   6.893  14.329
79988W        W45468  32.438  23.201   4.648
79989W        W45469  11.244  30.922  13.913
79990W        W45470  40.549  34.502   3.665
79991W        W45471  17.794  37.565   0.790
79992W        W45472   2.472  23.202  13.500
79993W        W45473  12.677  21.651   1.765
79994W        W45474  22.688   2.371   3.273
79995W        W45475  30.631  36.009  13.027
79996W        W45476  21.666   5.915  14.488
79997W        W45477   2.731  41.451   0.729
79998W        W45478  36.523  39.548  13.813
79999W        W45479   1.308  25.969   1.912
80000W        W45480  40.869   1.922   2.698
80001W        W45481  11.818  20.538  11.405
80002W        W45482  28.503  41.381  12.977
80003W        W45483  40.430  35.955   0.262
80004W        W45484   8.391  13.327  14.445
80005W        W45485  14.146  12.627   1.789
80006W        W45486  39.519   3.411   1.910
80007W        W45487  29.474  17.281   0.819
80008W        W45488  19.276   3.873   4.722
80009W        W45489  38.538  29.434   4.189
80010W        W45490  20.066  17.174   0.818
80011W        W45491  16.574  41.528   0.306
80012W        W45492  23.525  43.407   3.244
80013W        W45493  44.967   3.287  11.036
80014W        W45494  26.990  39.823  10.549
80015W        W45495   9.693  27.124  13.853
80016W        W45496  14.673  24.120  11.116
80017W        W45497   4.700  26.062  11.494
80018W        W45498  20.608  43.933   1.855
80019W        W45499  13.803  33.464   2.729
80020W        W45500   0.288  31.075  11.948
80021W        W45501  24.146  34.397   2.822
80022W        W45502  22.603   0.795  10.448
80023W        W45503  31.983  29.541   2.719
80024W        W45504  19.694  13.126   0.406
80025W        W45505  20.722   2.908  14.465
80026W        W45506  13.677  15.147   3.193
80027W        W45507  18.736  18.784   4.728
80028W        W45508   2.379   4.205   4.201
80029W        W45509  38.845  28.465  10.544
80030W        W45510  36.880  10.727  10.976
80031W        W45511   3.877   8.833   0.403
80032W        W45512  35.417  25.710   1.397
80033W        W45513  19.242  35.541   1.256
80034W        W45514  12.701  10.356   3.223
80035W        W45515  25.642  22.624  10.629
80036W        W45516   0.302  28.142  14.443
80037W        W45517   6.793   5.703   4.223
80038W        W45518   6.838  40.873   2.354
80039W        W45519  38.513  14.319  10.624
80040W        W45520  34.400   1.332   1.430
80041W        W45521  35.076  12.613  11.449
80042W        W45522   2.257  18.186   4.149
80043W        W45523   6.827  40.916   3.381
80044W        W45524  29.015  26.140   1.926
80045W        W45525  37.874   0.916   1.303
80046W        W45526  19.579   7.357  12.084
80047W        W45527  20.608  24.130  10.508
80048W        W45528  35.859  37.383   0.881
80049W        W45529  39.007  11.149   1.772
80050W        W45530  27.108  16.078  13.344
80051W        W45531   9.707  25.978  13.533
80052W        W45532  23.150  43.976   3.316
80053W        W45533  27.941   5.359  13.007
80054W        W45534  37.357  20.062   3.736
80055W        W45535   2.424  40.045   2.380
80056W        W45536  29.462  16.712  12.903
80057W        W45537  38.521   5.223  11.006
80058W        W45538  13.677  28.102   3.870
80059W        W45539   6.727  17.237   3.728
80060W        W45540  43.458  28.488  14.905
80061W        W45541   3.717  11.264  11.372
80062W        W45542  26.979  28.522  12.924
80063W        W45543  39.914  24.689   3.848
80064W        W45544  12.359  41.457   1.261
80065W        W45545  28.630  31.417  14.340
80066W        W45546  24.503  21.681  11.597
80067W        W45547  19.680  10.337  14.489
80068W        W45548  12.268  12.758   0.272
80069W        W45549  32.425   5.303   3.748
80070W        W45550   7.201   3.441   2.758
80071W        W45551   1.364  13.673   1.387
80072W        W45552  25.558   0.949  12.353
80073W        W45553  43.431  37.492  10.954
80074W        W45554  15.153  28.564  11.444
80075W        W45555  23.505  17.636  13.493
80076W        W45556  24.663  32.897   2.679
80077W        W45557  19.171  28.158  13.395
80078W        W45558  10.760  25.615  10.426
80079W        W45559  17.770  42.781   0.347
80080W        W45560  13.676  33.089  10.038
80081W        W45561   4.425  10.278  13.523
80082W        W45562  21.075  31.450  11.575
80083W        W45563   6.198   1.901   0.446
80084W        W45564  42.383  10.659   1.817
80085W        W45565  12.267  30.487   3.161
80086W        W45566  44.876  40.465   0.851
80087W        W45567  10.212  12.118  11.490
80088W        W45568  14.128  36.923   3.322
80089W        W45569   8.350  33.462  11.923
80090W        W45570  16.266  37.019  14.479
80091W        W45571  31.037  17.592   0.957
80092W        W45572   0.271  22.205  12.512
80093W        W45573  34.990  23.691  12.348
80094W        W45574   7.901   3.271   0.242
80095W        W45575   1.378  35.546   4.176
80096W        W45576  39.528  24.624  12.368
80097W        W45577   5.325   6.822  12.039
80098W        W45578   5.334  31.421   1.765
80099W        W45579   5.880  23.103   4.601
80100W        W45580  24.021  17.118   3.691
80101W        W45581   6.398  34.943   0.746
80102W        W45582   2.334  22.668   3.785
80103W        W45583  18.770  35.860   2.855
80104W        W45584  26.460  42.294   2.380
80105W        W45585  31.518  41.005  13.809
80106W        W45586  12.631  34.577  14.912
80107W        W45587  11.662   2.466  13.323
80108W        W45588  13.283  28.007   0.247
80109W        W45589   5.703   3.848  11.449
80110W        W45590  27.627  21.046   5.221
80111W        W45591   6.220  35.051   2.754
80112W        W45592  14.709  17.613   0.861
80113W        W45593  37.952   5.368   4.649
80114W        W45594  21.685  36.435  11.420
80115W        W45595  18.756   0.874   0.413
80116W        W45596  24.610  15.699   2.794
80117W        W45597  40.489  30.416  11.036
80118W        W45598  29.455   3.370   2.208
80119W        W45599  42.317   2.326   0.811
80120W        W45600  39.036  37.860  12.463
80121W        W45601  13.175  11.240   2.304
80122W        W45602   7.210  30.073  11.405
80123W        W45603  11.750  42.453   5.213
80124W        W45604  32.974  13.818   3.369
80125W        W45605  17.122  14.786   5.320
80126W        W45606  43.004  25.043   1.905
80127W        W45607  14.112   2.336  14.866
80128W        W45608  29.130   2.246  11.450
80129W        W45609  37.440  35.975   1.923
80130W        W45610  30.928  31.030  12.484
80131W        W45611  41.515  30.504  10.622
80132W        W45612   9.244  10.351   1.804
80133W        W45613  35.461   6.793  13.533
80134W        W45614   6.389  26.960  10.523
80135W        W45615  11.160  37.087  14.833
80136W        W45616  21.026  32.519   0.402
80137W        W45617  39.421  38.850  14.474
80138W        W45618  36.933  44.426   3.769
80139W        W45619  16.684  37.461   4.757
80140W        W45620  27.473  16.157  11.604
80141W        W45621  12.270  26.110   4.651
80142W        W45622  33.404  44.400  10.592
80143W        W45623  34.983  35.958  13.397
80144W        W45624  19.544  37.341  11.065
80145W        W45625  26.610  28.008  13.864
80146W        W45626  16.636   5.264  13.925
80147W        W45627  32.463   6.797   0.376
80148W        W45628  39.818  26.046   3.643
80149W        W45629  20.591  40.032  12.471
80150W        W45630  42.929   9.225   1.228
80151W        W45631  12.295   5.876   2.263
80152W        W45632  31.035  15.599  14.991
80153W        W45633  28.030  35.025  10.510
80154W        W45634  23.033  27.099  11.479
80155W        W45635   5.832   2.337   0.880
80156W        W45636   6.707   1.249  13.046
80157W        W45637  22.051  32.405   3.802
80158W        W45638  28.454  17.069  14.937
80159W        W45639  34.483  25.528  11.106
80160W        W45640  24.665  30.651   1.228
80161W        W45641  42.413  40.495  14.319
80162W        W45642  10.383  40.978   0.395
80163W        W45643  10.211  37.467  12.059
80164W        W45644  31.437  14.310   2.196
80165W        W45645  12.612  13.606   2.806
80166W        W45646  32.031   6.876   1.884
80167W        W45647  24.653  20.138   0.762
80168W        W45648  38.491  25.701   3.205
80169W        W45649  31.575  26.041   2.186
80170W        W45650  25.679  37.974   1.355
80171W        W45651  15.621  11.694   2.727
80172W        W45652  20.694  34.052  10.898
80173W        W45653  20.717  12.831   0.752
80174W        W45654  28.632  31.610  14.961
80175W        W45655  15.237   7.185   0.870
80176W        W45656  17.612  44.805   0.377
80177W        W45657  22.652  10.632  14.297
80178W        W45658  14.315  17.564  12.061
80179W        W45659  11.268  44.874  10.545
80180W        W45660  31.931  17.233  13.041
80181W        W45661  13.802  20.616   4.730
80182W        W45662  38.949  31.037   0.847
80183W        W45663  13.832  27.457   4.689
80184W        W45664  37.395  20.639  13.504
80185W        W45665  34.103  30.618  11.974
80186W        W45666  18.651  36.095   0.821
80187W        W45667  33.056  42.382  14.945
80188W        W45668   6.687  40.051   0.843
80189W        W45669   4.449  40.514   2.386
80190W        W45670   7.741   8.164   4.795
80191W        W45671  18.191  25.595   4.354
80192W        W45672  14.759  26.970  12.022
80193W        W45673  14.151   7.853   2.194
80194W        W45674   3.366  42.793  13.878
80195W        W45675   0.816  16.656   4.609
80196W        W45676  27.018  18.665   1.409
80197W        W45677   0.331  24.691   1.909
80198W        W45678   8.173  19.046   2.252
80199W        W45679   8.310  23.049  10.983
80200W        W45680  30.449  13.343   5.272
80201W        W45681   9.275  21.722   1.417
80202W        W45682  22.672   0.485  11.582
80203W        W45683   9.653   8.259   1.217
80204W        W45684  15.681  19.684  13.388
80205W        W45685  38.420   6.713   0.745
80206W        W45686  25.055  23.055  13.540
80207W        W45687  26.028  39.369   3.650
80208W        W45688   0.889   9.763  14.910
80209W        W45689  23.732  11.839   3.296
80210W        W45690  29.546   4.842   3.735
80211W        W45691  38.834  15.579  14.474
80212W        W45692  25.485  27.077   0.814
80213W        W45693  43.780   8.270  12.445
80214W        W45694  13.809   8.367  14.312
80215W        W45695  29.550  35.084   1.930
80216W        W45696  14.263  40.321  14.871
80217W        W45697   7.700   2.795   2.400
80218W        W45698  16.812  19.636  13.317
80219W        W45699  11.850  30.084  10.458
80220W        W45700  26.672  15.134  10.097
80221W        W45701  19.138  18.649   2.305
80222W        W45702  18.191  22.737  11.974
80223W        W45703   9.283   2.425  13.030
80224W        W45704  12.161  19.284  12.027
80225W        W45705  28.980  20.056  11.974
80226W        W45706  33.490  28.457   4.623
80227W        W45707   7.795   8.252  10.447
80228W        W45708   8.170  43.845  10.521
80229W        W45709   9.679   3.269  12.374
80230W        W45710  24.175  44.938   0.417
80231W        W45711  24.061  11.200   1.874
80232W        W45712   4.303  40.908   4.658
80233W        W45713  14.335  35.422   1.923
80234W        W45714   5.341  16.592   0.923
80235W        W45715  26.031  12.356   4.640
80236W        W45716  38.991  37.965  10.948
80237W        W45717  17.192  15.293   4.813
80238W        W45718  27.528  39.043  14.835
80239W        W45719  15.248  11.694  13.815
80240W        W45720  37.940  23.489   1.927
80241W        W45721  23.532  29.939  11.400
80242W        W45722  40.420  28.018   2.236
80243W        W45723   6.356  31.902   2.348
80244W        W45724  27.189  33.054  13.520
80245W        W45725  27.056   3.253   0.259
80246W        W45726  10.175  13.770   2.277
80247W        W45727  15.235  21.692  13.873
80248W        W45728  37.896   1.342   1.795
80249W        W45729  21.208   9.154   5.167
80250W        W45730  16.607  41.383  14.953
80251W        W45731   8.393   1.277  12.009
80252W        W45732  41.987  14.827   1.924
80253W        W45733   7.846  19.642  12.023
80254W        W45734  19.726  25.036   1.416
80255W        W45735  34.955   3.444  13.793
80256W        W45736  30.439  38.956   5.248
80257W        W45737  34.378   0.357   1.908
80258W        W45738   3.383   8.264   0.357
80259W        W45739  22.189  20.258  13.321
80260W        W45740   9.167   2.256  11.552
80261W        W45741   8.896  43.453   4.177
80262W        W45742  13.834  15.240   4.645
80263W        W45743  44.274  20.608   1.857
80264W        W45744   4.237  33.071   5.721
80265W        W45745  12.362  22.703  14.769
80266W        W45746  25.982  41.409  13.452
80267W        W45747   7.217   8.204   2.872
80268W        W45748  15.124  29.574   2.729
80269W        W45749  34.411  29.927  12.964
80270W        W45750  18.686  15.280  12.482
80271W        W45751   0.392  16.655   0.389
80272W        W45752   7.834  40.315  11.011
80273W        W45753  40.822  39.888   4.637
80274W        W45754   3.240   2.813   3.719
80275W        W45755   9.150  19.273   1.437
80276W        W45756  40.393  33.910  12.951
80277W        W45757  30.412  24.525   2.188
80278W        W45758  40.372  23.509  11.003
80279W        W45759  23.582  38.516  11.062
80280W        W45760  19.660  30.474  13.392
80281W        W45761  32.605  43.867   4.332
80282W        W45762   6.182  18.568  10.539
80283W        W45763  19.061  44.396  12.824
80284W        W45764  34.531   5.212  13.339
80285W        W45765   9.731  26.515  14.814
80286W        W45766  37.374  29.653  13.848
80287W        W45767  24.505  35.976   1.742
80288W        W45768  34.458  17.677  12.400
80289W        W45769  19.133  18.131   0.850
80290W        W45770  42.817  29.492   1.739
80291W        W45771   1.310   3.927   1.363
80292W        W45772   9.298  42.283  14.383
80293W        W45773   4.326  35.513  10.486
80294W        W45774   1.353  28.120  11.405
80295W        W45775  17.223  20.714   1.214
80296W        W45776  15.590   7.217   3.154
80297W        W45777  19.778  32.436  14.923
80298W        W45778  12.122  12.770   2.417
80299W        W45779  10.874  24.630   2.874
80300W        W45780  14.647  21.670   0.839
80301W        W45781   4.355  34.991   0.285
80302W        W45782  29.443   5.258  14.494
80303W        W45783  13.775  21.131   4.761
80304W        W45784  39.957  34.518  10.549
80305W        W45785  30.052  11.367   3.386
80306W        W45786  37.943   1.832   4.728
80307W        W45787  26.689  17.791  14.476
80308W        W45788   9.650  26.500   0.309
80309W        W45789  33.536  32.117   1.328
80310W        W45790  36.530   9.326   4.118
80311W        W45791  37.992  37.065  10.633
80312W        W45792  41.809  30.425   3.635
80313W        W45793  14.743  35.031  10.115
80314W        W45794  26.044  29.627  10.934
80315W        W45795   7.389  31.083   5.304
80316W        W45796  29.617  32.615   3.705
80317W        W45797  19.551  17.179  13.396
80318W        W45798  40.006   8.169  12.564
80319W        W45799  17.574  34.493  10.499
80320W        W45800  37.996  11.733   3.315
80321W        W45801  44.313  24.224   1.838
80322W        W45802  37.498  11.288   3.255
80323W        W45803   7.337  29.602   2.330
80324W        W45804  41.384  26.137   1.317
80325W        W45805  23.504  41.983   3.224
80326W        W45806  33.385  18.669  12.450
80327W        W45807  23.141  43.965  14.858
80328W        W45808  44.268  33.122  11.379
80329W        W45809  36.440  41.949   1.409
80330W        W45810  32.412   3.218   1.906
80331W        W45811  15.731  44.835   2.225
80332W        W45812  41.000  37.541  11.903
80333W        W45813  18.608  20.144  14.507
80334W        W45814  12.357  37.384  11.984
80335W        W45815  18.125  31.502  14.788
80336W        W45816  28.942  31.477   3.177
80337W        W45817  10.806   7.803   3.809
80338W        W45818  44.458   8.861   0.379
80339W        W45819  38.434   9.338  12.369
80340W        W45820   1.297   1.822  12.014
80341W        W45821  37.335  13.628  12.048
80342W        W45822   9.684  33.434  13.420
80343W        W45823  24.536  23.019   4.265
80344W        W45824  31.138  27.480   3.354
80345W        W45825  18.169  33.054  12.453
80346W        W45826   6.373  41.029  14.383
80347W        W45827   8.812   7.803  10.628
80348W        W45828  15.600  16.614  12.078
80349W        W45829   3.800  32.452   1.918
80350W        W45830  10.679  11.816  11.597
80351W        W45831  38.409  36.562  12.351
80352W        W45832  35.452  25.514   3.796
80353W        W45833  32.427  11.723  14.494
80354W        W45834  36.472   9.764   3.738
80355W        W45835  26.600  30.065  10.994
80356W        W45836  41.969   0.926  11.516
80357W        W45837  10.309   0.487  11.521
80358W        W45838   9.285  42.344   0.477
80359W        W45839  22.027  13.803  14.428
80360W        W45840  29.015  27.182   4.196
80361W        W45841  12.162  29.051  12.356
80362W        W45842  11.360  42.440  12.057
80363W        W45843  27.074   8.298   4.767
80364W        W45844  38.020  26.580   3.238
80365W        W45845  20.163  31.607  14.915
80366W        W45846  40.055  14.739  11.595
80367W        W45847  34.484  27.133   4.658
80368W        W45848  28.526  19.160   4.713
80369W        W45849  30.584  28.620   2.848
80370W        W45850   5.797   0.334  14.798
80371W        W45851  29.158   3.754  11.421
80372W        W45852  18.698  31.479  11.066
80373W        W45853  16.302  22.094   0.422
80374W        W45854  32.038  19.127   3.751
80375W        W45855   9.662  36.983   0.860
80376W        W45856  15.281  35.485  11.936
80377W        W45857   4.424  32.611  13.966
80378W        W45858  31.566  16.746   2.801
80379W        W45859  38.489   8.179  13.912
80380W        W45860  27.174  11.329   0.256
80381W        W45861  28.575  10.361  11.932
80382W        W45862  42.824  24.167   1.804
80383W        W45863  20.080   8.761  12.925
80384W        W45864   4.434  23.221   2.412
80385W        W45865  30.147  17.177   0.916
80386W        W45866  26.997  14.214  13.063
80387W        W45867  10.207  27.116  14.787
80388W        W45868  31.953  21.719  14.027
80389W        W45869  35.070  44.476   5.264
80390W        W45870   3.906  12.610  14.418
80391W        W45871  20.524  28.158   3.182
80392W        W45872  33.558   5.409   3.160
80393W        W45873   6.373  27.053   0.965
80394W        W45874  15.234  14.147  11.579
80395W        W45875  37.977  40.389  11.445
80396W        W45876  14.674   3.929  11.858
80397W        W45877   3.746   3.307   1.827
80398W        W45878  13.834  39.365   3.273
80399W        W45879  25.541  28.523  11.015
80400W        W45880  29.010  32.477  10.404
80401W        W45881  29.606  34.497  11.886
80402W        W45882  34.402  10.844  10.993
80403W        W45883  41.915  11.692  10.947
80404W        W45884   3.270  41.965  13.954
80405W        W45885  28.659  27.619   0.923
80406W        W45886  33.069  36.410   0.853
80407W        W45887  28.065  17.078   0.747
80408W        W45888   8.757  31.600  11.080
80409W        W45889  27.138  25.620   1.441
80410W        W45890   4.848   3.892  12.999
80411W        W45891  13.696  38.415   1.265
80412W        W45892  43.820  44.408  13.497
80413W        W45893   9.289  41.041  10.425
80414W        W45894  10.749   8.854  11.888
80415W        W45895  43.355  31.949  10.939
80416W        W45896   0.286  40.962  13.823
80417W        W45897  40.044  38.069   1.233
80418W        W45898  10.757  20.134   3.286
80419W        W45899  19.769   2.446  13.341
80420W        W45900  41.868  19.703   3.654
80421W        W45901  18.201   8.898   0.410
80422W        W45902  43.395  19.218   2.349
80423W        W45903  17.654   0.287   2.330
80424W        W45904  33.459  36.860  13.024
80425W        W45905  30.545  31.899   5.267
80426W        W45906  16.136  23.032   3.343
80427W        W45907  20.090   5.313  12.353
80428W        W45908  34.605  18.202   2.849
80429W        W45909  19.615  19.556   4.298
80430W        W45910  40.859  19.597   2.253
80431W        W45911   8.797  18.638   5.160
80432W        W45912   6.702   4.733  11.568
80433W        W45913  32.072  20.114  14.457
80434W        W45914  20.226  37.840   0.416
80435W        W45915  38.571  14.788   4.763
80436W        W45916  36.082   0.337   3.667
80437W        W45917  13.741  13.775   3.848
80438W        W45918  16.187  29.994  14.979
80439W        W45919  12.747  37.538   1.779
80440W        W45920  44.822   5.416  13.905
80441W        W45921  41.990  23.582   2.342
80442W        W45922   6.846  28.074   1.268
80443W        W45923  36.423  33.110   0.253
80444W        W45924  25.501  13.341   0.801
80445W        W45925  41.928  23.050   4.642
80446W        W45926  17.246  35.016   0.444
80447W        W45927  10.242  12.236   2.802
80448W        W45928  19.279  44.882  10.622
80449W        W45929   9.815  22.049  11.421
80450W        W45930  12.739   1.354  12.568
80451W        W45931  13.770  10.374   2.742
80452W        W45932  21.649  12.138  13.399
80453W        W45933  11.219  44.499   3.640
80454W        W45934  11.257  30.512  12.875
80455W        W45935  25.967  17.258   2.226
80456W        W45936  24.648  20.566   3.269
80457W        W45937  28.984  10.866  11.100
80458W        W45938  11.299  37.027  12.042
80459W        W45939  38.542  34.599  10.947
80460W        W45940  41.977  23.208  10.459
80461W        W45941   0.443   7.884   2.373
80462W        W45942   6.338  34.528   1.222
80463W        W45943  44.304  22.729   4.752
80464W        W45944  19.154  32.072   0.452
80465W        W45945   5.242  30.530   1.768
80466W        W45946   3.711  26.591   1.924
80467W        W45947  42.007  21.114   3.374
80468W        W45948  20.258  31.974   5.315
80469W        W45949  19.139  41.414  13.366
80470W        W45950   5.226  40.311  12.420
80471W        W45951   9.272   4.447  12.010
80472W        W45952  30.607  32.920   4.154
80473W        W45953   8.899  30.033  12.901
80474W        W45954  11.356  34.939  11.437
80475W        W45955  35.914   9.172   4.202
80476W        W45956  21.192   7.235   0.397
80477W        W45957  40.361  33.408  11.107
80478W        W45958  37.060   8.257  11.893
80479W        W45959  22.184  26.970   3.774
80480W        W45960  10.279  18.721   3.826
80481W        W45961  38.436   4.784  12.543
80482W        W45962  41.426  17.756  11.411
80483W        W45963  30.018   4.343  14.501
80484W        W45964  27.539  22.214   1.393
80485W        W45965  10.728  32.509  13.500
80486W        W45966  12.189  40.891  14.448
80487W        W45967  20.545  16.157   1.437
80488W        W45968  44.904  14.594   3.361
80489W        W45969  11.847  44.950   2.851
80490W        W45970   5.385  20.226   4.150
80491W        W45971  35.960  10.706  14.026
80492W        W45972  17.600   1.917  11.029
80493W        W45973  39.018  24.226  10.427
80494W        W45974  31.549   9.722  11.612
80495W        W45975  23.721   9.349   2.878
80496W        W45976  10.821  42.283  13.534
80497W        W45977  18.217  44.387  14.880
80498W        W45978  40.009  42.331  12.003
80499W        W45979  21.523   4.811   0.400
80500W        W45980  10.800  39.526  11.937
80501W        W45981  25.473  37.388   3.358
80502W        W45982  40.542  12.796   3.712
80503W        W45983  35.475  10.724   0.456
80504W        W45984  19.559  32.596   0.313
80505W        W45985  16.259  19.267  12.881
80506W        W45986   0.784   1.816  12.961
80507W        W45987  16.282  18.689   4.798
80508W        W45988  37.413  27.165   2.770
80509W        W45989  33.508   9.307  12.502
80510W        W45990  34.937   7.883  13.353
80511W        W45991  34.932  41.825  10.893
80512W        W45992   3.898  33.053  12.579
80513W        W45993   4.746  41.384  10.558
80514W        W45994  32.468  21.576  10.448
80515W        W45995   3.261  34.580  11.892
80516W        W45996  30.968  25.520   0.907
80517W        W45997  14.206  11.851  13.931
80518W        W45998   1.846  10.271  12.067
80519W        W45999  30.517  25.080  10.887
80520W        W46000  43.973  44.274   3.721
80521W        W46001  36.576  28.185   5.303
80522W        W46002  31.108  10.674   4.630
80523W        W46003  43.981  43.834  14.319
80524W        W46004  23.057  32.958  14.961
80525W        W46005   8.334  34.429  10.467
80526W        W46006   4.791  44.470  12.858
80527W        W46007  32.427   8.346  14.305
80528W        W46008  36.587  10.835  11.515
80529W        W46009  14.321  14.835  11.380
80530W        W46010  35.454  13.729  10.536
80531W        W46011  15.270   9.314  11.872
80532W        W46012  43.326  13.622   4.323
80533W        W46013   8.851  40.966   0.454
80534W        W46014  33.126  29.148  13.424
80535W        W46015  27.536   6.229   2.855
80536W        W46016   2.463   7.199  13.801
80537W        W46017   6.863  31.926  12.527
80538W        W46018  20.608  30.114  11.515
80539W        W46019  24.644  38.527   2.874
80540W        W46020   9.827  29.596  13.541
80541W        W46021  39.831  12.145  14.929
80542W        W46022   9.391  16.569  10.608
80543W        W46023  33.584  42.811  11.562
80544W        W46024   9.849  11.810  12.846
80545W        W46025   2.240  22.141  11.530
80546W        W46026  16.692  11.135   3.176
80547W        W46027  17.740  11.322  13.935
80548W        W46028  18.707   5.774   1.796
80549W        W46029   6.314  43.423   0.726
80550W        W46030   8.241  26.636  10.488
80551W        W46031   2.379  16.193  11.940
80552W        W46032  26.185  10.223  12.427
80553W        W46033  10.268  33.053  13.417
80554W        W46034   1.971  42.472   2.319
80555W        W46035  42.844  44.823   2.205
80556W        W46036   3.928   6.403  14.431
80557W        W46037   5.222   7.354  12.897
80558W        W46038  35.869  24.157   0.850
80559W        W46039  42.376  18.254   0.421
80560W        W46040  12.252  13.230  13.920
80561W        W46041  33.985  11.265  14.768
80562W        W46042  42.352  40.801   3.689
80563W        W46043   9.814  10.357  11.115
80564W        W46044   5.753  21.713   4.309
80565W        W46045   0.974   8.177  14.853
80566W        W46046   0.773  21.684  13.914
80567W        W46047  18.784  42.507  13.911
80568W        W46048   4.433   7.372   1.246
80569W        W46049  21.566  22.160  13.473
80570W        W46050   1.808  42.462   2.837
80571W        W46051   7.726  17.163  11.477
80572W        W46052   8.205  44.981  11.126
80573W        W46053  13.840  16.749   0.468
80574W        W46054  39.447  13.111  14.397
80575W        W46055  40.978  22.238   0.931
80576W        W46056  44.805  20.106  11.945
80577W        W46057  31.416  26.579  10.945
80578W        W46058  11.145   2.284   2.716
80579W        W46059  31.472  32.054   1.393
80580W        W46060  30.491  37.992  13.534
80581W        W46061  24.047  28.054   0.333
80582W        W46062   8.371  41.872   1.717
80583W        W46063   5.905  42.827   0.347
80584W        W46064  28.567  18.150  10.964
80585W        W46065  15.773  26.524   4.249
80586W        W46066  28.184  23.199   0.295
80587W        W46067  19.777  17.628  12.464
80588W        W46068  13.643   7.230   2.398
80589W        W46069  20.537  20.557  13.466
80590W        W46070  14.595  18.628   4.327
80591W        W46071  43.015   6.262   4.730
80592W        W46072  42.791  15.762   1.416
80593W        W46073  42.921  42.523   1.705
80594W        W46074  31.411  42.390   1.284
80595W        W46075  40.373   1.832  13.547
80596W        W46076   6.734  38.071  11.080
80597W        W46077   3.737  18.774   3.799
80598W        W46078  16.305  36.579   4.736
80599W        W46079  34.442  41.946  12.926
80600W        W46080   5.931   1.318  12.911
80601W        W46081  26.677  38.875   3.796
80602W        W46082   0.819   2.842   0.269
80603W        W46083  29.603  23.569   1.839
80604W        W46084  38.823  42.807   5.256
80605W        W46085  39.836  26.050  14.421
80606W        W46086  20.595  12.116   3.153
80607W        W46087  24.154  17.218  13.915
80608W        W46088  18.192   2.357  12.881
80609W        W46089  21.560  32.429   2.205
80610W        W46090  26.624  20.075   3.773
80611W        W46091  29.456  19.732  14.497
80612W        W46092  24.025   3.379  14.306
80613W        W46093  35.421  21.690  11.419
80614W        W46094  32.614   3.327  13.905
80615W        W46095  12.222   2.893   2.292
80616W        W46096  42.838   9.389   3.673
80617W        W46097  36.048  41.355  13.976
80618W        W46098   1.882  42.821  12.405
80619W        W46099  36.402  42.922  13.386
80620W        W46100  13.141   4.741  10.487
80621W        W46101  37.064  26.482   3.787
80622W        W46102  25.092  27.037  12.078
80623W        W46103  42.860  28.178  10.938
80624W        W46104  38.853   0.460  13.935
80625W        W46105  22.179   8.336  11.888
80626W        W46106  42.855  18.233  10.068
80627W        W46107  33.973  13.184  11.495
80628W        W46108   8.253  36.873   2.743
80629W        W46109  27.567  10.785   0.955
80630W        W46110  28.523   6.302  11.912
80631W        W46111  41.804  19.691  14.950
80632W        W46112   2.325  20.255  11.902
80633W        W46113   3.789  33.999   9.943
80634W        W46114   0.433   4.348   3.831
80635W        W46115  36.557  16.659  10.435
80636W        W46116  24.658  36.483  11.869
80637W        W46117  13.123  39.408   1.836
80638W        W46118  10.347  16.635  11.077
80639W        W46119  26.073  20.691   0.309
80640W        W46120   5.215  20.261  11.100
80641W        W46121   2.334  18.760   1.873
80642W        W46122  32.612  11.734   1.921
80643W        W46123  36.576  22.612   4.240
80644W        W46124  25.612  20.094   0.479
80645W        W46125   3.409  13.207  13.347
80646W        W46126  18.151   7.352  13.455
80647W        W46127  42.318  12.684  14.380
80648W        W46128  31.525   7.273   2.818
80649W        W46129  11.700  43.803  12.387
80650W        W46130   7.176  10.793   2.312
80651W        W46131   7.816  40.318   2.267
80652W        W46132   2.936   6.725  11.377
80653W        W46133  38.543  12.716  10.445
80654W        W46134  26.088  19.111  12.055
80655W        W46135   2.967  37.046  14.797
80656W        W46136  30.144  15.648  12.433
80657W        W46137   1.743  11.631   2.255
80658W        W46138  15.654  36.076  11.450
80659W        W46139  21.515  28.125   2.228
80660W        W46140  37.340  15.631  11.896
80661W        W46141  12.347   6.379  12.868
80662W        W46142  25.165  42.924  11.578
80663W        W46143   5.695  36.567   0.467
80664W        W46144  15.625  26.609  14.841
80665W        W46145  14.176   3.916  12.883
80666W        W46146   4.943  28.187   3.739
80667W        W46147  14.775  40.887  11.993
80668W        W46148  36.570  29.437  12.968
80669W        W46149  13.658  25.214  14.459
80670W        W46150  17.600   5.923  13.490
80671W        W46151  32.102  32.138   0.327
80672W        W46152  24.149  35.562   2.744
80673W        W46153  44.828  21.529   1.262
80674W        W46154  20.589  14.134   0.317
80675W        W46155  44.991  12.234  11.078
80676W        W46156  11.796  19.770  10.966
80677W        W46157   4.929  39.400  14.301
80678W        W46158  44.363  43.004  14.883
80679W        W46159  39.558  24.562   3.675
80680W        W46160   2.863  27.581  10.455
80681W        W46161  21.538  37.904   3.814
80682W        W46162  40.480  20.228   4.598
80683W        W46163  20.724  21.609   3.270
80684W        W46164  44.791  35.424  13.872
80685W        W46165  26.013   4.768  13.843
80686W        W46166  32.046   2.406   3.310
80687W        W46167  42.932   7.806   0.922
80688W        W46168  24.679  30.126  13.440
80689W        W46169  34.584  28.557  14.935
80690W        W46170  34.437  22.523   3.307
80691W        W46171  34.377  28.101   4.686
80692W        W46172  20.061  21.037  14.001
80693W        W46173  43.980  41.972  14.485
80694W        W46174  26.553  12.685  10.914
80695W        W46175   9.350   9.833  14.966
80696W        W46176  32.922  32.578  13.996
80697W        W46177  17.224  42.384  13.981
80698W        W46178  42.510  41.365   0.788
80699W        W46179  38.836  43.274   3.752
80700W        W46180  42.971  30.029   3.641
80701W        W46181  38.498  25.172   2.768
80702W        W46182  11.864   3.427   3.853
80703W        W46183  10.279  40.024  11.986
80704W        W46184  10.632  10.845  12.343
80705W        W46185   1.966   3.386  11.422
80706W        W46186   9.254  29.651  10.575
80707W        W46187   8.712  27.556  14.327
80708W        W46188   5.916  36.031   3.323
80709W        W46189  22.661  40.839  12.037
80710W        W46190  37.435  25.527   4.206
80711W        W46191  35.364   0.340  10.635
80712W        W46192   0.893  31.952   4.331
80713W        W46193  34.025  24.220  10.610
80714W        W46194  41.035  38.901   4.147
80715W        W46195  22.251   1.884   0.909
80716W        W46196  42.354   2.400  13.357
80717W        W46197   3.714   5.216  13.523
80718W        W46198   1.469  34.010   3.237
80719W        W46199  16.082  37.995   4.653
80720W        W46200  10.315  21.229  10.428
80721W        W46201   3.903   1.316   1.330
80722W        W46202  15.751   7.727  14.818
80723W        W46203  16.168  24.504   4.305
80724W        W46204  20.743  42.810  14.824
80725W        W46205  38.929  34.098   4.798
80726W        W46206  15.623  43.981   4.146
80727W        W46207  21.512  44.896   3.818
80728W        W46208  29.502  19.678   4.697
80729W        W46209  41.910  40.052   3.799
80730W        W46210  17.174  28.983   1.711
80731W        W46211  13.120  27.565  13.476
80732W        W46212  37.561  36.588  13.968
80733W        W46213   3.458  31.638  14.337
80734W        W46214  13.203   0.761   2.272
80735W        W46215  13.261   9.667   3.836
80736W        W46216  17.252  15.182  11.927
80737W        W46217  34.944  44.407  11.530
80738W        W46218   9.236  40.526   3.792
80739W        W46219  10.209  37.438  11.413
80740W        W46220  36.452  31.909  14.978
80741W        W46221   0.341  31.088   2.673
80742W        W46222   3.268  42.480   4.152
80743W        W46223  35.027  30.547  14.954
80744W        W46224   3.930  18.287  14.333
80745W        W46225  38.876  29.616  13.842
80746W        W46226  10.368   0.864  12.891
80747W        W46227   4.751  11.315   4.254
80748W        W46228  37.398   0.307  10.904
80749W        W46229  31.912   8.175   0.907
80750W        W46230  41.395  27.152   2.794
80751W        W46231   6.339  22.015  10.982
80752W        W46232  35.911  17.212   1.217
80753W        W46233   3.373  32.568   4.180
80754W        W46234  37.465   9.795   1.753
80755W        W46235  26.125   9.200  13.937
80756W        W46236   2.255  17.723   2.871
80757W        W46237  15.736  36.999  10.631
80758W        W46238   5.283  37.835  14.282
80759W        W46239  27.075  44.861   4.704
80760W        W46240  37.986  26.099   3.216
80761W        W46241  38.535  18.788  11.931
80762W        W46242  23.578   6.861   1.211
80763W        W46243  36.068  33.520   2.204
80764W        W46244  28.117   3.281   0.273
80765W        W46245  15.157  33.381  10.545
80766W        W46246  28.931  10.818   4.180
80767W        W46247  25.061  23.590   2.352
80768W        W46248  40.885  11.709  13.017
80769W        W46249  26.585  36.976   5.156
80770W        W46250  29.149  10.367  11.906
80771W        W46251   4.347  26.974  10.405
80772W        W46252  20.091   3.407   0.810
80773W        W46253   8.307  12.212   4.301
80774W        W46254  22.122  11.683  12.452
80775W        W46255  26.999  34.866   1.251
80776W        W46256  12.637  15.187   0.416
80777W        W46257   5.819  32.119   2.414
80778W        W46258  28.088  28.055  12.577
80779W        W46259  16.657  35.567  11.494
80780W        W46260   2.360  12.349   2.738
80781W        W46261   1.976  19.077   0.888
80782W        W46262  40.941  28.020   4.715
80783W        W46263  39.871  33.955  10.521
80784W        W46264   6.903  19.685  14.024
80785W        W46265  38.871  21.174   3.846
80786W        W46266  25.164  24.480   4.348
80787W        W46267  16.716   6.269   4.772
80788W        W46268  25.516   0.945   1.803
80789W        W46269  28.963  14.329   2.385
80790W        W46270  17.120  14.740   3.206
80791W        W46271  11.194  39.473  13.936
80792W        W46272  15.099  36.053  13.439
80793W        W46273  42.908  33.955   3.751
80794W        W46274  28.549  29.599  14.472
80795W        W46275  16.726   8.725  11.038
80796W        W46276  11.793  20.699   1.216
80797W        W46277   6.383  33.908  13.871
80798W        W46278  13.738  43.337  13.791
80799W        W46279  30.115  39.025   1.320
80800W        W46280  34.526  15.693   0.347
80801W        W46281  22.514  12.362   0.958
80802W        W46282   8.274  35.459   0.856
80803W        W46283  11.190  41.944  14.486
80804W        W46284  22.611  30.139   3.371
80805W        W46285   3.808  24.715   2.340
80806W        W46286  21.028  30.930   4.166
80807W        W46287  42.851  35.053  11.894
80808W        W46288  24.600  38.905  12.467
80809W        W46289  42.362  24.163   3.201
80810W        W46290   7.357  41.462  12.070
80811W        W46291  16.570  12.236  14.796
80812W        W46292  12.844  35.858  11.381
80813W        W46293  28.130   5.284   3.205
80814W        W46294  26.163  21.655   0.278
80815W        W46295  34.897  41.454   0.785
80816W        W46296  27.047  24.706   4.618
80817W        W46297   6.242  32.408   4.292
80818W        W46298  38.471  21.256  14.489
80819W        W46299  24.645  21.237   0.965
80820W        W46300  13.734  18.661  10.964
80821W        W46301  34.440  39.055   4.701
80822W        W46302  22.252   8.375  11.033
80823W        W46303  43.934  15.140  14.389
80824W        W46304  35.868  41.485  11.466
80825W        W46305  39.851  31.590  11.492
80826W        W46306  32.096  22.011  11.122
80827W        W46307  23.675   6.295   0.306
80828W        W46308  32.912   1.783  11.570
80829W        W46309  37.542  41.478  12.886
80830W        W46310   6.195  26.973  11.101
80831W        W46311  10.859  21.036  11.504
80832W        W46312  20.690   8.684  14.859
80833W        W46313  32.636  25.558  11.457
80834W        W46314  17.559  25.017   0.453
80835W        W46315  23.125   2.295   5.243
80836W        W46316  15.084  27.648   1.410
80837W        W46317   3.908   5.753  12.435
80838W        W46318  40.925  15.228  11.373
80839W        W46319  16.292  20.555  13.515
80840W        W46320  13.690   2.245  13.498
80841W        W46321  39.027  35.464   2.375
80842W        W46322   2.330  36.008  11.889
80843W        W46323  11.832  36.079  13.855
80844W        W46324  38.376  12.269   1.370
80845W        W46325  32.014  38.891  14.828
80846W        W46326  35.572  36.894   4.305
80847W        W46327  21.576  20.085   2.265
80848W        W46328  14.781  14.656  12.856
80849W        W46329   1.842   5.237   2.671
80850W        W46330  25.603   4.708  10.408
80851W        W46331  22.232  34.031  13.904
80852W        W46332   0.455  12.619   1.800
80853W        W46333  13.221  41.923  12.546
80854W        W46334   3.715  21.029   4.684
80855W        W46335  42.450  26.471   0.906
80856W        W46336   8.819  18.211  12.823
80857W        W46337  19.759  42.521  11.105
80858W        W46338  39.507  44.330  11.900
80859W        W46339  17.122  42.314   2.773
80860W        W46340  41.342   6.700   2.724
80861W        W46341  22.592  16.727   2.408
80862W        W46342  18.596  22.539   3.358
80863W        W46343  24.503  33.424   3.764
80864W        W46344  16.116  21.250   1.739
80865W        W46345  14.684  21.542  12.917
80866W        W46346   0.473  41.374  13.398
80867W        W46347  16.232  33.464   2.766
80868W        W46348   8.390  35.565   3.634
80869W        W46349   2.820  42.001   2.689
80870W        W46350  27.501  42.777   1.311
80871W        W46351  37.011  12.154   4.696
80872W        W46352  32.045  14.242  12.524
80873W        W46353   3.887  42.891  10.900
80874W        W46354  28.013  14.796  14.911
80875W        W46355  22.039  11.175  13.978
80876W        W46356  22.236   9.321  10.059
80877W        W46357  39.511  22.107  10.550
80878W        W46358  13.262  28.041  11.593
80879W        W46359  24.984  35.516   4.311
80880W        W46360  38.343   5.217   2.276
80881W        W46361  11.271  44.278  12.506
80882W        W46362  43.273  17.078  13.427
80883W        W46363  22.011  40.427   0.371
80884W        W46364  29.001  29.965   0.781
80885W        W46365  38.988  23.698  12.419
80886W        W46366  18.162  13.714   0.858
80887W        W46367   0.923  27.139   3.281
80888W        W46368  16.185  22.527   1.739
80889W        W46369  12.649  38.353  14.327
80890W        W46370  26.580  32.072   4.681
80891W        W46371  18.191  25.468  12.448
80892W        W46372   2.812  42.795   3.341
80893W        W46373  33.555  14.704  12.003
80894W        W46374  29.438  16.759  12.429
80895W        W46375  21.641   0.349  14.867
80896W        W46376   8.856   6.410  14.409
80897W        W46377  31.612  32.492  13.492
80898W        W46378  37.504  31.919   4.196
80899W        W46379  37.455   2.337  11.457
80900W        W46380   3.318   7.766   2.339
80901W        W46381  14.264  26.518   2.214
80902W        W46382  44.998  31.948  10.962
80903W        W46383   6.769  35.528  12.831
80904W        W46384  42.517   7.771   3.190
80905W        W46385   7.666  15.631  13.538
80906W        W46386  36.464  35.863   0.761
80907W        W46387  18.180  17.714  14.844
80908W        W46388  35.428  36.391  14.809
80909W        W46389  24.988  37.913   4.733
80910W        W46390  35.955  14.792   2.739
80911W        W46391  18.105  16.753  12.859
80912W        W46392  43.860  15.248  12.471
80913W        W46393  35.583  28.663   4.160
80914W        W46394  30.571   2.893   4.807
80915W        W46395   8.211  39.456  14.953
80916W        W46396  21.643  15.604  11.909
80917W        W46397   1.862  22.079   4.769
80918W        W46398  17.140  37.948  11.423
80919W        W46399  31.541  33.975  13.988
80920W        W46400  34.904  22.712   2.689
80921W        W46401  11.749  32.539   4.640
80922W        W46402   8.734  44.420  12.502
80923W        W46403  35.859  34.448   2.245
80924W        W46404  10.343  21.137  12.535
80925W        W46405  11.290  32.484  13.520
80926W        W46406  28.513  15.777  12.891
80927W        W46407  43.308  21.703  14.293
80928W        W46408  35.934   8.873  13.362
80929W        W46409  12.703  25.061  11.018
80930W        W46410  10.304  22.735   2.762
80931W        W46411  29.055   7.396  11.028
80932W        W46412  34.873  15.217  14.502
80933W        W46413   4.426  27.994  12.384
80934W        W46414  38.915   7.202   2.308
80935W        W46415  29.617   4.853  11.088
80936W        W46416  29.590  39.413  11.855
80937W        W46417  26.107  25.176  13.431
80938W        W46418   0.830  42.522  13.799
80939W        W46419  15.805  29.435   3.260
80940W        W46420   9.198  14.820   4.256
80941W        W46421  23.654  34.963   4.198
80942W        W46422  19.129  40.505  10.488
80943W        W46423   5.323  39.428  11.856
80944W        W46424  31.571  11.653  11.501
80945W        W46425   2.344  23.708  13.804
80946W        W46426   1.383  13.215   2.809
80947W        W46427  15.182  37.574   3.283
80948W        W46428  37.020   6.187  10.559
80949W        W46429  29.005  31.135  11.601
80950W        W46430   8.771   0.286  12.059
80951W        W46431  39.986   3.273   0.915
80952W        W46432  34.426  41.512   4.748
80953W        W46433   5.429  24.514   2.323
80954W        W46434  28.005  39.979  13.377
80955W        W46435  39.346  42.853   1.361
80956W        W46436  15.193   6.723  14.923
80957W        W46437  19.552   4.699  11.565
80958W        W46438   1.452  24.182   1.786
80959W        W46439  37.342   5.852  10.506
80960W        W46440  36.865  33.618   3.201
80961W        W46441  40.872  25.588   0.965
80962W        W46442  28.605  35.894  13.547
80963W        W46443  39.551  28.471   2.304
80964W        W46444  17.234  17.273  12.011
80965W        W46445  24.012  21.093   0.332
80966W        W46446  25.586  25.165   3.240
80967W        W46447  31.520  10.712   0.449
80968W        W46448  36.891  18.189   3.160
80969W        W46449  15.177  15.263  13.485
80970W        W46450  14.710  25.197  13.959
80971W        W46451   0.776   7.319  12.936
80972W        W46452  31.582  23.234  14.516
80973W        W46453  42.475   5.308  14.900
80974W        W46454  18.753  20.681  13.823
80975W        W46455   6.253  42.527   4.147
80976W        W46456  29.135  25.074  12.877
80977W        W46457  33.408  31.999  14.813
80978W        W46458  17.592   0.856   2.274
80979W        W46459  41.330  37.050   2.860
80980W        W46460  10.733  16.614  13.907
80981W        W46461   2.789  44.760  13.517
80982W        W46462  36.985  24.693   3.717
80983W        W46463  24.533  39.381  13.061
80984W        W46464  22.059  19.743   1.855
80985W        W46465  36.859   3.304   0.261
80986W        W46466  13.846  44.830  11.855
80987W        W46467   5.426   0.971  10.411
80988W        W46468  23.240   2.375  14.315
80989W        W46469  14.725  15.693   2.674
80990W        W46470   1.445   6.356   4.627
80991W        W46471  30.587  27.487   1.212
80992W        W46472  32.399  44.818   0.777
80993W        W46473  25.063   4.279   1.880
80994W        W46474   2.295  31.941   0.859
80995W        W46475   2.357  28.437   0.252
80996W        W46476  29.531   5.391  12.520
80997W        W46477   1.851  17.603  12.077
80998W        W46478   1.806  18.593   0.477
80999W        W46479  16.079  22.591   2.664
81000W        W46480  25.609  35.885  11.079
81001W        W46481  13.819  23.661   3.826
81002W        W46482  39.873  44.774  12.985
81003W        W46483  12.217  40.940   2.242
81004W        W46484  33.957  21.083   1.273
81005W        W46485   9.268  40.365   3.363
81006W        W46486  31.517   8.696  13.875
81007W        W46487  30.545   4.410  13.389
81008W        W46488   9.223  17.163  10.637
81009W        W46489   8.696   3.887   0.781
81010W        W46490  28.929  28.508  10.587
81011W        W46491  43.992  15.261  13.372
81012W        W46492  19.232  14.114  10.981
81013W        W46493  24.061  27.483   2.418
81014W        W46494  12.671  13.202   9.930
81015W        W46495  17.237  12.835   2.837
81016W        W46496  26.130  22.650   4.321
81017W        W46497  25.631   7.676   0.308
81018W        W46498  44.903  30.109  11.995
81019W        W46499  38.824  29.974   0.953
81020W        W46500  41.042  22.090   0.245
81021W        W46501  33.579  42.782  12.488
81022W        W46502   0.387  30.434   1.884
81023W        W46503  19.710  41.815   3.762
81024W        W46504  10.689  17.156  11.425
81025W        W46505   2.869   4.940   2.212
81026W        W46506  22.601  16.662   4.776
81027W        W46507   0.890  18.149   0.294
81028W        W46508  39.865   6.219   0.397
81029W        W46509  14.216  27.078   4.662
81030W        W46510  11.839   5.218   2.404
81031W        W46511  25.056  17.745   1.341
81032W        W46512  28.600  23.562  12.388
81033W        W46513  34.952   2.962   0.887
81034W        W46514  16.103  23.010  14.822
81035W        W46515  34.864  24.088   0.797
81036W        W46516  16.255  25.602   1.362
81037W        W46517   5.338   0.800   2.225
81038W        W46518   1.787  25.000  13.959
81039W        W46519  37.949   1.734   0.332
81040W        W46520  20.648  13.705   1.242
81041W        W46521  19.131  20.602  12.480
81042W        W46522   4.804  19.638  13.015
81043W        W46523  12.834   4.876  13.507
81044W        W46524  10.837  25.100   0.473
81045W        W46525  26.145  27.584   2.902
81046W        W46526  40.453  15.637   0.757
81047W        W46527  25.078  15.675  10.565
81048W        W46528  42.945  43.934   3.347
81049W        W46529  17.069  10.274   1.703
81050W        W46530   1.437  28.541  11.118
81051W        W46531  39.352  43.384  12.485
81052W        W46532  12.695  38.566   3.822
81053W        W46533  33.380   6.881  12.549
81054W        W46534  40.942  25.481  11.040
81055W        W46535  28.140  37.011   2.267
81056W        W46536   1.896  21.171  10.889
81057W        W46537  10.645  19.187   1.864
81058W        W46538  17.789  26.516   1.820
81059W        W46539   9.275  14.829  14.490
81060W        W46540  10.216  32.989  13.822
81061W        W46541  18.586   3.223  12.539
81062W        W46542  30.582   4.821   3.716
81063W        W46543   5.382  40.534   0.848
81064W        W46544  21.043  44.301   1.925
81065W        W46545   4.334  27.623  10.434
81066W        W46546  30.926  36.034   2.672
81067W        W46547  23.684  17.727   4.646
81068W        W46548  37.073  36.350   3.259
81069W        W46549  39.988  32.083   4.684
81070W        W46550  37.381  39.536  12.452
81071W        W46551   3.751  31.460   1.786
81072W        W46552   9.756  41.030   0.260
81073W        W46553  16.177  25.008   4.212
81074W        W46554  19.256   9.869   0.893
81075W        W46555  20.594  14.138  12.838
81076W        W46556  32.089  22.030   2.682
81077W        W46557  11.682  21.045   4.611
81078W        W46558  15.681  32.931  10.918
81079W        W46559  36.404   9.227   1.864
81080W        W46560  44.003  35.449   1.707
81081W        W46561   1.239  34.059  14.774
81082W        W46562  13.175  12.308  11.540
81083W        W46563  24.110   1.274   3.374
81084W        W46564   7.748  37.925  10.961
81085W        W46565  13.619  36.365   3.339
81086W        W46566  17.237   5.933   0.480
81087W        W46567  16.567  31.116  10.411
81088W        W46568  41.472  34.457  10.404
81089W        W46569  28.152  24.655  10.142
81090W        W46570  14.314  44.917   3.336
81091W        W46571  42.331  25.973  11.874
81092W        W46572  37.898  14.693  13.003
81093W        W46573  35.538  38.556   3.833
81094W        W46574  23.694  24.103  14.445
81095W        W46575  26.983  18.235  13.439
81096W        W46576  23.638  38.939  12.024
81097W        W46577  19.624  21.107  10.950
81098W        W46578  30.100  34.465   4.116
81099W        W46579  17.188  15.254  12.488
81100W        W46580  11.694  27.000   0.930
81101W        W46581  26.103  31.962   2.809
81102W        W46582   7.373  23.097   0.377
81103W        W46583  38.030  41.884  13.888
81104W        W46584  37.524  31.125  11.075
81105W        W46585  24.208  22.698   4.163
81106W        W46586  13.701  30.592   2.867
81107W        W46587  22.211   1.944  12.902
81108W        W46588  10.681  23.100  13.950
81109W        W46589   3.459  40.844  14.397
81110W        W46590  16.315  36.405   3.168
81111W        W46591  17.283  41.523  12.913
81112W        W46592  15.207   8.755  11.119
81113W        W46593  20.146   4.354   1.775
81114W        W46594  21.088  18.689   2.270
81115W        W46595  20.030   4.331   2.722
81116W        W46596  19.641  22.621  11.018
81117W        W46597  16.596   4.288  13.036
81118W        W46598  41.523   3.763  10.488
81119W        W46599  43.998  33.962  13.886
81120W        W46600  42.298   3.305   2.290
81121W        W46601  37.085  43.346   3.376
81122W        W46602  40.405  24.652   3.792
81123W        W46603  17.118   7.891  13.371
81124W        W46604  34.572   5.287  11.089
81125W        W46605  38.068   1.276   3.689
81126W        W46606  32.115  21.585  12.481
81127W        W46607  39.527  31.579   1.432
81128W        W46608  34.954  15.736  10.121
81129W        W46609  12.181   6.182  10.999
81130W        W46610  17.766  26.601   1.330
81131W        W46611  24.596  15.198  11.383
81132W        W46612  36.419  42.815   0.315
81133W        W46613  27.634  43.905   0.965
81134W        W46614  44.296   8.332  10.582
81135W        W46615   2.866   8.690  11.047
81136W        W46616  11.840   5.843  11.472
81137W        W46617  14.244  30.649   0.430
81138W        W46618  36.036  10.652   1.812
81139W        W46619  33.580   7.695  14.835
81140W        W46620  14.704   6.725  11.527
81141W        W46621  23.058  26.064   2.684
81142W        W46622  43.385  25.585  14.324
81143W        W46623  17.723  43.359  12.417
81144W        W46624  22.090  11.310  14.835
81145W        W46625  11.180  10.343  13.805
81146W        W46626   5.329  34.863   5.256
81147W        W46627  38.866  28.486   3.759
81148W        W46628  24.992  23.685  10.889
81149W        W46629  18.158   0.808   2.310
81150W        W46630  37.833  27.146   4.751
81151W        W46631  31.100  42.440   4.286
81152W        W46632  12.314  44.317  14.516
81153W        W46633   2.759  10.350  13.479
81154W        W46634  18.590  44.862   4.704
81155W        W46635  27.075  11.328  11.876
81156W        W46636  24.724   1.835   1.862
81157W        W46637   4.915  17.726  14.481
81158W        W46638  34.611  34.050   2.896
81159W        W46639   8.318  10.308  14.409
81160W        W46640  19.652  22.102   0.248
81161W        W46641  35.372  26.485   3.723
81162W        W46642  25.704  28.997  14.289
81163W        W46643   1.336  17.068   0.317
81164W        W46644  44.375  33.508  14.367
81165W        W46645  31.530  43.380   3.280
81166W        W46646  37.435  37.885   4.739
81167W        W46647  23.084   4.891  12.026
81168W        W46648  27.122  14.136   3.848
81169W        W46649  24.515  30.417  13.878
81170W        W46650  37.058  13.289  12.895
81171W        W46651  16.652  20.151   4.231
81172W        W46652   4.354  41.494  11.907
81173W        W46653  37.375  24.542   3.342
81174W        W46654  34.522  16.706  11.419
81175W        W46655  25.058  17.144  12.401
81176W        W46656  31.950  43.376  10.472
81177W        W46657  27.589   7.377  11.592
81178W        W46658   2.361  42.475  14.393
81179W        W46659  32.106  24.135   0.845
81180W        W46660  12.612  22.126  14.439
81181W        W46661  16.256  27.101  12.047
81182W        W46662  27.555  27.474   3.662
81183W        W46663  32.584  29.607   1.346
81184W        W46664  29.071  12.335   3.827
81185W        W46665   8.670  19.126  10.908
81186W        W46666   8.728  27.692   1.274
81187W        W46667  11.289  37.367  13.037
81188W        W46668  19.222  21.141   4.789
81189W        W46669  26.118  28.944  11.550
81190W        W46670   9.216  28.576   4.747
81191W        W46671   1.908  35.376   0.276
81192W        W46672  21.132  28.031  12.478
81193W        W46673  40.383  11.679  13.913
81194W        W46674  23.211   8.701  14.875
81195W        W46675   9.693   6.735  14.291
81196W        W46676   1.960   7.402   2.388
81197W        W46677   4.389  11.632   4.187
81198W        W46678  12.202  33.589  13.004
81199W        W46679  16.721  18.768  10.914
81200W        W46680  33.916  28.056  13.459
81201W        W46681  31.124  11.151   2.686
81202W        W46682  34.485  34.491  13.934
81203W        W46683  39.960  10.316  10.579
81204W        W46684  27.179   4.734   3.712
81205W        W46685  29.458  42.437   0.407
81206W        W46686  18.570  17.146  11.949
81207W        W46687   8.160  41.462   0.407
81208W        W46688  41.882  22.648  12.075
81209W        W46689  43.437  15.789   4.203
81210W        W46690   3.805  34.443  11.982
81211W        W46691   1.734  27.013  10.551
81212W        W46692  40.467  38.405  14.860
81213W        W46693   0.461  39.417   3.255
81214W        W46694   3.331  25.219  12.499
81215W        W46695  36.947  37.971  11.501
81216W        W46696  24.141  12.214   4.737
81217W        W46697  44.758  33.058  13.815
81218W        W46698  42.856   4.217  14.979
81219W        W46699   1.763  40.333  10.415
81220W        W46700  32.905  37.012   2.242
81221W        W46701  37.046  29.433  12.545
81222W        W46702  38.003   8.845  10.521
81223W        W46703  42.473  25.596  13.811
81224W        W46704  10.176  29.524  14.422
81225W        W46705   4.859  38.375  10.982
81226W        W46706  42.389  18.084   4.613
81227W        W46707  10.219   0.275  14.294
81228W        W46708  26.600  29.592  14.859
81229W        W46709  28.973   8.284   0.357
81230W        W46710   4.450   2.274   4.254
81231W        W46711  11.328   2.437  12.553
81232W        W46712  38.425  19.073  11.036
81233W        W46713  35.539  16.761   4.156
81234W        W46714  41.997   2.957  11.948
81235W        W46715   4.879  44.845   3.705
81236W        W46716  11.710  19.277  14.978
81237W        W46717  20.103  10.196  14.448
81238W        W46718  18.293  38.443  11.512
81239W        W46719  25.198  23.658   3.671
81240W        W46720  26.156  31.602  14.899
81241W        W46721  36.575   7.741   3.376
81242W        W46722   3.955  31.917   0.389
81243W        W46723   7.822  17.205  12.480
81244W        W46724  35.025  29.482   5.232
81245W        W46725   1.862  28.591   2.783
81246W        W46726  10.283  12.744   4.352
81247W        W46727  14.612  36.098   2.268
81248W        W46728  15.279   8.824   0.851
81249W        W46729  22.517  43.950   2.251
81250W        W46730  41.836  14.210  12.349
81251W        W46731  31.485   8.674   2.835
81252W        W46732  25.480  28.102  11.420
81253W        W46733   9.846   5.809  12.863
81254W        W46734  44.322   4.289   2.892
81255W        W46735  44.872  15.275   3.676
81256W        W46736   4.837  18.156   2.708
81257W        W46737   7.236  43.863  11.529
81258W        W46738   5.226  39.320  13.032
81259W        W46739  42.518  32.482  13.015
81260W        W46740  13.150  21.165   2.712
81261W        W46741  43.328  38.855   2.710
81262W        W46742  13.661   1.248   5.105
81263W        W46743  12.180  29.004  10.468
81264W        W46744  19.724  43.503  13.871
81265W        W46745  19.073  38.395  11.470
81266W        W46746   1.283  14.339  13.837
81267W        W46747   1.903   3.938   2.320
81268W        W46748  35.358  42.844  13.443
81269W        W46749  26.683  10.348  14.770
81270W        W46750  32.431  21.056  11.498
81271W        W46751  26.481  22.178   0.811
81272W        W46752   7.356   0.777  13.832
81273W        W46753   6.718   8.739   0.456
81274W        W46754  42.878  16.812   2.761
81275W        W46755  29.430  39.534   1.823
81276W        W46756  17.784   7.716  12.573
81277W        W46757  17.065  12.622   0.436
81278W        W46758   3.914  13.680  11.072
81279W        W46759  15.180  43.787   3.778
81280W        W46760  27.613  29.494  12.877
81281W        W46761  28.473  35.986  14.432
81282W        W46762  29.021   0.279   1.804
81283W        W46763   0.914  14.222  12.876
81284W        W46764  38.907   2.345  13.800
81285W        W46765  39.867   3.424   4.790
81286W        W46766  36.878  15.156  12.511
81287W        W46767  42.022   5.327   1.417
81288W        W46768   4.344  42.401   4.248
81289W        W46769  38.393  18.772  11.580
81290W        W46770  22.232  20.669  14.871
81291W        W46771  13.752  17.220  12.551
81292W        W46772  36.046  19.071  14.920
81293W        W46773   9.197  18.551   2.678
81294W        W46774  39.396  13.751   3.776
81295W        W46775  35.061   2.320   0.861
81296W        W46776  14.633  39.998   5.587
81297W        W46777  11.365  11.235   0.799
81298W        W46778   0.917   8.241   3.258
81299W        W46779  31.645  26.178   1.272
81300W        W46780  15.800  27.585   1.738
81301W        W46781  14.730  18.246  10.488
81302W        W46782  32.956   9.249  12.001
81303W        W46783  29.593   2.468   2.783
81304W        W46784  18.727  22.672  14.283
81305W        W46785  12.622   0.471  14.382
81306W        W46786  28.455  36.494  11.602
81307W        W46787  20.141  42.850  10.578
81308W        W46788  42.947  40.942  10.499
81309W        W46789   0.852  10.259   4.175
81310W        W46790  31.533  19.142  11.087
81311W        W46791  27.591  44.292   1.903
81312W        W46792  36.849  15.085  11.016
81313W        W46793   7.254  25.494  11.942
81314W        W46794  11.139  20.696   1.705
81315W        W46795  37.578   0.916  14.974
81316W        W46796  43.774  40.029  14.784
81317W        W46797  39.866  15.103  11.437
81318W        W46798   6.269  27.089   0.252
81319W        W46799  15.220  23.237   4.800
81320W        W46800  14.637   7.277   1.900
81321W        W46801  28.570  17.653   0.460
81322W        W46802  39.419  25.067  14.963
81323W        W46803  33.417   4.751  12.477
81324W        W46804  40.895  24.534   3.323
81325W        W46805  17.609   5.362  13.878
81326W        W46806   8.822  25.112  14.955
81327W        W46807   2.875  18.278   0.283
81328W        W46808  25.647  34.417  14.843
81329W        W46809  21.053   9.653   2.715
81330W        W46810  33.593  35.925   2.792
81331W        W46811  22.108  17.235   2.727
81332W        W46812  17.229  31.543   0.876
81333W        W46813  40.990   6.322  10.043
81334W        W46814  28.637   7.787   2.300
81335W        W46815  39.890  43.353   3.756
81336W        W46816  19.076   3.935  11.127
81337W        W46817  21.050  23.207   3.731
81338W        W46818  35.433  18.058  12.566
81339W        W46819   6.316  20.755  11.463
81340W        W46820  19.090  44.287   2.349
81341W        W46821  33.583  12.343  12.512
81342W        W46822   4.370  27.013   3.687
81343W        W46823   4.254  14.651  14.504
81344W        W46824   2.935  33.112  12.912
81345W        W46825  32.402   7.784  14.401
81346W        W46826  44.862  44.760  11.567
81347W        W46827  31.493  43.516  10.055
81348W        W46828  32.529   6.353  13.835
81349W        W46829  40.907  10.778   2.287
81350W        W46830   8.845   8.171   3.208
81351W        W46831   9.174   8.378   3.769
81352W        W46832  15.713  18.605  12.847
81353W        W46833   4.275  30.988  13.512
81354W        W46834  27.613  39.820   1.269
81355W        W46835  24.484  38.965   3.863
81356W        W46836  18.602  25.091   0.907
81357W        W46837  10.781   2.278   2.312
81358W        W46838  12.646  25.664  14.288
81359W        W46839  40.957  30.124   0.272
81360W        W46840  16.772   1.925  14.284
81361W        W46841  25.476  30.427  10.633
81362W        W46842   4.864   2.257   3.379
81363W        W46843  35.021  12.202  13.055
81364W        W46844  15.659  37.360   1.767
81365W        W46845  24.178   5.750   4.336
81366W        W46846  38.557   2.793  12.945
81367W        W46847  32.442  25.116  14.782
81368W        W46848  21.248  42.900  14.924
81369W        W46849  34.521   6.878   0.294
81370W        W46850  34.439   5.306  14.455
81371W        W46851   1.248  17.164   4.323
81372W        W46852   7.192  27.613  12.522
81373W        W46853  21.093  19.112   1.322
81374W        W46854  34.899   4.811  12.507
81375W        W46855  32.444   0.274  13.489
81376W        W46856  29.482  25.683   4.794
81377W        W46857  34.585  28.158  14.321
81378W        W46858  38.048  36.089  14.973
81379W        W46859  39.491  21.689  12.944
81380W        W46860  34.613  25.606   0.849
81381W        W46861  14.268  28.558  12.400
81382W        W46862   4.721  12.330  14.866
81383W        W46863  34.984  33.105  13.961
81384W        W46864   3.896  39.007   3.758
81385W        W46865   0.837  35.468   2.898
81386W        W46866  44.293  27.629   0.734
81387W        W46867  34.584   0.395  11.417
81388W        W46868  14.257  23.557   2.701
81389W        W46869   9.739  43.793  11.516
81390W        W46870  26.125  26.598   2.417
81391W        W46871  12.256  15.768  12.405
81392W        W46872   2.456  39.897   3.636
81393W        W46873  14.692  17.590   1.856
81394W        W46874  11.336  21.616  13.488
81395W        W46875  10.156  29.462   2.756
81396W        W46876  33.947  36.865  10.931
81397W        W46877   5.933  30.639  13.900
81398W        W46878  44.461  32.137   1.390
81399W        W46879  44.767  30.989  14.873
81400W        W46880  17.706  11.640  14.375
81401W        W46881   7.248  35.961   0.444
81402W        W46882  27.046  35.914   4.636
81403W        W46883  32.116  36.508  11.395
81404W        W46884  23.058  36.568  13.805
81405W        W46885  40.472  30.548   2.839
81406W        W46886  24.513  28.666  12.527
81407W        W46887  30.150  12.706   0.314
81408W        W46888  27.113  37.902  13.515
81409W        W46889  23.685  34.942   0.941
81410W        W46890  42.309   4.262  13.852
81411W        W46891   4.944  29.553  11.051
81412W        W46892  18.251  33.403   3.631
81413W        W46893  10.258   7.834   4.662
81414W        W46894  18.104  35.901  13.830
81415W        W46895  38.383  16.800   0.378
81416W        W46896  37.887  22.048   4.344
81417W        W46897   7.323   1.326  13.826
81418W        W46898  30.635  41.512   1.762
81419W        W46899   9.676   9.223  10.553
81420W        W46900  24.678  15.710  14.901
81421W        W46901  14.665  11.638  10.077
81422W        W46902  28.054  41.482  13.324
81423W        W46903  37.457  32.513  14.330
81424W        W46904  26.682  20.176  13.881
81425W        W46905  39.465  26.979  14.991
81426W        W46906  32.075  28.000   4.156
81427W        W46907  13.181  12.154   4.252
81428W        W46908  20.622   4.885  13.890
81429W        W46909   7.396  13.833  13.940
81430W        W46910  17.600  42.821   3.213
81431W        W46911  26.567  28.113  12.439
81432W        W46912  31.132  13.648  12.929
81433W        W46913  44.469  30.008  10.957
81434W        W46914   7.911   0.863  11.415
81435W        W46915   3.314  13.709  12.515
81436W        W46916  10.831  22.570   1.436
81437W        W46917   1.436   7.243   3.800
81438W        W46918  17.109  38.563  14.310
81439W        W46919  24.709  28.143   4.351
81440W        W46920  42.367  40.339   4.250
81441W        W46921  16.807  44.372  14.359
81442W        W46922  13.669  28.583   4.747
81443W        W46923  26.566  39.040   0.816
81444W        W46924  40.801  15.632   0.251
81445W        W46925  11.707  42.407   2.322
81446W        W46926   4.715  35.007   2.855
81447W        W46927  18.151  29.945  13.852
81448W        W46928  26.163  16.810  13.963
81449W        W46929   7.331  22.098  14.879
81450W        W46930   6.258  29.136  12.031
81451W        W46931  31.957  39.463   5.121
81452W        W46932  16.277   3.287   5.191
81453W        W46933  25.969  27.138   2.776
81454W        W46934   4.313  24.479  10.508
81455W        W46935  41.306  16.581  11.000
81456W        W46936  11.786  21.108   1.430
81457W        W46937  12.190  11.177  13.021
81458W        W46938  37.004  13.337   4.813
81459W        W46939  36.413  32.895   2.344
81460W        W46940  28.510  24.689  13.898
81461W        W46941   3.902  16.679   0.848
81462W        W46942  37.985  39.352  14.391
81463W        W46943   2.236  32.437   3.785
81464W        W46944  20.133  17.782   4.279
81465W        W46945  26.580  20.261   2.415
81466W        W46946  42.451  23.159  10.519
81467W        W46947   2.415  18.207   1.219
81468W        W46948   5.345  37.843   4.320
81469W        W46949  18.593  13.606  14.970
81470W        W46950  20.617   5.847  14.933
81471W        W46951   2.376  21.181   9.973
81472W        W46952  23.171  38.363  11.093
81473W        W46953  33.494  11.151  11.968
81474W        W46954  10.768  18.584   2.674
81475W        W46955  16.183  18.569  12.401
81476W        W46956   6.397   3.429   0.327
81477W        W46957   5.787  41.502  13.816
81478W        W46958   1.835  13.635  11.115
81479W        W46959  43.913  20.752   4.241
81480W        W46960  23.040  29.026   4.269
81481W        W46961  23.684  32.436   3.182
81482W        W46962  29.602   3.935  11.605
81483W        W46963  41.534   6.808   0.370
81484W        W46964  37.992  35.407   3.243
81485W        W46965   0.828  39.408   0.962
81486W        W46966  44.000  27.045   3.700
81487W        W46967  35.000   7.264  13.877
81488W        W46968   3.404  32.551  12.829
81489W        W46969  20.658  15.234  13.513
81490W        W46970  44.893   9.248  10.481
81491W        W46971   4.887  24.161   2.405
81492W        W46972  14.602   2.914   1.824
81493W        W46973  21.546  33.051   4.833
81494W        W46974   6.765   2.957   3.346
81495W        W46975  33.118  34.374  13.473
81496W        W46976  38.858  30.475  13.423
81497W        W46977  28.140  33.942  10.415
81498W        W46978  19.084  38.908   2.271
81499W        W46979  44.350  22.220   0.788
81500W        W46980  33.472  35.537   4.226
81501W        W46981   5.305  21.242  13.944
81502W        W46982  16.224  41.379  13.926
81503W        W46983   9.681  36.852  13.478
81504W        W46984   3.930  31.605   0.267
81505W        W46985  36.415  32.088   1.935
81506W        W46986  44.440  26.022  11.604
81507W        W46987  37.062  21.737  12.979
81508W        W46988  41.486  43.500  10.437
81509W        W46989  39.042  40.804  12.966
81510W        W46990  14.135  36.590   0.964
81511W        W46991  30.930   9.717   3.750
81512W        W46992  31.606  23.516   2.744
81513W        W46993  35.491  28.003   0.287
81514W        W46994  33.971  31.454   2.237
81515W        W46995  12.792  39.870   1.279
81516W        W46996  41.919  25.565  14.980
81517W        W46997  35.360  16.219   1.841
81518W        W46998  22.116  15.615   0.336
81519W        W46999  31.539  34.041  12.469
81520W        W47000  18.564  12.751   4.806
81521W        W47001  22.560  28.674   3.735
81522W        W47002  38.326  32.950  11.080
81523W        W47003  34.035  35.485   0.838
81524W        W47004  42.986  30.156   1.870
81525W        W47005  23.711   1.892   3.782
81526W        W47006  22.150  35.366   0.796
81527W        W47007  39.396  11.684  12.065
81528W        W47008  20.630  15.717  10.513
81529W        W47009  16.154  29.575  13.921
81530W        W47010  40.463  18.591   0.307
81531W        W47011  40.997  40.395  10.442
81532W        W47012  15.662   0.423   3.290
81533W        W47013   1.933  38.864  12.383
81534W        W47014   6.423  21.718   2.850
81535W        W47015  22.117  38.934   0.336
81536W        W47016  37.058  25.210  14.014
81537W        W47017   2.899   8.183  13.006
81538W        W47018  10.169  25.215   1.927
81539W        W47019  29.134  27.132   2.840
81540W        W47020  11.690  12.192  14.000
81541W        W47021  28.007  22.250   4.756
81542W        W47022   3.787  24.197  10.618
81543W        W47023  28.617  32.115  11.106
81544W        W47024  22.714   3.333  14.516
81545W        W47025  43.936  31.019   0.732
81546W        W47026  37.448  39.462   3.794
81547W        W47027  28.658   1.795  11.081
81548W        W47028  30.907  41.376   2.791
81549W        W47029  44.332  24.633  10.498
81550W        W47030  43.460  41.947  11.929
81551W        W47031  25.131  21.137   4.653
81552W        W47032  34.382  32.595   1.779
81553W        W47033  20.225  27.585  12.011
81554W        W47034   0.436  38.949   4.166
81555W        W47035   1.927  21.756  14.291
81556W        W47036  25.565  13.751  11.399
81557W        W47037  34.940  33.033   2.898
81558W        W47038  41.414  15.743   3.809
81559W        W47039  17.572  25.974   2.709
81560W        W47040   0.286  33.874  11.975
81561W        W47041  44.898   3.326  12.422
81562W        W47042  41.474  39.810   1.405
81563W        W47043   6.397  22.047  12.878
81564W        W47044  15.237   3.318   2.727
81565W        W47045  19.121  24.190  11.372
81566W        W47046   4.240  44.271   2.205
81567W        W47047  24.036  15.709   1.244
81568W        W47048   0.939  31.116   3.808
81569W        W47049  23.575  33.025  12.386
81570W        W47050  25.665  17.117  13.427
81571W        W47051  42.497  25.631  14.340
81572W        W47052  26.493  43.277   4.138
81573W        W47053  12.751  20.144  13.861
81574W        W47054  32.035  31.617   1.796
81575W        W47055  26.970  36.035  14.506
81576W        W47056   1.276  28.504  13.808
81577W        W47057  18.551  39.978  12.024
81578W        W47058  40.399   2.777   1.855
81579W        W47059   7.902  42.977  14.864
81580W        W47060   6.752  11.708   3.261
81581W        W47061  36.410  31.440   1.393
81582W        W47062  34.012   6.198   2.667
81583W        W47063  44.903  36.982  14.398
81584W        W47064  32.448   2.878  11.108
81585W        W47065  15.324  32.133   3.814
81586W        W47066   1.313  33.420   2.760
81587W        W47067  42.952  25.985   0.367
81588W        W47068  24.561  28.673  10.444
81589W        W47069  33.579   9.187   1.400
81590W        W47070  17.670  22.094   4.146
81591W        W47071  12.828  19.046   1.879
81592W        W47072  31.104  39.047  11.960
81593W        W47073   9.869  21.178  14.484
81594W        W47074  29.053  41.363  10.619
81595W        W47075   6.794  15.197   3.706
81596W        W47076   8.865  32.562   3.820
81597W        W47077  15.763  27.446  13.359
81598W        W47078   8.198  36.846  13.533
81599W        W47079  14.097  31.994   1.884
81600W        W47080  11.254  32.922   0.886
81601W        W47081  29.493   5.321  12.017
81602W        W47082  38.045  18.164   2.387
81603W        W47083  36.025   4.311   0.789
81604W        W47084  36.018   3.909   2.308
81605W        W47085  30.023  19.666  13.798
81606W        W47086  13.208  13.175   5.163
81607W        W47087   3.331  14.148   4.780
81608W        W47088  17.241  32.543  12.426
81609W        W47089   8.660  44.340   2.678
81610W        W47090   0.379  33.079  10.110
81611W        W47091  30.996   9.252  13.975
81612W        W47092  36.856   9.164  13.379
81613W        W47093  23.052  22.033  12.874
81614W        W47094  37.439  34.560   1.328
81615W        W47095   2.358  23.489  12.957
81616W        W47096  12.209  32.481   0.846
81617W        W47097  11.262  34.919  10.992
81618W        W47098   0.360  13.845   0.244
81619W        W47099  33.583  38.447   3.167
81620W        W47100  10.744  37.574   4.792
81621W        W47101   3.342  10.363  11.016
81622W        W47102  36.084  21.741   2.409
81623W        W47103   6.377   9.312  13.398
81624W        W47104  12.763  20.669   4.230
81625W        W47105  19.596  27.597   3.738
81626W        W47106   6.278  40.906  14.812
81627W        W47107  23.082  36.986  14.463
81628W        W47108   0.844   7.771  12.369
81629W        W47109   8.190   3.451   2.204
81630W        W47110  40.366  15.738   5.185
81631W        W47111  23.095  30.909   4.734
81632W        W47112  24.620  17.660  14.471
81633W        W47113  24.075  43.788  11.916
81634W        W47114  13.745   7.708  13.953
81635W        W47115  39.815  40.316  11.883
81636W        W47116  10.751   4.286   2.803
81637W        W47117  17.152  26.141  11.922
81638W        W47118  40.468  15.196  13.354
81639W        W47119  41.370  36.424  11.610
81640W        W47120  41.820   2.242  13.378
81641W        W47121  41.295  32.920   0.802
81642W        W47122   8.790  38.557   1.923
81643W        W47123  40.848   4.819   1.318
81644W        W47124  19.224  18.699   2.849
81645W        W47125  31.415  39.832   3.324
81646W        W47126  11.149  31.422  14.348
81647W        W47127  32.457   0.772  14.836
81648W        W47128  10.873  21.588   1.820
81649W        W47129  19.264  13.621   0.273
81650W        W47130   3.457   4.839   2.216
81651W        W47131  38.391  20.649   1.721
81652W        W47132   4.246  10.272   1.750
81653W        W47133  18.099   0.797  12.883
81654W        W47134  23.589  11.158  14.344
81655W        W47135  31.483  32.428  12.351
81656W        W47136   8.799   6.217   0.459
81657W        W47137  19.624  28.438  13.818
81658W        W47138  16.078  16.798  13.002
81659W        W47139   5.425  41.877  12.066
81660W        W47140   0.884  30.515   1.721
81661W        W47141  14.599  15.733  12.837
81662W        W47142  29.632  19.630  11.602
81663W        W47143   0.908  11.277  11.448
81664W        W47144   8.167  32.939   3.658
81665W        W47145  12.782  40.983   4.819
81666W        W47146  25.587   8.675  12.461
81667W        W47147  29.019   7.322  12.916
81668W        W47148  21.053  22.154  13.501
81669W        W47149  42.958   1.945   3.811
81670W        W47150   7.750  41.015   1.390
81671W        W47151  34.419  19.709  14.349
81672W        W47152   5.260  34.581  13.547
81673W        W47153  15.200  44.773  14.399
81674W        W47154  18.672  12.184   3.711
81675W        W47155  42.405  30.610   2.409
81676W        W47156  42.798   5.697  11.431
81677W        W47157  29.571  14.183  14.008
81678W        W47158  39.525  32.390   3.172
81679W        W47159  18.755  21.177   0.383
81680W        W47160  41.982  11.767   3.662
81681W        W47161  10.780  43.456  13.370
81682W        W47162   5.790  14.163  14.402
81683W        W47163   3.836   0.276   2.342
81684W        W47164   5.317  12.708  12.371
81685W        W47165  15.790  30.510  13.853
81686W        W47166  21.034  25.030  11.512
81687W        W47167   1.354   2.280  12.052
81688W        W47168  25.634  11.723   4.248
81689W        W47169   7.779  30.607  13.344
81690W        W47170  31.512  35.025  10.435
81691W        W47171   6.741  41.506   4.724
81692W        W47172  44.336  23.716  11.565
81693W        W47173  22.697  19.536   4.187
81694W        W47174  11.265  10.709   4.645
81695W        W47175   9.190  36.469  12.527
81696W        W47176  11.794  17.664   1.734
81697W        W47177  37.040  37.471  12.841
81698W        W47178   2.241   9.868   1.775
81699W        W47179  17.306  38.958   2.394
81700W        W47180  30.028  33.504  14.884
81701W        W47181  18.088  15.693   4.204
81702W        W47182   8.342   1.439  14.359
81703W        W47183  36.535  17.155  12.955
81704W        W47184  14.662  26.591  14.994
81705W        W47185  16.795  19.188   1.368
81706W        W47186  38.464  24.159   4.677
81707W        W47187  24.551  22.615   2.240
81708W        W47188  44.354  13.813  14.319
81709W        W47189   4.740  44.883  12.905
81710W        W47190  28.510  44.956  14.375
81711W        W47191  20.119  11.283   1.398
81712W        W47192  15.695  16.170   0.749
81713W        W47193  35.098   2.906  14.848
81714W        W47194  32.400  22.697   1.802
81715W        W47195  11.711  16.750   1.299
81716W        W47196  26.608  32.929  14.274
81717W        W47197  14.265   7.689   5.247
81718W        W47198  14.688  24.076   4.255
81719W        W47199  33.915  20.161   1.283
81720W        W47200  25.172  40.537  12.552
81721W        W47201   3.275  22.228   3.254
81722W        W47202  15.816  16.685   4.673
81723W        W47203   4.851   4.836  12.479
81724W        W47204  24.696  44.944   3.251
81725W        W47205  37.952  32.409  12.968
81726W        W47206   8.813  12.782   3.359
81727W        W47207  31.484   6.417  12.397
81728W        W47208  39.532   3.284   1.382
81729W        W47209  37.951  41.381  13.807
81730W        W47210  31.948  29.140   4.339
81731W        W47211  30.510  34.982   1.884
81732W        W47212  21.193  21.535   3.641
81733W        W47213  20.596   4.875  14.352
81734W        W47214  30.576  10.319   3.227
81735W        W47215   4.851   7.339  13.897
81736W        W47216  10.662  12.284  14.406
81737W        W47217  28.452  28.494  14.956
81738W        W47218  41.965  20.703  12.448
81739W        W47219   0.805   5.766  13.472
81740W        W47220  12.275  24.652  12.520
81741W        W47221  16.692   3.220  13.883
81742W        W47222  10.652  38.400   3.172
81743W        W47223   9.749  15.649  10.946
81744W        W47224  37.026  12.852  12.406
81745W        W47225   4.440  23.143   4.324
81746W        W47226  16.176  41.847   3.150
81747W        W47227  16.202   1.837   4.205
81748W        W47228  14.302  40.874   4.634
81749W        W47229  43.486  37.530   3.205
81750W        W47230  41.838  27.677  10.944
81751W        W47231  23.230  18.075   4.223
81752W        W47232  35.381  41.309   3.366
81753W        W47233  38.528  12.788  14.305
81754W        W47234  15.226  33.098  12.544
81755W        W47235   7.263   3.746  14.831
81756W        W47236  21.055   4.792   0.915
81757W        W47237   9.856  39.815  11.084
81758W        W47238   3.316  27.016  14.794
81759W        W47239  37.912  25.183  10.973
81760W        W47240  38.998   2.731   3.155
81761W        W47241  27.540   7.763   4.157
81762W        W47242  11.771  14.119  10.001
81763W        W47243  30.035  44.880   0.921
81764W        W47244   1.257  20.110   1.739
81765W        W47245  33.102  28.637  13.992
81766W        W47246  44.819  13.229   2.215
81767W        W47247  38.438  10.149   2.789
81768W        W47248  38.032   2.230   2.317
81769W        W47249   4.906  39.059   4.802
81770W        W47250  33.070   4.270   3.333
81771W        W47251  24.640  43.777   5.246
81772W        W47252  35.059   4.274  13.795
81773W        W47253   3.761  38.366  12.343
81774W        W47254  37.871  23.521   4.615
81775W        W47255   7.866  11.312  12.532
81776W        W47256  26.503   8.681   1.848
81777W        W47257  20.047  40.441  13.447
81778W        W47258  32.435   8.697  11.942
81779W        W47259  17.182  11.327  12.572
81780W        W47260   1.762   9.849   4.118
81781W        W47261  40.524  39.943  14.337
81782W        W47262   1.324  30.455  12.449
81783W        W47263   3.759   2.859   3.716
81784W        W47264  43.908   9.389   3.717
81785W        W47265  18.687  38.463  11.118
81786W        W47266  14.826  33.572   2.673
81787W        W47267  37.918  14.339  11.602
81788W        W47268   2.905   0.982   3.648
81789W        W47269   1.394  22.690  10.965
81790W        W47270  17.297  26.618  13.993
81791W        W47271  37.945  16.646   0.903
81792W        W47272  16.137  32.623  12.463
81793W        W47273  41.022  30.057   1.783
81794W        W47274  15.817  14.277  11.859
81795W        W47275  27.181   5.350  13.038
81796W        W47276  32.908  18.635   3.151
81797W        W47277  23.984  41.976  14.320
81798W        W47278  42.882  41.532   0.258
81799W        W47279  24.579   3.298   0.807
81800W        W47280   5.281  31.967   0.898
81801W        W47281   5.377  26.555   0.942
81802W        W47282  26.513  18.750  14.815
81803W        W47283   2.466   1.922   0.967
81804W        W47284   9.211   1.837  12.532
81805W        W47285  25.016  22.665   3.861
81806W        W47286  17.629  42.408  14.961
81807W        W47287  14.184   7.800   4.345
81808W        W47288  15.235   2.809  11.069
81809W        W47289  18.165  13.318   2.789
81810W        W47290  17.621  44.485   4.681
81811W        W47291   1.462  22.236  14.469
81812W        W47292  38.554   2.886   3.266
81813W        W47293   9.239  16.115  13.972
81814W        W47294  23.179  21.657   1.751
81815W        W47295  20.146  22.695  11.606
81816W        W47296  43.476  37.561  12.877
81817W        W47297  44.790  19.072   4.308
81818W        W47298  26.960  33.604  12.428
81819W        W47299   6.302  44.381   4.798
81820W        W47300  24.098  29.500  14.491
81821W        W47301  14.228   4.359   4.330
81822W        W47302  10.674  38.385  13.898
81823W        W47303  33.930   8.338  11.971
81824W        W47304  13.747   6.873  14.338
81825W        W47305  28.121  13.164  13.376
81826W        W47306  38.883   2.338   1.361
81827W        W47307   3.709  29.169   4.321
81828W        W47308   5.783  13.839   2.233
81829W        W47309  32.424   2.404   1.424
81830W        W47310  41.335  21.543  14.994
81831W        W47311  38.539  11.232  13.905
81832W        W47312  23.240  12.347   3.686
81833W        W47313   3.793  44.927   0.365
81834W        W47314  10.822   4.229   2.251
81835W        W47315  42.448  39.898   2.837
81836W        W47316  10.812   0.847  12.427
81837W        W47317  14.803  31.614  10.566
81838W        W47318  37.443  11.698   5.210
81839W        W47319  12.265  11.366  14.350
81840W        W47320  32.980   8.171   3.690
81841W        W47321  20.169  27.040  13.791
81842W        W47322  38.922   6.697  10.468
81843W        W47323  44.496  37.571  11.960
81844W        W47324  11.798  10.718   1.337
81845W        W47325  44.434  37.346  11.476
81846W        W47326  28.066  39.422  13.469
81847W        W47327   8.362   6.287  11.976
81848W        W47328   6.714  29.119  14.788
81849W        W47329  22.533  39.934  11.110
81850W        W47330  39.559  40.549  11.427
81851W        W47331  41.888  36.872   0.940
81852W        W47332  12.772   9.250  10.533
81853W        W47333  24.678  32.624   4.212
81854W        W47334  25.491   0.249  12.082
81855W        W47335   6.343  17.668   1.907
81856W        W47336  18.246  15.218   3.843
81857W        W47337   1.341  36.073  13.375
81858W        W47338  13.105  32.392  11.873
81859W        W47339  36.921  31.021  13.917
81860W        W47340  39.858  10.663  12.470
81861W        W47341  16.573  26.040   4.733
81862W        W47342  30.121  44.942  14.389
81863W        W47343  30.051  43.306  12.358
81864W        W47344  35.092  33.531   0.346
81865W        W47345   8.375  12.248   0.269
81866W        W47346  20.535  39.993   3.163
81867W        W47347  23.695  16.110  11.611
81868W        W47348   3.215  34.536   5.135
81869W        W47349  22.634   9.357   4.304
81870W        W47350   8.268  15.089   3.640
81871W        W47351  27.684  43.493  14.760
81872W        W47352  24.532  31.442   4.180
81873W        W47353  19.240   8.186  10.948
81874W        W47354  41.870  24.150   3.273
81875W        W47355  31.509  44.791  11.888
81876W        W47356  35.988  20.721   4.352
81877W        W47357  28.538  15.303   3.699
81878W        W47358  28.515  42.504   4.292
81879W        W47359   8.304   3.745  14.870
81880W        W47360  34.869  27.022   3.277
81881W        W47361   9.844   3.394   4.305
81882W        W47362  34.868  17.264  13.064
81883W        W47363  18.550  22.176   1.298
81884W        W47364  36.073  10.817  10.986
81885W        W47365  36.399  37.963   3.271
81886W        W47366  44.888  17.714   3.773
81887W        W47367   8.868  16.229  12.843
81888W        W47368  33.979   7.788  13.390
81889W        W47369   3.770  32.124   4.755
81890W        W47370  38.864  30.091   2.325
81891W        W47371   5.857  33.063   0.947
81892W        W47372  26.132  24.022   4.796
81893W        W47373   8.829  23.213  14.460
81894W        W47374  10.291  44.491  12.939
81895W        W47375  23.099  44.429   2.815
81896W        W47376   1.249   2.760   1.390
81897W        W47377  37.514   2.809  12.000
81898W        W47378  31.498  44.825   3.158
81899W        W47379  13.770  40.341   1.877
81900W        W47380   1.739  29.640  10.896
81901W        W47381  20.200  29.587  14.850
81902W        W47382   0.842   1.380  13.862
81903W        W47383  29.440  12.237   0.242
81904W        W47384   1.824  23.655   4.258
81905W        W47385   6.190  41.976  12.508
81906W        W47386   7.815  22.028  14.886
81907W        W47387  29.001  25.507   2.396
81908W        W47388  37.006  40.876   2.783
81909W        W47389   3.221   4.929   3.700
81910W        W47390  28.163  10.293  11.102
81911W        W47391  14.103  10.867  11.451
81912W        W47392  26.673  39.952  14.340
81913W        W47393   1.454  40.370   4.802
81914W        W47394  43.880  39.356  13.794
81915W        W47395  37.986  23.022   2.795
81916W        W47396   9.646   4.365  13.317
81917W        W47397  32.513  34.533  14.455
81918W        W47398  19.045  29.435   1.702
81919W        W47399  13.202  10.793   3.743
81920W        W47400  17.707  14.642   2.201
81921W        W47401   0.900  26.073  14.486
81922W        W47402  42.307   3.897   4.319
81923W        W47403  26.487  24.101  12.422
81924W        W47404  25.022  29.154   4.222
81925W        W47405  32.915  13.328   3.169
81926W        W47406  37.381   3.808   3.871
81927W        W47407  10.827  40.485   9.986
81928W        W47408  40.047  43.903   3.175
81929W        W47409  12.814   4.808  14.863
81930W        W47410  42.778   5.738   0.791
81931W        W47411   2.735  34.479   0.373
81932W        W47412  23.499  24.721  12.873
81933W        W47413  30.537   3.358  10.428
81934W        W47414  13.801  35.523  14.512
81935W        W47415  18.218   7.389   4.782
81936W        W47416  20.691  22.581   4.622
81937W        W47417   5.196   6.284  12.872
81938W        W47418  40.471  41.034   1.752
81939W        W47419   0.780   7.253  10.475
81940W        W47420  43.276  18.579  12.885
81941W        W47421  44.394  26.078   1.727
81942W        W47422  41.857  10.147   1.911
81943W        W47423   8.341  36.026   1.272
81944W        W47424  25.565  14.832   3.319
81945W        W47425   7.244  38.330  13.826
81946W        W47426  12.307  31.579   2.875
81947W        W47427  34.059  21.698  14.297
81948W        W47428  42.898  17.132   3.785
81949W        W47429  34.030   0.845   4.806
81950W        W47430  34.420   7.724  13.317
81951W        W47431   5.363   5.306   3.352
81952W        W47432  26.968  15.630   4.255
81953W        W47433   8.196   5.432   4.749
81954W        W47434   3.844  39.004   4.690
81955W        W47435  30.441  44.291   0.805
81956W        W47436  22.656  21.223  11.127
81957W        W47437  27.100  21.604   1.352
81958W        W47438  28.583  27.677  11.511
81959W        W47439   6.363  14.669   3.345
81960W        W47440   7.842  19.700   9.960
81961W        W47441  44.006  27.679  14.298
81962W        W47442  23.513  26.004  14.308
81963W        W47443  10.265  39.498   1.810
81964W        W47444  20.142   8.890   5.092
81965W        W47445  31.997   7.347  13.323
81966W        W47446   7.813   9.290  12.445
81967W        W47447  44.326  15.192   3.861
81968W        W47448   9.169  38.556  12.944
81969W        W47449  12.332  21.130  10.907
81970W        W47450  29.048   5.706  14.903
81971W        W47451  19.662  29.625  13.450
81972W        W47452  16.780  29.006   5.082
81973W        W47453  43.284  15.233   4.838
81974W        W47454  37.374  34.513   3.344
81975W        W47455  44.286   4.410  14.420
81976W        W47456  12.145   6.259   3.847
81977W        W47457  20.270   3.242   1.296
81978W        W47458  24.136  36.980  14.916
81979W        W47459  43.832  43.459   2.317
81980W        W47460   5.405  37.547   3.659
81981W        W47461  44.450  29.486  10.913
81982W        W47462  28.986  35.930   4.159
81983W        W47463  17.638   8.167   3.848
81984W        W47464  30.442  38.474  12.487
81985W        W47465  32.621   7.726   4.262
81986W        W47466  19.195   4.801  14.416
81987W        W47467  42.895   0.394  14.810
81988W        W47468  15.687   7.276   1.231
81989W        W47469  37.986   5.327   2.401
81990W        W47470  15.181   9.777   3.669
81991W        W47471  34.465   1.389   3.159
81992W        W47472  41.337   2.825   9.998
81993W        W47473  19.093  16.118   2.272
81994W        W47474  11.780  11.637  10.435
81995W        W47475  30.545   9.695   1.776
81996W        W47476  33.611  12.261  14.866
81997W        W47477  29.095   7.729   4.749
81998W        W47478  21.067  28.183   1.380
81999W        W47479  30.138  38.980  12.972
82000W        W47480  17.194  42.518   1.749
82001W        W47481  31.490  27.645   0.478
82002W        W47482  27.543  29.594   4.293
82003W        W47483   0.402  14.763  14.974
82004W        W47484  41.527  25.687  13.818
82005W        W47485  15.254  11.661   4.257
82006W        W47486   8.175  14.188   0.387
82007W        W47487  24.509  24.483   4.264
82008W        W47488  18.671  20.749  14.841
82009W        W47489  31.505   8.290   2.252
82010W        W47490  16.740  38.056  11.481
82011W        W47491  13.715   5.708   2.754
82012W        W47492  13.143  39.884  11.895
82013W        W47493  33.463  18.688   1.385
82014W        W47494   0.451  12.779  13.871
82015W        W47495  39.961  27.683   0.804
82016W        W47496  41.361  33.520  12.906
82017W        W47497  13.318  41.423  10.139
82018W        W47498  18.186   7.227   3.263
82019W        W47499  17.691  35.529  11.513
82020W        W47500  43.497   5.897   1.772
82021W        W47501  41.906   4.228   3.819
82022W        W47502   3.743  39.851   4.597
82023W        W47503  27.045  11.363  14.433
82024W        W47504   0.456  42.329  14.779
82025W        W47505  25.115   8.388  12.401
82026W        W47506  35.108  34.105  10.590
82027W        W47507   0.478  23.063   1.367
82028W        W47508   2.774  25.968  13.992
82029W        W47509   0.983  28.936   3.831
82030W        W47510   2.409   3.329   0.773
82031W        W47511  34.519   3.236   4.243
82032W        W47512  22.999  10.336   3.202
82033W        W47513   9.325   4.814  14.764
82034W        W47514  24.700   8.162  10.990
82035W        W47515   4.924  23.639   2.209
82036W        W47516  31.013  43.456   1.391
82037W        W47517   0.356  36.347   0.767
82038W        W47518  24.148   8.391   2.306
82039W        W47519   3.353  16.306  12.521
82040W        W47520  20.580  23.168   4.684
82041W        W47521  37.482  26.635   0.784
82042W        W47522   7.743  34.079  13.513
82043W        W47523  33.118  38.074  12.925
82044W        W47524  21.614  37.947  11.113
82045W        W47525  14.723  24.709   4.239
82046W        W47526   4.341   6.255   1.851
82047W        W47527   1.809  13.831  12.940
82048W        W47528  27.555  32.004  12.397
82049W        W47529  31.898  43.939   1.735
82050W        W47530  11.811  15.286  13.322
82051W        W47531   3.259  41.376  14.815
82052W        W47532  41.992  34.566   2.809
82053W        W47533  43.297  17.633  11.089
82054W        W47534  18.709  12.149  13.884
82055W        W47535  24.528  25.107   4.167
82056W        W47536  17.619  44.789  14.942
82057W        W47537  44.964  21.747  13.342
82058W        W47538  35.386   2.919  10.598
82059W        W47539  30.987  41.955  13.037
82060W        W47540  42.405  27.491   0.479
82061W        W47541  28.668  23.615   0.398
82062W        W47542  38.466  15.193   0.735
82063W        W47543   2.943  18.601  14.487
82064W        W47544  38.862  12.344   1.314
82065W        W47545  43.018  42.322   3.184
82066W        W47546  36.853   0.785  12.480
82067W        W47547  40.932   4.378   1.778
82068W        W47548   5.860  23.523  13.444
82069W        W47549  35.478  32.038   0.817
82070W        W47550  14.131  17.172   5.246
82071W        W47551   9.855  24.194  11.867
82072W        W47552  34.076  16.728  14.327
82073W        W47553  14.278   3.220   5.187
82074W        W47554  34.012   2.805  10.453
82075W        W47555  39.906  36.549  12.343
82076W        W47556  34.016  23.670   3.721
82077W        W47557  17.758  37.084  11.913
82078W        W47558  23.234  10.159  14.852
82079W        W47559  42.789  13.802   2.668
82080W        W47560  11.289   3.399  11.885
82081W        W47561  40.912  12.670  14.990
82082W        W47562  40.950  12.621  12.836
82083W        W47563   6.764  34.068  12.927
82084W        W47564  24.093  29.111  14.901
82085W        W47565   4.774  14.319  12.349
82086W        W47566   2.751  10.847  12.952
82087W        W47567   1.847  24.648  13.411
82088W        W47568  43.279   9.659   3.806
82089W        W47569  42.875  23.165   4.767
82090W        W47570  37.368   4.376   4.121
82091W        W47571  36.007  23.643   4.823
82092W        W47572  29.663   4.806   0.295
82093W        W47573  44.949  44.467   3.225
82094W        W47574  11.333  10.732  10.430
82095W        W47575  25.131  23.652   0.899
82096W        W47576  13.638  14.340  13.523
82097W        W47577  19.695  39.986  10.975
82098W        W47578  37.383  40.447  12.061
82099W        W47579  40.476  21.019   9.991
82100W        W47580  17.104  27.045   0.928
82101W        W47581  29.128  25.668   0.899
82102W        W47582  11.636  16.781   2.662
82103W        W47583  10.703  24.594  10.520
82104W        W47584  14.617  26.001   3.360
82105W        W47585  20.061  39.402   0.299
82106W        W47586  44.278   8.205  14.000
82107W        W47587  18.627  16.095  14.009
82108W        W47588  26.558  19.281  11.878
82109W        W47589  12.728  33.546  10.610
82110W        W47590  42.445  36.947   0.946
82111W        W47591  20.159  41.335   0.898
82112W        W47592  34.416  10.195   4.699
82113W        W47593  14.766  16.197   0.274
82114W        W47594  20.536  24.658  10.630
82115W        W47595  19.763  31.464   1.926
82116W        W47596  14.805  23.541   4.724
82117W        W47597  27.680  25.983   3.178
82118W        W47598  44.298  35.587   4.803
82119W        W47599   1.295  34.406  11.003
82120W        W47600  24.044  29.038   3.720
82121W        W47601  20.553  23.510  11.921
82122W        W47602  27.458   3.749   2.838
82123W        W47603  25.574   2.756   3.215
82124W        W47604   9.819  22.112  10.935
82125W        W47605  40.953   3.418   1.707
82126W        W47606  41.819   1.290  13.964
82127W        W47607  41.496  25.051   4.177
82128W        W47608  41.972  11.363   4.133
82129W        W47609  26.174  29.168  11.888
82130W        W47610  22.201  24.000   1.403
82131W        W47611  28.032  20.199  14.516
82132W        W47612  13.115   5.897   2.839
82133W        W47613  26.149  37.974  11.575
82134W        W47614   0.848  40.439   1.860
82135W        W47615  38.066   8.824   4.302
82136W        W47616   0.424  27.197  12.027
82137W        W47617   3.269  31.589   4.246
82138W        W47618  37.557  39.475  12.919
82139W        W47619  16.089   5.253   0.853
82140W        W47620  35.371  24.080  11.888
82141W        W47621  16.231   9.792  14.842
82142W        W47622  11.250  43.909  11.110
82143W        W47623  36.869  22.577  13.452
82144W        W47624  27.076   5.702  14.955
82145W        W47625  19.685  30.063   1.823
82146W        W47626  34.484  20.621   0.849
82147W        W47627  37.556  30.134   3.274
82148W        W47628  37.552   0.884  14.015
82149W        W47629  12.740   7.179   4.831
82150W        W47630  38.986  16.214  12.437
82151W        W47631  11.815  29.551  11.500
82152W        W47632   4.400  43.850  14.787
82153W        W47633  16.775  40.449  12.021
82154W        W47634  44.388  10.322   2.327
82155W        W47635   6.689  12.330  10.625
82156W        W47636  25.986  23.022   2.732
82157W        W47637  23.062  14.762   2.869
82158W        W47638   8.896   8.675  12.349
82159W        W47639  43.288  26.484  12.987
82160W        W47640  19.051  43.834   4.639
82161W        W47641  28.119  19.143   9.938
82162W        W47642   2.355   1.830   4.298
82163W        W47643  11.658  16.101  13.396
82164W        W47644   4.374  21.545  11.922
82165W        W47645  28.985  41.907   3.854
82166W        W47646  43.999  35.864  11.953
82167W        W47647  25.045  10.650   1.758
82168W        W47648  32.566  13.712  13.395
82169W        W47649  12.656   7.385  14.309
82170W        W47650  26.561  17.565   4.711
82171W        W47651  42.986  10.683  13.433
82172W        W47652  43.479   0.776  10.124
82173W        W47653  19.042   0.957  11.456
82174W        W47654  25.545  30.967  14.441
82175W        W47655  15.608   8.749   3.217
82176W        W47656  14.194  14.693   2.187
82177W        W47657  20.120  23.564   1.713
82178W        W47658  21.126  21.225  13.047
82179W        W47659  34.014   6.721  13.348
82180W        W47660  21.063  35.376   4.622
82181W        W47661   1.868  35.031   1.864
82182W        W47662   9.651   1.809   1.434
82183W        W47663  12.194   3.233   1.825
82184W        W47664  18.155  38.910  13.028
82185W        W47665  19.171   6.401   2.789
82186W        W47666  43.282  33.401  14.826
82187W        W47667  10.760  29.951  10.458
82188W        W47668   5.695  41.322  10.576
82189W        W47669  20.049  38.365  10.949
82190W        W47670  29.556  28.627  10.997
82191W        W47671   1.936  36.351  14.298
82192W        W47672  19.709   8.192   4.214
82193W        W47673  14.753  12.793  11.466
82194W        W47674  12.265  20.731  14.892
82195W        W47675  41.028  14.162  12.498
82196W        W47676  31.518   5.801  11.119
82197W        W47677  36.545   8.273  13.514
82198W        W47678  11.215   2.787   3.384
82199W        W47679  41.923   7.735   0.775
82200W        W47680  43.785  41.948  13.842
82201W        W47681   1.283  15.643  14.397
82202W        W47682  43.282  14.116   2.823
82203W        W47683  20.570  15.658  12.470
82204W        W47684  43.001   5.784   2.325
82205W        W47685  41.964   0.950   3.189
82206W        W47686  21.248  41.921   4.198
82207W        W47687  24.699  33.588   0.761
82208W        W47688  35.966  14.601  14.882
82209W        W47689   1.361  25.478   2.416
82210W        W47690  14.220  23.494  12.845
82211W        W47691  30.603  26.129   2.827
82212W        W47692  39.317  27.064  11.059
82213W        W47693  18.767  29.425  11.084
82214W        W47694  29.919  36.997   3.378
82215W        W47695  19.278  24.219  11.983
82216W        W47696  21.590  34.002  13.545
82217W        W47697  31.483  16.681  14.771
82218W        W47698  21.677  35.382  10.583
82219W        W47699  43.943  36.045  13.836
82220W        W47700  42.973  33.401  14.885
82221W        W47701  32.949  23.634   4.695
82222W        W47702  30.966   5.322  11.422
82223W        W47703  43.903  42.480   3.184
82224W        W47704  20.172  26.663   0.373
82225W        W47705  32.142  43.350   4.188
82226W        W47706  26.110  28.621   4.726
82227W        W47707  17.308  37.475   3.832
82228W        W47708  34.013  11.748   1.360
82229W        W47709  41.313  21.189  10.111
82230W        W47710  41.406  29.129   2.375
82231W        W47711  24.593   2.866   0.426
82232W        W47712  20.604  42.803   1.813
82233W        W47713  19.744  19.141  14.843
82234W        W47714   9.394  27.643  10.588
82235W        W47715  21.601   2.808  12.896
82236W        W47716  30.530  42.348   2.741
82237W        W47717  10.653  35.514  14.900
82238W        W47718  41.978   3.740  10.893
82239W        W47719  16.294   4.416  12.051
82240W        W47720  15.585   5.779   3.318
82241W        W47721  14.274  12.123   2.683
82242W        W47722  23.715   2.263   1.339
82243W        W47723  14.731  11.702   9.445
82244W        W47724  34.089   7.185   4.633
82245W        W47725  29.946  40.389  14.499
82246W        W47726   7.392  13.169   5.247
82247W        W47727  12.807   7.380  10.571
82248W        W47728   5.806  42.014  11.931
82249W        W47729  33.902  15.206  11.009
82250W        W47730  23.078   6.907  11.454
82251W        W47731  43.764   5.403   1.855
82252W        W47732  24.058  33.080   3.149
82253W        W47733   7.309   2.442  12.468
82254W        W47734  17.198  19.760   3.655
82255W        W47735   1.457  15.213  12.993
82256W        W47736  37.471  34.108   2.868
82257W        W47737  29.541  23.227   2.693
82258W        W47738   0.932  23.005   0.852
82259W        W47739  41.440  26.995   4.747
82260W        W47740  23.734  27.171  12.368
82261W        W47741  28.508  12.801   4.740
82262W        W47742  31.057  44.363   5.187
82263W        W47743  15.675  15.699  11.461
82264W        W47744  36.540  37.545  14.783
82265W        W47745  44.837  16.685   1.858
82266W        W47746  25.507  10.328  10.099
82267W        W47747  34.586  27.481   1.881
82268W        W47748  16.675  11.184   2.275
82269W        W47749  21.080  44.880   0.790
82270W        W47750  30.043  36.952   4.312
82271W        W47751  40.812   3.294   4.647
82272W        W47752  34.094   8.394  13.522
82273W        W47753  37.529  15.753  14.795
82274W        W47754  42.787  27.182   2.749
82275W        W47755  42.313  12.835  11.492
82276W        W47756   8.772  41.521   4.810
82277W        W47757   7.844  37.067   4.725
82278W        W47758  25.621  18.570   0.849
82279W        W47759  11.325  36.985  13.862
82280W        W47760  17.705  43.944   0.782
82281W        W47761   3.255  22.027  12.881
82282W        W47762  26.991  39.035  12.557
82283W        W47763  23.099  40.363  10.467
82284W        W47764   7.799   7.837  10.935
82285W        W47765  29.162  28.178  11.994
82286W        W47766  32.428  10.736  13.959
82287W        W47767   0.302  37.396   2.395
82288W        W47768   6.399  33.548  14.823
82289W        W47769   3.779   2.898  14.975
82290W        W47770  23.084  38.823   1.733
82291W        W47771  24.174  30.597   0.346
82292W        W47772  33.441  27.643  11.561
82293W        W47773  28.663  14.186  11.437
82294W        W47774  31.920  23.140  11.015
82295W        W47775  13.831  12.843   1.429
82296W        W47776  44.439  24.569   2.792
82297W        W47777  22.720   4.915   5.084
82298W        W47778  40.313  10.733   2.322
82299W        W47779  29.990  20.727   4.349
82300W        W47780  38.525  36.352   3.243
82301W        W47781   3.909  19.676   0.426
82302W        W47782  35.567   9.199   3.318
82303W        W47783  32.029  27.992   3.292
82304W        W47784  34.095  30.514   5.106
82305W        W47785  36.045  13.294  12.876
82306W        W47786   9.694  42.387  14.484
82307W        W47787  21.606  43.828  12.017
82308W        W47788  40.845   4.274   2.801
82309W        W47789  23.590  22.073  12.398
82310W        W47790  36.993  10.164   3.799
82311W        W47791  11.343  44.276  11.999
82312W        W47792   0.965   9.292   3.223
82313W        W47793  22.095  31.896   1.442
82314W        W47794  31.444  15.663  13.929
82315W        W47795  20.564  39.813  10.420
82316W        W47796  32.617   3.299  10.936
82317W        W47797  44.968  38.415   0.937
82318W        W47798  42.940  14.670  14.356
82319W        W47799  43.459  24.048  13.400
82320W        W47800  39.814   4.871  14.495
82321W        W47801  30.014  43.347   0.956
82322W        W47802  29.605  16.195  13.370
82323W        W47803  32.489  30.424  11.102
82324W        W47804  15.783  15.774   2.394
82325W        W47805  17.183  20.220   1.848
82326W        W47806  14.680  17.104   4.739
82327W        W47807   7.693  40.944  10.586
82328W        W47808  30.124  40.036  12.463
82329W        W47809  30.087  11.311   3.832
82330W        W47810  19.728  38.347  11.585
82331W        W47811  36.985   5.687   4.329
82332W        W47812  33.987  36.930  14.758
82333W        W47813  29.637  30.054  10.545
82334W        W47814  30.059  11.341  13.948
82335W        W47815  21.040  22.582  12.579
82336W        W47816  28.073  31.121  14.908
82337W        W47817  30.530  39.028  12.844
82338W        W47818  30.636  26.547   4.654
82339W        W47819  14.100  37.941  13.445
82340W        W47820  40.348   9.691   4.144
82341W        W47821   3.420   8.209   1.237
82342W        W47822  38.454  21.611   4.735
82343W        W47823   2.741   9.681  14.382
82344W        W47824  12.801   1.292  14.477
82345W        W47825  43.390  25.195   0.912
82346W        W47826  44.415  38.502   2.902
82347W        W47827   4.295  35.577  12.425
82348W        W47828   0.876  36.453  13.963
82349W        W47829  32.419  31.504   2.727
82350W        W47830  13.672  36.872   1.870
82351W        W47831  39.411  43.800   0.951
82352W        W47832  22.168  20.062   0.440
82353W        W47833   5.315  13.287   4.330
82354W        W47834  27.474   3.377  11.961
82355W        W47835  14.097   3.711   0.253
82356W        W47836  21.263  41.452   2.877
82357W        W47837  23.237  23.703   3.852
82358W        W47838  19.696  41.421  10.500
82359W        W47839   9.340  23.630  11.040
82360W        W47840   3.366  12.635  14.954
82361W        W47841   1.866  22.216   2.684
82362W        W47842  32.110  23.024  14.998
82363W        W47843  16.709  42.781   1.280
82364W        W47844  16.615  11.635  11.063
82365W        W47845  18.703  37.854   3.764
82366W        W47846  19.634  23.530   3.198
82367W        W47847  44.874  38.463   3.742
82368W        W47848  14.698  34.116  14.495
82369W        W47849  37.009  23.677  13.970
82370W        W47850  39.387   6.227   3.681
82371W        W47851  13.821   3.742   4.718
82372W        W47852   1.357  15.682   2.361
82373W        W47853  32.394  16.613  14.962
82374W        W47854  39.925  39.972   0.862
82375W        W47855  34.113  25.600  10.622
82376W        W47856  34.042   3.355   0.312
82377W        W47857  18.171  40.506   4.652
82378W        W47858  40.438   9.745  12.876
82379W        W47859  11.758  17.774  11.072
82380W        W47860  34.523   5.710   0.479
82381W        W47861  18.155   0.789   4.141
82382W        W47862  33.119  32.979   2.277
82383W        W47863  19.048  30.107   1.255
82384W        W47864  31.561  42.381   3.830
82385W        W47865  32.909   6.303  12.059
82386W        W47866  23.202  37.965  11.501
82387W        W47867  30.001  43.337   1.361
82388W        W47868  17.255  36.443   1.428
82389W        W47869  42.418   2.927  11.508
82390W        W47870  25.511  38.492   2.205
82391W        W47871   4.787  19.766  14.440
82392W        W47872  15.728  12.785   3.163
82393W        W47873  33.917  41.805  10.466
82394W        W47874  30.960  28.952   2.845
82395W        W47875   8.179  18.272  10.476
82396W        W47876  43.909  34.120   4.769
82397W        W47877  24.993  21.236  11.018
82398W        W47878  27.632  28.491  13.513
82399W        W47879  13.774   4.908  14.349
82400W        W47880   0.881  20.249  12.510
82401W        W47881  15.669  41.803   3.739
82402W        W47882   9.232   7.399   1.302
82403W        W47883  31.588  13.791  13.366
82404W        W47884  18.719  43.851   4.140
82405W        W47885   7.690  11.306   1.348
82406W        W47886  28.053  17.681   3.295
82407W        W47887  30.524  26.563  12.433
82408W        W47888   2.350  38.465   3.754
82409W        W47889  26.514  41.999   3.672
82410W        W47890  40.951  33.086   4.720
82411W        W47891  21.072   5.815   3.233
82412W        W47892   1.389  19.078  11.007
82413W        W47893   6.704  28.929   0.794
82414W        W47894  22.564   1.254  11.405
82415W        W47895  22.203  37.083   4.606
82416W        W47896  41.972   6.860   9.933
82417W        W47897  27.520  22.226   2.797
82418W        W47898  16.162  43.825  10.103
82419W        W47899  14.095   4.721   5.088
82420W        W47900   5.814  32.618   1.776
82421W        W47901  19.258   9.242   1.930
82422W        W47902  18.648  40.956  11.946
82423W        W47903   6.389  21.029  11.060
82424W        W47904  30.474  25.471  13.449
82425W        W47905  17.280  32.592   2.785
82426W        W47906  17.652   6.309  12.460
82427W        W47907  24.606  34.928   4.623
82428W        W47908  27.558  11.754   1.342
82429W        W47909   7.223  16.260   2.399
82430W        W47910  11.348  36.874   2.217
82431W        W47911  14.754  28.569  14.303
82432W        W47912  41.828  32.545  10.519
82433W        W47913   9.868  31.106   3.764
82434W        W47914  35.358  39.920  12.983
82435W        W47915   8.348  12.639  13.055
82436W        W47916  33.399  22.164  10.528
82437W        W47917  36.885  32.984  12.567
82438W        W47918  29.602  16.598   2.414
82439W        W47919  10.823   8.332  13.355
82440W        W47920   5.835  32.514  12.357
82441W        W47921  22.547  26.498  12.968
82442W        W47922  27.040  18.194   4.263
82443W        W47923  10.238   5.802   3.219
82444W        W47924  17.707  15.738   1.888
82445W        W47925  41.803  27.614  10.625
82446W        W47926   8.700  18.747  11.040
82447W        W47927  29.038  27.984   4.644
82448W        W47928   5.827  23.150   1.327
82449W        W47929   9.880  15.746   1.859
82450W        W47930   4.278  14.642   0.956
82451W        W47931  39.329   8.688   2.773
82452W        W47932   9.752   8.887  14.996
82453W        W47933  26.039  20.540  11.961
82454W        W47934  31.611  16.095  13.844
82455W        W47935  12.698  42.824   1.809
82456W        W47936  42.919  40.935  14.809
82457W        W47937  34.421  21.695   3.817
82458W        W47938  11.182  17.270  13.328
82459W        W47939  30.456  14.766   2.323
82460W        W47940   5.924   9.696  12.567
82461W        W47941  24.979  11.861   1.767
82462W        W47942  10.756  12.315   1.253
82463W        W47943  24.136  37.480   4.604
82464W        W47944   1.411   4.700  14.401
82465W        W47945  17.600   4.415   0.804
82466W        W47946  41.856   9.216   0.316
82467W        W47947  26.076  34.110  14.887
82468W        W47948  23.718  41.917  14.368
82469W        W47949   6.342  19.237  11.521
82470W        W47950  25.042   8.809   0.852
82471W        W47951  25.067   1.464  11.023
82472W        W47952  29.922  35.082  10.632
82473W        W47953   9.736  44.445   2.196
82474W        W47954  17.569  13.605   2.799
82475W        W47955  24.485  31.046   3.374
82476W        W47956  38.562  20.722   3.803
82477W        W47957  34.588   1.254   4.670
82478W        W47958  32.049  39.930   0.427
82479W        W47959  34.552  13.629   1.330
82480W        W47960   7.772   8.345   2.796
82481W        W47961  11.223  25.182   1.861
82482W        W47962  20.642  25.665   1.223
82483W        W47963  35.084   8.406  13.396
82484W        W47964   7.690  13.627   3.160
82485W        W47965   9.384  27.103   3.728
82486W        W47966  25.582  29.131  11.406
82487W        W47967  19.162  35.536   5.289
82488W        W47968  38.847  13.832  13.413
82489W        W47969  34.089  11.683  11.091
82490W        W47970  28.937  23.697   4.228
82491W        W47971   1.310   4.859   0.931
82492W        W47972  44.379   6.199  10.541
82493W        W47973  36.879  31.049   0.875
82494W        W47974  13.333  31.560   3.712
82495W        W47975   4.296   5.706   3.668
82496W        W47976  16.236  18.123   3.355
82497W        W47977  14.251  13.311   5.211
82498W        W47978   0.346  12.777  14.477
82499W        W47979   5.912  13.279  10.896
82500W        W47980   1.293  42.855  12.851
82501W        W47981  23.724  43.906  12.557
82502W        W47982  25.541  29.094   3.819
82503W        W47983  41.513  31.111  14.460
82504W        W47984  40.342  11.286   0.772
82505W        W47985  32.898  14.814   1.433
82506W        W47986  27.604  33.987   2.363
82507W        W47987   8.824  40.465   1.416
82508W        W47988  30.566  29.530   4.280
82509W        W47989  22.526  17.659   4.715
82510W        W47990  25.627  33.918  14.898
82511W        W47991  34.508  25.649   4.643
82512W        W47992  17.791  23.145  12.988
82513W        W47993  34.994  21.673  14.972
82514W        W47994  23.151  43.374  11.011
82515W        W47995  20.572  12.258  13.938
82516W        W47996  27.619  33.540  13.989
82517W        W47997   0.269  23.585   2.379
82518W        W47998  32.539  15.326  12.897
82519W        W47999  17.205   3.816  13.923
82520W        W48000   1.413  24.128   4.716
82521W        W48001  24.044  39.387   3.333
82522W        W48002  16.142  39.531  14.310
82523W        W48003  30.985  20.160   1.912
82524W        W48004  40.430  30.946  12.844
82525W        W48005   2.796   7.818  10.894
82526W        W48006  17.087  42.313   3.380
82527W        W48007  24.166  14.148  10.068
82528W        W48008   5.764   5.809  13.492
82529W        W48009  24.220  13.351  14.861
82530W        W48010   0.858   5.863   4.727
82531W        W48011   9.678  11.673  13.810
82532W        W48012  24.154  42.993  11.869
82533W        W48013  13.263   6.371  13.910
82534W        W48014  18.638  38.414   0.776
82535W        W48015   3.888  13.246  14.922
82536W        W48016  36.509  44.350  12.441
82537W        W48017  40.304  19.282   4.338
82538W        W48018   9.797  38.409   1.818
82539W        W48019  18.694   9.777   0.300
82540W        W48020  10.244   5.244   5.217
82541W        W48021   5.885  22.722  11.920
82542W        W48022  29.120   9.865  14.426
82543W        W48023  25.683  34.441   0.453
82544W        W48024  14.275   9.374  13.954
82545W        W48025  39.515  17.726  13.479
82546W        W48026   5.916   9.890   2.826
82547W        W48027  35.400  23.709   2.263
82548W        W48028  32.548  37.921   4.698
82549W        W48029   8.261  37.403   3.214
82550W        W48030  29.454  41.405  10.097
82551W        W48031  33.389   9.760   4.668
82552W        W48032  32.101  28.445   2.778
82553W        W48033  10.222  22.528  12.962
82554W        W48034   4.906  29.583   4.237
82555W        W48035  42.446  43.012   1.844
82556W        W48036  16.625   6.243  14.397
82557W        W48037  38.890   6.881   3.655
82558W        W48038   7.682  34.970   0.286
82559W        W48039  17.562  41.032   0.259
82560W        W48040  25.580   8.842  13.880
82561W        W48041  11.221  24.614   2.850
82562W        W48042  37.548  36.978   3.234
82563W        W48043  41.893  25.996   2.313
82564W        W48044  32.992  17.744  14.997
82565W        W48045  17.575  33.025  13.342
82566W        W48046   2.291   6.405   9.954
82567W        W48047  37.498  44.939  14.339
82568W        W48048  28.997  27.533  14.414
82569W        W48049  39.995  27.591  10.507
82570W        W48050  39.380  22.010  10.922
82571W        W48051   0.474  14.718   2.415
82572W        W48052  17.244  28.962  13.520
82573W        W48053   3.821  36.415  10.011
82574W        W48054  43.900  15.169  13.985
82575W        W48055  28.071  35.876   1.253
82576W        W48056  19.711  38.493  14.877
82577W        W48057  15.137  27.660  11.097
82578W        W48058  20.127   4.227   4.657
82579W        W48059  16.687  44.859  14.976
82580W        W48060  11.138  12.359   2.811
82581W        W48061   3.911  34.615   2.676
82582W        W48062  19.140  43.830  13.961
82583W        W48063  44.446  39.829   4.346
82584W        W48064  41.374   7.281   1.432
82585W        W48065  22.605  43.277   3.732
82586W        W48066  28.434  35.467   0.799
82587W        W48067  25.688  36.542   0.813
82588W        W48068   2.816  36.551   1.900
82589W        W48069  19.201   4.435   3.704
82590W        W48070  27.500  32.550  14.977
82591W        W48071   3.239  19.546  11.012
82592W        W48072  33.393  44.942   2.720
82593W        W48073  19.625  43.498  14.838
82594W        W48074  19.746  27.164  12.467
82595W        W48075  18.714  15.112  10.587
82596W        W48076  11.328  19.756  12.874
82597W        W48077   3.892  37.548  11.019
82598W        W48078   7.884   4.885   3.332
82599W        W48079  41.525   5.404  11.991
82600W        W48080  29.951  20.175   4.742
82601W        W48081  14.120  33.508   1.743
82602W        W48082  29.067  22.197   1.233
82603W        W48083   6.330   4.843   3.803
82604W        W48084  26.065  27.954  11.519
82605W        W48085  39.932  33.561  10.623
82606W        W48086  44.760  19.588  14.400
82607W        W48087   3.223  36.442   0.272
82608W        W48088   8.674  27.159   4.204
82609W        W48089  24.110  10.656   1.329
82610W        W48090   9.166  17.110   4.799
82611W        W48091  42.781  32.107   2.376
82612W        W48092  31.487  41.481   0.883
82613W        W48093  24.196  39.332   0.399
82614W        W48094   9.873  26.026   2.824
82615W        W48095  28.933  35.537  12.906
82616W        W48096   0.372   7.679  13.955
82617W        W48097  29.571  44.787  11.913
82618W        W48098   1.343  16.227  14.850
82619W        W48099   8.224  33.993  14.016
82620W        W48100  25.148  34.488  12.420
82621W        W48101  19.637   0.860  13.866
82622W        W48102  42.826  30.984  12.562
82623W        W48103   5.387   5.826  12.990
82624W        W48104  33.024  39.002  14.327
82625W        W48105  10.643  38.888  12.056
82626W        W48106  17.679  19.548  12.491
82627W        W48107  42.834   7.844   3.245
82628W        W48108  30.444  36.533  11.050
82629W        W48109  26.039  21.097  13.883
82630W        W48110  17.088  22.651   0.917
82631W        W48111  29.529   3.415  12.063
82632W        W48112  22.716   0.413  11.045
82633W        W48113  32.581   4.327  14.433
82634W        W48114  42.299  32.105  10.470
82635W        W48115   8.678  38.565   2.754
82636W        W48116  13.269  21.066  12.374
82637W        W48117  29.100  40.412  14.389
82638W        W48118  43.319   7.815  10.601
82639W        W48119  44.905  41.919  14.968
82640W        W48120  31.621   7.813  10.434
82641W        W48121  42.991  22.614   1.698
82642W        W48122  13.324  25.033  12.490
82643W        W48123  10.827   0.295  13.819
82644W        W48124  29.633  34.057   3.301
82645W        W48125   1.389   9.322  12.915
82646W        W48126  18.696  23.524   3.657
82647W        W48127  26.488  41.340   3.682
82648W        W48128  34.081  44.406   2.360
82649W        W48129  22.515  27.543  14.305
82650W        W48130  41.417  27.521  11.922
82651W        W48131  36.409  21.217  14.332
82652W        W48132  33.458  23.654  12.073
82653W        W48133  34.544  25.020   1.891
82654W        W48134   8.271   9.742  12.500
82655W        W48135   2.253  30.007   3.845
82656W        W48136   6.292   7.391  11.903
82657W        W48137   5.391  18.244   2.822
82658W        W48138  40.853  17.757   3.180
82659W        W48139  16.589   4.269  10.975
82660W        W48140  25.206  18.579   1.834
82661W        W48141  44.353  35.079   5.137
82662W        W48142  38.930  18.109  14.908
82663W        W48143  19.240  13.663   4.286
82664W        W48144  41.001  34.112  12.463
82665W        W48145  11.232  33.999  12.017
82666W        W48146  36.477  11.744   5.210
82667W        W48147   1.822  26.180  11.397
82668W        W48148  24.976  16.778   0.242
82669W        W48149  44.858  29.565  14.912
82670W        W48150   2.821  42.511  12.549
82671W        W48151  14.729  26.609  12.982
82672W        W48152  27.520  38.410  10.587
82673W        W48153  21.151  10.821  14.944
82674W        W48154  16.603  14.689   5.115
82675W        W48155  26.174  10.668  14.944
82676W        W48156  25.028  24.132   3.154
82677W        W48157  21.227  25.178  12.041
82678W        W48158  20.213  40.994   3.191
82679W        W48159  41.384  28.012   0.374
82680W        W48160  28.474  31.525   4.607
82681W        W48161  10.231  26.639  13.457
82682W        W48162  14.740  23.562  14.009
82683W        W48163  44.343  18.708   4.122
82684W        W48164  41.964  22.639  14.463
82685W        W48165   3.844  35.954  11.933
82686W        W48166  26.626  39.525   3.755
82687W        W48167  23.028  30.413  10.474
82688W        W48168  42.282  39.369   0.831
82689W        W48169  23.704  31.596   2.818
82690W        W48170  13.231  42.839   1.262
82691W        W48171  33.490  40.495   5.203
82692W        W48172  22.247  14.790   1.362
82693W        W48173  17.301   1.422  11.384
82694W        W48174  43.866   5.262  11.423
82695W        W48175  39.978  12.818  13.855
82696W        W48176  27.979   1.971  10.524
82697W        W48177  44.455  11.202   4.332
82698W        W48178  12.770  17.175   2.717
82699W        W48179   6.313  31.078  14.943
82700W        W48180   3.776  37.361   4.346
82701W        W48181  27.667  21.649  11.054
82702W        W48182  39.403  16.313   3.745
82703W        W48183  10.835  30.142   2.342
82704W        W48184  44.330  16.703  10.436
82705W        W48185  27.549  38.851   2.874
82706W        W48186  27.471  31.494   2.258
82707W        W48187  10.675  26.111  11.039
82708W        W48188   4.408   3.724   0.365
82709W        W48189   4.236  32.484   3.829
82710W        W48190  44.344  13.160   0.371
82711W        W48191  23.150  41.032   1.220
82712W        W48192  29.522   7.188  14.284
82713W        W48193   7.409   0.860   3.300
82714W        W48194  31.584  43.793  11.989
82715W        W48195  25.536  12.328  13.035
82716W        W48196  41.865   7.254   2.398
82717W        W48197   2.396  37.967   0.379
82718W        W48198  35.563   2.916   4.270
82719W        W48199  35.487  12.171   4.699
82720W        W48200  44.799  14.320   1.905
82721W        W48201  44.947  10.384   3.687
82722W        W48202  22.690  44.990  13.831
82723W        W48203  16.732  22.710  14.963
82724W        W48204   1.906  25.567   4.266
82725W        W48205   7.766  34.433   1.363
82726W        W48206  10.723  24.702  14.804
82727W        W48207  29.139  23.189  11.916
82728W        W48208  14.640  37.394   1.272
82729W        W48209  24.492   6.905  11.926
82730W        W48210  43.278  18.574   3.162
82731W        W48211  20.704  36.575   3.372
82732W        W48212  12.276  14.325  13.934
82733W        W48213  16.146  16.791   3.165
82734W        W48214   9.188   5.803   2.679
82735W        W48215  13.198  20.656  11.489
82736W        W48216  13.795  36.999  11.504
82737W        W48217  10.154  30.577  12.920
82738W        W48218  43.779   1.404   3.741
82739W        W48219   6.880   1.422  14.482
82740W        W48220  15.800  40.507   0.432
82741W        W48221  36.492   5.871  13.423
82742W        W48222  17.295  16.285  12.566
82743W        W48223   4.845   6.303   4.818
82744W        W48224  39.555   3.271  11.000
82745W        W48225  16.278  41.804   5.288
82746W        W48226  30.559  19.115  14.819
82747W        W48227  41.955  17.748  11.448
82748W        W48228  12.712  22.228   2.272
82749W        W48229  26.523  33.434   5.281
82750W        W48230   2.883  34.515   1.272
82751W        W48231  27.164  23.696   0.441
82752W        W48232   5.398  41.468   2.673
82753W        W48233  37.417   7.868   0.352
82754W        W48234  34.439  15.199  13.924
82755W        W48235  23.608  14.605  10.988
82756W        W48236  33.118  44.877   4.216
82757W        W48237   3.238  20.239   0.931
82758W        W48238  17.291  36.093   2.740
82759W        W48239  41.968  34.455   4.670
82760W        W48240  27.616  38.029  11.537
82761W        W48241  27.022  38.451  11.927
82762W        W48242  30.929   9.740   3.181
82763W        W48243  13.678  27.468  10.557
82764W        W48244  37.988   4.741  14.970
82765W        W48245  40.520   3.299   2.234
82766W        W48246  35.534  13.314  11.857
82767W        W48247  12.167  39.921  12.348
82768W        W48248  23.561  17.214  14.296
82769W        W48249  12.132  13.308  14.960
82770W        W48250   5.320  28.580   0.384
82771W        W48251  15.215  38.449   2.662
82772W        W48252  26.137  15.731   1.272
82773W        W48253  11.326  35.935   4.622
82774W        W48254  19.183   0.850   4.160
82775W        W48255   8.357  36.057  14.375
82776W        W48256  29.175  14.820  11.435
82777W        W48257  44.956  28.587  11.444
82778W        W48258  39.412  28.095  13.994
82779W        W48259  18.079  33.623   4.636
82780W        W48260   9.345  35.501   0.797
82781W        W48261   0.287  41.294   2.799
82782W        W48262  35.492  10.673   4.161
82783W        W48263  33.953   2.756  11.603
82784W        W48264  31.488  28.105   1.433
82785W        W48265  34.041  16.665  12.041
82786W        W48266  11.714  30.579   1.340
82787W        W48267  18.168   0.888   3.715
82788W        W48268   7.862   4.220  10.919
82789W        W48269  35.565  17.212  14.980
82790W        W48270   4.734  23.028   1.414
82791W        W48271  42.791  30.107   4.758
82792W        W48272  35.439  10.244  10.994
82793W        W48273  13.702  34.369   0.392
82794W        W48274  14.148  26.205   4.656
82795W        W48275   8.672  32.028  13.980
82796W        W48276  28.528  22.665   3.834
82797W        W48277  26.012  36.357  14.909
82798W        W48278  31.126  16.610  13.330
82799W        W48279  31.434  37.353  10.633
82800W        W48280   0.830  32.401   3.728
82801W        W48281  29.988  33.928   4.199
82802W        W48282  26.681  40.493  12.540
82803W        W48283  41.907  11.210  11.559
82804W        W48284  30.441  13.786   0.453
82805W        W48285  32.140  25.496  11.575
82806W        W48286  16.203   8.740  13.883
82807W        W48287  14.743  37.854  11.514
82808W        W48288  14.140  20.071  14.514
82809W        W48289   7.730   9.651   2.389
82810W        W48290  27.028  35.067  14.768
82811W        W48291   7.666  12.641   0.374
82812W        W48292   5.281  25.216   4.211
82813W        W48293   2.799  14.590  11.960
82814W        W48294   0.334  12.164   0.454
82815W        W48295   9.878  33.989  14.806
82816W        W48296   4.817   0.488  12.375
82817W        W48297   8.778   9.805  10.965
82818W        W48298  28.994  25.020   1.414
82819W        W48299   5.422  32.439  13.390
82820W        W48300  14.593  28.557   1.879
82821W        W48301  14.782  16.713   4.314
82822W        W48302  40.496   0.424   0.937
82823W        W48303  13.196  26.687  12.989
82824W        W48304  13.221  24.087   3.688
82825W        W48305  13.226   9.157  13.506
82826W        W48306  26.013  36.529   1.389
82827W        W48307  44.259  37.951  13.525
82828W        W48308  18.098   5.248  10.550
82829W        W48309  30.982   7.711   0.439
82830W        W48310  21.052   4.251   2.778
82831W        W48311  27.657  40.867  14.012
82832W        W48312   3.954   2.443   0.888
82833W        W48313  42.822  18.734   2.245
82834W        W48314   9.178   6.851  11.460
82835W        W48315  38.074  14.716   0.893
82836W        W48316  26.531  10.325   5.240
82837W        W48317  30.915  21.697   2.222
82838W        W48318  32.129  31.514   3.227
82839W        W48319  20.717  33.941   1.909
82840W        W48320  35.377  14.204   3.816
82841W        W48321  38.820  15.131   4.278
82842W        W48322  42.459  16.187  11.975
82843W        W48323  20.221   9.332   1.816
82844W        W48324   2.268  34.442   0.773
82845W        W48325  38.947  33.497  11.391
82846W        W48326   7.749   3.294   3.220
82847W        W48327  25.670  21.163   0.907
82848W        W48328  39.405  18.719   1.907
82849W        W48329   1.882   6.331  10.631
82850W        W48330  37.529   1.917  11.454
82851W        W48331  40.980  11.735   3.746
82852W        W48332  26.633  37.902  14.303
82853W        W48333  17.706  23.025   3.833
82854W        W48334  36.582  22.562  12.480
82855W        W48335  39.474  18.788   0.870
82856W        W48336  41.862  31.960  10.457
82857W        W48337   5.689   0.431  11.448
82858W        W48338  21.582  38.938   0.864
82859W        W48339  39.914  28.509   4.830
82860W        W48340  33.054   9.334   1.735
82861W        W48341  32.133   3.921  13.432
82862W        W48342  34.496  33.509  10.603
82863W        W48343  38.333  39.526  13.457
82864W        W48344  39.978  30.634   4.304
82865W        W48345   8.298  42.941  13.377
82866W        W48346  38.532  11.215  11.565
82867W        W48347  10.676  18.561   2.287
82868W        W48348  19.054   1.433   2.405
82869W        W48349   7.407  32.446   1.401
82870W        W48350  44.305   3.259   1.716
82871W        W48351  18.764  17.742   3.848
82872W        W48352  33.441   7.823   0.902
82873W        W48353  15.803  11.852   3.293
82874W        W48354   3.265  42.989   4.783
82875W        W48355  16.730   2.254  13.850
82876W        W48356   1.445  24.078   4.221
82877W        W48357   1.824  10.258   1.787
82878W        W48358   7.751   4.805  12.531
82879W        W48359  32.104   4.254   0.383
82880W        W48360   9.203  26.000   2.703
82881W        W48361  24.000   5.435  12.350
82882W        W48362  29.091  21.723   0.877
82883W        W48363   8.761   2.402   5.101
82884W        W48364  43.469  20.167   3.768
82885W        W48365   4.801  31.908  10.924
82886W        W48366  41.949  38.045  11.432
82887W        W48367   9.708  37.365  11.893
82888W        W48368  42.032  42.930  12.948
82889W        W48369   9.837  43.784   2.888
82890W        W48370  37.932  12.351   1.417
82891W        W48371  12.656  37.991  12.524
82892W        W48372  17.754  38.339  11.986
82893W        W48373  42.825  35.889  14.458
82894W        W48374  36.592  18.058  14.860
82895W        W48375  41.441  19.256  14.469
82896W        W48376  41.318  25.179   2.202
82897W        W48377  18.684   1.256   2.298
82898W        W48378  38.505   4.795   3.357
82899W        W48379   4.368  43.771   0.289
82900W        W48380   4.846  16.270  11.427
82901W        W48381  24.595  27.584  14.978
82902W        W48382  41.381  23.684  14.913
82903W        W48383  28.648  12.211  11.443
82904W        W48384   6.314   2.283   0.897
82905W        W48385   7.256  23.735   0.870
82906W        W48386  27.459   8.777  13.366
82907W        W48387  39.456   0.308   1.288
82908W        W48388  38.825  44.879   4.133
82909W        W48389  32.509  26.187  13.866
82910W        W48390   0.753   0.923  12.010
82911W        W48391  42.896  30.121  10.440
82912W        W48392  31.630   5.856   3.225
82913W        W48393   3.225  35.909  12.395
82914W        W48394  26.112  19.589   1.717
82915W        W48395  14.783  16.627  13.519
82916W        W48396  24.998  17.635   4.737
82917W        W48397  36.842  41.842  13.445
82918W        W48398   0.934  44.379   9.997
82919W        W48399  30.010  18.653  14.834
82920W        W48400  22.657  40.031   2.178
82921W        W48401  28.637  27.549   2.178
82922W        W48402   9.197  29.430  12.463
82923W        W48403  38.067  16.647  10.952
82924W        W48404   1.300  44.345  11.417
82925W        W48405   4.906   7.414  10.050
82926W        W48406  34.983  20.234  14.977
82927W        W48407  44.880  31.575   0.268
82928W        W48408  39.020  44.473   0.767
82929W        W48409  19.147  33.536  13.840
82930W        W48410  16.120  35.461   2.280
82931W        W48411   6.728   8.728  11.052
82932W        W48412  41.790  27.994   2.700
82933W        W48413   7.243   1.290  13.057
82934W        W48414  16.575  42.804  10.918
82935W        W48415   7.236   1.808  10.409
82936W        W48416  31.091  38.563   3.691
82937W        W48417   1.932  26.667  14.456
82938W        W48418  23.104   6.837   4.738
82939W        W48419   9.779  22.145   0.246
82940W        W48420  14.676   7.840   3.779
82941W        W48421  32.931  17.135  11.393
82942W        W48422  30.016   1.916  14.425
82943W        W48423  43.766  18.242   0.732
82944W        W48424  37.876  18.707   2.271
82945W        W48425  23.999  25.109  10.596
82946W        W48426  30.152  43.840   2.367
82947W        W48427   0.839   8.351   4.729
82948W        W48428   6.849   6.827  11.063
82949W        W48429  41.817  28.146   1.327
82950W        W48430  21.622  11.659  10.106
82951W        W48431  25.088  35.889   2.713
82952W        W48432  41.866  15.114  14.467
82953W        W48433  11.653   4.819   1.385
82954W        W48434   5.858   3.876   4.709
82955W        W48435  33.915   2.809  12.549
82956W        W48436  20.239  14.177   4.778
82957W        W48437  39.953   9.781  13.958
82958W        W48438  19.243   2.339  13.416
82959W        W48439  26.555  35.583  10.921
82960W        W48440  36.549  18.598   3.303
82961W        W48441  11.196   1.885  12.830
82962W        W48442  33.122  11.724  13.963
82963W        W48443  33.523  17.204   4.720
82964W        W48444  19.243  28.091   4.828
82965W        W48445  28.509   1.372   2.688
82966W        W48446  43.332  12.779   1.853
82967W        W48447  11.144  30.159  14.307
82968W        W48448   7.281  31.024  10.997
82969W        W48449  28.951   1.965   2.346
82970W        W48450  11.237  25.162  13.975
82971W        W48451  41.988  23.061   4.187
82972W        W48452  19.183  35.428   2.253
82973W        W48453   6.812  12.228  12.975
82974W        W48454  35.530   3.854   1.707
82975W        W48455  22.188  23.068   2.673
82976W        W48456  24.554  27.624  11.494
82977W        W48457  15.139  18.677  11.029
82978W        W48458  33.537  36.496  10.126
82979W        W48459  23.109  39.901   4.158
82980W        W48460  30.026  13.192   2.246
82981W        W48461  41.966  27.005   4.707
82982W        W48462  25.215  44.392  13.528
82983W        W48463  35.594  10.366   2.864
82984W        W48464   4.880  21.042   5.155
82985W        W48465  23.182  37.408  14.819
82986W        W48466  12.857  20.656  12.382
82987W        W48467  30.966  14.152   3.743
82988W        W48468  28.487  23.626  12.001
82989W        W48469   3.324  22.110  13.478
82990W        W48470  13.623   4.237   2.315
82991W        W48471  21.209  21.732   2.355
82992W        W48472   6.217  13.763   2.238
82993W        W48473  28.587  44.408  14.810
82994W        W48474  38.490  43.805  14.853
82995W        W48475  14.638  35.039   1.392
82996W        W48476   2.762  12.157  10.630
82997W        W48477  37.009  26.559   3.377
82998W        W48478   3.899  22.103  10.616
82999W        W48479  39.465  14.623  13.060
83000W        W48480  23.530  36.971  13.830
83001W        W48481  21.638  31.435   4.702
83002W        W48482   9.782  13.722  13.031
83003W        W48483  10.858  41.306   0.867
83004W        W48484  28.567   0.259   4.328
83005W        W48485  44.905  38.485  11.884
83006W        W48486  27.032  32.621  11.059
83007W        W48487  27.171  35.960   3.361
83008W        W48488   0.750  17.218  13.002
83009W        W48489  25.163  43.891   0.727
83010W        W48490  41.791  17.776   1.367
83011W        W48491  30.550   9.339  14.460
83012W        W48492  40.547  24.095   1.766
83013W        W48493  27.610  13.777   0.358
83014W        W48494  36.844  17.737   4.723
83015W        W48495  22.243   1.295  14.373
83016W        W48496  19.093  19.070  14.314
83017W        W48497  14.613  14.774  13.517
83018W        W48498  16.236  30.145   0.853
83019W        W48499  39.414  42.952   1.845
83020W        W48500  15.661  34.561  14.010
83021W        W48501   6.217   0.883  13.960
83022W        W48502   4.728  11.741  13.975
83023W        W48503   1.862  33.044  14.452
83024W        W48504  32.129  44.898   2.711
83025W        W48505  34.012   0.446   1.236
83026W        W48506  16.694  36.083  10.406
83027W        W48507  40.898  35.587  13.017
83028W        W48508  44.977  38.380  13.010
83029W        W48509  22.230   1.803   1.346
83030W        W48510  44.937  22.667   3.777
83031W        W48511  18.061  31.069  13.438
83032W        W48512  23.623   8.279   0.883
83033W        W48513   1.257  38.397   4.241
83034W        W48514   0.848  36.959   2.743
83035W        W48515  39.854  30.532  11.088
83036W        W48516  13.761  29.028  11.059
83037W        W48517   3.925  24.558  12.836
83038W        W48518  41.496   7.776   0.875
83039W        W48519  17.774  26.077  13.349
83040W        W48520  25.968   6.705   2.664
83041W        W48521  25.626  26.952  12.547
83042W        W48522   6.861   6.697   1.833
83043W        W48523  41.534   8.264   2.364
83044W        W48524  28.024  12.694   2.295
83045W        W48525  42.457   5.267  12.427
83046W        W48526  24.036  22.525   2.791
83047W        W48527  28.508   2.339   1.713
83048W        W48528  17.153  18.179  14.354
83049W        W48529  28.580  19.731  14.366
83050W        W48530  16.147  36.381   0.245
83051W        W48531  38.377  22.725  14.820
83052W        W48532   4.406   2.810   0.765
83053W        W48533   8.754   2.866  11.937
83054W        W48534  42.447  28.078   0.792
83055W        W48535  39.010  11.135  11.038
83056W        W48536  42.412  10.351  11.484
83057W        W48537   4.339  12.700   1.891
83058W        W48538  40.389   8.293  11.006
83059W        W48539  25.648  43.795   3.869
83060W        W48540  28.185  36.586   1.853
83061W        W48541  24.034  18.212  11.899
83062W        W48542  21.094  26.139   4.787
83063W        W48543  44.777   5.388   4.701
83064W        W48544  33.442  28.003   0.951
83065W        W48545  41.935  10.725  12.845
83066W        W48546  31.136  37.371   4.805
83067W        W48547   2.416  38.985  10.589
83068W        W48548  42.507   0.265  14.771
83069W        W48549  16.271  34.373   3.261
83070W        W48550  27.972  40.426   4.818
83071W        W48551  15.647  27.078  12.523
83072W        W48552  27.947  26.607   3.705
83073W        W48553   5.276  33.031   2.890
83074W        W48554   1.433   3.324   4.746
83075W        W48555  38.363  42.870   3.796
83076W        W48556  30.534  20.220   2.691
83077W        W48557  16.720  17.095  14.879
83078W        W48558  42.794  32.426   2.724
83079W        W48559   7.811  17.245  12.842
83080W        W48560  18.135  14.766  13.016
83081W        W48561   5.924  34.530  13.816
83082W        W48562  18.594  25.512   4.143
83083W        W48563   6.856  42.356   3.651
83084W        W48564  14.096  17.199   3.848
83085W        W48565  16.690  17.116   2.322
83086W        W48566   8.872  10.260   3.674
83087W        W48567   2.438  18.163  14.953
83088W        W48568   1.807  24.517  13.834
83089W        W48569   6.824   7.807  14.339
83090W        W48570   1.798  40.926  11.857
83091W        W48571  20.662   7.880  13.987
83092W        W48572  39.939   3.753   1.304
83093W        W48573  37.446   2.255   2.802
83094W        W48574  17.258  19.645   4.764
83095W        W48575   4.354  32.520  12.551
83096W        W48576  35.491   1.436   3.776
83097W        W48577  35.507   8.738  14.422
83098W        W48578  33.076  12.357   2.248
83099W        W48579  26.662  38.855  14.377
83100W        W48580   1.910  11.297   0.961
83101W        W48581   6.211  15.308  11.045
83102W        W48582  39.555   1.471   4.747
83103W        W48583  11.630  25.614  12.059
83104W        W48584   1.278  26.073   3.637
83105W        W48585  35.856  25.648  11.542
83106W        W48586  10.720  17.769  11.516
83107W        W48587  21.234  24.584  13.465
83108W        W48588   5.726  41.020  13.536
83109W        W48589  23.498  20.155   4.653
83110W        W48590  44.843  26.101   2.860
83111W        W48591  22.705  31.550  10.090
83112W        W48592  35.920   8.343  11.999
83113W        W48593  32.001  35.367  10.529
83114W        W48594  36.460  32.422  11.069
83115W        W48595  44.308  13.252  11.089
83116W        W48596  40.962  34.430  11.018
83117W        W48597  38.334  10.352  14.015
83118W        W48598   1.457  34.995  11.054
83119W        W48599  29.109  40.894  13.834
83120W        W48600  13.841  12.768  11.059
83121W        W48601  26.592  19.622  10.550
83122W        W48602  41.798  21.229   0.392
83123W        W48603  24.494   9.262  13.855
83124W        W48604  25.003   6.397   4.142
83125W        W48605  21.138  29.626  11.092
83126W        W48606  31.084  11.249   0.852
83127W        W48607  22.061  11.266   1.805
83128W        W48608  34.475  17.111  13.014
83129W        W48609  10.680  39.879  10.911
83130W        W48610  18.285  10.282  13.314
83131W        W48611  36.464   4.732   3.329
83132W        W48612  16.282   6.920  11.489
83133W        W48613   4.247  21.577  14.485
83134W        W48614  39.934  38.982  12.068
83135W        W48615   4.383   2.722   1.409
83136W        W48616  39.324  22.530  11.518
83137W        W48617  28.081  40.840  11.443
83138W        W48618  33.963   0.486   0.427
83139W        W48619  34.055  31.635   4.672
83140W        W48620  23.594  22.532   4.183
83141W        W48621  16.278   4.365  12.828
83142W        W48622  13.187  40.912  11.021
83143W        W48623  12.617  20.098  13.496
83144W        W48624   9.172  34.432  14.920
83145W        W48625  36.346   6.913   1.404
83146W        W48626   2.357  23.036  12.373
83147W        W48627  18.567  12.213  12.532
83148W        W48628   7.835  13.274   4.155
83149W        W48629   3.799  33.965  11.888
83150W        W48630  10.317  29.477  12.865
83151W        W48631  43.966   3.411  14.933
83152W        W48632  24.093   2.394   3.205
83153W        W48633  35.438  10.378  13.889
83154W        W48634  35.952  12.170   3.242
83155W        W48635   2.832  16.082  12.508
83156W        W48636  39.986  21.616   4.781
83157W        W48637  40.979  29.166  11.908
83158W        W48638  38.920  36.920  14.785
83159W        W48639  40.403  40.409  14.835
83160W        W48640  40.411  37.533  10.998
83161W        W48641  35.048   5.689   3.856
83162W        W48642  17.680  23.637  13.963
83163W        W48643  37.536  25.217  12.981
83164W        W48644  20.030   1.870  12.930
83165W        W48645  41.804  25.627  13.020
83166W        W48646   2.912   6.396   2.801
83167W        W48647  23.182   2.735   0.968
83168W        W48648   2.846   3.439   2.252
83169W        W48649  18.194  25.624  14.927
83170W        W48650  24.202  32.055  14.999
83171W        W48651  20.193  25.121   4.281
83172W        W48652  44.869  13.270   3.160
83173W        W48653   1.828   4.886   3.176
83174W        W48654  40.939  30.035   2.734
83175W        W48655   3.403  44.277   1.767
83176W        W48656   4.274  21.667  13.968
83177W        W48657  41.452  36.423  14.474
83178W        W48658   5.880  36.884  10.409
83179W        W48659  13.141   4.235  11.114
83180W        W48660  33.970  17.284   2.731
83181W        W48661  15.144  13.210   0.340
83182W        W48662  36.365   4.912  12.928
83183W        W48663  29.152   1.297  11.465
83184W        W48664   2.788   3.287  11.573
83185W        W48665  27.673   2.815  11.955
83186W        W48666  41.937  27.044  10.617
83187W        W48667   0.970  20.600  11.398
83188W        W48668  35.062  13.179   2.216
83189W        W48669  33.386  42.802  14.928
83190W        W48670  40.022  33.626  11.005
83191W        W48671  19.622  34.523  14.511
83192W        W48672  29.500  41.522   3.255
83193W        W48673  43.842   1.427   1.294
83194W        W48674  17.777  25.544   2.356
83195W        W48675  18.170  21.632   0.373
83196W        W48676  19.706  21.665   4.662
83197W        W48677   3.730  29.540   4.238
83198W        W48678  41.509  43.302   0.828
83199W        W48679  14.244  27.193   0.813
83200W        W48680  39.355  17.196   3.782
83201W        W48681   4.230  39.511   1.257
83202W        W48682  22.145  10.823   3.308
83203W        W48683  21.085  23.663  10.409
83204W        W48684  19.671   5.731   2.301
83205W        W48685  10.229   6.862   4.821
83206W        W48686  42.890  31.448  10.062
83207W        W48687  27.187  20.044   1.330
83208W        W48688   3.363  15.107   0.946
83209W        W48689  14.630  17.259   1.431
83210W        W48690  35.891   4.906   4.617
83211W        W48691  14.763  41.016   3.797
83212W        W48692   4.740   0.288   3.798
83213W        W48693  39.917  29.615  13.859
83214W        W48694  38.010   0.399  11.474
83215W        W48695   6.891  27.073  12.042
83216W        W48696   8.202  23.187  12.954
83217W        W48697  26.581   7.907   1.888
83218W        W48698  12.739  16.740  12.911
83219W        W48699  42.381  43.897   3.685
83220W        W48700  11.629  38.969   4.175
83221W        W48701  18.666   7.228  12.564
83222W        W48702   8.860  42.861   1.226
83223W        W48703  32.020  40.804   9.554
83224W        W48704   6.409  13.296   4.146
83225W        W48705  33.900  17.791   1.446
83226W        W48706  11.859  32.556   0.261
83227W        W48707   9.242  20.084   3.644
83228W        W48708  33.006  19.744   3.737
83229W        W48709  21.660   4.873   5.089
83230W        W48710   2.960  17.080   0.457
83231W        W48711  14.172  34.512   2.193
83232W        W48712  19.072   7.706  13.837
83233W        W48713  43.475  22.674  14.766
83234W        W48714   6.829  10.668  13.857
83235W        W48715  13.121  34.958  11.435
83236W        W48716  34.517  36.513   1.758
83237W        W48717  23.732  31.640   4.743
83238W        W48718  14.630  20.558   2.230
83239W        W48719  28.436  20.664   0.788
83240W        W48720  23.560  43.774  13.342
83241W        W48721  28.571  40.520   3.264
83242W        W48722  31.064  33.980   3.356
83243W        W48723  44.838  27.658   4.205
83244W        W48724  33.594  31.629   5.223
83245W        W48725  30.642  28.016  10.907
83246W        W48726  19.158   0.751   1.271
83247W        W48727  39.550  25.568   0.432
83248W        W48728  32.428  29.430   3.360
83249W        W48729  18.140  15.290  10.426
83250W        W48730  30.908  42.459   2.415
83251W        W48731  13.791  36.993   2.674
83252W        W48732   2.231  37.538  10.433
83253W        W48733  23.725  14.749   4.195
83254W        W48734  27.136  42.876  12.426
83255W        W48735  41.876   0.951  10.497
83256W        W48736  39.510   7.223   4.187
83257W        W48737  20.638  43.976   3.196
83258W        W48738  26.676  28.099   1.261
83259W        W48739  31.013   3.415  14.460
83260W        W48740  17.638   9.293   0.900
83261W        W48741  36.548   6.297  14.380
83262W        W48742  40.947  33.534   3.160
83263W        W48743  38.390  33.945   4.271
83264W        W48744   5.855  10.875   0.427
83265W        W48745  26.960  11.189   0.799
83266W        W48746  15.217  15.152  14.360
83267W        W48747  33.925  26.624  11.095
83268W        W48748   7.836  20.032  12.350
83269W        W48749  22.243   2.857   1.231
83270W        W48750  20.622  24.068  12.973
83271W        W48751  11.183   1.865   1.727
83272W        W48752  17.271  44.953  13.356
83273W        W48753  21.154  18.130   3.764
83274W        W48754  22.148   2.941   0.243
83275W        W48755  41.299  41.925   0.356
83276W        W48756  21.075   1.748  14.411
83277W        W48757   2.310  21.241   2.365
83278W        W48758  16.572  13.767  13.997
83279W        W48759  13.656  26.572  13.505
83280W        W48760  29.962  28.165   3.273
83281W        W48761  28.599  15.586  11.108
83282W        W48762  10.159  10.657  12.838
83283W        W48763  20.144  29.523  10.986
83284W        W48764   3.861  15.146   1.810
83285W        W48765  17.695  10.319  11.384
83286W        W48766   5.211  11.127   1.384
83287W        W48767  13.205  40.419  12.441
83288W        W48768  25.218  16.761   1.711
83289W        W48769  34.073  40.541   3.286
83290W        W48770  43.495  30.996  12.860
83291W        W48771  18.120  43.005   1.761
83292W        W48772  40.331   7.384   3.672
83293W        W48773  43.424   7.278   1.838
83294W        W48774  12.770  10.252  11.087
83295W        W48775  36.880  30.530  12.458
83296W        W48776  40.025  32.953   2.353
83297W        W48777   2.229  14.291  10.597
83298W        W48778  10.376   8.238  14.457
83299W        W48779  15.823  43.874  13.795
83300W        W48780  30.925   5.424   3.708
83301W        W48781  40.835   2.879   0.948
83302W        W48782   3.757  41.506   1.857
83303W        W48783  33.515  23.059   0.934
83304W        W48784  13.253  24.551  13.892
83305W        W48785  26.987  35.958  12.994
83306W        W48786  26.062  17.598  13.057
83307W        W48787  35.908   5.287  13.962
83308W        W48788  31.128  24.520  14.770
83309W        W48789   6.319  33.022   3.237
83310W        W48790  42.372  20.236   2.208
83311W        W48791   5.860  19.734  13.384
83312W        W48792  31.075  36.551   4.118
83313W        W48793   6.404   5.723  11.425
83314W        W48794   4.363   3.461  10.904
83315W        W48795  41.800  33.523   1.249
83316W        W48796  37.461  41.815   3.215
83317W        W48797  44.278   9.742   0.439
83318W        W48798  12.177  20.234   1.917
83319W        W48799  19.628  42.295  14.024
83320W        W48800  22.170  16.262   4.335
83321W        W48801  17.588  43.954  14.424
83322W        W48802  10.654  39.509   2.281
83323W        W48803  42.363  24.230   2.689
83324W        W48804  11.654   2.435  14.342
83325W        W48805   7.290  15.297   2.736
83326W        W48806  34.067  41.478  12.343
83327W        W48807  37.429  28.652  13.058
83328W        W48808  19.190   8.868   1.752
83329W        W48809   0.477  38.568  12.060
83330W        W48810  10.660  28.601  13.893
83331W        W48811  13.805  25.615  14.938
83332W        W48812  33.387   6.808  11.423
83333W        W48813  18.159  22.723  13.056
83334W        W48814  22.209  23.679  12.557
83335W        W48815  12.281  15.217  11.403
83336W        W48816  26.554  32.444   3.838
83337W        W48817  44.834  42.293   1.424
83338W        W48818   9.791   0.807  10.576
83339W        W48819   8.734  18.139  12.089
83340W        W48820  16.797  34.957   0.892
83341W        W48821  25.076  28.636   1.738
83342W        W48822  24.135  40.008  11.570
83343W        W48823  12.620   6.717   2.376
83344W        W48824  41.914   6.877   0.254
83345W        W48825   7.373  33.550   3.219
83346W        W48826  44.772  25.675  11.112
83347W        W48827  37.922  35.922   4.270
83348W        W48828  43.338  28.539   1.723
83349W        W48829  34.050  12.744   1.711
83350W        W48830  23.237  10.335   3.712
83351W        W48831  36.393   3.441   1.859
83352W        W48832   2.324   0.852  14.497
83353W        W48833  21.241   3.378  13.342
83354W        W48834  36.386  36.362  10.625
83355W        W48835  40.037  22.232  14.944
83356W        W48836   2.285   4.864   0.750
83357W        W48837  20.767  21.539  12.897
83358W        W48838  23.680  13.318   3.219
83359W        W48839  14.639  24.643  10.991
83360W        W48840  40.471  24.657  10.940
83361W        W48841   6.266   6.757   2.675
83362W        W48842  41.980   2.920   4.767
83363W        W48843  14.697  38.872  14.339
83364W        W48844  17.082  26.676  12.470
83365W        W48845  37.952   7.814  11.559
83366W        W48846  35.448  31.616   1.703
83367W        W48847  22.616  27.506   0.935
83368W        W48848  43.016  38.914  11.053
83369W        W48849  16.771   7.801   1.361
83370W        W48850  40.489   9.151   0.384
83371W        W48851  12.311  44.816  13.486
83372W        W48852  22.705  25.963  12.530
83373W        W48853  28.448   9.294   0.307
83374W        W48854   7.751  21.624   2.873
83375W        W48855  39.320  44.010  10.588
83376W        W48856  15.591  44.764  14.884
83377W        W48857  11.851  10.756  12.836
83378W        W48858  17.708  11.729   3.223
83379W        W48859  43.361  34.601   3.337
83380W        W48860   8.197  21.699  12.084
83381W        W48861  39.315  19.588   4.694
83382W        W48862  37.893   1.916  14.293
83383W        W48863  40.815  37.833   1.888
83384W        W48864  40.330  27.538  11.871
83385W        W48865   5.295  36.037   0.862
83386W        W48866  41.317  43.772   4.739
83387W        W48867  39.377  31.899   4.600
83388W        W48868  25.213  25.183  13.329
83389W        W48869   6.212  27.667   0.832
83390W        W48870   8.808  18.077   2.703
83391W        W48871  41.436   3.870   2.387
83392W        W48872  42.832  15.645   3.326
83393W        W48873  23.076  10.801  10.619
83394W        W48874  40.466  32.430   0.964
83395W        W48875  21.750  38.425   3.244
83396W        W48876  13.180  18.683   3.376
83397W        W48877  42.314   1.474  12.077
83398W        W48878  32.461  18.766  11.441
83399W        W48879  44.406   4.400  12.541
83400W        W48880   0.343  17.564   3.720
83401W        W48881  25.653  36.997   0.284
83402W        W48882  32.102  38.965   0.302
83403W        W48883  11.674   0.761  11.107
83404W        W48884  18.559  35.391  13.970
83405W        W48885  28.163   6.238   3.700
83406W        W48886   5.416  10.198  14.789
83407W        W48887  34.950  26.144  13.351
83408W        W48888  26.965  39.856  13.434
83409W        W48889  13.656   6.750   1.927
83410W        W48890  39.969  37.843  10.492
83411W        W48891  15.270  25.057  11.377
83412W        W48892  43.932  18.240   1.427
83413W        W48893  26.501   0.382   2.257
83414W        W48894  38.060  23.660   2.790
83415W        W48895  18.563   5.249   2.754
83416W        W48896  39.543   6.331   0.776
83417W        W48897   4.719  40.368   4.753
83418W        W48898  26.687  21.091   0.839
83419W        W48899  42.332   7.893  14.023
83420W        W48900  41.319  23.129   1.752
83421W        W48901  18.655  17.201   3.159
83422W        W48902  13.633  27.545  13.413
83423W        W48903  25.211  17.149   4.662
83424W        W48904  12.229   9.819  10.627
83425W        W48905  34.964  26.033  14.836
83426W        W48906  37.392  16.169  12.886
83427W        W48907  32.131  39.533   0.907
83428W        W48908  36.463  44.476   4.180
83429W        W48909  13.255   6.426  12.518
83430W        W48910   3.809   4.742   2.290
83431W        W48911   1.964  43.805   0.919
83432W        W48912  33.524  18.283   2.811
83433W        W48913  29.433  40.348   1.781
83434W        W48914  43.806  34.030   0.835
83435W        W48915  15.167  13.233   4.352
83436W        W48916  18.194  26.557  11.950
83437W        W48917  25.512  41.972  14.319
83438W        W48918  35.934  12.291  12.369
83439W        W48919   5.197   4.781   4.823
83440W        W48920  24.671  13.619   3.862
83441W        W48921  28.440  23.548  14.443
83442W        W48922  17.618  22.200   0.362
83443W        W48923   2.926  18.681  13.792
83444W        W48924  43.388   5.912   9.992
83445W        W48925   6.323  37.395  11.406
83446W        W48926   5.351  20.661  13.487
83447W        W48927  32.986  38.337  12.878
83448W        W48928  26.968  43.842  11.029
83449W        W48929   0.853  22.109   3.285
83450W        W48930  11.358  24.579   0.364
83451W        W48931  32.926  20.751   2.837
83452W        W48932   8.168  39.441   4.732
83453W        W48933   2.836  30.431   4.280
83454W        W48934  43.817  24.979  12.559
83455W        W48935  11.237   5.217  10.580
83456W        W48936  13.121  26.607   3.862
83457W        W48937  33.608   5.410   0.379
83458W        W48938  34.384  18.774  11.924
83459W        W48939  30.619   4.918   2.747
83460W        W48940  26.155  17.798   2.877
83461W        W48941  28.022  31.951   4.732
83462W        W48942  10.356  11.694   2.702
83463W        W48943  20.698  26.110   5.166
83464W        W48944  17.559  33.538   1.340
83465W        W48945  33.441   1.807  13.471
83466W        W48946  30.115  14.739   1.751
83467W        W48947  34.952  11.647  13.508
83468W        W48948  31.945  21.057   0.311
83469W        W48949  38.063   6.298  13.326
83470W        W48950  26.201   3.335   0.744
83471W        W48951   6.790  34.948  14.308
83472W        W48952  27.478  30.034   1.924
83473W        W48953  10.647  14.829   4.319
83474W        W48954  25.085   0.316  11.120
83475W        W48955   2.396  39.997  11.918
83476W        W48956  33.074  14.271   0.848
83477W        W48957  32.045  21.649   4.259
83478W        W48958  35.050  44.259   4.248
83479W        W48959  19.569  23.628   0.749
83480W        W48960  33.017  42.379   3.275
83481W        W48961  16.655   7.902   3.750
83482W        W48962   7.357  22.554   2.353
83483W        W48963  31.898  29.459   5.253
83484W        W48964   0.859   7.795  10.494
83485W        W48965  13.837  42.021  11.450
83486W        W48966  42.432  23.690   4.166
83487W        W48967  38.370  27.167   4.351
83488W        W48968  27.509  14.276  14.814
83489W        W48969  12.732  18.256  14.946
83490W        W48970  44.897  26.477  14.020
83491W        W48971  12.817   3.324  13.814
83492W        W48972  11.819  28.084  12.935
83493W        W48973  11.639   5.782  10.542
83494W        W48974  16.760  10.338   0.444
83495W        W48975  22.675  12.681   4.670
83496W        W48976  44.320  30.500  12.545
83497W        W48977  39.544  32.428  11.575
83498W        W48978  31.476  13.158   2.257
83499W        W48979   7.715   7.757  11.441
83500W        W48980  12.717   5.255  13.956
83501W        W48981  22.524  43.921  11.593
83502W        W48982   5.772  18.181  11.521
83503W        W48983   9.188  26.676   2.710
83504W        W48984  27.985  28.566   3.687
83505W        W48985  18.708  40.893  11.102
83506W        W48986  23.548  18.293   0.269
83507W        W48987  26.090  42.457   3.811
83508W        W48988  28.480   5.766   4.829
83509W        W48989  15.259   1.394   4.329
83510W        W48990  18.692  34.060   1.221
83511W        W48991  39.014  11.240  14.900
83512W        W48992  14.266   0.472  10.128
83513W        W48993  12.707  42.518  12.427
83514W        W48994  40.045  40.448  13.017
83515W        W48995  21.259  18.271   0.414
83516W        W48996  27.469  26.637  11.543
83517W        W48997  39.329  22.041  14.918
83518W        W48998   4.250  23.516   1.796
83519W        W48999  15.703   3.792   1.760
83520W        W49000  38.402  43.445   3.788
83521W        W49001  15.675   8.198   1.710
83522W        W49002  31.628  28.518  10.905
83523W        W49003  20.152  17.197   3.195
83524W        W49004  14.677  41.844   1.905
83525W        W49005  22.038  25.503  13.968
83526W        W49006  20.648  31.528  13.809
83527W        W49007   1.891   1.478  12.481
83528W        W49008  44.949  29.633  12.002
83529W        W49009  34.568  43.475   2.328
83530W        W49010  24.191  27.092  13.437
83531W        W49011  18.225  41.805   4.172
83532W        W49012  38.354  23.587  12.911
83533W        W49013   6.821  40.408   0.354
83534W        W49014  33.514  28.971  13.811
83535W        W49015   9.771  32.505   1.261
83536W        W49016  12.209  40.038   1.805
83537W        W49017  40.423  24.029  11.481
83538W        W49018   6.699  15.748   3.815
83539W        W49019  24.629   0.251   0.739
83540W        W49020  21.182  10.287   0.760
83541W        W49021   1.952   9.784   3.837
83542W        W49022  44.264  36.042   2.833
83543W        W49023  32.545  23.047   2.688
83544W        W49024  40.380  35.977   2.276
83545W        W49025   8.249   0.404   2.375
83546W        W49026  39.990  28.560  12.003
83547W        W49027  39.384  28.012   1.702
83548W        W49028   5.726  11.171  13.532
83549W        W49029  11.259  17.119  13.933
83550W        W49030  40.925  34.413  13.375
83551W        W49031  10.225   2.425   4.736
83552W        W49032  14.596   7.274  13.308
83553W        W49033  30.998   1.930  14.900
83554W        W49034  19.096   1.280  11.865
83555W        W49035   6.389  27.954   2.690
83556W        W49036  44.830  22.235  13.978
83557W        W49037  30.025  25.711   3.159
83558W        W49038  11.785  11.150   0.254
83559W        W49039  20.232  18.718   2.277
83560W        W49040   7.717  44.389   3.717
83561W        W49041  39.413   7.687   2.706
83562W        W49042  30.044  20.653   4.790
83563W        W49043  33.412   5.244  10.063
83564W        W49044  27.455   7.796  11.985
83565W        W49045  18.616  30.017  14.948
83566W        W49046  19.552   4.863  10.533
83567W        W49047  30.655  39.963   1.780
83568W        W49048  33.946   7.879  14.864
83569W        W49049  38.067  11.316  11.104
83570W        W49050  22.024  42.904   3.315
83571W        W49051  18.570  36.095   3.194
83572W        W49052   3.382  39.367  12.936
83573W        W49053  29.650  38.934  13.819
83574W        W49054   1.363  11.768   1.333
83575W        W49055  34.021  39.412   3.174
83576W        W49056   5.383  38.991  10.913
83577W        W49057  39.469  10.747   1.853
83578W        W49058  12.753  20.619   3.146
83579W        W49059  43.398  34.502   1.757
83580W        W49060  43.369  35.453  11.007
83581W        W49061  13.323  40.324   2.822
83582W        W49062  38.063  25.713  12.439
83583W        W49063  30.459  15.222  10.957
83584W        W49064   7.911  33.005  13.468
83585W        W49065  27.498  14.662   2.343
83586W        W49066  25.135  30.427   2.854
83587W        W49067  31.006  24.984   2.200
83588W        W49068  42.383  19.562  13.422
83589W        W49069   7.394  44.885   0.330
83590W        W49070   8.321   4.407  14.775
83591W        W49071  36.378  23.234   0.744
83592W        W49072  33.111  19.716   4.690
83593W        W49073  11.731  16.688  11.927
83594W        W49074  27.655  15.610   3.152
83595W        W49075  26.108   7.797   2.349
83596W        W49076   0.919  21.666   2.256
83597W        W49077  25.711   2.926  12.877
83598W        W49078  13.715  34.599  14.801
83599W        W49079  41.808   8.733   1.698
83600W        W49080  19.133  25.016   1.259
83601W        W49081  33.894  21.248  11.582
83602W        W49082  38.071  21.692   1.306
83603W        W49083  13.713   1.330   4.789
83604W        W49084  18.281  34.924  13.478
83605W        W49085  37.440  13.644   0.391
83606W        W49086  27.531  21.562   2.190
83607W        W49087  24.584  31.647  14.326
83608W        W49088  16.594  29.038   0.277
83609W        W49089  42.522  13.157   2.232
83610W        W49090  20.041  40.004  10.963
83611W        W49091  31.595  41.422   5.082
83612W        W49092  19.759  35.915   4.317
83613W        W49093   6.848   5.252   2.664
83614W        W49094  41.364   0.820   2.674
83615W        W49095  28.966  21.098   4.295
83616W        W49096   5.870  34.400  14.869
83617W        W49097  24.038  33.955   2.866
83618W        W49098   9.195   2.264  14.892
83619W        W49099  20.239  27.619   4.817
83620W        W49100  42.478  32.437  10.488
83621W        W49101   9.172  24.005   1.427
83622W        W49102  36.975  30.512   4.598
83623W        W49103  37.504  35.589  11.534
83624W        W49104  11.354  40.511   1.728
83625W        W49105  44.328  32.100   0.869
83626W        W49106   2.324  31.040  13.372
83627W        W49107  30.158   8.879  12.350
83628W        W49108  14.671  19.079   4.162
83629W        W49109  41.485  17.090  14.304
83630W        W49110   7.281   2.365   2.238
83631W        W49111  29.515  32.530   1.849
83632W        W49112  43.381  19.701  10.929
83633W        W49113  44.899  35.413  10.616
83634W        W49114  11.840  23.727   3.290
83635W        W49115  28.621  33.482  10.001
83636W        W49116  32.401  16.637  11.963
83637W        W49117  11.657  10.215  12.846
83638W        W49118  34.894  29.566   0.850
83639W        W49119  11.363  36.880   0.260
83640W        W49120  14.289  34.429  13.830
83641W        W49121   5.361  28.487   1.902
83642W        W49122  17.701  15.116   3.764
83643W        W49123  11.666   7.400   3.314
83644W        W49124   8.362  18.177  13.927
83645W        W49125  13.279  36.948  13.872
83646W        W49126  12.841  30.126   4.613
83647W        W49127  36.943  21.585  10.466
83648W        W49128  25.127  15.688  14.461
83649W        W49129  31.457  41.996   4.637
83650W        W49130  39.540  35.871   1.887
83651W        W49131  37.390  16.813  13.909
83652W        W49132   3.911  15.278   4.683
83653W        W49133  42.409  10.250  11.856
83654W        W49134  22.713  34.387  11.521
83655W        W49135   2.842  37.440   1.901
83656W        W49136  29.485  19.201   0.483
83657W        W49137  26.594  10.336   0.359
83658W        W49138  42.504  19.706   3.169
83659W        W49139   6.879  38.001   0.442
83660W        W49140  26.985  17.591   2.763
83661W        W49141  36.929  15.104  14.001
83662W        W49142  22.998  18.569  13.478
83663W        W49143  20.124  42.982   1.880
83664W        W49144  33.570  23.536   3.800
83665W        W49145   2.288  36.559  13.948
83666W        W49146  33.488  27.947  12.882
83667W        W49147  21.084  36.474   1.256
83668W        W49148   6.233  10.296  10.913
83669W        W49149  15.796   3.364   2.820
83670W        W49150  25.623  10.792  11.887
83671W        W49151  40.314  38.443   1.380
83672W        W49152  25.588   5.286  12.031
83673W        W49153  43.805  42.908   3.861
83674W        W49154  15.243  19.742  12.879
83675W        W49155  44.977  35.485   2.297
83676W        W49156   6.704  33.908  10.615
83677W        W49157   1.397   8.672  12.537
83678W        W49158   4.391  19.070   1.819
83679W        W49159  29.484  32.472   4.117
83680W        W49160  15.326  42.354   0.426
83681W        W49161   8.742  43.767   4.159
83682W        W49162  30.007  17.636   1.328
83683W        W49163   0.962  37.391  13.800
83684W        W49164  30.452   8.268  12.527
83685W        W49165  30.145  11.670  12.022
83686W        W49166  22.100  30.603   0.847
83687W        W49167  19.558  33.113  11.098
83688W        W49168  19.191  15.193  14.309
83689W        W49169  22.205  36.447  14.461
83690W        W49170  36.076  14.198  13.425
83691W        W49171  14.243  25.621  12.991
83692W        W49172  26.063   1.269   1.448
83693W        W49173  44.324  12.714   0.463
83694W        W49174  26.080  39.044   3.760
83695W        W49175  41.512  10.274   3.642
83696W        W49176  26.000  11.342   1.282
83697W        W49177   2.344  43.353   1.438
83698W        W49178   6.737  43.792   1.735
83699W        W49179   5.252  38.493  12.064
83700W        W49180  29.533  15.234  13.839
83701W        W49181  27.142  23.198  11.575
83702W        W49182  39.909   5.852   9.940
83703W        W49183  23.190  43.439  14.357
83704W        W49184  36.554   4.369  12.577
83705W        W49185  44.365  21.093   5.253
83706W        W49186  12.802  33.122   0.467
83707W        W49187  23.490  41.306   1.879
83708W        W49188   0.304  36.415  12.988
83709W        W49189   6.724  35.544  11.402
83710W        W49190  27.537  14.712   4.834
83711W        W49191  28.041  37.863  13.845
83712W        W49192  38.512  19.690   4.246
83713W        W49193  23.217   5.805  11.010
83714W        W49194  44.875   1.373  11.087
83715W        W49195  26.039  34.998  10.459
83716W        W49196  19.779   5.881   3.661
83717W        W49197  24.072  42.984   4.255
83718W        W49198  14.157  23.167   1.707
83719W        W49199  34.084  13.146  14.014
83720W        W49200  16.273  26.024  10.972
83721W        W49201  25.187  26.667   0.811
83722W        W49202  43.354  15.610   1.440
83723W        W49203  31.013  17.612  11.510
83724W        W49204   1.327  29.440  12.556
83725W        W49205   2.751  41.997   3.697
83726W        W49206  33.403  27.457  10.985
83727W        W49207   3.856  17.203   0.292
83728W        W49208  40.445  21.050  11.546
83729W        W49209   3.259   3.933  12.038
83730W        W49210  44.864  18.194  12.913
83731W        W49211  38.560   4.367   0.284
83732W        W49212  16.187  31.058   3.229
83733W        W49213   3.947  31.514  10.119
83734W        W49214  18.115  19.721   1.324
83735W        W49215   4.912  39.383  10.457
83736W        W49216  41.331  15.291   0.925
83737W        W49217  25.996  37.532   4.705
83738W        W49218  36.535  19.134  11.383
83739W        W49219  23.043  28.663  11.454
83740W        W49220  14.672  36.575   2.806
83741W        W49221  33.545  39.820   4.235
83742W        W49222  22.682   6.184  14.759
83743W        W49223   3.359  10.681  14.491
83744W        W49224  34.883  44.290  12.433
83745W        W49225  12.816  16.732  10.891
83746W        W49226  13.288  26.019   0.285
83747W        W49227   5.233  11.664   3.651
83748W        W49228  13.625  25.638  10.487
83749W        W49229   9.818  30.625  13.900
83750W        W49230  20.224  26.141   0.735
83751W        W49231  35.047  22.006  11.418
83752W        W49232  25.155  10.684   1.287
83753W        W49233  24.049  28.127  10.041
83754W        W49234   4.317  10.857   0.395
83755W        W49235   7.731  27.675   4.260
83756W        W49236  21.659  17.584  11.926
83757W        W49237  26.691   6.240   3.738
83758W        W49238  16.649   6.336   1.770
83759W        W49239  36.456  34.921   5.286
83760W        W49240  37.342  29.620  13.310
83761W        W49241  18.683  40.449   1.801
83762W        W49242  41.408  23.654   1.444
83763W        W49243  16.310  19.148   0.251
83764W        W49244  37.991  13.742   0.305
83765W        W49245  26.085  42.469  11.865
83766W        W49246  44.756  25.182   2.865
83767W        W49247   9.880  24.197  11.600
83768W        W49248  32.429   0.973   4.809
83769W        W49249  18.253  37.053   0.783
83770W        W49250  28.483   2.913  14.762
83771W        W49251   5.313  34.865   0.893
83772W        W49252  40.374  26.191  13.470
83773W        W49253  41.974  19.280  12.000
83774W        W49254  34.580  44.444   4.639
83775W        W49255  41.517  10.306  14.763
83776W        W49256  25.502   2.822   4.638
83777W        W49257  31.057  17.175  12.990
83778W        W49258  10.286  29.587   0.294
83779W        W49259  41.449  18.242   0.931
83780W        W49260  42.514  17.208   3.220
83781W        W49261   0.977  36.549   4.606
83782W        W49262  35.544  43.446  14.813
83783W        W49263   3.917  20.166  13.483
83784W        W49264  12.139  12.702  14.469
83785W        W49265  18.054  26.694  13.028
83786W        W49266  13.768   3.840   0.428
83787W        W49267  37.494  11.643  13.963
83788W        W49268  27.541   9.791  10.975
83789W        W49269  13.245  11.722   0.945
83790W        W49270  33.055  31.541  14.950
83791W        W49271  23.607  18.744   2.371
83792W        W49272  34.611  27.165  11.391
83793W        W49273   2.441  17.798   4.765
83794W        W49274   4.782  44.260  14.902
83795W        W49275  25.700   4.938   0.467
83796W        W49276   1.256  18.769  11.402
83797W        W49277  44.811  20.685  12.547
83798W        W49278  26.175  43.433   4.750
83799W        W49279  43.377  37.962   2.752
83800W        W49280   0.322  22.648  13.317
83801W        W49281  30.105  21.682   3.362
83802W        W49282  34.389  28.068   4.208
83803W        W49283   6.788  44.928   2.188
83804W        W49284  20.561  17.162  11.450
83805W        W49285   2.347  36.030  13.526
83806W        W49286   9.176  21.187  14.978
83807W        W49287  44.982  10.754  13.348
83808W        W49288   9.844  26.117  11.078
83809W        W49289  16.645   2.866  14.343
83810W        W49290  40.343  21.548   2.698
83811W        W49291   8.198   8.303  14.383
83812W        W49292  19.593   9.247  12.978
83813W        W49293  18.615  30.463   0.406
83814W        W49294  42.806   0.758   2.281
83815W        W49295  10.174  13.111  12.518
83816W        W49296   8.251  39.941  14.452
83817W        W49297  33.989  38.343   1.808
83818W        W49298  26.115   6.399   0.343
83819W        W49299  14.604  36.556   0.261
83820W        W49300   4.917  15.592   3.845
83821W        W49301  22.022  28.932   1.713
83822W        W49302   6.908  21.525   0.800
83823W        W49303  18.615  38.473  12.970
83824W        W49304  33.955  43.913   3.637
83825W        W49305   5.212  27.560   4.768
83826W        W49306  26.458  24.150   1.826
83827W        W49307  40.985  14.173  11.075
83828W        W49308   0.336  17.799   4.610
83829W        W49309  31.977  11.292   4.782
83830W        W49310  14.338  15.127   1.783
83831W        W49311  42.974  40.913  13.448
83832W        W49312  21.525  43.910   1.442
83833W        W49313   6.690  39.050  11.990
83834W        W49314  25.524  13.650  11.002
83835W        W49315  21.537   7.210  12.082
83836W        W49316   5.203   0.775  13.984
83837W        W49317  17.764  36.965  10.627
83838W        W49318   3.460  19.205  13.408
83839W        W49319   0.926  28.535  14.299
83840W        W49320  32.534   5.306  14.445
83841W        W49321   9.374  43.785   1.815
83842W        W49322   5.341  14.808   0.906
83843W        W49323  29.466  39.982  14.985
83844W        W49324  17.159  22.652   2.858
83845W        W49325  23.580  44.878   0.256
83846W        W49326  36.471  13.159  11.456
83847W        W49327  14.303   8.209   1.435
83848W        W49328  16.755  41.791  14.958
83849W        W49329  15.807   0.347  13.400
83850W        W49330  39.380  22.013  11.428
83851W        W49331   2.723   6.313  10.492
83852W        W49332  18.691  42.413   2.839
83853W        W49333  33.094  28.941  14.417
83854W        W49334  38.454  33.479   2.838
83855W        W49335  14.667  11.681  10.888
83856W        W49336   5.286   3.340   3.809
83857W        W49337  34.940  34.916  11.862
83858W        W49338   3.848  24.147  13.516
83859W        W49339  27.510  37.350   4.144
83860W        W49340  29.642  39.392   3.346
83861W        W49341  12.221  23.675  12.401
83862W        W49342  15.206   5.855  10.922
83863W        W49343  16.207  33.065   5.696
83864W        W49344  36.966  22.660   2.686
83865W        W49345  28.577  33.456   1.796
83866W        W49346  31.077  33.957   2.871
83867W        W49347  36.036   4.366  14.803
83868W        W49348   0.853  20.673   0.953
83869W        W49349  23.569  22.725   2.184
83870W        W49350  34.413   8.331   2.696
83871W        W49351   0.447  42.814   4.257
83872W        W49352  43.379  22.203  14.005
83873W        W49353  32.575   7.363  14.856
83874W        W49354   3.305  21.202  11.046
83875W        W49355  12.705  29.499   0.956
83876W        W49356  16.692  30.622   3.647
83877W        W49357  18.686  17.077  11.541
83878W        W49358  38.902  11.774   0.445
83879W        W49359  17.237  30.092  11.067
83880W        W49360   3.381  31.962   1.269
83881W        W49361  44.935  42.407  14.278
83882W        W49362  12.839  33.481   2.871
83883W        W49363   4.913   5.347   3.281
83884W        W49364  36.891  19.286  14.292
83885W        W49365  43.442  21.568  11.442
83886W        W49366  44.955  24.679   0.769
83887W        W49367  41.996  40.896   1.249
83888W        W49368  39.560  14.753   2.818
83889W        W49369   9.886  27.470  12.870
83890W        W49370  38.570  16.144  10.584
83891W        W49371  23.616   6.864   4.674
83892W        W49372  16.192   0.444  13.852
83893W        W49373  19.595  16.710  12.390
83894W        W49374  38.831  34.044   2.674
83895W        W49375  38.345  31.438   2.372
83896W        W49376  44.995   1.426   4.689
83897W        W49377   3.944  13.610  13.440
83898W        W49378  16.149  35.966   0.844
83899W        W49379  19.548  39.062   3.649
83900W        W49380  36.569  18.134   5.225
83901W        W49381   8.654  37.922   3.808
83902W        W49382  18.621  30.505   2.897
83903W        W49383  31.606  22.657   2.800
83904W        W49384  34.994  34.579  10.055
83905W        W49385   5.924   0.488  12.536
83906W        W49386  29.004   7.286   3.333
83907W        W49387  37.462   9.884   0.757
83908W        W49388  21.564  20.641   3.315
83909W        W49389  14.814  32.492  11.064
83910W        W49390  35.872   7.769   1.381
83911W        W49391   9.859  33.000   1.770
83912W        W49392  38.975  41.041  12.362
83913W        W49393   5.887  16.760  11.032
83914W        W49394   1.767  24.109  13.041
83915W        W49395  17.137  41.464   2.264
83916W        W49396  35.912  32.017  12.343
83917W        W49397  32.503  12.739  12.561
83918W        W49398   0.819  21.547  12.357
83919W        W49399   9.180  14.326   0.931
83920W        W49400  32.509  21.580  13.904
83921W        W49401  40.438  19.067   0.422
83922W        W49402   7.834  37.905   4.659
83923W        W49403  36.869  44.888   4.321
83924W        W49404  24.167  21.156  12.449
83925W        W49405   6.703   8.877   2.728
83926W        W49406   4.944  25.014   3.839
83927W        W49407  30.508   3.310   3.377
83928W        W49408  22.610  13.766   1.430
83929W        W49409   1.975  29.468   3.847
83930W        W49410  16.656  11.294   3.747
83931W        W49411  26.956  42.979   3.707
83932W        W49412  44.455  33.040  13.930
83933W        W49413   3.813  39.986   1.336
83934W        W49414   3.346   6.854   2.840
83935W        W49415  27.106  40.373   4.177
83936W        W49416  30.501  38.832   1.272
83937W        W49417  34.886   8.281  10.607
83938W        W49418  11.685  31.434   1.224
83939W        W49419  40.041  18.597   1.395
83940W        W49420  23.108  12.130  11.031
83941W        W49421  24.595   0.765   4.146
83942W        W49422  21.085  13.218  13.972
83943W        W49423   8.687  32.946   0.479
83944W        W49424  32.007   4.232   4.224
83945W        W49425  10.355  16.240   2.793
83946W        W49426   6.290  32.418  11.917
83947W        W49427  40.307  32.461   3.630
83948W        W49428   3.386  26.162   1.413
83949W        W49429  18.236  25.073  11.894
83950W        W49430  38.904  35.978   0.759
83951W        W49431  21.205   9.800   4.158
83952W        W49432   4.881  18.725  10.121
83953W        W49433  20.127   1.968   3.291
83954W        W49434  26.617  35.038   2.259
83955W        W49435  26.069  20.250  11.378
83956W        W49436   0.838  41.901   1.210
83957W        W49437   5.354  25.997  13.001
83958W        W49438  23.561  28.057  10.567
83959W        W49439   4.765  43.498   3.816
83960W        W49440  11.129   4.810  12.569
83961W        W49441   6.905  30.990  13.990
83962W        W49442  42.903  15.193  11.019
83963W        W49443   5.435  31.547  10.610
83964W        W49444  12.309  22.728   2.784
83965W        W49445  36.956  30.522  11.462
83966W        W49446  11.710  29.444  14.952
83967W        W49447   5.775  44.969  13.006
83968W        W49448  28.057  21.151  12.364
83969W        W49449   6.307  37.914  11.962
83970W        W49450  25.532  18.734  12.863
83971W        W49451   2.289   8.655   3.708
83972W        W49452  38.869  25.531   5.273
83973W        W49453   1.977  23.644   2.366
83974W        W49454   1.765   6.854  10.579
83975W        W49455  34.543   9.826   0.950
83976W        W49456  26.035  42.853   3.675
83977W        W49457  14.230  32.892   5.316
83978W        W49458  21.087  26.580  12.088
83979W        W49459  28.498  44.772   0.481
83980W        W49460  44.321  25.038   1.755
83981W        W49461  28.129  21.547   3.846
83982W        W49462  40.387  22.702  14.338
83983W        W49463  32.401  43.002   2.260
83984W        W49464   0.417  16.662  11.965
83985W        W49465   0.360  26.126  11.916
83986W        W49466  19.156  20.060  13.877
83987W        W49467  32.572  32.889  14.450
83988W        W49468  35.580  38.017  14.937
83989W        W49469  24.528  28.502   2.731
83990W        W49470  28.657   7.250  13.365
83991W        W49471  12.277   3.763  10.558
83992W        W49472  28.093  16.726  11.427
83993W        W49473  24.570   7.842   2.343
83994W        W49474  40.428  16.762  14.349
83995W        W49475  18.741  15.613   1.310
83996W        W49476  41.903  26.486   0.291
83997W        W49477  26.696  37.515  12.036
83998W        W49478  37.982  29.069   1.876
83999W        W49479  37.999  12.175  14.303
84000W        W49480  33.962   0.851  14.495
84001W        W49481   4.937  42.329   3.160
84002W        W49482   2.927  17.191  10.411
84003W        W49483   7.346  42.445   2.832
84004W        W49484   8.234   5.836   0.324
84005W        W49485   4.270   5.874  12.489
84006W        W49486  42.015  27.624  12.013
84007W        W49487   2.356   8.355  13.336
84008W        W49488  28.499  25.964  14.389
84009W        W49489  17.246   9.223   0.901
84010W        W49490  24.538  14.260  12.061
84011W        W49491  28.114  10.357  12.536
84012W        W49492   1.472  21.730  14.505
84013W        W49493  28.580   0.409  12.867
84014W        W49494  27.554  23.147  13.372
84015W        W49495  14.340   7.269  10.939
84016W        W49496  41.407  16.219   4.777
84017W        W49497  22.168  12.857  10.529
84018W        W49498  31.564  26.110  13.418
84019W        W49499  17.693   7.715   2.664
84020W        W49500  27.049  42.482   0.358
84021W        W49501  42.285  38.939   4.284
84022W        W49502  16.288  11.759  12.450
84023W        W49503  15.192  18.617   2.839
84024W        W49504   5.696  17.188  12.442
84025W        W49505  42.310   6.739   2.732
84026W        W49506  30.015  28.105  11.976
84027W        W49507  25.143   3.950   0.295
84028W        W49508  41.795  33.000   0.337
84029W        W49509  31.959   6.194   1.436
84030W        W49510  13.816  26.142  11.400
84031W        W49511  44.482  11.830  11.971
84032W        W49512  30.956   5.359  12.553
84033W        W49513   0.984  32.966  10.019
84034W        W49514  18.161  21.211  14.501
84035W        W49515   9.735  16.147  10.633
84036W        W49516  24.205  41.015  11.968
84037W        W49517  17.162  25.542   4.620
84038W        W49518  27.462  23.068  10.995
84039W        W49519   9.798  14.161   4.129
84040W        W49520  41.906  30.085  10.575
84041W        W49521  28.466  19.634  10.581
84042W        W49522  25.067  40.343   0.882
84043W        W49523  14.301  16.717  13.837
84044W        W49524  35.105  30.549   0.767
84045W        W49525  31.991  28.074   2.348
84046W        W49526  36.960   6.223   2.260
84047W        W49527   9.387  38.883  12.876
84048W        W49528  39.938  22.228   1.221
84049W        W49529  43.872  28.974  10.440
84050W        W49530  19.675  15.202   3.782
84051W        W49531  28.148  22.735   4.807
84052W        W49532   4.442  19.544   0.848
84053W        W49533   6.261  28.556  11.459
84054W        W49534  21.196   0.891  14.962
84055W        W49535  23.563  37.023  14.332
84056W        W49536   2.807  29.479  14.491
84057W        W49537  10.816  37.575  14.014
84058W        W49538  13.126   6.789   4.344
84059W        W49539   8.190  30.939  13.496
84060W        W49540   8.181   8.166   2.249
84061W        W49541  19.537  41.434  12.830
84062W        W49542  14.236  17.204   0.949
84063W        W49543  21.214  35.433  12.955
84064W        W49544  29.500   5.313  12.987
84065W        W49545  17.234  31.061  10.069
84066W        W49546  33.958   1.938  12.447
84067W        W49547  40.507  22.219   0.266
84068W        W49548  18.723  30.005   1.871
84069W        W49549  18.640  43.947  12.568
84070W        W49550  19.737  22.166   1.367
84071W        W49551  21.696   9.712   3.715
84072W        W49552  29.639  26.968  11.523
84073W        W49553   8.306   0.396   3.737
84074W        W49554   6.294  14.635  11.451
84075W        W49555  38.567  32.122   3.322
84076W        W49556   9.385  38.389   1.874
84077W        W49557  17.665  30.486   0.901
84078W        W49558   1.449  12.135  11.586
84079W        W49559  19.055   2.288  14.505
84080W        W49560  19.649  33.399   1.285
84081W        W49561  36.904   2.251   0.804
84082W        W49562  28.967  11.334   2.237
84083W        W49563  29.926  17.158  14.395
84084W        W49564  42.994  25.577  13.491
84085W        W49565  22.029  39.417  14.867
84086W        W49566   7.897  40.001  12.043
84087W        W49567  14.729  41.791  11.515
84088W        W49568  26.685  26.554  14.395
84089W        W49569  20.136  18.258  10.985
84090W        W49570  40.843  26.134   4.811
84091W        W49571  32.939  30.509   1.861
84092W        W49572  22.644  11.249  10.584
84093W        W49573   8.685   7.416  11.519
84094W        W49574  30.122  43.803  14.857
84095W        W49575   7.854   3.342   2.877
84096W        W49576   1.383  33.389  12.469
84097W        W49577  12.760  44.370   1.903
84098W        W49578   4.221  17.652   4.157
84099W        W49579  25.986  44.449  11.018
84100W        W49580  23.725  43.515  12.919
84101W        W49581  27.992  43.903  14.793
84102W        W49582   4.774  20.215   2.207
84103W        W49583  33.939  21.695   0.955
84104W        W49584  27.636  42.380   1.262
84105W        W49585   8.353  24.096   0.742
84106W        W49586  25.670   0.370  14.913
84107W        W49587  35.053  43.002  13.418
84108W        W49588  29.505  39.531   5.163
84109W        W49589  11.148  15.701   1.292
84110W        W49590   7.413   4.278   3.784
84111W        W49591  23.631   1.339   2.376
84112W        W49592   1.326  30.020   2.665
84113W        W49593   7.364  43.398   3.202
84114W        W49594  41.859   2.742  10.476
84115W        W49595   8.745   1.463  10.565
84116W        W49596  21.069  24.016   0.396
84117W        W49597  31.550   2.735   0.817
84118W        W49598   7.741  18.586  13.910
84119W        W49599  25.155  27.643   3.859
84120W        W49600   8.303  15.294  13.971
84121W        W49601   7.819  35.498  11.475
84122W        W49602  40.030   4.263   3.658
84123W        W49603   4.724  33.459  14.506
84124W        W49604   1.870  37.862  13.456
84125W        W49605  27.636   9.676   3.154
84126W        W49606   7.686  24.195   2.226
84127W        W49607  15.117  16.601  12.891
84128W        W49608  28.602   1.839   2.196
84129W        W49609   4.433   1.769  11.568
84130W        W49610  13.655  18.551   0.827
84131W        W49611  27.590  29.585  11.936
84132W        W49612   1.268   8.384   3.737
84133W        W49613   5.407  15.591   1.430
84134W        W49614   4.251  32.574  11.900
84135W        W49615  44.263  41.801   1.815
84136W        W49616  38.895  39.858  10.977
84137W        W49617  34.879  23.153   1.747
84138W        W49618  35.468  10.742   1.738
84139W        W49619   7.193  18.241  14.289
84140W        W49620  20.226  12.783  12.509
84141W        W49621   0.878  37.867   3.346
84142W        W49622  23.694   6.361  11.527
84143W        W49623   6.818  21.143  11.950
84144W        W49624  19.277   5.737  13.005
84145W        W49625  34.545  21.710  13.346
84146W        W49626   9.720  21.194   2.664
84147W        W49627  12.121  17.772   4.259
84148W        W49628  23.004  33.942   3.235
84149W        W49629  36.873  17.686  14.445
84150W        W49630  22.714  10.173  12.957
84151W        W49631  20.270   2.826   4.349
84152W        W49632  19.224   1.279   3.296
84153W        W49633  38.520  27.138  10.888
84154W        W49634  11.166  26.038   3.305
84155W        W49635  19.652  35.950  14.372
84156W        W49636  29.480  22.074   2.205
84157W        W49637   2.783   9.183  12.346
84158W        W49638  25.639   9.322   2.755
84159W        W49639   6.849  38.877   4.231
84160W        W49640   1.932  18.621  12.469
84161W        W49641  26.123  31.103  11.528
84162W        W49642  13.601  18.743   1.860
84163W        W49643  39.944  31.407   1.794
84164W        W49644  39.558  27.530   2.357
84165W        W49645  24.006  34.994  14.835
84166W        W49646  37.985  17.183   3.735
84167W        W49647   6.310  29.667   0.903
84168W        W49648  16.251   4.273  14.397
84169W        W49649  19.178  31.144  14.404
84170W        W49650  41.942  39.021   2.348
84171W        W49651  11.866  38.398  12.045
84172W        W49652  43.013  43.927   1.374
84173W        W49653  14.604  40.896   3.355
84174W        W49654  17.672  24.536  14.393
84175W        W49655   5.347   7.176  11.065
84176W        W49656   7.224  13.124  13.053
84177W        W49657  14.692  29.148  14.990
84178W        W49658  11.235  30.454   1.756
84179W        W49659  28.012  40.540   0.470
84180W        W49660  36.983  33.456  10.572
84181W        W49661  10.265  43.280  10.642
84182W        W49662  35.581   7.302  12.945
84183W        W49663  39.845   9.196  11.067
84184W        W49664  23.533  31.070   3.286
84185W        W49665   6.843  20.559   4.677
84186W        W49666  25.473  29.659  12.823
84187W        W49667  41.922   4.308   1.296
84188W        W49668  37.939   6.202  12.522
84189W        W49669  15.271  34.392   3.232
84190W        W49670  11.303  44.972   4.602
84191W        W49671  44.264  42.798   2.359
84192W        W49672   0.463  35.590  14.984
84193W        W49673  36.511  36.912  11.386
84194W        W49674  26.658  21.677  12.569
84195W        W49675  27.955  19.192   3.829
84196W        W49676  40.306  26.101   2.683
84197W        W49677  22.194  41.864   3.682
84198W        W49678   5.391   3.883   2.318
84199W        W49679  30.031  35.890   4.246
84200W        W49680  33.533  35.446   1.214
84201W        W49681  23.542  17.273  13.060
84202W        W49682  37.580   2.784   1.314
84203W        W49683  26.038  18.745   4.227
84204W        W49684  29.598  12.803  13.963
84205W        W49685  38.921  25.551   4.155
84206W        W49686  36.586   6.782  12.491
84207W        W49687   7.873  44.947  12.460
84208W        W49688  31.095  28.105   3.374
84209W        W49689  26.183  28.481   4.292
84210W        W49690  35.481  38.406   3.334
84211W        W49691  33.060   4.852  10.085
84212W        W49692  12.306  23.620   0.729
84213W        W49693  24.633  11.768   2.412
84214W        W49694  22.007  28.180   1.357
84215W        W49695  43.802  26.193  11.528
84216W        W49696  17.675  25.103  11.499
84217W        W49697  26.498  29.632   5.252
84218W        W49698  28.567  15.311   2.732
84219W        W49699  36.095  43.782   3.345
84220W        W49700  38.548   3.290   2.369
84221W        W49701  25.974  37.382   2.698
84222W        W49702   1.793  39.521  11.030
84223W        W49703   0.772  16.755  14.511
84224W        W49704  38.513  36.359  14.274
84225W        W49705  43.355   1.735  13.445
84226W        W49706  14.096  41.379   2.712
84227W        W49707   8.741  41.839   1.703
84228W        W49708  17.197  17.127  11.030
84229W        W49709  40.427  14.824   1.774
84230W        W49710  43.514  18.142   5.166
84231W        W49711  24.561  12.234  12.938
84232W        W49712  21.262  37.841   5.262
84233W        W49713   2.898  13.327  14.477
84234W        W49714  26.556  23.645   3.206
84235W        W49715  18.705  18.166   3.791
84236W        W49716  39.547  30.556   4.353
84237W        W49717  33.590  18.589   2.870
84238W        W49718  22.647  30.523   4.696
84239W        W49719   4.810  13.702  14.861
84240W        W49720  22.118  16.314  11.032
84241W        W49721  12.681  26.077  12.928
84242W        W49722  13.769   3.855  12.910
84243W        W49723  24.099   9.708  11.450
84244W        W49724  26.083  43.965  11.973
84245W        W49725   2.282  35.409   2.394
84246W        W49726  37.928  14.603  14.310
84247W        W49727  28.640  33.536  11.101
84248W        W49728   3.338  21.122   3.258
84249W        W49729  40.435   1.276  11.856
84250W        W49730  41.335   7.786  13.444
84251W        W49731  36.350  32.585  14.409
84252W        W49732  33.099   7.303   0.440
84253W        W49733  36.477  42.338   1.227
84254W        W49734  36.985  40.029   0.855
84255W        W49735  39.355   5.264  12.001
84256W        W49736  24.989  35.376  10.571
84257W        W49737   7.675   8.363  14.908
84258W        W49738   1.237  26.135   0.937
84259W        W49739  22.624  18.283   0.806
84260W        W49740  41.401  19.648  11.576
84261W        W49741  19.048  43.866   0.355
84262W        W49742   3.417  11.631  11.535
84263W        W49743  35.434   5.794  11.883
84264W        W49744  42.029  28.618  14.827
84265W        W49745  35.053  39.858  10.144
84266W        W49746  41.433  33.895   2.878
84267W        W49747  38.395  43.499   2.892
84268W        W49748  29.991  42.024  12.011
84269W        W49749  13.335  15.748  11.551
84270W        W49750  19.751  35.935  12.920
84271W        W49751   7.340  37.385   4.314
84272W        W49752  14.170  30.644  13.440
84273W        W49753   4.361  18.227  12.960
84274W        W49754  21.606  19.591   4.662
84275W        W49755  38.376   7.754   2.855
84276W        W49756  21.590  28.673   0.920
84277W        W49757  30.061  24.131   0.899
84278W        W49758  37.900   0.925  14.999
84279W        W49759   2.393   8.176  12.009
84280W        W49760  14.187   2.378  11.597
84281W        W49761  10.780  32.113   2.283
84282W        W49762   0.876  15.318   0.899
84283W        W49763  18.203  37.394   0.285
84284W        W49764  20.731  31.621   1.905
84285W        W49765  43.928  40.887  12.897
84286W        W49766   6.363  42.001   2.241
84287W        W49767  31.608  15.300   1.923
84288W        W49768  10.712  33.466  14.385
84289W        W49769  29.054   5.808   3.725
84290W        W49770  32.585  27.579  12.980
84291W        W49771   5.778  26.050  11.071
84292W        W49772  14.173  11.244   2.220
84293W        W49773  19.536  28.629  12.532
84294W        W49774  20.053  44.978   5.793
84295W        W49775  10.241  22.743   1.289
84296W        W49776   4.833  37.550   5.319
84297W        W49777   1.335  23.228  12.081
84298W        W49778  26.006  25.678  10.584
84299W        W49779  11.769   2.275  10.953
84300W        W49780  34.540  30.434  10.957
84301W        W49781  23.161  30.135  11.475
84302W        W49782  34.971  15.188   2.224
84303W        W49783  44.998  36.923   3.741
84304W        W49784  14.780  31.927   5.271
84305W        W49785  32.915  10.773   0.266
84306W        W49786  13.323  43.790  12.852
84307W        W49787  22.725  42.947  14.440
84308W        W49788   2.846   3.955  14.785
84309W        W49789  43.401  27.146   4.607
84310W        W49790  27.988  17.173  12.390
84311W        W49791  44.381   2.750  11.550
84312W        W49792  13.186   6.714  11.451
84313W        W49793   0.307   7.895  14.774
84314W        W49794  31.101  37.066   4.824
84315W        W49795   2.924  18.738   2.882
84316W        W49796  18.700   6.346   0.964
84317W        W49797  29.978  19.087  13.061
84318W        W49798  27.005  18.563   2.387
84319W        W49799  32.467  16.743  12.917
84320W        W49800  44.859  41.450   3.736
84321W        W49801  25.206   5.907   3.242
84322W        W49802  25.003   7.343   4.183
84323W        W49803  44.810  16.086   4.336
84324W        W49804  37.464  33.464   0.244
84325W        W49805   2.724  25.112   2.827
84326W        W49806  43.495  42.286   1.317
84327W        W49807   7.736  26.557   0.319
84328W        W49808   4.861  41.508   2.802
84329W        W49809  43.418  36.378   3.271
84330W        W49810  17.800  14.829   4.230
84331W        W49811  12.621  14.685  11.492
84332W        W49812  12.350  22.169  14.419
84333W        W49813   0.888  40.812   3.830
84334W        W49814  40.530  21.631  13.441
84335W        W49815  27.088  13.807   3.317
84336W        W49816   4.446  15.603  13.494
84337W        W49817  15.734  35.941  12.545
84338W        W49818   0.307  31.502  14.807
84339W        W49819   7.404  12.282  12.042
84340W        W49820  15.223   3.868   3.387
84341W        W49821  41.003  32.952  11.942
84342W        W49822  42.437  17.775  12.940
84343W        W49823  40.486  11.240   4.211
84344W        W49824  33.543  34.926   0.426
84345W        W49825  38.371   5.688  13.979
84346W        W49826   7.246  38.515  12.376
84347W        W49827  31.066   5.302   4.682
84348W        W49828  28.632  16.295  10.966
84349W        W49829   1.425  37.382  13.043
84350W        W49830  43.965   1.270  14.824
84351W        W49831  11.716  15.687   5.317
84352W        W49832  15.083   9.733  10.528
84353W        W49833  36.412   1.434   0.281
84354W        W49834  30.462  35.057   2.388
84355W        W49835  38.046  37.543   1.212
84356W        W49836  31.906  37.372  10.028
84357W        W49837  16.722   7.665  13.809
84358W        W49838  32.445  44.268   2.781
84359W        W49839   2.282  36.570   2.805
84360W        W49840  13.323  19.622   2.343
84361W        W49841  37.362  13.694  12.846
84362W        W49842   5.429  10.705   2.760
84363W        W49843  31.589  32.919   1.786
84364W        W49844  11.816  37.336   5.250
84365W        W49845  10.331  42.022   2.271
84366W        W49846   3.906   8.223  12.455
84367W        W49847   0.750  32.542  13.542
84368W        W49848  38.559  13.653  13.984
84369W        W49849   6.273  16.612   1.826
84370W        W49850  22.075  22.141  13.377
84371W        W49851  22.596  20.550   1.922
84372W        W49852   5.202  43.499  12.515
84373W        W49853  12.661   3.784  11.042
84374W        W49854  29.073  21.726   4.170
84375W        W49855  15.642  19.599   1.339
84376W        W49856  19.147  32.486  14.799
84377W        W49857   4.362  44.871   4.665
84378W        W49858  44.463  26.965   3.722
84379W        W49859   9.799  35.393   1.835
84380W        W49860  27.147  19.556  11.014
84381W        W49861  23.220  23.141  13.943
84382W        W49862  19.649  20.730  11.970
84383W        W49863  13.315  24.724   0.825
84384W        W49864  16.762   8.316   3.660
84385W        W49865   4.209   2.419  14.901
84386W        W49866  41.399  15.661  13.986
84387W        W49867  18.071  30.014  14.421
84388W        W49868  34.933  24.988  14.765
84389W        W49869  12.728  15.184  10.562
84390W        W49870   1.782  34.025   2.796
84391W        W49871  17.197  36.557   5.742
84392W        W49872   8.321  38.419  11.467
84393W        W49873   7.827  14.790  11.059
84394W        W49874   8.289  13.614   0.866
84395W        W49875  32.021   7.181  14.501
84396W        W49876  14.224  40.943  13.953
84397W        W49877  29.954   9.159   1.733
84398W        W49878  12.313  37.537  12.493
84399W        W49879   2.288  40.366   3.630
84400W        W49880   5.838  20.692   2.383
84401W        W49881  38.432  19.571   2.260
84402W        W49882  20.150  42.002   1.898
84403W        W49883  40.953  24.613  13.319
84404W        W49884  10.805  20.135  11.030
84405W        W49885  20.205  44.855   0.482
84406W        W49886  34.881  22.242  13.431
84407W        W49887  16.652  10.295   2.303
84408W        W49888  37.894  23.640  11.025
84409W        W49889  42.283  39.434  11.459
84410W        W49890  25.634  32.103   0.755
84411W        W49891  28.146  26.574  13.330
84412W        W49892  30.102  11.158   1.820
84413W        W49893  11.752  13.304  12.053
84414W        W49894  14.171  22.588  12.476
84415W        W49895  40.438   7.818  11.058
84416W        W49896  38.909  40.863   2.757
84417W        W49897  34.033  29.990   0.425
84418W        W49898  38.972  32.474  11.391
84419W        W49899  34.939  17.090   1.321
84420W        W49900  31.458  27.138   4.707
84421W        W49901  33.951  20.587  13.985
84422W        W49902  32.469  23.548   2.765
84423W        W49903   1.425   5.225   1.707
84424W        W49904  19.540  30.066  14.975
84425W        W49905  40.438   6.839   0.749
84426W        W49906   8.706  24.487  12.943
84427W        W49907  24.689  28.958  11.121
84428W        W49908  41.523   4.234   3.709
84429W        W49909  26.676   7.349   0.247
84430W        W49910  14.202  18.719  10.428
84431W        W49911   2.828  29.479   0.732
84432W        W49912   0.273  34.109  11.570
84433W        W49913  16.220  22.154  12.504
84434W        W49914  35.078  25.201   3.377
84435W        W49915  21.530   3.799   0.786
84436W        W49916  11.712  13.625   2.695
84437W        W49917  33.907  36.843   3.656
84438W        W49918  21.058  19.191  11.604
84439W        W49919  13.337  26.965   0.364
84440W        W49920  41.424   8.328  13.423
84441W        W49921  16.600   5.725  10.539
84442W        W49922  42.339   2.469   4.766
84443W        W49923  28.472   4.931   1.904
84444W        W49924   8.711  26.486  10.977
84445W        W49925   5.775  27.046  14.483
84446W        W49926   0.448  41.435  11.020
84447W        W49927  22.042  11.319   0.392
84448W        W49928  14.671  11.797  12.365
84449W        W49929  16.195  11.695  12.014
84450W        W49930   1.419  13.153  14.439
84451W        W49931  39.969  16.727   4.252
84452W        W49932  18.174   3.416  11.041
84453W        W49933  34.503   6.793  11.409
84454W        W49934  14.792  11.680  14.399
84455W        W49935  19.623  35.944   2.314
84456W        W49936  35.923  32.599  14.920
84457W        W49937  13.337  29.117  10.901
84458W        W49938  36.435  32.907   1.816
84459W        W49939  38.439  41.446  10.481
84460W        W49940  34.592  27.098   4.143
84461W        W49941  28.573  44.292   0.927
84462W        W49942   8.766  17.594  14.969
84463W        W49943  26.601  11.734   1.871
84464W        W49944   9.307  28.509  13.804
84465W        W49945  27.580   0.806  14.469
84466W        W49946  25.515  21.731   3.353
84467W        W49947  28.464  32.437  13.454
84468W        W49948   2.812  39.907   1.267
84469W        W49949  29.478   7.402  14.865
84470W        W49950   5.848  19.056  13.833
84471W        W49951  35.887   3.748   1.347
84472W        W49952   7.881  33.423   4.340
84473W        W49953  42.338   4.890  13.061
84474W        W49954  35.956  25.674  12.015
84475W        W49955   5.264  32.919  12.481
84476W        W49956   6.309   3.448  14.338
84477W        W49957  12.661   4.789   3.859
84478W        W49958  14.755  25.212   4.776
84479W        W49959  30.016  42.498  14.783
84480W        W49960  39.387   9.245   0.766
84481W        W49961  28.158  18.566  14.845
84482W        W49962  16.287   6.905  12.861
84483W        W49963  38.070   3.410   2.836
84484W        W49964   3.819  44.923  13.925
84485W        W49965  44.480  27.004   3.354
84486W        W49966  11.821  42.381  11.938
84487W        W49967  22.175  10.747   2.802
84488W        W49968  40.304  38.826   3.768
84489W        W49969   7.752  18.729   0.352
84490W        W49970  22.110  39.368  10.521
84491W        W49971  21.611  40.483  13.982
84492W        W49972   2.850  28.541   3.754
84493W        W49973  38.371  42.350   4.685
84494W        W49974  37.002  17.188  13.488
84495W        W49975  22.604  30.432  11.604
84496W        W49976  15.745  41.311  13.456
84497W        W49977  39.920  19.541   3.206
84498W        W49978   5.375  40.877  14.394
84499W        W49979   2.746   6.677  12.482
84500W        W49980  23.135  27.978   1.787
84501W        W49981  42.923  20.184   1.752
84502W        W49982  43.351  11.850  13.405
84503W        W49983  22.593  38.524   1.860
84504W        W49984   7.318  16.259  12.450
84505W        W49985   4.806  35.455  11.485
84506W        W49986  10.637  15.268   2.709
84507W        W49987  14.150  43.958   4.144
84508W        W49988  25.112  41.826   2.715
84509W        W49989  10.844  19.621   2.342
84510W        W49990   6.873  29.164  13.353
84511W        W49991   8.371   0.313   4.190
84512W        W49992  35.549  18.214  13.357
84513W        W49993  26.527  21.210  11.480
84514W        W49994  36.980  19.112   4.673
84515W        W49995  30.127  44.290  12.572
84516W        W49996   8.694  22.674   0.466
84517W        W49997  17.099   9.160   3.803
84518W        W49998   0.768  32.984   3.277
84519W        W49999  31.997  13.105   1.215
84520W        W50000  26.671  16.750   1.722
84521W        W50001   4.935  40.547   4.295
84522W        W50002  22.131  37.025  11.059
84523W        W50003  40.549  22.998   0.914
84524W        W50004  30.506  23.689  12.505
84525W        W50005  37.551  13.681   3.314
84526W        W50006  16.207  26.168   0.815
84527W        W50007   1.430   3.275  12.529
84528W        W50008  11.320  15.713  11.891
84529W        W50009   3.227  26.159  13.814
84530W        W50010  26.128   7.716  13.437
84531W        W50011  19.169  32.566   4.162
84532W        W50012  18.212  35.523  14.909
84533W        W50013  36.037  39.977  10.571
84534W        W50014  27.072   4.343   2.740
84535W        W50015  23.542  41.376   0.945
84536W        W50016  43.952  29.638   2.834
84537W        W50017  13.649  20.702   1.932
84538W        W50018  41.826  42.323   0.378
84539W        W50019  20.557  41.375   1.791
84540W        W50020   8.331   1.830  14.395
84541W        W50021   4.759  44.266  11.501
84542W        W50022  36.408  23.213   4.206
84543W        W50023   8.352  15.173  13.012
84544W        W50024   8.268  14.823   1.226
84545W        W50025   5.236  14.270   3.302
84546W        W50026  15.616  40.799  11.479
84547W        W50027  31.555  32.934   0.750
84548W        W50028  20.248  38.406   0.735
84549W        W50029  24.523  19.218  14.413
84550W        W50030  19.752  29.984  11.035
84551W        W50031  18.133  31.594   4.264
84552W        W50032   8.749  37.539  11.432
84553W        W50033   1.383  38.884   3.237
84554W        W50034  19.256   3.799   0.834
84555W        W50035  19.623   3.820  14.917
84556W        W50036  42.010  24.481  12.443
84557W        W50037   0.291  23.162   3.678
84558W        W50038  34.375  23.660  12.993
84559W        W50039  32.999  29.165  13.862
84560W        W50040  34.474   0.934  14.464
84561W        W50041  13.645   2.331  11.570
84562W        W50042  32.587  22.197  12.035
84563W        W50043  11.751  40.840   3.350
84564W        W50044  28.077  36.913  13.873
84565W        W50045  31.613  31.507  14.019
84566W        W50046  23.996   8.887  13.956
84567W        W50047  24.702   9.150   4.663
84568W        W50048   5.912  20.028  13.958
84569W        W50049  22.035  25.565  10.449
84570W        W50050  21.082  11.711   0.860
84571W        W50051   5.295   7.368   3.230
84572W        W50052  38.960  40.384   4.345
84573W        W50053   0.863  22.068  13.457
84574W        W50054  40.549   0.970   2.824
84575W        W50055  25.981  24.552   3.195
84576W        W50056  23.036  21.182  10.567
84577W        W50057   0.292  11.151  14.425
84578W        W50058  41.028  33.954   0.868
84579W        W50059  37.486  40.032   3.667
84580W        W50060  34.593  32.062  11.024
84581W        W50061  24.024  26.969   0.899
84582W        W50062  10.835  20.678   2.731
84583W        W50063  20.133  11.330   0.842
84584W        W50064  29.084  10.805  12.472
84585W        W50065   4.206  28.569  12.509
84586W        W50066  13.261  18.760   1.817
84587W        W50067  10.324   5.328  14.479
84588W        W50068  17.619   7.683  12.995
84589W        W50069  31.097  18.553  11.402
84590W        W50070  43.336  16.303  14.771
84591W        W50071  20.241  23.580   3.653
84592W        W50072  21.161  28.624   4.814
84593W        W50073   0.424  13.253   3.779
84594W        W50074  18.552  11.283  10.505
84595W        W50075  10.288  18.651  10.576
84596W        W50076  12.737  41.820  11.942
84597W        W50077   7.340  44.851  11.870
84598W        W50078  30.462  44.754  14.334
84599W        W50079  39.337  35.098   4.610
84600W        W50080  10.293  11.746  13.818
84601W        W50081  14.177  43.330  14.965
84602W        W50082   3.289  17.560   1.916
84603W        W50083  28.631  42.434   2.391
84604W        W50084  33.603  30.452  14.945
84605W        W50085  32.554  41.435   3.365
84606W        W50086  42.469  20.550   3.638
84607W        W50087  44.463   4.732  13.835
84608W        W50088  29.492  15.115  11.877
84609W        W50089  38.949  15.733   3.381
84610W        W50090  14.244  18.601  14.013
84611W        W50091  37.342  20.143   4.683
84612W        W50092  24.640  41.337   1.385
84613W        W50093  29.455  15.301   4.225
84614W        W50094  43.380  43.464  11.395
84615W        W50095  44.288   5.419  14.327
84616W        W50096  31.067  19.736  12.997
84617W        W50097  27.507  31.983  12.967
84618W        W50098  37.908  34.403   3.750
84619W        W50099   2.410  43.442   4.153
84620W        W50100  30.055  27.668  10.515
84621W        W50101  22.596  35.047   5.242
84622W        W50102  31.506   4.726   3.238
84623W        W50103  36.061  18.235  11.859
84624W        W50104  26.574  14.598  13.955
84625W        W50105  11.781  40.023  13.480
84626W        W50106   1.858  37.036  10.978
84627W        W50107  44.863  25.117  14.840
84628W        W50108   1.797  37.850   4.279
84629W        W50109  23.204   0.418  13.357
84630W        W50110   4.831  35.429   0.257
84631W        W50111  10.853  36.477  12.869
84632W        W50112  28.063  37.503  13.890
84633W        W50113  29.591  29.992   3.269
84634W        W50114   6.354  28.966   2.878
84635W        W50115  22.526  43.514   3.306
84636W        W50116  36.931   1.346   3.189
84637W        W50117  33.015  32.561   0.340
84638W        W50118  30.627  14.139  10.459
84639W        W50119  21.672  37.481  12.522
84640W        W50120  40.304  19.534   1.354
84641W        W50121  30.526   7.385   0.889
84642W        W50122  28.669  30.470  10.634
84643W        W50123  41.804  34.429  14.977
84644W        W50124  43.834  33.421  13.836
84645W        W50125  22.180  30.145  10.486
84646W        W50126  40.395  31.585   0.875
84647W        W50127  26.653  15.137   2.697
84648W        W50128  13.105   8.770   2.806
84649W        W50129  39.931  20.232  13.357
84650W        W50130  39.332  22.584  13.838
84651W        W50131  19.149   3.746   3.631
84652W        W50132   0.491  21.042  10.926
84653W        W50133   0.343  11.861   3.824
84654W        W50134  21.165  12.215  11.470
84655W        W50135   1.752  18.078  14.379
84656W        W50136  35.593   5.738  10.911
84657W        W50137  13.782  15.817   3.329
84658W        W50138  40.410  34.909  10.594
84659W        W50139  10.169  32.579  10.896
84660W        W50140  22.196  40.911   1.217
84661W        W50141  10.844  36.586   2.385
84662W        W50142  42.965   8.835  12.859
84663W        W50143  10.241  20.626   2.190
84664W        W50144  11.671  42.883   0.877
84665W        W50145  15.680  44.006   9.965
84666W        W50146   6.263   5.405  10.895
84667W        W50147  10.298  16.253  13.905
84668W        W50148  11.693  41.374  12.382
84669W        W50149   7.415   9.785   3.814
84670W        W50150   1.906  17.223   3.719
84671W        W50151  27.080  22.051   0.466
84672W        W50152  34.958   6.679   4.817
84673W        W50153  42.404   0.397  14.290
84674W        W50154  37.018   4.863  13.466
84675W        W50155  26.134  43.305  14.787
84676W        W50156   1.959   4.216  11.516
84677W        W50157  19.261  40.429  13.503
84678W        W50158   7.856  15.239   1.840
84679W        W50159  36.871  33.608  13.484
84680W        W50160  38.943  44.346   4.603
84681W        W50161  20.744  39.442  10.938
84682W        W50162  41.485   7.267  13.058
84683W        W50163  28.557  29.509   3.382
84684W        W50164  12.327  20.753   4.798
84685W        W50165   7.198  35.029   3.697
84686W        W50166  35.434  44.808  14.359
84687W        W50167  41.920  25.070  10.410
84688W        W50168  42.354  13.255   4.661
84689W        W50169  16.292  27.627  13.523
84690W        W50170   0.976   1.382   1.312
84691W        W50171  15.770  14.173   4.189
84692W        W50172  15.258  18.166   3.854
84693W        W50173  42.009  32.400   0.737
84694W        W50174  25.065   8.187  13.802
84695W        W50175  37.975  38.492  14.413
84696W        W50176  31.488  12.703  12.382
84697W        W50177  27.024  25.516  13.523
84698W        W50178  44.464  14.338   1.423
84699W        W50179   1.849  29.551  13.013
84700W        W50180  14.235   1.428  13.528
84701W        W50181  15.636  37.833   2.301
84702W        W50182  20.611  18.259   2.414
84703W        W50183  19.552  27.142  11.605
84704W        W50184   7.317  27.108   4.644
84705W        W50185  40.868   0.451   4.797
84706W        W50186  20.581   2.781  10.482
84707W        W50187  33.593  17.729   0.443
84708W        W50188  29.643  17.141  11.598
84709W        W50189  37.970  22.536  12.409
84710W        W50190  26.044   2.849   1.827
84711W        W50191  28.570   5.287   2.241
84712W        W50192  10.192  37.979  13.459
84713W        W50193  15.145   2.824   3.802
84714W        W50194  41.987  17.782   2.367
84715W        W50195  29.424  23.615  13.799
84716W        W50196  28.019  40.798  11.046
84717W        W50197   0.974  23.992  10.634
84718W        W50198  33.528  32.633   0.381
84719W        W50199   5.921  10.643   2.843
84720W        W50200   1.945   9.360  10.888
84721W        W50201  32.986  41.305  13.350
84722W        W50202   2.248   3.301   1.838
84723W        W50203  33.078  35.501  11.581
84724W        W50204  18.079   0.279   0.373
84725W        W50205   3.825  28.127  14.943
84726W        W50206  32.937  32.468  13.407
84727W        W50207  34.950  21.605  12.388
84728W        W50208  37.081   5.424  11.028
84729W        W50209  44.818  26.609  11.579
84730W        W50210   9.232  38.426  12.475
84731W        W50211   9.289   1.970  13.401
84732W        W50212  25.565  37.419  14.426
84733W        W50213  20.685   7.899  13.478
84734W        W50214  25.474  27.953   3.724
84735W        W50215   0.282  24.222  12.932
84736W        W50216  10.257  35.916  10.051
84737W        W50217  11.697   9.760   1.858
84738W        W50218  13.710  27.461   1.447
84739W        W50219  22.695  21.664   4.692
84740W        W50220  21.619  20.663  13.318
84741W        W50221  19.163  37.474   1.319
84742W        W50222  32.901  13.230  13.897
84743W        W50223  24.690   6.739  14.842
84744W        W50224  24.088   7.751  12.011
84745W        W50225   9.709  16.257   0.482
84746W        W50226  14.705  36.958   4.293
84747W        W50227  14.729   6.358   3.771
84748W        W50228  31.470  14.223  10.904
84749W        W50229  25.571  21.251  13.881
84750W        W50230   0.480   4.258  13.508
84751W        W50231  41.502   3.740   4.825
84752W        W50232  28.487   5.199  10.495
84753W        W50233  14.603  25.180  12.415
84754W        W50234  35.869  23.592  10.928
84755W        W50235  20.116   7.299  14.882
84756W        W50236  16.674   1.850   3.292
84757W        W50237  42.327  35.007  14.861
84758W        W50238   5.368  19.551   2.873
84759W        W50239   4.289  12.310  11.099
84760W        W50240  13.637  31.425   4.757
84761W        W50241  13.163  16.580  11.494
84762W        W50242  31.577   0.836  11.865
84763W        W50243   6.870   9.685   4.331
84764W        W50244  24.570   7.724   3.284
84765W        W50245   6.725   7.845   4.137
84766W        W50246  25.540  29.669   2.871
84767W        W50247  40.798  39.524  10.517
84768W        W50248   8.748  25.705  11.606
84769W        W50249  27.453  32.407   4.337
84770W        W50250   6.761   3.285   4.314
84771W        W50251  21.688  27.985   1.434
84772W        W50252  43.442  13.286  13.952
84773W        W50253   0.792  25.041  13.459
84774W        W50254  41.937  18.711  12.517
84775W        W50255  29.069   2.721  12.398
84776W        W50256   6.810  26.983  13.042
84777W        W50257  13.209   9.262   2.265
84778W        W50258  12.683   3.444  12.545
84779W        W50259  36.380  10.318  13.028
84780W        W50260  18.743  29.601  10.566
84781W        W50261  30.148  34.117   1.431
84782W        W50262  33.931  23.986   1.795
84783W        W50263   3.866  19.234  11.500
84784W        W50264  13.633  39.437  10.586
84785W        W50265   7.251  41.420   4.756
84786W        W50266  25.191  35.401  13.828
84787W        W50267   1.773   7.222   0.864
84788W        W50268  14.186  33.967   1.322
84789W        W50269  15.636   9.170   0.862
84790W        W50270  10.837  26.093  13.486
84791W        W50271  26.201  33.025  12.832
84792W        W50272  30.652  18.268   1.930
84793W        W50273  32.112  39.028   0.942
84794W        W50274  11.247   4.289  14.002
84795W        W50275   3.351  22.055   3.850
84796W        W50276  41.323  37.391  10.474
84797W        W50277  21.073  32.908  13.343
84798W        W50278  17.628  20.753   0.935
84799W        W50279   3.366  18.728  12.529
84800W        W50280  31.009  26.101   0.816
84801W        W50281  33.390  15.652   4.266
84802W        W50282  22.235  11.716  14.965
84803W        W50283   5.760   2.797   0.402
84804W        W50284  34.986   1.970   4.677
84805W        W50285  28.006   1.264   3.694
84806W        W50286  16.118  20.591   0.385
84807W        W50287  10.674   0.468   2.374
84808W        W50288  24.712  20.170   1.426
84809W        W50289  18.088  25.504   3.669
84810W        W50290  25.549   4.868   1.817
84811W        W50291  12.262   4.251   4.625
84812W        W50292  35.501  17.137  13.489
84813W        W50293  22.223  27.018  13.019
84814W        W50294   2.249  33.431  13.929
84815W        W50295  29.031  13.768   3.663
84816W        W50296  43.461  18.246  10.966
84817W        W50297  33.940  13.178   0.910
84818W        W50298  25.017  17.642   2.708
84819W        W50299  12.167  26.138  12.466
84820W        W50300  35.089  23.540  14.960
84821W        W50301  20.125  42.932   0.473
84822W        W50302  29.543  38.999   4.835
84823W        W50303  23.207  11.359  14.960
84824W        W50304  31.000  14.618  12.068
84825W        W50305  17.727  33.398   3.736
84826W        W50306  13.337   3.719  10.985
84827W        W50307  29.936  39.877  13.908
84828W        W50308  15.813  43.834  12.031
84829W        W50309  31.640  28.053  14.331
84830W        W50310   1.356  30.432   3.831
84831W        W50311  18.115  26.015  11.464
84832W        W50312   2.460  20.562   2.743
84833W        W50313  11.338  22.203  10.974
84834W        W50314  16.793  24.991   1.234
84835W        W50315   6.255   3.749   1.789
84836W        W50316  16.119  33.432  14.838
84837W        W50317   7.411  28.032   1.371
84838W        W50318  36.529  32.428  12.394
84839W        W50319   6.406  30.968  12.990
84840W        W50320  10.849  12.639   3.749
84841W        W50321  45.000  44.869   4.226
84842W        W50322  33.450   5.694   2.764
84843W        W50323   2.453  37.438  10.945
84844W        W50324   9.300   9.243   2.322
84845W        W50325  10.190  23.056   0.353
84846W        W50326   7.188  13.793   4.323
84847W        W50327  20.654   3.318  12.570
84848W        W50328  34.545  35.936   2.679
84849W        W50329  44.379   7.747   0.481
84850W        W50330  29.545  44.278   2.662
84851W        W50331  24.039  11.700   3.206
84852W        W50332   8.824   0.445   3.221
84853W        W50333  10.207  37.566   1.357
84854W        W50334  42.430  28.127  14.828
84855W        W50335  10.380  44.353   3.295
84856W        W50336   5.711  12.648  12.961
84857W        W50337  26.185  26.458   0.856
84858W        W50338   3.889   2.965   1.849
84859W        W50339  15.599  36.492   0.465
84860W        W50340  31.015  32.967  12.093
84861W        W50341  39.510   7.779  12.843
84862W        W50342  44.934  23.108   4.711
84863W        W50343  25.633   3.226  14.016
84864W        W50344  30.133  41.506  12.506
84865W        W50345  27.966  30.146  12.898
84866W        W50346  12.713  24.540   2.881
84867W        W50347  35.049   8.891  14.416
84868W        W50348  36.541   9.356  11.963
84869W        W50349  20.535  12.634  12.524
84870W        W50350  16.756  35.509   3.359
84871W        W50351  22.634  22.197   0.467
84872W        W50352  40.978  37.000  12.847
84873W        W50353  35.402  23.605  11.530
84874W        W50354  41.482  19.618  14.438
84875W        W50355  24.150  29.016  13.893
84876W        W50356  42.374  27.943  13.851
84877W        W50357  26.035  44.981   2.782
84878W        W50358  28.025  31.135   1.409
84879W        W50359  35.940  30.528  11.900
84880W        W50360   5.856   5.924   3.268
84881W        W50361  38.024  20.239   2.827
84882W        W50362  18.285  31.589  10.998
84883W        W50363  17.269  35.530   1.293
84884W        W50364  29.510  12.148   1.403
84885W        W50365  15.756  25.017  11.037
84886W        W50366  33.050  19.647  13.319
84887W        W50367  19.636   0.283  12.019
84888W        W50368   6.364  17.605  12.867
84889W        W50369  35.098  16.195   0.867
84890W        W50370   3.390  19.660   1.416
84891W        W50371   6.311  23.119  12.937
84892W        W50372   8.705  35.878  11.514
84893W        W50373  28.057  39.050  10.577
84894W        W50374  10.763   0.950   0.258
84895W        W50375   9.795  15.115   3.760
84896W        W50376  20.541   3.343   0.329
84897W        W50377  13.688  37.971  14.494
84898W        W50378  10.316  25.158   4.182
84899W        W50379   5.864   9.790   3.147
84900W        W50380   0.838  11.296   3.844
84901W        W50381  17.621  30.978   4.226
84902W        W50382  44.260  21.661   2.298
84903W        W50383  42.403  34.958   1.296
84904W        W50384  10.297  36.982  14.880
84905W        W50385  20.712  38.893   4.345
84906W        W50386   1.350  22.747   0.445
84907W        W50387  37.409  11.345  11.480
84908W        W50388  30.499  26.975  11.592
84909W        W50389  22.639   0.851  13.061
84910W        W50390  40.940  18.114   1.794
84911W        W50391  32.055  10.314   1.699
84912W        W50392  43.911   4.802   2.203
84913W        W50393  14.130  39.943  13.371
84914W        W50394  12.176   1.976   2.334
84915W        W50395   7.233   5.335  13.339
84916W        W50396  29.612  30.427  12.832
84917W        W50397   4.707  42.867   2.366
84918W        W50398  29.114  26.051   4.195
84919W        W50399   9.375  39.534   1.270
84920W        W50400  21.195  44.791   1.746
84921W        W50401  24.988  23.163  10.919
84922W        W50402   7.239  29.965  12.508
84923W        W50403  14.222  44.782  13.852
84924W        W50404   1.951  10.710   3.309
84925W        W50405   5.797  29.502  11.534
84926W        W50406  12.253  27.470  12.068
84927W        W50407  26.531  12.344  14.017
84928W        W50408  17.639  15.252   0.791
84929W        W50409  10.695   0.420  12.373
84930W        W50410  37.850   3.739   4.150
84931W        W50411  24.134  24.697   3.722
84932W        W50412  18.176  22.734  12.492
84933W        W50413   5.209  16.155   3.200
84934W        W50414  43.971  31.906  11.003
84935W        W50415   8.196  11.827   0.480
84936W        W50416  42.519  31.455   2.671
84937W        W50417  35.073  15.703   2.231
84938W        W50418  15.686  41.388   4.267
84939W        W50419  25.591   2.929   3.746
84940W        W50420  41.043  17.780   5.629
84941W        W50421   0.865   0.444   2.368
84942W        W50422  15.760  40.472   1.278
84943W        W50423  27.998  37.517  10.110
84944W        W50424   7.792  21.250   3.653
84945W        W50425  34.979  13.711   1.309
84946W        W50426  36.539  12.723  11.868
84947W        W50427   7.189   0.493  13.386
84948W        W50428   9.267  24.030  13.040
84949W        W50429   1.434   2.877   0.297
84950W        W50430   3.945  20.111  11.477
84951W        W50431  32.539  14.748  10.530
84952W        W50432  18.779   3.736   3.844
84953W        W50433  26.086  33.624   4.626
84954W        W50434   4.802  39.873   3.345
84955W        W50435  30.129  10.736   4.164
84956W        W50436  30.578  14.314   4.676
84957W        W50437  22.165  16.772   1.897
84958W        W50438   4.449  25.016  14.857
84959W        W50439  20.565  12.822   4.222
84960W        W50440   2.464  13.812  14.879
84961W        W50441  13.188   5.321  13.334
84962W        W50442  17.784  21.073   4.230
84963W        W50443   6.726  43.466   3.836
84964W        W50444  36.083  16.752   2.228
84965W        W50445  32.609  42.488   0.326
84966W        W50446  44.306  44.449  14.415
84967W        W50447  27.095   2.943   4.664
84968W        W50448   1.769  26.074  12.523
84969W        W50449   9.786  11.221   0.959
84970W        W50450  35.012  21.741  13.510
84971W        W50451  10.346  36.440   1.295
84972W        W50452  38.944   9.695   4.680
84973W        W50453  44.388  38.547  10.016
84974W        W50454  11.222  13.236  11.978
84975W        W50455  11.255   3.780   1.870
84976W        W50456  29.572   3.432   2.781
84977W        W50457  17.249  18.216   1.390
84978W        W50458  11.141  26.208   2.350
84979W        W50459  15.782  28.463  10.486
84980W        W50460  26.972  39.516   0.252
84981W        W50461  33.504  44.390   4.819
84982W        W50462   7.402   8.237   3.667
84983W        W50463   2.402  33.456   0.746
84984W        W50464  28.169  38.036  12.858
84985W        W50465  20.570  11.357   2.885
84986W        W50466   1.913  41.020   0.380
84987W        W50467  13.757  13.265  10.464
84988W        W50468  38.439   1.443   4.183
84989W        W50469   0.480  34.931  11.016
84990W        W50470  15.772  11.314   4.204
84991W        W50471  35.043   0.250  12.071
84992W        W50472  37.006   3.909   1.869
84993W        W50473  22.654   1.865   0.380
84994W        W50474   1.959   9.660   2.884
84995W        W50475  27.966  41.032  12.947
84996W        W50476   9.759  38.369   3.663
84997W        W50477  13.659   5.249  10.465
84998W        W50478  26.076  30.609   1.887
84999W        W50479  26.062   1.968   2.706
85000W        W50480  35.906  15.668  10.587
85001W        W50481  36.512   0.947   1.418
85002W        W50482  30.454  25.078   1.451
85003W        W50483  15.803  13.654  12.420
85004W        W50484  40.867   9.313   1.895
85005W        W50485  39.982   1.832  14.868
85006W        W50486   1.288  13.158  11.120
85007W        W50487  20.579  30.483  11.089
85008W        W50488  12.785  29.990   0.261
85009W        W50489   8.348  34.020  12.993
85010W        W50490  11.864  19.578   3.740
85011W        W50491  35.570  14.324   0.736
85012W        W50492  43.487   2.920  12.936
85013W        W50493  17.302   0.773  11.094
85014W        W50494  16.623  22.551   2.238
85015W        W50495  42.491  10.692   0.426
85016W        W50496  19.075   5.920   4.242
85017W        W50497  18.117  35.421   1.410
85018W        W50498  35.418  44.820   0.727
85019W        W50499  20.041  18.635   3.158
85020W        W50500  42.398  14.098   2.684
85021W        W50501  43.343  22.741  13.989
85022W        W50502  22.140   7.227   0.411
85023W        W50503   3.804   8.802  12.388
85024W        W50504  40.052   6.191   2.882
85025W        W50505  22.044  19.157  11.007
85026W        W50506  35.600   0.393   2.816
85027W        W50507  15.252  36.581   3.668
85028W        W50508   9.248  13.640   3.336
85029W        W50509  10.276   8.676  11.943
85030W        W50510  28.158  11.681   2.877
85031W        W50511  42.904  44.879  11.071
85032W        W50512  19.640  38.996   2.407
85033W        W50513   6.218   8.780  13.494
85034W        W50514  25.111  13.622   1.781
85035W        W50515  17.566   7.790   3.871
85036W        W50516  35.883  31.048  10.894
85037W        W50517  41.837  14.826  14.930
85038W        W50518  31.406  44.819  10.533
85039W        W50519  29.520  23.138  11.983
85040W        W50520  34.401   5.275  14.832
85041W        W50521  22.528  31.627  13.427
85042W        W50522  37.056  12.842   3.742
85043W        W50523  33.380   8.343  10.562
85044W        W50524  38.052  28.662   0.438
85045W        W50525   5.702  28.639  12.063
85046W        W50526  39.359  14.701  13.829
85047W        W50527  18.205  24.571  11.981
85048W        W50528  43.962   5.211   0.338
85049W        W50529  33.593  11.849   4.797
85050W        W50530  25.524  27.021   3.705
85051W        W50531   1.410  40.372   3.735
85052W        W50532  24.129   0.777  13.457
85053W        W50533  18.124  19.659   4.251
85054W        W50534  36.920  30.489   2.751
85055W        W50535  28.672   7.391   0.752
85056W        W50536  20.610  33.461   0.912
85057W        W50537   7.714   6.770   1.755
85058W        W50538  28.099  20.594   4.196
85059W        W50539  38.005  23.114   0.421
85060W        W50540  30.085  12.224  10.523
85061W        W50541  36.066   5.371   3.232
85062W        W50542  44.461  20.168  14.028
85063W        W50543  26.461   8.849   2.202
85064W        W50544  33.874  18.749   1.753
85065W        W50545  42.322  24.501   3.240
85066W        W50546  25.596  18.105  12.374
85067W        W50547  30.140  36.555  12.849
85068W        W50548   6.892   8.340  12.976
85069W        W50549  16.107  37.565  10.972
85070W        W50550   1.352  34.090   2.199
85071W        W50551  18.634  29.562   1.925
85072W        W50552  32.535  10.737  12.428
85073W        W50553  15.190  24.652   2.781
85074W        W50554  16.122   4.222  13.950
85075W        W50555  17.233  35.988  14.853
85076W        W50556   8.766  27.661  12.072
85077W        W50557  21.089  33.025   2.703
85078W        W50558   9.268  13.275   0.862
85079W        W50559   0.771  17.236  10.923
85080W        W50560  30.644   3.346  12.426
85081W        W50561  39.422  37.565  13.474
85082W        W50562  14.624  44.392   4.630
85083W        W50563   4.768  26.162  14.511
85084W        W50564  24.218  20.653  11.418
85085W        W50565  31.007  27.541  11.498
85086W        W50566  21.206   2.431   2.413
85087W        W50567  29.434  34.582  10.591
85088W        W50568  39.903  11.221  13.388
85089W        W50569  21.598  36.080   1.335
85090W        W50570  34.061  20.647  12.094
85091W        W50571   1.349  43.439  12.922
85092W        W50572  25.584  20.132  13.811
85093W        W50573  13.127   3.931   4.629
85094W        W50574   6.898  29.431   2.409
85095W        W50575   5.703  16.107   3.632
85096W        W50576   7.412   4.802   1.886
85097W        W50577  37.444   1.412   3.250
85098W        W50578   7.339  34.426   4.630
85099W        W50579  32.012  40.343   2.247
85100W        W50580  35.067  17.626   3.716
85101W        W50581  13.174  44.987   1.737
85102W        W50582  30.651  41.974   3.780
85103W        W50583  43.882  16.179  10.423
85104W        W50584   1.436   5.211  11.015
85105W        W50585  35.928   4.257   1.418
85106W        W50586  27.060  15.104   3.147
85107W        W50587   8.847  17.677   0.945
85108W        W50588  42.006   6.809   3.185
85109W        W50589  10.214  16.267  14.935
85110W        W50590  14.128  13.288   3.740
85111W        W50591  30.032   1.385   0.836
85112W        W50592  39.941   8.789   4.713
85113W        W50593  43.452   0.255   2.666
85114W        W50594  31.123  14.730  13.834
85115W        W50595  32.895  15.223  12.537
85116W        W50596  13.298  25.170   5.246
85117W        W50597  25.178  41.366   4.271
85118W        W50598  34.501  16.719  14.960
85119W        W50599  31.930  22.671   0.822
85120W        W50600  36.466  15.708  11.410
85121W        W50601   8.856   2.279   2.253
85122W        W50602  30.581  31.587   4.135
85123W        W50603  38.051  36.944  14.010
85124W        W50604   7.309  14.833   3.185
85125W        W50605  43.999  18.561   4.113
85126W        W50606  27.167  38.543   1.366
85127W        W50607  36.531   3.459   3.777
85128W        W50608  36.047  40.025  11.439
85129W        W50609  19.567  17.274   0.865
85130W        W50610  40.334  31.507   2.835
85131W        W50611  10.215  24.511   3.207
85132W        W50612  13.142  11.354   2.886
85133W        W50613  10.167  28.151  10.556
85134W        W50614   4.301  11.304  13.821
85135W        W50615   7.378  26.188   4.265
85136W        W50616  26.692  34.053  13.814
85137W        W50617  17.681  33.928  14.009
85138W        W50618  14.225  22.697   4.639
85139W        W50619  28.993  13.611  12.560
85140W        W50620  42.871  10.697  11.429
85141W        W50621  22.593  27.572   4.798
85142W        W50622  15.250  32.067  11.876
85143W        W50623  18.564  19.117  11.869
85144W        W50624  33.002   1.872   4.234
85145W        W50625   3.901  30.076   0.315
85146W        W50626   2.793   0.466  13.486
85147W        W50627  43.808  44.420   1.389
85148W        W50628  30.141  24.032   4.237
85149W        W50629  13.127  11.690   2.381
85150W        W50630  36.945   3.942  14.823
85151W        W50631  35.455  22.134  13.035
85152W        W50632  20.264  24.142   4.652
85153W        W50633  28.587  26.554  13.360
85154W        W50634  37.928   5.389  14.477
85155W        W50635  12.727  13.328   3.663
85156W        W50636   2.944  27.471   1.891
85157W        W50637   1.333  37.375   2.738
85158W        W50638   0.820  19.669   1.876
85159W        W50639  19.698  27.554  12.850
85160W        W50640  23.729  40.858   4.258
85161W        W50641  21.591   3.357   2.340
85162W        W50642  15.163  38.017  14.861
85163W        W50643  38.501  22.655   0.373
85164W        W50644  21.047  43.985  13.855
85165W        W50645  31.614  27.087   3.159
85166W        W50646   1.288  30.152  12.977
85167W        W50647  17.294  14.101  11.396
85168W        W50648  14.228   3.434   1.288
85169W        W50649  13.837  17.275  12.057
85170W        W50650  22.179  15.217   2.299
85171W        W50651  42.840  43.347   2.785
85172W        W50652  43.889  23.733  12.834
85173W        W50653  17.588  26.507  13.405
85174W        W50654  32.072  36.436   2.688
85175W        W50655  14.194  10.779  12.347
85176W        W50656   3.238   9.289  12.425
85177W        W50657  13.766  24.142  12.886
85178W        W50658  11.288  39.545   4.789
85179W        W50659  14.255  29.000   4.116
85180W        W50660  36.481  30.491  10.981
85181W        W50661  27.094  26.475  11.437
85182W        W50662  19.548   5.771  12.918
85183W        W50663  21.150  39.055   3.653
85184W        W50664  32.981   3.911  14.971
85185W        W50665  19.713  43.430  12.848
85186W        W50666  25.141  44.481  10.023
85187W        W50667  20.073  13.191  13.458
85188W        W50668  15.771  24.081   1.225
85189W        W50669  16.738   5.827  10.958
85190W        W50670  35.540  44.980  13.827
85191W        W50671   5.924   7.416   3.689
85192W        W50672  31.508   0.283  12.535
85193W        W50673  10.845  19.085  12.524
85194W        W50674   2.736  40.826   1.377
85195W        W50675   1.432  21.217  11.889
85196W        W50676  29.629   6.257  10.910
85197W        W50677  38.034  17.775  11.385
85198W        W50678  33.617  12.334   1.781
85199W        W50679  35.036  16.771  11.432
85200W        W50680  35.581  37.464   1.405
85201W        W50681  17.642  43.822  11.479
85202W        W50682  36.521   4.748   1.353
85203W        W50683  12.166  26.644   1.407
85204W        W50684  10.810   4.781  11.411
85205W        W50685  26.032  35.944   4.176
85206W        W50686   7.353   0.357   4.811
85207W        W50687   7.387  19.204  14.916
85208W        W50688  30.126  18.636   0.807
85209W        W50689  19.711  36.498  13.546
85210W        W50690   2.437  26.591   1.736
85211W        W50691   2.319  15.189  11.102
85212W        W50692  31.484  35.455   4.598
85213W        W50693   2.401  43.827  14.008
85214W        W50694  34.511  26.126  14.885
85215W        W50695  13.118  26.961   2.836
85216W        W50696  30.616  33.582  14.339
85217W        W50697  33.954  34.075  10.508
85218W        W50698  36.523  26.505   3.317
85219W        W50699  26.172  39.482  11.010
85220W        W50700   4.363  30.615  11.498
85221W        W50701  23.103  16.750   3.793
85222W        W50702  16.672  17.612  12.574
85223W        W50703   8.784  26.067  14.418
85224W        W50704  24.482  12.253  11.898
85225W        W50705   7.270   0.845   2.316
85226W        W50706  44.809   7.829  12.445
85227W        W50707  36.493  10.270   1.898
85228W        W50708  39.481  43.842  11.123
85229W        W50709  14.817  29.604  13.860
85230W        W50710  23.578  14.643   4.672
85231W        W50711  35.931   2.316   4.292
85232W        W50712   4.284  33.952   2.854
85233W        W50713  38.453  20.668   0.248
85234W        W50714  15.815  29.650  12.988
85235W        W50715  11.671  24.123   4.292
85236W        W50716  23.530  41.362   1.277
85237W        W50717  25.164  16.270  11.105
85238W        W50718   1.424   4.229   0.337
85239W        W50719  35.503  35.550   4.728
85240W        W50720  15.599  30.119   0.373
85241W        W50721  34.060  33.482  10.431
85242W        W50722  22.113  11.701   2.340
85243W        W50723  21.536   0.269   2.898
85244W        W50724  34.103   6.680   3.668
85245W        W50725   4.723  31.920  11.554
85246W        W50726   3.951  14.219  13.525
85247W        W50727  11.224  39.916   0.292
85248W        W50728  29.499  27.096   4.779
85249W        W50729  42.867  39.449   2.679
85250W        W50730  26.108  44.395   4.664
85251W        W50731   1.914  26.970  11.039
85252W        W50732  23.682  34.994  13.480
85253W        W50733  27.606  38.495   0.789
85254W        W50734  28.623  39.440   3.317
85255W        W50735  29.001   3.776   2.722
85256W        W50736  37.386  24.202   0.283
85257W        W50737  22.518  27.564   0.347
85258W        W50738  41.872  34.980  11.389
85259W        W50739  17.692  27.008  14.301
85260W        W50740   7.413  34.491  11.576
85261W        W50741  17.144   2.418   0.365
85262W        W50742  11.654   2.838  13.914
85263W        W50743  32.466  28.948   4.232
85264W        W50744  35.589  26.478   4.723
85265W        W50745  29.533  34.397   0.892
85266W        W50746  18.789  26.501  12.482
85267W        W50747  17.075  42.010  13.870
85268W        W50748  28.575  29.521  12.443
85269W        W50749  44.330  43.403   9.999
85270W        W50750  41.478  14.098  10.968
85271W        W50751   6.871  21.057  13.945
85272W        W50752  37.034   5.831   0.432
85273W        W50753  40.899   6.814  11.920
85274W        W50754   2.236  44.921   3.635
85275W        W50755   9.698   6.867   0.261
85276W        W50756  13.176  38.839   0.304
85277W        W50757   0.826  20.259   3.254
85278W        W50758  14.617  17.264  11.124
85279W        W50759  28.933  28.520   3.847
85280W        W50760  35.396  31.053  11.475
85281W        W50761   7.357  22.623  14.760
85282W        W50762   5.397  36.569   3.835
85283W        W50763  28.562  33.130   4.210
85284W        W50764   7.875  16.649  10.493
85285W        W50765  30.944  39.415  14.509
85286W        W50766  37.381  38.426  14.285
85287W        W50767   2.814  12.271   0.739
85288W        W50768  12.140  44.844  14.394
85289W        W50769  25.481  26.199  12.557
85290W        W50770  28.533   4.788  11.040
85291W        W50771  29.050  29.923   2.708
85292W        W50772  20.211  40.006   0.253
85293W        W50773  26.571  28.653  11.980
85294W        W50774   3.399  36.037   0.480
85295W        W50775  16.172  10.374  11.530
85296W        W50776  11.760  42.512  10.984
85297W        W50777  41.462  38.073  13.037
85298W        W50778  18.627   3.461  13.509
85299W        W50779  27.662  27.565   2.416
85300W        W50780  20.202  38.488   1.240
85301W        W50781  35.490  17.577  14.289
85302W        W50782   7.235  32.476  12.837
85303W        W50783   1.888  41.468  12.529
85304W        W50784  41.832  23.499   0.466
85305W        W50785  19.713  28.443  10.434
85306W        W50786  18.633  39.857  11.076
85307W        W50787  12.791  31.452   4.214
85308W        W50788  35.548  17.746  13.059
85309W        W50789   8.756  33.562  12.049
85310W        W50790  14.743  34.108   3.645
85311W        W50791  34.607  39.836   4.834
85312W        W50792  37.385  30.984   5.100
85313W        W50793  26.652  28.610   1.835
85314W        W50794  15.746  23.157   2.191
85315W        W50795  11.268   4.737   4.159
85316W        W50796  22.012  14.709  11.450
85317W        W50797   0.745  15.650  13.942
85318W        W50798  12.236  26.532  11.066
85319W        W50799  10.819   0.915   2.814
85320W        W50800  41.911  33.564   1.902
85321W        W50801  22.508   2.794  14.816
85322W        W50802  42.776  32.885  13.995
85323W        W50803  33.018   2.358  14.981
85324W        W50804   8.245  25.126  12.853
85325W        W50805  34.561  32.491   1.448
85326W        W50806  31.483   6.712  11.558
85327W        W50807   1.378   1.820   2.280
85328W        W50808  12.237   7.832   3.693
85329W        W50809  19.603  27.122  10.116
85330W        W50810   6.910  27.455  10.420
85331W        W50811  43.971  22.556   2.257
85332W        W50812  27.560  13.292   4.788
85333W        W50813   9.866  37.036  14.484
85334W        W50814   4.850   1.390  10.987
85335W        W50815   5.894  17.745  14.929
85336W        W50816   4.408  29.638  12.533
85337W        W50817  28.062   8.352   3.742
85338W        W50818  38.879  35.525  14.005
85339W        W50819  33.907  28.676   0.465
85340W        W50820  13.646  16.733  10.613
85341W        W50821  22.149  31.624  11.561
85342W        W50822  28.580  26.666  12.051
85343W        W50823   1.866  30.977   5.141
85344W        W50824  31.620   7.888   4.142
85345W        W50825   1.259   0.795   0.408
85346W        W50826  41.827   9.345   1.822
85347W        W50827  16.760  35.552   0.908
85348W        W50828  15.665  42.475  11.898
85349W        W50829  15.771  12.279  11.595
85350W        W50830  37.835  23.531   1.250
85351W        W50831  19.224  35.046   4.766
85352W        W50832  38.911  44.896  12.424
85353W        W50833  22.610   5.759  11.532
85354W        W50834  15.655  23.208  12.096
85355W        W50835   2.227  32.042  14.274
85356W        W50836  39.329  30.566   1.303
85357W        W50837   1.307  12.307  10.611
85358W        W50838  32.916   9.829  13.055
85359W        W50839  40.034  25.628   4.212
85360W        W50840  15.757  13.834   0.846
85361W        W50841  24.659  12.258   1.922
85362W        W50842  32.910   9.214  12.497
85363W        W50843  20.170  18.689   3.695
85364W        W50844  14.151   8.666   1.883
85365W        W50845   9.710  11.800   3.294
85366W        W50846  33.925  14.597   2.354
85367W        W50847  32.966  19.599  12.379
85368W        W50848  14.312  21.582   3.800
85369W        W50849   9.799  38.372   3.247
85370W        W50850  31.504   0.892   2.301
85371W        W50851  11.834  20.209   2.246
85372W        W50852  28.006   8.373  10.056
85373W        W50853  17.641   4.302   4.338
85374W        W50854  33.072   1.247   4.656
85375W        W50855  12.170  10.203   4.296
85376W        W50856   0.470  21.252   5.190
85377W        W50857  44.304  37.580  14.346
85378W        W50858   0.942  20.060   3.848
85379W        W50859  27.594   8.401   2.779
85380W        W50860  19.066  15.220   3.690
85381W        W50861  13.282  30.651  12.835
85382W        W50862  22.675  18.252  13.856
85383W        W50863  38.937   1.274   0.750
85384W        W50864   6.702  22.607  12.924
85385W        W50865   3.289  22.024  14.513
85386W        W50866  44.838  44.401   2.784
85387W        W50867  24.654  36.586   0.790
85388W        W50868  25.139  27.150   4.742
85389W        W50869  16.115   5.769  10.605
85390W        W50870  22.546  34.035  14.872
85391W        W50871  37.907   3.919   1.932
85392W        W50872  42.295  12.789   2.276
85393W        W50873  41.788   0.271  12.073
85394W        W50874  43.949  31.446  12.862
85395W        W50875  42.451  32.617   0.909
85396W        W50876  17.802  31.126  11.118
85397W        W50877  43.764  11.257   3.163
85398W        W50878  23.513  24.045  13.468
85399W        W50879  43.928   6.676  12.094
85400W        W50880  41.024  22.546   2.280
85401W        W50881   1.248  11.312  11.081
85402W        W50882  39.501  27.001   0.880
85403W        W50883   5.765  11.127   4.688
85404W        W50884   5.259  44.494  14.452
85405W        W50885  21.632  14.152   1.438
85406W        W50886   6.833  28.522   1.445
85407W        W50887  27.032   4.864   4.635
85408W        W50888   3.300  24.164   3.286
85409W        W50889  29.130  34.450   4.128
85410W        W50890   2.924  16.571  13.832
85411W        W50891   3.434  32.998   1.716
85412W        W50892  25.025  30.418  14.914
85413W        W50893  22.026  31.935   1.900
85414W        W50894  31.479  14.195  13.961
85415W        W50895  14.232  42.977   5.313
85416W        W50896   8.166   5.782  13.898
85417W        W50897  44.443  37.936  14.502
85418W        W50898  29.129   3.219  13.380
85419W        W50899  44.994  21.168  10.486
85420W        W50900   6.206  23.012   2.697
85421W        W50901  19.198  12.851   4.669
85422W        W50902   1.753  16.677   4.705
85423W        W50903   2.398  17.735  10.996
85424W        W50904  13.635  35.857  13.539
85425W        W50905  30.113  40.543   0.303
85426W        W50906  34.979  10.860  13.501
85427W        W50907   4.274   3.895  10.503
85428W        W50908  36.952  31.108   3.238
85429W        W50909  40.048  12.202   4.256
85430W        W50910  19.191  19.237   0.920
85431W        W50911  12.237  32.601  13.435
85432W        W50912  25.671   7.698  12.440
85433W        W50913  15.734  35.463  14.010
85434W        W50914  23.535  25.582  12.877
85435W        W50915   1.281  31.000  14.990
85436W        W50916  37.953   3.885   3.312
85437W        W50917  19.562   5.921   2.671
85438W        W50918  14.600   5.898   2.225
85439W        W50919  11.356   2.776   2.757
85440W        W50920  19.593  26.587   3.203
85441W        W50921  25.523  20.604  11.384
85442W        W50922  30.625  24.608  14.890
85443W        W50923   9.735   2.309   2.714
85444W        W50924   3.282   4.247  11.966
85445W        W50925  39.470   1.431   3.712
85446W        W50926  12.822   0.356  11.435
85447W        W50927  41.030  15.796  10.018
85448W        W50928  12.628   1.916  14.464
85449W        W50929  22.728   0.831  13.371
85450W        W50930  30.554   0.969   5.131
85451W        W50931   0.879  33.412   2.273
85452W        W50932   1.454  25.045  10.518
85453W        W50933  18.102  34.474   2.320
85454W        W50934  41.514  17.666  14.482
85455W        W50935  18.100  37.996  12.933
85456W        W50936  42.451  19.226   3.259
85457W        W50937  22.215  14.815   3.644
85458W        W50938   0.880  43.471   2.900
85459W        W50939  38.963   4.849  14.371
85460W        W50940  38.877  13.346   1.404
85461W        W50941   6.806  37.463   3.803
85462W        W50942  25.022  21.093  12.026
85463W        W50943  26.202  28.451   0.270
85464W        W50944  32.912  20.200  12.923
85465W        W50945   2.824  19.775   3.301
85466W        W50946  16.767  21.598   0.433
85467W        W50947  36.061   0.960  13.364
85468W        W50948  25.571  17.100  11.518
85469W        W50949  29.607  10.227  13.317
85470W        W50950   2.927  28.453  12.897
85471W        W50951  41.327   6.281  10.588
85472W        W50952  43.327  38.905   1.254
85473W        W50953  16.805  30.954  13.872
85474W        W50954  35.018  16.742  12.948
85475W        W50955  10.650  32.041  10.936
85476W        W50956   7.797  20.727  13.456
85477W        W50957   0.983   1.863  10.618
85478W        W50958  14.293   5.717  12.402
85479W        W50959   5.794  32.450  13.414
85480W        W50960  36.544   8.752  10.121
85481W        W50961  32.964  19.549  12.829
85482W        W50962   7.724  34.876   1.395
85483W        W50963  31.620  20.238  10.553
85484W        W50964  40.883   7.334  11.855
85485W        W50965  20.555   5.204  11.374
85486W        W50966  21.257  20.661  14.513
85487W        W50967  27.650  28.514  12.570
85488W        W50968  21.148  33.504  14.977
85489W        W50969  44.305  37.872  10.538
85490W        W50970  37.567  37.492   0.445
85491W        W50971  16.691  41.481  11.453
85492W        W50972  20.631  39.812  11.484
85493W        W50973  17.089   1.436  12.517
85494W        W50974   2.732  13.172  11.035
85495W        W50975  33.564  38.398   3.761
85496W        W50976  21.701   5.774  12.927
85497W        W50977  17.182  30.148   1.898
85498W        W50978  44.760   5.770   4.607
85499W        W50979  40.476   9.780   3.154
85500W        W50980  38.372  10.719   1.298
85501W        W50981  13.146  10.232   4.730
85502W        W50982  22.110  11.683  12.999
85503W        W50983  28.628   9.700   2.860
85504W        W50984   4.762   7.791   4.777
85505W        W50985  20.169  29.436  11.432
85506W        W50986  29.669  21.249   2.761
85507W        W50987  28.993  15.781  10.601
85508W        W50988  17.683  39.869   1.394
85509W        W50989   0.378  40.022  14.841
85510W        W50990   9.860  24.152   1.812
85511W        W50991   3.776  32.932  11.577
85512W        W50992  41.855   4.402   2.779
85513W        W50993  14.701   5.319  12.063
85514W        W50994  14.733   3.795  10.936
85515W        W50995  40.520  17.298   9.933
85516W        W50996   7.382  12.793  13.471
85517W        W50997  22.195   6.798   1.838
85518W        W50998  22.647  44.375  11.945
85519W        W50999  15.595  38.566  12.354
85520W        W51000   4.344  16.609   4.297
85521W        W51001  25.049  30.594   4.292
85522W        W51002  17.194   4.250   2.245
85523W        W51003   0.756  26.043  11.384
85524W        W51004  39.395  41.035  14.499
85525W        W51005  22.629  20.753  13.052
85526W        W51006  12.800  35.590   3.352
85527W        W51007  19.045  13.714  10.420
85528W        W51008  17.112  26.535   1.271
85529W        W51009  18.728  12.225   2.265
85530W        W51010  10.204  16.717  11.895
85531W        W51011  44.902  41.390   0.352
85532W        W51012  11.253  31.987   0.406
85533W        W51013  30.128  18.553   2.825
85534W        W51014   8.234  19.551   3.257
85535W        W51015   8.857  32.970  12.863
85536W        W51016  14.325  41.494  12.976
85537W        W51017  14.336  14.771   3.354
85538W        W51018   6.358   1.950  12.550
85539W        W51019  19.115  30.640  13.528
85540W        W51020  34.547  22.029  11.056
85541W        W51021  26.568   6.217   0.308
85542W        W51022   9.658  20.752   3.864
85543W        W51023  30.988  41.876   5.751
85544W        W51024  37.928   4.831  10.914
85545W        W51025  34.885   7.188   2.390
85546W        W51026   0.423  26.149  12.442
85547W        W51027  27.997  30.053   3.361
85548W        W51028  30.128  17.621   4.250
85549W        W51029  23.496  35.946  12.407
85550W        W51030  10.804  32.587  10.628
85551W        W51031   2.398  11.145  13.996
85552W        W51032   1.419  30.012  14.400
85553W        W51033  42.776   1.948  13.338
85554W        W51034  10.871  23.490   2.794
85555W        W51035  32.074  16.118  13.409
85556W        W51036  29.160   2.877  10.926
85557W        W51037  14.135  38.443  12.920
85558W        W51038  14.172  21.713   1.349
85559W        W51039  12.332  34.111  12.952
85560W        W51040  25.519  25.020   4.793
85561W        W51041  20.174  11.683  12.016
85562W        W51042  25.976  40.530   2.825
85563W        W51043  12.233  21.114   4.745
85564W        W51044  28.065   2.818   2.196
85565W        W51045  44.364  10.860   2.829
85566W        W51046  25.089  32.460   4.151
85567W        W51047  34.526  22.094   2.758
85568W        W51048  28.944  39.897  11.605
85569W        W51049  23.576   6.808   0.340
85570W        W51050  32.507  44.986   4.773
85571W        W51051   7.880   4.895   1.753
85572W        W51052  17.669   9.681   4.602
85573W        W51053  17.720   5.370  10.592
85574W        W51054  19.202  31.039  10.563
85575W        W51055  44.444   2.962   4.677
85576W        W51056   4.215   8.862   3.815
85577W        W51057  37.877  25.080  14.860
85578W        W51058  24.068  26.537  10.152
85579W        W51059  43.791  21.709   2.760
85580W        W51060  22.725  36.850  13.487
85581W        W51061  11.232  40.359  13.060
85582W        W51062   0.450  12.769   0.954
85583W        W51063  35.100  10.317  14.391
85584W        W51064  35.985   6.308  12.572
85585W        W51065  13.116  30.146  13.449
85586W        W51066   5.910   9.183   4.811
85587W        W51067  11.627   8.792  10.483
85588W        W51068  12.830  42.988  13.514
85589W        W51069  11.211  18.605  14.982
85590W        W51070  31.640  11.341  11.518
85591W        W51071   1.284   3.901   2.204
85592W        W51072  33.096  41.792  10.459
85593W        W51073  37.345  22.504   3.247
85594W        W51074   1.366  11.266   4.175
85595W        W51075  38.358  36.561  14.779
85596W        W51076  21.130  43.463  11.104
85597W        W51077   3.721   6.381  12.033
85598W        W51078  35.050  24.026   2.755
85599W        W51079  18.052  18.088  10.943
85600W        W51080  39.411   0.875   0.953
85601W        W51081   2.894  15.173  10.929
85602W        W51082  13.675  18.695   3.236
85603W        W51083  37.836  26.006  13.319
85604W        W51084  23.128  30.050  12.351
85605W        W51085  42.838  22.227   3.306
85606W        W51086  19.533  40.444   2.266
85607W        W51087  15.285  27.684  14.513
85608W        W51088  29.623  16.667   3.742
85609W        W51089  34.922  33.092   1.786
85610W        W51090  29.009  29.156  11.448
85611W        W51091  35.088  37.377  13.818
85612W        W51092   1.766  16.313  13.817
85613W        W51093  38.506  20.555  12.383
85614W        W51094  34.526  15.300   4.803
85615W        W51095  44.315  21.605   1.810
85616W        W51096  30.469  18.192   2.864
85617W        W51097   9.689   8.771  13.960
85618W        W51098  26.169  38.947   2.323
85619W        W51099  30.610  39.842  14.476
85620W        W51100  22.595  30.630   3.248
85621W        W51101  32.983  38.359   0.312
85622W        W51102  31.977  12.244  10.936
85623W        W51103   0.284  39.811  13.038
85624W        W51104   1.374  15.789  14.009
85625W        W51105  36.536  36.363  11.057
85626W        W51106  11.180  41.984   0.293
85627W        W51107  32.561  28.111   2.732
85628W        W51108  41.312  34.441  14.857
85629W        W51109   9.257  41.956   3.807
85630W        W51110   4.876  17.250  11.873
85631W        W51111  35.036   8.797  13.930
85632W        W51112   6.919  12.680  14.899
85633W        W51113   8.670  24.039   4.837
85634W        W51114  29.157  39.031   1.832
85635W        W51115  19.721   9.680  10.515
85636W        W51116  15.717  28.184  10.098
85637W        W51117  16.698   0.936  11.092
85638W        W51118  15.094  19.774   1.792
85639W        W51119  16.301  43.298  11.863
85640W        W51120  17.157  18.748  11.012
85641W        W51121  23.593  27.028  14.339
85642W        W51122  14.653  35.066   1.722
85643W        W51123  24.103  33.897  14.492
85644W        W51124  28.099  31.123  13.372
85645W        W51125  34.916  27.572   3.150
85646W        W51126  31.912  43.853   3.310
85647W        W51127  28.957  32.960  12.086
85648W        W51128  36.431  43.864  14.938
85649W        W51129  31.632  36.463   3.192
85650W        W51130  11.839  29.152   4.772
85651W        W51131  38.498  38.411  14.292
85652W        W51132  17.100   1.369   1.778
85653W        W51133  23.128  43.969  13.886
85654W        W51134  42.316  13.194  13.814
85655W        W51135   4.821  33.488   1.387
85656W        W51136  38.918  21.606  11.111
85657W        W51137  27.979  17.244   3.320
85658W        W51138  12.824  39.340  10.625
85659W        W51139  33.536   4.267  11.561
85660W        W51140   0.776  13.729   4.613
85661W        W51141  37.515   9.303  12.978
85662W        W51142  31.917  29.650   1.341
85663W        W51143  24.532  25.020  13.864
85664W        W51144   2.819  39.890  11.478
85665W        W51145  39.989  38.077  14.890
85666W        W51146  31.004  18.285  14.478
85667W        W51147   2.910   6.893  13.313
85668W        W51148  24.663  27.574   4.826
85669W        W51149   6.799  27.989  14.026
85670W        W51150  17.697  37.461  12.827
85671W        W51151  17.717  35.925   4.203
85672W        W51152  31.499  31.448  10.974
85673W        W51153  15.801  24.982   2.847
85674W        W51154   2.246   2.455   2.786
85675W        W51155  18.281  13.258   1.299
85676W        W51156   1.883  21.516  11.421
85677W        W51157  38.899  17.105   1.373
85678W        W51158  25.179  41.022  14.997
85679W        W51159   3.816  41.516   4.621
85680W        W51160  44.936  20.103   0.959
85681W        W51161  23.608  44.985  14.974
85682W        W51162  42.914  30.504  14.877
85683W        W51163   0.349  21.263   0.441
85684W        W51164  44.825  23.103   4.340
85685W        W51165  28.585  40.015  11.539
85686W        W51166  37.034  23.595  14.291
85687W        W51167   6.902  21.746  13.341
85688W        W51168  26.484  18.155   4.297
85689W        W51169  38.472  36.047   1.754
85690W        W51170  27.982  12.841   4.344
85691W        W51171   4.787   5.245  11.980
85692W        W51172  11.140  16.663  12.511
85693W        W51173   9.822  39.429  11.946
85694W        W51174  32.477  42.322  12.086
85695W        W51175  15.094  17.723   0.372
85696W        W51176  32.942  37.919  11.973
85697W        W51177  18.727  28.572   4.272
85698W        W51178  37.900   2.920  12.539
85699W        W51179  37.478  41.948   2.786
85700W        W51180  29.596  44.293  10.481
85701W        W51181  36.462  34.511  13.989
85702W        W51182  37.430  41.007   0.462
85703W        W51183  26.014  31.596  11.990
85704W        W51184  36.962  40.910   0.796
85705W        W51185   6.694  28.011  14.473
85706W        W51186  37.906  33.048  11.421
85707W        W51187  20.213  24.683   2.806
85708W        W51188  36.056   5.919   1.839
85709W        W51189  17.661  29.928   4.321
85710W        W51190  39.375  29.051  10.987
85711W        W51191  28.107   5.930  14.940
85712W        W51192  21.655  41.854  12.570
85713W        W51193  35.036  30.550  13.309
85714W        W51194   0.903   3.299  13.808
85715W        W51195   0.772   8.246  13.424
85716W        W51196  24.182   6.847  12.438
85717W        W51197  26.007  15.768  10.902
85718W        W51198  36.957  35.905  10.601
85719W        W51199  16.266   7.327  12.963
85720W        W51200  14.788   9.807  11.585
85721W        W51201  16.741   9.336  14.876
85722W        W51202  35.403  21.060  12.523
85723W        W51203  25.135  30.082   0.742
85724W        W51204  23.181  35.495  12.522
85725W        W51205  35.988   7.696  11.509
85726W        W51206   5.193  44.387  10.555
85727W        W51207  31.608  29.984  12.566
85728W        W51208  11.346  15.796  11.396
85729W        W51209  11.847  31.971   0.434
85730W        W51210  10.166  11.777  11.953
85731W        W51211  30.560  13.747  14.514
85732W        W51212   2.229  18.555   0.455
85733W        W51213   9.299  15.748   1.749
85734W        W51214  29.169   4.370  13.367
85735W        W51215  36.948  30.445   1.747
85736W        W51216  12.309  43.943  13.363
85737W        W51217   4.308  11.175   0.249
85738W        W51218   1.380  25.548  10.488
85739W        W51219   5.769  13.261   4.299
85740W        W51220   1.382   4.817  11.028
85741W        W51221  20.124  24.044   1.925
85742W        W51222  27.627   5.234  14.340
85743W        W51223   9.201  19.721   4.269
85744W        W51224  16.736  25.196   2.715
85745W        W51225  37.535  30.029   3.644
85746W        W51226  39.396  16.277  12.378
85747W        W51227  37.988  43.461   3.285
85748W        W51228  11.816  21.029  14.892
85749W        W51229  10.718   4.340   1.283
85750W        W51230  23.150  16.696   1.891
85751W        W51231  18.051  21.656  10.547
85752W        W51232  34.915  28.593  13.511
85753W        W51233  23.000  28.022   2.247
85754W        W51234   3.413   5.369   1.372
85755W        W51235   2.800  41.415  12.972
85756W        W51236  27.050  17.175   3.726
85757W        W51237  18.188  15.773  11.929
85758W        W51238  36.503  19.628   0.345
85759W        W51239  41.024  34.596  12.541
85760W        W51240  27.082   9.866  14.313
85761W        W51241  39.390  10.326  12.381
85762W        W51242  36.014   3.429  12.840
85763W        W51243   7.302  24.677  10.900
85764W        W51244  37.525  10.281   3.333
85765W        W51245  22.552  18.090  13.350
85766W        W51246  40.048  26.663  12.340
85767W        W51247  25.505  10.186  13.918
85768W        W51248  14.775  35.948  14.399
85769W        W51249   5.350  21.731   1.306
85770W        W51250  13.665   4.722  12.447
85771W        W51251  11.657   8.688   1.863
85772W        W51252  28.585  44.431  14.513
85773W        W51253  31.450  26.602   2.776
85774W        W51254  19.603  44.466   0.802
85775W        W51255  41.980  15.103  12.024
85776W        W51256  22.028   8.192  12.394
85777W        W51257   2.855  21.096  14.893
85778W        W51258  25.482  38.912   9.974
85779W        W51259  15.120  34.921   5.761
85780W        W51260  26.153  13.767  10.937
85781W        W51261  15.116  19.041   1.698
85782W        W51262  26.999  39.814  11.414
85783W        W51263  22.664   7.903   0.284
85784W        W51264   2.249   9.787  13.441
85785W        W51265  19.114  31.478  12.973
85786W        W51266  15.640  29.467   4.121
85787W        W51267  44.504  24.666   1.380
85788W        W51268  34.564  33.067   2.774
85789W        W51269  28.525   8.832   1.331
85790W        W51270  32.066  44.867  14.929
85791W        W51271  32.040  39.415  13.017
85792W        W51272   8.335  31.989  13.399
85793W        W51273  10.141  13.277   0.810
85794W        W51274  31.024   1.751  12.428
85795W        W51275  31.433  18.291  14.387
85796W        W51276  36.965   5.341   1.888
85797W        W51277  15.795  43.376   1.865
85798W        W51278   0.780  27.989  11.472
85799W        W51279  12.320  25.980   3.205
85800W        W51280  13.107  36.900   1.897
85801W        W51281  43.878  25.120   3.227
85802W        W51282   5.819  36.421   2.873
85803W        W51283  39.917  36.520   2.683
85804W        W51284   7.758  39.963   1.865
85805W        W51285  24.072  41.865   2.224
85806W        W51286  23.239  39.850   3.783
85807W        W51287   0.292  28.554  10.626
85808W        W51288  11.647  43.496  12.363
85809W        W51289  10.257   6.790  14.465
85810W        W51290  16.200  15.724  12.876
85811W        W51291  31.562   3.742   1.878
85812W        W51292  43.974  16.755  11.081
85813W        W51293  10.238  42.948   1.305
85814W        W51294  28.536  29.499   1.221
85815W        W51295  15.732  41.385  14.415
85816W        W51296  42.801  35.038   3.759
85817W        W51297  14.689   4.789  13.889
85818W        W51298  21.113  25.654   4.731
85819W        W51299  32.428   0.358   4.195
85820W        W51300  25.492   3.886  13.512
85821W        W51301  27.633  19.093   0.457
85822W        W51302   7.760  40.531   1.258
85823W        W51303  24.125  43.841  13.866
85824W        W51304  10.810  12.352   4.327
85825W        W51305   0.267   9.792  14.846
85826W        W51306  21.637  23.181   2.844
85827W        W51307  19.655   7.827   4.688
85828W        W51308  21.706  41.989   0.821
85829W        W51309   3.870  15.150   1.242
85830W        W51310  12.332  13.112  11.090
85831W        W51311   9.685  35.402   0.732
85832W        W51312  43.841  17.256  11.537
85833W        W51313  11.171  25.115   0.344
85834W        W51314  14.807  20.590   0.305
85835W        W51315  25.178   4.824  11.414
85836W        W51316   3.756  30.037   4.303
85837W        W51317  20.128  28.662   3.303
85838W        W51318  26.703  19.115   2.727
85839W        W51319  24.161  42.305   2.764
85840W        W51320   1.897  16.213  11.065
85841W        W51321  35.033  11.812  14.886
85842W        W51322  25.509  22.703   4.299
85843W        W51323  12.645  24.166   3.812
85844W        W51324  39.999   2.303   0.809
85845W        W51325  24.012   6.906   5.164
85846W        W51326   8.289  26.174  13.022
85847W        W51327  36.921  18.632   4.248
85848W        W51328  17.127  23.653  11.546
85849W        W51329  42.952  35.498   0.483
85850W        W51330  22.999  22.081  14.942
85851W        W51331  33.499  44.873   4.669
85852W        W51332  28.144  31.465   0.790
85853W        W51333  21.092   6.757  12.030
85854W        W51334  36.863   1.935   4.113
85855W        W51335  18.558  43.775   0.369
85856W        W51336  42.340  22.013   0.903
85857W        W51337  31.984  43.304   0.420
85858W        W51338  26.651  10.222  13.884
85859W        W51339  28.055  27.191   2.886
85860W        W51340  41.843   9.344   3.728
85861W        W51341  42.848  35.018   2.224
85862W        W51342   6.853   1.428   2.219
85863W        W51343  24.155  43.340   0.334
85864W        W51344   3.459  43.766   3.859
85865W        W51345   3.922   4.879   2.787
85866W        W51346  40.549  43.396  12.362
85867W        W51347   6.217  39.518   4.662
85868W        W51348  12.239   0.313  13.053
85869W        W51349  28.980  10.644   0.811
85870W        W51350   1.434  26.663   0.366
85871W        W51351  31.444  18.651   1.451
85872W        W51352  33.957  36.889  11.486
85873W        W51353  43.922   7.340   4.793
85874W        W51354   1.975   9.186   3.251
85875W        W51355  21.193  32.948   0.472
85876W        W51356  33.888   5.256   4.647
85877W        W51357   0.457  20.742   1.716
85878W        W51358  32.421  33.925  13.958
85879W        W51359  22.515  31.591   0.811
85880W        W51360   9.805  23.603   1.451
85881W        W51361  40.985  10.226   2.854
85882W        W51362  32.447  33.883   3.647
85883W        W51363  19.055  19.647   4.195
85884W        W51364  29.660  16.166   1.845
85885W        W51365  10.376   1.976  14.322
85886W        W51366  11.767  27.629  14.413
85887W        W51367   3.741   8.284  14.861
85888W        W51368  27.584  39.459  13.413
85889W        W51369  32.465  13.636   1.253
85890W        W51370  42.296  10.353   3.694
85891W        W51371   3.253  23.623   2.354
85892W        W51372  10.764  23.590  13.917
85893W        W51373  34.891  18.183   0.363
85894W        W51374  13.311  31.907  10.551
85895W        W51375  33.073  21.176   1.846
85896W        W51376   0.284  28.595  13.516
85897W        W51377  14.272   0.366   4.317
85898W        W51378  27.124  15.583   5.186
85899W        W51379  31.930  36.513   0.893
85900W        W51380  36.002  41.020  12.895
85901W        W51381  16.153   2.256   0.761
85902W        W51382   4.783  13.106   3.185
85903W        W51383  27.636  42.828   0.748
85904W        W51384  43.949  15.725  10.616
85905W        W51385  20.533  18.171  12.344
85906W        W51386  14.616  34.550   2.864
85907W        W51387  43.779  44.830  11.502
85908W        W51388  11.733  37.956  12.432
85909W        W51389  42.829  44.829  10.553
85910W        W51390   1.812  24.200  12.508
85911W        W51391  12.852  27.058  14.013
85912W        W51392  26.566  43.306   0.389
85913W        W51393   0.462  29.114  12.875
85914W        W51394  34.968  28.950   3.727
85915W        W51395  35.101   3.302  14.449
85916W        W51396  15.607  30.163  14.498
85917W        W51397  40.539  40.317   3.659
85918W        W51398  19.739  36.566  11.588
85919W        W51399   5.301  38.077  14.939
85920W        W51400  24.108  11.796   5.205
85921W        W51401  10.860  11.802  13.431
85922W        W51402  18.066   0.940   0.865
85923W        W51403   0.964  42.346   4.123
85924W        W51404  36.055  18.764   3.824
85925W        W51405  41.916  38.526  10.576
85926W        W51406   1.880   9.838  10.504
85927W        W51407  17.190  13.303   1.839
85928W        W51408  39.364  20.617   1.418
85929W        W51409  31.141   3.921   4.600
85930W        W51410   6.694  34.431   0.461
85931W        W51411  10.351   0.479   0.740
85932W        W51412  22.028   6.314   1.315
85933W        W51413   6.898  12.847   3.753
85934W        W51414  19.154  43.339   2.395
85935W        W51415  22.585  33.507  11.904
85936W        W51416  37.484  34.411  12.360
85937W        W51417  28.011   0.986  13.497
85938W        W51418  29.045  13.731  11.920
85939W        W51419  41.798   5.818   3.216
85940W        W51420  33.437  29.147   4.126
85941W        W51421  39.932   0.809   4.664
85942W        W51422  44.442   1.838   0.363
85943W        W51423  37.963  25.689   2.787
85944W        W51424  29.624  30.963  12.398
85945W        W51425   5.387   0.465  11.389
85946W        W51426  44.408  40.327   2.854
85947W        W51427  20.135  43.829   3.713
85948W        W51428  17.216  18.103  11.453
85949W        W51429  20.216   3.442   3.332
85950W        W51430  11.228   3.952   0.942
85951W        W51431  21.225  24.612   3.717
85952W        W51432  23.663  26.038   0.958
85953W        W51433  42.968  44.360   2.776
85954W        W51434  38.417  12.235   0.470
85955W        W51435  22.190  27.088   1.353
85956W        W51436  44.455   0.868  13.380
85957W        W51437  24.522   6.707   3.151
85958W        W51438  12.747  36.538  14.847
85959W        W51439  43.009   4.822   0.726
85960W        W51440  36.436  29.967   2.250
85961W        W51441  20.762   3.794   3.786
85962W        W51442  40.994  36.577   3.813
85963W        W51443   4.325  20.766  13.995
85964W        W51444  20.042  43.304  13.858
85965W        W51445  21.087  14.669   2.407
85966W        W51446  34.466  34.015   4.342
85967W        W51447  31.115  15.224  10.621
85968W        W51448  40.829   8.668  11.567
85969W        W51449  43.330  18.641   4.819
85970W        W51450  11.796  26.015   3.835
85971W        W51451  41.439   4.813   2.821
85972W        W51452  25.694  18.713  14.402
85973W        W51453  23.581  42.989  11.905
85974W        W51454   9.322  41.820   0.908
85975W        W51455  39.052  38.457  14.321
85976W        W51456  21.715  39.970  12.980
85977W        W51457  39.544   3.796   1.239
85978W        W51458  37.003  23.695   4.813
85979W        W51459  39.495  29.964   3.322
85980W        W51460  10.250  15.603  13.843
85981W        W51461   9.671  16.295  13.354
85982W        W51462  36.088   7.672  13.504
85983W        W51463  16.213  23.537  13.909
85984W        W51464  16.169  10.232   2.359
85985W        W51465  43.767   4.237   0.463
85986W        W51466  26.561  12.853   1.234
85987W        W51467  19.131  36.036  11.016
85988W        W51468  44.866  27.121  11.051
85989W        W51469  20.753  41.031   2.191
85990W        W51470  34.511  18.054  14.877
85991W        W51471  44.989  29.646   3.867
85992W        W51472  14.194  28.178  14.493
85993W        W51473  21.206  12.680  11.934
85994W        W51474  25.703   2.860   0.907
85995W        W51475   2.435  30.054  13.983
85996W        W51476  40.910  18.275  10.996
85997W        W51477  12.727  43.939  14.902
85998W        W51478  28.145  35.467   4.652
85999W        W51479  18.779   1.421  10.928
86000W        W51480  15.742  12.818  12.024
86001W        W51481  34.994  34.562   1.382
86002W        W51482  25.072  37.859  14.829
86003W        W51483  38.989  11.865   5.279
86004W        W51484  26.099   6.246   3.847
86005W        W51485   9.353  38.418   2.281
86006W        W51486  26.497  24.543  12.978
86007W        W51487   7.799  41.788  13.481
86008W        W51488   4.269  36.435   0.348
86009W        W51489   3.332  35.927   3.643
86010W        W51490   8.319   5.696  11.907
86011W        W51491   9.386  10.277   0.337
86012W        W51492  23.630  25.997  12.093
86013W        W51493  26.638  44.502   2.726
86014W        W51494  12.297  12.347  14.512
86015W        W51495  44.354  37.362  12.968
86016W        W51496  33.416  14.739  13.964
86017W        W51497  31.015  43.856  10.916
86018W        W51498   2.767  31.104  11.046
86019W        W51499  26.664  11.755   2.369
86020W        W51500   3.423  32.584   2.860
86021W        W51501   3.244  14.696   1.752
86022W        W51502  11.314  19.733   3.250
86023W        W51503  41.536  20.169   0.892
86024W        W51504  13.803  34.477   3.686
86025W        W51505   2.273  24.594   2.343
86026W        W51506  24.136   5.280  14.980
86027W        W51507  16.739  37.021  13.819
86028W        W51508  26.666  18.729   3.228
86029W        W51509  43.987  22.650  12.515
86030W        W51510  11.204  13.334   3.746
86031W        W51511  32.958  26.549   1.287
86032W        W51512  17.785  27.473   0.439
86033W        W51513   5.420  27.633  11.892
86034W        W51514  24.530  40.546   4.197
86035W        W51515  17.705  16.797   2.890
86036W        W51516  19.743  22.728  14.017
86037W        W51517  37.978  12.775  14.024
86038W        W51518  18.582  21.637  11.028
86039W        W51519  37.378  36.959  10.411
86040W        W51520  39.972  14.653  12.389
86041W        W51521   5.820  32.459  13.809
86042W        W51522  20.629   0.367  10.456
86043W        W51523   6.363  11.759  13.800
86044W        W51524  29.112  30.057  12.006
86045W        W51525  42.376  29.503  12.915
86046W        W51526  41.420   6.768   3.359
86047W        W51527  25.552   5.199  13.526
86048W        W51528  36.524  13.631   2.416
86049W        W51529  15.709  13.212  13.376
86050W        W51530   1.311  13.294   3.634
86051W        W51531   9.250  37.364  10.599
86052W        W51532  31.950  24.607   0.775
86053W        W51533   4.249  40.478  12.430
86054W        W51534   8.208  24.514   4.231
86055W        W51535  21.082  19.609  13.474
86056W        W51536  27.458   1.916   1.703
86057W        W51537  32.088  43.287  10.921
86058W        W51538   6.901  18.790  13.001
86059W        W51539  33.026  16.725   2.194
86060W        W51540  31.960  34.466   2.414
86061W        W51541  16.161  33.118  12.409
86062W        W51542  34.597  26.128   0.378
86063W        W51543  40.865  20.559  11.030
86064W        W51544  24.700  33.017  12.452
86065W        W51545  13.694  11.134   2.766
86066W        W51546  43.468   0.249   3.796
86067W        W51547   5.819  11.347  14.009
86068W        W51548  12.832   4.338  10.939
86069W        W51549  28.474  28.539   2.718
86070W        W51550   1.309   5.355  12.517
86071W        W51551  24.597  17.575   1.223
86072W        W51552   1.797  13.309   3.250
86073W        W51553  24.716  43.514  12.578
86074W        W51554  33.955  15.617  11.062
86075W        W51555  11.801  34.558   4.316
86076W        W51556  15.679  42.955   3.817
86077W        W51557  29.087  15.614   3.380
86078W        W51558  15.230  37.906  13.334
86079W        W51559  34.526  10.329   2.374
86080W        W51560   8.170  37.071  12.348
86081W        W51561  27.683  35.515  12.449
86082W        W51562  30.990  44.842  11.541
86083W        W51563   5.728   0.900   0.881
86084W        W51564   3.259  23.231   2.318
86085W        W51565   1.898  37.849  12.540
86086W        W51566   7.796  42.457   1.255
86087W        W51567  38.926  33.994   3.773
86088W        W51568   7.703   2.425   4.617
86089W        W51569  25.148  13.754  12.974
86090W        W51570  14.791   8.319  11.410
86091W        W51571  38.519  35.911   2.751
86092W        W51572  34.046  25.515   1.774
86093W        W51573  38.346   4.832   0.365
86094W        W51574  19.171  16.313  13.804
86095W        W51575  42.515   4.937  14.408
86096W        W51576   7.384  42.313   2.333
86097W        W51577  14.146   4.265  11.393
86098W        W51578  43.854  13.690  14.411
86099W        W51579  12.273  42.001   3.281
86100W        W51580   2.317  38.873  13.998
86101W        W51581   0.882  22.997  13.440
86102W        W51582  35.557   9.330   0.796
86103W        W51583  17.721  19.136   4.146
86104W        W51584  21.092   2.376  11.444
86105W        W51585  41.853  18.288   9.610
86106W        W51586  37.004  24.486   0.759
86107W        W51587   7.175  42.322  13.373
86108W        W51588  34.920  42.852   1.390
86109W        W51589  28.120  27.005   0.926
86110W        W51590  23.593  42.400   0.906
86111W        W51591  16.714  34.911   0.471
86112W        W51592  11.803  39.973   1.336
86113W        W51593  12.307  14.795   3.700
86114W        W51594   0.336   6.777   1.287
86115W        W51595  38.455  26.478   3.723
86116W        W51596  28.520  23.157  13.484
86117W        W51597  30.636  33.601   0.280
86118W        W51598  23.199  44.770   1.715
86119W        W51599  15.749   2.922   0.957
86120W        W51600  12.664   8.678  14.465
86121W        W51601  10.704  35.461  11.505
86122W        W51602  26.073   1.808  11.007
86123W        W51603  42.515  11.774   0.731
86124W        W51604  33.886   4.265  11.928
86125W        W51605  22.743  33.512   5.276
86126W        W51606  21.127   2.782   3.299
86127W        W51607  40.982   0.368   3.705
86128W        W51608  15.659  24.711  10.607
86129W        W51609  40.354  21.560  12.453
86130W        W51610  21.632  30.491   4.191
86131W        W51611  18.230  11.360   0.302
86132W        W51612  37.939   3.439   0.864
86133W        W51613  12.808  26.016  12.399
86134W        W51614  29.947  37.559   1.896
86135W        W51615  41.792  15.175   3.221
86136W        W51616  10.726  42.804  11.477
86137W        W51617   5.899   2.955   4.135
86138W        W51618   5.316  22.209  11.027
86139W        W51619  38.393  20.156  12.942
86140W        W51620  10.294  27.055  11.018
86141W        W51621  20.063   3.737  13.061
86142W        W51622   2.842  36.086   3.257
86143W        W51623   2.786  19.079   3.857
86144W        W51624   3.927  28.474   0.786
86145W        W51625  19.684   6.319   0.372
86146W        W51626  20.683  16.270  12.902
86147W        W51627   2.900  32.531  11.064
86148W        W51628  36.918  11.714  12.924
86149W        W51629  24.551   9.190   3.317
86150W        W51630   7.705   5.736   0.823
86151W        W51631  16.142  11.285   3.163
86152W        W51632   4.322  19.735  13.432
86153W        W51633  16.243  29.100   2.833
86154W        W51634  44.831  29.129   0.931
86155W        W51635  21.084   6.688   4.728
86156W        W51636  36.030   8.309   0.792
86157W        W51637  28.133  22.233  10.018
86158W        W51638  15.796  23.088   2.757
86159W        W51639  12.164  41.528   1.911
86160W        W51640  13.119  40.483  12.877
86161W        W51641  40.475  41.003   0.810
86162W        W51642  15.306  24.649   3.757
86163W        W51643   9.211  28.647  12.944
86164W        W51644  41.989  38.846   3.740
86165W        W51645   0.915   9.373  14.382
86166W        W51646   7.332   7.296  13.963
86167W        W51647  30.087  14.322  12.051
86168W        W51648   2.860  33.989  13.388
86169W        W51649  34.942  27.549   1.755
86170W        W51650  30.462  21.513  13.902
86171W        W51651   6.732  21.047  14.401
86172W        W51652   1.398  24.104  12.546
86173W        W51653  25.048  34.615   0.960
86174W        W51654  19.603  30.608   2.819
86175W        W51655   2.461  33.016   9.541
86176W        W51656  20.234  35.978  14.304
86177W        W51657  35.042  42.957   2.695
86178W        W51658  27.985  29.075   1.282
86179W        W51659  28.520  37.985   0.321
86180W        W51660  21.682  35.545  13.856
86181W        W51661  27.534  22.718   4.348
86182W        W51662  29.050  22.604  10.549
86183W        W51663   5.913  21.593   2.378
86184W        W51664  26.534  38.512   2.877
86185W        W51665  36.366   4.837   1.827
86186W        W51666  13.629  37.045   4.627
86187W        W51667  14.229  21.648   0.948
86188W        W51668  18.645  22.603  10.071
86189W        W51669  30.593  24.579   2.707
86190W        W51670   0.777   5.222   2.241
86191W        W51671  33.082  16.768  11.095
86192W        W51672  42.511  37.859   3.693
86193W        W51673  17.721  35.541   3.357
86194W        W51674  18.587  18.257   1.802
86195W        W51675   9.227  16.166  12.539
86196W        W51676  24.089  29.947  10.925
86197W        W51677  24.646  25.054  13.431
86198W        W51678  14.181  32.395   2.301
86199W        W51679  21.068  41.794   3.146
86200W        W51680  38.478   8.870   4.188
86201W        W51681   4.287   2.294  13.442
86202W        W51682  36.029  36.031  11.468
86203W        W51683  19.063  41.968  14.293
86204W        W51684  10.281  26.039   4.312
86205W        W51685   2.294  37.005  12.967
86206W        W51686  10.244  37.444   5.302
86207W        W51687  12.166   1.287  14.938
86208W        W51688  30.954  37.454  14.305
86209W        W51689  33.051   2.864   2.218
86210W        W51690   6.826  10.229   4.620
86211W        W51691  40.965  31.612   0.792
86212W        W51692   7.380  11.151  11.024
86213W        W51693  39.974  24.112   4.816
86214W        W51694  20.566   4.876   3.293
86215W        W51695  18.104  34.998  11.519
86216W        W51696  33.468   6.724  14.877
86217W        W51697  14.205  13.307  13.971
86218W        W51698  10.778  21.254   1.242
86219W        W51699  44.470  37.843   1.891
86220W        W51700  30.009  21.578   1.409
86221W        W51701  21.193  34.055  13.900
86222W        W51702  11.834  39.020   1.438
86223W        W51703  38.965  31.909   1.711
86224W        W51704  37.531  27.677   4.328
86225W        W51705  25.030  39.932   3.231
86226W        W51706  41.948  41.840  12.438
86227W        W51707  23.550  41.489  13.813
86228W        W51708   7.294  39.398   2.891
86229W        W51709  12.162   1.779   0.429
86230W        W51710  20.572   8.251  11.496
86231W        W51711   5.748  21.090   3.865
86232W        W51712  40.964  15.633   3.759
86233W        W51713  24.219  41.874  12.971
86234W        W51714  41.473  27.177   1.305
86235W        W51715  40.982   2.333   0.477
86236W        W51716   2.252  26.557   0.878
86237W        W51717  39.985  40.318  12.414
86238W        W51718  40.457   3.783   9.510
86239W        W51719  25.550  25.649  11.397
86240W        W51720  19.209  32.615  10.596
86241W        W51721  16.571   1.314  14.940
86242W        W51722  11.342  36.533   0.428
86243W        W51723  21.545  38.869  13.823
86244W        W51724   4.814  10.302  10.010
86245W        W51725   8.309  42.923  14.789
86246W        W51726   8.283  39.440   2.178
86247W        W51727  33.614  40.817   1.870
86248W        W51728  16.256   8.277   0.772
86249W        W51729  30.157  43.997   3.695
86250W        W51730  35.515  27.175  13.523
86251W        W51731  16.182  44.760   4.614
86252W        W51732  37.448  26.995   4.354
86253W        W51733  13.626  32.495   2.847
86254W        W51734  36.989  21.661  14.505
86255W        W51735  23.193  37.422   2.398
86256W        W51736  21.107  43.468  13.851
86257W        W51737  37.922  18.062  11.926
86258W        W51738   8.345  11.647  12.997
86259W        W51739  28.982  31.604  12.042
86260W        W51740  18.548  27.461  13.484
86261W        W51741  32.557  17.767   1.738
86262W        W51742  35.100  29.627  14.477
86263W        W51743  38.468  25.091   3.736
86264W        W51744   5.777   8.289  14.802
86265W        W51745  26.481  27.027   0.924
86266W        W51746  11.841  33.520   3.230
86267W        W51747  16.613  29.963   1.812
86268W        W51748  15.787  21.700   5.137
86269W        W51749  34.549   9.211  14.393
86270W        W51750   1.336  11.712  13.792
86271W        W51751  37.413  27.077  12.959
86272W        W51752  23.647  31.914   2.883
86273W        W51753  18.761  27.981  13.962
86274W        W51754  37.371  13.267  13.405
86275W        W51755  16.207  44.863   2.874
86276W        W51756   1.802  43.885  10.640
86277W        W51757  44.384  13.271  12.077
86278W        W51758  36.890  32.973   0.932
86279W        W51759   1.413   7.759  11.926
86280W        W51760   3.407  29.975  14.763
86281W        W51761  33.460  19.254   5.085
86282W        W51762  27.115   0.778   3.720
86283W        W51763  39.894  39.839  12.375
86284W        W51764  10.731   3.936   1.871
86285W        W51765   0.950  43.888   0.933
86286W        W51766  20.618  11.173   3.644
86287W        W51767  42.335  38.560  10.604
86288W        W51768  21.240   3.785   3.746
86289W        W51769  12.779  43.431  14.432
86290W        W51770   1.877  31.060  11.099
86291W        W51771   0.403   3.373  12.450
86292W        W51772  24.600   1.737  14.458
86293W        W51773  43.351  15.216   2.712
86294W        W51774   2.806  10.772   3.358
86295W        W51775  38.470  27.447  10.451
86296W        W51776  36.978  21.110  11.482
86297W        W51777  33.435  14.818  11.599
86298W        W51778  42.494  38.874  13.835
86299W        W51779  38.062  13.837  14.863
86300W        W51780  27.128  16.190   3.855
86301W        W51781  31.437  14.257  12.840
86302W        W51782  14.232  34.968   4.652
86303W        W51783   5.409  12.210   3.695
86304W        W51784  27.091   8.333  12.010
86305W        W51785  23.530  33.047   0.947
86306W        W51786  39.462  36.536  14.412
86307W        W51787  39.406  11.308   2.751
86308W        W51788  16.582  16.652  11.914
86309W        W51789  22.221  43.315   3.681
86310W        W51790  33.068  32.989   1.427
86311W        W51791  39.407   2.853  11.587
86312W        W51792  21.120  26.090  13.486
86313W        W51793  24.506  34.421  12.505
86314W        W51794  37.443  19.217   2.181
86315W        W51795  33.385  23.673  10.978
86316W        W51796   4.838  34.947  14.853
86317W        W51797  44.888  39.808  11.121
86318W        W51798  26.657  15.684  11.859
86319W        W51799  12.321   9.193  10.491
86320W        W51800   2.295  16.629   1.860
86321W        W51801   2.772  14.638   0.757
86322W        W51802  14.776  12.770   3.249
86323W        W51803   6.907  30.524   0.918
86324W        W51804   7.896  34.435   2.224
86325W        W51805  13.743  41.314   3.351
86326W        W51806   7.682  28.121   3.642
86327W        W51807  20.682  21.086  12.929
86328W        W51808  30.568   4.365  12.402
86329W        W51809  12.823   1.359   3.383
86330W        W51810  14.594  35.930  12.949
86331W        W51811  22.174  10.770  14.800
86332W        W51812  32.452  32.977   3.712
86333W        W51813  29.601  30.956   3.847
86334W        W51814  16.129  36.879   0.324
86335W        W51815  29.072  11.681  12.006
86336W        W51816  36.899  36.854   4.179
86337W        W51817  14.654  22.680   2.848
86338W        W51818  17.773  44.875  12.378
86339W        W51819  25.571  34.461   4.721
86340W        W51820  28.534   0.939  14.978
86341W        W51821  24.562  34.026  11.538
86342W        W51822  42.328  41.876   4.297
86343W        W51823  36.482  15.673  14.901
86344W        W51824   5.223  14.710   1.901
86345W        W51825  21.223  41.957  12.083
86346W        W51826  31.501  21.584  14.798
86347W        W51827  10.807  16.598  13.027
86348W        W51828  43.854  19.713   0.430
86349W        W51829   4.837  10.209  10.964
86350W        W51830  10.819  33.489   1.321
86351W        W51831  24.639   2.764  10.430
86352W        W51832  26.201  10.746   2.743
86353W        W51833  32.586  13.118   1.822
86354W        W51834  17.086  44.792  11.058
86355W        W51835  27.682  19.632  13.426
86356W        W51836   4.330   3.738   1.252
86357W        W51837  32.486  16.132  10.913
86358W        W51838  20.767  41.519   0.395
86359W        W51839   5.348  41.029   4.626
86360W        W51840  29.578  24.037   3.266
86361W        W51841  16.084   8.805   3.263
86362W        W51842  28.084  33.579  10.408
86363W        W51843  39.872  31.581  13.347
86364W        W51844  20.145  22.167   1.287
86365W        W51845  15.293  15.719   3.162
86366W        W51846  38.341  37.023  14.941
86367W        W51847  41.935  26.649  12.413
86368W        W51848  27.560  44.995   2.667
86369W        W51849  32.458  40.958   0.407
86370W        W51850  40.340   9.190   1.723
86371W        W51851  12.754  29.022  11.486
86372W        W51852   4.816  18.656   2.813
86373W        W51853  22.745  17.305   2.808
86374W        W51854  32.127  21.651  12.970
86375W        W51855  43.814  29.920  14.823
86376W        W51856  44.817  42.934  12.501
86377W        W51857  13.311  27.994   1.771
86378W        W51858   1.277  18.694   4.664
86379W        W51859   6.882  20.197  11.931
86380W        W51860  38.005  24.586  14.953
86381W        W51861  10.224   9.222  10.408
86382W        W51862  32.470   7.905   2.680
86383W        W51863  29.153  33.995  12.068
86384W        W51864  44.458  15.096   2.717
86385W        W51865  15.741   8.376   3.632
86386W        W51866  14.128   7.184   4.243
86387W        W51867  39.325   4.870  11.475
86388W        W51868  11.693   8.813   4.175
86389W        W51869  34.402  27.645  10.453
86390W        W51870  14.663  17.296   1.875
86391W        W51871  19.071  10.723   0.375
86392W        W51872  17.610  29.498  14.445
86393W        W51873   9.773  35.990   1.829
86394W        W51874  24.120  40.804   4.660
86395W        W51875  13.796  35.498   1.401
86396W        W51876  24.534  35.918   0.411
86397W        W51877  30.601  26.483   2.353
86398W        W51878  15.776  33.476   1.343
86399W        W51879  28.125   0.897   0.926
86400W        W51880  42.523  43.479  13.411
86401W        W51881  29.049  21.138  12.031
86402W        W51882  11.631  31.580   2.302
86403W        W51883  17.154  43.499  11.005
86404W        W51884  24.133  33.577   3.167
86405W        W51885  13.695  22.158  10.946
86406W        W51886  14.109  21.021  12.862
86407W        W51887  37.847  43.462   0.878
86408W        W51888  40.358  39.901   4.272
86409W        W51889  39.399  24.046  12.894
86410W        W51890   6.238  32.452  10.134
86411W        W51891  22.600  20.163   1.727
86412W        W51892  43.823  22.553  14.975
86413W        W51893  28.519  38.474  12.923
86414W        W51894  10.232  38.334   2.418
86415W        W51895  17.622  20.647   1.420
86416W        W51896  42.431  22.542  14.781
86417W        W51897  39.037  27.484  11.984
86418W        W51898   5.301  15.764   3.636
86419W        W51899  26.583  39.936   0.879
86420W        W51900  38.357  40.877  14.798
86421W        W51901  35.510  12.697   2.868
86422W        W51902  31.076   3.328   9.936
86423W        W51903  28.027  31.056  12.354
86424W        W51904  19.230  32.004   1.234
86425W        W51905  23.009  18.646  10.967
86426W        W51906  14.821   7.802   1.806
86427W        W51907   9.679   7.199  12.472
86428W        W51908  42.470  41.013  12.562
86429W        W51909  13.148  25.153   2.366
86430W        W51910  29.069   4.320   0.800
86431W        W51911  40.000  33.955  11.602
86432W        W51912  36.513  28.664   0.320
86433W        W51913  43.802  24.536   4.610
86434W        W51914  26.178  30.547  10.896
86435W        W51915  38.076  12.802  12.999
86436W        W51916  35.407  27.470   4.742
86437W        W51917  21.028   6.720  14.486
86438W        W51918   1.977  12.700   0.826
86439W        W51919  30.976  19.081   3.849
86440W        W51920  19.075  24.588   1.820
86441W        W51921  31.146  16.669   3.778
86442W        W51922  44.781  24.097   0.860
86443W        W51923  40.893   4.779   2.709
86444W        W51924  28.509  12.296  12.975
86445W        W51925  19.162   6.426   4.286
86446W        W51926  22.016   7.817  11.878
86447W        W51927  27.574  26.068  10.563
86448W        W51928  22.558  35.065  14.505
86449W        W51929  20.206  15.688  12.836
86450W        W51930  39.907  40.800  13.025
86451W        W51931  39.555  14.729  10.414
86452W        W51932  21.169   2.260  11.058
86453W        W51933  28.583  13.661  14.387
86454W        W51934   1.252  14.636  12.900
86455W        W51935  20.736  24.092   0.730
86456W        W51936   4.845   0.760  10.424
86457W        W51937  42.309  44.949  13.477
86458W        W51938  26.584   3.216  13.981
86459W        W51939  11.358  42.319  10.969
86460W        W51940  30.161  35.431   3.726
86461W        W51941  29.970  34.881   3.789
86462W        W51942  31.621  34.580  13.931
86463W        W51943  32.617   5.773   4.287
86464W        W51944  22.715  36.360  10.044
86465W        W51945  35.577  23.595  13.528
86466W        W51946  18.226   0.764  10.898
86467W        W51947  26.012   9.837   4.762
86468W        W51948  13.640   9.732  13.025
86469W        W51949  39.514  35.105  11.554
86470W        W51950  30.500  34.457  12.889
86471W        W51951  34.488  38.431  10.980
86472W        W51952  31.619   2.472   1.337
86473W        W51953  27.150  42.949   4.693
86474W        W51954  22.113  37.386   3.665
86475W        W51955  15.200   6.727  12.945
86476W        W51956  22.107  37.397  10.013
86477W        W51957  38.353  42.471  12.841
86478W        W51958  13.841   1.412  11.952
86479W        W51959   8.859  13.323   2.290
86480W        W51960  38.973  41.998   0.828
86481W        W51961  18.688   0.327  10.426
86482W        W51962   0.960  32.589  12.992
86483W        W51963   8.395   8.871  11.894
86484W        W51964  37.352  18.647   4.272
86485W        W51965  37.386  15.316  14.996
86486W        W51966  42.431  31.966   3.372
86487W        W51967  16.125  41.478   3.739
86488W        W51968  36.911   3.297   4.313
86489W        W51969   9.191  29.149   3.214
86490W        W51970  13.222  43.306  12.093
86491W        W51971  31.087  15.800  13.061
86492W        W51972  40.908  20.193  12.491
86493W        W51973  34.457   4.400   3.672
86494W        W51974  39.920   7.699  12.374
86495W        W51975   9.781  33.877  14.405
86496W        W51976  41.497  28.507   1.322
86497W        W51977   5.804  22.719   2.268
86498W        W51978   4.765  31.635   3.367
86499W        W51979   1.480  41.363  10.897
86500W        W51980  43.968  33.480  11.482
86501W        W51981  41.481  37.383  14.485
86502W        W51982   8.194  38.055  11.056
86503W        W51983   6.779  22.538  12.375
86504W        W51984  24.714  31.576  13.390
86505W        W51985  12.854  27.097  10.905
86506W        W51986  27.037  38.382  11.542
86507W        W51987   1.403  12.249  13.934
86508W        W51988  16.626  11.745   2.882
86509W        W51989   3.726  27.446   0.868
86510W        W51990  42.860  28.486  12.367
86511W        W51991  18.118   8.239  13.794
86512W        W51992  13.619   5.341   1.924
86513W        W51993  12.337  44.844   1.884
86514W        W51994  10.856  18.717  13.401
86515W        W51995  40.453  38.505  13.827
86516W        W51996   1.740  13.753  12.019
86517W        W51997  16.236   7.787  12.829
86518W        W51998  14.100   3.269  12.876
86519W        W51999   6.258  11.771   5.201
86520W        W52000  24.091   7.895   3.760
86521W        W52001  31.570   2.833  12.549
86522W        W52002   7.215  40.867  12.378
86523W        W52003  36.434  21.162  13.340
86524W        W52004  31.123  23.237  14.288
86525W        W52005  19.179  20.619   3.677
86526W        W52006  25.587  15.614   4.290
86527W        W52007  19.205   3.437  10.586
86528W        W52008  37.833  35.567  13.994
86529W        W52009  20.532  24.669  11.076
86530W        W52010  32.462  34.934  13.337
86531W        W52011   9.334  10.873  10.909
86532W        W52012   7.677  12.626  13.369
86533W        W52013  23.081  39.550   2.311
86534W        W52014  17.085  43.956  14.434
86535W        W52015  33.531  27.517   2.807
86536W        W52016  27.495  26.505  11.007
86537W        W52017  17.150  22.047   3.180
86538W        W52018   4.209   1.283   4.187
86539W        W52019   1.310   4.717   3.344
86540W        W52020  28.459  10.236   1.236
86541W        W52021  25.044   6.397   2.708
86542W        W52022   8.394  29.160  13.863
86543W        W52023  15.091  25.667   3.177
86544W        W52024  26.003  11.764   4.288
86545W        W52025   8.248  31.520  10.965
86546W        W52026  32.625  31.456  11.496
86547W        W52027  19.704  43.001  13.824
86548W        W52028  39.976  30.987   1.369
86549W        W52029  15.174  41.325  14.290
86550W        W52030  23.182  33.463   3.378
86551W        W52031  40.814  26.061   0.902
86552W        W52032   6.774  19.189  10.924
86553W        W52033  21.744  23.584   4.177
86554W        W52034  12.359  38.421   3.674
86555W        W52035  11.137  29.452   0.244
86556W        W52036  27.113  26.589   3.843
86557W        W52037  25.619   6.283  11.475
86558W        W52038  27.163  25.713   1.800
86559W        W52039   8.356  18.170  12.020
86560W        W52040  30.435  28.055   0.387
86561W        W52041  38.969  15.781  11.918
86562W        W52042   0.779   8.242   2.783
86563W        W52043  12.271  20.727  12.944
86564W        W52044  32.557  26.533  12.403
86565W        W52045  37.519  28.604   3.265
86566W        W52046   6.852   2.942  13.794
86567W        W52047  37.938  24.596   1.427
86568W        W52048  42.875   3.827   1.761
86569W        W52049   6.922  30.952  13.478
86570W        W52050  24.159  27.098   4.821
86571W        W52051  17.733  27.985  14.765
86572W        W52052  34.501   1.357   2.684
86573W        W52053  15.729  28.439   1.401
86574W        W52054   0.324  23.620  12.895
86575W        W52055   2.795   2.759   4.288
86576W        W52056  25.487  22.538   1.238
86577W        W52057  35.081   8.669  13.027
86578W        W52058  35.481  12.714  14.911
86579W        W52059  30.069  14.306   1.819
86580W        W52060  27.133  43.381   2.388
86581W        W52061  14.106  42.437   0.247
86582W        W52062  33.920  33.433  12.996
86583W        W52063  15.316  10.213  11.604
86584W        W52064   2.879  34.999   1.863
86585W        W52065   0.302   6.384   1.738
86586W        W52066  36.514   5.246   3.234
86587W        W52067  25.204   7.787  11.923
86588W        W52068   2.965  36.851   0.933
86589W        W52069  20.606   7.303   9.635
86590W        W52070  27.084  39.004   0.477
86591W        W52071  23.202  37.077   4.829
86592W        W52072  16.608  26.470   3.289
86593W        W52073  14.126  41.849   9.964
86594W        W52074   0.477  13.762  13.036
86595W        W52075  36.947  22.998   2.735
86596W        W52076  14.664   9.756   0.343
86597W        W52077  28.130  28.081  13.025
86598W        W52078   3.739  25.026   1.800
86599W        W52079  41.942   1.444   2.204
86600W        W52080  16.681   3.887  12.497
86601W        W52081   1.940   2.331   1.791
86602W        W52082  29.664  26.529  13.884
86603W        W52083  20.055  21.654   1.745
86604W        W52084  17.070  13.231  12.876
86605W        W52085   1.360  28.543  14.870
86606W        W52086  31.435  10.329  11.943
86607W        W52087  17.178  23.586   1.428
86608W        W52088  32.442   8.298   0.396
86609W        W52089   9.693   6.722   4.757
86610W        W52090   4.387  14.281  10.404
86611W        W52091  15.730  11.795   2.416
86612W        W52092   5.245  38.332  13.792
86613W        W52093   0.419  20.162  14.769
86614W        W52094  10.245   4.242  11.076
86615W        W52095  31.153  22.670   1.809
86616W        W52096  39.939   7.868   4.666
86617W        W52097  13.806  32.530  14.832
86618W        W52098  39.820   6.892  12.046
86619W        W52099  28.028  38.872   3.631
86620W        W52100  23.120  13.738   3.798
86621W        W52101  38.064  28.937  12.547
86622W        W52102  16.738   4.228  11.913
86623W        W52103  21.215   1.790  12.032
86624W        W52104  38.539   5.746   0.286
86625W        W52105  22.621  28.052   2.841
86626W        W52106  20.661   9.346  12.980
86627W        W52107  39.529  37.965  14.461
86628W        W52108  18.644  31.996   1.363
86629W        W52109  43.428  19.767   4.304
86630W        W52110  17.668  23.124  14.510
86631W        W52111  28.083  13.235  12.510
86632W        W52112  16.643   4.712   1.736
86633W        W52113   8.777  29.146   0.792
86634W        W52114  10.193   9.824   9.961
86635W        W52115   2.425  14.271  10.135
86636W        W52116  40.416  33.921  10.975
86637W        W52117   7.683  22.538  13.409
86638W        W52118   5.728   8.757  13.500
86639W        W52119  32.469  33.976   1.828
86640W        W52120   3.842  39.444   2.728
86641W        W52121   8.772   3.324  14.323
86642W        W52122   4.359  44.330  14.331
86643W        W52123  28.073  31.979  12.989
86644W        W52124  34.369   5.803  13.948
86645W        W52125  26.672  13.324   2.694
86646W        W52126  36.901  26.977  10.571
86647W        W52127   1.912  26.540  12.956
86648W        W52128  43.010   0.304   4.649
86649W        W52129  42.525  16.186  13.944
86650W        W52130   9.395  27.683  14.307
86651W        W52131  44.283  29.943  11.582
86652W        W52132  36.455  33.575  14.316
86653W        W52133  39.491  24.543   2.192
86654W        W52134  29.463  37.458   1.246
86655W        W52135   4.930   7.688  11.920
86656W        W52136   6.762  13.291  13.803
86657W        W52137  38.979  10.259  13.493
86658W        W52138   6.370  25.669   3.733
86659W        W52139  24.674   3.842  14.374
86660W        W52140  44.798  18.201   3.817
86661W        W52141  28.571   7.688   3.219
86662W        W52142   0.755   5.741   3.743
86663W        W52143  33.081  33.457  10.466
86664W        W52144  38.337  28.156   3.289
86665W        W52145  33.598  25.538   2.336
86666W        W52146  33.896   1.959   0.906
86667W        W52147  16.103   9.336   4.695
86668W        W52148  31.931  27.990   0.867
86669W        W52149  39.853  38.989  14.318
86670W        W52150  15.137   1.270   2.684
86671W        W52151   9.748   3.234   3.817
86672W        W52152  17.237  38.884  14.984
86673W        W52153  18.167  34.483   0.375
86674W        W52154  26.653   8.848  12.414
86675W        W52155  39.492  31.646   3.170
86676W        W52156  38.361  29.562  14.308
86677W        W52157  31.461   9.650   0.733
86678W        W52158  27.516  29.957  14.793
86679W        W52159   0.482   3.301   3.249
86680W        W52160  26.484   8.774   0.771
86681W        W52161  13.318  17.282  13.025
86682W        W52162   9.198   7.687  14.365
86683W        W52163   5.227  37.338  13.529
86684W        W52164   0.957  22.089   2.220
86685W        W52165  24.692  25.219   2.761
86686W        W52166  24.001   5.696  10.452
86687W        W52167  27.634  18.168  11.106
86688W        W52168  12.124  30.459   3.669
86689W        W52169   8.368  25.148  14.367
86690W        W52170  33.091  28.174   0.726
86691W        W52171   3.222  14.643  12.408
86692W        W52172  25.615  24.651  14.473
86693W        W52173  40.891  32.130   2.702
86694W        W52174   1.436  34.112  12.982
86695W        W52175  32.136  34.524  13.802
86696W        W52176  36.087  42.997   4.249
86697W        W52177   9.264  24.553  12.985
86698W        W52178  16.794  19.170  12.075
86699W        W52179   2.359  27.085  13.537
86700W        W52180  21.230  42.388  12.973
86701W        W52181  19.062  38.342  13.884
86702W        W52182  27.086  37.940  11.038
86703W        W52183  12.171   3.442   2.800
86704W        W52184  43.475  29.115  14.860
86705W        W52185  17.607   5.338  11.480
86706W        W52186  40.868  20.085   2.760
86707W        W52187  38.897  20.029  12.567
86708W        W52188  29.039  10.216   3.759
86709W        W52189  32.560  25.624   2.898
86710W        W52190  43.967  16.588   0.754
86711W        W52191  32.583  22.640  13.429
86712W        W52192  29.073   3.244   5.255
86713W        W52193  39.528  42.848  12.878
86714W        W52194   9.736   9.813   1.762
86715W        W52195  38.522   5.912   2.827
86716W        W52196   4.938  24.124   1.233
86717W        W52197  16.315  40.975  13.058
86718W        W52198  38.907  32.034   3.677
86719W        W52199  32.041  11.705   0.913
86720W        W52200  29.607   6.227  12.482
86721W        W52201  30.046  30.985   2.874
86722W        W52202  10.377  25.119  14.931
86723W        W52203  29.100  36.375  12.959
86724W        W52204  29.171  32.469  14.767
86725W        W52205  29.659  29.588   3.338
86726W        W52206  31.998   4.302   3.204
86727W        W52207  34.889  17.711   2.752
86728W        W52208  16.244  27.586  13.047
86729W        W52209  34.519  33.962  12.972
86730W        W52210  36.875  16.091  10.570
86731W        W52211  38.954  10.205  12.442
86732W        W52212   7.858  35.455   2.332
86733W        W52213   9.338  20.044  11.381
86734W        W52214  23.996  14.296  13.407
86735W        W52215   8.730  22.081   3.291
86736W        W52216  23.127  14.209   4.314
86737W        W52217   0.346  11.832   4.703
86738W        W52218  17.122  31.577   1.251
86739W        W52219  35.451  34.441   1.290
86740W        W52220  27.151  24.067  10.426
86741W        W52221  10.782  29.945   3.792
86742W        W52222   0.444  32.138  12.895
86743W        W52223  42.465  12.234  13.831
86744W        W52224  22.502  31.935   3.632
86745W        W52225  15.205  29.612   4.297
86746W        W52226  29.557  32.013  14.923
86747W        W52227   6.900   0.976  11.538
86748W        W52228   0.846   2.318  14.922
86749W        W52229  42.471  28.984  13.364
86750W        W52230  17.669  10.701  13.872
86751W        W52231  39.888   5.726   0.398
86752W        W52232   8.758  34.902  14.459
86753W        W52233  33.948  42.329   4.734
86754W        W52234  10.764  16.673  11.409
86755W        W52235  33.076  20.118   2.877
86756W        W52236  23.642  17.127   4.737
86757W        W52237  18.098   0.324   4.182
86758W        W52238  16.164  28.536  11.917
86759W        W52239  32.891  28.098   1.779
86760W        W52240   6.344  14.114  13.494
86761W        W52241  19.266  27.513   3.794
86762W        W52242  32.488  32.637   1.229
86763W        W52243  24.617  38.416  11.867
86764W        W52244   7.833  23.576  11.901
86765W        W52245  10.311  43.370  12.041
86766W        W52246  35.561  26.041  14.865
86767W        W52247   2.963  19.221  11.046
86768W        W52248   7.823  14.217   2.786
86769W        W52249  40.926  34.006  14.326
86770W        W52250  43.321  17.706  14.363
86771W        W52251  26.960  42.935  13.007
86772W        W52252  20.157   6.808   3.284
86773W        W52253  16.652  23.632   1.858
86774W        W52254   8.227  24.209  12.532
86775W        W52255  24.212  21.578  14.989
86776W        W52256   9.869  32.025  10.481
86777W        W52257   5.799  41.041  12.451
86778W        W52258  36.994  38.433  14.500
86779W        W52259  26.462   9.159   3.176
86780W        W52260  23.196   4.933  14.302
86781W        W52261  15.128  26.074   1.733
86782W        W52262  42.388  20.626  14.905
86783W        W52263  35.870  16.699  10.586
86784W        W52264  17.114  27.563  11.438
86785W        W52265   4.844  11.692  14.997
86786W        W52266  33.117   9.317  13.420
86787W        W52267  25.675  43.434  12.487
86788W        W52268  31.043   8.870   2.362
86789W        W52269  23.012  13.181  13.529
86790W        W52270   2.920   0.799   1.855
86791W        W52271  38.506  17.160  11.021
86792W        W52272  34.558  25.484  13.000
86793W        W52273   8.379  44.762   4.808
86794W        W52274   9.818  42.998   2.310
86795W        W52275  23.619  25.638  13.908
86796W        W52276  16.719  16.265  13.379
86797W        W52277   0.388  11.249  13.995
86798W        W52278   6.407  27.505   2.867
86799W        W52279   5.438  41.439   0.940
86800W        W52280  27.577  26.618   0.935
86801W        W52281  33.575  37.842   3.659
86802W        W52282  14.272  29.486  11.545
86803W        W52283  17.704  19.212   4.682
86804W        W52284  11.789  14.756  12.478
86805W        W52285  25.965   3.430  11.986
86806W        W52286  12.227  41.399  14.312
86807W        W52287  22.534  36.422  11.913
86808W        W52288  40.977  37.067   0.471
86809W        W52289   1.957   7.210   2.865
86810W        W52290  34.104  32.098  14.918
86811W        W52291  44.011  22.689   0.365
86812W        W52292  26.497   4.329  12.079
86813W        W52293   9.187  25.187   1.707
86814W        W52294  18.762  26.053   0.453
86815W        W52295  20.668  35.930  11.108
86816W        W52296  18.786  18.728  12.361
86817W        W52297  22.680  18.153   3.319
86818W        W52298  14.779  17.188   3.253
86819W        W52299  23.632  27.491   3.716
86820W        W52300  44.843  36.049  10.531
86821W        W52301  27.971  26.675   0.791
86822W        W52302  13.710   2.876   0.946
86823W        W52303  37.425  41.517  11.393
86824W        W52304  39.970   2.958  12.510
86825W        W52305  12.756  18.609  11.088
86826W        W52306  11.185  31.080   4.314
86827W        W52307  41.445  19.066   3.264
86828W        W52308   0.771  24.228   3.196
86829W        W52309  11.289  44.880  12.424
86830W        W52310  26.664  35.550   0.348
86831W        W52311  18.222  42.367   3.768
86832W        W52312  34.590  44.933   1.710
86833W        W52313  25.714  41.537  13.839
86834W        W52314  13.836  20.544   2.376
86835W        W52315  15.601  17.768   0.294
86836W        W52316  18.094  11.213   4.144
86837W        W52317  30.967   6.892   2.667
86838W        W52318  36.923  11.278   0.251
86839W        W52319  29.654  24.599  14.794
86840W        W52320  19.621  40.536   1.930
86841W        W52321  17.725   6.810   1.424
86842W        W52322  12.120   2.939  13.816
86843W        W52323  19.682  26.009  14.858
86844W        W52324   6.872  36.041  14.803
86845W        W52325  22.098   1.791   0.454
86846W        W52326  22.186   0.795  11.512
86847W        W52327  42.469   5.833  13.470
86848W        W52328  30.457  26.661   3.715
86849W        W52329  37.346   5.825   0.728
86850W        W52330   5.258  26.109  11.076
86851W        W52331  12.362   5.376  14.358
86852W        W52332   3.379   9.349   5.321
86853W        W52333  32.974  16.262  14.992
86854W        W52334  36.047  15.112  11.020
86855W        W52335  36.379  34.441   0.768
86856W        W52336  30.633  26.059   1.295
86857W        W52337  22.531   4.365  13.811
86858W        W52338   6.728  32.931   1.249
86859W        W52339   5.367  36.967  11.530
86860W        W52340   5.874  10.691   1.827
86861W        W52341  12.137  20.246  11.019
86862W        W52342  32.466  35.599  10.942
86863W        W52343  19.171  35.029  14.919
86864W        W52344  40.409  25.569  10.987
86865W        W52345  29.441  22.686   4.347
86866W        W52346  43.886   1.828   1.797
86867W        W52347  27.068  23.050  14.317
86868W        W52348  32.482  17.182   2.673
86869W        W52349  21.633   0.419   0.455
86870W        W52350  39.827   1.402  11.549
86871W        W52351  35.025  37.494  14.365
86872W        W52352  28.515  16.575   1.896
86873W        W52353  21.193   5.840   4.292
86874W        W52354  11.336  14.733  13.041
86875W        W52355  13.122  18.209  12.027
86876W        W52356  18.058  24.055   2.261
86877W        W52357   9.246   8.397   2.278
86878W        W52358  26.108   6.371   1.729
86879W        W52359  37.355  25.695   3.165
86880W        W52360  35.481   4.927  13.498
86881W        W52361  39.356  15.699   1.830
86882W        W52362  33.090  44.816   0.733
86883W        W52363   6.256   4.942  10.893
86884W        W52364  39.929  40.422  13.450
86885W        W52365  36.578  12.690  12.929
86886W        W52366   0.979   5.276  14.969
86887W        W52367  43.973   6.849   3.283
86888W        W52368   7.672   0.979   3.181
86889W        W52369   9.269  25.559  14.808
86890W        W52370   3.377  34.923  11.568
86891W        W52371  24.614   7.227  13.442
86892W        W52372  27.539  13.267  10.576
86893W        W52373  10.868  10.807  12.007
86894W        W52374  41.516  22.500  11.504
86895W        W52375  14.106  11.838  12.411
86896W        W52376  44.358   2.721  12.558
86897W        W52377  35.602   1.977   0.860
86898W        W52378   6.407  13.106   1.834
86899W        W52379  13.825  43.785  11.599
86900W        W52380  22.539   9.877   3.706
86901W        W52381   7.809  16.302   2.202
86902W        W52382  29.954  10.284   2.857
86903W        W52383  26.061  13.204  14.281
86904W        W52384   5.272  24.602  11.079
86905W        W52385  17.669   0.839   4.774
86906W        W52386  30.146  28.588   1.738
86907W        W52387   3.381   5.334  10.623
86908W        W52388  27.110   0.331   1.908
86909W        W52389  30.425  14.788   4.743
86910W        W52390  33.095  40.508   0.854
86911W        W52391  22.159   1.373  12.454
86912W        W52392  23.675  36.492   3.866
86913W        W52393   6.363  32.031  14.483
86914W        W52394  24.017   4.308   1.783
86915W        W52395  42.405  15.677   0.842
86916W        W52396  20.256  13.134   2.741
86917W        W52397   6.405  24.593   2.820
86918W        W52398  31.990   0.333  12.351
86919W        W52399  17.232   3.806   3.369
86920W        W52400  37.900  32.112   0.956
86921W        W52401  20.677   3.842   4.330
86922W        W52402  32.105  37.506  10.918
86923W        W52403  33.090   6.282  11.513
86924W        W52404  31.513  37.558  13.815
86925W        W52405  44.425  27.478  10.054
86926W        W52406  39.024  12.333  10.564
86927W        W52407  29.653  26.009  11.995
86928W        W52408  36.076  28.478   4.646
86929W        W52409  35.031  13.232   3.678
86930W        W52410  11.834  32.990  13.038
86931W        W52411   7.352  27.181  13.512
86932W        W52412   7.709   0.815  14.013
86933W        W52413   8.342  11.262   4.149
86934W        W52414  25.178  34.526   2.315
86935W        W52415  39.880   0.362   3.360
86936W        W52416  12.669  10.219  13.387
86937W        W52417  20.035  22.541   3.767
86938W        W52418  13.144   0.921  13.428
86939W        W52419  12.137  36.579   4.663
86940W        W52420  26.057  32.469   3.190
86941W        W52421  10.878   8.293   0.924
86942W        W52422   8.245  38.508   1.369
86943W        W52423   8.794   9.344  11.533
86944W        W52424  10.729  14.326   2.822
86945W        W52425  40.873  17.065   1.885
86946W        W52426  31.978  42.516  14.463
86947W        W52427  19.543  44.913   9.998
86948W        W52428  29.971  12.264   4.623
86949W        W52429  39.515  24.041   1.347
86950W        W52430  28.436  25.578  14.774
86951W        W52431  22.027  30.953   2.207
86952W        W52432   3.790   3.755   1.831
86953W        W52433  31.637  20.174  14.933
86954W        W52434  16.153  38.523  14.818
86955W        W52435  21.607  25.107   1.780
86956W        W52436   1.302  36.085  12.547
86957W        W52437  26.047  18.185  10.635
86958W        W52438  29.491  16.252   2.280
86959W        W52439  12.189  25.990  14.829
86960W        W52440  13.340  33.590  14.438
86961W        W52441  17.189   1.385   0.391
86962W        W52442  17.792  40.024  11.915
86963W        W52443  40.930  15.089  12.438
86964W        W52444  15.207  35.105   1.864
86965W        W52445  10.208  25.187   1.259
86966W        W52446   4.231  42.307   2.769
86967W        W52447  33.920   5.424   1.849
86968W        W52448  12.134  12.323  12.446
86969W        W52449  24.722   3.342  13.906
86970W        W52450  39.525   0.806  11.006
86971W        W52451   2.859  32.396  12.908
86972W        W52452  16.222  38.556   2.327
86973W        W52453  24.986   2.782   0.376
86974W        W52454  14.834   6.428   0.817
86975W        W52455  12.823   4.433  14.356
86976W        W52456  37.962  33.549   2.306
86977W        W52457  20.632   5.272  14.402
86978W        W52458  43.927  16.661   0.422
86979W        W52459  40.971   3.876   3.313
86980W        W52460  19.129  12.679  14.440
86981W        W52461  18.545  40.400  14.938
86982W        W52462  30.096   3.411  10.902
86983W        W52463   4.853  31.558   2.339
86984W        W52464  21.522  17.285  10.994
86985W        W52465  27.607   4.805   1.798
86986W        W52466  21.150   1.976  12.505
86987W        W52467  40.529  34.493   1.347
86988W        W52468  19.639   9.770   1.225
86989W        W52469  18.293  37.003  13.431
86990W        W52470  15.259  19.632  12.467
86991W        W52471   0.843  10.868  13.886
86992W        W52472  31.936  41.982   2.206
86993W        W52473   3.848  23.136   2.386
86994W        W52474  34.545  30.016   1.783
86995W        W52475   1.460  39.821   1.750
86996W        W52476   0.367  32.100  13.538
86997W        W52477  32.011   3.412  10.435
86998W        W52478  42.930  37.858   5.193
86999W        W52479   9.218  42.290   3.367
87000W        W52480   0.923  27.978  13.389
87001W        W52481   0.315  22.635   4.126
87002W        W52482  35.938  13.232   1.740
87003W        W52483  43.417  24.622  12.058
87004W        W52484  41.515  19.165   0.863
87005W        W52485   4.704  15.171  14.976
87006W        W52486  19.045  33.380   4.166
87007W        W52487  33.890   9.875  10.918
87008W        W52488  34.580  20.743  12.473
87009W        W52489  17.161  29.468  11.551
87010W        W52490  11.347  22.694   2.818
87011W        W52491  34.467  23.042   0.784
87012W        W52492  16.724  36.440   3.321
87013W        W52493  12.169  41.872   4.316
87014W        W52494  22.134  24.043   3.759
87015W        W52495  35.884  23.156   4.800
87016W        W52496  20.120  35.550  10.405
87017W        W52497  42.472  25.491  12.037
87018W        W52498  10.826  36.591  13.366
87019W        W52499   3.217  15.094  14.426
87020W        W52500   5.384  24.551   3.665
87021W        W52501  25.595  33.580  14.906
87022W        W52502   8.196  21.130  13.896
87023W        W52503  43.895  16.180   3.669
87024W        W52504  21.724  10.749  10.951
87025W        W52505  28.182  35.967   0.953
87026W        W52506  19.245  28.128   5.574
87027W        W52507  37.567  29.625  11.434
87028W        W52508   4.267  26.098   2.276
87029W        W52509  16.250  34.102   3.380
87030W        W52510  31.406  17.605   0.811
87031W        W52511  17.713   6.698  14.372
87032W        W52512  28.627  42.877   1.338
87033W        W52513  36.869  18.221  13.941
87034W        W52514  24.180  37.437   3.299
87035W        W52515  13.783  11.351  13.912
87036W        W52516  22.062   2.911  12.970
87037W        W52517   2.963  32.990  13.341
87038W        W52518  43.291   0.349  10.944
87039W        W52519  35.536  44.397   3.367
87040W        W52520  31.899  28.048  14.353
87041W        W52521  11.684   0.773   4.170
87042W        W52522  25.992   0.381   1.317
87043W        W52523  27.613  41.296  13.314
87044W        W52524   3.224  17.257  13.934
87045W        W52525  32.452  30.083  11.860
87046W        W52526  15.246  21.248  12.485
87047W        W52527  43.282   2.959   3.220
87048W        W52528  35.035  36.403   2.794
87049W        W52529  15.792  26.077  13.800
87050W        W52530  22.131  11.229   2.709
87051W        W52531   1.415  27.104   3.171
87052W        W52532   3.747  30.022  10.511
87053W        W52533  37.526  38.926   2.265
87054W        W52534  31.116  13.739   4.339
87055W        W52535  32.128  42.410   4.194
87056W        W52536   8.687  15.724   0.762
87057W        W52537  27.637  44.337   3.226
87058W        W52538  35.385  40.014   2.313
87059W        W52539  33.591   2.273   0.356
87060W        W52540  12.208   2.317   3.214
87061W        W52541  41.887  39.970   2.294
87062W        W52542  27.083  32.135   3.815
87063W        W52543  27.624  10.214   3.726
87064W        W52544  38.044  18.229   4.650
87065W        W52545  38.902  34.466   1.332
87066W        W52546  39.426  34.018   2.807
87067W        W52547  14.826   0.418  12.968
87068W        W52548  40.880  36.430   2.417
87069W        W52549  36.439  37.848  11.552
87070W        W52550  32.445   5.313   4.299
87071W        W52551  17.659  41.378  12.964
87072W        W52552  24.087  43.335  11.557
87073W        W52553  33.541  31.149   3.736
87074W        W52554  20.212  43.442   2.185
87075W        W52555  43.919  38.565   0.455
87076W        W52556  31.916  42.784  11.474
87077W        W52557  12.308  24.126   2.297
87078W        W52558   8.258  28.061  13.875
87079W        W52559  27.146  19.136   3.677
87080W        W52560  30.134  38.519  13.939
87081W        W52561  20.242  19.039  12.970
87082W        W52562  34.370  42.453   0.450
87083W        W52563  18.576  10.174   9.965
87084W        W52564   6.818  23.555  10.475
87085W        W52565  22.166  37.864  12.889
87086W        W52566   9.751  10.872   4.606
87087W        W52567  11.802  36.468   2.412
87088W        W52568  29.111   3.902  10.501
87089W        W52569  18.069  20.253  13.347
87090W        W52570  41.407  25.665   3.726
87091W        W52571  40.919   4.911   3.740
87092W        W52572  36.941  44.832  13.990
87093W        W52573  31.960  16.666  11.427
87094W        W52574  18.280  32.092  12.040
87095W        W52575  41.809  21.603   2.328
87096W        W52576   0.266  44.480   4.156
87097W        W52577  39.556  42.361  12.388
87098W        W52578   5.896  31.439   3.338
87099W        W52579  42.824  12.851   3.193
87100W        W52580   9.358  18.151   0.295
87101W        W52581  40.449  20.148   3.233
87102W        W52582  18.663  29.017   4.200
87103W        W52583  14.631   9.875  10.485
87104W        W52584  12.635  23.165   3.769
87105W        W52585  44.426  11.283   3.285
87106W        W52586  35.105   6.679  11.505
87107W        W52587  26.128  39.957  14.343
87108W        W52588  13.845  34.554  11.030
87109W        W52589  40.433   7.781   0.871
87110W        W52590   1.930  30.128   2.747
87111W        W52591  25.639  13.830   4.636
87112W        W52592  38.998  10.729   3.670
87113W        W52593  42.928   0.278  10.949
87114W        W52594   7.724  18.267  14.989
87115W        W52595  10.720  25.477   0.372
87116W        W52596  15.315  40.021  14.359
87117W        W52597  17.776  17.747   3.737
87118W        W52598  33.505  16.745   2.889
87119W        W52599   7.191  31.118   3.771
87120W        W52600   7.290  27.018   0.403
87121W        W52601  42.882  12.798   0.905
87122W        W52602  39.502  17.307  12.460
87123W        W52603  37.434  17.276  13.908
87124W        W52604   5.216  41.856  13.389
87125W        W52605  30.575  19.716   2.385
87126W        W52606  19.756  42.994  11.962
87127W        W52607   9.236  26.475  10.588
87128W        W52608  35.495  42.464  13.893
87129W        W52609   2.757  15.694  10.992
87130W        W52610  32.464   5.723   2.700
87131W        W52611  23.577  26.568  12.513
87132W        W52612  18.144  32.997  12.976
87133W        W52613   7.836  20.077  13.344
87134W        W52614  39.828   6.207   3.288
87135W        W52615   9.772   3.895   0.821
87136W        W52616  26.562   9.163  13.382
87137W        W52617  14.186  41.515   4.828
87138W        W52618  32.977  29.997   1.395
87139W        W52619  28.650  32.110   0.447
87140W        W52620  41.512  11.676  11.887
87141W        W52621   6.427   0.283   4.807
87142W        W52622  15.617  18.643   0.250
87143W        W52623   3.946  26.191   3.235
87144W        W52624  31.097  30.911  12.019
87145W        W52625  39.032  21.754  11.555
87146W        W52626  24.085   4.712  10.489
87147W        W52627   6.364   9.311  12.081
87148W        W52628  13.128  13.724   1.267
87149W        W52629   3.717  16.700   1.877
87150W        W52630  17.127  39.529   3.728
87151W        W52631  27.147  17.782  14.439
87152W        W52632   8.170  44.375   0.791
87153W        W52633  17.297  19.106  12.407
87154W        W52634  15.818  16.090   0.317
87155W        W52635  41.947  15.740   2.790
87156W        W52636   7.261  37.462   4.741
87157W        W52637  33.039   7.906  11.981
87158W        W52638   4.732  17.775   0.846
87159W        W52639   2.803  27.002  12.432
87160W        W52640  30.576  41.838   2.721
87161W        W52641  28.645   9.810  11.501
87162W        W52642  12.742  26.566   3.726
87163W        W52643  18.747  26.126   4.691
87164W        W52644  21.599  13.162   3.862
87165W        W52645  29.986  35.451   1.366
87166W        W52646  33.001  44.772   3.248
87167W        W52647   2.361  35.576  13.041
87168W        W52648  33.053   8.776  12.937
87169W        W52649  32.136  33.555  12.844
87170W        W52650   2.347   8.188   0.440
87171W        W52651  37.545  26.484   0.480
87172W        W52652  14.095  42.872   0.904
87173W        W52653  10.174  33.588   3.712
87174W        W52654  33.392  31.148  10.437
87175W        W52655  10.195  39.515   1.212
87176W        W52656  35.572  37.542   4.168
87177W        W52657  16.137  33.050   1.230
87178W        W52658  23.546  22.117  11.453
87179W        W52659  38.990  20.197   2.206
87180W        W52660  16.785  33.532  14.507
87181W        W52661  25.136  44.889   1.295
87182W        W52662  39.558  42.899   4.732
87183W        W52663  33.925  10.761   4.820
87184W        W52664  15.164  17.739  11.896
87185W        W52665  24.118  19.744  14.396
87186W        W52666  22.531  18.237   5.189
87187W        W52667  33.445  39.056   1.884
87188W        W52668  18.252   5.262   1.869
87189W        W52669   5.770   7.190  14.328
87190W        W52670   5.266  40.878  10.475
87191W        W52671  42.352  22.628  13.927
87192W        W52672  32.022  19.213  11.968
87193W        W52673  38.062  31.484   1.353
87194W        W52674   8.738   8.843   2.236
87195W        W52675  30.654  21.050   1.882
87196W        W52676  20.066  15.289  12.388
87197W        W52677   1.933  42.858   0.768
87198W        W52678  33.041  42.471   0.742
87199W        W52679   7.855  12.251   1.427
87200W        W52680  37.534  37.054  14.383
87201W        W52681  38.478  13.123  13.452
87202W        W52682  19.732   6.314  10.504
87203W        W52683  32.490  19.194  12.403
87204W        W52684  37.946  11.840  14.422
87205W        W52685   8.863  17.681  13.871
87206W        W52686  20.189  15.319  13.052
87207W        W52687   4.854   3.812   3.834
87208W        W52688  41.471  21.609  14.497
87209W        W52689   3.754  21.017   1.254
87210W        W52690  20.090  22.563   2.372
87211W        W52691   7.247  24.535   3.171
87212W        W52692  34.511  35.975  12.517
87213W        W52693  17.666  19.183  12.068
87214W        W52694  13.106  26.137   1.352
87215W        W52695  18.597  29.571  11.567
87216W        W52696  44.301  33.929   3.271
87217W        W52697  28.474  38.019   3.331
87218W        W52698  35.955  26.060  11.034
87219W        W52699  13.150   0.439  14.350
87220W        W52700   8.249  24.524  12.352
87221W        W52701   7.853  28.124   1.227
87222W        W52702  40.409   6.799   3.184
87223W        W52703   1.288  31.117   1.376
87224W        W52704   6.200   2.965  14.002
87225W        W52705  38.421  18.099   4.282
87226W        W52706  24.562  25.546   0.815
87227W        W52707  10.159   5.304  13.905
87228W        W52708  31.479  23.089  13.009
87229W        W52709  15.697  42.398  11.437
87230W        W52710   6.212  24.169  14.873
87231W        W52711  14.833   2.236   2.783
87232W        W52712  34.045  37.891  11.437
87233W        W52713  21.204  25.503   3.195
87234W        W52714  14.729  21.079  10.430
87235W        W52715  17.670  35.380  12.915
87236W        W52716  18.188  31.494  12.356
87237W        W52717  21.757   9.230  11.540
87238W        W52718  24.098  11.625   4.175
87239W        W52719  33.403  29.034   2.252
87240W        W52720  40.351  43.880   2.719
87241W        W52721  10.773   5.736   1.766
87242W        W52722  10.169  35.523   0.801
87243W        W52723  13.764  29.018  10.422
87244W        W52724   5.687   0.432  11.855
87245W        W52725  10.687  27.048   1.918
87246W        W52726   0.828  21.259  10.971
87247W        W52727  17.141   3.272   3.660
87248W        W52728  10.692  24.622  12.080
87249W        W52729   1.416  41.926   2.819
87250W        W52730  33.420   7.777   4.652
87251W        W52731  25.980  37.933   4.712
87252W        W52732  10.836  19.621  10.909
87253W        W52733  32.958  24.093   2.179
87254W        W52734  44.474   8.825   0.901
87255W        W52735  24.065  42.482   4.183
87256W        W52736  32.895   8.855   1.928
87257W        W52737  19.064  10.158  14.317
87258W        W52738  22.564  22.130  11.416
87259W        W52739  25.173  18.567   1.415
87260W        W52740  38.403  20.069  10.505
87261W        W52741   5.928  13.644   0.793
87262W        W52742  41.978   8.895   3.377
87263W        W52743   0.487  15.094  11.371
87264W        W52744  16.108  32.413   3.375
87265W        W52745  18.162   2.726   2.299
87266W        W52746  30.083  19.725  11.453
87267W        W52747  19.632  36.379   0.952
87268W        W52748  42.892  22.069  11.053
87269W        W52749  30.442   4.834   1.259
87270W        W52750   8.179  38.899   2.358
87271W        W52751  31.622  19.141   3.818
87272W        W52752   3.437  27.524   4.137
87273W        W52753  12.321  23.645   2.282
87274W        W52754  33.904  33.112   2.747
87275W        W52755  35.043   8.870   5.092
87276W        W52756  17.262   1.308  13.378
87277W        W52757  20.541   8.873  11.594
87278W        W52758   9.759  32.488  10.448
87279W        W52759  28.966   4.364  10.474
87280W        W52760   6.236  13.677  11.888
87281W        W52761  29.170  37.857  14.973
87282W        W52762   8.850  17.180   1.404
87283W        W52763  37.013  38.892   3.212
87284W        W52764  34.469  12.201  12.965
87285W        W52765  24.121  31.498   2.773
87286W        W52766  12.317  36.075   1.432
87287W        W52767  18.755   9.771  14.508
87288W        W52768  41.334  40.852   1.802
87289W        W52769  41.850  33.489   5.171
87290W        W52770  11.745  27.182   2.243
87291W        W52771  12.623  22.510   1.799
87292W        W52772  31.426   0.440  13.521
87293W        W52773  21.698  13.718   3.787
87294W        W52774  38.057  26.073  11.485
87295W        W52775  22.676  18.172  14.803
87296W        W52776   6.381  37.903   3.754
87297W        W52777  24.717  16.095   4.727
87298W        W52778   7.798  43.931  10.447
87299W        W52779  34.016  37.382  10.480
87300W        W52780  14.756  15.323   2.833
87301W        W52781  13.790  33.025  11.077
87302W        W52782  30.007  24.164   3.282
87303W        W52783  38.011  20.553  12.387
87304W        W52784  10.761  27.606  13.894
87305W        W52785  17.588  25.980   2.194
87306W        W52786  29.010  42.478  14.028
87307W        W52787   8.286  36.429   4.762
87308W        W52788  42.982  21.040  14.336
87309W        W52789   1.793   3.369   1.447
87310W        W52790   5.852  11.279   1.439
87311W        W52791  14.733   0.462   4.831
87312W        W52792   3.760  34.958   3.685
87313W        W52793  10.310   4.881  11.611
87314W        W52794  44.292  17.750   2.732
87315W        W52795  42.904  13.155   5.120
87316W        W52796  11.864   6.844   0.309
87317W        W52797  15.140  35.498   2.364
87318W        W52798   3.336  38.413  14.439
87319W        W52799  29.582  33.607   1.909
87320W        W52800  43.823   5.378  14.020
87321W        W52801  39.548  12.764   2.252
87322W        W52802   1.387  42.342   4.791
87323W        W52803  37.984  38.946  10.990
87324W        W52804  29.545  18.728  14.315
87325W        W52805  32.911   7.285  11.990
87326W        W52806   9.862  19.059  12.433
87327W        W52807  34.051  31.058   4.739
87328W        W52808  24.216  37.068  12.575
87329W        W52809  43.909  40.801   4.638
87330W        W52810   7.852   0.915   0.733
87331W        W52811  17.774  20.099   1.845
87332W        W52812  13.651  35.071  14.902
87333W        W52813  41.391  37.354   2.397
87334W        W52814   5.241  22.689   4.621
87335W        W52815  12.233  33.091  14.874
87336W        W52816  16.807  34.485  13.910
87337W        W52817  28.035  19.697  13.823
87338W        W52818   0.831  16.145  12.051
87339W        W52819  15.325  28.559   2.697
87340W        W52820  39.953  36.519   4.222
87341W        W52821  11.197   9.390  14.829
87342W        W52822   9.684  33.103   4.715
87343W        W52823  12.255  40.924  13.343
87344W        W52824  40.405  42.296   0.459
87345W        W52825  44.375  30.493  14.945
87346W        W52826  25.601   4.907  13.925
87347W        W52827   8.333  35.974   2.364
87348W        W52828  17.239  18.587  12.571
87349W        W52829   0.844  19.557  13.814
87350W        W52830  12.656  32.902  10.581
87351W        W52831  35.586   3.381   3.653
87352W        W52832  19.624  34.444   4.328
87353W        W52833  18.612   6.755  14.405
87354W        W52834  25.057   7.780  10.541
87355W        W52835  27.980  34.525  12.014
87356W        W52836   6.824  38.466  13.976
87357W        W52837  34.004  10.778  11.590
87358W        W52838  19.085  23.647  13.833
87359W        W52839  24.549  10.784  11.918
87360W        W52840  40.328  20.586  13.934
87361W        W52841  24.602  39.518   4.286
87362W        W52842   0.981  14.629  10.424
87363W        W52843  11.352  14.609  12.397
87364W        W52844   2.377  37.538  13.407
87365W        W52845  19.769  17.639  14.515
87366W        W52846  37.899  34.583  10.971
87367W        W52847  40.843  17.632  13.938
87368W        W52848  44.995  29.573   4.329
87369W        W52849  42.018  36.582   3.784
87370W        W52850  33.417   1.478   4.775
87371W        W52851  43.496  36.085   3.656
87372W        W52852  40.815  16.186   2.673
87373W        W52853  41.385   8.657   4.230
87374W        W52854   7.881  14.803  12.559
87375W        W52855   5.768  23.638  10.633
87376W        W52856  38.864  31.922  14.446
87377W        W52857   1.344  14.810   0.336
87378W        W52858  35.986  22.685   2.300
87379W        W52859   8.761  36.445   4.286
87380W        W52860   2.811  39.925  12.411
87381W        W52861  10.806  20.588   3.661
87382W        W52862  21.238  42.348   2.778
87383W        W52863  12.807   3.714  14.990
87384W        W52864  42.868  22.719  12.096
87385W        W52865  19.590  10.341   4.329
87386W        W52866  24.167  41.328  11.909
87387W        W52867   3.726  41.033   3.269
87388W        W52868  23.732   6.332  11.047
87389W        W52869  24.696  27.096   0.869
87390W        W52870   3.318   5.716   4.641
87391W        W52871  31.461  13.168   4.603
87392W        W52872  24.991  11.742   0.383
87393W        W52873  24.081  34.379  14.925
87394W        W52874  11.308  16.214   3.167
87395W        W52875  38.388  44.925   2.374
87396W        W52876   8.847   2.834   2.830
87397W        W52877  42.902  10.871   0.889
87398W        W52878  37.014   3.793   3.279
87399W        W52879   1.743   4.347  12.011
87400W        W52880  42.456  11.679  13.883
87401W        W52881  18.778  39.499  12.354
87402W        W52882   3.247  38.923   1.378
87403W        W52883  20.155  31.031   3.187
87404W        W52884  43.388  23.096  13.823
87405W        W52885   1.792   7.356  14.925
87406W        W52886   7.370  13.613  14.863
87407W        W52887  13.295  12.211   3.293
87408W        W52888  21.172  17.261  11.529
87409W        W52889   8.735  21.133   4.267
87410W        W52890   4.218  27.483  12.424
87411W        W52891  20.178  41.462   3.384
87412W        W52892  24.511  31.124   1.700
87413W        W52893  44.787  33.438   0.902
87414W        W52894  20.136  11.330   3.311
87415W        W52895  43.365  30.067   2.268
87416W        W52896  17.221   4.722   0.427
87417W        W52897   1.371  41.923  14.825
87418W        W52898   9.685  37.428   0.354
87419W        W52899  30.090  22.714   4.175
87420W        W52900  34.571  20.230  11.585
87421W        W52901  16.770  35.594  13.452
87422W        W52902  10.355  34.381  10.419
87423W        W52903  44.927  13.615  14.283
87424W        W52904  40.830  40.975  11.377
87425W        W52905   3.793  44.766  10.430
87426W        W52906   8.719  23.631   4.672
87427W        W52907   0.444  17.071   3.863
87428W        W52908  26.154  34.614   4.114
87429W        W52909  15.734   1.483  14.353
87430W        W52910  19.617  40.397  11.382
87431W        W52911  12.776  15.788   0.837
87432W        W52912  41.848   1.764  12.019
87433W        W52913   2.385  40.536  14.976
87434W        W52914  12.302  41.829  11.487
87435W        W52915   0.357  43.928   4.668
87436W        W52916   2.754  43.019  14.430
87437W        W52917  28.120  35.985   2.253
87438W        W52918   6.711  18.669  14.397
87439W        W52919  30.064  34.488  12.937
87440W        W52920  44.974  11.357   3.855
87441W        W52921  18.738  18.137   3.365
87442W        W52922  20.704  11.812  14.403
87443W        W52923  28.018   2.235   1.407
87444W        W52924  43.924  25.099   1.448
87445W        W52925  17.572  28.025  11.544
87446W        W52926  27.572  38.009   1.446
87447W        W52927  43.405  21.602  12.421
87448W        W52928  22.679  27.018  11.063
87449W        W52929  39.975  10.261  13.307
87450W        W52930  24.175   5.775   2.804
87451W        W52931  40.479  16.694   1.752
87452W        W52932   1.306  13.300   2.216
87453W        W52933  26.131  31.600  14.440
87454W        W52934  40.312  15.245  10.631
87455W        W52935  38.444   8.811   2.725
87456W        W52936  27.068  42.493  12.983
87457W        W52937  36.995  17.662  10.640
87458W        W52938  23.151  25.486   4.723
87459W        W52939  18.210  23.512   3.259
87460W        W52940   1.855  40.476   1.842
87461W        W52941  12.276  30.956  10.923
87462W        W52942  35.465  40.860   2.703
87463W        W52943  34.006   6.272   1.434
87464W        W52944  38.840  29.007   4.312
87465W        W52945  30.076  41.523   3.790
87466W        W52946  40.950  21.193  10.140
87467W        W52947  12.257  42.312  12.565
87468W        W52948  41.001  29.592   3.290
87469W        W52949  13.704  14.619  14.018
87470W        W52950  33.495  43.980  10.444
87471W        W52951  18.188  23.549   4.179
87472W        W52952   2.845  16.652   3.759
87473W        W52953   9.171  26.107   4.750
87474W        W52954  37.081  12.264  13.001
87475W        W52955  43.907  38.849   1.746
87476W        W52956  22.157   8.718   3.297
87477W        W52957  10.191  38.936   1.397
87478W        W52958   2.312  10.705   4.318
87479W        W52959  27.941  21.050   4.777
87480W        W52960  11.624  30.027   4.254
87481W        W52961  31.032  24.064  11.601
87482W        W52962  28.060  11.809  12.972
87483W        W52963  28.605  26.572   0.796
87484W        W52964  32.445   0.850   1.761
87485W        W52965   0.793   8.697   0.764
87486W        W52966  29.649  13.824  11.982
87487W        W52967  42.513  43.019   2.756
87488W        W52968  40.874  31.424   1.398
87489W        W52969  20.635  42.911   2.309
87490W        W52970  15.599  34.090   2.226
87491W        W52971   7.708  39.511  10.951
87492W        W52972  44.351  25.550   4.837
87493W        W52973   7.228  19.173  14.357
87494W        W52974  21.516  32.088   1.412
87495W        W52975  14.265  28.066   2.331
87496W        W52976  18.610  27.143  13.896
87497W        W52977   6.307  37.432   0.939
87498W        W52978  44.369  12.817  13.423
87499W        W52979  34.875  30.501  11.450
87500W        W52980   5.848  27.647  11.386
87501W        W52981  43.366   9.337  14.316
87502W        W52982   9.344  39.843  10.115
87503W        W52983  21.111  42.405   3.215
87504W        W52984  18.093   8.197   4.323
87505W        W52985   8.235  19.137  14.859
87506W        W52986  24.029  25.172   0.773
87507W        W52987   7.190  11.801  10.430
87508W        W52988  41.333   4.776   0.343
87509W        W52989  26.465   8.164   4.671
87510W        W52990  44.941  36.421   4.791
87511W        W52991  42.523  30.436  12.835
87512W        W52992  24.605  27.141  13.417
87513W        W52993  40.427  21.575   0.437
87514W        W52994  42.831   4.224   2.346
87515W        W52995  13.113  32.554   0.400
87516W        W52996  26.173  26.623   3.772
87517W        W52997  41.926  12.339  10.911
87518W        W52998  11.302   5.836   0.783
87519W        W52999  24.061  37.409   1.254
87520W        W53000  38.374  18.257   1.332
87521W        W53001  39.025  42.927  10.153
87522W        W53002  26.054  28.163   1.741
87523W        W53003   7.886  38.478  11.043
87524W        W53004  27.134  17.640  10.947
87525W        W53005   8.796  13.111  14.514
87526W        W53006  40.854  19.777  11.101
87527W        W53007   9.155  11.637   0.420
87528W        W53008  14.716  28.506  13.307
87529W        W53009  11.215  25.135  12.927
87530W        W53010   3.316  16.696   4.820
87531W        W53011   2.314  25.639  12.061
87532W        W53012  23.594   7.865  13.015
87533W        W53013   3.238   7.326   0.917
87534W        W53014  21.549  44.859  14.498
87535W        W53015  16.160  28.014   1.230
87536W        W53016  38.384  32.889   1.235
87537W        W53017  26.584  44.402   4.697
87538W        W53018   0.849  25.630  11.979
87539W        W53019  20.755  27.496  10.555
87540W        W53020  39.386  16.608  12.512
87541W        W53021  30.050  31.144  13.500
87542W        W53022  37.541  26.985  13.991
87543W        W53023  31.117  12.344   0.431
87544W        W53024  24.643  43.275  13.517
87545W        W53025  24.484  41.476   2.286
87546W        W53026  42.901  43.426   0.293
87547W        W53027  44.807  43.421  11.382
87548W        W53028  16.776  37.950  14.357
87549W        W53029  11.786  16.271   2.231
87550W        W53030  20.272  20.546   3.739
87551W        W53031  15.681  24.215   3.792
87552W        W53032  18.266  20.522  11.391
87553W        W53033  10.382  36.972  14.011
87554W        W53034  32.126  14.769  13.513
87555W        W53035  23.200  29.153   0.932
87556W        W53036  14.159  20.200  12.978
87557W        W53037  19.702  43.920  14.761
87558W        W53038   8.789  10.339  12.556
87559W        W53039  25.971  13.338   1.351
87560W        W53040   0.268  12.219  12.446
87561W        W53041   7.258  38.566   1.850
87562W        W53042  20.079  39.878  12.850
87563W        W53043  27.518   7.361  12.522
87564W        W53044  13.706  41.533   2.858
87565W        W53045   3.420   1.308   3.236
87566W        W53046  19.269  20.569  11.115
87567W        W53047   9.755  12.692  12.956
87568W        W53048  13.141   8.309  14.303
87569W        W53049  14.626  42.443  12.506
87570W        W53050  43.270  42.505   0.902
87571W        W53051   1.314   5.757   0.781
87572W        W53052  21.030  32.542   4.788
87573W        W53053  16.795  32.025   1.894
87574W        W53054  41.401   9.283  13.357
87575W        W53055  10.259  14.602   3.368
87576W        W53056   0.947  15.736   1.363
87577W        W53057  29.146  39.541  13.918
87578W        W53058  32.496  39.430  14.987
87579W        W53059  30.040  42.432   3.307
87580W        W53060  20.739   4.776  11.098
87581W        W53061   2.891  19.565   0.472
87582W        W53062   9.326  26.070   3.386
87583W        W53063   9.166  22.574   0.804
87584W        W53064  38.457   3.760   3.264
87585W        W53065  42.337   1.811  14.478
87586W        W53066  28.449  28.571  11.012
87587W        W53067  25.124   6.695  13.486
87588W        W53068  12.290  13.784  11.454
87589W        W53069  35.440   0.814  11.388
87590W        W53070   9.255  28.938  12.988
87591W        W53071  37.907  30.499   3.768
87592W        W53072  26.618  39.401  14.282
87593W        W53073  23.518   0.814  13.450
87594W        W53074  40.439  35.445   2.316
87595W        W53075  12.654   6.246   3.256
87596W        W53076  14.176  33.421   1.239
87597W        W53077  34.105  42.460  11.964
87598W        W53078  19.116  24.119  12.854
87599W        W53079  41.809   6.293  12.872
87600W        W53080  29.012  35.405  11.917
87601W        W53081  33.621  12.170   5.309
87602W        W53082  10.751  33.434   0.248
87603W        W53083  41.451   6.875  13.425
87604W        W53084  36.524   7.372  14.289
87605W        W53085  16.811  39.856   4.337
87606W        W53086  23.656  33.581  10.425
87607W        W53087  14.308  41.984   4.149
87608W        W53088   6.790  22.719  11.000
87609W        W53089  23.566  33.028  13.817
87610W        W53090  23.131  10.793   3.154
87611W        W53091  18.166   1.376   3.355
87612W        W53092  27.479  26.572  13.054
87613W        W53093  39.881  25.571  14.926
87614W        W53094  14.737  27.650   2.186
87615W        W53095  27.519  35.893  13.858
87616W        W53096   4.224  36.046  14.428
87617W        W53097   7.225  26.190  12.924
87618W        W53098  40.993  19.131   9.943
87619W        W53099  25.559  41.894  10.638
87620W        W53100  31.513   4.731   1.820
87621W        W53101  14.678  15.612  13.886
87622W        W53102   9.287  27.611   2.836
87623W        W53103   8.268  21.062  11.100
87624W        W53104   1.883  20.104  11.608
87625W        W53105   2.408  31.537  14.275
87626W        W53106  22.012   8.389   2.888
87627W        W53107  20.531  21.552  11.401
87628W        W53108  39.873   4.406   5.799
87629W        W53109  26.031   3.451   2.894
87630W        W53110  21.683  31.900  14.276
87631W        W53111   2.820  30.430   0.810
87632W        W53112  40.406  21.559  10.596
87633W        W53113   1.774  19.649   3.187
87634W        W53114  34.981  24.618  12.964
87635W        W53115  24.578  19.134  13.996
87636W        W53116  42.519  28.484   1.432
87637W        W53117   7.832  36.887   1.710
87638W        W53118  34.573  34.074  11.408
87639W        W53119  38.524  31.002  14.930
87640W        W53120  32.059   3.358  14.360
87641W        W53121  12.856  40.426  12.931
87642W        W53122  35.575  17.260  12.441
87643W        W53123  21.544   8.771   3.213
87644W        W53124   1.453  36.579  14.822
87645W        W53125  10.261  34.527   4.636
87646W        W53126   2.242  10.632  11.513
87647W        W53127   6.815  27.128  10.600
87648W        W53128  41.975   2.365  12.509
87649W        W53129  31.462  13.279   1.919
87650W        W53130  12.795  44.755  10.969
87651W        W53131   7.808  24.142   3.360
87652W        W53132   3.421  41.355  10.974
87653W        W53133  23.146  25.019   1.737
87654W        W53134   0.472  21.728   4.188
87655W        W53135  17.561  13.683   1.700
87656W        W53136  16.152  22.141  10.550
87657W        W53137  35.486  30.530  10.645
87658W        W53138  30.601  31.111   2.713
87659W        W53139  35.581   1.343   0.441
87660W        W53140   1.289  38.914   1.346
87661W        W53141  25.656  23.718  13.029
87662W        W53142  37.531  14.803   5.272
87663W        W53143  38.053  44.936  13.914
87664W        W53144  19.064   7.178  12.379
87665W        W53145  33.034  26.479   0.469
87666W        W53146  23.986   6.867  11.105
87667W        W53147  18.058  27.082   0.342
87668W        W53148  19.713   5.784  14.918
87669W        W53149  30.490  26.115  14.868
87670W        W53150  33.996   9.296  12.039
87671W        W53151  18.058   0.339   2.728
87672W        W53152  29.608  26.115   2.761
87673W        W53153  39.319  29.918  11.592
87674W        W53154  15.778   8.188  12.925
87675W        W53155   3.726  13.698  12.046
87676W        W53156  30.972  44.754  12.358
87677W        W53157  14.669  21.526  11.047
87678W        W53158  12.207  35.451   4.670
87679W        W53159  22.586  14.311  12.568
87680W        W53160  37.403  13.659   1.382
87681W        W53161   0.370   1.363   1.434
87682W        W53162   9.208   3.833   3.160
87683W        W53163   7.236  16.306  10.434
87684W        W53164  33.954   1.777  14.291
87685W        W53165  29.524  37.844  13.851
87686W        W53166  41.892  38.982   0.266
87687W        W53167  34.904  33.547   0.795
87688W        W53168  35.900  24.018  14.865
87689W        W53169  13.236  27.962   5.226
87690W        W53170  32.065  17.225   3.849
87691W        W53171  37.863  42.815  10.623
87692W        W53172  21.215  29.159   4.807
87693W        W53173  43.460   3.216   3.851
87694W        W53174  19.746  34.965   2.703
87695W        W53175  41.402  20.740  14.486
87696W        W53176  26.677  26.566  10.891
87697W        W53177  33.934  34.383   4.134
87698W        W53178  40.846  40.307   3.640
87699W        W53179  36.982  26.630  10.642
87700W        W53180  14.727  44.431   5.205
87701W        W53181  30.152   8.265  12.398
87702W        W53182  37.849   6.255   1.339
87703W        W53183  16.156   7.210   4.330
87704W        W53184  12.668  19.100  10.433
87705W        W53185  11.814  32.505   2.848
87706W        W53186   6.791  19.558  14.786
87707W        W53187   4.389   2.336   1.743
87708W        W53188  15.274  29.495   1.421
87709W        W53189  16.132   0.877   3.748
87710W        W53190  32.623  22.239   0.389
87711W        W53191  31.932  43.341   1.243
87712W        W53192  38.070  43.867  11.401
87713W        W53193  28.457   6.196  14.391
87714W        W53194  31.513   2.851   4.707
87715W        W53195  33.032  41.517  13.835
87716W        W53196  36.489   2.954   1.347
87717W        W53197  13.713  12.232  11.862
87718W        W53198  38.401   4.393   1.748
87719W        W53199  18.282  18.230  14.981
87720W        W53200   8.330  40.901   3.298
87721W        W53201  26.456  35.494   3.176
87722W        W53202  23.130  41.983  13.386
87723W        W53203  17.797  23.046  10.557
87724W        W53204  25.051   6.342   1.222
87725W        W53205   4.869  11.837   2.838
87726W        W53206   8.260   8.204   3.770
87727W        W53207   5.883  37.499  14.924
87728W        W53208  17.216  12.727   1.363
87729W        W53209  12.290   4.741  13.375
87730W        W53210  15.805  39.812  11.461
87731W        W53211  40.917  16.568  13.885
87732W        W53212  38.869  34.936   3.808
87733W        W53213  34.519  43.324   1.433
87734W        W53214  30.125  23.583  13.336
87735W        W53215   4.807  24.226   0.897
87736W        W53216   4.794   1.483   9.926
87737W        W53217   4.757  14.270   5.150
87738W        W53218   8.708  15.206   0.283
87739W        W53219  32.634  22.656  10.584
87740W        W53220  37.437   8.351  12.833
87741W        W53221  38.524  13.792  12.569
87742W        W53222  37.938  44.387  12.472
87743W        W53223   8.850  40.975   3.317
87744W        W53224  33.508  32.392  13.010
87745W        W53225  39.493  40.391   0.427
87746W        W53226  13.758  10.308  14.377
87747W        W53227  15.596  41.037   1.222
87748W        W53228  21.183  13.711   3.325
87749W        W53229  44.351  39.876  11.415
87750W        W53230   0.400  39.892   0.731
87751W        W53231  11.323  20.627  13.010
87752W        W53232  18.057  42.507  10.938
87753W        W53233  10.878  42.779   1.402
87754W        W53234  36.918  17.588  13.367
87755W        W53235  30.051  44.782   3.869
87756W        W53236  41.361  36.913  12.377
87757W        W53237  13.256  43.358  13.009
87758W        W53238  42.300   6.718   2.396
87759W        W53239  33.430  39.897  12.941
87760W        W53240  40.819   8.762   3.745
87761W        W53241  28.945  18.674  12.090
87762W        W53242  39.456  30.990  10.461
87763W        W53243  42.396  12.309   4.700
87764W        W53244  44.846  26.488   4.700
87765W        W53245  17.733  18.773  12.390
87766W        W53246  31.624  13.169   1.425
87767W        W53247   3.756  33.068  14.511
87768W        W53248  41.040  43.850  13.901
87769W        W53249  39.535  25.186   3.237
87770W        W53250   1.328  34.969  11.521
87771W        W53251  33.477  40.313   2.302
87772W        W53252   2.267  23.231   1.349
87773W        W53253  14.142   6.863   0.922
87774W        W53254  29.534  34.380  12.949
87775W        W53255  26.534   8.741   0.312
87776W        W53256  31.529  29.524   2.329
87777W        W53257  11.714  14.195  11.942
87778W        W53258   7.410  35.583   2.750
87779W        W53259   6.845  36.577   2.847
87780W        W53260   9.360  33.392   1.305
87781W        W53261   1.943  44.316  14.788
87782W        W53262  24.654  40.923   1.218
87783W        W53263  15.127   8.302  13.460
87784W        W53264  44.009   4.737   4.667
87785W        W53265  19.146  31.136  13.528
87786W        W53266  42.503  30.978   3.238
87787W        W53267  19.280  21.215   3.305
87788W        W53268   4.304  27.111   0.788
87789W        W53269  28.473   9.680   2.268
87790W        W53270  27.662  33.063  14.799
87791W        W53271   2.842  19.641  14.837
87792W        W53272  30.485  34.603   2.416
87793W        W53273  20.649  44.981  12.539
87794W        W53274  12.661  28.436  13.907
87795W        W53275   7.221  28.995   2.368
87796W        W53276   4.810  20.536   2.798
87797W        W53277  20.730  22.623  10.964
87798W        W53278  32.544   5.899   3.745
87799W        W53279  16.238  15.632  14.837
87800W        W53280  13.772  23.538   0.346
87801W        W53281  42.468  17.624  13.989
87802W        W53282  22.110  14.789   4.224
87803W        W53283  28.628   4.940  12.955
87804W        W53284  24.543  29.626  12.406
87805W        W53285  16.247  19.533  10.969
87806W        W53286   1.914  34.579  12.339
87807W        W53287   0.795   4.851   2.299
87808W        W53288  38.038   3.401  14.415
87809W        W53289  13.767  42.379  12.457
87810W        W53290  41.786  33.499   4.350
87811W        W53291  11.747  13.291   1.305
87812W        W53292  15.719  27.613   4.753
87813W        W53293  26.129  25.594  12.533
87814W        W53294   2.908   3.300  10.480
87815W        W53295  20.540   8.406   3.230
87816W        W53296  25.192   5.279  14.501
87817W        W53297  17.166  32.430   4.166
87818W        W53298  15.255   6.319   0.403
87819W        W53299  23.984  24.689  13.443
87820W        W53300  26.023  21.203   1.711
87821W        W53301  34.517  30.095  13.398
87822W        W53302  13.156  36.510   1.412
87823W        W53303  43.897  37.908  13.405
87824W        W53304  44.402  15.821   0.477
87825W        W53305  30.492  43.772   0.379
87826W        W53306  34.107   4.352  12.576
87827W        W53307  28.523   7.870  12.352
87828W        W53308  18.270  17.185  12.431
87829W        W53309  11.206   0.458  11.460
87830W        W53310  32.075  34.506  13.415
87831W        W53311  29.147  40.027  14.325
87832W        W53312   9.714   9.276   4.126
87833W        W53313  18.647  25.653   5.620
87834W        W53314  27.490  36.441   0.281
87835W        W53315   8.746  11.266   2.821
87836W        W53316  20.076  18.789  11.582
87837W        W53317  41.482  27.632  12.983
87838W        W53318  26.647  24.644   0.805
87839W        W53319  22.567  42.861   1.432
87840W        W53320  14.247  41.418  14.821
87841W        W53321   5.267  13.175  14.001
87842W        W53322  27.611  10.876  13.353
87843W        W53323   1.299   8.339   2.280
87844W        W53324   0.901   1.368   3.751
87845W        W53325  35.381  18.055   0.928
87846W        W53326  11.703   2.431   2.376
87847W        W53327  18.085  12.824   0.292
87848W        W53328  23.231  20.715   1.213
87849W        W53329   8.202  18.615   2.818
87850W        W53330  31.032  30.423   5.081
87851W        W53331  36.389  36.523   1.406
87852W        W53332  37.063  43.992  14.932
87853W        W53333  34.491   8.826  13.901
87854W        W53334   5.748  42.314   1.277
87855W        W53335  33.093  16.306   1.346
87856W        W53336  18.131  33.452  12.009
87857W        W53337   1.422  43.845   2.304
87858W        W53338  11.354  18.607  11.937
87859W        W53339  17.666  29.962  12.528
87860W        W53340  16.650  40.983  13.932
87861W        W53341  34.014  30.557   2.371
87862W        W53342  34.090  24.161  12.350
87863W        W53343  41.815   9.204  11.089
87864W        W53344  13.216   3.436  10.028
87865W        W53345  18.204  44.324   3.819
87866W        W53346  20.578  25.519  11.435
87867W        W53347  13.256  30.590   2.321
87868W        W53348  13.786  18.083   0.413
87869W        W53349  35.398   7.283  14.820
87870W        W53350  16.732  41.851   3.691
87871W        W53351  19.577   4.939   1.830
87872W        W53352  17.256  21.081   4.146
87873W        W53353   8.736  15.192  10.516
87874W        W53354  13.844  43.878   3.184
87875W        W53355   5.911  34.593   4.812
87876W        W53356  19.084  44.283  14.498
87877W        W53357  24.100   7.203  10.551
87878W        W53358  21.098  34.878   0.279
87879W        W53359   7.172  20.745   0.480
87880W        W53360   7.299  40.386   3.705
87881W        W53361  30.972  36.988  14.429
87882W        W53362  22.063  44.430   0.293
87883W        W53363   1.902  37.403  13.534
87884W        W53364  38.551  42.948  12.424
87885W        W53365  25.052  39.817   0.891
87886W        W53366   3.761  12.258  14.027
87887W        W53367  29.988  34.408  11.477
87888W        W53368  36.400  16.270   0.772
87889W        W53369  10.231  32.565   0.278
87890W        W53370  38.058   2.919   1.377
87891W        W53371   9.185  30.630   0.915
87892W        W53372  27.999  26.106   2.881
87893W        W53373  26.066  23.186   4.148
87894W        W53374  41.521  23.606  11.599
87895W        W53375  22.552  18.755   1.706
87896W        W53376  40.508  31.624  14.920
87897W        W53377  19.127   4.356   1.708
87898W        W53378   4.814  27.522   1.921
87899W        W53379  25.064  25.664   0.289
87900W        W53380  38.469  23.600   3.712
87901W        W53381  23.667  22.724   1.715
87902W        W53382  23.160  16.644   4.603
87903W        W53383  16.142  26.638   2.678
87904W        W53384  40.378  15.736  13.902
87905W        W53385  41.920  37.444   2.859
87906W        W53386  32.620  40.030  12.885
87907W        W53387  37.976  28.086  14.351
87908W        W53388  18.708   9.711  12.936
87909W        W53389  40.859  16.282   0.791
87910W        W53390   9.272  19.245  14.470
87911W        W53391  38.507  15.695  13.529
87912W        W53392  32.561  41.846  11.104
87913W        W53393  24.690   9.740   4.616
87914W        W53394  41.533  20.633   3.172
87915W        W53395  22.238   0.790   3.343
87916W        W53396  28.480  44.984  14.762
87917W        W53397  32.103  30.450  10.532
87918W        W53398  43.956  41.337   0.909
87919W        W53399   6.296  18.149   4.214
87920W        W53400  12.225  28.174   2.215
87921W        W53401   5.309  13.636   4.137
87922W        W53402  37.983  39.021   1.446
87923W        W53403  12.817  33.592  14.810
87924W        W53404  28.555   3.943  12.019
87925W        W53405  30.459  13.203  11.527
87926W        W53406  31.126  10.288   3.735
87927W        W53407  15.104  27.011  14.887
87928W        W53408  34.943  15.608  10.403
87929W        W53409  32.494  37.970  10.607
87930W        W53410  24.690   0.834  13.515
87931W        W53411  13.769  23.223  11.440
87932W        W53412  25.636  42.942  11.534
87933W        W53413  11.338  16.283  12.010
87934W        W53414  33.452  15.689   0.254
87935W        W53415  28.018  16.571  13.467
87936W        W53416  23.238  37.948   0.837
87937W        W53417  33.484  14.783  10.090
87938W        W53418  26.566  36.440  11.010
87939W        W53419  25.979  28.568  13.943
87940W        W53420  16.203   7.845  11.463
87941W        W53421  40.040  13.178  11.482
87942W        W53422  19.103  27.054  14.443
87943W        W53423  10.318   0.942  14.280
87944W        W53424  38.893  36.589  13.418
87945W        W53425  33.462  37.450   0.305
87946W        W53426  26.536  32.590  12.021
87947W        W53427  15.107  12.773   0.369
87948W        W53428   8.224   4.901   1.432
87949W        W53429  11.821  11.180  12.377
87950W        W53430  35.560  25.603  11.593
87951W        W53431  37.417  16.662   0.875
87952W        W53432  36.010  36.386   3.786
87953W        W53433  17.597  14.679   3.647
87954W        W53434  42.523  32.595   0.387
87955W        W53435  14.224  12.615  11.875
87956W        W53436  16.243  25.989   3.663
87957W        W53437  13.817   8.361   1.359
87958W        W53438  42.406  23.992   0.770
87959W        W53439  28.069  28.639   3.167
87960W        W53440   0.951  12.621   2.390
87961W        W53441  17.596  22.594   4.174
87962W        W53442  26.025  33.509   1.809
87963W        W53443   6.384  10.253   4.200
87964W        W53444   5.847  38.348  11.095
87965W        W53445   5.879   2.869  13.052
87966W        W53446  28.444   6.307   2.198
87967W        W53447  12.758  24.542   3.801
87968W        W53448  28.152  15.170  11.966
87969W        W53449  43.360  28.145   2.677
87970W        W53450  18.143   9.678  14.500
87971W        W53451  40.534   8.306  13.491
87972W        W53452   4.449  12.284   0.276
87973W        W53453  18.232  21.544   4.660
87974W        W53454  20.182  34.944  13.524
87975W        W53455  31.956  10.258   4.156
87976W        W53456  35.568  25.678  14.960
87977W        W53457   1.476  12.665  13.332
87978W        W53458  40.011  24.489  10.571
87979W        W53459  28.493  38.387  11.586
87980W        W53460  22.602  34.500   0.323
87981W        W53461   5.254   0.806   0.427
87982W        W53462  23.514   3.877   3.747
87983W        W53463  37.864  24.514   4.623
87984W        W53464  17.640  29.619  14.863
87985W        W53465   7.285  22.242   2.281
87986W        W53466  40.434   8.320   1.241
87987W        W53467  37.528  21.037  12.077
87988W        W53468  25.039  12.332  14.779
87989W        W53469  25.520  21.066  11.991
87990W        W53470   0.408  14.624  10.585
87991W        W53471  21.702  41.039   3.749
87992W        W53472  20.036  15.779   2.221
87993W        W53473   7.349  25.677   2.720
87994W        W53474  30.439  34.509  10.526
87995W        W53475  27.190  17.193  13.868
87996W        W53476  24.647  31.454   2.814
87997W        W53477  33.995  44.259   1.267
87998W        W53478  24.071   3.354   0.261
87999W        W53479   0.316  36.915   1.275
88000W        W53480   6.320   3.940  10.992
88001W        W53481  21.620  17.747  11.491
88002W        W53482  20.130  26.024  11.022
88003W        W53483  26.535  17.275  12.447
88004W        W53484   2.308  42.018   0.395
88005W        W53485  20.579  19.058  14.840
88006W        W53486  34.044  25.971   1.261
88007W        W53487  23.589  17.687   0.264
88008W        W53488  44.390  27.019   1.267
88009W        W53489  32.613  10.766   3.809
88010W        W53490  24.134  41.412   3.315
88011W        W53491  42.421  22.590   0.255
88012W        W53492   1.943  11.815  10.523
88013W        W53493  25.158  12.826   1.925
88014W        W53494  38.013  26.540  10.111
88015W        W53495   5.427  36.951   1.332
88016W        W53496  41.444  29.134  14.901
88017W        W53497   6.345  13.609  14.303
88018W        W53498  19.283  31.132   0.268
88019W        W53499  29.975  17.628   2.343
88020W        W53500  14.257  10.742   0.280
88021W        W53501  27.639  25.713   0.297
88022W        W53502  25.021  24.644  10.514
88023W        W53503  43.370  40.907   3.262
88024W        W53504  22.720  25.692   2.767
88025W        W53505  32.440   9.285  11.595
88026W        W53506  43.327  30.640   2.888
88027W        W53507  43.308  35.001  11.897
88028W        W53508  41.484  10.820   4.815
88029W        W53509  43.022  14.231   3.374
88030W        W53510  43.899  25.144  13.441
88031W        W53511  29.079  27.955   4.300
88032W        W53512  25.977  17.679  13.451
88033W        W53513  19.547   7.794  13.948
88034W        W53514  33.430  13.764   0.896
88035W        W53515  10.266   2.856   3.202
88036W        W53516  37.933  13.144  11.384
88037W        W53517  27.983   8.167  12.079
88038W        W53518   6.793  22.711  10.510
88039W        W53519   3.368  30.508   1.699
88040W        W53520   4.941  16.618  13.482
88041W        W53521  36.383  11.255  11.589
88042W        W53522   5.412  36.944   1.902
88043W        W53523  20.046  40.861   0.341
88044W        W53524  44.863   8.297   4.818
88045W        W53525  24.060  38.547  10.585
88046W        W53526   7.313   5.722  12.503
88047W        W53527  28.579  19.612   2.331
88048W        W53528  30.003  26.565  14.496
88049W        W53529  10.384  10.640  11.541
88050W        W53530   4.721  25.185  12.343
88051W        W53531   9.799   5.304  11.872
88052W        W53532  10.299   3.845  11.089
88053W        W53533  40.837   3.786   2.199
88054W        W53534  37.831  13.248  13.453
88055W        W53535  29.138  20.625   2.716
88056W        W53536   7.356  19.172  12.048
88057W        W53537  25.202   5.251   0.798
88058W        W53538  33.088  32.962   4.128
88059W        W53539  12.117   4.912  14.031
88060W        W53540   8.377  17.201   1.223
88061W        W53541   9.272  44.791  13.836
88062W        W53542  40.329   9.769   1.785
88063W        W53543   6.851  23.061  11.983
88064W        W53544  29.155   0.812   0.453
88065W        W53545  19.761  12.840  10.607
88066W        W53546  41.461  32.620  14.467
88067W        W53547  33.579  37.343  14.419
88068W        W53548  25.596  39.419   4.790
88069W        W53549  29.020  43.939   4.683
88070W        W53550  15.745   0.863  12.832
88071W        W53551  12.133   3.894   3.294
88072W        W53552  32.603  20.618  13.924
88073W        W53553  33.617  34.903   3.743
88074W        W53554  38.401  37.554  13.017
88075W        W53555   7.750  29.000   1.727
88076W        W53556  44.322  10.823  10.627
88077W        W53557   1.250  24.690   3.354
88078W        W53558  19.149  38.470   1.934
88079W        W53559  25.174  25.208   1.392
88080W        W53560   4.814  23.588  10.541
88081W        W53561  33.499  10.671   3.311
88082W        W53562  25.217  13.147   1.255
88083W        W53563  14.649  31.143   0.736
88084W        W53564  19.058  12.276   1.395
88085W        W53565  15.295  24.118   4.283
88086W        W53566  32.081  36.579   1.242
88087W        W53567  24.659   9.193   3.682
88088W        W53568   7.356   3.896  14.276
88089W        W53569  27.614  15.170  14.425
88090W        W53570  40.478  15.649  10.978
88091W        W53571   3.754   5.811  11.923
88092W        W53572   4.808  42.887  12.969
88093W        W53573  27.009   8.841  10.528
88094W        W53574  16.141  35.061   1.301
88095W        W53575  35.552  16.635  12.090
88096W        W53576  17.743  16.183   0.275
88097W        W53577  24.027   4.899   3.189
88098W        W53578  42.325   0.752   1.341
88099W        W53579  41.857  31.948  14.328
88100W        W53580  41.000  32.559   3.667
88101W        W53581   8.880   5.759  11.965
88102W        W53582   6.226   0.278  13.967
88103W        W53583  17.114   0.251  13.986
88104W        W53584  23.648   2.746   9.935
88105W        W53585  43.787   7.769   4.267
88106W        W53586  44.766  12.629   3.700
88107W        W53587  27.017   9.369  11.057
88108W        W53588   3.758  10.763  11.584
88109W        W53589  13.108  22.718  12.009
88110W        W53590  12.181   8.332  10.897
88111W        W53591  26.954  18.630   3.195
88112W        W53592  41.884  39.994  10.426
88113W        W53593  16.113  33.962  14.820
88114W        W53594  14.299   8.172   2.404
88115W        W53595   9.808  40.038  10.591
88116W        W53596  14.194  18.276   4.122
88117W        W53597  39.811  12.117   0.256
88118W        W53598  31.616  35.030  11.003
88119W        W53599  41.446   5.204   1.725
88120W        W53600  14.168   1.898   1.741
88121W        W53601   9.336   1.463  13.316
88122W        W53602  17.657   2.395  14.974
88123W        W53603   0.266  10.291   1.817
88124W        W53604   6.270  43.845   1.750
88125W        W53605  18.205   5.439  13.493
88126W        W53606  29.457  27.543   2.341
88127W        W53607   3.954  14.131   0.423
88128W        W53608  40.810  33.463  10.897
88129W        W53609  29.580  15.309  11.026
88130W        W53610  14.331   4.943   2.283
88131W        W53611   5.256   8.783   2.219
88132W        W53612  18.560  29.167  10.623
88133W        W53613   2.319  41.863  11.078
88134W        W53614  22.741  27.646   4.131
88135W        W53615  37.523  21.127   2.299
88136W        W53616  44.866  28.528   1.744
88137W        W53617  35.938  42.951  10.557
88138W        W53618  31.072  19.713   5.219
88139W        W53619   2.738  38.438  13.914
88140W        W53620  14.199  27.553   2.323
88141W        W53621   6.306  37.419  12.411
88142W        W53622  36.586  11.774  12.901
88143W        W53623   7.801  24.082   0.483
88144W        W53624  38.464   1.483   3.792
88145W        W53625  10.686  11.204   2.759
88146W        W53626  23.990  25.644  12.527
88147W        W53627   7.250  35.510  13.317
88148W        W53628   1.464  28.168   2.765
88149W        W53629  22.714  24.199   0.955
88150W        W53630  10.163  44.830   4.233
88151W        W53631  35.856   4.894   2.298
88152W        W53632  14.595  20.267   2.392
88153W        W53633   1.327  40.938  10.621
88154W        W53634  11.283  25.987   3.773
88155W        W53635  18.721  36.044  14.389
88156W        W53636  39.930  43.798  12.543
88157W        W53637  19.094  28.941   4.138
88158W        W53638  24.692  34.413  14.377
88159W        W53639  39.863  41.325   3.310
88160W        W53640  10.266  37.993   1.227
88161W        W53641   3.327   4.437  14.847
88162W        W53642   9.862   9.157   2.389
88163W        W53643  15.135  21.595   4.278
88164W        W53644   9.890   5.407  14.837
88165W        W53645  35.510  39.385  13.510
88166W        W53646  37.012  22.645  13.943
88167W        W53647  40.386  18.120   1.332
88168W        W53648  43.798   6.265  12.500
88169W        W53649  16.112  26.191   4.193
88170W        W53650   3.917  15.579   1.745
88171W        W53651  41.390  21.239  11.488
88172W        W53652  32.481  21.141   1.406
88173W        W53653   7.351  42.799  14.834
88174W        W53654   9.828   6.811  12.825
88175W        W53655  42.796  15.149   1.736
88176W        W53656  42.439  14.236   4.228
88177W        W53657  31.928  29.446   2.417
88178W        W53658  40.945  19.738   1.927
88179W        W53659  20.230  18.205   1.863
88180W        W53660  13.195  39.015   3.372
88181W        W53661   0.816  12.723   3.752
88182W        W53662   8.679  15.158  14.412
88183W        W53663   6.744  30.554   4.816
88184W        W53664  35.455  42.488   1.283
88185W        W53665  13.673  10.296   1.799
88186W        W53666  22.503  19.720  10.638
88187W        W53667  21.097   2.295  10.596
88188W        W53668  41.349  18.754  11.976
88189W        W53669  19.061  24.620  10.404
88190W        W53670  37.061   1.896   3.728
88191W        W53671  42.910  16.628   3.154
88192W        W53672   5.411  13.682  12.001
88193W        W53673   7.909  21.055  14.897
88194W        W53674  42.411   4.832  13.473
88195W        W53675   4.301  42.788   2.746
88196W        W53676  28.949  19.061   2.184
88197W        W53677  17.086  10.749  10.889
88198W        W53678  43.909  40.052   4.138
88199W        W53679  19.061  33.988  11.077
88200W        W53680  33.448  34.535  14.870
88201W        W53681   4.856  31.139  12.359
88202W        W53682  33.955   2.758   3.289
88203W        W53683  39.876  27.134   4.631
88204W        W53684  27.149  15.159  13.944
88205W        W53685  40.538  25.480  12.569
88206W        W53686  28.680  35.919   3.764
88207W        W53687  10.195  35.475  12.920
88208W        W53688   4.341  31.637  13.950
88209W        W53689  37.952  14.772  11.574
88210W        W53690  29.114  20.101   0.764
88211W        W53691  26.069  15.731  12.476
88212W        W53692  16.199  18.264  13.329
88213W        W53693   8.406   0.466   3.380
88214W        W53694  26.576   3.354  10.082
88215W        W53695  32.533  24.038   1.831
88216W        W53696  24.205  36.477   4.353
88217W        W53697  25.660  27.051   2.332
88218W        W53698  35.917  10.356   1.759
88219W        W53699  34.409   9.221   3.848
88220W        W53700  11.293  44.789  13.878
88221W        W53701   3.783   3.441   3.317
88222W        W53702  36.925   1.464   0.306
88223W        W53703   0.477  22.137  10.918
88224W        W53704  32.941   0.250   0.759
88225W        W53705   9.363  31.583  11.084
88226W        W53706  11.800   9.776  12.076
88227W        W53707  19.673   1.804  14.465
88228W        W53708  33.436   6.406  12.056
88229W        W53709  25.556   0.390  13.919
88230W        W53710   3.454  35.908  12.017
88231W        W53711  19.150   1.375   3.755
88232W        W53712  16.784  29.586   5.147
88233W        W53713  26.592  32.056   5.187
88234W        W53714  24.058  41.474  11.584
88235W        W53715  34.544   9.795  14.348
88236W        W53716  30.971  10.678  10.554
88237W        W53717  29.962   7.843  11.942
88238W        W53718   3.310  26.481   0.296
88239W        W53719  30.507  43.802  13.967
88240W        W53720  35.971  33.392  11.059
88241W        W53721   1.307   1.923   4.644
88242W        W53722  37.927  41.010  10.475
88243W        W53723  25.481   5.301  10.947
88244W        W53724   1.951  21.153   2.690
88245W        W53725  11.814  11.864   1.261
88246W        W53726  21.723  40.000   0.357
88247W        W53727  36.094   1.424  11.909
88248W        W53728  19.124  43.464  11.978
88249W        W53729  29.614  14.183  14.279
88250W        W53730  17.597   2.777   0.471
88251W        W53731   9.681  21.098   4.658
88252W        W53732   6.815  28.064  10.492
88253W        W53733   5.333  12.347  14.429
88254W        W53734   2.777   8.345   3.280
88255W        W53735  36.013  22.008  12.570
88256W        W53736  43.441  37.047   2.838
88257W        W53737  37.899   7.787   2.721
88258W        W53738  35.528  25.488  10.522
88259W        W53739   5.917   1.398   4.701
88260W        W53740  11.815   0.344  14.340
88261W        W53741  41.942  11.746   3.211
88262W        W53742  39.835   8.751   4.258
88263W        W53743  23.153   5.800  12.953
88264W        W53744   8.682  12.833  13.900
88265W        W53745  32.004  36.410   4.311
88266W        W53746   9.385  15.300   4.605
88267W        W53747  38.357   3.396   4.142
88268W        W53748  28.164  34.039  14.356
88269W        W53749  26.133  10.172  14.031
88270W        W53750  10.791  43.919  10.908
88271W        W53751  15.692  19.598   1.856
88272W        W53752  18.161  15.090  11.388
88273W        W53753  44.325  22.228  11.471
88274W        W53754  24.158   2.292   4.254
88275W        W53755  31.519  41.939  11.413
88276W        W53756  15.701  16.113  10.447
88277W        W53757  32.583   8.685   2.696
88278W        W53758  38.018   1.290  14.476
88279W        W53759  44.322  25.656   1.749
88280W        W53760  33.482  39.016   4.176
88281W        W53761  13.177  36.559   4.237
88282W        W53762  14.722  20.680   1.837
88283W        W53763  35.581  44.418  14.309
88284W        W53764  40.934  35.929   3.652
88285W        W53765   5.743   1.963  13.492
88286W        W53766  34.425  44.423   0.940
88287W        W53767   4.231  30.140   2.748
88288W        W53768  24.995  10.382   1.889
88289W        W53769  12.674  35.005   4.187
88290W        W53770  24.622  25.986   4.836
88291W        W53771  23.118  38.015  12.920
88292W        W53772  27.445  24.083   3.284
88293W        W53773   1.350  23.554   4.135
88294W        W53774  29.068  35.533   3.194
88295W        W53775  21.630  11.678  12.504
88296W        W53776  23.090  34.428  10.973
88297W        W53777  27.602  27.095  10.611
88298W        W53778  42.906   3.455   4.818
88299W        W53779  39.875  20.184   3.755
88300W        W53780   7.778   7.910  10.550
88301W        W53781   6.743  24.031  14.779
88302W        W53782  33.881  33.899  14.904
88303W        W53783  23.711  35.473   1.767
88304W        W53784  27.576  20.222  14.964
88305W        W53785  37.570  38.857  11.551
88306W        W53786   8.177  23.239   2.222
88307W        W53787  33.462  39.439   4.297
88308W        W53788  36.911  25.023   1.315
88309W        W53789  44.761  39.949  14.928
88310W        W53790  40.376   6.848   4.313
88311W        W53791  27.053  10.637  12.966
88312W        W53792  34.996  39.940  14.810
88313W        W53793  28.551  41.897   1.372
88314W        W53794  25.192   0.410  10.016
88315W        W53795  14.782   4.824   3.675
88316W        W53796  19.059  13.239   3.147
88317W        W53797   3.741  12.183   4.806
88318W        W53798  42.385  23.669  14.975
88319W        W53799   8.219  44.005  11.595
88320W        W53800  25.963  44.270   0.252
88321W        W53801  19.184  25.158  11.050
88322W        W53802   4.393  16.230   4.677
88323W        W53803   1.810   4.741  10.417
88324W        W53804   9.698   8.165  14.893
88325W        W53805  21.619  17.083   4.260
88326W        W53806  11.200  40.494  11.446
88327W        W53807  14.830   3.303  12.029
88328W        W53808  16.153  41.942   4.160
88329W        W53809   8.706  19.169   0.796
88330W        W53810  16.632  21.189  13.827
88331W        W53811  34.593  44.410   1.742
88332W        W53812  38.960  19.588   3.688
88333W        W53813   0.916  30.437  10.920
88334W        W53814  36.506  18.700  12.932
88335W        W53815   4.761  26.057   3.315
88336W        W53816  43.016  15.633  11.475
88337W        W53817  19.178  43.425  13.517
88338W        W53818  19.208  41.340   2.782
88339W        W53819  43.492  22.661   0.315
88340W        W53820  40.331  13.280  14.309
88341W        W53821  14.825  41.385   3.670
88342W        W53822  32.905  14.326  14.483
88343W        W53823  37.340  22.160   0.806
88344W        W53824  39.509  26.130   1.351
88345W        W53825  39.993  25.069   3.827
88346W        W53826  26.039  35.581   3.307
88347W        W53827  39.414  19.272  14.826
88348W        W53828   1.384   0.895   4.700
88349W        W53829  39.503  36.389  11.086
88350W        W53830  36.936   6.199  13.026
88351W        W53831  24.673  16.628   0.892
88352W        W53832  41.968  43.397  11.508
88353W        W53833  43.478  18.557   5.294
88354W        W53834   7.897  21.751   3.830
88355W        W53835  20.538   2.261   4.598
88356W        W53836  30.583  16.787  12.966
88357W        W53837   8.745  21.027   1.326
88358W        W53838  24.066  20.587  12.448
88359W        W53839  20.253  20.735  12.348
88360W        W53840  40.395  26.042  12.092
88361W        W53841  33.502  35.590   3.736
88362W        W53842   2.954  23.710  11.938
88363W        W53843  42.317  20.235  10.533
88364W        W53844  12.827  37.533  13.833
88365W        W53845  36.564   8.189   3.160
88366W        W53846  35.069  17.676  13.354
88367W        W53847  26.135  18.167   1.924
88368W        W53848   3.217  16.688   1.876
88369W        W53849   8.299  30.487   1.748
88370W        W53850  19.755   2.834   2.178
88371W        W53851  30.022  41.470  12.991
88372W        W53852  21.606  22.069  14.341
88373W        W53853   0.889  21.092   0.888
88374W        W53854  29.510  31.114  13.810
88375W        W53855   6.690  36.350   4.142
88376W        W53856  13.719  14.798   4.231
88377W        W53857  23.639  43.481   4.266
88378W        W53858  19.170  34.404   0.415
88379W        W53859  29.650  28.147   1.359
88380W        W53860  10.352  41.803  11.451
88381W        W53861   5.806   3.731   0.460
88382W        W53862  37.441  30.109  12.826
88383W        W53863  14.246  25.628  12.045
88384W        W53864  28.672  23.050  14.401
88385W        W53865   6.864  30.092  14.506
88386W        W53866  38.571  26.656  12.900
88387W        W53867  12.623  12.625   2.193
88388W        W53868   0.806   1.899   0.754
88389W        W53869  12.341  44.943   4.603
88390W        W53870  38.348  30.446   2.871
88391W        W53871  34.897  35.015   0.900
88392W        W53872  25.180  20.202   0.359
88393W        W53873   0.892   2.464  12.507
88394W        W53874  29.475  38.452  11.938
88395W        W53875  28.092  39.857  12.993
88396W        W53876  25.602  36.057  14.311
88397W        W53877   7.338  25.663  12.917
88398W        W53878   4.258  28.165   0.438
88399W        W53879  29.118   3.901  14.510
88400W        W53880  25.671  10.185   1.251
88401W        W53881  18.582  32.458   4.292
88402W        W53882  18.270  24.657  14.887
88403W        W53883  22.595  22.617   5.241
88404W        W53884  15.597  15.662  12.856
88405W        W53885  17.670  42.324  10.905
88406W        W53886   7.205  28.046   3.254
88407W        W53887  27.160  16.797  11.606
88408W        W53888   2.780  20.547  11.506
88409W        W53889  34.455  16.128   2.793
88410W        W53890   6.798  14.272   3.374
88411W        W53891  30.443   5.382   4.278
88412W        W53892  41.488   2.276  14.357
88413W        W53893  41.398  43.363  11.487
88414W        W53894  31.641  32.494  12.981
88415W        W53895  42.010  31.008  12.847
88416W        W53896   4.704  11.257   4.749
88417W        W53897  26.189  21.201   3.174
88418W        W53898  21.692  12.361   1.251
88419W        W53899  35.931  27.642  14.896
88420W        W53900  38.559  37.459   4.233
88421W        W53901  39.998  17.267   2.835
88422W        W53902  44.277  41.444  11.461
88423W        W53903  30.044  32.012  12.518
88424W        W53904   8.193  31.013  13.793
88425W        W53905  41.352  37.431  13.474
88426W        W53906   8.283  23.529  11.413
88427W        W53907  44.318   3.821  11.608
88428W        W53908   9.805  14.609  10.538
88429W        W53909  28.007  15.727   1.847
88430W        W53910  40.530  15.225  12.097
88431W        W53911  43.269  34.469   9.927
88432W        W53912  28.974  20.528  13.455
88433W        W53913  33.984  38.859  10.482
88434W        W53914  39.418  25.533  14.794
88435W        W53915  15.176  18.657   1.711
88436W        W53916  27.137  41.909  14.968
88437W        W53917  26.651  17.131   4.830
88438W        W53918  24.526   9.824  10.594
88439W        W53919   8.786  32.116  12.965
88440W        W53920   0.904  33.044   1.299
88441W        W53921   3.772  33.931  12.457
88442W        W53922  20.659  14.319   1.765
88443W        W53923  19.706  11.639   3.802
88444W        W53924  25.499   9.740  12.943
88445W        W53925  27.117   4.251  11.903
88446W        W53926  43.335  12.790   4.342
88447W        W53927  30.585  35.886   0.802
88448W        W53928  36.048  42.488   3.378
88449W        W53929   9.842  25.539  11.026
88450W        W53930  30.099   1.430  11.514
88451W        W53931  27.156  20.258   0.865
88452W        W53932   6.773  25.058  12.521
88453W        W53933   5.248  27.058  14.883
88454W        W53934   8.737  19.059   2.848
88455W        W53935   6.701  19.222  13.421
88456W        W53936   5.815  11.336   0.742
88457W        W53937   7.868  13.614  13.906
88458W        W53938  37.980  22.006  14.912
88459W        W53939  36.919  27.627   3.324
88460W        W53940  30.558   7.184   4.687
88461W        W53941  44.325  11.259  12.919
88462W        W53942  20.268  22.589  11.067
88463W        W53943  16.178   0.256  11.048
88464W        W53944  30.553  13.721   0.815
88465W        W53945  39.487  43.455  11.597
88466W        W53946  17.802  29.104   4.718
88467W        W53947  34.466  28.469  10.424
88468W        W53948  35.431  29.547  10.511
88469W        W53949  14.832   2.467  11.376
88470W        W53950  28.979  28.975  10.562
88471W        W53951  39.051   1.880   0.819
88472W        W53952  33.044  36.474  11.866
88473W        W53953  32.964  11.245  13.354
88474W        W53954   0.876  13.709  14.768
88475W        W53955   8.726  24.504   3.708
88476W        W53956  41.845  32.972   3.202
88477W        W53957   8.802  26.687  11.549
88478W        W53958  27.110   3.895   2.665
88479W        W53959  10.854  16.662  10.486
88480W        W53960  16.188  11.168  11.041
88481W        W53961   3.728   9.864  14.501
88482W        W53962  12.702  21.047  14.941
88483W        W53963  29.657  25.594   3.365
88484W        W53964  40.938  14.625  12.938
88485W        W53965  20.177  43.392   1.265
88486W        W53966   6.860  39.812  11.998
88487W        W53967   2.271  30.595   0.344
88488W        W53968  44.300   5.866  13.517
88489W        W53969   4.433   6.286  11.428
88490W        W53970  44.455  25.690   3.711
88491W        W53971  37.870  26.164  14.783
88492W        W53972  44.846  12.252   0.330
88493W        W53973  32.071   2.965   3.181
88494W        W53974   1.414  21.526  11.992
88495W        W53975   1.830   2.300   1.405
88496W        W53976  37.893   7.717   1.220
88497W        W53977  43.891  14.710  14.810
88498W        W53978   9.263   5.426   0.775
88499W        W53979  24.555   0.982   1.272
88500W        W53980   2.232  32.492   1.433
88501W        W53981   4.204  22.640  10.493
88502W        W53982  29.051  32.900  12.533
88503W        W53983  30.159   3.218  11.560
88504W        W53984  40.932  44.976   3.344
88505W        W53985  24.528  34.460   4.256
88506W        W53986  20.150  34.016   3.275
88507W        W53987   6.812  24.609  11.947
88508W        W53988  21.123   2.776  12.431
88509W        W53989   8.706  40.876  11.126
88510W        W53990  36.079  42.903   4.608
88511W        W53991  15.729   3.747  11.941
88512W        W53992  14.270  21.713  11.061
88513W        W53993  10.782  16.077   3.317
88514W        W53994   4.369   1.245   3.644
88515W        W53995   3.427  27.578   0.450
88516W        W53996  40.549   7.830   1.890
88517W        W53997  40.018  20.049   0.906
88518W        W53998  35.085  34.990   0.478
88519W        W53999  21.131  20.707   1.808
88520W        W54000  17.175  28.644   3.634
88521W        W54001  27.111   8.861  13.360
88522W        W54002  19.697  40.408   5.173
88523W        W54003  30.586   6.705  11.049
88524W        W54004  36.988  44.919  11.103
88525W        W54005  41.332  12.647   2.874
88526W        W54006  28.507  28.104  13.969
88527W        W54007  12.635  17.729  14.490
88528W        W54008   2.891   7.348  12.495
88529W        W54009  19.060   7.866  12.839
88530W        W54010  20.171  14.338  12.538
88531W        W54011  35.366  31.472  12.549
88532W        W54012   5.893  11.201  14.329
88533W        W54013  28.472  15.723  14.992
88534W        W54014  24.718  40.997  14.473
88535W        W54015  41.929   8.734   0.928
88536W        W54016  10.700  24.627   3.377
88537W        W54017  16.636   8.768  14.825
88538W        W54018  18.098   3.318  14.777
88539W        W54019  24.098  32.008   5.181
88540W        W54020   5.335   3.405   4.246
88541W        W54021   1.814  42.932  13.388
88542W        W54022  36.974  34.956   2.674
88543W        W54023   0.411  25.517  10.911
88544W        W54024   1.434  11.848   3.681
88545W        W54025  29.558   3.834   2.788
88546W        W54026  12.271  23.654  13.394
88547W        W54027  40.380  24.700   1.323
88548W        W54028   8.366  26.190   3.816
88549W        W54029  34.071  19.663   4.277
88550W        W54030  32.565   3.805  14.976
88551W        W54031  17.149  22.693  13.514
88552W        W54032   3.774  31.056  12.542
88553W        W54033   6.872  44.466  12.528
88554W        W54034  36.975  13.636  12.546
88555W        W54035   6.301  11.667   0.726
88556W        W54036  20.661  38.448   0.782
88557W        W54037  29.047  25.080  10.563
88558W        W54038  16.121  20.745  10.559
88559W        W54039   3.762  37.883  10.436
88560W        W54040  31.602  17.787  11.064
88561W        W54041  23.013  25.060  13.502
88562W        W54042  33.604  29.939   3.781
88563W        W54043  33.467  29.576   0.877
88564W        W54044   1.436  22.124  14.762
88565W        W54045  16.754  17.160  12.459
88566W        W54046  40.347  18.231   4.652
88567W        W54047  24.649   4.730  11.906
88568W        W54048  40.804   4.828   1.728
88569W        W54049  37.846  28.058  13.376
88570W        W54050  23.674   3.327   4.309
88571W        W54051  31.057   6.254   3.644
88572W        W54052  42.469   8.301   1.310
88573W        W54053  43.850   4.392   0.874
88574W        W54054  36.489  21.224  11.900
88575W        W54055   5.211  29.108  14.426
88576W        W54056  36.452  34.571   3.323
88577W        W54057  36.056  23.713  12.843
88578W        W54058   1.882  27.538   4.355
88579W        W54059  37.437  16.626   4.354
88580W        W54060  15.805  25.191   4.760
88581W        W54061  12.844  11.164   3.183
88582W        W54062  34.386   2.437   1.416
88583W        W54063   1.744  28.950  12.412
88584W        W54064   7.801  27.026   0.836
88585W        W54065  36.356  40.823   3.639
88586W        W54066  40.862  36.925   0.916
88587W        W54067  41.803  22.696  14.867
88588W        W54068  10.646  27.089   3.286
88589W        W54069  10.197  25.146   0.311
88590W        W54070   4.843  44.978   3.294
88591W        W54071   5.407  39.986   1.371
88592W        W54072  29.559  43.302   4.604
88593W        W54073  20.039  29.572   3.684
88594W        W54074  34.055  31.421  14.293
88595W        W54075  15.588  24.705   4.739
88596W        W54076   5.202  32.525  12.096
88597W        W54077  11.737  31.533   0.464
88598W        W54078  29.598  36.550  11.890
88599W        W54079  35.515   8.861   0.836
88600W        W54080  16.158  12.685   1.766
88601W        W54081  15.677  11.855  12.499
88602W        W54082  22.107  31.969   4.816
88603W        W54083  34.370   3.940   2.205
88604W        W54084  29.510  14.101  10.558
88605W        W54085  42.327  30.512   1.259
88606W        W54086  15.327  20.684   1.708
88607W        W54087  19.169  27.618  12.376
88608W        W54088   8.710   8.217   0.809
88609W        W54089  31.615  16.604  11.439
88610W        W54090  41.899  18.564   2.410
88611W        W54091  13.699  31.907  14.444
88612W        W54092  36.484  38.477   3.226
88613W        W54093  32.408   3.719  10.426
88614W        W54094  36.975  20.166  13.994
88615W        W54095  23.637  36.539  11.029
88616W        W54096  24.001  27.601   0.302
88617W        W54097   4.372  12.708  14.449
88618W        W54098  17.291  22.661  11.557
88619W        W54099  27.640  24.568  14.490
88620W        W54100   1.377   0.801   1.375
88621W        W54101  29.108  29.011  10.989
88622W        W54102  13.237  21.178  12.834
88623W        W54103  37.430  22.171  12.893
88624W        W54104   5.696   2.874   2.202
88625W        W54105  22.586  18.743  10.598
88626W        W54106  38.845  41.861  13.448
88627W        W54107  17.665  38.044   0.940
88628W        W54108  33.070  28.952  12.897
88629W        W54109  21.086  25.653  11.115
88630W        W54110   7.374  38.327  12.841
88631W        W54111  21.063   1.474  14.925
88632W        W54112   1.241  30.991  12.836
88633W        W54113   3.761  22.148   2.262
88634W        W54114  13.643  30.990  14.478
88635W        W54115  30.089   0.260   3.814
88636W        W54116  23.559  10.372   0.445
88637W        W54117   1.472  18.158   1.369
88638W        W54118  13.611  29.946  13.805
88639W        W54119  23.596  30.067  10.913
88640W        W54120  12.829  41.937   1.238
88641W        W54121  14.283  44.912   4.708
88642W        W54122  43.317  42.794   3.773
88643W        W54123  41.366  40.032  12.485
88644W        W54124  24.625   1.369   1.363
88645W        W54125  15.139  18.126   1.884
88646W        W54126   6.253  34.933  14.977
88647W        W54127  38.488  38.443  13.921
88648W        W54128  23.067   6.346  14.385
88649W        W54129  28.655   7.849  13.396
88650W        W54130  34.525  14.100   0.476
88651W        W54131  29.091  40.934  12.357
88652W        W54132  15.216  22.546  12.490
88653W        W54133  42.013   6.362   3.359
88654W        W54134  41.484  23.644   0.363
88655W        W54135   1.873  41.899  14.954
88656W        W54136  12.652  36.576  12.574
88657W        W54137  28.166  43.464   0.450
88658W        W54138   6.237  28.084   4.256
88659W        W54139  16.214  39.397   0.395
88660W        W54140  34.420  12.190   4.158
88661W        W54141   4.446  27.961  12.829
88662W        W54142  18.054   0.413   1.822
88663W        W54143  12.649   8.288   3.640
88664W        W54144  34.423  11.680   4.349
88665W        W54145  28.987  36.081  12.094
88666W        W54146   2.959  40.812   0.851
88667W        W54147   9.248  13.217   2.816
88668W        W54148  11.297   5.896  11.055
88669W        W54149   9.746  24.166   1.378
88670W        W54150  29.636  30.154   0.948
88671W        W54151  41.320  27.524   1.451
88672W        W54152  19.588  17.069   3.160
88673W        W54153  30.517  18.256   4.730
88674W        W54154  17.140  25.531  14.869
88675W        W54155   1.748  26.462  14.760
88676W        W54156  38.400  33.514  13.993
88677W        W54157  27.539  15.183   3.345
88678W        W54158  13.244  14.248   1.747
88679W        W54159   8.284   5.369   0.365
88680W        W54160  35.358  22.643  13.525
88681W        W54161   3.945  13.180   1.340
88682W        W54162  35.999  24.978  13.001
88683W        W54163  15.103  32.508   2.662
88684W        W54164   9.783  18.248   3.345
88685W        W54165  32.044  26.011  11.394
88686W        W54166   3.326  11.658  14.277
88687W        W54167  20.717  28.449   1.283
88688W        W54168  37.943  17.644  10.463
88689W        W54169  20.628  43.404   2.728
88690W        W54170   7.389   5.229   3.677
88691W        W54171  41.952  18.246   3.739
88692W        W54172  11.346  11.767  11.527
88693W        W54173  31.419  20.755  13.013
88694W        W54174  40.390   3.430  12.020
88695W        W54175   8.661   5.847  14.765
88696W        W54176  28.054  39.402   4.828
88697W        W54177  33.523  21.750   1.912
88698W        W54178  14.613  39.455   4.266
88699W        W54179  25.615  18.710  12.032
88700W        W54180  19.250  20.558  11.949
88701W        W54181  16.194  24.060   4.796
88702W        W54182  20.624  14.630  11.437
88703W        W54183  17.108  29.430   5.283
88704W        W54184  17.211  15.243  10.966
88705W        W54185  30.642   8.247  13.370
88706W        W54186  11.791  16.597   2.239
88707W        W54187  20.557   0.966  13.321
88708W        W54188  19.667   1.760   3.201
88709W        W54189  19.639  10.163   3.855
88710W        W54190   0.960  24.170   0.871
88711W        W54191  16.209   3.358   2.712
88712W        W54192   5.837  26.673  11.433
88713W        W54193  37.535  18.577  10.019
88714W        W54194  43.402  27.065  11.462
88715W        W54195  37.348  13.222   5.250
88716W        W54196  19.180  37.851  12.881
88717W        W54197  25.063  15.113  10.453
88718W        W54198  21.622   6.349   2.772
88719W        W54199   0.900  10.235   3.206
88720W        W54200  17.784  17.625   3.348
88721W        W54201  13.317  15.179  13.978
88722W        W54202  41.871   6.281   1.812
88723W        W54203  23.708  40.406  13.376
88724W        W54204  11.242  28.186   0.248
88725W        W54205  28.977  30.931   2.842
88726W        W54206  21.593  14.735   2.302
88727W        W54207  27.558   4.295   1.930
88728W        W54208  21.600  32.141  11.980
88729W        W54209  36.975   6.234  12.450
88730W        W54210  13.717   1.872   0.429
88731W        W54211  44.983  18.072  11.918
88732W        W54212   9.372  28.005  12.376
88733W        W54213  43.279  14.210  11.974
88734W        W54214  28.633  30.085  12.934
88735W        W54215  44.373  15.271  12.569
88736W        W54216  36.577  40.383  14.931
88737W        W54217   7.878  13.703   3.761
88738W        W54218   0.318  12.617   4.613
88739W        W54219  17.195  28.557  13.911
88740W        W54220  30.559  16.158  12.919
88741W        W54221  31.963  42.788  11.907
88742W        W54222  22.548   1.295  11.910
88743W        W54223  43.414  32.131   3.372
88744W        W54224   5.270   4.443  10.610
88745W        W54225  36.091  14.119   2.378
88746W        W54226   0.894  11.200  12.982
88747W        W54227  41.818  37.931  12.897
88748W        W54228  41.414  40.799   2.805
88749W        W54229  33.439  42.826  13.519
88750W        W54230   0.439  31.133  13.438
88751W        W54231  37.963  28.990  11.499
88752W        W54232   5.862  15.269  13.423
88753W        W54233  20.183  24.224   2.844
88754W        W54234   9.226  28.622   2.759
88755W        W54235  44.291   9.149  11.497
88756W        W54236  10.724  41.480   5.205
88757W        W54237  12.763   2.284   4.164
88758W        W54238   0.971  22.726  13.395
88759W        W54239   9.727  25.682   4.207
88760W        W54240   2.416  23.551   1.874
88761W        W54241   0.259  10.153  10.629
88762W        W54242  22.561  38.949  11.427
88763W        W54243   6.876  26.682   1.260
88764W        W54244   0.259  25.609  13.427
88765W        W54245   0.429  42.869   3.677
88766W        W54246  14.183  11.327  14.479
88767W        W54247  39.961  14.743  13.998
88768W        W54248  32.062  32.977   0.753
88769W        W54249  13.688  28.554   1.864
88770W        W54250   3.797   7.806  13.820
88771W        W54251  40.997  39.459   2.196
88772W        W54252   6.757  36.495  14.803
88773W        W54253  44.339  18.620  14.776
88774W        W54254  20.743   9.652   0.404
88775W        W54255  29.025  41.341   4.642
88776W        W54256  11.256  41.826   3.340
88777W        W54257  32.070   8.778   1.808
88778W        W54258  22.509  28.021   4.174
88779W        W54259  19.182   8.173   0.911
88780W        W54260  14.203  39.914   0.252
88781W        W54261  14.172  27.520   1.878
88782W        W54262   4.766  43.358   3.370
88783W        W54263   8.189   3.341  13.053
88784W        W54264  43.495  13.226  13.450
88785W        W54265  18.602   0.259  13.544
88786W        W54266  24.117  28.666  13.967
88787W        W54267   3.298  25.636  13.391
88788W        W54268  25.968  41.856   2.755
88789W        W54269  34.429  22.728   3.706
88790W        W54270   0.285   0.312  13.411
88791W        W54271   2.319   1.398   4.190
88792W        W54272  12.351  35.046   0.266
88793W        W54273  42.006  27.091  13.533
88794W        W54274  19.057  29.586  14.281
88795W        W54275   4.237  17.115   4.711
88796W        W54276  32.015  24.481  13.336
88797W        W54277  43.884  14.651  14.485
88798W        W54278   8.732   8.720   4.338
88799W        W54279  34.428  18.725   4.829
88800W        W54280  41.466  29.468  14.782
88801W        W54281  17.606  10.854   1.368
88802W        W54282  21.521  36.945   3.374
88803W        W54283   0.971   0.338  12.893
88804W        W54284  24.624   0.403  14.904
88805W        W54285  35.084  29.619  11.038
88806W        W54286  21.066  33.516  10.540
88807W        W54287   1.812  14.646   2.764
88808W        W54288  22.053  24.497   0.369
88809W        W54289  44.404  17.590   3.376
88810W        W54290  26.062  37.064   1.401
88811W        W54291  38.904   9.676  14.850
88812W        W54292  32.465  41.846  11.871
88813W        W54293  41.294  30.499   4.348
88814W        W54294  44.776  32.430   1.356
88815W        W54295   3.383  20.634  14.468
88816W        W54296  16.279   8.722   0.760
88817W        W54297  33.089  13.781   3.690
88818W        W54298  29.578  15.148   2.286
88819W        W54299  37.509  15.327   2.869
88820W        W54300  18.156  42.400   0.399
88821W        W54301  21.211  25.162  13.337
88822W        W54302   7.780  21.582   4.730
88823W        W54303  36.556  40.965   4.177
88824W        W54304  37.424  15.312  10.630
88825W        W54305  26.951  17.131   4.734
88826W        W54306  42.795   3.435   2.690
88827W        W54307  27.185  24.538  14.972
88828W        W54308  22.115   4.301   3.756
88829W        W54309  39.340  11.226  12.981
88830W        W54310  38.929   6.369   1.742
88831W        W54311  44.844  19.539   5.235
88832W        W54312  43.284  16.175   2.324
88833W        W54313  16.118  33.105  13.308
88834W        W54314  10.352  31.598   2.715
88835W        W54315   3.400  27.151   3.869
88836W        W54316  21.667  27.145  12.922
88837W        W54317  25.526  40.477   3.753
88838W        W54318  18.152  21.602  12.522
88839W        W54319  10.336  38.841   2.341
88840W        W54320  18.564  27.062  12.038
88841W        W54321   7.367   0.287  10.627
88842W        W54322  24.175   9.712   2.221
88843W        W54323   7.305  42.302   3.269
88844W        W54324  33.479  25.172   0.817
88845W        W54325   2.234  14.654   1.298
88846W        W54326  32.440   1.764  11.379
88847W        W54327  31.538  31.457   1.348
88848W        W54328  25.514  31.083  11.579
88849W        W54329  22.733  31.090  14.857
88850W        W54330  20.681   6.381   4.260
88851W        W54331  29.662   5.418   4.179
88852W        W54332   3.790  41.399   0.367
88853W        W54333   3.290  39.322  11.385
88854W        W54334  23.628   4.854  13.312
88855W        W54335  39.955  23.634  14.988
88856W        W54336  44.493  29.056   0.903
88857W        W54337  14.819  11.679  13.002
88858W        W54338  25.568  19.168   3.701
88859W        W54339  11.756  42.861   9.967
88860W        W54340  18.137  18.576   0.865
88861W        W54341  28.929   3.405   3.165
88862W        W54342  37.531   8.864  12.994
88863W        W54343  27.167   8.178  13.548
88864W        W54344  36.047  26.519  13.982
88865W        W54345   7.310  36.378  12.495
88866W        W54346  34.070  10.183  14.765
88867W        W54347  35.016  31.918  12.900
88868W        W54348  38.407   3.230  11.458
88869W        W54349  21.520  34.929   1.389
88870W        W54350  16.107  28.990  11.002
88871W        W54351   9.377  34.543   0.253
88872W        W54352  30.598  31.967  12.045
88873W        W54353   8.204  17.727  12.559
88874W        W54354  41.955  25.179   4.223
88875W        W54355   0.422   1.750  13.328
88876W        W54356  13.236  24.173  14.803
88877W        W54357  23.222  26.482  13.949
88878W        W54358  14.155   1.335   0.447
88879W        W54359  23.547  29.053  11.002
88880W        W54360  40.941  23.535  11.960
88881W        W54361  28.060  13.343   4.765
88882W        W54362   7.871  37.844  13.047
88883W        W54363  24.020   0.450  13.376
88884W        W54364  33.493   4.792  11.982
88885W        W54365   3.824  14.226   2.267
88886W        W54366  28.109   3.444  12.380
88887W        W54367  23.553  44.453  11.385
88888W        W54368  10.215  38.873   5.199
88889W        W54369  22.250   6.798   0.423
88890W        W54370  36.842  17.248   2.856
88891W        W54371  22.093  42.801   0.283
88892W        W54372   4.419  28.160  11.015
88893W        W54373   2.864  18.668   4.198
88894W        W54374   2.785  37.029  11.955
88895W        W54375  27.964  36.372  14.017
88896W        W54376  27.092  35.545   3.666
88897W        W54377  28.550   1.962   0.256
88898W        W54378   1.332  31.939   2.793
88899W        W54379  43.812  32.092   3.862
88900W        W54380  36.412  26.057  14.926
88901W        W54381   0.318  26.545  12.495
88902W        W54382  14.184  10.277  12.022
88903W        W54383  28.144  26.138   1.324
88904W        W54384  13.272   6.689  10.935
88905W        W54385  31.993  20.602  10.594
88906W        W54386   0.831   9.163   3.787
88907W        W54387   8.271  13.692   2.357
88908W        W54388  12.121   5.773   0.291
88909W        W54389   2.828  33.061  12.528
88910W        W54390  43.483  31.958   2.209
88911W        W54391  34.005  33.109  13.543
88912W        W54392  22.515  13.206   1.840
88913W        W54393   3.729  29.098  12.878
88914W        W54394  15.750  30.615  12.379
88915W        W54395   5.829  26.481  11.947
88916W        W54396  20.138  16.121   1.306
88917W        W54397  33.963  25.533   4.615
88918W        W54398  25.987  18.614   0.332
88919W        W54399   0.766  30.033   1.880
88920W        W54400  23.555  42.487  11.562
88921W        W54401  15.110   3.917  14.780
88922W        W54402  34.072  11.326   1.704
88923W        W54403  15.112  30.930  11.501
88924W        W54404  22.164  23.135   3.154
88925W        W54405  10.754   0.303  13.419
88926W        W54406  14.302  17.612   4.749
88927W        W54407   4.292  36.964   4.691
88928W        W54408  17.068  19.265  14.387
88929W        W54409  43.402   1.243  13.410
88930W        W54410   9.717  29.427  12.922
88931W        W54411   5.814  15.219  11.423
88932W        W54412  25.168   0.930  12.509
88933W        W54413  12.725  37.567   3.731
88934W        W54414  19.685  39.052  11.028
88935W        W54415  17.583  16.770   0.245
88936W        W54416  43.006   6.865  11.518
88937W        W54417   6.189  43.898   0.274
88938W        W54418  36.513  22.150   4.654
88939W        W54419  42.478  18.790  11.502
88940W        W54420  43.787   8.684  12.375
88941W        W54421  18.598  40.903   4.781
88942W        W54422  31.519  43.990  11.600
88943W        W54423  44.426  39.366  11.608
88944W        W54424  28.624  31.111   2.783
88945W        W54425  22.681  12.210  12.823
88946W        W54426   1.443  18.209   4.335
88947W        W54427  11.630  43.505   2.398
88948W        W54428  38.886  11.829   2.756
88949W        W54429  18.701  11.358  12.918
88950W        W54430  25.021   8.703  14.449
88951W        W54431  27.098  10.255   4.661
88952W        W54432  30.059  24.534   1.898
88953W        W54433  28.085  32.507  14.992
88954W        W54434  18.698  29.141   9.994
88955W        W54435  11.732  11.673  14.359
88956W        W54436   2.448   4.699  12.499
88957W        W54437  28.681  25.711   0.280
88958W        W54438  39.824  41.034   1.255
88959W        W54439  32.544  19.624  11.075
88960W        W54440  30.647   2.893   1.285
88961W        W54441  23.168  42.380  10.525
88962W        W54442  36.517  11.247   3.166
88963W        W54443   2.272  16.722  12.909
88964W        W54444  32.022  40.032  11.540
88965W        W54445  30.601  41.862   2.218
88966W        W54446  41.459  40.340  10.618
88967W        W54447  14.114  34.089  12.349
88968W        W54448  27.628  19.113  14.295
88969W        W54449  43.829  13.135   0.462
88970W        W54450   7.882  43.781  10.941
88971W        W54451  11.344  44.331  10.482
88972W        W54452  30.516  33.622   1.349
88973W        W54453  43.286   2.402  12.926
88974W        W54454  32.391  39.978  14.485
88975W        W54455   3.434  24.513  12.378
88976W        W54456  30.557  13.134  13.524
88977W        W54457  29.582   0.363  11.545
88978W        W54458  35.505  19.741  11.492
88979W        W54459  10.307  23.021  12.050
88980W        W54460  17.587  14.813  10.426
88981W        W54461  13.702  40.846  10.106
88982W        W54462  34.543  28.995  12.084
88983W        W54463  31.456  37.437  11.955
88984W        W54464  39.544   6.676  12.505
88985W        W54465  26.504  19.778   5.229
88986W        W54466   7.182  35.098  11.465
88987W        W54467  40.023  26.594  11.551
88988W        W54468  19.653  21.106  10.017
88989W        W54469  20.145  34.487  10.530
88990W        W54470  33.438  14.624   3.146
88991W        W54471  36.517  20.522  12.471
88992W        W54472  39.827   7.238  14.769
88993W        W54473  37.028  41.317   1.845
88994W        W54474  39.874  32.038  12.981
88995W        W54475   4.338  13.284   0.854
88996W        W54476  26.043  15.727   3.869
88997W        W54477  24.603  30.449   0.436
88998W        W54478  25.206  32.074  14.287
88999W        W54479   4.853  42.998  14.475
89000W        W54480  12.761  37.563  14.503
89001W        W54481  18.180  15.736   0.920
89002W        W54482  41.980   8.675   0.474
89003W        W54483  32.993  10.345   4.808
89004W        W54484  24.017  34.933  11.983
89005W        W54485   4.802  41.298   1.371
89006W        W54486  23.573  39.853   2.216
89007W        W54487  28.541  36.044  10.939
89008W        W54488  33.123  22.600   4.215
89009W        W54489  35.579  18.157   4.814
89010W        W54490  25.139   8.731   3.352
89011W        W54491   4.918   8.402  13.931
89012W        W54492  43.821   8.369  11.373
89013W        W54493  15.182  36.474  12.526
89014W        W54494   4.306  28.488   1.707
89015W        W54495  44.404  32.443   3.770
89016W        W54496  41.533  42.388   4.603
89017W        W54497  33.023  35.445   4.626
89018W        W54498   2.725  16.181  10.891
89019W        W54499  27.956  38.982  10.919
89020W        W54500  30.417  37.921   3.157
89021W        W54501  44.265   3.220  10.443
89022W        W54502  28.528  44.866  12.840
89023W        W54503  16.291   4.317   1.777
89024W        W54504  13.763  13.284  11.857
89025W        W54505  43.908   2.949   3.864
89026W        W54506   3.797  44.997  12.540
89027W        W54507  38.550  12.151  11.872
89028W        W54508   4.915  31.507  10.934
89029W        W54509  13.223  18.065  12.423
89030W        W54510  22.192  36.415   0.451
89031W        W54511  38.874  37.424   0.742
89032W        W54512  28.123  44.874  13.008
89033W        W54513  11.781  13.699   2.242
89034W        W54514  23.090  15.777   2.811
89035W        W54515  20.151  12.219   4.240
89036W        W54516  28.472  24.500  12.835
89037W        W54517  21.747  17.614   0.340
89038W        W54518  30.078  16.302   3.793
89039W        W54519  18.274   8.853   1.891
89040W        W54520  11.716  32.398  10.545
89041W        W54521  38.395   1.946  11.601
89042W        W54522  26.700  17.249   1.822
89043W        W54523  32.908  14.611   0.841
89044W        W54524  11.791  39.361   3.763
89045W        W54525   8.897  18.555   4.314
89046W        W54526  43.378  32.089  14.805
89047W        W54527  34.864  34.034  13.024
89048W        W54528  39.809  14.762   4.264
89049W        W54529   4.891  22.161  14.832
89050W        W54530  12.809  42.505   0.904
89051W        W54531   0.378  36.932   1.819
89052W        W54532  10.856  16.257   0.379
89053W        W54533  36.917  40.356   0.886
89054W        W54534   7.839  10.271   4.808
89055W        W54535  29.517   7.865   5.205
89056W        W54536  29.991  43.781  10.583
89057W        W54537   5.862  32.926  10.414
89058W        W54538   4.929   1.891  12.395
89059W        W54539  42.398  34.456  14.974
89060W        W54540  35.538  30.954   3.720
89061W        W54541   8.317  39.530   2.804
89062W        W54542  22.669  25.584   3.168
89063W        W54543  25.533   8.193   1.826
89064W        W54544   2.958  28.498  11.904
89065W        W54545  16.305  39.903  13.436
89066W        W54546  17.272   7.717   1.823
89067W        W54547  15.150  33.592   2.779
89068W        W54548   9.380  15.694  12.925
89069W        W54549  39.522  26.115   1.810
89070W        W54550  16.581  38.524   4.253
89071W        W54551  31.076  31.605   4.172
89072W        W54552  29.047  21.724  13.998
89073W        W54553  38.371   6.378   3.714
89074W        W54554  14.735   5.785   1.838
89075W        W54555  27.678   3.286   0.483
89076W        W54556  38.938  23.565   4.323
89077W        W54557  35.989  10.312   1.302
89078W        W54558  25.490   8.328  13.347
89079W        W54559   4.221  14.125   4.200
89080W        W54560   1.881  36.574   1.371
89081W        W54561  34.400  31.595   1.753
89082W        W54562  31.423  41.491  11.556
89083W        W54563  17.283  27.509  12.437
89084W        W54564  39.345  43.351  14.381
89085W        W54565  36.503   7.768   2.753
89086W        W54566  38.444   2.720   2.722
89087W        W54567  36.965   1.365  11.056
89088W        W54568  35.454   8.701   3.789
89089W        W54569  34.519  39.057  13.936
89090W        W54570  19.610   1.408   3.266
89091W        W54571  41.382  32.126   1.779
89092W        W54572  16.780  28.442   3.193
89093W        W54573  36.056  32.009  14.944
89094W        W54574  19.252  43.019   4.625
89095W        W54575  37.575   2.312  12.888
89096W        W54576  17.094   4.278   3.853
89097W        W54577  43.336  44.384   0.756
89098W        W54578  22.635  25.994  10.585
89099W        W54579  40.961   6.237   3.809
89100W        W54580   0.474  28.166   3.843
89101W        W54581  39.995   9.315  14.018
89102W        W54582  13.675  39.870   1.708
89103W        W54583  21.125  36.981  13.916
89104W        W54584  37.548  22.097   3.655
89105W        W54585  36.373   9.840  14.886
89106W        W54586  14.666  18.223   2.338
89107W        W54587  37.874  15.202  14.769
89108W        W54588  41.417  15.824   0.475
89109W        W54589   2.823  33.880  12.825
89110W        W54590  32.457  14.171  10.895
89111W        W54591  28.595   3.822  11.397
89112W        W54592  18.182   5.252  13.969
89113W        W54593   9.331   8.827  10.502
89114W        W54594  37.377   4.891   2.227
89115W        W54595  17.282  17.782  14.454
89116W        W54596   7.857  11.361  14.969
89117W        W54597  13.230  38.413   0.854
89118W        W54598  30.010  29.595   3.784
89119W        W54599  37.410  26.535  11.465
89120W        W54600   6.853   0.279   3.862
89121W        W54601  21.142  17.625   2.238
89122W        W54602  36.041   5.793  14.368
89123W        W54603  19.581  10.261  13.027
89124W        W54604  19.121  13.681  14.419
89125W        W54605  25.056  41.530   4.673
89126W        W54606  35.422   7.777  14.444
89127W        W54607  22.515   2.815   2.415
89128W        W54608  28.531  18.550   1.743
89129W        W54609  34.088  42.384  11.536
89130W        W54610  20.763  41.439  10.590
89131W        W54611  33.406  43.766  11.382
89132W        W54612  10.719   1.914  14.926
89133W        W54613   8.222  33.883  10.935
89134W        W54614  16.738  43.764   1.341
89135W        W54615  16.766   0.864   2.330
89136W        W54616   8.700  15.270  13.800
89137W        W54617  17.151  18.285  14.925
89138W        W54618  38.964  10.315  14.343
89139W        W54619   4.712  26.498  11.038
89140W        W54620  11.851  35.913   2.266
89141W        W54621   6.190  40.037  10.409
89142W        W54622  23.510   0.294   2.192
89143W        W54623  34.610  40.527  10.890
89144W        W54624  30.055  27.457  13.438
89145W        W54625   9.311  14.297   4.823
89146W        W54626   4.227   7.897  12.969
89147W        W54627   6.363  20.055  11.984
89148W        W54628  43.450  41.994  13.343
89149W        W54629   1.482   5.907   2.868
89150W        W54630   1.371  17.754   3.286
89151W        W54631  26.100  39.437  14.838
89152W        W54632   9.682   0.982   2.706
89153W        W54633  13.153  32.133   9.972
89154W        W54634   9.263  22.111  11.948
89155W        W54635   7.312  22.649  13.436
89156W        W54636   4.274   2.356  11.992
89157W        W54637   3.349  16.310  13.924
89158W        W54638  22.089  14.275   2.209
89159W        W54639  22.116  15.679   4.657
89160W        W54640  33.962  37.503  12.826
89161W        W54641  28.509   3.449  12.452
89162W        W54642  38.894  34.983   0.856
89163W        W54643  11.664  40.505  12.843
89164W        W54644  15.659   9.375  14.794
89165W        W54645   0.762   3.323   5.139
89166W        W54646   6.846   7.271   3.222
89167W        W54647  34.483  18.087  10.489
89168W        W54648  37.035  18.093   2.416
89169W        W54649  25.970  27.647  13.453
89170W        W54650  13.196  13.293  11.537
89171W        W54651  40.920   5.925   2.873
89172W        W54652  25.136  40.868  13.857
89173W        W54653  11.705  12.323   3.353
89174W        W54654  33.993  26.626  14.363
89175W        W54655   5.367  12.763   0.857
89176W        W54656  38.984  20.666  11.470
89177W        W54657  29.592  18.110   1.709
89178W        W54658  39.991  24.521   1.442
89179W        W54659  22.248  22.725   3.368
89180W        W54660   7.900  32.074   3.689
89181W        W54661  33.399  13.771   3.822
89182W        W54662  32.141  40.869   3.153
89183W        W54663  13.277  40.412   3.796
89184W        W54664  22.067  33.616   1.808
89185W        W54665  27.575  28.061   4.299
89186W        W54666  27.469  34.901  12.516
89187W        W54667  27.676  33.992   1.270
89188W        W54668  19.707  22.999   1.439
89189W        W54669  35.992  30.506  11.097
89190W        W54670  37.502   6.364   1.872
89191W        W54671   9.741   2.892   3.214
89192W        W54672  41.989  35.519  13.894
89193W        W54673   2.273   2.412   0.824
89194W        W54674   1.937  13.167  11.610
89195W        W54675  15.278   8.746  10.527
89196W        W54676  31.598  42.407   1.914
89197W        W54677  14.148  43.412  10.605
89198W        W54678  13.747   5.747   1.347
89199W        W54679  23.668  22.194  13.372
89200W        W54680  24.539  34.074  12.404
89201W        W54681   2.782  39.449  13.023
89202W        W54682  12.740  41.469   3.192
89203W        W54683  35.089  10.849  13.848
89204W        W54684  21.722  26.466   3.375
89205W        W54685   2.360  44.918   0.359
89206W        W54686  25.527  36.059  10.587
89207W        W54687   8.728  12.692  12.001
89208W        W54688  37.844   4.800  12.479
89209W        W54689   4.250  18.678   1.228
89210W        W54690  16.263  42.433   3.726
89211W        W54691  20.728  37.891  13.425
89212W        W54692   9.382  21.242   1.742
89213W        W54693  42.846  36.456   2.312
89214W        W54694  39.553  25.039  13.992
89215W        W54695  44.969  12.857  13.317
89216W        W54696  21.079  18.726  13.814
89217W        W54697  35.014  34.914   1.376
89218W        W54698  12.736   9.871   1.228
89219W        W54699  40.820  13.654  11.034
89220W        W54700  13.783  44.260   0.398
89221W        W54701  17.131  41.991  13.507
89222W        W54702  31.495  14.827  13.513
89223W        W54703   5.725  37.867  14.980
89224W        W54704  32.606  39.409   5.137
89225W        W54705   1.907   3.362  11.952
89226W        W54706  31.434  26.570   1.746
89227W        W54707   3.232  17.097   4.721
89228W        W54708  38.463  13.117   0.772
89229W        W54709   5.835  42.511   2.183
89230W        W54710  29.145  23.986   4.706
89231W        W54711  38.838  17.568   2.356
89232W        W54712  12.174  11.295  12.484
89233W        W54713  10.356  29.626  10.157
89234W        W54714   5.331  37.459  12.942
89235W        W54715  18.730  35.045   5.097
89236W        W54716  24.577   4.402   2.249
89237W        W54717  28.619  41.376  14.912
89238W        W54718  27.582  32.923  12.372
89239W        W54719  12.281  19.268   3.661
89240W        W54720  13.636  31.487   0.430
89241W        W54721  15.152  27.121   1.866
89242W        W54722  13.272  11.726   5.242
89243W        W54723  37.979  29.455   1.361
89244W        W54724  21.106  10.861   1.269
89245W        W54725  26.461  32.911  10.561
89246W        W54726  32.456   3.761   4.828
89247W        W54727  22.149   6.369   3.204
89248W        W54728  25.603  43.470   4.745
89249W        W54729  32.593  18.182  13.032
89250W        W54730  19.775  11.788   4.295
89251W        W54731  40.948  44.475   4.602
89252W        W54732  36.452  13.727   4.778
89253W        W54733   8.772  39.458  12.524
89254W        W54734  38.853  44.931   1.708
89255W        W54735  27.946  41.295   2.788
89256W        W54736  10.152  42.832  10.015
89257W        W54737  16.770  41.823   2.350
89258W        W54738   8.273   6.424   1.911
89259W        W54739   5.198   8.223   3.334
89260W        W54740  20.695  26.039  12.055
89261W        W54741  20.127  17.617   0.258
89262W        W54742  31.575  43.976   3.663
89263W        W54743  34.423  23.572   4.667
89264W        W54744  23.171  35.546   3.690
89265W        W54745  40.025  22.209  10.443
89266W        W54746  29.629  37.455   1.799
89267W        W54747  41.884   5.276   2.403
89268W        W54748  13.166  42.942   0.825
89269W        W54749  44.970  16.680   2.846
89270W        W54750   8.827  28.447  14.435
89271W        W54751  43.795  12.702  12.077
89272W        W54752   2.310   4.861   3.235
89273W        W54753   9.807  36.512   1.416
89274W        W54754  16.284  26.674   4.688
89275W        W54755  26.967  19.609   2.381
89276W        W54756  21.598  20.624  11.033
89277W        W54757  43.410  12.738   0.296
89278W        W54758  36.010  24.708  13.801
89279W        W54759   5.839  31.079  10.925
89280W        W54760  38.561   4.760   4.342
89281W        W54761  32.434  38.989   2.218
89282W        W54762  17.731  27.520   1.796
89283W        W54763  29.495  37.873  11.041
89284W        W54764  18.705  13.180  10.531
89285W        W54765  12.630   3.772   4.668
89286W        W54766  37.958   7.360   1.284
89287W        W54767  10.174  39.859   1.836
89288W        W54768  43.951  40.521   4.304
89289W        W54769  19.674  24.598   4.670
89290W        W54770  40.812  37.884   4.771
89291W        W54771  13.212  26.498   0.790
89292W        W54772  14.785  10.211  13.531
89293W        W54773  24.713  35.039  12.924
89294W        W54774  29.568  41.393   1.704
89295W        W54775  16.759  19.272   4.756
89296W        W54776  40.822  34.958   1.272
89297W        W54777  24.157  20.622   0.336
89298W        W54778  30.610  31.116   3.663
89299W        W54779   4.395   8.670  14.515
89300W        W54780  39.546  26.458   4.804
89301W        W54781  44.792  18.636   2.826
89302W        W54782  36.980  16.665  10.977
89303W        W54783  43.291  33.405  13.029
89304W        W54784  21.143  12.358  10.428
89305W        W54785   6.366  33.559   1.763
89306W        W54786  10.731   4.394  12.073
89307W        W54787  42.292  33.535   2.749
89308W        W54788  14.629  10.793   2.665
89309W        W54789  30.455  23.675   0.735
89310W        W54790  19.040  22.687   0.846
89311W        W54791   9.188  43.284   4.704
89312W        W54792  15.590  11.662   1.332
89313W        W54793  11.262  17.728   0.929
89314W        W54794  11.370  13.801   1.305
89315W        W54795  34.999  10.876  11.056
89316W        W54796  20.666  36.863   0.749
89317W        W54797  23.177  32.583   0.438
89318W        W54798  25.685  23.216   1.249
89319W        W54799  28.454   0.860   1.267
89320W        W54800  29.647  43.973   4.636
89321W        W54801  38.548  18.218  14.441
89322W        W54802  43.445  38.866   1.777
89323W        W54803  17.558  14.597  12.010
89324W        W54804  13.740  23.121  12.499
89325W        W54805  43.915  39.887   4.819
89326W        W54806  37.993  41.476   3.737
89327W        W54807  31.990  12.637  11.928
89328W        W54808  14.714  35.013  14.870
89329W        W54809  29.559  44.477   4.209
89330W        W54810  29.646  15.114  13.438
89331W        W54811   8.848  10.268  11.406
89332W        W54812   3.302   6.886  14.341
89333W        W54813  29.433   0.820   0.368
89334W        W54814  28.167   7.262  13.025
89335W        W54815   6.907  19.054  11.859
89336W        W54816  24.183  30.547  14.770
89337W        W54817  40.003   2.844   3.379
89338W        W54818  16.784   0.895  12.484
89339W        W54819  14.196  18.637  12.883
89340W        W54820   8.709  34.918  12.554
89341W        W54821  23.547  44.993  10.614
89342W        W54822   0.339  20.742  10.582
89343W        W54823  17.667  35.395  14.912
89344W        W54824  22.674  32.522   0.793
89345W        W54825  18.770  29.458  14.429
89346W        W54826   1.325  38.842   2.264
89347W        W54827  34.891  19.731  12.985
89348W        W54828  14.608  39.814   3.667
89349W        W54829  32.937  29.994   4.780
89350W        W54830  26.061  27.997   0.800
89351W        W54831  40.038  44.280   2.858
89352W        W54832  32.118  35.477   2.738
89353W        W54833  21.251  37.936   0.910
89354W        W54834   6.264   0.946   0.843
89355W        W54835  41.856  15.701   0.962
89356W        W54836  35.003  37.886  11.463
89357W        W54837  28.176  32.921   3.344
89358W        W54838  27.088   8.391  14.824
89359W        W54839  30.931  19.706   4.803
89360W        W54840  16.722  18.151   2.736
89361W        W54841  30.584  33.023  13.901
89362W        W54842  15.584  15.110  13.962
89363W        W54843   2.244   8.830   3.276
89364W        W54844   5.245   4.881  10.437
89365W        W54845   6.862  43.463   4.127
89366W        W54846  40.976   9.699  13.421
89367W        W54847  13.255   6.324  10.067
89368W        W54848   5.246  25.136  12.533
89369W        W54849  24.068  41.318  13.819
89370W        W54850  37.347  22.599  11.562
89371W        W54851   5.832  42.450   3.770
89372W        W54852  17.571  18.163   4.153
89373W        W54853  15.282  25.687  13.971
89374W        W54854  41.950  12.254   3.184
89375W        W54855   6.740  32.061   2.310
89376W        W54856   2.756  13.316  13.809
89377W        W54857   2.900  29.008  13.520
89378W        W54858  38.409  25.132   5.278
89379W        W54859  18.566  42.360   1.358
89380W        W54860  33.431  34.430  14.483
89381W        W54861   8.876   8.790  10.005
89382W        W54862  36.523  27.163   0.861
89383W        W54863  44.912  12.794  14.964
89384W        W54864   4.775  44.759  13.332
89385W        W54865   7.720  15.284   0.408
89386W        W54866  43.323  12.851   3.155
89387W        W54867  37.868  41.037  11.587
89388W        W54868   1.284  18.177   3.852
89389W        W54869  44.989   6.377   0.320
89390W        W54870   3.344  39.957   3.859
89391W        W54871  24.518  31.094  13.470
89392W        W54872  41.867  35.448   3.321
89393W        W54873   8.748  21.242  13.835
89394W        W54874   2.899  29.469  10.561
89395W        W54875  23.045   8.261  12.061
89396W        W54876  15.299  17.076  14.430
89397W        W54877  27.101  11.704   2.798
89398W        W54878  24.704   2.469   4.692
89399W        W54879  13.816  22.503  11.568
89400W        W54880  21.242  31.531  11.955
89401W        W54881  40.946  33.385  10.643
89402W        W54882  13.673  40.422   2.389
89403W        W54883  13.164   6.329  11.428
89404W        W54884   0.417   2.944   2.185
89405W        W54885   3.274  36.072   1.746
89406W        W54886   1.770   5.278   3.680
89407W        W54887  16.254  38.363   1.698
89408W        W54888  19.685  24.115   2.786
89409W        W54889   1.760   1.921   4.222
89410W        W54890  24.661  21.607   2.234
89411W        W54891  30.094   9.389   3.792
89412W        W54892  36.421   8.202   0.773
89413W        W54893   8.876  41.994  12.520
89414W        W54894   1.393  23.129   2.782
89415W        W54895  17.739  24.127  13.875
89416W        W54896  28.641  43.956   4.651
89417W        W54897   6.754  31.433  14.911
89418W        W54898   1.883  12.812   2.880
89419W        W54899  22.660  27.020   4.260
89420W        W54900   1.305  21.545  12.836
89421W        W54901  11.237  16.261   1.428
89422W        W54902   7.719   5.229   3.822
89423W        W54903  31.910  17.716   4.750
89424W        W54904  36.488   7.746   0.297
89425W        W54905  42.483  26.107  12.420
89426W        W54906  41.493  43.782  10.907
89427W        W54907  23.619  15.194  13.310
89428W        W54908   0.950  33.098   4.817
89429W        W54909  11.260  26.170  13.817
89430W        W54910   0.835  32.139  14.503
89431W        W54911  40.343  33.604  13.492
89432W        W54912  39.833  34.054   3.695
89433W        W54913  38.550  20.604  14.942
89434W        W54914  22.620  11.319  13.967
89435W        W54915  44.300   3.764   0.787
89436W        W54916  32.577  37.575  11.480
89437W        W54917   8.226  11.781   4.675
89438W        W54918  15.313  29.096   1.414
89439W        W54919   7.401  31.615   4.135
89440W        W54920  23.016   9.259  12.828
89441W        W54921  16.608   2.277  10.466
89442W        W54922  15.632  38.336  10.494
89443W        W54923  15.245  44.268  12.944
89444W        W54924   6.886  21.234  14.775
89445W        W54925  11.164  38.828   1.349
89446W        W54926  26.554  35.898  13.350
89447W        W54927   1.820  15.191  14.927
89448W        W54928  10.241  34.011   3.770
89449W        W54929  38.423  44.805   1.879
89450W        W54930  44.930   0.270   4.160
89451W        W54931  37.056  24.624   2.306
89452W        W54932   2.819   3.408   4.281
89453W        W54933  30.149  23.647   4.643
89454W        W54934  33.614  37.009   2.318
89455W        W54935  37.878  40.982  13.542
89456W        W54936  35.854  34.491  13.052
89457W        W54937  28.667  13.817  14.844
89458W        W54938  26.077  39.030   1.766
89459W        W54939  25.607  10.240  12.837
89460W        W54940  38.476  28.664   0.299
89461W        W54941  22.614  39.357   2.709
89462W        W54942  20.638  30.054  12.522
89463W        W54943  22.513   0.902   0.260
89464W        W54944   3.447   9.862   2.287
89465W        W54945   8.239  13.153   4.756
89466W        W54946  17.094  37.938  13.396
89467W        W54947  11.842   0.335   1.901
89468W        W54948  39.346  41.383  11.493
89469W        W54949  41.958  26.169   4.242
89470W        W54950   0.885  37.424   3.651
89471W        W54951   6.302  28.035  11.022
89472W        W54952   1.364  35.930   3.263
89473W        W54953  28.549   1.278   0.893
89474W        W54954  30.053  37.027  13.917
89475W        W54955  28.482  43.898  12.879
89476W        W54956  28.058  13.195  12.856
89477W        W54957  38.413  26.055  13.840
89478W        W54958  10.175  18.271  14.341
89479W        W54959  39.019  32.951   3.286
89480W        W54960  35.983  24.227  11.865
89481W        W54961   6.397  16.124   1.929
89482W        W54962  23.991  12.203   4.213
89483W        W54963  32.405   7.704  10.920
89484W        W54964  26.973  42.852  13.324
89485W        W54965  10.712   1.885  10.947
89486W        W54966  42.453  40.976   0.789
89487W        W54967   4.373  16.218   3.670
89488W        W54968   5.749  25.989   3.263
89489W        W54969  36.884  44.964  11.535
89490W        W54970  26.205  42.879  14.845
89491W        W54971  22.249   8.844  13.975
89492W        W54972  19.056  39.369  13.424
89493W        W54973  21.696  44.976   1.782
89494W        W54974   3.720  44.468   4.166
89495W        W54975  21.545  32.102   2.674
89496W        W54976  14.689  15.252  10.061
89497W        W54977  10.209  30.463   0.875
89498W        W54978   0.955  20.538  14.467
89499W        W54979  23.092   7.805   3.636
89500W        W54980   7.362  17.135   0.374
89501W        W54981   8.737  16.209   4.750
89502W        W54982  32.100   2.394  10.539
89503W        W54983  23.984  10.309  13.913
89504W        W54984  32.574  11.852   2.320
89505W        W54985  17.107  39.858  10.931
89506W        W54986  33.024  28.055   4.732
89507W        W54987  11.365  25.195  10.591
89508W        W54988  16.716   9.151  13.439
89509W        W54989   6.305  25.558  12.424
89510W        W54990  28.969   3.907  12.001
89511W        W54991   5.814   8.352  12.388
89512W        W54992  15.671  29.965  13.538
89513W        W54993  20.151  14.240  12.021
89514W        W54994  12.187  10.172   1.321
89515W        W54995   2.355  11.638   2.242
89516W        W54996  33.623  40.834  12.846
89517W        W54997  42.916  22.190  13.011
89518W        W54998  18.631  14.807  14.009
89519W        W54999  41.910  32.029   2.349
89520W        W55000  31.521  44.948   1.720
89521W        W55001  13.769  10.160   2.186
89522W        W55002   7.865   5.908  13.940
89523W        W55003   3.796  41.328  10.090
89524W        W55004  41.031   9.886   1.747
89525W        W55005  44.299  16.311  12.978
89526W        W55006   5.731  30.505  14.321
89527W        W55007  33.909  19.663  12.841
89528W        W55008  37.045  36.063  10.969
89529W        W55009   7.184  42.794   3.148
89530W        W55010  36.406  32.118  12.468
89531W        W55011   1.453  29.641  14.863
89532W        W55012   0.934  35.984   0.847
89533W        W55013  42.467  36.461  11.547
89534W        W55014  39.420  12.274   2.825
89535W        W55015  15.672  10.171   4.836
89536W        W55016  18.588  35.018   4.131
89537W        W55017   7.389   8.237   3.242
89538W        W55018   2.345  17.099  12.374
89539W        W55019  33.079  11.829   4.770
89540W        W55020   8.865   0.774  11.525
89541W        W55021  22.634   9.377   5.654
89542W        W55022   2.377  26.682   2.746
89543W        W55023  10.372   1.755  10.614
89544W        W55024  23.679   1.747  11.036
89545W        W55025  16.744  44.807  12.396
89546W        W55026  10.781  42.395   1.445
89547W        W55027  29.609   1.430  11.463
89548W        W55028  22.083  37.930   1.250
89549W        W55029  30.939  29.428  10.119
89550W        W55030  37.996   9.334  14.471
89551W        W55031  32.482  30.470  14.443
89552W        W55032  32.402   6.851  12.930
89553W        W55033   6.277  23.661   0.928
89554W        W55034   9.700  33.506   2.709
89555W        W55035  34.384  28.524  13.480
89556W        W55036  39.037  40.342   0.785
89557W        W55037  24.135  33.484   0.789
89558W        W55038  38.076  25.084  13.930
89559W        W55039   8.832  20.587   4.277
89560W        W55040   3.821  38.547   3.773
89561W        W55041   4.856  16.263   1.309
89562W        W55042   5.733  29.467   4.676
89563W        W55043  16.680  30.542  12.063
89564W        W55044   2.273  10.785  14.944
89565W        W55045  38.870  23.216  10.571
89566W        W55046  18.548  35.902  12.483
89567W        W55047  33.533  14.834  10.563
89568W        W55048  41.926  33.993  11.954
89569W        W55049  24.050   5.300  13.887
89570W        W55050  43.841  41.381   2.871
89571W        W55051  28.487  33.105   1.283
89572W        W55052   9.724  31.583  10.933
89573W        W55053  38.500   2.280  14.996
89574W        W55054   0.384   4.318  12.457
89575W        W55055  40.005  32.945   1.928
89576W        W55056  16.111  12.669  13.980
89577W        W55057  42.516   9.337   2.358
89578W        W55058   0.782  39.333  14.465
89579W        W55059  13.744   3.447   4.239
89580W        W55060  24.545  16.168  11.429
89581W        W55061  36.532  16.668  12.967
89582W        W55062  20.741  26.024  13.493
89583W        W55063   8.329   9.702   4.214
89584W        W55064  42.784  20.197   0.433
89585W        W55065  37.408   8.327   0.277
89586W        W55066  43.928   6.200  13.489
89587W        W55067  26.568   1.459  11.512
89588W        W55068  40.494   0.786  11.558
89589W        W55069  24.507   7.833  10.997
89590W        W55070   2.360  24.586   0.801
89591W        W55071   7.191  32.070  13.812
89592W        W55072  18.677  37.383   5.288
89593W        W55073  36.353  27.611   2.345
89594W        W55074  28.674   2.732  10.935
89595W        W55075  14.318  22.175   0.317
89596W        W55076  24.702  27.187  14.371
89597W        W55077  28.482  42.806   4.597
89598W        W55078  44.845  12.344   3.661
89599W        W55079  18.789  27.586  11.529
89600W        W55080  29.984  32.997  13.937
89601W        W55081  17.794  41.456  10.633
89602W        W55082  33.580  30.605   2.394
89603W        W55083   6.909   9.811   1.879
89604W        W55084  29.140  35.949  13.810
89605W        W55085   2.451  20.057   4.648
89606W        W55086  21.171  32.994  14.828
89607W        W55087  33.449  23.489   2.902
89608W        W55088  23.241   4.776  11.400
89609W        W55089  23.706  35.904  13.503
89610W        W55090  26.047  10.231  12.983
89611W        W55091  41.366  32.940  14.922
89612W        W55092  43.428  21.554  10.562
89613W        W55093  43.826  20.143  11.867
89614W        W55094  22.652  31.582   3.365
89615W        W55095   3.748  30.026   2.698
89616W        W55096   1.923  36.552  11.491
89617W        W55097  11.868  43.408  10.023
89618W        W55098  33.601  42.389  13.405
89619W        W55099  24.508   2.467   4.311
89620W        W55100   5.697   7.857   3.867
89621W        W55101  39.966  42.822   1.378
89622W        W55102  16.084   5.811   3.738
89623W        W55103  11.697  22.250  13.833
89624W        W55104  44.304  39.814  14.483
89625W        W55105   2.254  26.662   4.229
89626W        W55106  20.583  44.756   0.332
89627W        W55107  17.203  24.685   3.252
89628W        W55108   8.838  38.824  10.992
89629W        W55109  37.986   9.863   3.208
89630W        W55110  12.346  29.435  11.517
89631W        W55111   8.786   6.307   5.208
89632W        W55112   9.785  36.508   2.298
89633W        W55113  39.834  10.348  11.422
89634W        W55114  11.345  35.073  10.476
89635W        W55115  37.381  34.614  14.968
89636W        W55116  19.149   0.866  12.900
89637W        W55117  36.851  23.223  12.892
89638W        W55118  33.544  41.916  13.315
89639W        W55119   8.259  29.653   0.334
89640W        W55120  20.702   3.407  12.895
89641W        W55121  28.436  16.259  11.527
89642W        W55122   4.377   5.280   4.253
89643W        W55123   3.733  34.540   0.852
89644W        W55124  40.529  27.974  12.505
89645W        W55125  17.146  35.912   0.805
89646W        W55126  12.785   3.820   1.216
89647W        W55127  34.076  23.714   4.829
89648W        W55128  17.748  26.655  12.413
89649W        W55129  37.960  21.531   0.785
89650W        W55130  30.558  15.660   2.878
89651W        W55131  34.901  31.475   0.406
89652W        W55132  14.762  19.605   1.720
89653W        W55133  43.385  40.997   3.676
89654W        W55134   4.374  39.045  13.966
89655W        W55135   6.265   2.438   1.242
89656W        W55136  26.200   1.395   3.806
89657W        W55137   7.194  43.818   3.362
89658W        W55138  24.681  19.535   3.262
89659W        W55139  25.624  42.514   0.480
89660W        W55140   1.929  38.412  10.944
89661W        W55141  18.717   5.734   2.720
89662W        W55142   4.907  41.988  14.300
89663W        W55143  41.341  18.094  14.330
89664W        W55144  13.260  28.632  10.560
89665W        W55145   4.904   5.231  11.565
89666W        W55146   8.783  33.069  13.495
89667W        W55147   3.742  16.634   4.617
89668W        W55148  33.625   6.321   0.964
89669W        W55149   9.732  37.427   0.759
89670W        W55150  41.316   2.907  10.925
89671W        W55151  31.619  15.683   4.696
89672W        W55152  12.806   6.244   4.757
89673W        W55153  44.324  21.745   3.845
89674W        W55154  26.639  17.694  12.557
89675W        W55155   8.266  21.579   4.301
89676W        W55156  15.680  14.282   1.366
89677W        W55157  22.732  38.922   4.282
89678W        W55158  36.049   1.377   0.376
89679W        W55159   8.231  43.492   1.319
89680W        W55160  26.167  16.611  12.052
89681W        W55161  44.412   6.682  14.013
89682W        W55162  26.660  29.956  11.938
89683W        W55163  17.293   1.425   4.838
89684W        W55164  29.543  30.525   4.776
89685W        W55165  24.131  13.661  14.834
89686W        W55166  28.585  34.060  12.846
89687W        W55167  21.742  13.638  14.014
89688W        W55168   4.919  33.112   9.923
89689W        W55169  27.610  15.111  11.395
89690W        W55170  27.636   2.790  10.638
89691W        W55171  33.535  11.342  10.145
89692W        W55172  38.503  14.710   3.227
89693W        W55173  33.513   2.751   4.241
89694W        W55174   9.152   6.397   0.438
89695W        W55175  19.050  31.542  12.560
89696W        W55176   3.372   8.238  12.850
89697W        W55177   4.913   8.294   0.918
89698W        W55178  36.497  36.427   2.901
89699W        W55179  37.953  18.063   2.813
89700W        W55180  33.107  21.193  12.364
89701W        W55181  10.371  41.988  14.305
89702W        W55182   7.806  39.998  12.414
89703W        W55183  14.769  37.336   5.318
89704W        W55184  14.691  33.420  10.980
89705W        W55185  12.710  33.937   2.305
89706W        W55186  12.261  22.564  10.587
89707W        W55187  42.937  12.770  13.918
89708W        W55188  29.937  42.023   2.328
89709W        W55189   0.379  27.503  12.040
89710W        W55190  11.657  23.986   2.895
89711W        W55191   5.313   9.841   2.297
89712W        W55192  32.132   9.269   1.222
89713W        W55193  44.781   1.864   3.809
89714W        W55194  20.698  12.140   3.640
89715W        W55195   3.299   1.451  11.521
89716W        W55196   8.659  37.864  14.307
89717W        W55197  18.670  16.676  14.001
89718W        W55198  27.554   7.334  14.296
89719W        W55199  39.992  14.734   0.905
89720W        W55200  14.231  32.533   4.271
89721W        W55201  28.675  31.510   2.841
89722W        W55202  33.593  20.265   4.288
89723W        W55203   7.738  44.928   1.737
89724W        W55204  11.859  28.025   5.163
89725W        W55205  22.074  41.877  12.370
89726W        W55206  16.666  39.329   2.801
89727W        W55207   3.831   4.278   2.811
89728W        W55208   5.867   5.244   0.961
89729W        W55209   2.941   9.827   3.684
89730W        W55210  42.483  39.317  14.372
89731W        W55211  26.137  22.151   4.679
89732W        W55212  32.576  35.886   4.795
89733W        W55213  27.121   2.414  10.537
89734W        W55214  22.178  14.285   1.322
89735W        W55215   2.413  15.172   4.694
89736W        W55216   9.207  41.512   1.306
89737W        W55217   9.312  26.981  14.454
89738W        W55218  35.955  40.408  13.379
89739W        W55219  17.605  14.715  13.885
89740W        W55220  36.491  21.233  12.405
89741W        W55221  34.954  15.664   4.148
89742W        W55222  39.863  25.198   4.250
89743W        W55223  28.517  24.174  11.509
89744W        W55224  22.579   4.932   3.154
89745W        W55225  11.798   3.889   1.792
89746W        W55226   2.418  37.403   3.369
89747W        W55227   0.905  29.018   0.936
89748W        W55228   4.750  32.571   2.803
89749W        W55229  23.224  19.214   2.179
89750W        W55230  41.871  38.952   0.803
89751W        W55231  14.708  14.124   1.424
89752W        W55232  28.983  21.599  14.855
89753W        W55233  41.299  41.817   2.738
89754W        W55234  28.989   1.248  14.398
89755W        W55235   1.336   5.746  11.434
89756W        W55236  10.825   8.760  14.392
89757W        W55237  33.594   0.334  14.303
89758W        W55238  24.549  32.501  13.983
89759W        W55239  26.001  38.861  14.849
89760W        W55240  11.864  30.588   5.322
89761W        W55241  28.943   9.681   2.402
89762W        W55242  29.128  39.551  11.522
89763W        W55243  11.829  23.618  12.828
89764W        W55244  17.125  20.134  13.439
89765W        W55245   0.940  27.961  14.981
89766W        W55246  37.015  31.030  13.460
89767W        W55247  36.479   5.212   1.304
89768W        W55248  34.402  36.946   3.274
89769W        W55249   2.428  12.826   0.458
89770W        W55250  28.473  13.805   4.667
89771W        W55251   4.780  10.847   0.321
89772W        W55252  17.224   7.911  14.814
89773W        W55253  27.639  22.640  14.500
89774W        W55254   3.792   6.753  13.824
89775W        W55255   6.747  17.119   0.817
89776W        W55256  14.817  15.767   2.363
89777W        W55257  17.298   5.758   1.222
89778W        W55258  14.170  27.009   0.374
89779W        W55259  32.572  39.039  10.644
89780W        W55260   0.929  39.909   1.741
89781W        W55261  28.096  35.554   3.684
89782W        W55262  20.108  31.632  12.346
89783W        W55263  13.210  27.100  13.840
89784W        W55264  11.674  27.572  12.489
89785W        W55265  37.532  39.350   0.917
89786W        W55266  15.744  41.494  10.541
89787W        W55267  10.673  28.041   3.156
89788W        W55268   1.276  44.929  11.553
89789W        W55269   9.881   1.856  10.980
89790W        W55270  36.377  19.669  13.487
89791W        W55271  26.189   2.445  12.963
89792W        W55272  21.610  11.727  11.593
89793W        W55273  18.187   9.294  12.841
89794W        W55274   2.461  16.768   3.166
89795W        W55275  26.055  41.429   0.303
89796W        W55276   3.227   6.184  13.970
89797W        W55277  36.392   2.246   0.349
89798W        W55278  31.128  12.248  11.113
89799W        W55279   3.943  24.130   2.673
89800W        W55280   4.705  35.007  12.915
89801W        W55281  37.542  32.055   3.725
89802W        W55282  36.516  32.470  12.093
89803W        W55283  15.582   5.227  13.317
89804W        W55284   8.831  19.129  14.425
89805W        W55285  31.039  15.678   3.807
89806W        W55286   5.335  18.719  14.968
89807W        W55287  36.008  38.488  12.087
89808W        W55288   6.764  13.615   3.643
89809W        W55289   9.738  15.816   5.273
89810W        W55290   9.252  22.603  13.390
89811W        W55291  14.290   6.303   2.298
89812W        W55292  30.488  13.814  13.802
89813W        W55293  26.204  39.809  14.968
89814W        W55294   9.228  34.598   4.645
89815W        W55295  28.681  37.471   4.352
89816W        W55296  35.499  21.747   1.283
89817W        W55297  43.483  17.729   3.271
89818W        W55298  18.691  15.123   3.353
89819W        W55299  29.162  12.752   2.872
89820W        W55300   3.362  42.340  14.864
89821W        W55301  25.494  18.132   1.822
89822W        W55302  26.957  42.357  11.908
89823W        W55303  34.075  28.497   3.642
89824W        W55304  31.562  27.972  14.846
89825W        W55305  19.609  43.911   0.837
89826W        W55306  22.129  38.503   2.680
89827W        W55307   7.243  31.450   1.245
89828W        W55308  33.619  38.980  10.890
89829W        W55309  26.006   9.371   1.361
89830W        W55310   9.244   8.393  10.470
89831W        W55311  20.566   8.383  11.873
89832W        W55312  14.633  18.631   0.394
89833W        W55313  38.903  36.899  13.335
89834W        W55314  11.848  27.629   4.134
89835W        W55315   4.700  12.777  13.962
89836W        W55316  35.522   3.365  11.103
89837W        W55317  23.683  30.911   1.935
89838W        W55318   9.763  31.469  10.591
89839W        W55319  32.947  32.902   4.603
89840W        W55320  24.688  11.838  10.605
89841W        W55321  27.193   6.288   4.213
89842W        W55322  13.339   0.255  11.036
89843W        W55323  32.098   9.346   3.384
89844W        W55324  26.984  11.695   4.144
89845W        W55325  27.565  37.403  10.906
89846W        W55326  14.625  15.785  12.052
89847W        W55327   2.311   7.340   3.202
89848W        W55328  44.992   4.747  11.939
89849W        W55329  22.179  34.388   1.438
89850W        W55330  15.805  17.726   4.244
89851W        W55331  37.088  33.519   2.760
89852W        W55332  16.764  10.223  12.350
89853W        W55333   8.830   6.753  11.013
89854W        W55334  19.565  31.057  11.921
89855W        W55335  40.380  37.043   4.127
89856W        W55336   9.289  26.108   2.403
89857W        W55337   3.261   4.766   2.761
89858W        W55338  21.622  40.304   9.992
89859W        W55339  41.940   4.799   0.785
89860W        W55340  37.871  36.398  10.992
89861W        W55341  11.772  34.464   4.831
89862W        W55342  21.201  16.264   0.312
89863W        W55343  39.522  32.069  14.501
89864W        W55344  24.505   2.403   1.253
89865W        W55345   3.444   5.761   2.399
89866W        W55346  23.498  34.104  12.405
89867W        W55347  27.061  42.023   2.765
89868W        W55348   9.151  22.998   1.824
89869W        W55349  26.972  25.080   1.269
89870W        W55350   2.778  44.857  12.012
89871W        W55351  37.997   3.331  10.063
89872W        W55352  23.577  24.189  13.825
89873W        W55353  37.391  17.768   4.287
89874W        W55354   1.313  37.337   3.203
89875W        W55355  37.487  20.030  11.870
89876W        W55356  37.015  37.518  14.908
89877W        W55357  11.632  13.724   1.259
89878W        W55358  13.123  25.590   3.169
89879W        W55359  32.024  42.985   1.904
89880W        W55360  12.736  25.664  11.894
89881W        W55361  33.019  21.609   4.175
89882W        W55362  22.206   9.645  10.114
89883W        W55363   5.269  30.565  14.899
89884W        W55364  39.009  43.806   3.654
89885W        W55365  15.202   2.253   2.795
89886W        W55366  17.134  14.747  13.457
89887W        W55367  26.109  16.314   4.659
89888W        W55368  35.927  25.655  12.935
89889W        W55369  29.581  11.833  13.947
89890W        W55370  12.788  37.486  12.049
89891W        W55371   4.852  36.365   1.885
89892W        W55372  13.725  22.528   2.333
89893W        W55373  23.030  37.388  13.016
89894W        W55374  29.123  37.400   3.230
89895W        W55375  10.185   3.909   1.303
89896W        W55376   2.885  36.085   2.214
89897W        W55377   2.861  31.036  13.972
89898W        W55378  31.563  41.481   2.379
89899W        W55379   3.851  38.564  13.326
89900W        W55380   3.240  16.614  13.051
89901W        W55381  19.145  24.543  12.458
89902W        W55382  38.017  30.625   0.350
89903W        W55383   4.272  34.950   2.701
89904W        W55384  12.301  36.424   3.742
89905W        W55385  34.983  16.738  11.967
89906W        W55386  12.287   4.899   3.284
89907W        W55387  29.512  23.598  11.445
89908W        W55388   3.856  36.466   0.361
89909W        W55389  38.924  22.051  11.471
89910W        W55390  44.938   8.678  12.351
89911W        W55391  18.614  32.459  11.119
89912W        W55392  44.835  22.144   2.667
89913W        W55393   9.770  41.788  11.031
89914W        W55394   4.941  42.486   9.990
89915W        W55395  20.749  26.101  13.873
89916W        W55396   9.677  17.140   1.780
89917W        W55397  28.645  37.404   2.327
89918W        W55398  32.941  44.418   4.619
89919W        W55399  34.865  20.106  11.950
89920W        W55400  27.167  41.509  14.442
89921W        W55401   5.711  42.451  13.992
89922W        W55402  32.410   5.288   3.229
89923W        W55403  11.220  20.073   0.294
89924W        W55404  37.516   7.317   0.819
89925W        W55405  20.541  10.728   1.892
89926W        W55406  27.644   3.308   3.765
89927W        W55407  36.929  36.938   3.761
89928W        W55408  30.127  21.697   1.908
89929W        W55409  28.169  20.645   4.833
89930W        W55410  32.616  43.863   1.311
89931W        W55411   8.654  30.999   3.753
89932W        W55412   0.923  10.315  13.864
89933W        W55413  31.577   4.435  11.382
89934W        W55414  43.403  13.667   3.662
89935W        W55415  20.131   7.241   2.805
89936W        W55416  21.672  13.691   0.965
89937W        W55417   7.761  37.073  10.518
89938W        W55418  11.301  21.669  14.302
89939W        W55419   2.862  23.553   2.304
89940W        W55420  19.560  16.195   1.896
89941W        W55421  40.866   0.252  13.852
89942W        W55422   9.373  43.397  13.026
89943W        W55423  35.885  38.985   1.773
89944W        W55424  33.909  35.382   3.851
89945W        W55425  12.780  19.192  13.487
89946W        W55426  30.539  33.069  12.027
89947W        W55427   8.658  25.527  13.896
89948W        W55428   8.179  21.041   2.415
89949W        W55429  42.821  22.136   4.813
89950W        W55430  34.568   6.293   4.280
89951W        W55431  31.091  37.932  11.039
89952W        W55432  19.604  21.559   1.351
89953W        W55433  14.827  12.344   1.233
89954W        W55434  28.033  12.807  12.573
89955W        W55435  39.976  43.501  11.938
89956W        W55436  29.454   5.779  12.876
89957W        W55437  41.368  11.739  13.447
89958W        W55438  35.376  41.494   4.646
89959W        W55439   8.779  36.551   0.813
89960W        W55440  17.240  33.944  14.345
89961W        W55441   6.240   8.842   5.165
89962W        W55442  35.416   3.217   2.386
89963W        W55443  10.687  20.561  12.483
89964W        W55444  10.333  26.637  10.619
89965W        W55445  18.546  13.677   3.741
89966W        W55446  38.406  17.295  13.930
89967W        W55447   9.889  41.380  13.430
89968W        W55448   2.914   2.264   0.269
89969W        W55449  32.536  33.425   4.166
89970W        W55450  43.953  12.270  12.065
89971W        W55451   4.922  16.642   4.199
89972W        W55452  35.489  41.994   2.680
89973W        W55453  29.652   0.784  14.285
89974W        W55454  19.069  42.945  12.961
89975W        W55455   7.817  39.400   2.834
89976W        W55456  33.990  16.768  10.982
89977W        W55457  14.321   3.285  14.403
89978W        W55458  13.635  22.693  13.350
89979W        W55459  24.610  16.630   0.404
89980W        W55460  18.240  15.742  14.018
89981W        W55461  34.961  41.042   0.877
89982W        W55462   7.847  39.925  13.826
89983W        W55463  32.562   9.323   0.300
89984W        W55464  44.971   3.743   1.698
89985W        W55465  35.041  22.179  14.325
89986W        W55466  42.432   1.894   2.833
89987W        W55467  38.485  41.854  12.562
89988W        W55468  43.356  40.503  12.886
89989W        W55469  33.898  13.711   2.746
89990W        W55470  44.807  17.255   2.841
89991W        W55471  11.776   7.707   2.845
89992W        W55472  37.547  16.144  10.939
89993W        W55473  24.112  23.515   0.862
89994W        W55474  28.510   3.955  10.419
89995W        W55475  11.868  29.165  14.016
89996W        W55476  28.961  22.581   4.786
89997W        W55477  10.682  17.278   4.296
89998W        W55478  40.984  25.568  12.837
89999W        W55479  34.949   6.320  13.910
90000W        W55480  34.476  34.555  10.533
90001W        W55481  14.242   6.823  11.104
90002W        W55482  15.657  11.297   3.813
90003W        W55483  29.022  16.308  12.439
90004W        W55484  39.855  11.830   4.157
90005W        W55485  25.672  13.641   2.377
90006W        W55486  21.128  36.994   4.718
90007W        W55487  12.817  31.921   3.370
90008W        W55488  24.129   8.806   2.339
90009W        W55489   9.324  10.694  11.863
90010W        W55490  39.529  26.107  12.827
90011W        W55491  27.033  40.051  12.837
90012W        W55492  30.937  30.565  13.926
90013W        W55493  31.466  31.118  12.549
90014W        W55494  15.085  18.152   0.283
90015W        W55495  32.550   4.271   1.702
90016W        W55496   9.179   0.256   1.877
90017W        W55497  43.877  29.518  13.401
90018W        W55498  44.296  28.148   0.459
90019W        W55499  36.958  14.776   1.891
90020W        W55500  39.503  16.139  14.329
90021W        W55501  37.391  32.027  13.497
90022W        W55502  18.101  36.494   3.812
90023W        W55503  39.558   9.660   2.860
90024W        W55504  14.288  23.551  12.006
90025W        W55505   5.367   3.940   2.892
90026W        W55506  39.400  44.452  14.304
90027W        W55507  37.347  42.390   0.362
90028W        W55508  15.084  39.820  10.904
90029W        W55509  32.137  17.144   4.222
90030W        W55510  34.895   8.803  12.090
90031W        W55511   2.853   4.276  13.852
90032W        W55512  14.728  19.148  13.837
90033W        W55513  36.027  22.605  13.000
90034W        W55514  31.420  34.076   1.880
90035W        W55515  31.474  43.385   1.911
90036W        W55516  33.075  13.293  14.323
90037W        W55517  27.998  31.007   0.726
90038W        W55518   6.681  19.115   4.634
90039W        W55519   8.738   5.769   4.713
90040W        W55520  28.150  17.717   3.653
90041W        W55521  14.674   8.746  11.496
90042W        W55522  24.515  32.603   1.883
90043W        W55523  39.008   6.872  13.849
90044W        W55524  22.060  42.370   2.903
90045W        W55525  44.364  30.475   5.266
90046W        W55526  44.296  31.578   3.686
90047W        W55527  31.017   6.244  10.492
90048W        W55528  12.341   5.851   3.725
90049W        W55529  13.209   2.936   3.330
90050W        W55530  10.695   7.671   1.776
90051W        W55531  41.305  13.211  12.876
90052W        W55532  12.673   5.922  13.791
90053W        W55533  43.963   3.343  13.050
90054W        W55534  39.990   4.739   3.808
90055W        W55535   2.232  35.564   4.340
90056W        W55536  19.110  44.286   1.369
90057W        W55537  29.117   6.837  12.032
90058W        W55538  40.950   7.248   1.903
90059W        W55539   3.406  10.318  10.504
90060W        W55540  44.445  43.789   4.207
90061W        W55541  27.532  33.564  11.997
90062W        W55542  20.243  22.720   0.781
90063W        W55543   9.197  10.199   0.954
90064W        W55544  38.343  44.928  12.071
90065W        W55545  43.842  37.924   1.786
90066W        W55546  20.629  38.480   4.784
90067W        W55547  39.327  14.771  14.925
90068W        W55548  42.887  23.583  13.864
90069W        W55549   3.810  30.939  10.599
90070W        W55550   3.329  35.583   2.271
90071W        W55551  26.175   0.404  10.510
90072W        W55552  36.463  22.044  14.913
90073W        W55553   7.812   9.297  14.360
90074W        W55554  12.643  22.133   4.166
90075W        W55555   2.269  10.705  12.071
90076W        W55556   6.359  43.997   4.703
90077W        W55557  31.143  25.560   2.311
90078W        W55558   4.791  19.224   2.339
90079W        W55559  24.519  26.103  14.863
90080W        W55560  21.143  16.588   9.990
90081W        W55561  39.348  17.712  14.951
90082W        W55562  32.139  20.071  10.459
90083W        W55563  13.616  17.750   4.784
90084W        W55564  10.782  22.163  14.425
90085W        W55565  38.509  22.588   1.738
90086W        W55566  36.528  18.601   0.289
90087W        W55567  33.445  17.154  13.520
90088W        W55568  37.902  13.306   3.788
90089W        W55569   7.224  11.343  11.974
90090W        W55570  40.421  35.514  12.400
90091W        W55571  32.899  30.086   2.758
90092W        W55572  25.536   0.772   4.626
90093W        W55573   3.240  10.774  10.897
90094W        W55574  42.850  43.833   2.373
90095W        W55575  10.221   2.370   3.701
90096W        W55576  28.533  40.499   3.842
90097W        W55577   6.376   5.412  12.060
90098W        W55578  15.282   8.206   2.188
90099W        W55579  41.912  13.700   1.302
90100W        W55580  27.477  44.886  12.361
90101W        W55581  29.623   1.824  10.944
90102W        W55582  13.172  39.017  13.872
90103W        W55583  13.279  39.334   2.396
90104W        W55584  25.556  35.041  10.560
90105W        W55585  10.698  39.469  12.496
90106W        W55586  24.137  35.527   0.806
90107W        W55587  33.484  11.861  14.291
90108W        W55588   1.949   5.845  13.968
90109W        W55589  10.668  16.578   3.190
90110W        W55590   2.412   3.335  12.889
90111W        W55591  19.188   8.317  12.071
90112W        W55592  15.222  44.007  14.326
90113W        W55593  21.647   5.718  10.404
90114W        W55594   7.302  37.573  14.973
90115W        W55595  12.334   5.283  12.466
90116W        W55596   7.759  36.918   2.216
90117W        W55597  33.626  30.584   0.261
90118W        W55598  36.554   0.787   0.360
90119W        W55599  44.760   5.899  11.483
90120W        W55600   3.340  15.119   4.299
90121W        W55601  25.218  28.131   4.810
90122W        W55602  27.093  33.094  11.560
90123W        W55603  34.461  40.322   1.919
90124W        W55604  26.561  10.339  14.430
90125W        W55605  27.151  25.487   4.173
90126W        W55606   1.965  39.054   4.218
90127W        W55607  25.181  17.302   0.243
90128W        W55608   3.913  24.479  10.906
90129W        W55609  25.980  37.563   0.292
90130W        W55610  38.384  10.224   1.743
90131W        W55611   5.275  34.111  12.462
90132W        W55612  38.921  29.664   1.298
90133W        W55613  33.490  39.944   2.857
90134W        W55614  43.291  28.509   4.657
90135W        W55615  44.831  14.172  13.330
90136W        W55616  10.156  29.011   0.324
90137W        W55617  33.877  25.085  12.065
90138W        W55618  29.632  44.767  11.053
90139W        W55619   6.231   9.371   0.321
90140W        W55620  13.342  38.368   3.757
90141W        W55621   4.822  22.223  14.364
90142W        W55622  43.932  38.819  14.940
90143W        W55623  10.833  12.793   1.840
90144W        W55624  14.599  20.031  11.857
90145W        W55625   6.420  41.321  10.931
90146W        W55626   6.318   8.736   1.373
90147W        W55627  44.477  28.587  13.925
90148W        W55628  27.045  37.475  11.047
90149W        W55629  42.809  34.447  13.836
90150W        W55630  12.619  30.128   1.931
90151W        W55631  11.721  20.614   2.193
90152W        W55632  26.042  39.842   3.293
90153W        W55633  10.840  38.418  12.841
90154W        W55634  23.648   9.870   0.370
90155W        W55635  17.756  33.550  14.814
90156W        W55636  38.987  32.437  14.803
90157W        W55637  22.576   3.779   4.665
90158W        W55638  40.459  43.864   0.942
90159W        W55639  38.387  42.375  12.411
90160W        W55640  13.824   5.425   1.395
90161W        W55641  26.655  32.569   2.701
90162W        W55642  14.210  25.209  11.535
90163W        W55643   5.915  31.951  14.426
90164W        W55644  17.225  42.873   0.325
90165W        W55645   1.285  15.126  11.503
90166W        W55646   3.837  25.617   3.870
90167W        W55647  21.513  30.499  12.836
90168W        W55648  16.635  33.053  13.913
90169W        W55649  17.259   7.315   1.391
90170W        W55650  27.967  30.141   3.718
90171W        W55651  40.938  17.111   4.663
90172W        W55652  35.403  28.988   2.304
90173W        W55653  32.085  40.957   5.795
90174W        W55654  19.533  28.555   2.901
90175W        W55655  27.458  13.715  10.999
90176W        W55656  10.312  30.956   4.207
90177W        W55657  28.061  18.696  10.073
90178W        W55658  31.032   5.222   2.328
90179W        W55659  39.898  20.727  14.927
90180W        W55660  15.311  37.472   1.812
90181W        W55661  11.269  11.635  14.808
90182W        W55662  14.740  41.492  14.449
90183W        W55663   5.262   3.846   4.787
90184W        W55664  43.878  12.754   0.766
90185W        W55665  20.684  25.991  11.579
90186W        W55666   6.797  44.940   0.434
90187W        W55667   3.348  18.667   4.726
90188W        W55668  43.348  26.077   2.415
90189W        W55669  15.122  10.353   1.266
90190W        W55670  44.294  11.727   1.854
90191W        W55671  44.758  23.076  14.863
90192W        W55672  16.127   5.809   0.246
90193W        W55673  21.694  32.501  14.783
90194W        W55674   2.229  38.483   1.703
90195W        W55675   8.864  26.151   4.830
90196W        W55676  19.110   3.382   2.829
90197W        W55677  16.767  33.476  12.056
90198W        W55678  20.609   4.865  14.804
90199W        W55679  15.245   1.778   4.675
90200W        W55680  11.175  15.801   0.807
90201W        W55681  12.201  10.763  13.400
90202W        W55682  37.929  14.175   4.737
90203W        W55683  33.578   0.285   1.390
90204W        W55684  43.384  29.096  14.450
90205W        W55685  37.966  39.814  13.839
90206W        W55686  44.505  30.988  14.826
90207W        W55687  33.436   0.340  13.979
90208W        W55688  20.234  14.612  10.634
90209W        W55689  42.832  11.355  10.621
90210W        W55690  11.677  17.697  13.959
90211W        W55691  23.101  23.595  14.465
90212W        W55692  41.024  33.467   1.822
90213W        W55693   2.778  43.825  13.899
90214W        W55694  27.626  44.374   2.746
90215W        W55695   2.294   2.436   4.171
90216W        W55696  43.465   2.964  10.558
90217W        W55697  27.980  38.564   0.483
90218W        W55698  34.985   7.297  12.054
90219W        W55699   4.803  29.964  13.364
90220W        W55700  22.092  44.770   3.278
90221W        W55701  18.774  16.709   2.369
90222W        W55702  35.097   5.303  14.311
90223W        W55703  25.989   3.267   1.760
90224W        W55704  40.894  41.820   4.280
90225W        W55705   2.395  38.911   4.210
90226W        W55706  21.035  16.149   4.271
90227W        W55707  24.194   2.740   5.316
90228W        W55708  17.659   1.391  11.068
90229W        W55709   3.711  13.274  12.461
90230W        W55710  44.320  12.290  13.411
90231W        W55711  15.806  31.450  13.059
90232W        W55712  22.677  13.632  12.575
90233W        W55713  44.498  17.612   4.818
90234W        W55714  19.231  10.375  11.911
90235W        W55715  14.125  19.614  14.907
90236W        W55716   0.943  13.738  14.321
90237W        W55717   1.273  10.758  13.458
90238W        W55718  38.912  40.494  11.026
90239W        W55719  37.878  11.673   1.409
90240W        W55720   2.731  21.650  13.846
90241W        W55721   2.402  25.070  10.159
90242W        W55722   7.773  15.111   0.904
90243W        W55723   9.184   7.903  11.875
90244W        W55724  36.855  44.322  11.477
90245W        W55725  21.602  16.760   3.329
90246W        W55726  14.286  42.440   2.797
90247W        W55727   7.728   2.860  10.944
90248W        W55728  39.997  37.893   2.261
90249W        W55729  17.570  29.561   2.220
90250W        W55730  28.076   1.818   2.338
90251W        W55731  21.242  26.077   0.439
90252W        W55732  17.097  37.843   4.131
90253W        W55733  26.519  18.089  13.799
90254W        W55734  15.118  12.731   2.840
90255W        W55735   7.313   1.813   4.349
90256W        W55736   6.277  32.988   4.619
90257W        W55737  23.129  33.894  11.098
90258W        W55738  32.421   1.239  12.554
90259W        W55739  29.435  29.597   3.781
90260W        W55740  32.925  16.627  11.540
90261W        W55741  17.239   3.378  13.979
90262W        W55742  42.945  22.140   2.768
90263W        W55743  38.466  26.125  13.530
90264W        W55744  39.917  10.362   3.191
90265W        W55745  43.913   2.770   4.664
90266W        W55746  36.029  31.929   1.790
90267W        W55747  20.049  35.421  11.884
90268W        W55748  39.027   0.465  13.009
90269W        W55749  41.014  29.561   3.786
90270W        W55750   0.969  21.258  14.323
90271W        W55751  34.466  42.321  14.970
90272W        W55752  40.998  43.272  12.929
90273W        W55753  38.962  43.913   2.266
90274W        W55754  34.934  24.188  12.993
90275W        W55755   8.753  30.052  12.394
90276W        W55756  40.987  31.071  11.891
90277W        W55757  35.048  14.231  11.588
90278W        W55758  11.273  26.650  12.960
90279W        W55759  24.662   4.825   4.316
90280W        W55760  20.183  43.458  10.562
90281W        W55761  11.841   6.889  10.968
90282W        W55762   4.915  40.398   2.231
90283W        W55763  39.810   6.229   1.446
90284W        W55764  16.713  35.364   5.117
90285W        W55765  22.655  26.587   5.177
90286W        W55766   7.880  32.969   4.739
90287W        W55767  27.010  27.473   4.137
90288W        W55768  27.456  40.347  12.047
90289W        W55769  31.475  30.528  12.833
90290W        W55770   0.398  35.601   1.382
90291W        W55771  22.629  26.608  12.396
90292W        W55772  28.572  28.656   2.337
90293W        W55773  22.667  27.972   2.281
90294W        W55774  36.915  25.151   4.673
90295W        W55775  16.082   5.260  11.992
90296W        W55776  36.567  25.470  11.419
90297W        W55777  19.147  33.611   3.373
90298W        W55778  42.891  16.250  10.919
90299W        W55779  15.615  40.317   0.772
90300W        W55780  31.561  10.290   3.725
90301W        W55781  24.156  33.467  13.539
90302W        W55782  31.916  25.020   3.858
90303W        W55783  14.266  44.267  12.449
90304W        W55784  13.778  37.070   3.820
90305W        W55785  33.004  43.352  10.438
90306W        W55786  33.924  33.398  14.457
90307W        W55787  35.529  28.585   0.390
90308W        W55788  38.967   6.906  13.462
90309W        W55789  38.047  41.446   2.202
90310W        W55790  20.264  15.679   3.232
90311W        W55791  21.032  39.967  11.029
90312W        W55792  34.555   3.836  14.363
90313W        W55793  43.450  31.574   2.413
90314W        W55794   3.254  31.950  13.307
90315W        W55795  17.178  24.134  10.926
90316W        W55796  25.538  41.415   1.307
90317W        W55797  26.645  10.844   0.264
90318W        W55798  43.973  27.125   4.788
90319W        W55799  11.287  17.702  12.368
90320W        W55800   1.875  34.076   1.794
90321W        W55801  44.996  35.050  13.323
90322W        W55802  44.422   4.225   3.849
90323W        W55803  30.419  22.565  13.381
90324W        W55804   6.354  28.149   1.358
90325W        W55805  38.924  43.354  11.508
90326W        W55806  18.789  23.181  14.973
90327W        W55807  23.240  19.647  13.043
90328W        W55808  31.503  44.921  14.297
90329W        W55809  44.761  23.129  14.326
90330W        W55810  24.576  14.270  11.465
90331W        W55811  38.443  21.583   1.806
90332W        W55812  19.537  25.534   1.798
90333W        W55813  17.258   6.717  11.939
90334W        W55814   2.412   8.688  10.913
90335W        W55815   4.390  15.725  14.805
90336W        W55816  38.827  39.372   1.854
90337W        W55817  13.803  44.994   0.886
90338W        W55818  27.569  14.795   4.196
90339W        W55819  23.721  11.687   2.288
90340W        W55820   9.168  13.784   1.903
90341W        W55821   3.745  31.432  11.859
90342W        W55822   7.808  12.636  10.602
90343W        W55823  16.275  31.951   0.791
90344W        W55824  18.641  33.088  12.904
90345W        W55825  44.315  14.213   4.168
90346W        W55826  12.699  34.505   3.788
90347W        W55827  26.957  36.386  14.481
90348W        W55828   3.450  31.139   1.840
90349W        W55829  30.552  42.961  12.504
90350W        W55830  17.668  31.916  11.402
90351W        W55831  30.033  28.456   3.170
90352W        W55832  23.166   5.402   0.876
90353W        W55833  41.333  25.017   4.702
90354W        W55834   8.385  12.179  10.534
90355W        W55835  14.296  15.784  12.344
90356W        W55836  29.100  37.981  12.439
90357W        W55837  40.526  33.616  10.477
90358W        W55838  40.849  38.508  14.403
90359W        W55839  11.834  33.571   2.193
90360W        W55840  20.271  38.988  13.352
90361W        W55841  22.652  14.831   2.307
90362W        W55842  23.736   2.857   1.719
90363W        W55843   7.176   8.288  13.977
90364W        W55844  11.636   4.278  12.492
90365W        W55845  42.357  37.833   4.771
90366W        W55846  44.763   5.338   3.146
90367W        W55847   3.832  14.631   1.899
90368W        W55848  29.049  22.096  14.434
90369W        W55849   7.749  24.673   0.377
90370W        W55850   0.357   3.227  12.986
90371W        W55851  27.065  12.165   3.778
90372W        W55852  11.730  40.532   1.254
90373W        W55853   0.406  16.630  14.377
90374W        W55854  30.118  12.200  11.003
90375W        W55855  26.175   5.430  14.430
90376W        W55856  26.589  43.974  13.497
90377W        W55857   9.782  17.079   0.759
90378W        W55858  21.262  25.623  14.427
90379W        W55859  22.075   7.686   0.374
90380W        W55860   4.328  14.760  12.880
90381W        W55861  31.975   8.896  14.295
90382W        W55862  25.061   8.692  13.394
90383W        W55863  32.951  23.186   2.388
90384W        W55864  11.627  26.150  12.924
90385W        W55865   1.437  11.692   4.808
90386W        W55866   9.855  10.690   3.784
90387W        W55867  22.072  16.122   0.855
90388W        W55868  25.612  31.561   1.703
90389W        W55869  24.218   2.450   1.303
90390W        W55870   4.240  22.696   2.315
90391W        W55871  17.802   4.316  10.465
90392W        W55872   6.378  10.210   1.313
90393W        W55873   1.277  28.041   2.381
90394W        W55874   7.897  16.207   4.144
90395W        W55875  21.152  20.216  14.424
90396W        W55876  27.021  18.208  14.297
90397W        W55877   4.440  22.725   3.258
90398W        W55878  35.904  30.649   1.813
90399W        W55879   8.784  15.113   3.247
90400W        W55880  32.405  26.619  11.025
90401W        W55881  33.083   0.955  14.486
90402W        W55882  12.792  23.527   1.239
90403W        W55883  28.451  43.277  14.351
90404W        W55884   7.285   2.315  14.853
90405W        W55885  23.010  20.735  13.461
90406W        W55886  28.959  19.169   4.322
90407W        W55887  17.653  42.336   1.753
90408W        W55888  24.491   7.301   1.810
90409W        W55889  31.616  14.108  14.299
90410W        W55890  41.506  12.621  14.408
90411W        W55891  38.472  19.734  10.554
90412W        W55892  21.599  11.627   0.783
90413W        W55893  18.647  27.106   2.725
90414W        W55894  11.848  26.124  13.405
90415W        W55895  16.100  14.747  14.917
90416W        W55896  44.325   1.419  13.879
90417W        W55897  34.426  16.243   3.661
90418W        W55898  35.391   0.255   0.314
90419W        W55899   7.768  26.645   5.117
90420W        W55900  39.827  13.127   2.220
90421W        W55901  12.830  37.405   5.298
90422W        W55902  13.793  39.061  12.009
90423W        W55903  41.363  28.990   3.636
90424W        W55904  12.268  39.405  13.356
90425W        W55905  16.580  33.977  14.005
90426W        W55906   4.281   2.379  12.508
90427W        W55907  26.075   2.825   2.720
90428W        W55908  23.075  44.437  14.808
90429W        W55909  29.439  33.042   0.396
90430W        W55910  12.791  23.655   0.951
90431W        W55911  10.188  36.960  10.065
90432W        W55912  12.825  37.946  13.524
90433W        W55913   1.947  41.355  12.067
90434W        W55914  21.669  34.492  12.476
90435W        W55915  34.958  37.341  11.589
90436W        W55916  13.129   7.176  11.911
90437W        W55917  11.818   2.772  14.471
90438W        W55918   8.357  13.208   2.890
90439W        W55919  35.480  23.997  10.428
90440W        W55920  39.007   9.778   2.807
90441W        W55921   9.838  10.706   1.252
90442W        W55922  13.317  17.668   3.647
90443W        W55923  30.529  12.203   3.767
90444W        W55924  13.663   9.742   4.704
90445W        W55925  28.929  39.354   5.689
90446W        W55926  13.242  35.992   0.854
90447W        W55927  14.179  11.307  13.327
90448W        W55928  25.128  44.300  12.567
90449W        W55929  23.689  33.578  12.481
90450W        W55930  43.973  26.697  10.154
90451W        W55931  32.005   9.660   2.304
90452W        W55932  15.214  24.624  12.442
90453W        W55933  40.325  36.537  12.536
90454W        W55934  16.578  13.663  11.989
90455W        W55935   3.274  18.609  13.494
90456W        W55936  33.600  25.967  10.083
90457W        W55937  34.457  41.444   1.317
90458W        W55938   7.357  42.781  14.377
90459W        W55939  24.576   2.861  13.413
90460W        W55940   1.962  20.029  14.976
90461W        W55941   7.274  30.432  14.406
90462W        W55942  42.873  11.700   0.320
90463W        W55943   2.788   7.758  11.909
90464W        W55944  40.331   2.255  11.083
90465W        W55945  23.620  10.671  11.473
90466W        W55946  25.614  11.212  13.463
90467W        W55947  33.455  27.536  12.345
90468W        W55948  32.566  15.222   4.114
90469W        W55949  11.312  36.416  13.854
90470W        W55950  11.213  35.425   1.215
90471W        W55951   6.915  19.586   3.775
90472W        W55952  40.827  32.626  10.417
90473W        W55953   9.702  27.946   3.145
90474W        W55954  23.006  14.294   3.813
90475W        W55955  21.645  13.634  11.873
90476W        W55956  43.486   7.384   0.802
90477W        W55957  15.128  11.856   2.762
90478W        W55958  12.693  42.519   1.871
90479W        W55959   1.291  33.001  12.968
90480W        W55960  15.114   9.746  13.513
90481W        W55961  27.179  36.914  13.494
90482W        W55962  30.148   4.800   3.857
90483W        W55963   3.728  23.009   1.724
90484W        W55964   1.309  32.559   4.302
90485W        W55965   0.884   5.339   1.830
90486W        W55966  16.114  28.601  11.025
90487W        W55967  33.453  42.968  11.900
90488W        W55968  35.534  10.696   3.687
90489W        W55969  37.391  17.767  10.960
90490W        W55970  21.598  10.149   3.826
90491W        W55971  19.767  21.216   0.762
90492W        W55972   0.914   9.719   3.320
90493W        W55973  32.900  18.730   4.828
90494W        W55974  15.156  12.641   4.264
90495W        W55975  19.241   1.904   1.928
90496W        W55976   5.415  19.592   4.616
90497W        W55977   2.872   3.717   2.719
90498W        W55978  41.869   7.803  13.848
90499W        W55979   3.718   1.291   4.251
90500W        W55980  38.980  40.935  14.821
90501W        W55981  43.793  18.666   2.797
90502W        W55982   6.251  32.944  10.429
90503W        W55983  35.013   0.960   4.619
90504W        W55984  14.640  40.349  12.447
90505W        W55985  28.144  19.050   2.238
90506W        W55986  31.900  19.741   4.804
90507W        W55987  36.989  36.864  11.556
90508W        W55988  12.214  40.049   4.315
90509W        W55989   8.831  44.783  11.000
90510W        W55990  23.605  31.132  13.392
90511W        W55991   1.273   6.394  13.481
90512W        W55992  43.489  41.456  11.509
90513W        W55993  13.786  27.535   3.218
90514W        W55994   6.375   4.269  10.609
90515W        W55995  26.972  43.980  14.466
90516W        W55996  11.850  33.419   0.799
90517W        W55997   8.657  15.683   2.788
90518W        W55998  31.136  14.694  14.789
90519W        W55999  14.687  37.336  14.417
90520W        W56000   2.369   8.877  14.855
90521W        W56001  17.755  28.095   2.685
90522W        W56002  37.986  34.973   4.133
90523W        W56003  40.322  30.907   3.318
90524W        W56004  37.927  31.088  11.085
90525W        W56005  43.982  39.005   3.864
90526W        W56006  14.662  32.468   1.821
90527W        W56007   1.451  18.567   2.891
90528W        W56008  30.023  25.161  11.572
90529W        W56009  44.474  32.427   0.753
90530W        W56010   3.403  20.631   4.748
90531W        W56011   1.402  18.080   3.351
90532W        W56012  29.949   0.461  11.911
90533W        W56013   6.907   6.796  11.438
90534W        W56014   5.328  19.667   0.860
90535W        W56015  17.215  19.192   2.235
90536W        W56016  31.109  26.603   1.774
90537W        W56017  31.551  12.777  11.013
90538W        W56018  30.059  13.147   0.862
90539W        W56019  39.422  31.618  13.849
90540W        W56020   5.261  19.165   4.309
90541W        W56021  37.063  29.538   4.753
90542W        W56022  34.001   4.804  11.451
90543W        W56023  24.991  19.678  13.854
90544W        W56024   3.220  22.097  11.004
90545W        W56025   5.246   2.752   2.698
90546W        W56026  38.409  40.377  12.845
90547W        W56027  36.859  20.534  13.929
90548W        W56028  29.139  15.747  13.926
90549W        W56029  40.897  20.545   2.228
90550W        W56030  28.987   4.221   3.630
90551W        W56031  10.170  24.549  13.799
90552W        W56032  13.774  29.925   2.858
90553W        W56033  24.624  36.539  14.379
90554W        W56034  38.028   7.225   2.278
90555W        W56035  28.087  29.011   1.714
90556W        W56036  36.538   3.935   2.782
90557W        W56037  32.141  32.046  13.018
90558W        W56038   7.822   7.800  14.761
90559W        W56039  40.973  43.423   4.771
90560W        W56040  18.740   0.342  10.976
90561W        W56041   1.929  24.221   2.750
90562W        W56042  38.985  33.112  14.937
90563W        W56043  37.461  16.201   4.141
90564W        W56044   2.321  34.500  14.795
90565W        W56045  30.159  41.504   0.852
90566W        W56046   3.739  14.099   3.848
90567W        W56047  18.643  23.209   0.245
90568W        W56048  37.845  38.961  11.533
90569W        W56049  10.655  35.394  12.896
90570W        W56050  31.942  21.585   1.409
90571W        W56051  24.210   4.855  14.513
90572W        W56052  39.491  43.486  12.048
90573W        W56053  13.661  25.004   0.253
90574W        W56054   9.759  19.194   1.428
90575W        W56055  38.918  37.384  10.982
90576W        W56056  14.773   9.863   1.832
90577W        W56057  29.044  19.061  12.862
90578W        W56058  28.568   0.885   4.354
90579W        W56059  39.844  13.642   4.265
90580W        W56060  22.250  41.498  14.764
90581W        W56061  15.203   9.760   4.810
90582W        W56062  41.482  25.508  12.381
90583W        W56063  34.410  18.653   4.216
90584W        W56064   8.251  41.325  11.579
90585W        W56065   0.847   6.691  11.431
90586W        W56066   5.216   3.850   0.473
90587W        W56067  14.298   7.714   0.292
90588W        W56068  40.329  25.107  10.023
90589W        W56069  11.131  17.268   1.239
90590W        W56070  38.330  35.873  14.479
90591W        W56071   2.438  35.481   1.779
90592W        W56072  10.791   6.717  10.583
90593W        W56073  43.459  29.057  11.901
90594W        W56074  36.940  29.480  13.904
90595W        W56075  43.309  24.212   0.853
90596W        W56076  27.089  29.480   0.474
90597W        W56077  19.772  35.038   5.192
90598W        W56078  34.020  24.132   0.321
90599W        W56079  32.454  10.254   4.194
90600W        W56080  37.001  34.391  12.359
90601W        W56081  26.139  43.291   2.319
90602W        W56082  12.817  22.115  12.566
90603W        W56083  15.690  28.958   1.853
90604W        W56084  32.636  27.089  14.007
90605W        W56085  25.990  26.032   4.647
90606W        W56086  36.450  28.964   0.407
90607W        W56087  34.005  40.032  12.518
90608W        W56088  41.989  36.408  12.944
90609W        W56089  33.069  32.530   2.301
90610W        W56090  29.529  40.525   2.375
90611W        W56091  13.752  13.349  12.370
90612W        W56092   8.707  34.537   0.757
90613W        W56093  43.018  28.992   1.437
90614W        W56094  42.823  39.890  14.938
90615W        W56095  10.736   2.846   0.727
90616W        W56096  32.558  19.049  13.940
90617W        W56097  14.278  29.654   4.766
90618W        W56098  27.130  14.737   4.327
90619W        W56099  33.590  29.152  12.041
90620W        W56100   5.928  43.801   3.155
90621W        W56101   6.381   3.804  10.457
90622W        W56102  33.592  19.570  11.491
90623W        W56103  43.954  25.501  13.383
90624W        W56104  22.067  16.756  10.601
90625W        W56105  26.069  21.641   2.796
90626W        W56106   3.734   0.800   3.362
90627W        W56107   2.907   9.704   4.628
90628W        W56108  43.403  40.502   2.732
90629W        W56109   5.783  39.370   4.827
90630W        W56110   2.260   7.220  11.608
90631W        W56111  26.158   5.712   0.914
90632W        W56112  21.164   0.867  14.305
90633W        W56113  40.893  22.729   3.707
90634W        W56114  30.941  36.562   2.186
90635W        W56115  41.315   1.807  12.939
90636W        W56116  29.542  17.648   1.802
90637W        W56117  42.307  39.025  11.939
90638W        W56118  17.644  33.021   1.708
90639W        W56119  17.264  31.619   3.345
90640W        W56120  39.879  15.197   0.858
90641W        W56121   6.355  38.985  12.082
90642W        W56122  15.235  40.538  14.826
90643W        W56123   7.787   6.411  10.543
90644W        W56124   0.864  33.052   4.296
90645W        W56125  22.997   9.222   3.205
90646W        W56126  27.470  41.479  14.404
90647W        W56127  44.877   0.777  12.950
90648W        W56128  11.700  12.195   2.833
90649W        W56129   9.799  22.733  14.493
90650W        W56130  28.436  16.642   0.838
90651W        W56131  23.211  40.843   0.255
90652W        W56132   4.419  16.800   3.675
90653W        W56133  27.667  17.250  13.444
90654W        W56134  44.843  35.497   3.370
90655W        W56135   9.266  28.554  14.281
90656W        W56136  16.763  23.511   4.734
90657W        W56137  15.628  27.007   0.906
90658W        W56138  35.039  41.841   1.787
90659W        W56139  17.177  43.802   3.193
90660W        W56140  20.618  44.357  11.372
90661W        W56141  11.349  14.808   1.236
90662W        W56142  23.121  15.581  11.119
90663W        W56143  31.919   5.892   3.843
90664W        W56144  13.162   7.680  12.053
90665W        W56145  10.233  26.509  11.890
90666W        W56146  13.816  21.101   3.833
90667W        W56147  24.154  26.591  13.438
90668W        W56148   3.221  33.886   3.776
90669W        W56149  29.452  42.473  13.485
90670W        W56150  40.909  29.957   1.407
90671W        W56151  33.996  28.110  13.890
90672W        W56152  10.692  23.028  14.786
90673W        W56153   5.313  36.483   2.672
90674W        W56154  41.891  13.697  11.909
90675W        W56155  24.103  32.910  13.444
90676W        W56156   7.717  29.971  14.879
90677W        W56157  10.877   2.265  12.879
90678W        W56158   6.313  26.584  12.961
90679W        W56159  22.695   0.358  12.020
90680W        W56160   8.881   4.281   3.200
90681W        W56161  39.467  38.360  11.949
90682W        W56162   7.795   3.247  14.329
90683W        W56163  39.444  43.434  13.939
90684W        W56164  42.007   0.856   2.308
90685W        W56165  41.863   8.734   5.192
90686W        W56166  36.377  35.516  10.575
90687W        W56167  31.969  40.995  13.307
90688W        W56168  33.925   9.152   3.776
90689W        W56169  16.274  20.092  11.007
90690W        W56170  29.542  29.125  13.373
90691W        W56171  13.321  29.159  14.493
90692W        W56172  37.907  10.212  11.380
90693W        W56173   2.962  40.451  10.957
90694W        W56174  11.167  19.248   0.885
90695W        W56175  13.603  12.843  12.898
90696W        W56176  31.111  34.538  10.528
90697W        W56177  10.189  35.867  13.479
90698W        W56178   7.745  38.502   3.309
90699W        W56179  21.236  23.090  14.493
90700W        W56180   7.790  31.992   0.258
90701W        W56181  15.709   3.882  11.557
90702W        W56182  25.586  18.065   2.733
90703W        W56183  16.768  43.861  12.362
90704W        W56184  25.991   8.874   4.810
90705W        W56185   5.384  39.413   3.788
90706W        W56186  35.912  25.981  12.525
90707W        W56187  12.147   1.252   1.730
90708W        W56188  34.492   8.267   2.249
90709W        W56189  39.313  36.860   1.904
90710W        W56190  17.659  18.686   4.787
90711W        W56191   0.302  26.145  14.386
90712W        W56192  40.549  13.776  11.967
90713W        W56193  26.191  28.006  10.543
90714W        W56194  42.836  42.345   0.283
90715W        W56195  35.990   7.302  11.569
90716W        W56196  20.157  21.619  11.865
90717W        W56197   7.260  44.767  10.640
90718W        W56198  20.225  39.954   2.819
90719W        W56199  22.686  21.078  10.126
90720W        W56200   8.367  32.924  13.888
90721W        W56201  18.710  21.085   4.772
90722W        W56202  38.340  36.064  12.012
90723W        W56203  30.525  37.073   0.278
90724W        W56204  15.726  23.512   2.262
90725W        W56205  26.613  26.602  12.847
90726W        W56206  41.031  41.375   3.789
90727W        W56207  36.063  12.696   0.251
90728W        W56208  27.092  17.623  14.991
90729W        W56209  22.502   7.356   2.882
90730W        W56210  17.567   9.663   1.718
90731W        W56211   1.843  32.605   3.272
90732W        W56212   9.759   0.448   3.366
90733W        W56213   0.304   2.294   3.257
90734W        W56214  16.206   9.731   1.923
90735W        W56215  43.804  12.657  14.867
90736W        W56216  14.206   0.299  11.878
90737W        W56217  40.350  16.645  14.853
90738W        W56218  24.225  26.471   4.191
90739W        W56219  25.136  21.523   0.272
90740W        W56220  38.337  32.021  13.383
90741W        W56221  39.047   7.682  12.541
90742W        W56222   5.736  25.565  11.955
90743W        W56223  23.183   7.414   9.633
90744W        W56224   0.382  14.309  14.923
90745W        W56225  31.493  44.305   0.349
90746W        W56226  36.591   1.923   9.975
90747W        W56227  41.913  26.195  11.957
90748W        W56228  33.917   4.894   2.303
90749W        W56229  22.672  24.089   4.660
90750W        W56230  40.958  18.671   4.320
90751W        W56231   5.815  26.071  12.421
90752W        W56232  35.895   2.741  13.314
90753W        W56233   7.685   1.477  11.865
90754W        W56234  43.498  40.465   3.767
90755W        W56235  14.750  30.036   0.837
90756W        W56236   6.207  34.968  10.582
90757W        W56237  10.848  29.065   3.685
90758W        W56238  10.198   3.449   0.810
90759W        W56239   6.316  22.642   1.797
90760W        W56240  39.843  35.877  13.385
90761W        W56241   8.273  28.064  14.497
90762W        W56242  30.424  12.269  12.997
90763W        W56243  13.150  12.650   1.924
90764W        W56244  20.164  36.473   0.385
90765W        W56245  21.699  16.774  11.524
90766W        W56246  14.143  35.416   0.881
90767W        W56247  15.329  24.033   1.307
90768W        W56248  15.661  43.858   5.084
90769W        W56249  27.012  30.048   3.377
90770W        W56250  30.021  21.171  11.049
90771W        W56251   8.899  31.026   1.726
90772W        W56252  15.685  21.241  14.356
90773W        W56253  26.515  38.969  13.341
90774W        W56254  29.592  36.857  12.036
90775W        W56255  21.143  30.582  10.409
90776W        W56256  21.041  12.346   1.404
90777W        W56257   4.837  29.446  12.497
90778W        W56258  32.397  42.788  12.351
90779W        W56259  43.848  34.426  12.350
90780W        W56260  34.425  32.565  13.390
90781W        W56261  21.189   8.788  10.041
90782W        W56262  31.507  42.928  12.887
90783W        W56263  40.488  16.674  10.001
90784W        W56264  42.863  44.829   4.670
90785W        W56265  18.656  21.534  14.437
90786W        W56266  34.866  19.109   2.787
90787W        W56267   6.380   3.244   1.239
90788W        W56268  36.899   6.315  14.360
90789W        W56269  24.083   8.198  12.837
90790W        W56270  35.026  30.655  12.945
90791W        W56271  44.446  40.903   1.431
90792W        W56272  32.578  11.743   4.826
90793W        W56273  33.096  17.148  14.786
90794W        W56274  37.979  20.039   2.419
90795W        W56275  21.092  35.868   2.695
90796W        W56276   6.804  15.250   4.835
90797W        W56277  16.204  33.077   9.469
90798W        W56278  34.589  41.978  10.426
90799W        W56279  31.572  38.411   3.787
90800W        W56280  19.077  39.060   4.645
90801W        W56281  22.244  27.486   1.313
90802W        W56282  26.647  36.924   4.188
90803W        W56283  29.107  39.419   5.294
90804W        W56284   9.889  19.205  13.948
90805W        W56285  16.105  10.710   3.299
90806W        W56286  30.050   3.397  13.335
90807W        W56287  31.051  16.150  13.887
90808W        W56288  32.393  10.341  12.556
90809W        W56289  25.472   1.977  10.643
90810W        W56290  10.255  28.639  13.002
90811W        W56291  33.112  37.511  12.096
90812W        W56292  29.599  12.694   0.821
90813W        W56293  35.946   3.452  13.984
90814W        W56294   2.281  42.454  12.052
90815W        W56295  18.779  42.983   5.200
90816W        W56296  28.179   0.798   2.890
90817W        W56297   2.906  43.802  12.916
90818W        W56298  17.093  41.792   1.215
90819W        W56299  21.546  41.292   4.156
90820W        W56300  44.473  28.576  11.468
90821W        W56301   2.732   7.861  13.498
90822W        W56302   5.404  40.487   2.861
90823W        W56303  13.216  13.122  13.318
90824W        W56304   7.685   6.235  12.375
90825W        W56305   3.458   1.404  14.303
90826W        W56306   2.848  21.609   0.858
90827W        W56307  31.636  23.230   3.775
90828W        W56308  10.153  12.155   0.780
90829W        W56309  14.784  34.101  10.630
90830W        W56310  40.429   1.255   0.831
90831W        W56311  39.997   7.746  11.945
90832W        W56312  10.228  29.589  13.379
90833W        W56313   9.157  28.160  14.926
90834W        W56314   4.717  33.422   3.206
90835W        W56315   0.770  15.808  12.506
90836W        W56316  14.785   3.442   1.786
90837W        W56317  36.929  28.544   4.768
90838W        W56318   3.873  41.424  13.023
90839W        W56319  29.626  29.952  12.958
90840W        W56320  25.062   5.832   1.393
90841W        W56321  19.661  28.019  12.521
90842W        W56322   6.791  38.421   0.364
90843W        W56323  27.188  22.625  13.985
90844W        W56324  29.964  29.030   3.827
90845W        W56325   8.374   4.920   3.813
90846W        W56326  18.708   7.414   2.734
90847W        W56327   1.478  29.963   4.710
90848W        W56328  40.836   2.905   5.241
90849W        W56329   1.976   3.428  11.094
90850W        W56330  31.479  25.650  10.524
90851W        W56331  40.944  30.500   0.905
90852W        W56332  33.075  22.019   0.855
90853W        W56333   2.437   2.239   3.339
90854W        W56334  12.148  16.573  10.427
90855W        W56335  24.529   7.291   4.294
90856W        W56336  31.630  10.358  14.287
90857W        W56337  16.573   8.755   2.685
90858W        W56338  23.513  25.056  12.393
90859W        W56339  33.024  10.724   2.315
90860W        W56340  36.384   5.399  12.946
90861W        W56341   1.806  36.028   3.754
90862W        W56342  38.496  41.917  11.398
90863W        W56343  23.223  12.352   1.342
90864W        W56344  42.925   9.226   4.838
90865W        W56345   9.767  25.630   3.718
90866W        W56346  16.270  38.341  10.978
90867W        W56347   4.231  18.680   3.177
90868W        W56348  31.418   4.798  11.022
90869W        W56349   7.219   3.352   4.716
90870W        W56350   3.862  26.044   1.784
90871W        W56351  27.447  23.688   0.375
90872W        W56352  40.449  31.549  12.951
90873W        W56353   4.356   9.338   1.874
90874W        W56354  33.093  14.175  10.580
90875W        W56355  14.141  33.934   0.838
90876W        W56356   3.441  14.833  13.944
90877W        W56357   5.919  23.654   3.660
90878W        W56358  27.978   5.687   2.753
90879W        W56359   6.753  30.928  14.424
90880W        W56360   7.356  20.218  14.759
90881W        W56361  29.631   9.304  10.972
90882W        W56362  32.532  11.295   1.351
90883W        W56363  33.996  43.905   4.740
90884W        W56364  44.858   6.873   1.868
90885W        W56365  10.181  19.177   1.413
90886W        W56366  28.174   7.250  11.574
90887W        W56367   6.712   3.354  12.936
90888W        W56368  42.867  15.735  14.783
90889W        W56369  32.497   2.933  14.943
90890W        W56370  22.118   9.281   1.905
90891W        W56371  17.143  44.989  14.394
90892W        W56372  42.388  39.024  10.523
90893W        W56373  42.961   7.865  11.858
90894W        W56374  40.927  19.613  10.454
90895W        W56375  25.062  11.811   3.844
90896W        W56376  36.425  39.387   2.183
90897W        W56377  43.429  13.762  10.898
90898W        W56378  23.195   2.887   4.782
90899W        W56379  16.082  26.961   0.818
90900W        W56380  25.645  42.997  13.968
90901W        W56381  36.526  17.691   0.866
90902W        W56382  11.310  37.569  11.053
90903W        W56383   7.668  23.622   4.262
90904W        W56384  28.523  19.678   1.862
90905W        W56385  18.263  11.158  14.454
90906W        W56386  33.904  42.816  14.946
90907W        W56387  38.829  30.470   1.243
90908W        W56388  38.066  32.447   0.880
90909W        W56389  34.450  27.168   1.354
90910W        W56390  26.493  22.744  12.959
90911W        W56391  21.028  37.913  10.532
90912W        W56392  41.017  35.599   1.445
90913W        W56393  26.999  10.348  10.132
90914W        W56394   7.197  15.675  11.092
90915W        W56395   0.891   2.259   2.198
90916W        W56396  40.870   7.721  12.564
90917W        W56397  25.987  22.646  12.066
90918W        W56398  25.709  30.434   2.788
90919W        W56399  12.641   6.254  10.557
90920W        W56400  43.859   8.772   3.725
90921W        W56401   4.826  15.242   4.186
90922W        W56402  34.992   3.269   5.183
90923W        W56403  35.888  27.520  13.838
90924W        W56404  44.356  36.479  10.540
90925W        W56405  16.742  29.145  14.766
90926W        W56406   1.809  20.236  12.004
90927W        W56407  27.159  12.198  11.011
90928W        W56408  44.355  33.517  11.079
90929W        W56409  20.056  42.899  13.346
90930W        W56410   8.715  35.919   3.801
90931W        W56411  39.934  34.449   1.227
90932W        W56412  42.841   2.449   5.232
90933W        W56413  41.461   8.836  11.946
90934W        W56414   1.351  13.642   1.924
90935W        W56415   8.198  12.827  14.359
90936W        W56416  21.036  30.971  14.405
90937W        W56417  40.014  29.559  11.994
90938W        W56418  27.959   6.910   0.302
90939W        W56419   6.890  11.132  11.983
90940W        W56420  27.160  39.503  12.359
90941W        W56421  22.100   9.198   0.812
90942W        W56422   8.830   5.720  12.851
90943W        W56423  34.597   0.275   1.317
90944W        W56424  20.606   5.700  13.928
90945W        W56425   4.444  32.089  12.083
90946W        W56426  28.958   6.282   3.691
90947W        W56427  36.471  22.612  10.615
90948W        W56428  30.115  19.166  13.341
90949W        W56429  34.418  20.738  12.076
90950W        W56430  29.454  11.825   1.294
90951W        W56431   4.280  30.998   3.351
90952W        W56432  44.279  35.473  11.074
90953W        W56433  30.983  37.360   3.145
90954W        W56434  37.392  21.134   2.879
90955W        W56435   7.201   4.762   2.344
90956W        W56436  19.280   4.763   4.741
90957W        W56437  24.038  10.153  14.987
90958W        W56438  35.053   8.310  11.928
90959W        W56439  14.827  17.606  13.045
90960W        W56440  27.985  23.648  11.919
90961W        W56441   3.742  23.080  14.919
90962W        W56442  34.063   1.308  12.377
90963W        W56443  18.759  14.119  11.599
90964W        W56444  21.244  34.102   4.828
90965W        W56445  31.040  27.673  12.093
90966W        W56446  43.348  37.017  13.389
90967W        W56447   1.250  23.717  11.087
90968W        W56448  34.578  44.477  11.559
90969W        W56449   6.829  33.577  11.992
90970W        W56450   6.299  17.568  12.395
90971W        W56451  16.572   9.842  13.987
90972W        W56452   6.246   0.400   2.782
90973W        W56453  44.461  27.574  13.398
90974W        W56454  12.355   9.248   2.361
90975W        W56455  42.375  43.294   1.819
90976W        W56456  10.871  28.545   3.208
90977W        W56457   8.317   9.792   2.788
90978W        W56458  23.192   8.781  14.495
90979W        W56459   1.424   1.389  12.507
90980W        W56460  34.497  13.173  10.546
90981W        W56461  25.169   3.381  13.014
90982W        W56462  15.694  14.747  14.342
90983W        W56463  37.926  26.612  10.941
90984W        W56464   4.365  15.804   1.345
90985W        W56465  31.590   8.748  10.931
90986W        W56466  35.514  42.884   4.641
90987W        W56467  16.291  16.306   4.605
90988W        W56468  25.522  31.105   2.191
90989W        W56469  14.810  38.328   0.884
90990W        W56470  37.407  28.460  11.049
90991W        W56471  22.615  13.283   2.282
90992W        W56472  40.965  13.221   2.719
90993W        W56473  23.197   6.304  11.046
90994W        W56474  16.075  32.579   5.165
90995W        W56475  13.317  14.207   3.386
90996W        W56476  34.029   1.379   1.728
90997W        W56477  37.352  15.647   3.162
90998W        W56478  17.796  42.296  13.870
90999W        W56479   0.251   4.295   1.697
91000W        W56480  19.063  38.968  14.283
91001W        W56481  21.238  37.935  12.994
91002W        W56482  23.231  26.049   4.713
91003W        W56483  24.217  17.226  14.776
91004W        W56484  17.258  18.705  12.871
91005W        W56485  31.420  34.611   3.767
91006W        W56486  39.536  31.569   1.852
91007W        W56487  22.084  27.067  10.900
91008W        W56488  21.167   3.220   4.685
91009W        W56489   8.328  30.955  11.417
91010W        W56490  19.121   7.677   2.381
91011W        W56491  36.886   1.424  10.451
91012W        W56492  36.918  25.508   2.718
91013W        W56493  22.101  24.219   2.871
91014W        W56494  27.590  28.120   2.875
91015W        W56495  29.629  22.061  11.373
91016W        W56496  36.876  39.340  10.621
91017W        W56497  32.134  30.152  12.415
91018W        W56498   1.820   0.875   0.295
91019W        W56499  30.935  25.178  12.374
91020W        W56500  29.156  32.913  11.121
91021W        W56501  29.126  20.734   4.742
91022W        W56502  16.099  16.131  14.922
91023W        W56503  22.099   2.728  12.471
91024W        W56504  25.617  42.901  14.297
91025W        W56505  11.667  24.134   1.377
91026W        W56506  26.477  10.378  11.529
91027W        W56507  35.065  35.855  11.498
91028W        W56508  40.996   1.379  13.309
91029W        W56509  37.057  38.473   3.724
91030W        W56510  13.287  16.208  11.482
91031W        W56511  28.515  32.488   4.200
91032W        W56512  31.554  35.897   2.713
91033W        W56513  19.597  44.828  10.630
91034W        W56514  19.624  10.708  14.377
91035W        W56515  26.041   8.707  14.947
91036W        W56516  19.756   9.313  10.412
91037W        W56517  26.139  35.932  11.532
91038W        W56518  24.038  34.007  13.408
91039W        W56519  17.571  32.430  14.012
91040W        W56520  18.169  30.587   1.327
91041W        W56521  22.691   5.729  13.420
91042W        W56522  19.248  41.412  13.922
91043W        W56523  43.382   4.844   0.805
91044W        W56524  36.099  21.715   1.255
91045W        W56525  10.358   7.701  13.865
91046W        W56526  27.984   4.239  14.782
91047W        W56527  20.115  41.533  12.566
91048W        W56528  39.005  44.930  14.425
91049W        W56529  31.995  11.656   4.792
91050W        W56530   5.324  33.609   4.118
91051W        W56531  22.669   5.437   1.773
91052W        W56532  29.128  15.727   2.271
91053W        W56533  10.238  42.342  12.022
91054W        W56534   1.257  10.820   0.421
91055W        W56535  11.856  15.815   4.631
91056W        W56536  15.673  34.944  14.320
91057W        W56537   1.396  26.486  10.503
91058W        W56538  37.978  26.654  12.005
91059W        W56539  26.171  14.188  10.479
91060W        W56540   6.261  43.415   2.253
91061W        W56541   4.911  16.747   3.281
91062W        W56542  44.885  35.068   4.776
91063W        W56543   0.971  12.621  13.026
91064W        W56544  41.377  31.023  10.960
91065W        W56545   2.834  44.321  11.443
91066W        W56546  19.558  29.109  12.516
91067W        W56547  34.521  29.127   3.719
91068W        W56548  12.749  43.860  10.473
91069W        W56549  15.665  44.390  10.458
91070W        W56550   5.399  35.458  13.013
91071W        W56551  35.375  44.968   4.603
91072W        W56552  21.660   5.364   3.742
91073W        W56553  28.674  42.394  14.969
91074W        W56554  39.480  17.785   2.222
91075W        W56555   5.202  31.408   9.958
91076W        W56556   5.812  27.489   3.384
91077W        W56557  17.139   8.879  13.978
91078W        W56558  41.810  42.015  11.561
91079W        W56559  18.740  33.499   2.769
91080W        W56560  10.670  27.093  11.000
91081W        W56561  26.607  22.195  11.547
91082W        W56562   0.482   0.976   3.700
91083W        W56563  34.508   6.299  12.415
91084W        W56564  40.488  44.301  14.396
91085W        W56565   7.291  29.026   3.684
91086W        W56566  12.833  34.434   1.336
91087W        W56567  25.622  12.299  11.448
91088W        W56568   8.305  20.055  12.053
91089W        W56569  35.375   3.952   4.205
91090W        W56570  38.878   0.776   1.352
91091W        W56571  21.521   0.359  10.144
91092W        W56572   2.468  39.521   1.741
91093W        W56573  19.285  18.287   4.164
91094W        W56574  41.303   2.862  10.428
91095W        W56575  26.675  39.508   0.308
91096W        W56576  21.681  13.762  10.960
91097W        W56577  42.017  23.587  13.923
91098W        W56578  36.379  27.546   3.773
91099W        W56579   5.337   4.809  14.297
91100W        W56580  24.072  11.707   1.873
91101W        W56581  27.597  11.230  13.353
91102W        W56582   0.413  39.530  12.426
91103W        W56583  36.370  33.979  12.435
91104W        W56584   1.741   7.804   1.343
91105W        W56585  25.147   4.886  12.947
91106W        W56586  10.193  44.414  14.475
91107W        W56587  41.435  43.381   0.312
91108W        W56588  35.911  31.474   1.286
91109W        W56589   6.915  25.702   0.420
91110W        W56590  29.623  36.399   2.218
91111W        W56591  13.298  13.250   2.297
91112W        W56592  17.069  29.144   2.662
91113W        W56593  35.946  27.592   2.793
91114W        W56594  20.136   7.668  14.321
91115W        W56595  10.734  28.078   0.883
91116W        W56596  23.678   5.714   0.388
91117W        W56597  28.026   0.483  11.984
91118W        W56598  36.434  35.054   2.806
91119W        W56599   5.707  28.118   3.320
91120W        W56600  36.060  13.795  12.937
91121W        W56601  29.098   7.384  14.338
91122W        W56602  24.112  40.979   2.332
91123W        W56603  40.940  38.040  10.979
91124W        W56604  24.211  27.037   4.276
91125W        W56605   6.891  24.143  13.311
91126W        W56606  15.775   3.451   0.313
91127W        W56607  36.847  28.943  14.356
91128W        W56608  33.970  26.978  11.606
91129W        W56609   9.167  44.415   1.888
91130W        W56610  41.822   9.245  14.026
91131W        W56611   2.876   3.322   3.685
91132W        W56612   7.824  43.942   4.338
91133W        W56613   2.373  17.285   2.279
91134W        W56614   2.763   2.282   1.223
91135W        W56615  27.074   1.399  12.827
91136W        W56616   8.794  33.067   1.426
91137W        W56617  33.972   5.776  12.829
91138W        W56618  42.850   7.893  12.384
91139W        W56619   7.252   4.339  14.819
91140W        W56620   3.324   5.227   0.730
91141W        W56621  12.768  31.610  12.078
91142W        W56622  29.567  26.479  12.541
91143W        W56623  36.516  22.501   4.768
91144W        W56624   3.764  13.169  12.960
91145W        W56625  38.903   4.797   3.149
91146W        W56626  26.696   3.954   1.742
91147W        W56627  39.808  44.341  11.413
91148W        W56628  14.098  39.885   2.686
91149W        W56629  17.594  38.992   1.725
91150W        W56630   6.210  15.153  10.561
91151W        W56631  21.091   0.354  13.031
91152W        W56632  21.722  40.835  10.481
91153W        W56633  16.663  38.031   1.802
91154W        W56634   6.818  25.548  11.983
91155W        W56635  42.524  17.615   4.820
91156W        W56636   8.372  14.152  11.433
91157W        W56637  41.371  25.103  10.945
91158W        W56638   5.768  27.158  10.997
91159W        W56639  38.410   9.751  12.090
91160W        W56640  33.388  17.669   3.729
91161W        W56641  38.546  17.156  13.349
91162W        W56642  27.033  18.613  10.907
91163W        W56643  22.143  10.823  13.061
91164W        W56644  36.427  32.050  13.872
91165W        W56645   7.709   1.740  10.130
91166W        W56646  32.995  13.241   0.753
91167W        W56647  18.139   2.355   4.787
91168W        W56648   6.731   9.744  12.967
91169W        W56649  24.499  14.226  14.987
91170W        W56650   9.869  13.315  14.973
91171W        W56651  41.872  32.570   0.312
91172W        W56652  15.160  17.202  12.440
91173W        W56653  24.565  15.313  14.376
91174W        W56654  28.586  31.552   3.631
91175W        W56655  21.048  14.666  14.810
91176W        W56656   2.849  18.282  13.400
91177W        W56657  33.516   1.799   2.376
91178W        W56658   3.927   4.335   2.268
91179W        W56659   5.319  34.035   0.413
91180W        W56660  25.136  27.643  14.760
91181W        W56661  35.884  21.131  11.511
91182W        W56662  36.518   2.780  13.028
91183W        W56663  24.073  38.948  13.034
91184W        W56664   9.864  15.591   9.925
91185W        W56665  23.498  43.419  12.530
91186W        W56666   3.875   9.776  12.086
91187W        W56667  44.893   3.238  11.572
91188W        W56668  31.429   3.859   2.828
91189W        W56669  23.724  29.642   2.819
91190W        W56670  38.495  29.662  13.485
91191W        W56671  30.554   6.366  12.057
91192W        W56672  32.396  40.303  14.411
91193W        W56673  24.027  27.491  14.303
91194W        W56674  26.627   1.262   3.330
91195W        W56675  34.018  41.385   2.386
91196W        W56676  40.376   8.781   0.276
91197W        W56677   7.729   9.733   1.880
91198W        W56678  12.837  39.483  13.350
91199W        W56679  34.058  35.910  10.573
91200W        W56680   4.727  26.652   1.858
91201W        W56681  35.059  20.222   4.156
91202W        W56682   2.898   5.249  14.793
91203W        W56683   0.834  41.869  11.964
91204W        W56684  14.114  27.979   1.438
91205W        W56685  32.545  38.037   2.820
91206W        W56686  14.332  26.585   1.856
91207W        W56687   5.737  44.947   2.848
91208W        W56688  19.584  14.184  14.509
91209W        W56689  23.184  17.270   0.916
91210W        W56690  19.560   4.715   3.171
91211W        W56691  37.830   8.288  13.357
91212W        W56692   6.239  10.669   4.752
91213W        W56693  31.009  33.057  11.092
91214W        W56694  34.918   0.315   0.248
91215W        W56695  32.578  24.145  11.595
91216W        W56696  15.600   7.208  14.302
91217W        W56697  39.908  41.476  11.558
91218W        W56698  21.056  22.182   0.894
91219W        W56699  38.940  27.109   0.762
91220W        W56700   3.813  36.850  12.366
91221W        W56701  24.636  20.194  14.334
91222W        W56702  30.964  14.305   4.217
91223W        W56703  28.945   4.708   2.787
91224W        W56704   6.427  31.412   0.839
91225W        W56705   1.971  19.228   2.215
91226W        W56706  27.658  14.674   2.881
91227W        W56707  38.515  11.753  10.487
91228W        W56708   3.876  41.495   2.902
91229W        W56709  21.132  14.231   2.900
91230W        W56710  32.963  16.316   2.763
91231W        W56711  18.718   2.336   1.897
91232W        W56712  15.305  30.600  13.979
91233W        W56713  25.093   0.450  11.544
91234W        W56714  17.632  30.930   0.865
91235W        W56715   4.308  21.201  10.101
91236W        W56716  17.557  19.546   0.791
91237W        W56717  38.342  29.155   3.836
91238W        W56718   1.422  28.086   3.788
91239W        W56719  28.580   9.766   0.394
91240W        W56720   8.834   0.460   1.236
91241W        W56721  10.184   9.191   3.146
91242W        W56722  23.156  21.691   4.238
91243W        W56723  22.581  16.762  10.575
91244W        W56724   1.930   0.336   1.879
91245W        W56725  33.625  14.200   2.755
91246W        W56726  19.538  32.036   4.797
91247W        W56727  40.430   1.789   2.764
91248W        W56728   8.799  41.911   3.665
91249W        W56729  19.190  11.320  13.485
91250W        W56730  23.626  39.010  13.030
91251W        W56731   5.696  27.138  13.386
91252W        W56732  28.502   4.733   0.362
91253W        W56733   2.468  35.047  14.326
91254W        W56734  21.613  27.678   4.134
91255W        W56735  44.767  10.805  14.362
91256W        W56736  39.857  41.427  12.346
91257W        W56737  31.104   2.913  14.860
91258W        W56738  15.118  11.277   0.801
91259W        W56739  42.351  26.568   2.274
91260W        W56740  22.197  14.296   4.273
91261W        W56741  24.068   5.813  11.549
91262W        W56742   8.205  24.988   0.432
91263W        W56743  42.800  40.308   5.162
91264W        W56744  43.791  39.450   4.295
91265W        W56745   7.270  41.303   4.215
91266W        W56746  20.644   4.210   3.675
91267W        W56747  34.909  18.744   3.184
91268W        W56748  44.855  44.996   2.777
91269W        W56749  28.999  14.126  11.939
91270W        W56750  41.880  17.589  10.638
91271W        W56751  31.618   1.339  10.564
91272W        W56752   4.351  43.282   1.931
91273W        W56753  19.082  42.892   4.262
91274W        W56754  32.486  11.662   4.301
91275W        W56755  15.101  34.118  14.015
91276W        W56756   8.341  18.275  12.385
91277W        W56757  24.140   9.240  10.615
91278W        W56758  11.804  22.179  13.336
91279W        W56759  19.205  19.590   2.662
91280W        W56760   9.151  30.146   2.748
91281W        W56761  37.993  36.485  13.521
91282W        W56762  36.858  15.097  11.493
91283W        W56763  30.921  25.082  13.059
91284W        W56764  23.988   9.688  14.507
91285W        W56765  19.622  42.836   0.919
91286W        W56766  34.117  39.472   3.788
91287W        W56767  43.493  28.974   2.854
91288W        W56768  15.747  38.549   2.897
91289W        W56769  13.664  34.094   9.483
91290W        W56770  16.595  24.102   0.889
91291W        W56771  12.323   7.749   0.272
91292W        W56772   5.211  43.304   3.645
91293W        W56773  14.631  44.818   4.789
91294W        W56774  29.492  22.679  13.846
91295W        W56775  40.520  29.978  11.889
91296W        W56776  16.774  32.940   0.932
91297W        W56777  23.098  12.127  11.904
91298W        W56778  18.218   3.726  12.351
91299W        W56779  39.326  40.006  14.450
91300W        W56780  36.475   8.296   2.290
91301W        W56781  36.408  13.755   2.772
91302W        W56782  44.797  24.989  10.951
91303W        W56783   8.730  12.639  10.556
91304W        W56784   8.265  10.684  14.297
91305W        W56785   7.231  12.315  14.495
91306W        W56786  41.969   5.401  11.518
91307W        W56787  34.463  34.865   1.711
91308W        W56788  14.593  14.217  14.511
91309W        W56789  41.974  15.814   4.345
91310W        W56790  31.930   3.413   3.864
91311W        W56791  19.556  40.303   3.278
91312W        W56792  17.297  11.702  10.912
91313W        W56793  15.225  13.632  10.510
91314W        W56794  26.522  41.487   4.732
91315W        W56795  42.813  38.369  12.415
91316W        W56796   9.654  12.714  14.028
91317W        W56797  38.454  41.957   1.389
91318W        W56798  43.409  24.573   2.309
91319W        W56799  44.753  38.394   4.295
91320W        W56800  20.533  30.143  13.038
91321W        W56801   9.674  43.962  14.840
91322W        W56802  28.120   8.821   0.740
91323W        W56803  27.603  44.459  13.432
91324W        W56804  16.312  27.685  11.604
91325W        W56805  20.740  43.502   0.328
91326W        W56806  13.687  43.790   5.305
91327W        W56807  27.196  32.610   1.434
91328W        W56808  16.121  20.067  12.832
91329W        W56809  20.740  40.458  11.047
91330W        W56810  33.974  18.766   0.316
91331W        W56811  31.107  16.201   3.812
91332W        W56812  33.943  26.168   2.401
91333W        W56813  21.517  21.137  10.549
91334W        W56814   9.669   1.839   2.800
91335W        W56815  37.339  41.916   1.931
91336W        W56816   7.304  31.050  13.418
91337W        W56817  25.014   6.289  12.889
91338W        W56818  27.585  19.202   4.721
91339W        W56819   4.940  33.035   0.325
91340W        W56820  41.852  28.184  14.954
91341W        W56821   4.774  29.093   0.770
91342W        W56822  43.393  22.656  10.137
91343W        W56823  24.686  38.040   0.436
91344W        W56824  18.577  25.594   5.119
91345W        W56825  27.046  30.999  11.382
91346W        W56826  21.103  32.560  14.492
91347W        W56827   9.791  19.562   1.823
91348W        W56828   3.947  11.310   3.339
91349W        W56829  23.641   6.279   4.164
91350W        W56830  39.012   0.395  10.602
91351W        W56831   8.279  11.221  14.862
91352W        W56832  41.363  35.461   2.902
91353W        W56833  43.417  15.181   1.258
91354W        W56834   6.835  23.002  10.612
91355W        W56835  42.407   0.805   1.737
91356W        W56836  27.512  18.127   3.226
91357W        W56837  21.092  40.345  10.948
91358W        W56838  15.754  32.613  13.059
91359W        W56839  13.154  15.781   2.234
91360W        W56840  21.625  11.335  13.838
91361W        W56841  14.768  44.912  11.859
91362W        W56842   4.430  36.954   2.889
91363W        W56843   0.763  33.959   4.746
91364W        W56844  33.528   7.375  10.569
91365W        W56845  44.446  42.469  14.348
91366W        W56846  44.376   9.839  11.406
91367W        W56847  22.527  12.774   2.379
91368W        W56848  44.438  33.940  10.056
91369W        W56849  34.973  26.998  12.889
91370W        W56850  33.418   3.721  14.291
91371W        W56851  36.482  17.120   2.334
91372W        W56852   6.235  18.768  11.911
91373W        W56853  11.852  43.014   5.105
91374W        W56854  22.249  35.911  11.989
91375W        W56855   8.340  38.860   0.401
91376W        W56856  26.096  13.251  11.009
91377W        W56857   2.418  13.132  13.808
91378W        W56858  30.444  15.580  14.376
91379W        W56859  27.647  28.552   1.318
91380W        W56860  44.854  30.017   0.252
91381W        W56861  27.636  43.811  13.325
91382W        W56862   6.721  21.144  11.565
91383W        W56863  13.130  43.299  14.337
91384W        W56864  26.156  10.813  13.431
91385W        W56865  26.465  27.536  13.429
91386W        W56866   1.765  28.637  12.386
91387W        W56867  25.695   9.886   2.322
91388W        W56868  43.868  30.910  13.946
91389W        W56869  38.364  34.399  12.087
91390W        W56870  29.529  13.134  13.906
91391W        W56871  16.664  32.432  12.987
91392W        W56872  21.515  20.254   1.881
91393W        W56873  23.000  25.216   4.292
91394W        W56874  43.426  12.725  14.956
91395W        W56875  40.491  23.008  11.612
91396W        W56876   0.931  42.494  11.870
91397W        W56877  16.669  18.604  14.285
91398W        W56878  36.042   6.817  11.008
91399W        W56879  18.723  16.777  13.493
91400W        W56880  36.931  20.273   3.757
91401W        W56881  10.293  18.782  13.029
91402W        W56882  40.929  31.407  12.457
91403W        W56883  10.803  38.836   1.244
91404W        W56884   1.345  37.464   0.870
91405W        W56885  39.517  21.533  13.519
91406W        W56886  39.356   5.791  10.050
91407W        W56887  28.665  29.475  10.602
91408W        W56888  38.471   7.340  13.859
91409W        W56889  29.934  23.067   2.899
91410W        W56890  36.064  25.548   3.183
91411W        W56891   8.773  20.077  14.420
91412W        W56892   6.319  22.536  12.904
91413W        W56893  25.994  28.155   3.193
91414W        W56894  11.774  22.654   4.713
91415W        W56895  41.491  33.529  12.454
91416W        W56896  28.639  17.609   4.691
91417W        W56897  27.628  16.085   1.356
91418W        W56898  41.947  17.200  11.931
91419W        W56899  36.044  34.901  13.844
91420W        W56900  15.745  20.555   1.904
91421W        W56901  30.454   4.427  11.419
91422W        W56902  26.505  17.669  10.959
91423W        W56903  35.436  28.653  13.391
91424W        W56904  17.797  34.579  12.057
91425W        W56905  44.456  18.755   2.182
91426W        W56906  33.958  10.347   3.691
91427W        W56907  25.171  12.319   3.688
91428W        W56908  20.704  23.613   1.427
91429W        W56909  11.759  42.888   4.764
91430W        W56910  31.926  39.385   9.993
91431W        W56911  19.164  13.272   4.726
91432W        W56912  43.928  26.967  13.004
91433W        W56913  33.453   0.491  10.472
91434W        W56914  40.900  31.147   3.284
91435W        W56915   6.354  13.221   4.820
91436W        W56916  28.521  41.430   4.327
91437W        W56917  42.403   3.857  12.005
91438W        W56918  19.059  12.220  14.482
91439W        W56919   0.752   4.388   0.430
91440W        W56920   5.439  19.649   3.701
91441W        W56921   4.860  38.020  11.447
91442W        W56922   9.238   3.739   1.754
91443W        W56923  43.854  18.627  11.063
91444W        W56924  15.229  23.031   0.839
91445W        W56925  23.500  25.521   2.719
91446W        W56926  29.644   6.812   0.347
91447W        W56927  31.975   6.836   1.449
91448W        W56928   3.337  16.619   0.316
91449W        W56929  21.175  24.110   1.757
91450W        W56930  16.627  31.565   0.270
91451W        W56931   3.401  44.372   2.878
91452W        W56932  35.997  42.944   1.415
91453W        W56933  31.467  19.602   1.447
91454W        W56934  36.914   3.354   1.699
91455W        W56935  28.537  10.342  10.076
91456W        W56936  19.256  34.099   1.885
91457W        W56937  27.164  15.319  13.047
91458W        W56938   4.378  15.310   1.932
91459W        W56939  42.834  11.650  12.575
91460W        W56940  15.111  10.248   2.300
91461W        W56941   5.428  43.839   4.293
91462W        W56942  33.451  38.826  14.000
91463W        W56943  20.558  40.001  11.867
91464W        W56944   5.395  24.642   0.737
91465W        W56945  15.191  12.226   4.719
91466W        W56946   0.781  16.726  10.495
91467W        W56947  42.512  15.814   0.350
91468W        W56948   0.440   4.929  13.390
91469W        W56949  44.493  11.296  10.904
91470W        W56950  27.569  13.677  13.401
91471W        W56951   7.885  41.394  10.123
91472W        W56952  26.539  16.226  14.855
91473W        W56953  21.225  42.330   4.233
91474W        W56954  41.878  19.270  10.495
91475W        W56955  39.926  33.618  14.349
91476W        W56956  18.609  37.459  12.364
91477W        W56957  23.566  24.669   3.270
91478W        W56958  23.218  16.266   0.473
91479W        W56959  16.657  44.838  14.464
91480W        W56960  31.942   1.359  14.810
91481W        W56961  17.120  31.045   0.480
91482W        W56962  24.113  15.099   0.290
91483W        W56963  21.689  44.761   3.321
91484W        W56964   5.824  14.328  12.558
91485W        W56965  17.740   6.265  11.409
91486W        W56966  20.054  37.404  11.572
91487W        W56967  28.585  18.178   1.436
91488W        W56968  10.373  30.978   2.416
91489W        W56969   8.403  23.090   1.373
91490W        W56970  38.844  31.464  11.543
91491W        W56971  28.135  29.554   3.678
91492W        W56972  32.444  15.775   4.734
91493W        W56973  17.784  16.141  11.039
91494W        W56974  41.311   9.344  13.838
91495W        W56975  29.535  32.032   5.133
91496W        W56976  41.822  22.023   1.395
91497W        W56977   9.726  10.807   1.765
91498W        W56978  12.309  24.116  10.643
91499W        W56979   6.744   9.280   2.813
91500W        W56980  44.467  11.310   0.877
91501W        W56981  32.636  36.081  14.326
91502W        W56982  12.301  34.449  13.436
91503W        W56983  43.838  29.983   0.841
91504W        W56984  31.470  29.558  13.971
91505W        W56985  36.575  30.006   2.715
91506W        W56986  11.160   5.920   2.671
91507W        W56987  22.619  37.896   3.362
91508W        W56988  37.529  19.057   1.911
91509W        W56989  25.992  10.298   3.282
91510W        W56990  34.424  37.962   4.273
91511W        W56991  37.996   6.724   2.361
91512W        W56992  26.178  14.228   0.912
91513W        W56993  19.691  31.417   1.307
91514W        W56994  13.621  40.319  12.526
91515W        W56995  18.723  28.176  14.864
91516W        W56996  41.461  21.566  12.980
91517W        W56997  39.962  30.157   1.755
91518W        W56998  25.710  10.723   0.254
91519W        W56999  18.231  10.874  14.824
91520W        W57000   9.381   8.707   4.292
91521W        W57001  24.051  12.262  12.410
91522W        W57002  25.094   0.494  12.974
91523W        W57003   2.847  25.092   3.304
91524W        W57004  21.206  35.997   1.835
91525W        W57005   6.794  44.812   0.789
91526W        W57006  16.100   1.452  14.394
91527W        W57007   9.770   8.831  10.571
91528W        W57008  23.175   8.362   2.341
91529W        W57009   1.975  11.279   3.267
91530W        W57010   7.722   4.699   4.316
91531W        W57011  39.428   1.895  12.535
91532W        W57012  22.688  12.636  10.914
91533W        W57013   8.167   5.199   2.902
91534W        W57014  15.119  39.045   2.785
91535W        W57015  20.066  10.340  14.955
91536W        W57016  26.978   6.876   3.295
91537W        W57017  13.836  40.382   3.660
91538W        W57018   7.173  31.965   4.718
91539W        W57019  23.563  21.756  12.455
91540W        W57020  13.260  38.371  11.447
91541W        W57021  22.530   8.396   2.298
91542W        W57022  39.916  12.844  14.381
91543W        W57023   0.386  13.136   1.818
91544W        W57024   6.882   7.680  11.558
91545W        W57025   0.379   7.744   2.825
91546W        W57026  31.931  32.530   2.859
91547W        W57027  25.136   3.849   2.386
91548W        W57028  33.937  35.524  13.037
91549W        W57029  19.278   9.379  11.898
91550W        W57030  18.122  36.553   1.838
91551W        W57031  15.767  29.000  11.504
91552W        W57032  15.195   9.831  14.857
91553W        W57033  23.599  28.046   4.752
91554W        W57034  14.654  12.725  11.866
91555W        W57035  40.372  30.519   0.945
91556W        W57036  33.933  16.579  11.424
91557W        W57037   8.694  25.999  11.917
91558W        W57038  11.703   9.369   2.852
91559W        W57039  19.063  35.558   4.212
91560W        W57040  13.728  37.027  12.007
91561W        W57041  43.773  18.783  13.422
91562W        W57042  20.762   7.834  14.440
91563W        W57043  11.623  37.383   0.311
91564W        W57044  10.770  40.982  11.103
91565W        W57045  12.808  21.143   0.955
91566W        W57046  18.171  30.982  10.978
91567W        W57047  40.444  34.988  10.988
91568W        W57048  30.931  43.806  10.521
91569W        W57049   6.892  35.983   1.776
91570W        W57050  40.889  32.105   1.258
91571W        W57051   9.653  44.807   3.782
91572W        W57052  39.924  30.972  13.510
91573W        W57053  38.892  41.809  14.795
91574W        W57054  24.491  29.567   0.288
91575W        W57055   2.348  31.939  10.047
91576W        W57056   8.381  16.741   4.787
91577W        W57057  40.879  38.425  12.529
91578W        W57058  28.072  35.869  11.419
91579W        W57059  39.041   1.411   3.822
91580W        W57060  10.637  34.463  13.385
91581W        W57061   7.809  16.807   1.813
91582W        W57062  15.311  24.512   1.372
91583W        W57063  30.146   0.837   1.361
91584W        W57064  11.319   3.813  13.530
91585W        W57065  25.013  44.008   3.240
91586W        W57066  17.666  15.273  14.816
91587W        W57067   1.368  15.107   0.861
91588W        W57068   7.749  33.945  12.834
91589W        W57069  10.233  14.652   0.907
91590W        W57070  35.600  22.243   0.381
91591W        W57071   3.933  26.624   2.712
91592W        W57072  38.370  11.681   3.818
91593W        W57073  33.563  21.745   2.880
91594W        W57074  10.208  37.892  14.425
91595W        W57075  37.454  21.604   0.284
91596W        W57076  36.902  15.749   1.924
91597W        W57077  19.091  32.534  13.417
91598W        W57078  37.971  42.471   2.735
91599W        W57079  41.529   1.322  14.381
91600W        W57080  18.758  35.855  13.485
91601W        W57081  12.820  34.583  14.372
91602W        W57082  32.042  39.329   3.216
91603W        W57083   0.889  25.489  13.400
91604W        W57084  16.752  22.619   1.851
91605W        W57085   1.901  40.459  13.826
91606W        W57086  27.530  26.134  13.041
91607W        W57087  19.186   8.355  13.943
91608W        W57088  43.379  28.505  13.031
91609W        W57089  41.372  28.503  13.312
91610W        W57090   6.342  37.868   1.434
91611W        W57091  35.945  22.092  12.097
91612W        W57092   4.440  23.196  14.841
91613W        W57093  11.673  34.450  11.551
91614W        W57094  43.851  18.723   3.278
91615W        W57095  25.669  21.630  10.980
91616W        W57096  43.453  15.129  12.833
91617W        W57097  34.870  43.296   4.290
91618W        W57098   0.815   3.821  12.906
91619W        W57099  40.487   6.349  13.329
91620W        W57100  24.588  34.996  14.456
91621W        W57101   9.734  39.414  14.281
91622W        W57102  37.064  13.322  14.023
91623W        W57103  34.064  36.549  13.407
91624W        W57104  23.028  17.622   0.924
91625W        W57105  33.505  23.994  14.500
91626W        W57106   6.842  42.879  14.405
91627W        W57107   8.320  22.110   0.736
91628W        W57108   7.776  31.617  14.295
91629W        W57109  41.846  29.975   0.839
91630W        W57110   2.463   0.867   1.746
91631W        W57111  38.342   9.759   3.378
91632W        W57112  26.965  35.482  13.043
91633W        W57113   0.754   2.894   1.894
91634W        W57114  21.144  22.591   5.213
91635W        W57115  39.902  11.752  11.990
91636W        W57116   9.662  23.544  14.449
91637W        W57117  28.546  16.257   3.148
91638W        W57118  34.085  35.501  10.450
91639W        W57119  21.549  36.850  11.948
91640W        W57120  37.854   4.300   4.204
91641W        W57121   3.291  23.121   3.260
91642W        W57122  29.510   0.423  14.456
91643W        W57123  15.293  17.276  12.015
91644W        W57124  23.176  21.207   0.804
91645W        W57125  12.826  35.884   3.231
91646W        W57126   7.884   2.826   0.472
91647W        W57127  28.635  44.828  14.001
91648W        W57128  17.778  44.826  14.325
91649W        W57129  41.510  18.154   3.756
91650W        W57130  28.662  44.367   4.354
91651W        W57131  25.646   5.282   0.736
91652W        W57132  25.037   8.756  12.853
91653W        W57133  27.192  25.069  12.529
91654W        W57134  22.187  24.037  13.876
91655W        W57135   3.801  10.732  13.877
91656W        W57136  41.815  44.367  13.064
91657W        W57137   6.184  30.500   1.715
91658W        W57138  14.616  19.650  10.997
91659W        W57139  11.258  23.076  14.010
91660W        W57140  22.206  33.086  12.554
91661W        W57141  33.101  27.482  11.105
91662W        W57142  35.955  28.138   4.291
91663W        W57143   2.393   7.296   1.824
91664W        W57144  14.182  24.652   0.294
91665W        W57145   6.266  17.146   2.246
91666W        W57146   0.251   4.274   4.707
91667W        W57147  24.046  18.714  12.973
91668W        W57148  24.582  41.029   4.832
91669W        W57149  12.619   5.376   3.223
91670W        W57150  10.687   4.311  11.375
91671W        W57151  10.280  32.603   2.375
91672W        W57152  11.282  43.388  11.975
91673W        W57153  11.158  37.401  13.496
91674W        W57154  33.382  35.080  12.844
91675W        W57155  40.450  21.666  11.871
91676W        W57156  13.626  37.551  10.446
91677W        W57157  20.546  40.510   0.801
91678W        W57158  25.161  19.038   4.219
91679W        W57159   7.216  11.659   2.391
91680W        W57160  43.847  41.378  12.063
91681W        W57161  21.666  35.982  13.542
91682W        W57162   7.785  32.543   4.770
91683W        W57163  37.920  12.271   2.670
91684W        W57164  29.139  41.410  12.527
91685W        W57165  22.609  39.058   3.280
91686W        W57166  33.131  13.257   3.840
91687W        W57167   6.745  16.801  12.402
91688W        W57168   7.834  27.668  11.535
91689W        W57169   4.730  20.547   1.285
91690W        W57170  23.701  12.341  10.433
91691W        W57171  37.484  11.716   1.330
91692W        W57172  22.667   5.809   4.727
91693W        W57173  31.554  44.395   4.194
91694W        W57174  32.067  20.108  13.515
91695W        W57175  23.704  30.452  12.469
91696W        W57176   6.759  21.630  14.513
91697W        W57177  32.896  32.027  11.107
91698W        W57178   6.237  10.702   0.376
91699W        W57179   6.394   7.777   4.316
91700W        W57180  41.799  36.893  11.123
91701W        W57181  37.437  25.468   4.646
91702W        W57182  21.214  18.195   2.323
91703W        W57183  20.610   7.283  12.553
91704W        W57184  43.285  37.988  11.999
91705W        W57185   4.221  22.180  11.462
91706W        W57186  36.591  34.515  10.617
91707W        W57187   8.284   5.845   4.597
91708W        W57188  44.955  40.047   2.670
91709W        W57189  39.987  34.952  13.509
91710W        W57190  44.343  28.095  14.461
91711W        W57191  13.770  31.071  14.003
91712W        W57192  16.718  25.046  14.512
91713W        W57193  21.252  23.024   1.717
91714W        W57194  33.561  42.452  14.872
91715W        W57195  20.106  34.043   2.872
91716W        W57196  22.096  21.654  11.552
91717W        W57197  12.853  16.724   2.365
91718W        W57198  16.799  43.769   4.779
91719W        W57199  32.449  41.919   0.246
91720W        W57200  29.569   0.879  12.482
91721W        W57201  21.611  20.584  13.836
91722W        W57202   4.210  30.117  13.864
91723W        W57203   7.811  17.709   0.914
91724W        W57204  24.119  16.126  14.409
91725W        W57205  21.579   2.788  14.494
91726W        W57206   4.781  23.504   2.877
91727W        W57207   9.311   4.727   0.866
91728W        W57208  23.736  25.590   0.473
91729W        W57209   7.667  37.847   2.689
91730W        W57210   6.227   2.850  14.445
91731W        W57211  15.230  30.448   3.669
91732W        W57212   1.437  17.105  12.526
91733W        W57213  13.164  17.067  12.535
91734W        W57214  25.010  18.582   4.600
91735W        W57215   4.940  37.910  10.601
91736W        W57216  42.784  10.786  14.355
91737W        W57217   4.735  25.995   4.322
91738W        W57218  34.037   2.412   0.874
91739W        W57219  26.695  34.942  11.109
91740W        W57220  17.081  39.495   2.225
91741W        W57221  21.141  44.884  11.376
91742W        W57222  24.552  14.633   4.791
91743W        W57223   8.677  16.614  10.584
91744W        W57224   6.888   1.238   4.173
91745W        W57225   9.650  15.192   0.747
91746W        W57226  25.654  20.128  11.875
91747W        W57227  15.125  27.522  11.553
91748W        W57228  37.878  26.157  10.431
91749W        W57229  20.766  37.870   0.323
91750W        W57230  43.857   6.409  11.056
91751W        W57231  19.181  39.488  11.505
91752W        W57232  19.753  23.670   1.236
91753W        W57233  33.000  25.568   1.718
91754W        W57234   8.723  34.574  14.927
91755W        W57235   8.863  10.231   0.402
91756W        W57236  43.764  30.485  14.502
91757W        W57237  13.651  32.482  12.968
91758W        W57238  29.526  21.550   1.791
91759W        W57239   0.816   8.772  13.432
91760W        W57240  13.320  18.248  10.595
91761W        W57241  12.753  24.567   4.783
91762W        W57242  36.976  32.980   2.234
91763W        W57243  39.322  14.132  12.914
91764W        W57244  22.167  34.595  14.992
91765W        W57245   8.275   6.912   2.398
91766W        W57246  43.445  27.099   0.253
91767W        W57247  36.432  23.005  10.545
91768W        W57248  13.834  21.696   1.844
91769W        W57249  17.651  16.804  10.922
91770W        W57250  14.115  14.124   2.785
91771W        W57251  30.591   6.403  14.956
91772W        W57252  45.000  24.650  13.837
91773W        W57253  44.996   6.186   3.213
91774W        W57254  16.132  41.523  12.443
91775W        W57255   6.883  34.873   2.269
91776W        W57256  42.894  13.211   3.701
91777W        W57257  18.096  32.601   2.399
91778W        W57258  16.580  10.300  11.981
91779W        W57259  44.273  21.180   2.741
91780W        W57260  37.007   6.704  12.081
91781W        W57261  26.995   6.423  14.397
91782W        W57262  15.784  13.762  12.957
91783W        W57263  23.150  17.252   2.328
91784W        W57264  33.407   0.949   1.280
91785W        W57265  22.686  41.865  10.894
91786W        W57266  18.117   8.837   3.375
91787W        W57267  13.777  13.132  11.612
91788W        W57268  34.435  43.481  13.805
91789W        W57269  20.533  11.310  13.049
91790W        W57270  29.977   2.797   4.830
91791W        W57271  40.823  31.414  11.373
91792W        W57272   7.821  36.012   2.241
91793W        W57273   4.752  27.483   2.351
91794W        W57274  19.162   7.271  10.935
91795W        W57275  39.968   7.812  13.803
91796W        W57276   2.441  41.029   4.628
91797W        W57277  19.109  42.031  12.502
91798W        W57278  21.050  31.090   2.331
91799W        W57279   1.776  40.419   4.350
91800W        W57280  27.940   2.320   3.689
91801W        W57281  16.197  24.059   2.347
91802W        W57282   4.409   9.804  10.538
91803W        W57283  27.107  37.353   4.820
91804W        W57284  18.735  44.762  11.506
91805W        W57285  21.235  22.563   2.681
91806W        W57286  20.671  25.172   4.627
91807W        W57287  25.974   2.256  10.470
91808W        W57288  35.386  33.520   3.716
91809W        W57289  13.350   4.325  10.410
91810W        W57290  30.490  13.757   2.769
91811W        W57291  38.830  15.782   4.319
91812W        W57292  21.232  20.620   2.755
91813W        W57293  22.697   8.684   3.653
91814W        W57294  30.527  26.080  12.360
91815W        W57295  42.863  20.168  11.058
91816W        W57296  38.990  12.748  14.350
91817W        W57297  26.173  32.557  14.022
91818W        W57298   9.218  24.518  13.406
91819W        W57299  21.238  24.526   0.803
91820W        W57300  20.139  41.832  14.403
91821W        W57301  41.814  41.381  12.946
91822W        W57302  11.820   1.765  12.866
91823W        W57303  22.716  10.214   4.262
91824W        W57304  39.412  33.948  10.488
91825W        W57305  12.193  13.204  10.418
91826W        W57306   1.360  32.916   4.169
91827W        W57307  17.597  22.710  14.287
91828W        W57308  34.073  28.448  10.530
91829W        W57309   8.677  31.644  13.904
91830W        W57310  41.871  41.871   3.357
91831W        W57311  34.118  27.535  14.960
91832W        W57312   7.869   2.862  14.850
91833W        W57313  21.170  13.121  14.995
91834W        W57314   0.316   3.856  14.332
91835W        W57315  19.241   7.829   3.806
91836W        W57316  25.195  38.494   0.763
91837W        W57317  36.007   2.456  13.503
91838W        W57318  17.619   0.478   3.195
91839W        W57319  29.641  19.099   1.347
91840W        W57320  44.951   0.793  11.593
91841W        W57321  15.224  15.312   3.650
91842W        W57322   7.751  22.079  10.986
91843W        W57323   9.196  41.032  14.395
91844W        W57324  19.724  31.004  11.517
91845W        W57325  10.345  19.556   3.632
91846W        W57326  35.064  18.110  13.430
91847W        W57327  20.666  19.213   2.853
91848W        W57328  27.982  20.618  14.792
91849W        W57329  37.504   3.737   5.110
91850W        W57330  21.618  32.394  13.539
91851W        W57331  37.072  27.031  12.487
91852W        W57332  30.638  34.934   3.146
91853W        W57333  35.970  15.285  12.500
91854W        W57334  28.088   0.479   4.254
91855W        W57335   3.922   3.756   2.870
91856W        W57336   5.384   2.878  10.941
91857W        W57337  20.720  33.897  12.095
91858W        W57338   7.834  24.118   1.832
91859W        W57339   5.689   2.815   4.607
91860W        W57340  31.942  38.972  13.043
91861W        W57341  20.116   4.707   4.613
91862W        W57342   8.320   0.384   2.784
91863W        W57343   6.239  27.640  10.435
91864W        W57344  40.990  11.675  13.861
91865W        W57345  36.579  38.913  12.444
91866W        W57346  14.241   1.403  11.903
91867W        W57347  34.907   0.952   3.209
91868W        W57348  26.122  40.351   2.221
91869W        W57349  34.510   4.769  12.489
91870W        W57350  40.841   3.892  10.443
91871W        W57351  11.333  21.680   3.348
91872W        W57352  39.909  21.694   1.359
91873W        W57353  21.652  33.036  10.484
91874W        W57354  11.780  32.523   1.284
91875W        W57355  40.911  22.056  11.075
91876W        W57356  15.675  26.087   2.364
91877W        W57357  10.288  24.552   4.690
91878W        W57358  22.573  25.467   1.295
91879W        W57359  17.741  11.347   4.119
91880W        W57360  21.168  22.117   4.715
91881W        W57361  21.202  37.357   0.893
91882W        W57362  14.112  28.938   2.241
91883W        W57363  44.986  35.067   4.193
91884W        W57364  44.369  39.954   3.242
91885W        W57365   7.783  19.749  14.345
91886W        W57366  11.734   8.707   0.953
91887W        W57367  29.574  26.619  11.863
91888W        W57368  36.860  28.033  12.470
91889W        W57369   8.840  30.966  13.503
91890W        W57370  10.214   1.812   0.959
91891W        W57371  31.480  13.643  12.072
91892W        W57372  17.614  14.834   4.715
91893W        W57373   0.781   1.379   4.331
91894W        W57374  37.029  22.687   0.778
91895W        W57375  10.327  17.122   4.791
91896W        W57376  16.566  10.139  13.391
91897W        W57377  27.617  22.708  11.386
91898W        W57378  16.586   6.793  13.531
91899W        W57379  42.420  36.395   4.344
91900W        W57380  28.459  26.976  12.371
91901W        W57381  37.922   9.809   2.681
91902W        W57382  42.314   4.804   2.395
91903W        W57383   7.786   5.439  11.088
91904W        W57384   4.354   1.858  13.976
91905W        W57385  11.326  37.904  10.464
91906W        W57386  13.684  27.100   2.795
91907W        W57387  30.074  43.904   2.866
91908W        W57388   7.826  22.534   0.392
91909W        W57389  39.446  36.460  13.878
91910W        W57390   8.314  24.574  10.928
91911W        W57391  29.166   5.284  13.804
91912W        W57392  33.995  29.468   3.679
91913W        W57393   5.875  11.832   1.762
91914W        W57394  33.922   3.912   0.859
91915W        W57395  26.047  18.176   0.733
91916W        W57396   4.388  28.492  14.880
91917W        W57397  30.041   1.246  14.343
91918W        W57398  17.218  21.536   3.250
91919W        W57399  36.430  32.107  10.896
91920W        W57400  35.889  44.915   3.859
91921W        W57401  22.567  21.643  11.019
91922W        W57402  37.566  25.610   3.754
91923W        W57403  20.666  26.480  14.945
91924W        W57404   5.808   3.371   0.319
91925W        W57405  22.746  27.967   0.482
91926W        W57406  30.919  27.139   4.795
91927W        W57407  30.583  10.677  14.490
91928W        W57408   4.701  28.972   9.991
91929W        W57409  30.649  14.147  14.764
91930W        W57410  25.078  44.004   2.853
91931W        W57411   6.773  29.547  14.413
91932W        W57412  35.932  42.778  11.043
91933W        W57413   8.708  28.151  14.813
91934W        W57414  14.645  26.508  10.986
91935W        W57415  20.198   2.942   2.871
91936W        W57416  18.589  41.385  13.052
91937W        W57417   8.705  21.513   2.200
91938W        W57418  35.976  17.227   4.260
91939W        W57419   4.908   5.885  10.938
91940W        W57420  32.552  27.545  11.374
91941W        W57421  26.627  21.215  13.851
91942W        W57422  37.833   6.879  12.961
91943W        W57423   2.451  37.061  11.042
91944W        W57424  10.647   5.412   4.163
91945W        W57425  34.499   1.318  12.562
91946W        W57426  39.996  17.176  13.344
91947W        W57427  38.365  25.595  14.941
91948W        W57428  40.528  29.561  13.837
91949W        W57429   2.429   0.837   1.288
91950W        W57430  30.154  35.935   0.467
91951W        W57431  39.934  36.065   4.339
91952W        W57432  22.109  36.414  11.493
91953W        W57433   0.892  13.755   1.239
91954W        W57434  33.007  44.481   1.750
91955W        W57435   0.489  22.719  11.999
91956W        W57436  24.225  12.739   2.728
91957W        W57437  12.639  34.912   0.897
91958W        W57438   2.746  41.513   4.343
91959W        W57439  18.550  37.402   4.800
91960W        W57440  11.799  32.503  10.024
91961W        W57441  28.590  22.609  11.485
91962W        W57442  40.033  34.599   4.350
91963W        W57443   3.461  43.890  14.855
91964W        W57444  37.555  29.115   1.859
91965W        W57445  25.588  30.457  12.888
91966W        W57446   7.724  26.593   2.797
91967W        W57447  37.456  38.328  10.509
91968W        W57448   1.927  15.775   4.256
91969W        W57449  20.097  15.658   2.719
91970W        W57450  10.322  43.785   1.707
91971W        W57451  24.160  17.593  13.989
91972W        W57452   4.353  35.599  14.336
91973W        W57453  35.864  30.637  11.503
91974W        W57454  23.503  37.571   1.900
91975W        W57455   6.288  13.787   1.725
91976W        W57456  18.074  39.878   0.257
91977W        W57457   0.264   5.694  10.986
91978W        W57458  12.758  44.329   2.895
91979W        W57459  33.014  10.759   0.883
91980W        W57460  38.487  43.485  11.878
91981W        W57461   5.713   0.965   2.898
91982W        W57462  44.876   9.792  14.393
91983W        W57463  16.113  13.777  13.512
91984W        W57464   6.901   3.723  13.032
91985W        W57465  12.165  23.070  12.886
91986W        W57466   3.262  11.699  10.574
91987W        W57467  22.723  40.875   2.374
91988W        W57468  13.638   2.275   2.754
91989W        W57469   4.913   6.779   4.802
91990W        W57470  14.275  13.145   5.792
91991W        W57471  12.779  29.936   3.326
91992W        W57472  16.809  44.404   2.328
91993W        W57473  43.985  26.167  10.636
91994W        W57474   9.251  36.584  12.071
91995W        W57475  44.278  22.699   2.816
91996W        W57476  14.113   6.391  13.885
91997W        W57477  20.117  21.539   0.473
91998W        W57478  12.719  30.652   4.660
91999W        W57479  42.907  29.441   2.872
92000W        W57480   0.324  12.172  14.986
92001W        W57481  17.724  27.185   1.798
92002W        W57482   5.825  31.097  13.341
92003W        W57483  44.872  25.538   0.826
92004W        W57484  41.528  38.840   3.696
92005W        W57485   9.294   1.935   1.447
92006W        W57486  41.043  19.191  10.904
92007W        W57487  22.082  21.558  14.875
92008W        W57488  33.930  44.281  14.793
92009W        W57489  32.065   3.355  12.003
92010W        W57490  36.930   5.929  12.897
92011W        W57491   0.792   3.732   3.732
92012W        W57492   0.272  25.553   3.252
92013W        W57493  43.833  40.948   0.397
92014W        W57494  36.083  42.950   2.790
92015W        W57495  20.568   9.662   3.359
92016W        W57496   2.295  43.313  13.005
92017W        W57497  30.522  13.333   2.387
92018W        W57498  41.903   7.308   4.739
92019W        W57499   7.355  41.922  13.836
92020W        W57500   8.379   5.750   0.748
92021W        W57501  44.815  11.163   0.904
92022W        W57502  14.670   0.935  11.069
92023W        W57503  44.379  38.024   3.798
92024W        W57504  28.987  37.447  12.392
92025W        W57505   1.426  13.109   4.130
92026W        W57506  23.532  41.946  12.467
92027W        W57507  24.553  29.493   2.390
92028W        W57508  10.201   9.688  13.876
92029W        W57509  32.431  29.112   1.426
92030W        W57510  31.049  21.730   1.371
92031W        W57511  28.562  17.689  10.958
92032W        W57512  32.536   9.149   3.182
92033W        W57513  28.031   0.818  14.760
92034W        W57514  43.942  28.617   2.873
92035W        W57515  26.590  16.168   0.376
92036W        W57516  29.647  44.815  11.450
92037W        W57517  35.981   9.754  11.974
92038W        W57518  20.243   1.764   0.910
92039W        W57519   9.347  24.209   2.255
92040W        W57520  20.049  27.502   3.289
92041W        W57521  32.099   8.273  11.098
92042W        W57522   0.358  25.544   1.752
92043W        W57523  43.429   9.791  11.050
92044W        W57524  15.085  14.261   0.424
92045W        W57525  42.789  19.644  10.904
92046W        W57526   2.243  26.980  11.393
92047W        W57527  11.681  35.510  10.044
92048W        W57528  27.478  28.499   2.300
92049W        W57529  13.212  14.301   1.407
92050W        W57530  42.423  12.319  12.917
92051W        W57531  19.625  30.031  13.877
92052W        W57532  16.177   7.185  14.432
92053W        W57533  12.706  26.025   0.378
92054W        W57534  32.921   9.208   2.720
92055W        W57535  34.427  33.972   4.695
92056W        W57536  25.586  29.640   0.773
92057W        W57537  13.737  16.760  13.925
92058W        W57538  17.075  32.949   1.228
92059W        W57539  15.622  21.197   1.776
92060W        W57540   0.332  42.459   4.723
92061W        W57541  16.677  43.986   0.938
92062W        W57542  25.998  23.679  13.347
92063W        W57543   3.922  28.965   2.302
92064W        W57544  37.363   3.763  14.902
92065W        W57545  29.430   8.682   5.184
92066W        W57546  15.208  29.100   3.790
92067W        W57547  38.568  34.068   1.374
92068W        W57548  38.556  13.105  14.999
92069W        W57549  37.009  24.046   4.153
92070W        W57550  24.576  10.355  10.644
92071W        W57551  34.559   8.670  10.495
92072W        W57552   8.716  11.761   1.722
92073W        W57553   7.723  15.754  12.415
92074W        W57554  16.610  43.347   0.421
92075W        W57555   6.785   0.810  12.900
92076W        W57556  28.651   5.874  10.534
92077W        W57557  22.732  29.988  14.392
92078W        W57558  41.029   5.713   3.186
92079W        W57559  23.495  33.899   2.341
92080W        W57560   3.255  29.666  11.016
92081W        W57561  40.039  13.628  10.417
92082W        W57562  37.540   2.870  13.482
92083W        W57563  16.594   6.855   1.740
92084W        W57564   9.372   4.344  10.908
92085W        W57565  39.943  40.819   1.749
92086W        W57566   5.704  16.208   3.286
92087W        W57567  41.859  22.561   4.817
92088W        W57568  30.494  30.531   1.316
92089W        W57569  15.172  12.304   3.827
92090W        W57570  13.676  38.877   1.801
92091W        W57571  22.106   2.324   3.693
92092W        W57572  19.265   2.306  11.573
92093W        W57573  13.825  13.768  13.891
92094W        W57574  12.156  43.481   0.323
92095W        W57575  19.063  33.506  13.532
92096W        W57576  37.868  21.251   0.428
92097W        W57577  19.058  37.085  12.964
92098W        W57578  24.179  24.616   1.709
92099W        W57579  18.672  11.836  13.979
92100W        W57580  21.122  40.314  10.503
92101W        W57581  43.474  31.140   2.735
92102W        W57582   4.343   8.712   4.350
92103W        W57583  40.898  17.116   2.879
92104W        W57584  40.054   8.384   3.312
92105W        W57585  10.695  16.307   1.788
92106W        W57586  28.940  15.740   4.819
92107W        W57587  23.233   9.736   1.353
92108W        W57588  17.124  43.975  10.463
92109W        W57589  16.622  32.130  12.580
92110W        W57590   8.742   4.443   1.321
92111W        W57591  18.556  28.619   5.263
92112W        W57592  27.983  38.503   4.694
92113W        W57593  22.181  39.443   3.262
92114W        W57594  13.309   8.304  13.487
92115W        W57595  43.324  35.893   4.683
92116W        W57596  27.009  30.446  13.053
92117W        W57597  31.045  40.373  12.518
92118W        W57598  25.588  18.649   2.189
92119W        W57599  17.165   2.908  10.543
92120W        W57600  28.573  40.973  14.913
92121W        W57601  16.739  16.769  11.112
92122W        W57602  43.386  16.107  12.451
92123W        W57603  17.629  44.782  13.936
92124W        W57604  13.752   9.653  12.022
92125W        W57605  15.308  12.222   3.366
92126W        W57606  31.582  16.733   1.369
92127W        W57607  15.265  33.494   3.304
92128W        W57608   0.303  43.498  12.404
92129W        W57609  24.686  30.453  13.041
92130W        W57610  39.480  42.857  12.424
92131W        W57611  23.730   5.855  11.508
92132W        W57612  42.844  36.585   0.923
92133W        W57613  29.454  23.556  12.909
92134W        W57614  18.054  14.194  12.924
92135W        W57615  24.698  12.755   4.748
92136W        W57616  36.441  32.552   0.916
92137W        W57617  29.069  26.639  10.602
92138W        W57618  39.886   2.289   4.730
92139W        W57619  38.427  41.324   3.682
92140W        W57620  28.967   6.909  10.895
92141W        W57621   2.833  14.219   3.856
92142W        W57622  33.603  37.056   1.873
92143W        W57623  35.930  27.633  11.909
92144W        W57624   2.919  15.669  14.822
92145W        W57625  26.085  35.948  11.862
92146W        W57626   0.933  17.729   2.221
92147W        W57627  11.650  10.783  12.365
92148W        W57628   1.874   1.437   1.763
92149W        W57629  23.082  13.159  14.275
92150W        W57630  23.693  35.362   4.819
92151W        W57631  39.408  14.312   2.220
92152W        W57632  42.962   9.885  10.424
92153W        W57633  31.643  29.931   3.256
92154W        W57634  37.410  26.576  12.470
92155W        W57635  14.671   0.764   4.760
92156W        W57636   3.324  19.265  10.474
92157W        W57637  41.369  20.217  14.380
92158W        W57638  39.343   3.722  12.445
92159W        W57639  26.032   9.321   2.356
92160W        W57640  23.179  15.299  12.012
92161W        W57641  35.385  32.599   1.380
92162W        W57642  16.808  44.291   0.902
92163W        W57643  15.638   9.848  10.919
92164W        W57644  30.484  26.989   3.777
92165W        W57645  10.702   3.858  10.405
92166W        W57646  36.423  27.493   4.238
92167W        W57647  44.353  23.691  14.436
92168W        W57648   7.858  35.597   0.465
92169W        W57649  14.777   3.277  11.520
92170W        W57650   4.808   9.287  12.348
92171W        W57651  42.881   0.251  12.489
92172W        W57652  23.601  35.572   2.305
92173W        W57653   9.790  10.679  11.571
92174W        W57654  14.753  44.486   2.312
92175W        W57655  26.551  37.834   1.259
92176W        W57656  10.306  11.829  12.852
92177W        W57657  34.388   4.791  10.997
92178W        W57658   3.854   4.221  13.861
92179W        W57659  22.023  20.267  12.503
92180W        W57660  31.551   7.303   4.662
92181W        W57661  39.357  40.387  14.320
92182W        W57662  13.222   5.886   4.323
92183W        W57663  16.635  21.531   1.857
92184W        W57664  39.424  16.662   2.848
92185W        W57665  39.495  20.562   0.410
92186W        W57666  35.915   2.896   2.236
92187W        W57667   3.306  37.448  13.966
92188W        W57668  34.539  28.500   2.388
92189W        W57669  24.210  19.146   4.600
92190W        W57670  36.560  40.001   1.856
92191W        W57671  22.699  29.070   2.796
92192W        W57672   7.774  31.896  11.108
92193W        W57673  10.757  24.166   0.317
92194W        W57674  34.058  18.595  11.553
92195W        W57675   8.681  15.679  10.578
92196W        W57676   5.422  32.099   3.207
92197W        W57677  28.097  22.687  14.421
92198W        W57678  31.504   5.362   3.160
92199W        W57679  22.671  16.301   1.927
92200W        W57680  28.491  44.438   1.772
92201W        W57681  33.008  40.355   0.331
92202W        W57682  22.640  22.038   0.844
92203W        W57683   0.921  43.389  12.401
92204W        W57684  21.067  26.589   1.838
92205W        W57685  22.063  22.533  12.564
92206W        W57686  16.177  22.509  11.532
92207W        W57687  33.972  33.049  10.979
92208W        W57688  26.175   7.226   4.247
92209W        W57689   3.763  39.536  10.439
92210W        W57690  29.620   4.273   2.235
92211W        W57691  33.958  34.898   0.726
92212W        W57692  35.032  38.417  11.975
92213W        W57693  40.871  14.775   2.836
92214W        W57694  19.263  42.521   2.690
92215W        W57695  31.448  38.338  13.060
92216W        W57696  14.280  11.328  11.112
92217W        W57697  39.537  41.823  12.035
92218W        W57698  10.722   8.189   3.692
92219W        W57699   2.426  35.020  12.541
92220W        W57700  37.511  23.579  11.455
92221W        W57701  36.034  19.266   3.183
92222W        W57702  21.623   4.701  12.517
92223W        W57703   7.675  34.915  11.537
92224W        W57704  13.141  23.574   4.758
92225W        W57705  20.527  20.584   1.293
92226W        W57706   5.871  10.777   4.123
92227W        W57707  25.479  27.050   4.812
92228W        W57708  22.726  20.655   0.860
92229W        W57709  38.014  15.711   0.429
92230W        W57710  18.279  33.063   4.255
92231W        W57711  15.590   6.835  13.475
92232W        W57712   5.811  29.607  10.954
92233W        W57713  36.940  33.967   3.672
92234W        W57714  37.414  37.400  11.576
92235W        W57715   3.292  37.925   4.262
92236W        W57716  33.387  22.080  11.019
92237W        W57717  17.134  13.231   0.286
92238W        W57718   6.763  21.192   3.807
92239W        W57719  22.668  36.351  13.945
92240W        W57720  24.185  11.674   0.401
92241W        W57721  34.971  39.402  12.072
92242W        W57722  24.705   1.327  13.464
92243W        W57723  21.220   1.884  10.965
92244W        W57724  28.103  34.020  13.495
92245W        W57725   0.481  42.455   2.391
92246W        W57726  10.697   3.329  12.085
92247W        W57727  37.427  26.025  10.577
92248W        W57728  32.026  41.835   1.845
92249W        W57729  44.306  16.619  14.352
92250W        W57730  17.164  30.964   4.633
92251W        W57731   4.441  30.985  12.839
92252W        W57732  17.248  24.214   2.886
92253W        W57733  11.154   0.421   3.871
92254W        W57734  33.918   0.486  13.410
92255W        W57735  26.012  22.175  12.080
92256W        W57736  23.168   2.798  10.967
92257W        W57737   9.747  41.938   0.443
92258W        W57738  37.480  26.177   2.320
92259W        W57739  32.549  21.263  10.618
92260W        W57740  37.995  27.488  13.874
92261W        W57741  30.479  33.105  12.471
92262W        W57742   7.376  39.869  11.881
92263W        W57743  37.966  18.552  12.038
92264W        W57744  16.310  11.669   2.305
92265W        W57745  22.539  41.815  13.364
92266W        W57746  44.346   1.250   3.327
92267W        W57747  41.341  37.022  11.109
92268W        W57748   0.778  26.103  14.917
92269W        W57749  34.962  18.125  11.070
92270W        W57750   4.861   4.703   4.669
92271W        W57751   8.183  25.674  13.893
92272W        W57752   5.813  13.159  14.832
92273W        W57753  43.370  21.652   3.222
92274W        W57754   7.347   3.441  12.562
92275W        W57755  39.327   6.865  14.949
92276W        W57756  35.495  33.410   2.254
92277W        W57757  28.133  10.691   3.251
92278W        W57758  19.774  20.669  14.410
92279W        W57759  39.508  42.381  10.552
92280W        W57760  14.112  39.487  12.938
92281W        W57761  28.536  21.024   3.718
92282W        W57762  43.889  12.675   4.706
92283W        W57763  10.714  14.268   3.804
92284W        W57764  21.746   3.362   3.844
92285W        W57765   3.921  25.708   0.730
92286W        W57766  22.630  44.974  11.881
92287W        W57767  10.820  12.686  11.930
92288W        W57768  32.474   7.726  13.793
92289W        W57769   4.364  20.654  10.617
92290W        W57770  15.152   2.837  12.869
92291W        W57771  36.971  11.788   4.201
92292W        W57772   9.279  22.106   3.751
92293W        W57773  29.541  33.054   3.238
92294W        W57774   4.378   0.887   4.696
92295W        W57775  32.627  31.403  10.481
92296W        W57776  42.986  30.108   3.275
92297W        W57777  13.319   1.351   3.283
92298W        W57778  24.719   2.888   2.672
92299W        W57779  36.447  27.117   2.733
92300W        W57780  24.997  36.080   0.283
92301W        W57781  36.862  35.397  12.401
92302W        W57782  25.683  35.063   3.727
92303W        W57783   1.822  44.872  13.418
92304W        W57784  28.157  20.533  12.486
92305W        W57785  15.722  16.766  14.827
92306W        W57786   9.350   9.856   3.835
92307W        W57787   7.301  36.361  14.301
92308W        W57788  19.243  19.133   1.813
92309W        W57789   1.912  41.824  12.092
92310W        W57790   5.429  25.632  11.442
92311W        W57791  34.580  29.524  14.508
92312W        W57792  24.539  27.469   3.309
92313W        W57793   2.314  39.021  11.410
92314W        W57794  21.591   9.312   5.287
92315W        W57795  31.909  22.048   4.755
92316W        W57796  30.003  43.490   3.839
92317W        W57797  28.504   8.887   0.865
92318W        W57798  31.008  26.566  10.492
92319W        W57799  42.304  38.872  11.070
92320W        W57800  14.786  16.595  13.975
92321W        W57801   2.269  37.368   4.189
92322W        W57802  20.028  30.096   2.898
92323W        W57803  24.224  15.228  11.886
92324W        W57804  16.796   2.310  12.914
92325W        W57805  42.358  13.269   3.855
92326W        W57806   2.903  42.937   4.647
92327W        W57807  36.844  25.044   1.845
92328W        W57808  43.814  23.185  11.410
92329W        W57809  19.125  27.133  13.485
92330W        W57810  16.136   0.403   3.700
92331W        W57811  38.920  10.672   2.707
92332W        W57812  41.834  39.440  14.861
92333W        W57813   4.716  33.423  11.075
92334W        W57814  43.879   2.367  10.892
92335W        W57815   2.736  27.572   0.871
92336W        W57816  35.062  42.969  14.411
92337W        W57817  28.160  35.989  10.110
92338W        W57818  26.988  32.900  12.442
92339W        W57819  33.037  24.652   1.786
92340W        W57820   0.901  18.228  13.876
92341W        W57821  12.273  26.199  13.803
92342W        W57822   8.811  19.703  13.317
92343W        W57823  25.049  11.639   4.721
92344W        W57824  17.649   7.267   3.652
92345W        W57825  21.636  24.607  14.428
92346W        W57826  42.331  37.397   3.167
92347W        W57827  29.517  34.893   2.412
92348W        W57828  21.618  16.669   2.689
92349W        W57829  44.955  20.103  12.347
92350W        W57830  25.030  40.320   3.311
92351W        W57831   3.850  42.990  14.781
92352W        W57832   7.719   6.196   0.371
92353W        W57833  24.498  33.472  14.798
92354W        W57834  17.739  11.720   4.329
92355W        W57835   7.702  34.413  10.891
92356W        W57836  35.048  33.501  13.852
92357W        W57837  42.503  15.165  10.463
92358W        W57838  16.779  20.246   3.666
92359W        W57839   5.921   0.358   0.275
92360W        W57840  29.504   5.921  10.902
92361W        W57841  41.847  12.215   1.432
92362W        W57842  42.024  43.388  13.868
92363W        W57843  41.526  11.865   1.840
92364W        W57844  25.167  13.153   3.651
92365W        W57845  18.569   2.876  12.030
92366W        W57846   4.302  39.363  12.459
92367W        W57847  21.034  27.155  13.315
92368W        W57848  44.361  26.022   4.638
92369W        W57849  30.164  22.693   2.321
92370W        W57850   1.942  18.598  13.012
92371W        W57851  11.644  40.364  11.877
92372W        W57852  30.493  10.709  14.835
92373W        W57853  33.977  35.091  12.482
92374W        W57854  11.656  38.529   0.402
92375W        W57855  44.369  36.098  14.799
92376W        W57856  10.286  41.021  12.499
92377W        W57857  38.365  31.646  12.379
92378W        W57858  32.084   1.321   2.663
92379W        W57859  14.306  21.085  13.889
92380W        W57860  32.923  21.728   2.244
92381W        W57861   0.782  44.284   3.857
92382W        W57862  28.980   7.808   2.663
92383W        W57863  13.278   7.314  12.486
92384W        W57864  11.747  24.534  14.380
92385W        W57865  26.564  16.636  11.050
92386W        W57866  44.384  34.054   4.623
92387W        W57867  30.942  44.496  13.507
92388W        W57868  37.457  12.342   3.256
92389W        W57869   3.718  23.568   9.947
92390W        W57870   3.812  12.169   4.305
92391W        W57871   7.234  33.454  11.053
92392W        W57872   3.884  25.686  13.863
92393W        W57873  36.547   1.753  14.931
92394W        W57874   7.883  19.211   0.890
92395W        W57875  19.700  41.876   4.622
92396W        W57876   6.872  25.161   4.170
92397W        W57877   6.790   0.933   4.317
92398W        W57878  24.094  32.442  12.378
92399W        W57879  44.398  28.472   2.310
92400W        W57880   1.836  21.087   4.345
92401W        W57881  10.248  20.763   0.845
92402W        W57882  28.539   8.662  10.580
92403W        W57883  32.135  44.465  14.962
92404W        W57884  22.070  11.689   1.276
92405W        W57885  29.170  31.592  13.347
92406W        W57886  43.425  39.945  12.404
92407W        W57887  14.715  10.356   2.327
92408W        W57888  32.439   9.299  10.901
92409W        W57889  38.428   8.855  13.540
92410W        W57890   3.759  29.600  13.027
92411W        W57891  34.451  15.782  14.516
92412W        W57892   6.310  42.991   3.773
92413W        W57893  27.529  28.539  12.862
92414W        W57894   7.403  32.498   0.925
92415W        W57895  20.699  38.489  12.452
92416W        W57896  25.555  34.093   4.151
92417W        W57897   7.745  28.552  13.394
92418W        W57898   8.161  36.356   2.312
92419W        W57899  44.472  26.093  14.482
92420W        W57900  33.559  10.346  10.031
92421W        W57901   7.744  29.069  13.355
92422W        W57902  10.373  30.583  12.085
92423W        W57903  25.107  12.341  10.910
92424W        W57904  35.533  25.979   2.419
92425W        W57905  18.733  13.157  12.412
92426W        W57906  40.007  25.029   2.262
92427W        W57907  38.457   9.237   0.358
92428W        W57908  31.549  42.972  11.054
92429W        W57909  10.198   8.686  14.796
92430W        W57910  18.590  43.818   3.642
92431W        W57911  31.091  31.447  11.567
92432W        W57912   5.231  43.922   1.931
92433W        W57913  38.840   0.880   5.298
92434W        W57914  18.621  29.658  13.959
92435W        W57915  36.543  43.858  11.888
92436W        W57916  25.176  27.569   1.400
92437W        W57917  14.134   6.252   4.258
92438W        W57918   8.711  13.663   2.877
92439W        W57919   8.295   6.309  13.834
92440W        W57920   1.350  29.926  14.790
92441W        W57921  40.861  21.219   3.844
92442W        W57922  19.659  26.031   0.416
92443W        W57923  41.342  10.304  13.488
92444W        W57924  24.123  29.452  10.118
92445W        W57925   6.414   6.384  11.898
92446W        W57926   5.759  38.937  14.331
92447W        W57927  40.921  16.151  14.459
92448W        W57928  31.491  21.187   5.149
92449W        W57929   8.338   0.475  14.879
92450W        W57930  20.672  24.699   3.363
92451W        W57931  18.057  20.705  14.466
92452W        W57932   2.903  40.418  14.850
92453W        W57933  21.077  35.046  13.531
92454W        W57934  12.741  38.394  10.957
92455W        W57935  10.142  28.111  13.021
92456W        W57936  12.227  35.522  10.984
92457W        W57937  27.639  41.509  11.027
92458W        W57938  15.135   0.893   2.780
92459W        W57939  30.127  16.093  11.560
92460W        W57940  16.274  24.531   3.310
92461W        W57941  42.990  16.769   1.440
92462W        W57942  18.055  33.430   0.473
92463W        W57943  30.066   2.787  13.338
92464W        W57944  43.891  22.546   1.918
92465W        W57945   8.281  36.492  10.451
92466W        W57946  19.623  22.640  12.851
92467W        W57947  32.130  14.188  11.463
92468W        W57948  44.855   3.902   0.964
92469W        W57949   8.699   0.445   2.289
92470W        W57950  22.684  40.949  13.320
92471W        W57951  41.850  40.047  12.033
92472W        W57952  39.898  35.497   2.676
92473W        W57953  37.373  36.043   1.277
92474W        W57954  13.313  32.574  13.424
92475W        W57955   1.303  41.016  14.833
92476W        W57956  13.244  33.070  11.059
92477W        W57957  43.001  23.702   2.363
92478W        W57958  27.604  31.998  13.909
92479W        W57959  33.991  11.800   4.635
92480W        W57960   8.201  42.377  13.332
92481W        W57961   6.301  13.659  10.107
92482W        W57962   2.335   0.918  10.429
92483W        W57963  43.381   6.698  10.636
92484W        W57964  43.359  24.139   2.328
92485W        W57965  15.596  23.653   4.786
92486W        W57966   9.317   5.719   1.306
92487W        W57967  44.266   1.968   1.225
92488W        W57968  24.593   0.365  14.288
92489W        W57969  26.663  10.191   2.759
92490W        W57970  37.441  26.961   2.187
92491W        W57971  37.546   4.253  13.804
92492W        W57972  22.237  18.074   3.653
92493W        W57973  35.952  18.243  12.954
92494W        W57974  11.788  31.953  12.964
92495W        W57975  17.291  40.973  13.052
92496W        W57976  16.091  42.363  14.465
92497W        W57977  41.487  37.833   1.282
92498W        W57978  38.475  33.558   3.735
92499W        W57979   0.315  17.195  13.355
92500W        W57980  32.489  43.304  10.915
92501W        W57981  13.716  41.359  11.561
92502W        W57982   7.910   7.185  13.481
92503W        W57983   9.828  17.248  12.941
92504W        W57984  35.560  15.681  14.344
92505W        W57985  11.826  44.803   0.820
92506W        W57986   4.284   9.871  11.578
92507W        W57987  32.928   0.959   0.253
92508W        W57988  25.711  34.966   2.874
92509W        W57989  34.459  24.627   3.739
92510W        W57990  43.929  39.317   4.776
92511W        W57991   9.653   4.369   0.304
92512W        W57992   2.294  13.752   2.825
92513W        W57993  16.248  31.442   1.433
92514W        W57994  15.246  34.061  11.919
92515W        W57995  35.563   2.746   3.154
92516W        W57996  25.595  43.388   1.794
92517W        W57997  10.860  30.922   3.770
92518W        W57998   5.298  34.427   2.225
92519W        W57999  18.054   1.968   0.386
92520W        W58000  36.563  19.192  13.862
92521W        W58001  14.687  18.267  11.987
92522W        W58002  27.109  14.782  14.946
92523W        W58003  18.723   2.239   1.360
92524W        W58004  38.361  16.197   2.752
92525W        W58005  30.487  32.133  13.318
92526W        W58006  21.134  24.605   3.272
92527W        W58007   7.752  22.198  14.280
92528W        W58008   3.412  26.533  14.293
92529W        W58009  34.591  32.947  11.873
92530W        W58010   9.840  39.498  13.409
92531W        W58011  44.813  10.150  12.949
92532W        W58012   5.250  20.032   0.353
92533W        W58013  18.195  41.896   0.460
92534W        W58014  39.013  44.994   1.359
92535W        W58015   1.350   2.393  13.440
92536W        W58016  38.387  13.346   0.351
92537W        W58017  36.522  14.826   4.155
92538W        W58018  14.759  33.567   4.750
92539W        W58019   0.345  32.616   1.311
92540W        W58020   3.721  18.663   2.735
92541W        W58021  42.337  40.504  13.368
92542W        W58022  26.022  18.585   4.771
92543W        W58023  12.722   0.757   0.893
92544W        W58024   0.312  39.468   4.714
92545W        W58025  30.983   1.864  13.488
92546W        W58026  33.393   1.911   9.954
92547W        W58027   9.759   7.221  12.944
92548W        W58028  37.524  26.621   4.240
92549W        W58029  38.840  35.475  12.451
92550W        W58030  17.747   4.873  14.462
92551W        W58031  38.847  33.546   0.271
92552W        W58032  18.136  26.965  14.974
92553W        W58033  25.132  36.503   4.319
92554W        W58034  13.708  21.247  14.424
92555W        W58035  18.774   9.761   0.952
92556W        W58036   6.324  35.064  12.361
92557W        W58037  24.695  20.146  14.900
92558W        W58038  26.644  42.519   3.354
92559W        W58039   1.294   2.313   0.924
92560W        W58040  11.259  18.622   2.685
92561W        W58041  23.003  31.407   4.298
92562W        W58042  28.158  17.643  12.941
92563W        W58043  34.966  16.736  14.452
92564W        W58044   3.325  43.288   0.297
92565W        W58045  30.987  22.064   0.945
92566W        W58046   1.466   2.897   3.813
92567W        W58047  29.600  31.636   1.699
92568W        W58048  17.090   3.848   1.386
92569W        W58049  33.592   0.464  11.921
92570W        W58050  21.057  16.780   4.166
92571W        W58051  43.867  34.510  10.892
92572W        W58052  19.629  41.031   1.847
92573W        W58053  39.365  35.378   4.644
92574W        W58054   6.199  21.127   3.268
92575W        W58055  34.587  24.203  14.003
92576W        W58056   2.462  39.318  14.026
92577W        W58057  26.069  13.802  12.481
92578W        W58058  38.829  15.126   2.311
92579W        W58059  17.153  24.687  11.504
92580W        W58060  27.603  36.848  12.079
92581W        W58061  30.580  16.106  13.442
92582W        W58062  27.972  29.635  13.949
92583W        W58063  16.269  19.737   3.809
92584W        W58064  32.546  35.368  10.640
92585W        W58065   0.320  29.936  13.895
92586W        W58066  40.941   7.784  10.585
92587W        W58067  27.641  40.882   0.870
92588W        W58068  42.965  21.523   4.156
92589W        W58069   8.788  39.458  10.441
92590W        W58070  21.213  17.613   2.833
92591W        W58071  18.691   2.967  14.367
92592W        W58072  16.184   3.874  14.896
92593W        W58073   8.798  41.344   0.960
92594W        W58074   6.710  10.181  14.308
92595W        W58075  21.115  13.815  14.401
92596W        W58076  42.482  26.516  10.588
92597W        W58077  40.801  27.508   1.915
92598W        W58078  43.936  22.621  10.582
92599W        W58079   3.759  17.157  10.448
92600W        W58080  12.730   5.265   1.726
92601W        W58081  37.986  28.539   2.219
92602W        W58082   2.795  37.531   0.906
92603W        W58083  30.146  24.630  13.028
92604W        W58084  23.046  44.380  11.395
92605W        W58085  20.603  43.970   0.847
92606W        W58086  13.756  44.420   2.860
92607W        W58087  26.661  19.153   0.382
92608W        W58088   1.747  33.110   3.869
92609W        W58089  30.642   4.279   2.321
92610W        W58090  34.575   1.263   0.845
92611W        W58091  36.987  40.983   3.647
92612W        W58092  33.418   6.350  13.433
92613W        W58093  40.438  26.973   4.635
92614W        W58094  11.821  33.396  10.459
92615W        W58095  33.463   5.717  11.915
92616W        W58096  20.764  21.703   0.440
92617W        W58097   3.848  27.667  11.896
92618W        W58098   4.327  22.586   2.710
92619W        W58099  34.459  16.154  14.811
92620W        W58100  44.413  32.937   0.897
92621W        W58101  20.591  26.458   0.295
92622W        W58102   5.874  12.149   3.180
92623W        W58103  28.179   8.305   0.955
92624W        W58104   8.370   4.889   0.299
92625W        W58105   6.348  38.890  13.354
92626W        W58106  44.284   7.409   0.762
92627W        W58107  19.712  33.605  13.894
92628W        W58108   8.232  36.413  13.950
92629W        W58109  10.686   2.256   2.675
92630W        W58110  30.577   1.472   2.202
92631W        W58111  42.887  32.542  12.006
92632W        W58112  43.381  26.595  13.911
92633W        W58113  18.648  19.761  14.342
92634W        W58114  30.075   7.692   2.791
92635W        W58115   8.367  20.238  10.523
92636W        W58116  44.806  25.059   1.386
92637W        W58117  11.838  23.647   9.930
92638W        W58118  11.144   4.742   0.846
92639W        W58119  24.559  36.512  12.340
92640W        W58120  15.600  10.150   9.966
92641W        W58121  30.017  13.665   0.846
92642W        W58122   0.450  40.482   3.157
92643W        W58123  38.849  33.453   3.817
92644W        W58124   0.860   3.948   2.357
92645W        W58125   7.237  35.952   3.664
92646W        W58126  28.989   9.654  10.547
92647W        W58127   3.358   0.902   3.637
92648W        W58128   1.294  12.274   4.661
92649W        W58129  19.164  18.240  13.911
92650W        W58130  19.180  40.331  11.875
92651W        W58131  30.124  33.561   2.769
92652W        W58132  26.674   3.270   1.410
92653W        W58133  32.626  34.891   3.287
92654W        W58134  39.412  16.692  14.515
92655W        W58135  22.094  26.201  14.403
92656W        W58136   5.730   6.377  11.595
92657W        W58137  22.106  12.198   2.216
92658W        W58138  30.074  27.620   1.876
92659W        W58139  21.660  21.568  10.894
92660W        W58140  36.070   6.882   1.282
92661W        W58141   8.191   4.726   2.712
92662W        W58142  24.708   4.802   1.364
92663W        W58143  36.026  23.122  12.493
92664W        W58144  42.370  33.995   3.710
92665W        W58145  42.368  22.042  12.456
92666W        W58146  34.384  32.955   0.346
92667W        W58147  29.131  30.577   1.763
92668W        W58148  17.611  22.213   2.412
92669W        W58149  24.978  23.071   2.393
92670W        W58150   9.194  37.525   3.313
92671W        W58151   5.374   7.682   1.252
92672W        W58152  17.254  12.712  13.914
92673W        W58153  23.536  14.725   1.426
92674W        W58154  22.598   1.477   1.232
92675W        W58155  41.302  43.977   0.463
92676W        W58156  25.690   5.807  13.363
92677W        W58157  22.510  19.586   1.722
92678W        W58158  26.968  36.961  12.396
92679W        W58159  17.178  32.530  10.504
92680W        W58160  40.981  21.638   0.874
92681W        W58161  18.712  38.919   0.799
92682W        W58162  43.455  39.851  14.810
92683W        W58163  20.113  29.539  10.566
92684W        W58164  13.671   3.254   1.286
92685W        W58165  19.256  22.160  12.991
92686W        W58166  26.081  43.296   0.334
92687W        W58167  19.255   6.245  13.331
92688W        W58168  25.609  13.618   0.464
92689W        W58169  26.985   1.336   1.752
92690W        W58170  15.586  32.998   3.274
92691W        W58171  31.464   7.331  11.478
92692W        W58172  27.164  38.904   1.908
92693W        W58173  13.787  38.943   2.218
92694W        W58174   7.178  43.516   1.772
92695W        W58175   9.390   3.314  14.864
92696W        W58176   8.879  39.002   3.203
92697W        W58177  16.686  21.166  11.441
92698W        W58178  22.532   9.221  14.772
92699W        W58179  33.019   0.303  13.503
92700W        W58180  17.257   4.308  10.587
92701W        W58181   5.334  32.502   1.788
92702W        W58182  42.411  37.539   0.871
92703W        W58183  28.648  44.936   4.269
92704W        W58184  31.908  17.106   1.310
92705W        W58185  41.495  25.636   0.478
92706W        W58186  13.748  20.561  12.864
92707W        W58187   7.232  21.214  11.400
92708W        W58188   1.302   5.332  13.365
92709W        W58189  18.608  30.033   4.733
92710W        W58190  10.786  12.739   0.819
92711W        W58191  32.608  20.560  11.883
92712W        W58192  34.477  26.596  12.459
92713W        W58193  11.283  10.300   0.339
92714W        W58194  36.554   4.742   5.159
92715W        W58195  11.833  44.894  10.611
92716W        W58196  16.263  40.879   9.596
92717W        W58197  42.436  42.443  12.096
92718W        W58198   2.325  10.814   4.671
92719W        W58199  10.845  44.296   0.738
92720W        W58200  36.019   8.666  10.493
92721W        W58201  19.195  36.856  13.511
92722W        W58202   6.740  42.357  12.494
92723W        W58203  39.975  43.284   4.672
92724W        W58204  31.108  35.960  11.954
92725W        W58205  33.076  41.448   2.238
92726W        W58206  20.572  25.023  14.948
92727W        W58207  42.978  29.020   0.740
92728W        W58208   0.353  31.552   4.805
92729W        W58209   8.736  15.180   2.777
92730W        W58210  36.568  27.477  12.532
92731W        W58211   2.959  31.605  13.008
92732W        W58212  14.795   1.337   2.334
92733W        W58213  44.309  20.249   3.758
92734W        W58214   2.796   4.869   1.918
92735W        W58215  34.413  28.132  11.902
92736W        W58216  21.234  27.516   1.333
92737W        W58217  19.746  44.400   4.767
92738W        W58218  11.127  42.806   1.437
92739W        W58219   7.417  39.838   4.224
92740W        W58220  17.079  23.535  10.572
92741W        W58221  15.664  33.103  14.770
92742W        W58222  28.990  42.992  13.026
92743W        W58223  11.169  39.931  11.975
92744W        W58224  24.701  39.437   2.291
92745W        W58225  11.271   7.271   3.764
92746W        W58226   9.758  26.123  12.833
92747W        W58227  19.642  22.034  14.369
92748W        W58228  42.892   8.699   2.760
92749W        W58229  17.061  41.358  10.923
92750W        W58230  12.819  21.186   3.161
92751W        W58231  16.085  41.848   0.882
92752W        W58232  29.607   7.208   0.465
92753W        W58233  35.947   5.917   4.235
92754W        W58234  15.233  12.835  13.486
92755W        W58235  28.648  26.054   0.864
92756W        W58236  26.553   2.814   1.832
92757W        W58237  43.994  39.439   1.921
92758W        W58238   3.248   3.890  14.932
92759W        W58239  43.408  17.608   1.325
92760W        W58240   1.867  11.713  14.395
92761W        W58241  44.457  44.804  14.932
92762W        W58242  44.399  19.539   1.814
92763W        W58243  20.550  15.255  11.480
92764W        W58244   0.958   3.432   1.749
92765W        W58245  25.036  10.155   2.320
92766W        W58246  26.984  28.643   4.786
92767W        W58247  15.804  25.018  12.873
92768W        W58248  26.137   4.210  12.343
92769W        W58249  23.149  15.180   4.221
92770W        W58250  37.023  34.010  14.789
92771W        W58251  22.206  35.564   2.220
92772W        W58252  39.912   7.743   1.765
92773W        W58253  17.250  42.300   1.345
92774W        W58254  12.216  27.517  12.501
92775W        W58255  18.617  22.674   1.400
92776W        W58256  12.616  27.141   4.729
92777W        W58257  24.650  30.611  12.391
92778W        W58258  35.422  20.711   2.786
92779W        W58259   2.302  16.256  13.318
92780W        W58260  15.116  12.650   5.636
92781W        W58261   8.673  39.364  11.026
92782W        W58262  34.590  24.106   2.840
92783W        W58263  43.384  38.533   4.720
92784W        W58264  31.575  38.958   0.826
92785W        W58265   4.375   4.405   3.656
92786W        W58266  31.976  15.633  13.309
92787W        W58267   2.833  32.016  12.933
92788W        W58268  19.056   6.848  13.445
92789W        W58269  37.009  27.467   2.822
92790W        W58270  13.168  35.455  13.505
92791W        W58271  34.434  31.940  13.540
92792W        W58272  40.986  19.213   1.315
92793W        W58273  37.012  33.902  11.859
92794W        W58274  12.261   7.757   1.877
92795W        W58275  44.459  15.708  14.028
92796W        W58276   1.966  33.030   1.308
92797W        W58277  32.124  40.954  12.097
92798W        W58278   9.792   2.292   3.331
92799W        W58279  32.514  31.981  14.893
92800W        W58280  19.694  23.544  12.849
92801W        W58281   1.931  23.545   0.401
92802W        W58282  22.092   2.389   1.778
92803W        W58283  26.037   2.344   1.368
92804W        W58284  37.342  32.615   4.601
92805W        W58285  34.086  32.427   1.789
92806W        W58286  30.954  44.989   2.272
92807W        W58287  32.033  20.226  11.537
92808W        W58288   7.385  40.324  13.852
92809W        W58289  38.931  25.989   2.253
92810W        W58290  24.563  32.011  14.990
92811W        W58291  23.560  19.168  12.577
92812W        W58292   0.311   8.306   4.222
92813W        W58293  32.946  18.657   1.279
92814W        W58294  30.499  21.554   0.916
92815W        W58295   7.876  31.975   0.837
92816W        W58296  40.821  24.174  10.507
92817W        W58297   7.350  36.842   3.376
92818W        W58298  34.884  38.935   0.780
92819W        W58299  30.122  25.002   3.241
92820W        W58300  33.480  23.197   5.308
92821W        W58301  36.971  35.044  12.966
92822W        W58302  32.123  26.470  13.834
92823W        W58303   4.445  24.549  13.829
92824W        W58304  27.617  44.407  10.458
92825W        W58305  28.537  22.639   0.891
92826W        W58306  26.110   3.912  14.976
92827W        W58307  22.122  20.522  12.085
92828W        W58308  39.465  44.906   1.921
92829W        W58309  25.081  13.171  13.338
92830W        W58310  25.105  35.945  12.414
92831W        W58311   2.278  27.613   3.373
92832W        W58312  29.493   8.203   2.726
92833W        W58313  15.702  33.947   1.870
92834W        W58314  41.423  28.627   4.816
92835W        W58315  18.084  44.287  11.086
92836W        W58316  39.939   7.400   4.272
92837W        W58317  24.696  33.979  10.989
92838W        W58318  40.981  41.328  10.953
92839W        W58319   0.482  36.436  12.365
92840W        W58320  19.186  40.443   1.301
92841W        W58321   1.400  39.472   0.869
92842W        W58322   7.798  19.775  13.998
92843W        W58323  31.028  11.679  10.071
92844W        W58324  26.195   2.763   2.251
92845W        W58325  18.156   5.799  13.853
92846W        W58326  41.420  31.471  13.509
92847W        W58327  25.020  14.304   1.872
92848W        W58328  36.480  10.142   4.655
92849W        W58329  29.007   1.840   4.260
92850W        W58330  14.674  41.864   1.257
92851W        W58331  30.010   8.246  11.084
92852W        W58332  11.324  36.486  11.965
92853W        W58333  42.883  13.242   4.685
92854W        W58334   2.835  23.183  10.628
92855W        W58335  27.467  16.273   2.413
92856W        W58336  17.276  36.855   4.318
92857W        W58337  38.850   8.344  10.470
92858W        W58338  36.383   1.465  10.426
92859W        W58339  39.465  24.572  14.366
92860W        W58340  42.281  25.503   0.345
92861W        W58341  38.037  37.947   3.308
92862W        W58342  40.478  32.142   5.111
92863W        W58343  44.777   7.799  14.776
92864W        W58344  31.435  11.335   4.776
92865W        W58345   2.461  13.805   1.447
92866W        W58346  22.133  41.359   0.838
92867W        W58347  16.079   8.299   0.415
92868W        W58348  21.127  28.533  12.525
92869W        W58349  33.064  17.622   1.746
92870W        W58350  42.838  23.163   4.240
92871W        W58351   2.361  40.816  12.504
92872W        W58352   9.819  44.987  12.962
92873W        W58353  37.375  38.882  12.907
92874W        W58354  29.532  41.469  11.376
92875W        W58355  14.112  28.636   2.720
92876W        W58356  34.540  32.998   1.755
92877W        W58357   3.755  39.881  10.608
92878W        W58358  18.069   9.357   3.787
92879W        W58359  19.702   6.301  11.374
92880W        W58360  31.571  43.919   1.318
92881W        W58361  28.677  28.111  13.327
92882W        W58362  29.049  43.467   3.643
92883W        W58363  21.590  15.796  13.011
92884W        W58364   6.714  13.838  14.380
92885W        W58365  29.084   4.362  14.491
92886W        W58366  23.114  17.201  12.427
92887W        W58367  20.542  31.904  14.464
92888W        W58368   8.316  11.849   3.356
92889W        W58369   7.347  31.448   0.736
92890W        W58370  18.634  30.556  11.494
92891W        W58371  15.656   3.271   2.411
92892W        W58372  29.968   7.191  12.858
92893W        W58373   3.825  24.183   4.607
92894W        W58374  31.990  27.178   4.802
92895W        W58375  27.672  43.419   3.268
92896W        W58376   0.441  15.578  14.848
92897W        W58377  16.160   7.835  11.996
92898W        W58378  21.720  29.157   3.700
92899W        W58379  31.012  27.188   3.215
92900W        W58380   0.423   4.717  12.888
92901W        W58381  36.544  21.627   4.625
92902W        W58382  36.873  41.040  12.377
92903W        W58383  13.341  10.161   3.335
92904W        W58384  25.985  12.143  10.955
92905W        W58385  24.678  11.842  13.392
92906W        W58386   1.366  20.067  12.831
92907W        W58387  26.554   7.745  14.501
92908W        W58388  12.784  23.608   4.140
92909W        W58389   8.172   5.863   4.197
92910W        W58390  28.149   4.313  11.527
92911W        W58391  30.439   6.306  14.371
92912W        W58392  30.095  28.997  14.929
92913W        W58393   9.670   3.950  14.507
92914W        W58394  19.225  38.460  13.052
92915W        W58395   7.338   1.426  14.974
92916W        W58396   0.379  13.737   1.210
92917W        W58397  26.543  41.859  14.316
92918W        W58398  35.468  44.433  11.501
92919W        W58399  16.078  15.660   9.503
92920W        W58400   1.861  19.656  12.046
92921W        W58401  41.966  19.195   0.776
92922W        W58402  16.686   4.939   2.825
92923W        W58403  37.410  27.535  10.937
92924W        W58404  26.105  14.778   4.199
92925W        W58405  23.575   2.250   0.946
92926W        W58406  18.646   5.438   4.816
92927W        W58407  12.200   2.278   0.368
92928W        W58408   1.952   5.852  13.481
92929W        W58409  30.045   6.297   4.597
92930W        W58410   3.841  10.271   9.951
92931W        W58411  24.980  42.451   0.841
92932W        W58412  44.002  16.637   4.617
92933W        W58413   6.875   3.287   2.384
92934W        W58414  24.676  39.962   4.300
92935W        W58415  12.840  24.209  14.511
92936W        W58416   3.216  13.646  14.915
92937W        W58417   3.801  14.746   4.838
92938W        W58418  38.968   1.282  14.795
92939W        W58419  43.886  33.939   0.296
92940W        W58420  28.442   4.310   2.727
92941W        W58421  36.562  42.293  11.959
92942W        W58422  20.187  32.105   3.294
92943W        W58423  15.094  42.396   1.724
92944W        W58424  23.558  21.244  10.061
92945W        W58425  13.826  30.113  12.476
92946W        W58426  28.971  40.877   5.260
92947W        W58427  20.661  25.479   4.628
92948W        W58428  31.627  22.074  12.087
92949W        W58429  44.457  30.149   0.850
92950W        W58430  31.065  37.402   3.644
92951W        W58431  43.011  18.707  13.056
92952W        W58432  15.294  26.115   0.446
92953W        W58433  11.222  30.578   0.768
92954W        W58434  17.242  28.073  11.481
92955W        W58435  14.223  11.146  10.540
92956W        W58436  38.943  41.023   1.386
92957W        W58437  10.250  42.362  10.459
92958W        W58438  13.209  26.152   2.365
92959W        W58439  42.420  36.434  13.793
92960W        W58440   5.335  26.977  13.515
92961W        W58441   0.813  12.158   4.352
92962W        W58442  11.193  40.416   4.764
92963W        W58443  39.863   0.867  13.034
92964W        W58444  16.249  39.412   3.237
92965W        W58445  43.371  27.456   0.264
92966W        W58446  34.074  12.645   2.851
92967W        W58447  15.772  39.480  13.385
92968W        W58448  39.050  39.057   2.223
92969W        W58449  18.213  40.798   2.211
92970W        W58450   0.887  29.561   0.278
92971W        W58451  32.541  10.153   1.262
92972W        W58452  18.234  13.727  10.544
92973W        W58453  22.204  32.516  13.432
92974W        W58454  11.213  12.263   4.153
92975W        W58455  21.217   0.467  14.389
92976W        W58456  11.208  40.866   4.150
92977W        W58457  27.588  31.621   3.809
92978W        W58458  19.688  32.487   4.281
92979W        W58459  20.744  40.961   2.833
92980W        W58460  20.254   2.267   2.273
92981W        W58461  13.761  17.666   0.466
92982W        W58462  19.196  15.758   1.330
92983W        W58463  25.032  40.016   0.385
92984W        W58464  19.115  18.760  10.596
92985W        W58465  35.573   6.229  14.312
92986W        W58466  10.682   1.806   1.847
92987W        W58467  10.195  42.874  14.311
92988W        W58468  12.350   7.361  12.054
92989W        W58469   3.425  20.102  10.462
92990W        W58470  30.994  25.571  12.492
92991W        W58471  42.522   6.676  13.958
92992W        W58472  36.918  11.354  12.844
92993W        W58473  11.832   6.382   2.893
92994W        W58474  25.026   1.245   4.155
92995W        W58475  16.699  19.191  10.411
92996W        W58476  21.556  25.102   4.314
92997W        W58477  30.960  43.412   3.779
92998W        W58478  17.282  35.455   0.433
92999W        W58479  12.120  30.080  13.472
93000W        W58480  26.543  44.320   1.761
93001W        W58481  40.529  38.828  13.044
93002W        W58482  34.389  29.646  13.917
93003W        W58483  43.311  20.595   4.257
93004W        W58484  27.516  19.704   1.742
93005W        W58485  36.390   8.208   1.788
93006W        W58486  37.997  14.227  13.996
93007W        W58487  11.827  21.141  12.874
93008W        W58488  20.557   2.268   3.194
93009W        W58489   3.715  14.161  14.952
93010W        W58490  40.813  35.941   4.664
93011W        W58491  40.821  40.386  13.452
93012W        W58492  43.932   7.677  13.357
93013W        W58493  13.821  12.765  11.473
93014W        W58494  15.658   6.774   4.728
93015W        W58495  26.465  18.763   4.132
93016W        W58496  16.296  22.588   4.624
93017W        W58497   3.800   6.302  14.865
93018W        W58498  38.829  12.825   3.314
93019W        W58499  20.607  40.859   3.849
93020W        W58500  36.562  37.388  13.397
93021W        W58501  27.506  37.353  14.485
93022W        W58502  38.540  17.249   3.690
93023W        W58503   5.916   0.332   1.732
93024W        W58504  12.352   5.265   0.967
93025W        W58505  24.184  13.243  10.966
93026W        W58506  25.701  29.556   1.223
93027W        W58507  40.833   4.227  11.437
93028W        W58508  20.734  44.837  13.357
93029W        W58509  35.959  12.804  14.402
93030W        W58510  12.796   9.358  11.123
93031W        W58511  19.056  11.267   2.416
93032W        W58512  17.112  14.236   1.913
93033W        W58513  44.998  27.556   2.344
93034W        W58514  35.937  28.004   1.326
93035W        W58515   3.388  11.203   0.897
93036W        W58516  15.085  42.881  13.017
93037W        W58517  32.457  23.045  14.379
93038W        W58518  39.027  17.223  11.015
93039W        W58519  19.105  37.355  11.960
93040W        W58520  32.425  43.872  12.852
93041W        W58521  21.224  10.730   0.757
93042W        W58522  21.220   7.225  14.438
93043W        W58523  36.399  38.042   4.736
93044W        W58524  25.213   9.677  14.398
93045W        W58525  29.668  28.442  10.515
93046W        W58526  29.975  10.370  14.838
93047W        W58527  41.535  30.024   1.220
93048W        W58528  39.959  39.015   4.608
93049W        W58529  30.996  39.914   3.645
93050W        W58530  13.691  40.363  11.003
93051W        W58531  32.020  29.658  12.376
93052W        W58532   0.347  35.026  14.447
93053W        W58533  38.994  37.037  12.421
93054W        W58534   6.294  37.556   5.238
93055W        W58535  12.629  40.352  12.542
93056W        W58536  18.606  11.842   0.461
93057W        W58537  13.742   5.274   4.613
93058W        W58538  17.254  21.145  13.892
93059W        W58539  27.572  34.926  14.913
93060W        W58540  36.060   0.983   0.888
93061W        W58541  11.327  32.470  13.061
93062W        W58542  23.125   5.420  14.373
93063W        W58543  20.705  14.247   4.772
93064W        W58544  20.556  38.555  10.491
93065W        W58545  27.098   5.400  12.029
93066W        W58546  28.608  33.024   1.892
93067W        W58547  19.766  19.220   4.274
93068W        W58548  20.726  29.613   1.314
93069W        W58549  43.465   7.720   0.297
93070W        W58550   3.274  33.461   5.221
93071W        W58551   9.845  10.705   0.880
93072W        W58552  13.217  26.627   4.620
93073W        W58553   9.386   4.751   1.335
93074W        W58554   8.867   2.838  12.538
93075W        W58555  25.158   6.740   4.818
93076W        W58556  38.376  24.105   3.671
93077W        W58557   8.244  33.542   3.254
93078W        W58558  34.554   2.424   1.743
93079W        W58559   4.827  37.438   1.297
93080W        W58560  27.074  30.918  10.639
93081W        W58561  25.472  36.988   1.743
93082W        W58562  19.199  20.095  11.489
93083W        W58563  32.591  33.021  12.052
93084W        W58564   8.346  30.466  10.571
93085W        W58565  33.052  24.210   0.754
93086W        W58566  19.045   9.345  12.376
93087W        W58567   7.333  31.611  11.916
93088W        W58568  38.967  32.561  13.308
93089W        W58569  19.128  43.387  13.834
93090W        W58570   5.793  23.189   2.747
93091W        W58571  27.009  19.552  12.466
93092W        W58572  11.150  30.615   3.291
93093W        W58573   9.344  18.714  10.912
93094W        W58574  39.345  30.910   1.894
93095W        W58575  28.547  18.111  14.360
93096W        W58576   0.330  35.388   5.138
93097W        W58577  20.756   0.256  14.992
93098W        W58578  23.140  16.190  14.491
93099W        W58579  35.526  38.979   2.734
93100W        W58580  40.009  27.620  11.422
93101W        W58581  26.188  14.639   0.356
93102W        W58582  35.385   3.776  14.511
93103W        W58583  18.052  12.202  11.998
93104W        W58584   2.960  15.702   2.250
93105W        W58585  38.521  18.073  13.809
93106W        W58586   4.268  36.995   0.809
93107W        W58587  41.008  30.453  13.949
93108W        W58588  19.706  17.145  14.308
93109W        W58589  21.094  33.937  13.055
93110W        W58590  30.508  41.495   3.687
93111W        W58591  11.761  10.728  14.432
93112W        W58592  19.605  29.970  12.537
93113W        W58593   9.867   1.450  13.830
93114W        W58594  20.085  13.787  14.396
93115W        W58595   2.251  19.090  11.477
93116W        W58596  39.428   0.308   2.757
93117W        W58597  16.722  14.152  13.465
93118W        W58598   9.191  34.586  11.609
93119W        W58599  11.317  16.780  12.867
93120W        W58600  28.577  40.423   2.336
93121W        W58601  31.555  16.742  11.942
93122W        W58602  28.636  12.128  14.397
93123W        W58603  12.854  15.720   3.645
93124W        W58604   0.850   1.889  14.443
93125W        W58605   3.778  25.048  11.880
93126W        W58606   8.854  43.962   3.853
93127W        W58607  28.620  25.599  12.831
93128W        W58608  28.979  16.213   2.306
93129W        W58609   0.319  30.467   3.793
93130W        W58610  37.005  33.088  13.977
93131W        W58611  25.508  33.493   3.799
93132W        W58612  24.576  35.419  13.951
93133W        W58613  35.386   7.752   2.242
93134W        W58614  40.014  24.046   2.727
93135W        W58615  30.506   9.309  10.962
93136W        W58616  43.391   4.329   1.854
93137W        W58617  27.061  16.666  13.432
93138W        W58618  11.280  16.203  14.347
93139W        W58619  27.584  23.066   2.386
93140W        W58620   4.254  37.055   3.229
93141W        W58621   3.357  40.400   5.092
93142W        W58622  30.979  31.025  13.892
93143W        W58623  38.902  15.684  10.928
93144W        W58624  35.545  20.721  12.031
93145W        W58625  36.882   0.491   0.384
93146W        W58626  40.505  13.263  10.432
93147W        W58627   4.830  22.582  14.931
93148W        W58628  22.121  34.509  14.359
93149W        W58629  30.985  41.534   1.306
93150W        W58630   2.450  22.579  12.400
93151W        W58631  31.037  26.638   1.318
93152W        W58632  40.441  14.299  10.615
93153W        W58633  41.820  41.456  11.388
93154W        W58634  12.300  12.351   4.685
93155W        W58635  25.093   4.394   4.756
93156W        W58636  31.129  33.406  13.308
93157W        W58637   4.352  21.088   0.772
93158W        W58638  29.104  17.669   0.401
93159W        W58639   2.322  16.213  11.599
93160W        W58640  10.310  30.112  14.998
93161W        W58641  15.696  10.741   5.117
93162W        W58642  11.685  20.217  11.393
93163W        W58643  30.651   3.414  13.994
93164W        W58644  25.058  40.826   0.751
93165W        W58645  33.516  32.582  10.509
93166W        W58646   0.847  24.171   3.795
93167W        W58647  41.958  12.195  12.034
93168W        W58648   5.341  29.657   0.789
93169W        W58649  26.985  31.903  13.509
93170W        W58650  29.052   6.772  14.397
93171W        W58651   4.780  44.266  12.363
93172W        W58652  44.320  13.674  12.000
93173W        W58653  32.543  28.094   0.315
93174W        W58654  43.943  16.176  11.489
93175W        W58655   6.386   1.302  12.963
93176W        W58656  36.356  30.075   4.115
93177W        W58657   5.434  26.999  11.108
93178W        W58658  31.142   8.373  10.438
93179W        W58659  34.028  19.757   0.307
93180W        W58660   7.728  32.581  14.982
93181W        W58661  26.614   0.386  13.418
93182W        W58662   1.452  27.082   4.699
93183W        W58663  16.158  13.149   3.766
93184W        W58664  44.428  43.785   1.825
93185W        W58665  18.107  15.630   2.262
93186W        W58666  41.881  38.075   3.808
93187W        W58667  40.532  16.193  13.041
93188W        W58668  17.194   9.368  11.581
93189W        W58669   7.809  37.438   3.651
93190W        W58670   6.417  12.153  10.911
93191W        W58671  26.491  20.597  10.505
93192W        W58672  10.869  29.069  11.959
93193W        W58673  23.115  31.983  12.090
93194W        W58674   2.282  12.718   2.753
93195W        W58675  42.343  12.291   1.391
93196W        W58676  19.206  21.048  11.594
93197W        W58677   1.941   1.434  14.799
93198W        W58678  12.745  36.440   4.355
93199W        W58679  36.969  27.965  13.381
93200W        W58680  13.811  20.657   0.756
93201W        W58681  41.832  43.378   4.781
93202W        W58682  40.823   9.151   1.395
93203W        W58683  11.333  41.038   0.397
93204W        W58684  34.056  35.552  11.389
93205W        W58685  40.001  16.272  14.879
93206W        W58686  13.150   2.929  11.554
93207W        W58687  44.404  36.561   0.381
93208W        W58688   5.285  31.573  11.933
93209W        W58689  36.376  10.848  11.048
93210W        W58690  25.658  34.982  11.016
93211W        W58691  38.559   3.905  13.953
93212W        W58692  20.715  36.458  12.567
93213W        W58693   9.332  38.903   0.847
93214W        W58694   1.910  38.448  14.366
93215W        W58695  42.490   5.865   1.922
93216W        W58696  35.423  39.513  12.534
93217W        W58697  37.894   9.253   1.697
93218W        W58698  29.083  44.400   2.286
93219W        W58699  21.608  20.085  14.008
93220W        W58700  33.422  10.210  10.598
93221W        W58701  29.531  18.277   3.166
93222W        W58702  23.206  21.036   4.191
93223W        W58703   1.432  40.874  14.508
93224W        W58704   7.739  16.606   0.934
93225W        W58705  30.466  26.114  11.503
93226W        W58706  43.767   0.915   0.422
93227W        W58707   2.321  13.226  11.986
93228W        W58708  37.459  25.051  10.526
93229W        W58709  26.635   7.720   1.374
93230W        W58710  33.507  10.754   3.764
93231W        W58711  10.801  20.542   4.129
93232W        W58712  20.616  42.408   2.205
93233W        W58713  29.032  17.214  10.431
93234W        W58714  11.703  18.184  11.582
93235W        W58715  14.253  13.327   3.296
93236W        W58716  44.933  11.659  11.965
93237W        W58717  11.824  29.091  10.119
93238W        W58718  10.783  14.303  11.580
93239W        W58719  42.021  40.934  10.520
93240W        W58720  22.576  40.478   1.745
93241W        W58721  18.573  19.710  11.070
93242W        W58722  13.772   8.315   4.715
93243W        W58723  14.165   6.234  13.544
93244W        W58724   4.362  37.851  11.541
93245W        W58725   1.261  34.564   3.346
93246W        W58726   3.790   9.256  11.915
93247W        W58727  26.510   8.334   2.701
93248W        W58728  36.990  26.190  14.899
93249W        W58729  44.837  39.904  13.911
93250W        W58730  29.962  13.666  14.391
93251W        W58731  35.424  44.866  11.058
93252W        W58732  44.320  35.109   4.288
93253W        W58733  13.779  39.951   4.115
93254W        W58734  23.589  36.487  12.383
93255W        W58735  26.133  24.091  10.626
93256W        W58736   6.882  27.131   2.406
93257W        W58737  28.606  29.589   4.619
93258W        W58738  28.004  19.714  10.406
93259W        W58739   3.793  26.625  14.321
93260W        W58740  21.537  22.034   4.162
93261W        W58741  40.535  32.085  12.407
93262W        W58742  44.269  44.954   4.118
93263W        W58743  21.756   7.686   3.847
93264W        W58744   3.223  35.484   2.757
93265W        W58745  35.996   3.259   2.765
93266W        W58746   4.319  15.716  12.081
93267W        W58747   7.889  29.017  13.943
93268W        W58748  33.879   6.343  10.105
93269W        W58749  39.449  42.495  11.014
93270W        W58750  41.479  31.135   2.843
93271W        W58751  28.114  13.720  11.098
93272W        W58752  14.330  25.994   2.749
93273W        W58753  20.663  39.409  13.021
93274W        W58754  32.079   0.309   2.680
93275W        W58755   0.286  17.199  11.996
93276W        W58756   9.643  24.198  13.342
93277W        W58757  38.981  39.876   0.788
93278W        W58758  33.557   2.750   1.401
93279W        W58759  21.533  41.902   4.738
93280W        W58760  14.788   1.327  13.379
93281W        W58761   0.452  35.915  13.927
93282W        W58762  43.474  12.626   4.793
93283W        W58763  40.980  23.050  12.406
93284W        W58764  36.365  34.950  13.960
93285W        W58765  38.454  16.710   0.949
93286W        W58766  13.106  23.021  14.784
93287W        W58767  37.967  37.374  12.562
93288W        W58768  19.196   4.903  14.825
93289W        W58769  29.118  13.638   4.192
93290W        W58770  23.103   9.887   4.655
93291W        W58771  35.908  14.146   0.821
93292W        W58772   3.735   5.368  11.521
93293W        W58773  20.651   3.219  13.398
93294W        W58774  39.970  42.457  14.019
93295W        W58775  39.379  11.732   3.232
93296W        W58776  17.748  40.017  14.821
93297W        W58777  26.521  32.079   1.342
93298W        W58778   7.750  31.018   0.426
93299W        W58779  32.056  37.567   1.416
93300W        W58780   2.937   6.815   0.388
93301W        W58781  12.711  32.598   2.408
93302W        W58782  27.595  15.822  12.451
93303W        W58783  18.054  28.473   1.775
93304W        W58784  11.265  32.495  10.950
93305W        W58785  19.173  16.302   1.235
93306W        W58786  12.829  27.034   3.196
93307W        W58787  32.956  15.225   3.753
93308W        W58788   4.255   9.263  10.629
93309W        W58789  33.078  28.496   2.808
93310W        W58790  37.928  22.092   1.380
93311W        W58791  29.616  20.720  11.068
93312W        W58792  17.270   4.757   0.953
93313W        W58793  39.876   7.222   3.734
93314W        W58794  13.214  15.653   0.947
93315W        W58795  37.930  11.247  13.416
93316W        W58796  27.183  19.559   3.325
93317W        W58797  31.948   2.443  11.102
93318W        W58798   2.787  18.078   1.918
93319W        W58799  16.298  41.818   0.398
93320W        W58800  13.276  14.312   0.904
93321W        W58801  29.447  31.520  13.952
93322W        W58802  14.734   1.276   0.840
93323W        W58803  36.025  12.220   4.646
93324W        W58804  27.616  24.039  13.429
93325W        W58805   1.952  28.021   4.184
93326W        W58806  42.861  27.132   3.354
93327W        W58807   3.404   9.765  10.889
93328W        W58808   7.757  42.945  11.111
93329W        W58809  37.849  28.986   4.254
93330W        W58810  16.144  36.394   1.851
93331W        W58811  19.658  37.424   4.838
93332W        W58812  41.006  44.264  13.364
93333W        W58813  16.701  15.316   5.159
93334W        W58814  22.547  36.513   1.217
93335W        W58815  27.546  27.033  12.870
93336W        W58816  30.462  18.712  14.960
93337W        W58817   0.800  43.821  14.783
93338W        W58818  14.691  21.079   2.686
93339W        W58819   9.227  32.619   3.380
93340W        W58820   0.458  37.363   3.705
93341W        W58821  32.588  16.304  12.575
93342W        W58822  19.774  44.275   1.924
93343W        W58823   5.836   0.789   3.785
93344W        W58824   3.351  29.600   2.387
93345W        W58825  33.003   8.315  11.939
93346W        W58826  35.517  31.959   2.256
93347W        W58827  31.495  12.338  14.387
93348W        W58828  27.970  39.810  10.420
93349W        W58829  23.183  29.016  14.773
93350W        W58830  44.310  18.658  13.463
93351W        W58831  39.910  22.646   3.736
93352W        W58832   3.733  23.044   2.743
93353W        W58833  19.144  21.024   2.198
93354W        W58834   0.937  14.327  11.444
93355W        W58835  34.114   9.364   2.685
93356W        W58836  12.676  39.961   0.300
93357W        W58837  10.342   7.237  12.081
93358W        W58838  28.974  19.534  13.336
93359W        W58839   3.942  35.419   5.257
93360W        W58840   4.755  16.722  13.793
93361W        W58841  34.049  17.750   0.927
93362W        W58842  24.111  38.567  12.539
93363W        W58843  42.804   0.835   0.445
93364W        W58844  23.511  37.945  11.591
93365W        W58845  41.987  18.659   3.312
93366W        W58846  17.792   2.770   4.227
93367W        W58847  15.133  11.703   2.280
93368W        W58848  15.692  21.058   1.444
93369W        W58849  32.026   4.720  13.526
93370W        W58850   3.831  27.968   0.466
93371W        W58851   6.820  28.037  13.465
93372W        W58852  18.633  20.652  11.479
93373W        W58853  35.035  36.004   0.477
93374W        W58854  44.763  44.875   2.345
93375W        W58855  32.965  12.842   0.351
93376W        W58856  21.100  24.173   2.192
93377W        W58857  19.055  31.004   2.359
93378W        W58858  37.990  32.539  10.954
93379W        W58859  28.131  33.903  12.567
93380W        W58860  23.728   3.766   3.233
93381W        W58861  28.457  29.640  13.327
93382W        W58862   3.803   7.795  13.542
93383W        W58863  12.750   1.931  14.909
93384W        W58864  20.189  22.572  14.761
93385W        W58865   4.377  36.059   0.274
93386W        W58866  21.685  42.956   4.228
93387W        W58867  21.748  40.049   1.249
93388W        W58868   1.257  16.311  12.540
93389W        W58869  42.282  13.815   0.324
93390W        W58870  38.530   4.722   9.989
93391W        W58871  30.438  18.586   1.284
93392W        W58872  12.675  43.805  12.515
93393W        W58873   5.297  20.609   0.937
93394W        W58874  21.668   1.864   4.319
93395W        W58875   0.988  42.811   9.948
93396W        W58876  21.073   0.984   4.737
93397W        W58877  34.402  38.535   4.804
93398W        W58878  16.272  37.419  14.795
93399W        W58879  42.486  30.536   0.282
93400W        W58880   0.773  27.019   4.306
93401W        W58881  19.072  32.963   2.387
93402W        W58882   4.830  39.488   4.687
93403W        W58883  38.057  42.366   3.154
93404W        W58884  37.070  11.841  11.422
93405W        W58885  32.935  22.561  11.893
93406W        W58886  32.465  30.649  11.469
93407W        W58887  23.591  30.913  14.293
93408W        W58888  20.642  38.009  10.539
93409W        W58889  13.610  35.950  14.761
93410W        W58890  15.647   0.295  13.926
93411W        W58891   4.240  32.970   1.305
93412W        W58892  43.412   6.288  11.573
93413W        W58893   0.765  20.227  10.516
93414W        W58894  16.150  29.027   1.445
93415W        W58895  39.345   3.383   2.793
93416W        W58896  27.144  19.634  13.827
93417W        W58897   0.364  34.392  14.999
93418W        W58898  37.368   9.766   4.174
93419W        W58899  21.162  31.950  10.502
93420W        W58900   0.879  30.137  14.861
93421W        W58901  11.752  19.659   3.374
93422W        W58902  23.195  20.694   0.834
93423W        W58903  11.854  39.024  12.899
93424W        W58904   5.690  38.956  13.017
93425W        W58905   5.230  27.110  12.069
93426W        W58906  43.787   3.315  13.897
93427W        W58907  27.581  34.447   2.279
93428W        W58908  31.091   0.454  11.941
93429W        W58909  29.080  36.020   1.395
93430W        W58910  33.991   4.261   3.662
93431W        W58911  23.711   5.748  14.901
93432W        W58912   1.969   2.833  14.894
93433W        W58913  33.472  39.454  10.524
93434W        W58914  30.572  32.626   0.324
93435W        W58915  24.136  38.386   1.818
93436W        W58916  30.025  37.848  12.433
93437W        W58917  31.413  29.627  10.622
93438W        W58918   0.797  29.961  11.473
93439W        W58919  16.766  23.549   2.373
93440W        W58920  29.105  34.533  10.634
93441W        W58921  12.277  24.040  13.525
93442W        W58922  21.223  12.752   2.312
93443W        W58923  18.113   1.818   2.395
93444W        W58924  16.212  19.669   0.301
93445W        W58925  26.066  33.110  10.558
93446W        W58926  16.669   4.872  13.430
93447W        W58927  22.141  43.431  14.359
93448W        W58928  40.458  34.959  13.965
93449W        W58929  43.959   5.294   4.697
93450W        W58930  16.176   1.896   3.353
93451W        W58931  22.715   2.249  13.527
93452W        W58932  18.109  27.558   3.378
93453W        W58933  15.675  13.661   2.851
93454W        W58934  28.022   5.293  12.480
93455W        W58935   6.341  22.235   3.178
93456W        W58936   9.222  24.723  11.961
93457W        W58937  29.067  27.665   4.289
93458W        W58938  33.068  44.455   2.331
93459W        W58939  31.992  16.212   0.460
93460W        W58940  36.415   3.353  13.926
93461W        W58941  42.805  36.540  12.847
93462W        W58942   6.830   8.189   4.696
93463W        W58943  25.134   7.249   0.295
93464W        W58944  27.475  11.322   4.812
93465W        W58945  31.416  29.555   2.898
93466W        W58946   1.854  29.045  10.522
93467W        W58947  35.022   9.160  11.989
93468W        W58948  29.633  25.535   2.853
93469W        W58949  37.401  25.677  13.842
93470W        W58950  33.479  20.651  14.342
93471W        W58951  39.065   6.690   2.849
93472W        W58952   1.412   7.342  12.831
93473W        W58953  17.292  35.964   4.187
93474W        W58954  40.028  12.805  12.909
93475W        W58955  29.448  29.461  10.969
93476W        W58956  27.076  21.093   0.837
93477W        W58957  44.468  22.048  12.352
93478W        W58958  21.045  14.183  13.923
93479W        W58959   2.934  44.411   4.772
93480W        W58960  21.177  30.068  14.948
93481W        W58961  18.753  35.920   3.653
93482W        W58962  31.937  23.234  11.897
93483W        W58963   0.792  18.109  11.102
93484W        W58964  22.154  23.075  14.411
93485W        W58965  14.718  21.203  11.935
93486W        W58966   2.422  26.513   4.664
93487W        W58967  18.780   9.685   1.407
93488W        W58968   6.283  41.519   0.282
93489W        W58969  32.007  22.571  12.364
93490W        W58970   8.173   3.716  14.010
93491W        W58971   0.849  29.000  13.874
93492W        W58972  17.641  40.836  10.914
93493W        W58973  14.649  26.136   1.817
93494W        W58974   3.359  34.091  12.983
93495W        W58975  26.526  19.582   3.792
93496W        W58976  29.444   1.297  12.536
93497W        W58977  36.370   4.204  12.019
93498W        W58978  32.628  40.365  14.932
93499W        W58979  29.126  25.606   3.204
93500W        W58980   7.380  17.635   2.812
93501W        W58981   7.671  38.497  14.304
93502W        W58982   9.163  28.583   0.815
93503W        W58983  17.773  22.034  12.516
93504W        W58984  35.602  20.031   0.461
93505W        W58985  21.549   6.914  14.962
93506W        W58986   4.926  31.114  14.309
93507W        W58987  20.573   9.730  14.418
93508W        W58988  34.038  21.512   3.278
93509W        W58989  31.602  20.116  13.054
93510W        W58990   7.887  38.408   0.432
93511W        W58991  35.549  33.015   1.907
93512W        W58992  35.882  37.051  12.389
93513W        W58993  32.992   2.359   2.686
93514W        W58994  17.070  35.947   1.877
93515W        W58995  34.987  29.430   0.364
93516W        W58996  20.052  24.535  12.842
93517W        W58997  35.578  27.587  14.926
93518W        W58998   5.884  34.058   3.306
93519W        W58999   3.897  16.094  13.322
93520W        W59000  20.049  32.605   0.935
93521W        W59001  22.113  40.402  10.913
93522W        W59002   6.187  34.007   3.277
93523W        W59003  25.140  17.094   0.853
93524W        W59004  23.028  13.645  13.453
93525W        W59005  17.631  32.107   1.316
93526W        W59006  18.259   1.843  11.924
93527W        W59007  26.001   2.315  12.374
93528W        W59008  33.033  26.608   2.847
93529W        W59009  22.629  22.565  12.386
93530W        W59010  16.701  41.487  13.509
93531W        W59011  41.320  23.733  10.583
93532W        W59012   6.756  35.099   4.122
93533W        W59013   5.232  24.194   3.650
93534W        W59014  31.599  21.136  14.842
93535W        W59015  30.024  17.122   2.700
93536W        W59016   2.337   1.865  11.428
93537W        W59017  39.340  30.164  12.503
93538W        W59018  27.586  29.559   0.893
93539W        W59019  26.014  44.445  13.920
93540W        W59020  26.993   2.948   1.924
93541W        W59021  17.566  10.838   0.893
93542W        W59022  11.174   7.753  14.945
93543W        W59023   3.415  12.359  12.351
93544W        W59024  31.563  31.941  12.475
93545W        W59025  44.769  40.345   3.631
93546W        W59026  31.621  26.993  12.843
93547W        W59027  35.090  41.509  13.058
93548W        W59028  32.589   8.877   1.212
93549W        W59029  15.724  20.589   2.783
93550W        W59030  44.821  41.333  12.854
93551W        W59031  31.089  34.109   4.181
93552W        W59032   7.679  44.868  12.870
93553W        W59033  15.620  11.642   5.108
93554W        W59034  26.133  29.103  14.942
93555W        W59035   5.876  37.926  13.521
93556W        W59036  26.606  33.606   4.253
93557W        W59037  35.052  30.996  12.373
93558W        W59038  13.276  16.252   1.872
93559W        W59039  13.751  12.292  13.491
93560W        W59040  20.140  10.172   1.361
93561W        W59041  12.820  37.470   9.956
93562W        W59042  34.613  26.085   2.410
93563W        W59043  30.623   9.753   3.772
93564W        W59044  36.998  21.670   1.823
93565W        W59045  13.772  25.203   0.939
93566W        W59046  37.428  33.101   4.805
93567W        W59047  39.533   2.808  14.759
93568W        W59048  12.795   2.306  13.819
93569W        W59049  24.664  24.160  10.460
93570W        W59050  31.551  27.991   2.328
93571W        W59051  14.221  15.646  13.530
93572W        W59052   7.889   1.446   2.873
93573W        W59053  32.452  44.481   3.766
93574W        W59054   0.309   5.309  10.899
93575W        W59055   0.846  29.956   4.727
93576W        W59056  36.962  40.804  11.999
93577W        W59057  20.689   2.933   3.733
93578W        W59058  20.582  17.561   3.866
93579W        W59059  37.050  32.895  11.920
93580W        W59060  22.995   3.905  14.448
93581W        W59061  22.647  12.755  12.492
93582W        W59062   2.958   4.845   2.811
93583W        W59063  29.149   5.358  10.888
93584W        W59064  24.528  43.855   3.741
93585W        W59065  27.018  29.933   0.336
93586W        W59066  17.595  33.508   3.148
93587W        W59067  19.542  13.264  11.534
93588W        W59068  24.094  42.843  13.529
93589W        W59069  27.537  23.177   3.771
93590W        W59070  18.294  36.543  13.034
93591W        W59071  26.065  42.906  14.392
93592W        W59072  37.336  41.026  12.931
93593W        W59073  44.860  40.957   4.727
93594W        W59074  16.719  43.948  13.355
93595W        W59075   2.869  26.075  13.456
93596W        W59076  29.510  32.569  11.587
93597W        W59077  19.070  31.600   2.188
93598W        W59078  14.705  26.023  11.411
93599W        W59079  20.639   7.289   0.334
93600W        W59080  39.502  22.145  13.842
93601W        W59081  16.649  18.598  10.479
93602W        W59082   5.332   6.278   1.273
93603W        W59083  19.230  28.100   3.337
93604W        W59084   7.201  32.065  10.542
93605W        W59085  10.670   5.324  10.566
93606W        W59086   5.334   8.304   3.688
93607W        W59087  44.437  37.465   3.861
93608W        W59088   6.339  35.385   2.706
93609W        W59089   5.302  15.684  14.325
93610W        W59090   8.348   9.338  10.461
93611W        W59091   6.238  27.160   3.320
93612W        W59092   4.742  11.224  11.912
93613W        W59093  25.196  23.215  14.473
93614W        W59094  23.536   9.705  12.001
93615W        W59095  28.187  32.082   3.636
93616W        W59096  44.798   5.705   1.440
93617W        W59097  25.214  23.614   1.740
93618W        W59098  28.563  21.686  11.932
93619W        W59099  40.457   3.255   3.183
93620W        W59100  25.177   4.435  12.407
93621W        W59101  39.929  41.954   2.196
93622W        W59102   2.820  15.726   4.838
93623W        W59103  11.266  14.714  14.486
93624W        W59104  43.350  27.681  13.940
93625W        W59105  13.664  44.960  11.569
93626W        W59106  44.488   0.863  11.536
93627W        W59107  43.353  35.569  11.475
93628W        W59108  14.815   3.754   1.241
93629W        W59109  18.645  31.111  14.933
93630W        W59110  10.793  18.226   1.874
93631W        W59111  42.317  18.568   0.787
93632W        W59112  12.779  23.042   2.311
93633W        W59113  22.720  10.832  12.979
93634W        W59114  39.444   4.266   9.557
93635W        W59115  37.832  20.704   1.765
93636W        W59116  36.423  24.603  10.473
93637W        W59117   4.837  23.493  11.072
93638W        W59118  37.021  10.840   4.216
93639W        W59119  43.952  42.799  14.777
93640W        W59120   5.824  13.610   1.895
93641W        W59121   0.268  43.993   3.202
93642W        W59122  37.417  32.917   0.284
93643W        W59123   9.321  37.059  14.875
93644W        W59124   8.881  32.037   0.332
93645W        W59125  11.265  31.498   4.242
93646W        W59126  35.523  42.504   2.800
93647W        W59127  11.200  44.327   2.902
93648W        W59128   8.406   1.397  13.450
93649W        W59129   4.210  26.663  13.315
93650W        W59130  31.018  33.071  13.801
93651W        W59131  13.651   3.749   3.723
93652W        W59132  11.284  40.972  12.873
93653W        W59133   7.212   7.871  12.557
93654W        W59134  35.895  39.329  11.061
93655W        W59135  36.523  39.847  10.977
93656W        W59136   5.322   1.439  13.492
93657W        W59137  21.603  42.011  11.007
93658W        W59138  39.449  10.140  14.939
93659W        W59139  30.608  14.687  14.435
93660W        W59140  18.761  17.215  12.984
93661W        W59141  29.579  14.767  12.382
93662W        W59142  40.497  13.782  14.310
93663W        W59143  23.545  38.903   3.258
93664W        W59144  32.999  17.264  14.347
93665W        W59145  42.832  29.565  14.824
93666W        W59146   8.319   6.766  11.575
93667W        W59147  29.968  30.556   4.650
93668W        W59148   8.207  32.096  12.002
93669W        W59149   9.216  24.627   4.269
93670W        W59150  39.980  29.556   1.793
93671W        W59151  33.586  20.226  14.364
93672W        W59152   4.284  35.549  14.913
93673W        W59153  33.131   2.824   1.385
93674W        W59154  15.763  16.103   4.124
93675W        W59155  43.865  27.574  11.415
93676W        W59156  11.156   8.282  14.877
93677W        W59157  33.553   6.274  12.377
93678W        W59158   2.304  16.706  13.922
93679W        W59159  33.941  12.811  13.900
93680W        W59160  41.458   1.895   4.676
93681W        W59161   5.204  10.805   3.330
93682W        W59162   7.807  42.794  13.063
93683W        W59163  26.535  11.191  13.866
93684W        W59164  37.970  36.578   1.266
93685W        W59165   7.738   6.739   3.189
93686W        W59166  40.824  21.111  13.388
93687W        W59167   9.337  21.122   0.481
93688W        W59168   3.767  39.323  11.950
93689W        W59169  37.025  27.167  11.601
93690W        W59170   6.875  17.107   1.828
93691W        W59171  38.840  43.838   1.717
93692W        W59172  27.629  34.470  13.488
93693W        W59173  17.129  42.928  13.832
93694W        W59174  24.072  15.638  14.999
93695W        W59175  29.521  27.469  14.311
93696W        W59176  19.723  39.851  12.070
93697W        W59177  11.295  20.641   4.244
93698W        W59178  22.070  34.113   4.693
93699W        W59179  29.560   5.200   1.332
93700W        W59180  32.059  12.785  12.868
93701W        W59181  25.492  29.477  11.573
93702W        W59182   1.968  20.581  12.006
93703W        W59183  25.970  41.976  12.559
93704W        W59184  29.590  26.958  14.009
93705W        W59185  10.369   8.337  11.591
93706W        W59186   8.300  33.478   2.351
93707W        W59187  38.895  10.819   0.797
93708W        W59188   5.279  15.174  10.483
93709W        W59189  39.891  42.925  10.444
93710W        W59190  42.901  18.747   4.332
93711W        W59191  39.956  15.675   4.219
93712W        W59192   5.235  16.238   0.804
93713W        W59193  27.963  42.014   1.230
93714W        W59194  35.542  31.512  14.942
93715W        W59195  15.243  38.363  13.395
93716W        W59196   2.309  10.334  10.540
93717W        W59197  43.413  10.779  10.988
93718W        W59198  37.470  26.591  12.975
93719W        W59199  21.741  34.525  14.290
93720W        W59200  21.582  10.748  13.364
93721W        W59201  43.427  44.810  13.036
93722W        W59202  30.603  14.265   0.824
93723W        W59203   7.706   2.961  14.380
93724W        W59204  44.964   7.200  10.989
93725W        W59205  42.885  25.651   1.445
93726W        W59206  27.509  16.790  14.786
93727W        W59207  18.065  11.813  13.326
93728W        W59208  43.903  13.659   4.826
93729W        W59209  10.878  36.483  14.513
93730W        W59210  36.526  11.760   1.264
93731W        W59211  27.009   5.720  10.576
93732W        W59212   4.701  31.605   3.735
93733W        W59213  24.224  39.327  14.871
93734W        W59214  44.304  30.164  14.021
93735W        W59215  11.289   8.818  11.917
93736W        W59216  34.388  13.650   2.339
93737W        W59217  28.453  10.193  10.423
93738W        W59218   9.647  35.581   3.644
93739W        W59219  40.446  11.666  14.421
93740W        W59220  31.536  37.047  14.843
93741W        W59221  39.819   5.333  13.340
93742W        W59222   8.868  42.412   4.353
93743W        W59223  19.741  36.398   3.724
93744W        W59224  13.181  38.031   1.916
93745W        W59225  18.654  20.185  12.500
93746W        W59226  43.376  15.153  14.302
93747W        W59227  40.015  32.016   2.379
93748W        W59228   5.327  38.528  10.902
93749W        W59229  39.906  21.542   1.745
93750W        W59230  17.247  36.357  12.496
93751W        W59231  41.319  22.658  10.920
93752W        W59232   0.380  30.082  14.955
93753W        W59233  34.389   0.344   0.407
93754W        W59234  25.083  32.609   3.657
93755W        W59235  31.535  42.786   3.283
93756W        W59236   2.884  12.750  13.428
93757W        W59237  35.493  17.572   0.842
93758W        W59238  30.538  13.330  13.794
93759W        W59239  11.369  17.739  13.031
93760W        W59240  29.066  43.323  13.442
93761W        W59241  37.857  30.537  12.026
93762W        W59242  24.988  27.474   0.343
93763W        W59243   3.407  11.249  13.495
93764W        W59244   8.232  30.072  13.438
93765W        W59245   6.350  34.447   2.333
93766W        W59246  25.054  12.725   2.380
93767W        W59247  31.565  23.735  13.433
93768W        W59248  16.707  21.537   4.301
93769W        W59249  44.430  40.529   3.854
93770W        W59250  34.863  37.953   1.917
93771W        W59251  14.111  17.736  12.404
93772W        W59252  36.457  13.648   0.473
93773W        W59253  28.049  38.542   4.238
93774W        W59254  11.288  21.634   0.799
93775W        W59255   0.447  23.494  12.064
93776W        W59256   6.256  43.303   2.683
93777W        W59257   9.154  15.120  14.288
93778W        W59258  36.873  25.110   2.366
93779W        W59259   7.791  29.535  12.065
93780W        W59260  30.459   3.376   4.158
93781W        W59261  12.315  36.051  10.553
93782W        W59262  18.249  44.275   2.372
93783W        W59263  25.504  23.170   2.790
93784W        W59264  44.492  16.150   1.929
93785W        W59265   0.348   4.868  13.835
93786W        W59266  13.329  22.103  14.892
93787W        W59267  31.975  35.361   1.405
93788W        W59268  22.518  41.032   1.323
93789W        W59269  28.074   5.391   4.665
93790W        W59270  14.742   0.336   0.752
93791W        W59271  43.823  33.116  12.561
93792W        W59272  10.684  17.711   1.317
93793W        W59273  26.050  23.232  13.002
93794W        W59274  36.442   0.450   4.833
93795W        W59275  36.502  12.144  10.641
93796W        W59276  25.168  44.837   3.321
93797W        W59277  15.250   9.754   2.330
93798W        W59278  21.742  27.678  13.881
93799W        W59279   1.314   4.363  10.610
93800W        W59280  12.822  26.030  13.315
93801W        W59281  39.009   5.375   2.794
93802W        W59282  24.552  34.899  10.898
93803W        W59283   2.431   8.347  12.344
93804W        W59284  26.511   2.736   1.440
93805W        W59285  32.616  15.728   1.364
93806W        W59286  16.762   1.757  13.950
93807W        W59287  29.459  44.317   1.792
93808W        W59288  30.413   8.706   1.863
93809W        W59289  12.177  26.536   0.279
93810W        W59290  23.238  32.615  10.533
93811W        W59291  19.256  25.185   4.657
93812W        W59292   5.388  10.687  13.940
93813W        W59293  22.221  15.151  11.481
93814W        W59294  41.394  43.440   4.312
93815W        W59295  21.087  37.009  14.487
93816W        W59296  23.136  33.413  12.412
93817W        W59297   6.899   9.151  14.997
93818W        W59298  36.095   2.242  12.490
93819W        W59299  20.170   0.284  13.441
93820W        W59300  12.199  18.556  14.905
93821W        W59301  30.559   4.912  12.392
93822W        W59302  28.539  17.247   4.295
93823W        W59303  27.521   6.258   2.319
93824W        W59304  22.650  17.745   3.238
93825W        W59305  37.988  22.142  14.511
93826W        W59306   5.308   9.876   0.315
93827W        W59307  39.427  37.339  12.379
93828W        W59308  20.067   5.421   0.842
93829W        W59309  36.479  14.623  11.386
93830W        W59310  19.598  14.155  12.516
93831W        W59311  30.435  29.053  13.358
93832W        W59312   6.418  39.065  10.406
93833W        W59313  39.853  26.493  12.092
93834W        W59314   2.229   1.309   4.629
93835W        W59315  37.871   3.287   3.788
93836W        W59316  27.461  28.133  12.834
93837W        W59317   6.680  43.432   4.678
93838W        W59318  18.791  42.476   4.341
93839W        W59319  33.593  24.615   2.291
93840W        W59320  13.173  16.249  12.341
93841W        W59321  13.321  33.625  12.540
93842W        W59322  41.841  13.326  11.889
93843W        W59323  33.886  38.931   0.346
93844W        W59324  14.717  15.786   4.187
93845W        W59325   7.841   8.854   2.262
93846W        W59326  26.582  33.959   4.191
93847W        W59327   5.902  28.597   1.871
93848W        W59328  43.868  35.559  11.930
93849W        W59329   2.947  30.063  14.968
93850W        W59330  27.483  26.621   1.384
93851W        W59331   0.320  26.195   1.782
93852W        W59332  42.281  17.626   2.677
93853W        W59333  42.010  38.421   3.258
93854W        W59334  15.625  25.494   5.269
93855W        W59335  38.379  44.390  12.868
93856W        W59336   2.786  43.509   1.428
93857W        W59337  19.734  26.461   2.733
93858W        W59338   0.829  22.244  11.026
93859W        W59339   5.746  39.948  13.870
93860W        W59340  23.567   4.735  11.867
93861W        W59341  30.066   0.327   1.437
93862W        W59342  36.019  11.778  14.966
93863W        W59343   3.388  18.053  14.822
93864W        W59344  11.656   1.409  13.037
93865W        W59345  31.966  23.176  12.413
93866W        W59346   0.781  16.307   1.340
93867W        W59347  14.667  16.273   3.225
93868W        W59348  42.795  25.642   3.768
93869W        W59349   0.877  44.976   2.673
93870W        W59350  40.539   0.776  10.987
93871W        W59351  42.904  29.622  11.459
93872W        W59352  31.626  23.201  13.525
93873W        W59353  19.088  39.364   1.792
93874W        W59354   5.872   5.754  11.997
93875W        W59355   4.256  35.407  11.071
93876W        W59356  29.003  44.887  14.383
93877W        W59357   0.400  22.158   0.476
93878W        W59358   0.864   5.884   4.349
93879W        W59359   7.347  38.549  13.371
93880W        W59360   5.368  26.129   2.819
93881W        W59361   6.351   5.430  14.980
93882W        W59362   9.309   8.346  11.055
93883W        W59363  17.240  39.966  14.407
93884W        W59364  13.172  33.593   0.964
93885W        W59365  12.690  31.634  14.470
93886W        W59366  36.018  25.041   0.863
93887W        W59367   7.693   9.310  11.874
93888W        W59368  22.541   6.680   9.446
93889W        W59369  13.604  19.115   2.855
93890W        W59370  13.649  22.591  12.889
93891W        W59371  20.672  31.998   1.920
93892W        W59372  20.245  35.407  12.434
93893W        W59373  30.136  11.270  11.018
93894W        W59374   7.667  36.538   2.712
93895W        W59375  44.908  12.623   3.259
93896W        W59376  23.542  25.476  14.998
93897W        W59377  41.325  25.669  13.458
93898W        W59378  41.308  21.186   1.412
93899W        W59379  41.838  32.917  13.940
93900W        W59380  38.547  44.983  12.853
93901W        W59381   5.399  25.500  14.406
93902W        W59382  44.985   2.380  12.930
93903W        W59383  14.217  44.406   9.620
93904W        W59384  32.533   3.361  13.345
93905W        W59385  41.995  31.531  10.629
93906W        W59386  44.354   6.750   2.260
93907W        W59387  36.506  31.933  10.084
93908W        W59388  18.123  29.946   2.336
93909W        W59389   7.713  20.701   4.248
93910W        W59390  18.623  13.131   4.199
93911W        W59391  27.167  23.593  12.489
93912W        W59392  39.344  20.077   1.725
93913W        W59393   4.434  24.992  11.496
93914W        W59394  29.518   7.666  14.324
93915W        W59395  10.871  25.109   0.891
93916W        W59396  14.194  26.023  12.021
93917W        W59397  35.950  22.522   1.371
93918W        W59398  11.687  18.767  10.597
93919W        W59399  13.219  22.653   2.834
93920W        W59400   8.333  27.185  10.429
93921W        W59401  30.927  30.954   4.177
93922W        W59402   1.374  12.662   1.885
93923W        W59403   8.776  44.996  12.377
93924W        W59404  21.102   1.483   2.329
93925W        W59405  16.622  44.775   1.694
93926W        W59406  32.115  26.505   2.665
93927W        W59407  25.635  44.458   0.785
93928W        W59408  36.532   2.377   3.651
93929W        W59409  20.691  15.170  11.858
93930W        W59410  12.239  33.065   4.120
93931W        W59411   4.373  38.446  11.388
93932W        W59412  38.864  35.567   3.732
93933W        W59413  10.672  31.641   3.786
93934W        W59414  15.764  13.139   2.397
93935W        W59415  19.198  13.677  13.958
93936W        W59416  24.645  40.824  12.053
93937W        W59417  31.421  18.714   0.906
93938W        W59418  10.863  38.932   3.756
93939W        W59419  14.595  40.950   1.735
93940W        W59420  38.941  37.374   1.823
93941W        W59421  16.213  18.099  13.812
93942W        W59422  16.649   3.936  11.008
93943W        W59423   0.944  31.532   2.820
93944W        W59424  14.781   1.416  11.111
93945W        W59425  18.100  27.605  12.010
93946W        W59426  26.696  26.624   4.148
93947W        W59427  31.515  29.058  14.007
93948W        W59428  11.717  30.040  13.349
93949W        W59429  21.686  42.853   3.379
93950W        W59430  43.377  26.479   3.171
93951W        W59431  20.674   1.434   4.216
93952W        W59432  37.457  37.992   3.201
93953W        W59433  31.908  34.079   4.747
93954W        W59434  28.088  24.020  14.804
93955W        W59435  31.034  17.174   0.879
93956W        W59436  26.097  14.233  12.002
93957W        W59437   1.966  22.594  13.864
93958W        W59438  34.382  34.453   2.373
93959W        W59439   2.902  23.236  13.382
93960W        W59440  21.181   2.805  11.027
93961W        W59441   4.935   2.415  11.565
93962W        W59442  16.126  44.315  12.092
93963W        W59443   0.295  27.041   4.240
93964W        W59444  31.440  18.145  12.896
93965W        W59445  15.682  14.670   1.768
93966W        W59446   9.874  11.153   0.254
93967W        W59447  15.776  20.549  11.122
93968W        W59448   7.321   1.316   4.228
93969W        W59449  28.043  14.694   2.347
93970W        W59450  12.184  13.730  14.771
93971W        W59451  20.190  30.658   0.814
93972W        W59452  20.657  34.883   4.255
93973W        W59453  36.562  31.628   4.319
93974W        W59454  44.897   7.689   3.251
93975W        W59455  22.179   7.343   9.511
93976W        W59456  36.469  32.080   2.695
93977W        W59457  20.681  11.829  13.422
93978W        W59458  35.966  21.188  13.845
93979W        W59459  38.039  35.031   0.781
93980W        W59460   5.408   3.446  14.453
93981W        W59461  43.420  14.737  13.530
93982W        W59462   9.873  10.343  11.558
93983W        W59463   5.356  20.221   1.216
93984W        W59464  43.358  24.161   3.375
93985W        W59465  12.736  10.361   3.680
93986W        W59466   6.892  41.529  12.481
93987W        W59467  21.115   4.345   4.137
93988W        W59468  17.561  28.990  14.783
93989W        W59469   9.277  43.785   0.859
93990W        W59470  27.119  22.588   4.273
93991W        W59471   6.390  25.668  13.311
93992W        W59472  19.185  29.598  10.485
93993W        W59473  17.637  20.768  12.558
93994W        W59474  36.074   6.301  13.862
93995W        W59475  31.496  41.998  11.024
93996W        W59476   7.689  35.866   9.922
93997W        W59477  13.346  42.439  14.320
93998W        W59478   6.798  38.949   2.672
93999W        W59479   6.364  19.274   3.246
94000W        W59480   3.250  33.038   4.130
94001W        W59481  16.260   0.447  13.348
94002W        W59482  22.239  28.550   3.721
94003W        W59483  40.872  20.254   0.890
94004W        W59484  11.240  25.177  14.515
94005W        W59485  17.275  25.977   0.932
94006W        W59486  22.153  35.466  12.975
94007W        W59487  10.327  23.638   4.641
94008W        W59488  41.886  11.348   2.366
94009W        W59489  39.938  20.172   2.862
94010W        W59490   6.303  26.673  11.937
94011W        W59491  11.802  11.278  14.281
94012W        W59492  37.862  32.119   4.289
94013W        W59493  20.762  32.970  11.541
94014W        W59494  38.874  42.858  12.460
94015W        W59495  15.725  24.625   4.282
94016W        W59496  27.455  18.745  12.955
94017W        W59497  13.180  14.834  10.414
94018W        W59498  32.496   9.239  13.052
94019W        W59499  23.493  36.845  12.496
94020W        W59500  22.506  11.734  11.405
94021W        W59501  37.833  41.036   1.766
94022W        W59502  43.499  25.510   3.637
94023W        W59503  35.409   3.332   0.808
94024W        W59504  34.968  29.994  12.541
94025W        W59505   2.417  20.709   1.830
94026W        W59506   3.277  43.920  11.382
94027W        W59507  37.897  21.687  13.962
94028W        W59508  31.422  21.570  11.533
94029W        W59509  43.867  33.895  12.853
94030W        W59510  13.155  31.902  12.370
94031W        W59511   9.387  23.546   4.812
94032W        W59512  20.740   4.765   0.357
94033W        W59513  31.927  28.652   0.730
94034W        W59514  29.059  23.091   1.300
94035W        W59515  14.197  17.238   2.693
94036W        W59516  15.323  16.205  11.896
94037W        W59517  39.501  27.172  11.902
94038W        W59518  44.330  13.243  12.414
94039W        W59519  36.982   8.773  12.340
94040W        W59520   4.726   1.963   3.790
94041W        W59521   3.952  16.080   0.840
94042W        W59522  26.589  34.580   3.311
94043W        W59523   6.269  10.379  13.003
94044W        W59524  23.010  21.101  14.830
94045W        W59525  14.676   4.804  11.895
94046W        W59526  19.641  34.930  11.508
94047W        W59527  17.154  34.564   2.193
94048W        W59528  29.998  14.762   1.224
94049W        W59529   0.888   0.935  14.986
94050W        W59530  43.775  31.129  14.993
94051W        W59531  30.119  35.914   3.708
94052W        W59532   2.887  10.299   2.687
94053W        W59533   2.935  25.982  10.902
94054W        W59534  10.740  34.037   2.736
94055W        W59535  20.644  36.516  14.883
94056W        W59536  36.961   9.708  13.975
94057W        W59537  15.163  18.067  13.864
94058W        W59538   1.809  29.612  10.574
94059W        W59539  23.571  39.953  12.461
94060W        W59540   5.386  16.202  14.772
94061W        W59541  13.224  21.211   0.849
94062W        W59542   4.887   4.205   0.756
94063W        W59543  26.595   7.875   5.185
94064W        W59544  11.322  32.890  11.040
94065W        W59545  17.720  31.493  12.909
94066W        W59546  39.997  30.584   1.282
94067W        W59547  23.212  13.207  14.902
94068W        W59548  27.680   8.228   1.736
94069W        W59549  13.788  22.522  10.908
94070W        W59550  24.588   6.279  11.544
94071W        W59551  15.261  23.583  12.395
94072W        W59552  36.052  32.911  13.950
94073W        W59553  25.520  18.788  12.365
94074W        W59554  18.550  38.877   0.481
94075W        W59555  40.899  16.752   4.601
94076W        W59556  37.032  23.101  13.943
94077W        W59557   5.815   3.313  10.419
94078W        W59558  13.149   7.265   0.390
94079W        W59559  13.347  18.667  14.430
94080W        W59560  21.562  22.123   3.356
94081W        W59561  13.634  12.180  11.397
94082W        W59562  13.234  40.864  14.955
94083W        W59563  22.048  17.592  10.512
94084W        W59564  36.063   3.386   3.210
94085W        W59565   1.755   4.278   2.726
94086W        W59566  44.313  38.916  10.482
94087W        W59567  23.548   6.837   0.920
94088W        W59568  30.416  33.551  11.902
94089W        W59569  27.561  29.596  14.874
94090W        W59570  32.048  27.945   4.774
94091W        W59571  36.408   6.707  10.515
94092W        W59572  13.108  12.630   0.770
94093W        W59573  12.857  12.241   4.131
94094W        W59574  36.975   6.679  13.337
94095W        W59575  14.114  30.623   1.397
94096W        W59576  25.624   9.222  14.463
94097W        W59577  21.670   4.239  13.016
94098W        W59578  14.784  29.990   1.224
94099W        W59579  11.187  39.012   3.663
94100W        W59580  33.434   8.759   1.390
94101W        W59581  28.451  11.181   1.252
94102W        W59582  11.363  43.385  13.385
94103W        W59583  24.653  22.606   4.335
94104W        W59584  29.501  28.656  14.960
94105W        W59585  42.954  35.491   3.221
94106W        W59586  29.937   0.877   4.721
94107W        W59587  38.873   2.752   1.824
94108W        W59588  20.152   8.826   3.378
94109W        W59589   8.701   8.836   4.722
94110W        W59590  22.538  42.432  12.518
94111W        W59591  27.975   5.306  12.050
94112W        W59592   8.831  43.801  11.931
94113W        W59593  23.639  14.299   5.260
94114W        W59594  22.567   4.820  11.020
94115W        W59595  22.686  29.091   0.873
94116W        W59596  44.990  10.858  14.938
94117W        W59597  36.584  19.278   3.174
94118W        W59598  18.162  41.532   3.703
94119W        W59599   2.921  11.235  13.061
94120W        W59600  33.011  14.794   3.768
94121W        W59601  31.030   1.402  13.902
94122W        W59602  18.118  42.976   2.300
94123W        W59603  38.039   1.893  11.023
94124W        W59604  44.392  43.920  12.057
94125W        W59605  29.132  26.510  11.507
94126W        W59606   3.431   6.728  12.070
94127W        W59607  12.734  44.967   2.664
94128W        W59608  22.233  39.508  13.001
94129W        W59609  19.627  17.258  10.510
94130W        W59610  26.527   0.256  14.423
94131W        W59611  24.511   8.885   2.700
94132W        W59612  19.089  43.329  11.397
94133W        W59613  13.620  21.535   0.945
94134W        W59614  40.533   8.842  14.994
94135W        W59615  42.921   6.903   4.148
94136W        W59616  38.878  38.875  12.908
94137W        W59617  26.572  28.057  12.091
94138W        W59618   7.699  11.816  14.810
94139W        W59619   5.801   2.825   2.673
94140W        W59620   1.813  33.074   3.321
94141W        W59621   2.344   0.487   4.610
94142W        W59622  14.139   3.340  10.920
94143W        W59623  16.809   9.789  14.854
94144W        W59624  25.124   5.317  12.927
94145W        W59625  19.689  25.080  10.609
94146W        W59626  10.692  21.204   3.667
94147W        W59627  39.899  21.216   0.357
94148W        W59628  43.302  12.222  14.373
94149W        W59629  35.982   4.276   1.729
94150W        W59630  23.623  19.211   0.846
94151W        W59631  11.640  41.521  12.843
94152W        W59632  15.288  43.473   0.245
94153W        W59633  10.784  30.620   4.322
94154W        W59634  23.075  26.049   4.209
94155W        W59635  26.545  16.634  12.461
94156W        W59636   4.785  12.321   2.845
94157W        W59637  44.857  12.288   4.739
94158W        W59638   1.347   6.793   4.162
94159W        W59639   3.903   6.389   4.305
94160W        W59640   5.408   3.430   1.213
94161W        W59641  30.028  13.350   2.706
94162W        W59642  36.538  44.822   3.763
94163W        W59643  13.792   1.796  14.470
94164W        W59644   7.190  38.473   0.833
94165W        W59645   8.826   4.801   1.449
94166W        W59646  23.568  17.192   1.249
94167W        W59647  15.267  29.046   2.717
94168W        W59648  21.230  44.316  11.580
94169W        W59649  39.327  34.378   2.367
94170W        W59650  30.989  37.467   0.245
94171W        W59651  10.273  32.960   0.292
94172W        W59652  38.075  20.136  14.491
94173W        W59653  28.534  14.660   1.786
94174W        W59654  33.063   4.925   0.474
94175W        W59655  39.331  23.054   3.292
94176W        W59656  15.710  11.733  11.564
94177W        W59657  32.541  15.327   1.734
94178W        W59658  10.246  34.552   2.195
94179W        W59659  39.499  22.147   3.245
94180W        W59660   3.851   6.199   0.261
94181W        W59661  24.133  42.478  12.373
94182W        W59662  24.227  22.523   9.962
94183W        W59663  22.502  33.520  10.013
94184W        W59664  23.533  42.804   0.948
94185W        W59665  13.683   4.244  13.935
94186W        W59666  21.707  23.629  12.892
94187W        W59667  16.283  13.153   1.446
94188W        W59668  21.247  33.037  14.368
94189W        W59669  23.547  23.733  14.895
94190W        W59670  44.433   7.373  12.562
94191W        W59671   5.690  27.034   4.304
94192W        W59672  33.511  15.300   0.812
94193W        W59673   5.319  34.894   0.362
94194W        W59674  17.136  39.533   0.859
94195W        W59675  29.582   6.791   2.796
94196W        W59676  35.046  25.975  11.125
94197W        W59677  22.226  14.287   1.881
94198W        W59678  26.653   8.232   3.802
94199W        W59679  31.002  25.986   2.282
94200W        W59680  33.007  37.433  10.151
94201W        W59681  12.126  24.531   0.350
94202W        W59682  11.216  34.948   0.855
94203W        W59683  17.702   8.765   3.374
94204W        W59684  16.213  28.043  13.368
94205W        W59685   7.258  36.034   3.343
94206W        W59686  29.926  22.176   0.911
94207W        W59687  44.773  23.087   0.850
94208W        W59688   3.914  40.951   3.796
94209W        W59689  28.952   6.869  13.385
94210W        W59690  44.959  43.940   0.393
94211W        W59691  40.017  15.627   4.647
94212W        W59692  13.605  13.709   3.277
94213W        W59693  39.409   1.348   1.840
94214W        W59694  33.000  17.211   1.866
94215W        W59695  29.614  24.131   0.261
94216W        W59696   8.350  27.513   0.359
94217W        W59697  26.481  18.072   1.738
94218W        W59698  18.103  33.887   2.809
94219W        W59699  27.056  33.404  13.355
94220W        W59700   1.890  31.152  12.051
94221W        W59701   4.373   7.861   0.780
94222W        W59702  30.463  35.043   5.139
94223W        W59703  35.987   7.740   3.783
94224W        W59704  42.888  20.555   4.243
94225W        W59705  11.234  29.088  11.386
94226W        W59706  21.558  14.610   0.343
94227W        W59707   4.426  13.788  10.929
94228W        W59708  36.027   7.316  12.860
94229W        W59709  32.960  41.487   0.310
94230W        W59710   2.871  22.576   4.768
94231W        W59711  23.150   1.332  13.322
94232W        W59712  13.148   6.420   4.195
94233W        W59713  13.821  40.338   1.248
94234W        W59714  34.950  29.099   4.143
94235W        W59715   5.692   7.402  12.868
94236W        W59716   9.750   1.325  13.346
94237W        W59717  11.296   6.342  11.882
94238W        W59718  11.677  32.122  12.037
94239W        W59719  42.356  38.466  14.400
94240W        W59720  10.144  29.127  14.426
94241W        W59721  14.168  37.363   4.188
94242W        W59722  31.003   8.248  11.077
94243W        W59723  30.116  41.997   3.679
94244W        W59724  22.205   5.816   1.450
94245W        W59725  28.091  27.574   3.369
94246W        W59726   1.409   4.359   2.689
94247W        W59727  32.590  11.349  12.922
94248W        W59728  40.894   3.930   0.481
94249W        W59729   9.686  22.687   2.798
94250W        W59730  21.195  29.536   3.870
94251W        W59731  25.001  38.449   3.848
94252W        W59732  29.973  42.898  12.421
94253W        W59733  14.624   3.345   4.324
94254W        W59734  30.576  36.404   2.294
94255W        W59735  43.323  44.973  14.320
94256W        W59736  11.241  25.525  14.276
94257W        W59737  23.234  11.839   0.916
94258W        W59738  33.602  16.721  14.282
94259W        W59739  34.462  43.349  13.516
94260W        W59740  39.421  44.757  14.459
94261W        W59741  16.698  43.344  12.990
94262W        W59742   6.184  28.113  10.528
94263W        W59743  24.018  28.667  12.511
94264W        W59744  29.970  13.223  12.538
94265W        W59745  24.635  24.978   1.823
94266W        W59746  30.924   9.269   3.662
94267W        W59747  30.958  13.152  14.005
94268W        W59748  36.910  33.918  11.052
94269W        W59749  35.469   4.900  10.624
94270W        W59750  11.697  33.565   3.830
94271W        W59751  15.222  28.557   3.280
94272W        W59752  18.155  11.216  12.539
94273W        W59753   5.406  25.634  14.803
94274W        W59754  30.030  23.624  10.948
94275W        W59755   1.449  27.092  10.506
94276W        W59756  24.620  14.774  12.000
94277W        W59757  37.063   4.361   2.778
94278W        W59758  25.631  25.629   1.882
94279W        W59759  40.961   9.207   4.259
94280W        W59760  14.765   4.287   3.789
94281W        W59761  21.605   9.760  14.770
94282W        W59762  14.806  11.148   0.846
94283W        W59763   9.274  29.661   3.740
94284W        W59764  37.549  18.608  11.077
94285W        W59765  11.182   2.722   3.735
94286W        W59766  43.439  36.351   3.703
94287W        W59767   7.172  10.343   2.302
94288W        W59768  24.167  38.882  14.292
94289W        W59769  35.527  27.634  13.921
94290W        W59770  16.129  35.572   1.221
94291W        W59771  16.688  32.042  14.367
94292W        W59772  13.841  44.849  10.605
94293W        W59773  41.317  42.010  14.465
94294W        W59774  18.546  25.125   4.116
94295W        W59775   1.765   3.913  11.114
94296W        W59776  38.559   8.291  10.452
94297W        W59777  24.558  44.450   3.645
94298W        W59778  12.170   9.276  12.867
94299W        W59779   0.972  15.193   4.677
94300W        W59780  36.904   5.823   4.747
94301W        W59781   0.810  19.224   2.835
94302W        W59782  19.227  37.865  11.106
94303W        W59783   5.761   1.332   1.425
94304W        W59784   5.195   3.233  14.827
94305W        W59785  24.087  34.513   0.289
94306W        W59786   2.765  28.462   3.153
94307W        W59787  13.822  22.144   3.702
94308W        W59788  30.457  31.412   1.887
94309W        W59789  14.736  40.412   3.375
94310W        W59790  42.925  20.202   4.693
94311W        W59791  17.646  29.557  12.931
94312W        W59792  36.389  43.510   1.750
94313W        W59793  30.998   7.897   4.599
94314W        W59794  22.108   4.340   4.209
94315W        W59795  10.678  22.537  14.946
94316W        W59796   6.194  24.624   4.755
94317W        W59797   2.786  28.597   2.870
94318W        W59798  36.450  42.375   0.894
94319W        W59799  19.715  21.221   4.261
94320W        W59800  24.487   8.219  12.479
94321W        W59801  26.112  43.958  10.593
94322W        W59802  38.566  36.000   0.761
94323W        W59803  20.190  19.171   1.302
94324W        W59804  30.461   8.767  10.631
94325W        W59805  18.113   3.757   4.643
94326W        W59806  21.062  27.179  12.350
94327W        W59807  41.922  32.887   2.259
94328W        W59808  41.534  29.985  14.963
94329W        W59809  19.071  41.305  12.352
94330W        W59810  30.152   9.795   1.904
94331W        W59811  27.463  29.936  12.531
94332W        W59812  37.002  42.935   1.716
94333W        W59813   4.308   0.272   4.157
94334W        W59814  28.029  43.786   3.638
94335W        W59815   6.724  43.428  11.905
94336W        W59816  36.464   9.180  13.861
94337W        W59817  33.543  34.902   1.212
94338W        W59818   7.880   1.315  12.863
94339W        W59819   2.468  24.710   3.245
94340W        W59820  11.723  24.082  11.604
94341W        W59821  25.163  35.995  11.127
94342W        W59822  22.664  14.115  10.566
94343W        W59823  27.047  27.091   2.349
94344W        W59824   0.373  14.300   4.781
94345W        W59825  33.607  22.536  13.910
94346W        W59826  26.161   4.735   2.719
94347W        W59827  42.330  40.895   4.807
94348W        W59828   1.901   5.418  11.549
94349W        W59829  24.550   3.731   2.191
94350W        W59830  43.359   9.834   2.867
94351W        W59831  24.551  17.273   3.157
94352W        W59832  35.105  31.905  14.371
94353W        W59833  26.131  33.959  14.304
94354W        W59834  13.121  14.700   3.850
94355W        W59835  12.855  35.543   0.252
94356W        W59836   5.232   1.823  12.987
94357W        W59837  23.589  24.987  13.546
94358W        W59838  34.371  17.245   3.352
94359W        W59839  29.454  11.292   1.437
94360W        W59840  28.527   3.227  11.038
94361W        W59841  27.184  11.307  11.576
94362W        W59842  41.482  40.798   2.322
94363W        W59843  17.261  36.577  10.550
94364W        W59844  16.757   6.918   2.720
94365W        W59845  30.634  28.948  13.901
94366W        W59846   0.351   2.433   4.216
94367W        W59847  32.084   5.327  12.493
94368W        W59848  38.405   3.837   4.166
94369W        W59849  33.499  27.078  12.907
94370W        W59850   8.690  40.914  12.491
94371W        W59851  28.962  15.288  10.949
94372W        W59852  18.203  24.161   3.727
94373W        W59853  42.327  29.121   3.194
94374W        W59854   0.971  23.663   1.770
94375W        W59855  25.560  37.870   1.715
94376W        W59856  40.438   8.830   5.156
94377W        W59857   5.850  12.693  13.931
94378W        W59858   8.891   4.855  14.774
94379W        W59859   8.350  12.619   4.155
94380W        W59860  29.919  10.715   1.844
94381W        W59861   9.783   8.394   1.765
94382W        W59862  37.878  15.703   3.771
94383W        W59863  38.905  30.440   3.678
94384W        W59864   0.847  25.025  14.979
94385W        W59865  19.572  29.029   4.639
94386W        W59866   4.853   2.782   3.868
94387W        W59867  18.283  39.544   3.769
94388W        W59868   9.178  31.117  14.838
94389W        W59869  15.272   6.399   4.150
94390W        W59870  34.487   9.709  10.494
94391W        W59871  34.415  42.436   1.323
94392W        W59872   7.879   3.888  14.835
94393W        W59873  36.987   8.268  14.320
94394W        W59874  10.188  25.657   0.917
94395W        W59875  32.027   0.787   5.172
94396W        W59876  38.351   8.369   3.280
94397W        W59877  16.691  34.105  13.342
94398W        W59878  20.075  17.138  11.882
94399W        W59879  21.753  20.086   4.117
94400W        W59880  20.759  33.080  13.937
94401W        W59881  29.652  32.112  10.552
94402W        W59882  23.099   7.790   2.813
94403W        W59883  43.316  34.863  11.429
94404W        W59884  41.301  43.000   2.181
94405W        W59885  32.476  19.540  14.010
94406W        W59886  13.607  31.403   0.939
94407W        W59887  32.080  15.290  12.939
94408W        W59888   3.275  17.587  12.836
94409W        W59889  13.225  33.441   2.268
94410W        W59890  13.725  27.137   3.781
94411W        W59891  43.936  34.000  10.509
94412W        W59892   0.781  17.294   0.821
94413W        W59893   1.747  35.041   4.281
94414W        W59894  17.680  41.797  11.048
94415W        W59895  29.071  23.225   0.434
94416W        W59896   3.773  39.063  12.030
94417W        W59897  39.420  18.068   3.161
94418W        W59898   2.875  41.840  11.050
94419W        W59899  18.699  30.935   4.750
94420W        W59900  36.567  38.571   1.881
94421W        W59901  32.901   7.196   1.426
94422W        W59902  20.624   5.341  11.009
94423W        W59903  12.288  34.565   0.874
94424W        W59904  13.173  10.846   3.293
94425W        W59905  12.158   8.328   4.692
94426W        W59906  43.919  36.007   4.177
94427W        W59907  21.036  33.382   0.443
94428W        W59908  28.126  12.216   0.867
94429W        W59909   4.249  31.984  11.501
94430W        W59910  21.536  36.378  10.599
94431W        W59911  43.817   8.229   0.908
94432W        W59912   6.714  15.721  11.560
94433W        W59913  41.484  36.471   1.434
94434W        W59914   5.741   7.754   0.742
94435W        W59915   7.365  37.929  12.466
94436W        W59916  22.669  13.275   3.869
94437W        W59917  34.434   6.281  12.993
94438W        W59918  15.577   5.437  12.092
94439W        W59919   1.374   9.167   3.196
94440W        W59920  31.912   4.387  11.869
94441W        W59921  21.596  37.842   2.391
94442W        W59922  37.501   7.322  11.010
94443W        W59923  10.756  25.199  14.777
94444W        W59924  41.399  43.990  12.008
94445W        W59925   3.325   4.864   1.820
94446W        W59926  14.783  21.518  10.631
94447W        W59927  28.082  33.981  13.852
94448W        W59928   1.425   8.884   4.333
94449W        W59929   2.777   0.941  13.545
94450W        W59930  16.181  21.124  11.882
94451W        W59931  24.149   5.829   1.813
94452W        W59932  35.971   3.457   1.821
94453W        W59933  43.474  23.191   0.864
94454W        W59934  26.091  21.148  14.977
94455W        W59935  24.661  37.085  12.415
94456W        W59936   0.494   7.184   2.874
94457W        W59937  30.074  19.735   0.368
94458W        W59938   5.822  31.451  10.444
94459W        W59939  24.031  33.039  10.526
94460W        W59940  35.873  42.777  14.960
94461W        W59941  44.379  40.367  11.006
94462W        W59942  30.912  11.287   1.282
94463W        W59943  24.605  31.933  13.365
94464W        W59944  38.547   7.733   4.198
94465W        W59945  27.008  32.510   3.316
94466W        W59946  35.594  11.824   4.318
94467W        W59947  19.715  15.090  10.896
94468W        W59948  19.256  28.678  11.441
94469W        W59949  30.431  21.107  14.483
94470W        W59950  30.462  12.775   4.750
94471W        W59951  30.085   0.337   4.248
94472W        W59952  38.837   1.325  10.600
94473W        W59953  37.518   8.270  10.588
94474W        W59954   5.916  30.554  13.399
94475W        W59955  30.966  27.032   4.183
94476W        W59956  30.024  26.577   0.414
94477W        W59957  35.995  33.115   2.222
94478W        W59958  34.075   0.906   1.307
94479W        W59959  41.419  22.516  11.962
94480W        W59960  14.607  26.507  13.413
94481W        W59961  19.537  36.543  12.964
94482W        W59962   3.299  26.962   1.864
94483W        W59963   3.874  43.801  11.077
94484W        W59964  31.914   3.290  11.469
94485W        W59965  18.659  27.608   1.402
94486W        W59966  18.255  28.982  13.396
94487W        W59967  36.083   5.746   4.647
94488W        W59968  16.080  40.958   0.773
94489W        W59969  18.730  42.025   1.844
94490W        W59970   7.219   2.365  13.527
94491W        W59971  42.781  29.453  12.948
94492W        W59972  23.087  15.723  12.067
94493W        W59973  38.521  15.772   3.847
94494W        W59974  30.626   5.907   0.432
94495W        W59975   8.829  24.487  14.828
94496W        W59976  12.273  35.913  13.902
94497W        W59977  21.753  33.012  11.921
94498W        W59978  13.820   0.307  13.344
94499W        W59979   1.269  37.074   1.934
94500W        W59980   4.732   7.171  14.788
94501W        W59981   2.835   2.427  10.901
94502W        W59982  30.487  34.062  12.946
94503W        W59983  26.097  19.699   2.756
94504W        W59984   6.306   0.941  11.101
94505W        W59985   1.819  20.128  13.353
94506W        W59986  34.108  21.122  10.555
94507W        W59987  10.383   1.268   4.335
94508W        W59988  34.438  44.935  13.942
94509W        W59989  13.815   4.789   2.394
94510W        W59990  24.607  27.042   3.709
94511W        W59991  14.211   9.645   2.833
94512W        W59992   8.709  39.997  13.311
94513W        W59993  30.471  29.545  12.892
94514W        W59994   8.172  32.097   2.803
94515W        W59995  31.153  15.605  12.437
94516W        W59996   5.709  30.994  13.855
94517W        W59997  39.046  28.520  14.332
94518W        W59998  34.105  32.061   1.380
94519W        W59999  16.201  15.768  12.538
94520W        W60000  39.401  39.436  11.578
94521W        W60001  19.694  42.392  14.328
94522W        W60002  23.064   9.738   0.398
94523W        W60003   0.829  26.996  11.570
94524W        W60004  35.498  23.092  10.609
94525W        W60005  21.213  29.429  14.419
94526W        W60006  22.607  27.075   2.365
94527W        W60007  19.580   0.819   0.298
94528W        W60008   8.897   1.260  14.992
94529W        W60009   5.318  35.522   3.194
94530W        W60010  24.028   4.440  10.410
94531W        W60011   6.404  23.701   1.367
94532W        W60012  19.656  30.484   4.686
94533W        W60013  44.906  14.260   4.345
94534W        W60014  14.772  34.954  14.471
94535W        W60015  25.118  22.125  11.589
94536W        W60016  27.179  21.612  14.782
94537W        W60017  30.609   4.934  11.864
94538W        W60018  21.052  40.324   4.703
94539W        W60019  35.963  16.164  13.983
94540W        W60020  20.063  44.364  13.475
94541W        W60021  31.055  19.695  14.410
94542W        W60022  27.196   6.352   4.705
94543W        W60023  32.127  12.301  13.837
94544W        W60024  12.666  41.786   1.932
94545W        W60025  24.037  16.753  10.909
94546W        W60026   4.380  35.977   2.297
94547W        W60027  11.206   5.817  14.350
94548W        W60028  29.001  29.102   1.900
94549W        W60029   9.670  18.780  12.864
94550W        W60030  40.873  32.132   0.393
94551W        W60031  21.720   5.237   0.432
94552W        W60032  28.575  38.419   5.243
94553W        W60033   4.750  16.690  10.644
94554W        W60034   2.799  43.945   4.211
94555W        W60035  39.463  44.472   4.818
94556W        W60036  10.329  16.584   0.774
94557W        W60037  15.696  19.187  11.097
94558W        W60038  14.272  42.938  11.879
94559W        W60039  44.329  30.576  11.456
94560W        W60040   7.868  17.671   4.800
94561W        W60041  12.145  24.195  14.314
94562W        W60042  35.940  12.249  13.036
94563W        W60043  40.412  22.605   5.138
94564W        W60044  13.221  21.748   3.199
94565W        W60045  20.088  30.436   2.834
94566W        W60046  44.783  28.944   0.410
94567W        W60047  30.016  14.250   4.791
94568W        W60048  28.636  39.979  10.947
94569W        W60049  31.076  30.991   0.262
94570W        W60050   0.836  25.108   1.244
94571W        W60051  42.434  18.187   2.746
94572W        W60052  25.184  20.273   0.774
94573W        W60053  37.861  30.934   0.782
94574W        W60054  32.091  15.764   1.288
94575W        W60055  18.051   0.371   1.213
94576W        W60056   1.460  15.737   2.731
94577W        W60057  40.484  23.608   2.284
94578W        W60058  12.729  16.693  10.490
94579W        W60059   7.267  39.391   0.912
94580W        W60060   3.456  35.580  13.883
94581W        W60061  34.030  34.421  12.512
94582W        W60062  35.109  33.537  10.547
94583W        W60063  18.648  26.497  11.940
94584W        W60064  13.228  35.406   1.451
94585W        W60065  25.577   8.741  12.052
94586W        W60066  23.674  18.248  11.394
94587W        W60067  23.181   6.733  13.837
94588W        W60068   3.312  35.394   4.713
94589W        W60069  33.912  37.392  13.856
94590W        W60070  21.147  31.010  13.892
94591W        W60071  25.592  24.542   2.224
94592W        W60072  40.941  36.047   3.332
94593W        W60073  39.867  44.953   2.834
94594W        W60074  42.847   8.192   4.177
94595W        W60075  21.674  24.983  12.520
94596W        W60076   1.815  43.328  14.405
94597W        W60077  11.133  38.002   1.400
94598W        W60078  26.026  25.509  13.434
94599W        W60079  36.041  34.430   0.478
94600W        W60080  31.499   6.329   2.260
94601W        W60081  17.254  13.724   0.478
94602W        W60082   7.200  27.940  13.530
94603W        W60083  12.245  41.518  13.804
94604W        W60084  20.556  14.173  12.014
94605W        W60085  32.120  34.883   2.366
94606W        W60086  11.653   6.332   0.382
94607W        W60087  34.028  30.600   1.330
94608W        W60088  33.010   0.260   2.389
94609W        W60089   5.337  38.508  14.912
94610W        W60090  29.481  31.906   0.475
94611W        W60091  11.143  33.552   0.483
94612W        W60092  18.248   1.879  12.841
94613W        W60093  20.194  41.423  10.557
94614W        W60094  15.326  28.970  13.909
94615W        W60095   2.744  21.086   3.264
94616W        W60096  33.419  41.412   0.875
94617W        W60097   5.706  10.763  12.024
94618W        W60098   4.292  37.402  12.085
94619W        W60099  29.927  42.388  14.493
94620W        W60100  35.052   6.847   0.758
94621W        W60101   5.395  14.188  12.460
94622W        W60102  24.478   1.864   0.774
94623W        W60103   9.743  31.153  13.518
94624W        W60104  44.798  40.327  11.918
94625W        W60105   4.392   3.331   2.664
94626W        W60106  24.100  22.708  12.875
94627W        W60107  27.086  42.847  10.102
94628W        W60108  42.785  21.656  12.359
94629W        W60109  27.556   0.795   2.395
94630W        W60110  21.204  34.368   0.307
94631W        W60111   0.875   9.378  12.467
94632W        W60112  36.361   3.324   0.945
94633W        W60113  18.060  12.331  13.362
94634W        W60114  12.121  20.216  12.527
94635W        W60115  41.990  39.461  14.297
94636W        W60116   0.961  25.581  10.569
94637W        W60117  36.397  39.012  14.991
94638W        W60118  33.958  31.423   3.844
94639W        W60119  39.897  10.285   1.807
94640W        W60120  36.884  23.520   2.814
94641W        W60121  43.890  37.560  12.023
94642W        W60122  42.326   9.228   1.925
94643W        W60123  16.144  16.597   0.258
94644W        W60124  17.612  36.996  13.521
94645W        W60125  38.537  32.112  11.065
94646W        W60126  37.933  34.486  10.540
94647W        W60127   3.711   5.714   2.810
94648W        W60128   7.765   1.274   4.681
94649W        W60129  12.271  23.575  11.987
94650W        W60130  13.200  25.703   2.339
94651W        W60131  35.540  32.142   0.396
94652W        W60132  16.158  42.820   0.821
94653W        W60133  12.204  42.919  13.960
94654W        W60134  27.600  26.192   3.804
94655W        W60135  10.694  22.747   4.692
94656W        W60136  44.449  42.961  12.942
94657W        W60137   4.345  19.611   1.798
94658W        W60138  24.488   8.256   3.308
94659W        W60139  30.942  25.579   3.304
94660W        W60140  34.593  33.386   0.908
94661W        W60141  31.528  31.598   4.671
94662W        W60142  36.534   3.953  12.913
94663W        W60143  33.954   1.852   3.270
94664W        W60144  38.547  43.372  13.027
94665W        W60145   9.277  18.552   1.231
94666W        W60146  44.963  10.850   2.398
94667W        W60147  15.785  33.402  14.463
94668W        W60148  19.717  15.717   1.713
94669W        W60149   2.780   6.300   3.727
94670W        W60150  26.547  19.043  14.362
94671W        W60151  27.961  19.672   3.313
94672W        W60152  43.307  33.989  12.546
94673W        W60153  15.641   4.224   2.700
94674W        W60154  43.395  24.706   0.859
94675W        W60155  36.030  35.002  11.608
94676W        W60156  25.189   7.387   4.833
94677W        W60157   5.244  29.942   4.176
94678W        W60158  22.184  18.790  12.512
94679W        W60159  34.057  20.213  11.509
94680W        W60160  38.991  44.337  12.012
94681W        W60161  44.783  12.849  12.467
94682W        W60162  40.531  36.890  14.309
94683W        W60163  21.554  10.704   2.742
94684W        W60164  35.870   0.930  11.563
94685W        W60165   2.906  23.001   3.824
94686W        W60166  27.052  44.811  12.476
94687W        W60167  42.281  38.325  14.829
94688W        W60168  31.136   4.206   1.449
94689W        W60169  28.046  12.812   3.282
94690W        W60170  30.124  10.801  14.877
94691W        W60171  13.298  14.135  14.021
94692W        W60172   3.759   3.405   0.466
94693W        W60173   9.307  16.609  14.804
94694W        W60174  15.155  26.142  13.922
94695W        W60175  12.283  12.209  11.936
94696W        W60176  43.452  13.832  11.600
94697W        W60177   9.360  15.663  12.089
94698W        W60178  21.243  43.891   3.759
94699W        W60179  40.831  43.322  10.441
94700W        W60180  36.568  33.990   1.926
94701W        W60181   5.360  22.603   3.852
94702W        W60182   1.353  37.567   4.219
94703W        W60183  24.700  32.113   4.191
94704W        W60184  21.083  15.606  14.298
94705W        W60185  10.733  36.397   0.447
94706W        W60186  30.447   9.728  14.996
94707W        W60187  44.464  27.191  12.828
94708W        W60188  19.139  10.771   2.250
94709W        W60189   2.347   2.304   2.409
94710W        W60190   8.811  30.613  11.509
94711W        W60191  38.437   1.801   3.179
94712W        W60192  34.387  24.634  14.397
94713W        W60193  21.623  44.382  14.786
94714W        W60194   5.694  38.532   0.774
94715W        W60195   1.871   0.884   4.118
94716W        W60196  25.687  14.133  13.333
94717W        W60197   9.166  40.333  10.631
94718W        W60198   6.882   0.389  11.888
94719W        W60199   7.734  12.153   4.238
94720W        W60200   6.904   5.726   2.221
94721W        W60201   8.278  14.662  14.960
94722W        W60202  17.611  14.778  14.798
94723W        W60203  39.873  28.524  12.942
94724W        W60204  39.399  39.895   1.856
94725W        W60205  24.198  32.580  11.475
94726W        W60206  31.643  11.168  12.983
94727W        W60207  17.610  18.190  13.541
94728W        W60208  21.263  15.591   5.168
94729W        W60209  19.644  42.910  13.413
94730W        W60210  39.475   5.866  12.564
94731W        W60211  39.450  37.400   4.730
94732W        W60212  35.404  35.063  11.476
94733W        W60213  22.722  41.869   0.931
94734W        W60214  27.093   0.374  10.641
94735W        W60215  18.572  28.134  10.599
94736W        W60216  10.341   8.275   4.632
94737W        W60217  40.998  18.247   5.575
94738W        W60218  25.104  18.168   3.378
94739W        W60219  10.701   7.338  15.000
94740W        W60220   8.267  29.610  13.441
94741W        W60221  32.103  41.300   4.710
94742W        W60222  11.690  30.053   2.701
94743W        W60223  35.076   7.400   2.830
94744W        W60224  44.940  21.062  14.904
94745W        W60225  19.107  19.171  12.367
94746W        W60226  25.112   2.867  10.440
94747W        W60227  17.162  32.976   2.831
94748W        W60228   3.227  30.418   4.636
94749W        W60229  26.604  29.099   2.897
94750W        W60230  18.772  27.193   1.326
94751W        W60231  16.166  20.631   0.853
94752W        W60232   6.260  32.054  12.994
94753W        W60233  30.148  10.356  10.962
94754W        W60234   4.448  28.103  13.980
94755W        W60235  19.701   9.809   2.197
94756W        W60236   1.912   0.971   5.102
94757W        W60237  35.474  13.702   3.722
94758W        W60238  43.809  18.690   0.410
94759W        W60239   7.807  19.694   3.788
94760W        W60240  13.818  16.573   4.761
94761W        W60241   5.323   8.673   3.382
94762W        W60242   9.349  11.832   1.314
94763W        W60243  20.671   1.862   3.831
94764W        W60244   4.262  22.635  11.387
94765W        W60245  42.020  25.700   3.723
94766W        W60246   2.896  42.877  13.969
94767W        W60247  31.412  23.663  10.954
94768W        W60248  15.785   2.892   1.440
94769W        W60249  28.550   3.740  12.545
94770W        W60250  35.000  32.512  12.411
94771W        W60251   8.894  41.787  11.590
94772W        W60252  22.081  44.918   2.392
94773W        W60253  32.083  12.121   2.696
94774W        W60254   4.837  16.746  12.977
94775W        W60255  44.891  38.382   4.624
94776W        W60256   7.259  41.944  11.870
94777W        W60257  31.910  22.521  10.895
94778W        W60258  35.538   3.403   1.393
94779W        W60259  33.551  19.707   3.863
94780W        W60260  11.627  33.895   3.675
94781W        W60261  29.473   2.800   1.897
94782W        W60262   6.230   7.890  13.921
94783W        W60263  24.519  31.517   0.418
94784W        W60264  15.646  44.890   1.328
94785W        W60265  35.435  23.579   1.444
94786W        W60266   7.366  19.129  14.029
94787W        W60267   0.389  44.830  13.047
94788W        W60268   0.375  11.337   4.192
94789W        W60269  10.736  18.054  12.430
94790W        W60270  16.094  30.416   4.655
94791W        W60271   1.770  20.714   1.352
94792W        W60272  32.069   1.783  14.367
94793W        W60273  13.178  10.318  11.956
94794W        W60274  18.182  20.267   1.214
94795W        W60275  11.134   9.878   3.313
94796W        W60276  42.846  38.874   4.343
94797W        W60277  17.246   3.265  13.359
94798W        W60278  15.245  20.568   4.652
94799W        W60279  21.714  26.595  13.997
94800W        W60280  11.831   7.853   1.397
94801W        W60281   7.699  22.682   5.210
94802W        W60282  31.012  12.310   2.263
94803W        W60283  23.530  31.955   4.653
94804W        W60284  34.553  25.542  10.556
94805W        W60285  15.610  25.572   2.730
94806W        W60286   0.747  27.077  12.008
94807W        W60287  28.652  40.409  13.061
94808W        W60288  44.914  16.579  14.981
94809W        W60289  42.002  31.475  12.350
94810W        W60290  43.926  41.042  11.535
94811W        W60291  28.137  40.846  14.859
94812W        W60292   2.372  16.317  14.454
94813W        W60293   0.902   0.799  11.563
94814W        W60294  33.622   9.723   2.375
94815W        W60295   6.884  35.907   4.262
94816W        W60296  13.270   4.436  13.847
94817W        W60297  33.104  37.340   4.637
94818W        W60298  36.057   5.827  12.887
94819W        W60299  21.217  24.109   3.187
94820W        W60300  15.742  40.313  11.411
94821W        W60301   7.761  14.801  14.789
94822W        W60302  27.113  37.403   3.290
94823W        W60303  15.325   2.876   4.262
94824W        W60304  37.051  22.666  11.999
94825W        W60305  23.638  22.652   3.223
94826W        W60306  38.060  37.582  13.486
94827W        W60307  36.422  11.274   0.936
94828W        W60308  39.540  21.031  13.797
94829W        W60309  15.198  32.431   3.716
94830W        W60310   8.404  21.651  13.458
94831W        W60311   8.170  32.444   4.275
94832W        W60312  17.643   8.790   1.907
94833W        W60313  41.798  31.498  12.964
94834W        W60314  14.326  15.179   4.770
94835W        W60315   7.821  42.993   3.381
94836W        W60316   8.287  39.471  12.577
94837W        W60317   6.919  38.874  14.826
94838W        W60318  21.519  23.128   0.797
94839W        W60319  28.161  15.592   3.640
94840W        W60320  16.631  18.756  11.874
94841W        W60321   2.236  43.375   3.368
94842W        W60322  35.947  25.184   4.809
94843W        W60323  21.604  18.728  12.410
94844W        W60324  35.042   5.724  13.309
94845W        W60325  33.536  26.043   4.781
94846W        W60326  21.121   5.408  13.876
94847W        W60327  21.232  25.714   4.239
94848W        W60328   4.395  39.021   4.743
94849W        W60329  16.256  10.279   4.675
94850W        W60330  35.979  12.302   4.222
94851W        W60331   5.727   4.810   0.465
94852W        W60332   3.804  42.344  14.990
94853W        W60333  13.761  34.929  11.935
94854W        W60334  34.487  11.645  11.065
94855W        W60335  18.656  25.108   5.169
94856W        W60336  37.038   1.949   0.827
94857W        W60337  30.489  44.496  10.919
94858W        W60338  20.210  22.078  12.923
94859W        W60339  26.004  17.225  11.608
94860W        W60340  19.133  34.383   4.313
94861W        W60341  31.009  16.281  14.777
94862W        W60342  17.067  39.916   1.743
94863W        W60343  20.151  30.530  11.385
94864W        W60344  23.661  20.105  11.926
94865W        W60345  26.461  28.573  12.480
94866W        W60346   0.816  25.061   0.358
94867W        W60347  22.538  20.744  10.529
94868W        W60348  27.039   4.928  10.411
94869W        W60349  20.153  15.174   3.149
94870W        W60350   3.359  24.987  10.637
94871W        W60351  34.946  40.396  13.022
94872W        W60352  18.664   5.401   1.378
94873W        W60353  43.329   2.466   3.347
94874W        W60354  37.468  36.411   5.294
94875W        W60355  42.409   7.417   1.336
94876W        W60356  14.125  31.065   4.335
94877W        W60357  23.684  28.487   4.713
94878W        W60358   7.831   8.181   2.369
94879W        W60359  31.628  32.463   2.377
94880W        W60360  32.899  31.048   2.402
94881W        W60361  31.938  13.727   1.807
94882W        W60362   5.742  12.231  12.049
94883W        W60363  13.604   5.802   4.316
94884W        W60364  44.871  19.578  12.489
94885W        W60365   9.286   8.779   2.363
94886W        W60366  19.135  12.303  10.521
94887W        W60367  25.490  32.572  10.940
94888W        W60368  38.345   4.849   4.652
94889W        W60369  25.191  17.559  11.119
94890W        W60370  41.017  40.472   1.238
94891W        W60371   9.225  21.735   0.904
94892W        W60372  12.175  18.197   2.193
94893W        W60373  28.602   0.964   3.864
94894W        W60374  39.509  34.596  11.062
94895W        W60375  32.899  21.175   0.396
94896W        W60376  39.054   1.446  10.944
94897W        W60377   4.250  41.994   4.721
94898W        W60378  37.084  30.111   1.888
94899W        W60379  35.085  24.558  14.511
94900W        W60380  32.042   8.822   3.675
94901W        W60381  38.452   9.174  10.951
94902W        W60382  41.372  15.745   4.628
94903W        W60383  21.717  17.281   2.880
94904W        W60384  24.983   8.289  11.041
94905W        W60385   5.211   5.761   0.473
94906W        W60386  25.132  29.976  10.567
94907W        W60387   0.434  28.476  13.958
94908W        W60388  29.938   5.731  14.320
94909W        W60389  40.971  38.370   3.223
94910W        W60390  12.250  32.623  13.925
94911W        W60391  15.137   0.962   5.223
94912W        W60392  39.559  43.794  14.979
94913W        W60393   5.254  38.519   4.654
94914W        W60394  24.030  30.466   1.416
94915W        W60395  18.059  13.164  12.414
94916W        W60396  37.922  41.382  12.927
94917W        W60397  21.659  32.059   4.710
94918W        W60398   5.892   2.958  14.890
94919W        W60399  14.097  31.071  14.340
94920W        W60400  20.701  26.980  14.392
94921W        W60401   0.253   8.673   0.370
94922W        W60402  16.635   2.378   3.145
94923W        W60403  28.445  28.663  14.415
94924W        W60404   5.785  24.500  14.887
94925W        W60405   7.330   0.470  12.385
94926W        W60406   9.734  13.228   4.619
94927W        W60407  26.170  43.316  13.865
94928W        W60408  15.122  15.326  12.451
94929W        W60409   4.310  16.769  13.057
94930W        W60410   0.376  39.037  14.798
94931W        W60411  10.667  13.684   2.268
94932W        W60412  14.173  12.212   4.742
94933W        W60413  16.204  37.407  12.883
94934W        W60414  31.017  41.993   9.510
94935W        W60415  41.465  19.616   0.854
94936W        W60416  27.520  25.535   0.831
94937W        W60417  35.878  11.677   2.313
94938W        W60418  12.688  29.663   1.227
94939W        W60419  20.590  43.930   4.768
94940W        W60420  27.984  42.000  11.059
94941W        W60421  33.386   3.305   5.159
94942W        W60422  43.842  40.412   1.327
94943W        W60423   4.849   1.390  13.448
94944W        W60424   4.875  31.452   2.874
94945W        W60425  38.931   9.271  11.378
94946W        W60426  25.078  39.446   2.773
94947W        W60427  17.296  23.991   4.115
94948W        W60428  38.034  28.099  10.912
94949W        W60429  33.519  35.399   0.955
94950W        W60430  39.376   7.758   0.852
94951W        W60431  34.528  36.420  11.859
94952W        W60432   5.759  37.013   3.256
94953W        W60433  44.776  18.695  12.983
94954W        W60434  39.379  24.044  12.525
94955W        W60435  37.499  12.713   9.927
94956W        W60436  18.776  29.532  11.945
94957W        W60437  14.158  22.516  14.982
94958W        W60438  22.560  39.419  12.378
94959W        W60439  19.061  27.463   3.336
94960W        W60440  43.021  22.094  11.962
94961W        W60441  33.450  19.091  13.054
94962W        W60442   5.853  40.025   4.187
94963W        W60443  29.965   2.747   3.845
94964W        W60444  28.115  17.181   4.333
94965W        W60445   9.718  30.604   4.242
94966W        W60446  39.035  35.595  14.904
94967W        W60447  27.499   3.823   2.205
94968W        W60448  26.051   9.306   0.923
94969W        W60449   0.745  33.024  10.906
94970W        W60450  18.065  29.511  11.036
94971W        W60451  11.650  41.450   0.788
94972W        W60452   7.397  39.828  10.991
94973W        W60453  29.503  42.938   3.286
94974W        W60454  34.019  22.009   4.627
94975W        W60455  16.250   5.861   4.270
94976W        W60456  28.974   2.927  13.055
94977W        W60457  29.011  41.014   9.955
94978W        W60458  14.611  33.054   1.252
94979W        W60459  31.569  24.580  11.526
94980W        W60460  37.874   5.863  12.473
94981W        W60461  16.289   5.415   0.397
94982W        W60462  42.336  43.372  11.583
94983W        W60463  30.139   6.197   2.732
94984W        W60464   2.787  14.645   2.697
94985W        W60465  26.025  18.090  11.406
94986W        W60466  43.452  31.138   0.829
94987W        W60467   2.367  31.076   4.338
94988W        W60468   2.325  26.988   2.207
94989W        W60469   1.395  10.328   3.838
94990W        W60470   0.248  36.942   3.657
94991W        W60471   1.460  29.959  13.519
94992W        W60472  16.299  30.985   4.237
94993W        W60473   3.290  16.732  11.562
94994W        W60474   9.704   2.295  10.980
94995W        W60475  27.981   8.685   4.622
94996W        W60476   4.769  38.040  14.952
94997W        W60477  20.246  44.915   4.193
94998W        W60478  10.340  26.480  13.982
94999W        W60479  36.864  44.419   0.420
95000W        W60480   1.751  29.150   2.228
95001W        W60481  12.194  38.001  12.467
95002W        W60482   6.762  33.552   1.759
95003W        W60483  10.657  42.797  10.518
95004W        W60484   4.382   9.685   1.892
95005W        W60485  22.603  28.148  10.047
95006W        W60486  38.897  16.317   2.214
95007W        W60487  32.476  40.968   2.326
95008W        W60488  19.087  33.510  14.379
95009W        W60489  13.201  40.339   4.154
95010W        W60490  15.171   8.754  11.461
95011W        W60491  43.495  11.766  13.924
95012W        W60492  21.751  27.625  12.543
95013W        W60493  17.706  22.712  13.962
95014W        W60494   9.682   1.744  14.924
95015W        W60495  20.593  17.184  13.009
95016W        W60496  16.764   3.858   3.172
95017W        W60497  28.166  40.925  13.982
95018W        W60498  25.496  24.070   4.312
95019W        W60499  37.084  11.857  14.477
95020W        W60500   5.418  41.872  10.500
95021W        W60501  19.724  37.971  13.903
95022W        W60502  35.413  40.394  11.021
95023W        W60503  43.803  41.502   4.219
95024W        W60504  24.017   4.705  13.906
95025W        W60505   0.294  28.506   2.285
95026W        W60506  31.416  17.590  10.418
95027W        W60507  43.353  25.193  12.010
95028W        W60508  36.562  24.712  13.050
95029W        W60509  22.588  14.219   9.941
95030W        W60510  10.791  13.273  12.896
95031W        W60511  22.008  43.842   0.747
95032W        W60512   0.249  25.490   0.899
95033W        W60513  16.162  29.586  12.452
95034W        W60514  28.058  14.117   4.140
95035W        W60515   0.883  44.279   4.802
95036W        W60516   3.721  26.497   0.784
95037W        W60517  18.703  25.606  10.002
95038W        W60518   5.364  20.626  14.920
95039W        W60519   9.270   3.725  11.857
95040W        W60520   1.749  38.472   3.669
95041W        W60521   0.797   9.829   0.831
95042W        W60522  18.667  37.939  12.848
95043W        W60523  25.039  34.371  10.595
95044W        W60524  22.514  24.650  14.327
95045W        W60525  12.265  27.513   3.207
95046W        W60526  30.968  26.560   5.115
95047W        W60527  38.380  19.201  11.468
95048W        W60528   9.852  26.176   4.349
95049W        W60529  35.432  21.023  11.495
95050W        W60530  23.637  10.679   0.761
95051W        W60531  21.605   6.922  11.592
95052W        W60532  29.954  25.178  13.492
95053W        W60533   0.384  28.114   1.265
95054W        W60534  25.162   9.875  14.963
95055W        W60535   9.237  15.737   3.727
95056W        W60536   9.368  35.574   1.849
95057W        W60537  12.702  14.316   4.353
95058W        W60538  33.905  43.980  11.610
95059W        W60539  30.948  42.898  10.889
95060W        W60540   8.844  12.214  12.445
95061W        W60541   3.293  38.036   3.234
95062W        W60542   5.254  14.744   0.335
95063W        W60543   0.412  24.102  13.441
95064W        W60544   6.866  39.478  13.799
95065W        W60545   5.280  39.826   3.311
95066W        W60546   4.431  42.888   0.770
95067W        W60547  10.228  28.483   0.478
95068W        W60548  14.750   5.836   2.667
95069W        W60549  30.089  12.279  11.919
95070W        W60550   6.339  11.182   4.839
95071W        W60551  32.593  36.430   4.697
95072W        W60552  32.019  20.054  12.427
95073W        W60553  44.371  19.242  11.382
95074W        W60554  24.496  40.044   2.692
95075W        W60555  23.720   2.784   2.252
95076W        W60556   1.960  10.764  10.947
95077W        W60557  37.891  40.465  14.412
95078W        W60558  32.939  42.967  10.891
95079W        W60559  21.655   8.225  14.809
95080W        W60560   8.890  11.835   1.444
95081W        W60561  21.535  43.001   2.739
95082W        W60562  42.423  11.288   2.855
95083W        W60563  17.197  36.503   2.682
95084W        W60564  17.671  14.697  11.070
95085W        W60565  26.957  44.764   2.712
95086W        W60566  32.893  23.595  13.543
95087W        W60567  43.868  38.822  14.460
95088W        W60568  12.792  35.976  12.884
95089W        W60569  11.818   2.939   2.258
95090W        W60570  37.017  32.567  12.395
95091W        W60571  22.544  16.777  13.807
95092W        W60572  18.250  17.062  14.497
95093W        W60573  34.061  38.568  11.935
95094W        W60574   4.273  12.267   2.409
95095W        W60575   8.265   3.354   0.754
95096W        W60576   3.356   1.387   2.805
95097W        W60577  30.033  11.652   0.776
95098W        W60578  43.365   8.389   2.233
95099W        W60579  21.066  21.708   4.344
95100W        W60580  32.101  38.008   2.327
95101W        W60581   5.336   7.811   3.203
95102W        W60582  31.027  24.504  13.881
95103W        W60583   5.874  10.255   1.271
95104W        W60584  39.831  22.115   2.675
95105W        W60585   0.367  29.920  14.310
95106W        W60586   4.422   2.257  11.391
95107W        W60587  25.075   9.250   0.245
95108W        W60588  43.498  30.571  10.488
95109W        W60589  33.479  12.267  11.487
95110W        W60590  23.633  34.988  13.986
95111W        W60591  12.700  12.319  12.408
95112W        W60592  39.918   3.898   3.358
95113W        W60593   0.887  15.819   3.169
95114W        W60594  16.099  16.162   3.285
95115W        W60595  41.813  34.575   3.792
95116W        W60596  33.501   8.843  13.909
95117W        W60597  39.499  42.782  11.481
95118W        W60598   1.878  25.487  14.799
95119W        W60599   4.222  34.890   3.286
95120W        W60600  25.011  25.994  11.481
95121W        W60601  19.719   9.274  11.461
95122W        W60602  39.459  26.690  11.102
95123W        W60603  39.045  37.929  12.823
95124W        W60604   7.348  25.507   0.733
95125W        W60605  18.618   7.193  12.002
95126W        W60606  40.009  37.359   2.410
95127W        W60607   4.358  13.292  10.603
95128W        W60608   7.872  11.764   4.763
95129W        W60609  28.630  31.558  10.529
95130W        W60610  11.194  36.007   2.211
95131W        W60611  26.482  41.862  12.430
95132W        W60612  32.032  24.714  12.472
95133W        W60613  10.829  31.603   1.757
95134W        W60614  34.109  42.000  14.006
95135W        W60615  22.018  13.348   0.360
95136W        W60616  30.976   1.263   4.300
95137W        W60617  26.973   4.832   3.353
95138W        W60618   3.811  11.688  11.479
95139W        W60619  26.982   4.387  10.410
95140W        W60620   4.825  42.505  13.376
95141W        W60621   3.948  30.065  13.954
95142W        W60622   2.327   2.256  12.085
95143W        W60623   7.717  34.596   3.749
95144W        W60624  10.144  44.932  11.399
95145W        W60625  44.430   3.362   3.160
95146W        W60626  34.982  20.655  10.936
95147W        W60627  31.015   9.761  12.944
95148W        W60628  10.722  21.554  13.538
95149W        W60629   0.761  12.822  11.126
95150W        W60630  44.492  11.234  11.485
95151W        W60631   1.348  28.577   3.159
95152W        W60632  29.496  21.023   3.353
95153W        W60633  40.538  23.712  12.441
95154W        W60634   3.843  20.674  12.577
95155W        W60635  38.488   8.202  14.285
95156W        W60636  42.956  44.952   0.909
95157W        W60637  36.921  39.841   3.205
95158W        W60638  10.722  37.851  13.312
95159W        W60639  12.356  10.665   0.790
95160W        W60640  13.756   8.722  13.323
95161W        W60641  19.043  39.398  12.356
95162W        W60642  33.619  36.475   2.330
95163W        W60643  37.843  39.035   4.256
95164W        W60644   2.929  18.240   4.671
95165W        W60645  22.695  35.481   1.355
95166W        W60646   1.815  12.742  13.009
95167W        W60647  31.541   1.440  13.062
95168W        W60648  36.582  21.613  11.100
95169W        W60649  16.664  21.198   0.358
95170W        W60650   0.942  20.600   3.291
95171W        W60651   2.457  33.529   3.174
95172W        W60652  36.528  44.311   3.790
95173W        W60653  10.652  19.153   0.955
95174W        W60654   9.799   5.928  11.939
95175W        W60655  42.356  42.012   3.185
95176W        W60656  43.789   1.430   4.674
95177W        W60657   4.308  11.706  10.977
95178W        W60658  39.876  24.633   2.358
95179W        W60659  11.282   8.321   4.777
95180W        W60660   9.310  21.172  10.081
95181W        W60661  36.868  39.990  12.561
95182W        W60662  21.551  30.076  11.056
95183W        W60663  35.604   2.437   0.243
95184W        W60664  20.627  11.767   1.724
95185W        W60665  11.277  44.401  13.364
95186W        W60666   4.291  15.139  12.500
95187W        W60667  16.577  33.482   3.151
95188W        W60668  21.613  34.590   1.444
95189W        W60669  33.987  35.065   3.227
95190W        W60670  36.354  21.159  12.988
95191W        W60671  40.845  14.149   0.754
95192W        W60672  18.249  17.564  13.455
95193W        W60673  14.755  27.151   3.770
95194W        W60674  21.612   8.834  14.937
95195W        W60675  30.130  37.524   2.812
95196W        W60676  43.495  17.727  13.922
95197W        W60677  32.047  44.939   4.640
95198W        W60678  15.289  17.632   5.131
95199W        W60679  31.465  10.232  13.442
95200W        W60680  13.764  11.240  12.969
95201W        W60681   0.815  12.712  14.002
95202W        W60682  13.775  25.003  14.007
95203W        W60683  13.603  22.176  12.494
95204W        W60684  24.182  19.196  13.903
95205W        W60685  10.340  24.017   2.333
95206W        W60686  29.566  25.212  13.512
95207W        W60687  26.679  41.871  10.456
95208W        W60688  14.168  28.941  13.367
95209W        W60689   6.760  40.306   4.671
95210W        W60690  32.959   1.381  14.376
95211W        W60691  20.523   5.915   0.769
95212W        W60692   8.786  44.949  14.327
95213W        W60693  37.974   2.880  13.355
95214W        W60694  41.432  20.093  14.945
95215W        W60695  36.416   7.706   5.188
95216W        W60696  43.768   0.919   0.844
95217W        W60697  23.558  39.494   2.394
95218W        W60698  39.047  16.093  13.376
95219W        W60699  35.054  19.718  10.534
95220W        W60700  15.636  26.627   2.309
95221W        W60701  44.805  38.823   0.822
95222W        W60702  18.753  38.845   1.414
95223W        W60703  11.304  12.722   1.697
95224W        W60704  42.310   6.710  12.982
95225W        W60705  40.427   1.855  10.480
95226W        W60706   8.805  28.032   2.675
95227W        W60707   3.239   9.243   2.732
95228W        W60708   7.417  37.581  12.361
95229W        W60709  24.068  29.458   0.757
95230W        W60710  37.056  12.753  10.949
95231W        W60711  15.158  19.181  14.866
95232W        W60712  38.484  10.658  13.985
95233W        W60713  29.429  16.719   1.765
95234W        W60714   3.800  43.384   4.217
95235W        W60715  27.116  31.515  12.469
95236W        W60716  30.528  35.538   3.193
95237W        W60717  19.578  41.804   4.192
95238W        W60718  27.032   8.666   1.830
95239W        W60719   0.743  29.119  14.383
95240W        W60720   8.754  22.191   2.819
95241W        W60721  16.172  40.346  14.871
95242W        W60722  17.779   4.275  11.073
95243W        W60723  22.068   0.451   2.861
95244W        W60724   8.818  24.654   4.784
95245W        W60725  16.312  27.554  12.366
95246W        W60726  30.635   3.290  12.879
95247W        W60727   6.300  18.679   2.237
95248W        W60728  35.363  25.198  12.382
95249W        W60729  13.660  33.882   3.793
95250W        W60730  44.478  34.012   0.891
95251W        W60731   7.254  41.912  14.777
95252W        W60732  20.717  13.799  13.977
95253W        W60733  29.439  27.041  12.463
95254W        W60734   4.296  13.814   2.853
95255W        W60735   1.386  33.452  11.423
95256W        W60736   3.254  20.208  14.391
95257W        W60737  42.487  27.149  14.799
95258W        W60738  27.559   0.404   0.333
95259W        W60739  27.104  26.544   4.704
95260W        W60740   0.743  33.504   1.393
95261W        W60741   8.327  28.142  12.495
95262W        W60742  16.275  13.666  12.049
95263W        W60743  27.677  42.360  10.985
95264W        W60744  37.951  35.468   1.896
95265W        W60745  17.282  17.195   3.734
95266W        W60746  25.606  38.571  13.321
95267W        W60747  37.372  13.680   4.310
95268W        W60748  38.879  37.501   1.282
95269W        W60749  23.640  39.971  11.539
95270W        W60750  12.153   8.354  10.559
95271W        W60751   9.886  28.997   2.669
95272W        W60752  31.596  43.337  11.107
95273W        W60753  21.204   7.314  12.369
95274W        W60754  43.937  19.709   1.754
95275W        W60755  11.317  10.229   0.892
95276W        W60756   6.678  38.364   4.279
95277W        W60757  15.662  24.675  12.873
95278W        W60758  43.452   5.738  13.389
95279W        W60759  33.975  34.518   3.289
95280W        W60760  33.033   0.873  12.463
95281W        W60761   1.775  21.112   1.757
95282W        W60762  39.356   3.905  11.023
95283W        W60763  41.385  10.143  11.549
95284W        W60764   2.764  30.066  12.006
95285W        W60765  19.635  25.469   3.767
95286W        W60766  37.484  40.492   4.672
95287W        W60767  21.247  19.769  14.030
95288W        W60768  30.935   1.872   0.347
95289W        W60769  11.653   5.898  14.951
95290W        W60770   5.397   3.331   2.897
95291W        W60771  25.678  20.062  13.462
95292W        W60772  28.513  41.504   2.739
95293W        W60773  37.944  29.172   0.482
95294W        W60774   1.449  20.079  14.922
95295W        W60775  12.745  34.979  13.402
95296W        W60776   1.374  36.941   0.741
95297W        W60777   7.337  21.232   1.423
95298W        W60778   5.726  35.450  11.885
95299W        W60779  35.090   4.410  14.897
95300W        W60780  43.303  41.461   5.178
95301W        W60781   0.750  11.320   4.660
95302W        W60782  28.157  26.581  14.924
95303W        W60783  18.225  14.168  13.465
95304W        W60784  22.534  33.472   0.868
95305W        W60785   2.886  14.231  11.440
95306W        W60786   7.299  13.815   1.835
95307W        W60787  39.399  33.061   4.245
95308W        W60788  36.380  35.434  11.553
95309W        W60789  30.429  44.948   2.674
95310W        W60790  42.516  17.119  13.382
95311W        W60791  10.213   4.428  13.815
95312W        W60792  40.857  43.855   4.656
95313W        W60793  36.359  29.049   4.695
95314W        W60794  35.423  36.434  13.518
95315W        W60795  12.738  22.180   1.727
95316W        W60796   2.724   2.296  10.456
95317W        W60797  44.990   5.207   2.400
95318W        W60798  34.614  18.776   3.228
95319W        W60799  36.526  21.112   9.946
95320W        W60800  36.377  15.600  10.537
95321W        W60801  30.598  17.258   4.249
95322W        W60802  25.002  43.425   1.351
95323W        W60803  43.317  32.603  10.496
95324W        W60804   6.730  13.251   0.299
95325W        W60805  37.997   4.753  11.594
95326W        W60806   7.278   3.328   0.744
95327W        W60807   0.882  18.050   5.296
95328W        W60808  30.596   6.311   2.365
95329W        W60809  24.530  24.703  12.462
95330W        W60810  19.211  17.581   3.327
95331W        W60811  37.011  28.994   3.848
95332W        W60812  25.088  16.801   4.128
95333W        W60813   5.740  16.676  13.454
95334W        W60814  28.135  15.215   4.640
95335W        W60815  44.411  22.061   1.894
95336W        W60816  10.192  24.031  11.399
95337W        W60817   5.199  18.234   1.310
95338W        W60818  38.978   7.678  10.511
95339W        W60819   8.874  20.558   1.730
95340W        W60820  33.518  16.097   2.872
95341W        W60821  29.473   7.403   2.824
95342W        W60822  44.291  21.059   4.211
95343W        W60823  31.421   0.818  11.453
95344W        W60824  41.315  44.826   0.419
95345W        W60825  35.006  19.273   1.321
95346W        W60826  26.968  37.867  10.451
95347W        W60827   2.250  41.040   2.777
95348W        W60828   9.721  17.626   1.284
95349W        W60829  38.910   2.386   0.936
95350W        W60830  25.498  27.487  10.573
95351W        W60831  20.130  16.077   3.826
95352W        W60832  33.074  44.491  14.478
95353W        W60833  34.000  21.124   4.317
95354W        W60834  21.046  28.144   3.804
95355W        W60835  14.638  24.153   2.177
95356W        W60836  14.705  13.795   2.794
95357W        W60837  42.477  41.484   1.246
95358W        W60838  21.758   4.732   4.208
95359W        W60839  14.641   4.432  10.639
95360W        W60840  19.679  13.342  12.394
95361W        W60841  25.675  25.161  11.983
95362W        W60842   9.336  30.962  10.524
95363W        W60843  15.268   4.824  10.491
95364W        W60844   4.941  13.281  11.935
95365W        W60845  20.751  29.029   0.272
95366W        W60846   5.202   6.242  14.456
95367W        W60847   4.406  24.086   3.376
95368W        W60848  33.464   8.656  14.833
95369W        W60849  19.573  18.565  12.559
95370W        W60850  35.103  12.850   3.336
95371W        W60851  30.626  38.343  14.002
95372W        W60852  27.479  33.010   4.274
95373W        W60853  19.663   7.875  13.326
95374W        W60854  21.151   4.867   1.832
95375W        W60855   2.952  32.110   0.357
95376W        W60856  12.142  17.632  11.071
95377W        W60857   2.879   4.838   0.274
95378W        W60858  26.164  25.152  13.053
95379W        W60859   5.355  19.671   4.314
95380W        W60860  31.589  12.135  13.808
95381W        W60861  37.468   3.451   4.243
95382W        W60862  23.516  37.570   2.862
95383W        W60863   9.273  11.340   3.165
95384W        W60864  15.163  24.188   4.695
95385W        W60865  37.065   8.231   1.224
95386W        W60866  44.387  19.672   2.700
95387W        W60867  23.174  23.503   2.885
95388W        W60868  39.437  26.209  13.408
95389W        W60869   1.917  17.748  12.568
95390W        W60870  39.334  43.325  12.841
95391W        W60871  21.569  29.655  13.509
95392W        W60872  40.842  21.249   4.635
95393W        W60873  38.826  42.408   4.779
95394W        W60874  39.368   0.800  12.408
95395W        W60875  31.020   1.896   9.924
95396W        W60876  23.590  21.202  14.875
95397W        W60877  17.140   4.304   1.818
95398W        W60878  41.856  37.540  14.795
95399W        W60879  37.336  31.045  12.013
95400W        W60880  32.422   4.374  10.964
95401W        W60881   6.381  30.560   4.766
95402W        W60882  31.408  43.425   1.311
95403W        W60883  38.416   7.193  13.036
95404W        W60884  31.069   1.432  13.376
95405W        W60885  34.037  29.117  12.568
95406W        W60886  43.329  23.517  12.895
95407W        W60887  20.164  14.299  12.967
95408W        W60888  39.920   2.812   2.258
95409W        W60889  38.057  25.026  13.309
95410W        W60890  16.091  30.634  12.541
95411W        W60891  23.030  21.623  13.834
95412W        W60892  42.987  25.206   3.853
95413W        W60893  35.444   4.214  11.958
95414W        W60894  24.560   5.272   3.278
95415W        W60895  30.978  29.058  12.907
95416W        W60896  25.615  40.460  12.945
95417W        W60897  34.409   1.735  13.042
95418W        W60898  28.184   0.957  14.352
95419W        W60899  23.561   8.183   3.299
95420W        W60900  17.061   6.370   1.264
95421W        W60901  17.683  38.513   3.753
95422W        W60902  13.337  30.588   3.704
95423W        W60903   6.694   3.909  13.939
95424W        W60904  34.481  40.032   0.402
95425W        W60905  32.138  29.166  12.575
95426W        W60906  32.624  10.724  11.446
95427W        W60907  12.267  21.643  10.449
95428W        W60908  15.116  16.076   4.761
95429W        W60909  37.946  20.675   2.882
95430W        W60910  36.008  14.685   1.446
95431W        W60911  37.568  41.884  13.398
95432W        W60912  31.597   3.230  13.351
95433W        W60913   6.796   1.820  11.534
95434W        W60914  13.821  15.637   4.267
95435W        W60915   0.327  19.556   3.291
95436W        W60916   2.912  30.415  12.369
95437W        W60917   6.682   3.280   1.311
95438W        W60918  25.692  30.602   4.175
95439W        W60919  39.818  18.074  11.605
95440W        W60920  42.418  31.926  10.019
95441W        W60921  25.701  20.093   4.610
95442W        W60922   6.831  27.679  12.893
95443W        W60923  33.887  42.910  13.415
95444W        W60924  21.034  30.658  12.551
95445W        W60925  19.647   6.817   4.220
95446W        W60926  38.355  38.460  11.926
95447W        W60927  19.625  13.277  12.079
95448W        W60928   7.406  13.241  11.495
95449W        W60929  42.883  31.931  14.991
95450W        W60930  44.334   5.364   3.710
95451W        W60931  21.109   9.160   2.230
95452W        W60932  25.999  23.690   4.621
95453W        W60933  24.696  40.317  13.310
95454W        W60934  38.477  29.508  10.530
95455W        W60935  28.983  15.798   4.342
95456W        W60936   6.832   7.673   1.733
95457W        W60937  25.692  33.435  13.904
95458W        W60938  19.283  29.966  12.902
95459W        W60939   6.775  28.595  11.894
95460W        W60940  24.597  29.480   1.386
95461W        W60941  14.695  38.518  11.427
95462W        W60942  19.083   9.243   0.912
95463W        W60943  18.687  36.400  11.444
95464W        W60944  33.069  40.883  14.802
95465W        W60945   0.757  40.809   1.925
95466W        W60946  25.553   5.866   0.787
95467W        W60947   4.702   3.378   4.734
95468W        W60948  29.589  30.074   1.857
95469W        W60949  11.216  13.774   2.843
95470W        W60950  28.616   6.751  13.821
95471W        W60951  38.339  13.150   3.207
95472W        W60952  15.780  41.300  12.381
95473W        W60953   6.258   4.779  14.977
95474W        W60954  13.336   1.731   3.767
95475W        W60955  21.155  14.306   1.765
95476W        W60956  42.907  16.796   4.188
95477W        W60957  39.354  19.732  14.489
95478W        W60958  18.554  33.993   1.933
95479W        W60959   7.779  22.673  11.379
95480W        W60960  37.515  12.226  11.496
95481W        W60961   9.171  16.642   2.391
95482W        W60962  10.779  40.326  13.988
95483W        W60963  31.026  24.137  10.561
95484W        W60964  27.615  37.888  13.006
95485W        W60965  32.924  42.012   1.387
95486W        W60966  22.200  18.559  14.884
95487W        W60967  40.380  27.055  14.294
95488W        W60968  29.978   6.891   2.326
95489W        W60969  37.903  13.148  12.048
95490W        W60970   9.391  18.188  11.432
95491W        W60971  11.845  32.995  10.550
95492W        W60972  19.680  21.203   0.267
95493W        W60973  11.769  21.171   5.282
95494W        W60974  12.648  19.643   0.789
95495W        W60975   7.353  26.192  14.810
95496W        W60976  15.276  42.995  11.483
95497W        W60977  20.718  36.504   0.407
95498W        W60978  16.682   9.683   0.440
95499W        W60979  14.590  32.036  10.898
95500W        W60980  12.225   4.877   3.711
95501W        W60981  37.883  17.715  12.989
95502W        W60982  29.611   1.821   2.822
95503W        W60983  16.570  34.591  14.337
95504W        W60984  21.152  32.917   9.962
95505W        W60985  37.433  32.435  10.618
95506W        W60986   6.374  36.932   4.124
95507W        W60987  39.980  16.746   4.751
95508W        W60988  39.495   8.881  11.497
95509W        W60989   9.812  15.278   4.270
95510W        W60990  14.311  13.671  13.408
95511W        W60991   7.268  16.702   1.811
95512W        W60992  32.545   9.267   4.306
95513W        W60993  27.101  19.084   1.346
95514W        W60994  39.961  37.510   9.967
95515W        W60995  18.582  10.184  12.993
95516W        W60996  29.554  31.542  12.480
95517W        W60997  39.923   0.386  10.642
95518W        W60998  19.632   9.346  13.841
95519W        W60999   8.893   9.385   2.328
95520W        W61000  10.176  42.914  11.554
95521W        W61001   1.751  38.344   4.678
95522W        W61002  14.728  11.285   5.277
95523W        W61003  28.929  30.598  13.988
95524W        W61004  12.282  11.661   2.377
95525W        W61005  38.877  10.354   4.608
95526W        W61006  26.496  37.518   5.145
95527W        W61007  40.393   5.714   0.376
95528W        W61008  13.674   7.256   4.118
95529W        W61009  16.304  18.273  14.365
95530W        W61010  10.815  32.123   0.439
95531W        W61011   4.915  44.467  13.390
95532W        W61012  17.132  11.848  13.935
95533W        W61013  13.150   4.831   0.464
95534W        W61014  10.383   2.856  11.465
95535W        W61015  24.505  39.031   4.294
95536W        W61016  38.881  13.155   0.796
95537W        W61017  30.960  24.714   1.880
95538W        W61018  13.834   2.407   1.275
95539W        W61019  10.770  24.149  14.398
95540W        W61020   2.859  10.712  11.914
95541W        W61021   5.706  38.829  12.523
95542W        W61022  26.101  28.121  11.911
95543W        W61023  15.672   0.892   3.231
95544W        W61024   5.791   1.950   4.157
95545W        W61025  16.280   9.281  13.514
95546W        W61026   7.229   4.373   0.845
95547W        W61027   7.365  18.208   4.210
95548W        W61028   0.339   9.685  11.925
95549W        W61029   2.462  11.294   0.926
95550W        W61030  18.783  36.507  14.356
95551W        W61031  36.046  40.402   0.728
95552W        W61032  38.329  11.141   3.799
95553W        W61033  44.436  42.403  13.017
95554W        W61034  40.894  28.583   2.266
95555W        W61035  35.052  36.951   3.223
95556W        W61036   2.855  10.347   0.864
95557W        W61037  42.883  44.008  12.368
95558W        W61038  37.850  20.093  13.944
95559W        W61039  12.633  20.112   1.401
95560W        W61040  15.163  20.267  11.028
95561W        W61041   5.198   5.348   1.400
95562W        W61042  20.048  11.138  13.389
95563W        W61043   8.792  22.177  11.997
95564W        W61044  32.469  38.480   1.397
95565W        W61045   5.899  41.800  10.573
95566W        W61046  19.214  23.068  14.878
95567W        W61047  24.533  43.982   4.694
95568W        W61048  25.658  43.442  10.561
95569W        W61049  13.105  30.543   9.950
95570W        W61050  36.995   2.900  14.983
95571W        W61051  21.681   5.819   3.300
95572W        W61052  35.887  25.581   2.357
95573W        W61053  26.987  42.843  14.797
95574W        W61054  28.600  12.653   4.156
95575W        W61055  23.004  42.926   4.275
95576W        W61056  42.471  28.168   2.882
95577W        W61057   0.313  13.627   4.264
95578W        W61058  41.513  27.102  13.448
95579W        W61059  25.635   6.334  10.001
95580W        W61060   0.288  12.332   4.710
95581W        W61061   9.191  31.528  13.496
95582W        W61062  31.899  15.801  14.812
95583W        W61063  35.058  39.937  13.445
95584W        W61064   8.874  42.783   1.935
95585W        W61065  30.908  29.100   3.200
95586W        W61066  11.346  21.037  12.845
95587W        W61067  41.959   5.772   0.377
95588W        W61068   4.868  17.283   4.764
95589W        W61069   2.272  29.501  13.800
95590W        W61070   4.806  32.116   1.910
95591W        W61071  23.533  16.766   2.210
95592W        W61072   2.353  38.915   9.931
95593W        W61073  24.617  25.103   3.831
95594W        W61074  15.693  10.823   2.266
95595W        W61075  19.622  26.639  10.628
95596W        W61076  25.038   0.952  11.079
95597W        W61077   3.930  16.189  14.819
95598W        W61078  11.285   6.311   4.172
95599W        W61079  34.061  36.354  10.466
95600W        W61080  37.569  28.131   1.919
95601W        W61081   3.779  39.409   0.423
95602W        W61082  25.696   6.307  11.928
95603W        W61083  10.764  29.980  13.937
95604W        W61084  32.457  25.555   4.727
95605W        W61085  17.095  22.116   2.255
95606W        W61086  14.195  34.575  14.866
95607W        W61087  42.814  36.392  14.374
95608W        W61088  10.869  12.615  10.933
95609W        W61089  20.751   2.941  12.386
95610W        W61090   1.466  26.619  11.561
95611W        W61091  28.439  30.068  10.563
95612W        W61092  42.295   2.927   1.883
95613W        W61093   3.402   5.405   4.129
95614W        W61094   0.374   9.677   2.866
95615W        W61095  21.042  41.488  10.154
95616W        W61096  44.889  16.085   4.816
95617W        W61097   6.375  26.099   3.269
95618W        W61098   1.840  31.150  12.848
95619W        W61099  29.653  35.907  14.508
95620W        W61100  15.584   7.791   5.216
95621W        W61101  26.067   7.801   3.302
95622W        W61102  40.998   8.739  11.868
95623W        W61103   5.809  40.901   3.697
95624W        W61104  39.901  41.538   1.243
95625W        W61105   4.291  30.625  13.416
95626W        W61106  18.738  30.561   1.832
95627W        W61107  34.524  29.554   2.861
95628W        W61108  40.516  42.837  12.572
95629W        W61109   1.750  37.438   3.379
95630W        W61110  40.856  24.196   2.726
95631W        W61111  24.636   9.819   3.794
95632W        W61112  43.864  14.796  13.879
95633W        W61113  27.167  34.082  10.933
95634W        W61114   0.804  10.720  10.956
95635W        W61115  39.376  32.587  13.355
95636W        W61116   9.857  30.991  12.876
95637W        W61117  39.492  33.970   4.211
95638W        W61118  28.564  39.419  10.052
95639W        W61119  31.542   3.427  14.882
95640W        W61120  37.995  12.816   3.671
95641W        W61121  28.941  24.706  12.055
95642W        W61122  12.732  19.582  11.572
95643W        W61123  21.577  41.516  11.600
95644W        W61124  43.994  12.844  10.972
95645W        W61125  40.389   3.374  11.543
95646W        W61126  31.507  40.417   3.827
95647W        W61127   5.384  15.139   1.793
95648W        W61128  27.940  20.097   4.159
95649W        W61129  24.163   4.902   4.158
95650W        W61130  43.825   7.875   0.479
95651W        W61131  30.913  19.165   2.204
95652W        W61132  20.606   9.889   4.232
95653W        W61133   5.925   1.898  11.917
95654W        W61134   2.775  18.124  10.583
95655W        W61135  16.136  31.099  10.963
95656W        W61136  36.508  26.100  12.380
95657W        W61137  23.201   8.778   3.865
95658W        W61138  28.445  10.837  10.408
95659W        W61139  42.990  40.909  12.369
95660W        W61140   9.657   5.427   3.191
95661W        W61141  10.177  27.112   0.393
95662W        W61142  36.426  25.999  10.411
95663W        W61143   5.829  25.212   1.224
95664W        W61144  44.963   7.680  12.079
95665W        W61145  34.425  33.589  12.452
95666W        W61146  13.741   4.343   2.693
95667W        W61147  39.353  36.941   3.385
95668W        W61148   5.715   7.292   0.419
95669W        W61149   4.768  18.134  12.578
95670W        W61150  39.413  23.595  14.478
95671W        W61151  15.690   4.780  14.315
95672W        W61152   9.395  39.929  11.992
95673W        W61153  18.266  21.614   2.280
95674W        W61154  35.563  41.010   3.233
95675W        W61155  14.682  43.348  11.908
95676W        W61156  25.163   4.817  14.810
95677W        W61157  14.663  22.619  10.576
95678W        W61158  24.603   5.913   3.197
95679W        W61159  39.875  25.081   3.230
95680W        W61160  27.190  44.383  11.047
95681W        W61161  38.966  15.245  10.635
95682W        W61162   2.921  32.979   0.790
95683W        W61163   1.795  30.573  13.791
95684W        W61164  29.610  13.713  14.471
95685W        W61165   0.292  36.359  14.933
95686W        W61166  33.504  16.651   1.918
95687W        W61167  15.642  12.291   1.267
95688W        W61168  10.773  36.515  13.942
95689W        W61169   2.405   2.336  13.023
95690W        W61170  43.869   7.756  12.559
95691W        W61171  26.584  34.579  14.339
95692W        W61172  15.726  43.377   3.681
95693W        W61173  38.424   0.384   4.214
95694W        W61174  25.036   1.376   2.883
95695W        W61175  37.081  41.917   3.673
95696W        W61176  25.999  10.638  13.953
95697W        W61177  34.120  17.592   3.308
95698W        W61178  18.237  28.575   4.686
95699W        W61179   1.770   3.888   0.282
95700W        W61180   6.223   4.293   3.716
95701W        W61181   7.223   0.793   2.714
95702W        W61182  43.274  44.876   3.759
95703W        W61183  21.576   9.700  12.970
95704W        W61184   2.441  30.511   1.859
95705W        W61185  16.567  42.945  12.905
95706W        W61186  21.125  41.874  10.555
95707W        W61187  29.028  36.569  11.498
95708W        W61188   4.843  24.524  10.899
95709W        W61189  15.112  20.732  13.844
95710W        W61190  27.032   3.302   1.798
95711W        W61191   8.273  10.379  11.920
95712W        W61192  14.218  37.353   5.292
95713W        W61193  29.031  43.357  11.482
95714W        W61194  31.151  15.261   2.824
95715W        W61195   3.826  34.371  13.407
95716W        W61196  22.733  32.433  13.886
95717W        W61197  15.163  42.812  10.516
95718W        W61198   0.321   6.872  10.575
95719W        W61199  26.011   7.733  13.983
95720W        W61200   0.285  13.761  14.965
95721W        W61201  16.656  27.947   4.739
95722W        W61202  10.209   1.400   4.706
95723W        W61203  29.029  16.758   1.285
95724W        W61204  28.007  20.133   1.366
95725W        W61205  18.633  41.493  14.972
95726W        W61206  43.824  43.961  12.906
95727W        W61207   8.187  26.513  12.033
95728W        W61208  15.247  43.352  13.548
95729W        W61209  18.723  20.080   3.712
95730W        W61210   8.379   9.711  14.487
95731W        W61211   2.800   7.362   4.289
95732W        W61212  22.243   2.429  13.472
95733W        W61213  43.414   2.446   4.690
95734W        W61214  40.433  27.994  11.515
95735W        W61215  28.068  18.102   3.327
95736W        W61216   2.874  35.447   1.253
95737W        W61217  19.635  26.046   1.798
95738W        W61218  17.680  31.149  14.304
95739W        W61219  22.703   8.319  13.472
95740W        W61220  43.768  21.060   4.225
95741W        W61221  21.659  16.130   1.913
95742W        W61222   0.965  38.442  13.355
95743W        W61223  39.037  13.178   3.168
95744W        W61224  10.235  31.579  11.103
95745W        W61225  32.998  39.371  13.947
95746W        W61226  10.826  28.016   1.862
95747W        W61227  28.101  34.564  13.331
95748W        W61228  41.369  44.415  13.858
95749W        W61229  32.427  27.627   2.724
95750W        W61230  20.654   3.859  10.627
95751W        W61231  12.632  18.569   4.220
95752W        W61232  14.340  13.677  11.976
95753W        W61233  31.536  43.487  10.581
95754W        W61234  23.985   2.426  14.829
95755W        W61235  41.015  40.347   2.302
95756W        W61236  10.809   6.693  13.026
95757W        W61237  14.211  41.370  10.150
95758W        W61238  40.545  22.019   4.353
95759W        W61239   4.897   8.855   5.296
95760W        W61240  14.601  41.001  10.966
95761W        W61241  34.599   2.245  11.107
95762W        W61242  23.113   9.214   0.907
95763W        W61243  23.172  30.599   2.237
95764W        W61244   7.816  11.140  10.430
95765W        W61245  43.358  41.987  11.610
95766W        W61246  29.044   0.290   0.384
95767W        W61247  41.506  25.526   4.294
95768W        W61248  43.507   7.323   4.682
95769W        W61249   4.907  37.983   2.267
95770W        W61250  39.373  41.964  13.981
95771W        W61251  35.396  27.642   1.294
95772W        W61252  34.911  27.648  14.481
95773W        W61253  20.604  34.583  14.797
95774W        W61254   8.719   4.292   3.795
95775W        W61255  33.983  25.058   4.245
95776W        W61256  16.105  44.779  14.908
95777W        W61257  10.292  26.555   4.340
95778W        W61258  24.158   3.312   1.847
95779W        W61259  27.945  14.310   2.834
95780W        W61260  28.471  38.888  13.866
95781W        W61261  27.677  41.337   1.291
95782W        W61262  28.040   6.279   3.209
95783W        W61263   2.356  13.214  10.540
95784W        W61264  11.763  13.741   4.354
95785W        W61265  23.720  41.530   0.258
95786W        W61266   6.218  44.383   0.765
95787W        W61267  32.630  13.690  13.007
95788W        W61268  39.966   4.929  13.416
95789W        W61269  42.472   5.791  11.551
95790W        W61270  42.462   0.832   3.687
95791W        W61271   6.677  37.039   2.412
95792W        W61272  40.491  13.712   1.895
95793W        W61273  41.965  35.588   0.260
95794W        W61274   9.782  17.102  13.849
95795W        W61275  37.004  21.672  13.963
95796W        W61276  20.127   5.904  12.527
95797W        W61277  13.628   5.888  14.799
95798W        W61278  24.101  20.110   2.764
95799W        W61279  17.202   9.325   1.782
95800W        W61280  23.081   6.189  12.573
95801W        W61281  33.524  11.157  13.319
95802W        W61282  42.840  11.282   1.380
95803W        W61283  36.562  14.605   3.698
95804W        W61284   5.225  12.642  11.606
95805W        W61285   3.947  39.538   1.415
95806W        W61286  18.122  38.451  13.824
95807W        W61287  37.371  34.479   0.345
95808W        W61288   4.405  13.193  11.004
95809W        W61289  31.986  14.132  11.889
95810W        W61290  21.600  27.652   0.964
95811W        W61291  21.247  35.493   3.316
95812W        W61292  32.114  36.379  13.346
95813W        W61293   6.679   4.944  14.380
95814W        W61294  23.702  30.421  14.388
95815W        W61295  27.045  15.320   1.836
95816W        W61296  38.988  41.986  13.808
95817W        W61297  41.443  14.640   1.702
95818W        W61298  25.079  27.458   4.639
95819W        W61299  35.417   9.765   3.808
95820W        W61300  39.545   5.696   1.230
95821W        W61301  13.638  30.643  11.559
95822W        W61302  21.030  42.898  13.808
95823W        W61303   8.695  30.931   0.894
95824W        W61304  22.073   5.925  12.082
95825W        W61305  32.950  42.505  11.088
95826W        W61306  40.935   7.327  14.804
95827W        W61307  39.986  21.222  12.573
95828W        W61308  36.973  18.174   1.303
95829W        W61309   1.766  16.198   2.205
95830W        W61310  25.546  18.293   2.257
95831W        W61311  16.104  34.502  14.481
95832W        W61312  44.915   6.247  11.531
95833W        W61313  34.390   1.840  14.422
95834W        W61314   8.288  10.710   2.749
95835W        W61315   4.849  21.715   4.654
95836W        W61316  36.957  24.630   3.189
95837W        W61317  15.125  25.160   1.405
95838W        W61318  14.107  26.481  14.277
95839W        W61319  44.442   9.363  12.349
95840W        W61320   5.374  35.060   4.148
95841W        W61321   3.884  40.396  14.984
95842W        W61322  18.210   0.851   1.297
95843W        W61323  17.583   6.355   0.756
95844W        W61324  20.704  23.051  14.017
95845W        W61325  18.116  25.569  14.391
95846W        W61326  34.570  37.831   2.395
95847W        W61327   6.263  38.375  10.438
95848W        W61328  18.710  35.067  12.026
95849W        W61329  38.384  17.206   1.711
95850W        W61330  37.442  32.922   2.244
95851W        W61331   7.768   2.749   1.872
95852W        W61332  23.542  15.137   4.703
95853W        W61333  17.143  43.011   3.819
95854W        W61334  37.037  26.615   0.912
95855W        W61335  23.633  30.930   4.351
95856W        W61336   9.239  36.376   1.753
95857W        W61337  15.209  36.068   3.331
95858W        W61338  14.622  26.037  14.798
95859W        W61339   2.310  28.105   4.641
95860W        W61340   1.373   2.946  11.963
95861W        W61341   2.964   2.817   2.282
95862W        W61342  16.775  44.815   0.304
95863W        W61343  14.222   5.896  14.504
95864W        W61344  21.103  43.406  11.528
95865W        W61345  28.520  28.007   0.870
95866W        W61346  38.566  21.229   3.811
95867W        W61347  35.978  17.298   3.826
95868W        W61348  23.017   8.832  11.922
95869W        W61349  29.156  22.502  12.497
95870W        W61350  22.601  13.258  14.328
95871W        W61351  25.692  28.989  14.974
95872W        W61352  26.956  19.673   0.442
95873W        W61353   0.916  29.056  11.065
95874W        W61354  42.867   8.178   2.283
95875W        W61355   3.247   5.749  12.469
95876W        W61356  24.078   6.875  11.981
95877W        W61357  43.002  27.470  12.498
95878W        W61358  40.849  13.188  11.465
95879W        W61359  35.454  19.251  10.504
95880W        W61360  12.852  30.022  13.981
95881W        W61361  29.933   1.241  10.902
95882W        W61362   1.846  26.998  12.494
95883W        W61363  44.310  12.320   2.232
95884W        W61364  38.956  33.502   2.837
95885W        W61365  27.586   5.916  14.852
95886W        W61366   3.319   4.418  13.428
95887W        W61367   3.407  23.608   0.324
95888W        W61368   5.772  25.589  12.497
95889W        W61369   1.239   8.182   1.264
95890W        W61370  37.449   0.378   3.652
95891W        W61371  20.123  44.502   3.815
95892W        W61372  41.861  24.638  11.552
95893W        W61373   6.230   4.738  11.926
95894W        W61374  10.326  15.672  12.995
95895W        W61375  23.728  34.380  10.641
95896W        W61376  41.896   6.371   5.769
95897W        W61377   0.903   6.823  14.792
95898W        W61378  43.838  36.495  13.999
95899W        W61379   2.786  44.325  11.863
95900W        W61380   8.342  33.504   3.743
95901W        W61381  17.239  38.850  11.372
95902W        W61382  24.020  33.994   2.353
95903W        W61383  13.241  37.056  14.403
95904W        W61384  20.260  18.056  13.450
95905W        W61385   7.771  40.424   0.926
95906W        W61386  28.047   5.230  14.999
95907W        W61387  15.135  26.518  10.593
95908W        W61388  25.169  44.957   2.206
95909W        W61389   2.334  26.608   3.325
95910W        W61390   3.228  36.419   4.253
95911W        W61391  36.010  27.518  12.456
95912W        W61392  25.552  37.541   4.801
95913W        W61393  21.069  30.632  13.957
95914W        W61394  19.261  37.947   0.729
95915W        W61395  27.084  14.631  14.382
95916W        W61396  38.902   9.232  13.960
95917W        W61397  31.129  42.981  12.007
95918W        W61398   9.857  18.295   1.217
95919W        W61399  15.181   1.942  11.023
95920W        W61400   3.375  37.364   9.929
95921W        W61401   2.802  36.495  13.962
95922W        W61402  25.050  10.222  12.057
95923W        W61403  22.685  42.966   0.402
95924W        W61404   9.834  13.199   2.833
95925W        W61405   4.256  39.868  13.948
95926W        W61406   3.387  42.307   0.253
95927W        W61407  27.494  22.632  12.068
95928W        W61408   2.801  29.027   1.291
95929W        W61409  44.922   6.232   1.853
95930W        W61410  21.569  10.725  11.946
95931W        W61411  18.254  14.621   2.316
95932W        W61412  44.416   4.369  10.464
95933W        W61413  13.263  18.193   5.093
95934W        W61414   7.335  36.937  13.969
95935W        W61415   9.756  27.027  10.900
95936W        W61416  36.044   7.674   4.316
95937W        W61417  41.468  21.221  12.965
95938W        W61418  22.587  28.030  13.828
95939W        W61419  32.571  19.168  11.420
95940W        W61420   6.720  40.373  11.918
95941W        W61421  31.556  36.063  10.913
95942W        W61422  20.169   8.797  13.851
95943W        W61423   9.867  33.398   0.478
95944W        W61424   9.729  22.092  12.449
95945W        W61425   4.415  21.587  12.887
95946W        W61426  41.439  34.494   3.826
95947W        W61427  40.479  30.932   3.666
95948W        W61428  11.190   0.885   1.735
95949W        W61429  20.045  25.594   5.111
95950W        W61430  36.563   5.419   0.448
95951W        W61431  20.105  36.387  10.631
95952W        W61432  28.114  27.064  14.502
95953W        W61433  10.234  28.462   2.370
95954W        W61434  13.712   4.778   1.783
95955W        W61435  19.728  11.664  14.910
95956W        W61436  28.122  12.759  12.958
95957W        W61437  24.507   9.847   4.119
95958W        W61438  29.992  15.282   1.448
95959W        W61439   6.676  17.182  11.052
95960W        W61440   1.439  42.007  10.629
95961W        W61441  33.127  40.402  12.934
95962W        W61442   8.804  36.921  14.447
95963W        W61443  36.009  27.497  11.415
95964W        W61444   8.283  13.765  11.502
95965W        W61445  44.262   0.469  11.108
95966W        W61446  23.562  31.438  14.487
95967W        W61447  15.322   2.827  11.929
95968W        W61448  19.063   6.187   0.908
95969W        W61449  26.528  17.111   3.652
95970W        W61450  41.841   3.438  11.967
95971W        W61451  21.235  44.491   0.923
95972W        W61452  26.060  40.947   3.700
95973W        W61453  28.156  25.613  13.884
95974W        W61454  13.835   3.286   2.307
95975W        W61455   3.316  19.086  14.875
95976W        W61456  32.472  12.214   2.820
95977W        W61457  42.490  30.434  14.514
95978W        W61458  15.145  16.613   9.973
95979W        W61459   5.809   7.320  11.468
95980W        W61460  34.548  21.054  10.588
95981W        W61461  13.725  29.973  14.449
95982W        W61462  27.631  35.496   4.213
95983W        W61463  27.161  12.276  14.887
95984W        W61464   5.693  25.624   0.438
95985W        W61465  23.548  36.360   0.464
95986W        W61466  18.705  27.155  13.450
95987W        W61467   5.392  17.693  12.494
95988W        W61468  25.039   6.361   4.719
95989W        W61469  26.542  42.893   1.302
95990W        W61470   3.746  29.455  10.585
95991W        W61471  19.768  28.934   2.867
95992W        W61472   3.894  25.694   1.824
95993W        W61473   0.484  16.155   3.651
95994W        W61474  21.667  24.216   1.863
95995W        W61475  42.810  42.474  11.875
95996W        W61476  43.936  12.192   3.670
95997W        W61477  15.287   1.812   2.792
95998W        W61478   0.275  14.157   2.808
95999W        W61479  20.085   7.702  12.887
96000W        W61480   5.810  36.926  12.908
96001W        W61481  26.657  11.770  12.025
96002W        W61482  32.072  33.406   2.318
96003W        W61483  37.352  44.465  14.371
96004W        W61484  31.620  30.487  12.486
96005W        W61485  39.052  13.207   4.658
96006W        W61486  21.176  14.636   1.432
96007W        W61487  20.251  24.196  13.879
96008W        W61488  28.660  17.611   4.148
96009W        W61489   9.882  38.892   4.143
96010W        W61490  11.177  16.613   4.146
96011W        W61491  28.442   8.674  12.077
96012W        W61492  20.550  44.951  13.023
96013W        W61493   9.180  19.578   2.679
96014W        W61494  19.235  39.018  12.042
96015W        W61495  40.973  30.063  13.035
96016W        W61496  24.137   1.955  12.958
96017W        W61497  27.961  10.312  11.964
96018W        W61498   7.762  23.690  12.852
96019W        W61499  30.630  23.101  12.344
96020W        W61500  42.824   4.878  11.584
96021W        W61501  11.718  21.221  11.420
96022W        W61502  42.491  23.181  14.814
96023W        W61503  40.836  39.461  12.486
96024W        W61504   2.843  35.448  13.965
96025W        W61505  39.968  39.827   4.700
96026W        W61506  10.287  38.524  14.957
96027W        W61507  42.025  31.614  14.301
96028W        W61508   2.328   9.741   0.274
96029W        W61509  28.638   0.449   3.788
96030W        W61510  39.365  43.779   3.699
96031W        W61511   1.449   3.926  14.870
96032W        W61512  42.523  36.073   1.750
96033W        W61513   1.308  10.752  10.889
96034W        W61514  39.053  24.565   1.232
96035W        W61515  37.557  22.202   2.747
96036W        W61516  38.436  43.926   4.240
96037W        W61517  27.000  38.980   1.376
96038W        W61518  33.571  13.344  12.403
96039W        W61519   8.684   4.368  14.794
96040W        W61520  25.579  43.919  12.011
96041W        W61521  28.474  17.701   2.269
96042W        W61522  42.850  14.115   3.684
96043W        W61523  43.310  33.417   2.856
96044W        W61524  17.631   6.676   3.245
96045W        W61525   5.199  26.691   2.314
96046W        W61526  35.916  12.136   0.442
96047W        W61527  18.635   9.817  14.861
96048W        W61528  42.310  36.977   0.320
96049W        W61529  16.249  39.845  14.796
96050W        W61530  38.509  18.616  10.951
96051W        W61531  38.005  21.099  14.856
96052W        W61532   9.324  11.129   0.371
96053W        W61533   6.869  17.578  11.071
96054W        W61534  18.707  31.921  12.941
96055W        W61535  14.675  16.118   0.758
96056W        W61536  31.917   3.881   1.928
96057W        W61537   5.298  12.121   4.598
96058W        W61538  13.285  38.040  11.450
96059W        W61539  17.750  29.454   3.783
96060W        W61540  37.906   4.336   2.204
96061W        W61541  19.071  18.674   3.806
96062W        W61542   1.297   3.838  13.036
96063W        W61543  38.364  14.642  12.365
96064W        W61544   2.391  12.803  13.017
96065W        W61545  36.948   8.712   4.227
96066W        W61546   7.349  33.108  13.509
96067W        W61547  31.637  31.593   3.709
96068W        W61548   6.829  36.993  13.931
96069W        W61549  29.068  10.289   4.691
96070W        W61550  21.199  12.825  13.425
96071W        W61551  14.158   0.285   3.287
96072W        W61552  31.148  35.547  10.470
96073W        W61553  32.044  31.600  10.982
96074W        W61554  28.025  19.590   0.439
96075W        W61555   7.876  21.253  13.999
96076W        W61556  23.549   9.875  14.494
96077W        W61557   8.782   0.400  13.958
96078W        W61558  40.893  41.485  14.414
96079W        W61559   4.862   5.899  13.024
96080W        W61560   4.226  28.042  14.283
96081W        W61561  18.283   6.368  12.573
96082W        W61562  14.608   3.891   2.230
96083W        W61563   9.882   2.280  13.827
96084W        W61564   4.364   5.837   0.771
96085W        W61565   8.261   6.876   1.355
96086W        W61566  22.198  26.997   0.476
96087W        W61567   9.261  17.082   2.830
96088W        W61568  30.055  25.668   1.810
96089W        W61569  16.602  34.994   4.316
96090W        W61570  23.230  42.945  13.311
96091W        W61571  37.456  19.704  11.375
96092W        W61572  28.150   4.381   4.215
96093W        W61573  38.562   7.257  12.406
96094W        W61574  25.585  30.110   2.729
96095W        W61575   9.797  21.594   3.760
96096W        W61576  41.509  18.149  12.475
96097W        W61577  30.913  14.742   0.326
96098W        W61578  36.074  23.095   3.860
96099W        W61579  37.953  31.954   1.844
96100W        W61580  39.971  32.464  10.560
96101W        W61581  21.208  16.771   2.217
96102W        W61582  16.246  17.180  11.442
96103W        W61583  36.509  23.023  14.454
96104W        W61584  17.635  22.704   2.679
96105W        W61585   0.895  21.118   1.698
96106W        W61586  27.467  24.185   2.684
96107W        W61587  29.140  22.057   3.833
96108W        W61588  15.765  43.399   5.142
96109W        W61589   9.275  28.571   0.453
96110W        W61590  42.383  20.156  12.460
96111W        W61591  41.362  15.191   1.300
96112W        W61592  19.182  31.645  14.027
96113W        W61593  35.962  20.617   0.321
96114W        W61594  39.893  14.305   1.339
96115W        W61595  38.039  32.592   4.815
96116W        W61596  14.207  29.024  12.459
96117W        W61597  41.474  32.997   4.223
96118W        W61598  10.802  19.638   4.649
96119W        W61599   1.961  36.352   4.201
96120W        W61600  43.304  23.194   1.876
96121W        W61601  32.138  18.695  12.370
96122W        W61602   9.889  22.701  12.843
96123W        W61603  26.457  15.306   0.857
96124W        W61604   1.941  11.673   0.776
96125W        W61605   9.218  20.660  14.768
96126W        W61606  29.581  29.924   2.322
96127W        W61607  34.396   9.383   1.293
96128W        W61608  28.116  15.109   4.297
96129W        W61609  25.550  40.474   1.350
96130W        W61610  12.217   4.365  11.862
96131W        W61611  34.865   4.900   1.890
96132W        W61612  27.593  19.260  11.597
96133W        W61613   4.745   8.710   3.243
96134W        W61614  40.026  13.321  11.045
96135W        W61615  19.592   1.947  12.880
96136W        W61616   1.476  33.456  14.837
96137W        W61617  22.238  25.521   2.304
96138W        W61618  10.255  41.787  10.935
96139W        W61619   2.791  23.537   4.732
96140W        W61620  34.604  24.995   0.887
96141W        W61621  12.359   7.740  11.461
96142W        W61622  35.539  27.511  10.590
96143W        W61623  43.835  12.121  13.897
96144W        W61624  29.588  14.616   0.754
96145W        W61625   7.819  43.811   1.268
96146W        W61626  37.482  24.556  13.869
96147W        W61627   4.250  41.840  11.449
96148W        W61628  33.405   7.318   0.923
96149W        W61629   0.379   8.186  14.407
96150W        W61630  35.432   5.282   3.784
96151W        W61631  30.992  41.357   0.309
96152W        W61632  12.725  10.188   4.195
96153W        W61633  10.749  27.084   3.838
96154W        W61634  21.674   9.839   4.735
96155W        W61635  25.512  29.587   5.090
96156W        W61636  15.167  20.178  12.367
96157W        W61637  39.516  12.628  10.616
96158W        W61638  44.459  37.543  13.394
96159W        W61639  15.109   5.323  12.035
96160W        W61640  44.823   8.682   1.785
96161W        W61641  18.189  30.150   3.758
96162W        W61642  44.473  25.034  11.433
96163W        W61643   0.425  11.246   2.197
96164W        W61644  19.280  27.947  12.975
96165W        W61645  44.333   0.451  12.367
96166W        W61646  10.750  40.438   2.846
96167W        W61647  29.004  20.751   0.734
96168W        W61648  12.319  44.295  10.535
96169W        W61649   8.232  14.813  11.040
96170W        W61650  25.119   5.696  10.949
96171W        W61651  11.280   1.369  11.011
96172W        W61652  27.156   4.720   2.808
96173W        W61653   6.315  37.408   1.278
96174W        W61654  31.070  21.534   3.205
96175W        W61655  22.028   1.293   0.262
96176W        W61656  41.448  17.113  13.483
96177W        W61657  11.271  39.968   1.912
96178W        W61658  42.335  28.498  14.830
96179W        W61659  23.725  19.651  14.286
96180W        W61660  35.440  14.734  10.631
96181W        W61661  41.357  34.896  12.523
96182W        W61662  33.548   2.927  13.024
96183W        W61663  39.426  29.000  11.529
96184W        W61664   4.842  44.368   1.933
96185W        W61665  41.942  44.939  10.550
96186W        W61666  36.843  32.039  11.084
96187W        W61667  39.008  21.212  14.460
96188W        W61668   1.253  31.934   1.434
96189W        W61669  35.492  27.051   1.840
96190W        W61670  16.127  26.667   2.253
96191W        W61671  32.599  33.624  11.459
96192W        W61672  30.578  41.348   3.216
96193W        W61673  28.104  26.495   9.926
96194W        W61674  28.618  26.957   1.912
96195W        W61675  42.893  25.476  10.443
96196W        W61676  29.942  19.592  14.290
96197W        W61677  43.365  11.174   4.622
96198W        W61678  39.443  27.964  11.919
96199W        W61679  11.676  39.874  14.342
96200W        W61680  14.204  44.448  10.404
96201W        W61681  28.646   6.681  14.496
96202W        W61682  41.332  25.215  12.093
96203W        W61683  32.421  25.197   3.736
96204W        W61684  42.904  29.992   1.356
96205W        W61685  26.196  19.262   2.339
96206W        W61686   5.328  20.111   1.808
96207W        W61687  33.572  33.581   4.714
96208W        W61688   2.362  15.196   1.928
96209W        W61689   0.886  19.267  12.862
96210W        W61690  27.170  36.408   2.322
96211W        W61691  16.204   5.752  12.343
96212W        W61692  15.178  25.593   2.847
96213W        W61693  32.578   7.337   3.189
96214W        W61694  31.450  20.578  11.060
96215W        W61695  39.468  36.540   3.281
96216W        W61696  33.484  29.479  11.927
96217W        W61697  19.623  36.996   0.338
96218W        W61698   4.399  24.584   1.877
96219W        W61699  39.357  21.662  12.497
96220W        W61700  18.749   3.753  14.886
96221W        W61701   0.430  36.459  11.386
96222W        W61702  38.048   0.261   2.329
96223W        W61703  44.424  27.968   2.781
96224W        W61704  41.893  13.763   3.267
96225W        W61705  16.620  37.522  11.464
96226W        W61706  22.016  35.029  12.876
96227W        W61707  21.070   6.344   3.189
96228W        W61708  39.459   9.847  14.833
96229W        W61709  25.174   7.676   4.241
96230W        W61710  42.348   6.411   3.384
96231W        W61711  14.788   6.266  14.952
96232W        W61712  33.086  38.824   3.378
96233W        W61713  26.674  19.646   0.482
96234W        W61714  37.554  19.741   1.889
96235W        W61715  19.656  36.073  12.527
96236W        W61716   1.788  28.100   1.446
96237W        W61717  27.486  34.085   1.832
96238W        W61718  24.082  41.849   2.775
96239W        W61719  42.460  16.588  12.450
96240W        W61720  17.222  25.020  13.021
96241W        W61721  36.023  38.001  11.556
96242W        W61722  40.542  34.929   2.387
96243W        W61723  19.555  42.288   0.821
96244W        W61724  22.544   1.946  10.104
96245W        W61725  34.958  41.527  12.343
96246W        W61726  31.976   0.970   3.646
96247W        W61727   8.720  23.690  11.462
96248W        W61728  19.712  10.185  11.892
96249W        W61729  34.595   4.417   4.669
96250W        W61730  32.098  10.684  13.947
96251W        W61731   8.891  37.906   2.805
96252W        W61732  27.663  44.918  12.906
96253W        W61733  35.994   7.697  10.502
96254W        W61734  32.895   8.228   2.247
96255W        W61735  22.063  35.371   3.782
96256W        W61736  34.441  42.981   5.110
96257W        W61737  44.842  39.541   1.426
96258W        W61738  39.475  31.005   2.872
96259W        W61739  26.974  24.155  14.277
96260W        W61740  12.775  18.650  13.375
96261W        W61741  29.436   0.354  14.010
96262W        W61742   4.844   0.753   1.735
96263W        W61743  24.486   0.266   2.342
96264W        W61744  23.120  20.257   0.338
96265W        W61745   1.380  26.966   2.713
96266W        W61746   1.281   6.704   1.857
96267W        W61747  12.344  36.458  13.951
96268W        W61748  41.475   9.394  14.396
96269W        W61749  28.473  24.185  11.047
96270W        W61750  18.129  44.347   0.904
96271W        W61751  14.190  40.505   3.667
96272W        W61752  31.458   6.853  13.314
96273W        W61753  18.229  19.081  13.946
96274W        W61754  42.338  36.473   1.406
96275W        W61755  28.676   3.868   1.845
96276W        W61756  37.536   4.780  10.552
96277W        W61757   6.909  32.482  14.495
96278W        W61758  21.678  22.607   0.406
96279W        W61759  14.723  15.207   5.171
96280W        W61760  32.056   1.346  10.477
96281W        W61761   8.363  30.466   2.827
96282W        W61762  30.130  41.935   3.165
96283W        W61763  42.791  18.245   1.420
96284W        W61764  26.699  10.292   0.948
96285W        W61765  26.519  30.435  10.072
96286W        W61766  17.243  10.638  14.343
96287W        W61767  13.292  13.254  14.491
96288W        W61768  23.527  10.819   1.388
96289W        W61769   0.488  37.383   1.427
96290W        W61770  37.443  25.191  10.108
96291W        W61771  38.997   6.901   0.880
96292W        W61772  12.282   0.801  14.294
96293W        W61773   2.260  42.830  11.395
96294W        W61774  16.571  18.597  14.884
96295W        W61775   1.847  35.014   4.712
96296W        W61776  32.092  21.110  10.925
96297W        W61777  11.236  18.205  12.006
96298W        W61778  36.857  26.599  11.552
96299W        W61779   3.955  34.970  11.410
96300W        W61780  16.119  17.709  13.957
96301W        W61781  12.702  10.759   2.304
96302W        W61782  16.243  12.232  11.474
96303W        W61783  35.109  33.077  11.485
96304W        W61784   2.283  39.541   2.665
96305W        W61785   5.902   8.720  14.408
96306W        W61786  24.991  43.780   0.398
96307W        W61787  25.143  25.093  13.044
96308W        W61788  15.700   4.312   0.778
96309W        W61789  12.120  24.655   1.744
96310W        W61790  35.488  35.110   2.242
96311W        W61791  36.092  38.514  12.576
96312W        W61792  33.042   2.375   0.314
96313W        W61793  43.326  41.034   4.180
96314W        W61794  37.065  42.409  12.370
96315W        W61795  32.101  39.988  13.928
96316W        W61796  26.644  38.464   0.800
96317W        W61797  25.482  41.006  13.537
96318W        W61798  26.144  19.570   3.741
96319W        W61799   3.902  15.669   2.250
96320W        W61800   2.818  21.132   1.246
96321W        W61801   4.736  17.777   1.313
96322W        W61802  30.134  27.120   1.931
96323W        W61803   4.300   6.776   1.225
96324W        W61804   1.811  43.514   2.824
96325W        W61805  17.562  24.065  12.059
96326W        W61806  42.984  30.611   2.847
96327W        W61807  27.046  27.508  11.876
96328W        W61808  22.209  36.467  13.853
96329W        W61809   2.901  11.238   2.258
96330W        W61810  25.630  40.019  10.555
96331W        W61811  12.136  10.768  10.999
96332W        W61812   7.210  26.638  13.891
96333W        W61813  25.468  38.467   2.726
96334W        W61814   1.247  38.493   0.341
96335W        W61815  44.931  35.063  11.468
96336W        W61816  14.295   7.238   2.727
96337W        W61817  39.992  20.039   3.160
96338W        W61818  26.967  12.728  12.043
96339W        W61819  44.760  34.069  11.937
96340W        W61820  26.609   9.651  13.371
96341W        W61821  16.655   8.667  12.879
96342W        W61822  34.437  44.903   4.206
96343W        W61823  31.083  19.613   0.459
96344W        W61824  13.757  29.093  12.080
96345W        W61825   9.240  10.288  14.360
96346W        W61826   7.867   9.855  11.941
96347W        W61827  23.701  24.536  11.898
96348W        W61828  35.436  14.610   2.791
96349W        W61829   0.284  10.867  12.061
96350W        W61830  37.848  37.360   2.354
96351W        W61831  37.852  33.406  13.899
96352W        W61832  21.744  42.962  14.787
96353W        W61833  29.540  31.581  11.032
96354W        W61834  42.334  33.007  14.832
96355W        W61835   1.339  42.953   2.389
96356W        W61836  42.914   9.750   2.744
96357W        W61837  38.981  11.304   4.601
96358W        W61838   2.233   0.490  13.968
96359W        W61839   0.307  37.886  11.396
96360W        W61840   0.974   0.387  11.101
96361W        W61841  32.558  13.619   3.371
96362W        W61842  25.559  16.291   4.115
96363W        W61843  32.476   2.268   1.850
96364W        W61844  41.841  10.160  12.994
96365W        W61845  33.525  21.544  11.577
96366W        W61846  39.066  11.297   5.242
96367W        W61847  42.947  24.684   4.676
96368W        W61848  43.412   3.409   2.759
96369W        W61849   8.884  17.132   2.893
96370W        W61850  16.136  26.655   0.942
96371W        W61851  42.789  41.943   2.385
96372W        W61852  33.028  19.695  11.000
96373W        W61853  18.639  40.418   2.755
96374W        W61854  33.455  32.917   1.398
96375W        W61855  30.489  41.499   4.749
96376W        W61856  31.563   6.382   4.280
96377W        W61857  16.080   6.728  15.000
96378W        W61858  42.862  20.254   1.296
96379W        W61859  44.939   1.350  12.426
96380W        W61860  26.104  42.482  11.558
96381W        W61861  42.962  38.478  14.499
96382W        W61862  30.009   6.911   0.388
96383W        W61863  20.537  43.352   2.259
96384W        W61864  39.335  20.050  11.920
96385W        W61865  37.861  34.524   3.273
96386W        W61866  35.109  35.012   4.193
96387W        W61867  16.229  25.030   1.324
96388W        W61868   3.397  42.010   0.311
96389W        W61869  11.127  14.147   4.164
96390W        W61870  29.438  36.571  14.886
96391W        W61871  34.018  16.581   2.231
96392W        W61872  26.584  13.183  11.924
96393W        W61873  23.587  27.947   1.340
96394W        W61874   9.382  24.571   3.269
96395W        W61875  21.681  39.531   3.351
96396W        W61876  30.432  27.650   2.891
96397W        W61877   8.162  28.009   3.210
96398W        W61878  33.550  25.575  11.402
96399W        W61879  19.744  40.935  12.500
96400W        W61880  18.125   3.291  11.457
96401W        W61881  31.022  43.330   3.351
96402W        W61882  38.406  20.738   2.856
96403W        W61883  36.541  15.662  10.108
96404W        W61884  27.555  24.606   4.655
96405W        W61885  10.771   5.732  12.047
96406W        W61886  25.028  26.621   5.289
96407W        W61887  29.577   2.468  14.976
96408W        W61888  39.553  20.113  11.481
96409W        W61889  24.643   8.699  10.107
96410W        W61890  24.663   6.242  12.983
96411W        W61891   0.325   3.302   1.756
96412W        W61892   3.815  10.370   0.308
96413W        W61893   2.315  26.629   9.947
96414W        W61894  24.680  24.973  14.318
96415W        W61895   4.875  15.148  13.541
96416W        W61896   4.849  27.677   3.211
96417W        W61897  21.065  41.320  12.085
96418W        W61898  19.061  17.640   2.186
96419W        W61899  21.704  28.453  12.839
96420W        W61900  35.011  14.228   4.732
96421W        W61901   8.220  38.962   4.710
96422W        W61902  27.951  24.577  12.486
96423W        W61903  24.087  23.221   0.932
96424W        W61904  21.068  23.616  10.115
96425W        W61905  10.838  44.343   2.775
96426W        W61906  27.548  24.522  11.961
96427W        W61907  37.539  10.313  10.520
96428W        W61908  30.592   6.804   0.840
96429W        W61909  10.851  25.697  12.446
96430W        W61910   0.784  14.210   4.720
96431W        W61911  17.238  10.874   0.351
96432W        W61912  44.410  31.117   2.818
96433W        W61913  32.940   9.740   0.928
96434W        W61914   9.699  16.749  11.404
96435W        W61915  24.071  12.727  11.444
96436W        W61916  43.306   8.771   1.239
96437W        W61917  22.183  15.804   1.742
96438W        W61918  36.961  43.950   3.648
96439W        W61919  16.742  43.393   0.839
96440W        W61920  29.650  20.760  13.866
96441W        W61921  24.507  35.526  12.350
96442W        W61922  21.076  22.656   3.860
96443W        W61923  36.950  27.517  14.906
96444W        W61924   2.931  25.096  10.954
96445W        W61925  44.924  15.310  14.372
96446W        W61926  13.786   4.322   3.749
96447W        W61927  42.996  39.955   2.796
96448W        W61928   6.370  15.271   2.408
96449W        W61929  35.394  30.430   3.315
96450W        W61930  22.700  26.581  10.104
96451W        W61931  11.649  12.273  12.428
96452W        W61932  31.968  39.365  13.931
96453W        W61933   2.947  38.000   0.783
96454W        W61934  40.529  40.395  13.540
96455W        W61935  16.800  34.041   2.846
96456W        W61936  37.936  32.466  14.868
96457W        W61937   1.743  44.796  12.466
96458W        W61938  36.497  43.474   0.871
96459W        W61939  11.198   2.249  10.516
96460W        W61940  37.445  32.113   2.395
96461W        W61941  32.948  28.114  12.083
96462W        W61942  41.513   5.249   5.246
96463W        W61943  17.180  14.266   3.262
96464W        W61944  11.217  38.329  12.955
96465W        W61945   2.727  19.098  14.479
96466W        W61946   2.282  20.223  10.583
96467W        W61947  15.239  23.175   2.758
96468W        W61948  38.969  14.743   0.826
96469W        W61949   9.704   9.156   1.450
96470W        W61950  35.481   5.257  14.794
96471W        W61951  21.187  41.838   2.802
96472W        W61952   2.756  43.354   2.870
96473W        W61953  38.889   5.285  12.541
96474W        W61954   0.436  11.318  12.073
96475W        W61955  10.836  21.511  12.021
96476W        W61956   6.794   8.888   1.364
96477W        W61957  25.180  28.094  11.937
96478W        W61958  36.862  17.077   4.156
96479W        W61959  41.529  34.884  14.458
96480W        W61960  18.086  35.933   4.631
96481W        W61961   1.319  26.203  13.994
96482W        W61962  14.248  23.702   1.282
96483W        W61963   4.723  16.120   4.297
96484W        W61964  16.087  20.212   4.165
96485W        W61965  31.476  12.791  11.964
96486W        W61966   3.863  40.925  14.830
96487W        W61967  10.277  12.649  10.455
96488W        W61968  32.503  32.448  14.023
96489W        W61969  28.644  16.314   4.275
96490W        W61970  18.085  32.414   1.729
96491W        W61971  23.048  31.522   1.335
96492W        W61972  16.096  13.677   2.687
96493W        W61973  21.680  36.526   0.852
96494W        W61974  11.805   0.918   2.360
96495W        W61975  39.827  21.571   0.804
96496W        W61976   2.816   5.382  11.558
96497W        W61977   0.977  39.989   0.956
96498W        W61978  31.079  18.749   0.727
96499W        W61979  22.527  27.689   2.663
96500W        W61980  17.635  32.630  10.552
96501W        W61981   1.919  31.555   0.875
96502W        W61982  39.509  29.586   3.358
96503W        W61983   2.437  32.412   2.221
96504W        W61984  30.072  24.703   0.292
96505W        W61985  18.658  36.368  14.796
96506W        W61986  38.475  24.042  11.023
96507W        W61987  35.437   2.340  12.994
96508W        W61988  13.689  44.829  13.372
96509W        W61989  22.044   8.366   2.285
96510W        W61990  21.201  38.846  13.489
96511W        W61991  11.762   0.455   0.244
96512W        W61992   2.326  35.994  10.528
96513W        W61993   4.935  12.263   0.317
96514W        W61994   9.773  13.346  11.512
96515W        W61995  39.414  19.633  14.784
96516W        W61996  23.117  11.342   4.285
96517W        W61997  29.464  27.014  11.093
96518W        W61998  22.204  30.432  13.024
96519W        W61999   2.859  23.657   4.283
96520W        W62000  23.002  23.180   2.724
96521W        W62001  25.174  10.345   1.304
96522W        W62002  23.691  23.170  13.812
96523W        W62003  44.410  42.497   3.188
96524W        W62004   7.204  38.015  14.013
96525W        W62005   2.441  27.615   1.419
96526W        W62006  39.006  15.255  11.544
96527W        W62007  41.475  21.655  13.434
96528W        W62008  18.708  29.075  13.443
96529W        W62009  18.226  18.110   2.849
96530W        W62010  43.868  13.143  10.612
96531W        W62011  10.842  23.584  12.476
96532W        W62012  43.370  14.651   1.212
96533W        W62013  33.920  18.128  11.116
96534W        W62014   0.797  29.948  13.530
96535W        W62015  17.722  25.000   2.683
96536W        W62016   0.304  26.115   1.254
96537W        W62017   5.303   1.289  11.981
96538W        W62018   8.169  19.735  14.379
96539W        W62019  31.578   4.851   3.683
96540W        W62020  32.406   7.183   1.825
96541W        W62021  34.395  18.132  11.057
96542W        W62022  34.974   0.482  14.822
96543W        W62023  36.062  31.046   3.787
96544W        W62024   8.672  22.588   3.779
96545W        W62025   7.831   8.880  10.612
96546W        W62026  15.696  40.329  12.063
96547W        W62027  29.654   2.331   0.809
96548W        W62028  20.257  38.482   2.728
96549W        W62029   4.797  30.530   1.844
96550W        W62030  28.559  28.954  14.966
96551W        W62031  13.626  11.710   3.671
96552W        W62032  33.604  15.692  10.586
96553W        W62033  28.497  38.342   3.836
96554W        W62034  35.031  17.227  13.542
96555W        W62035  13.629   4.865   1.283
96556W        W62036  18.786  11.860   1.873
96557W        W62037  27.154  43.431  11.599
96558W        W62038  12.847  37.842   4.739
96559W        W62039  39.875   2.350  13.317
96560W        W62040   2.840  41.044  12.865
96561W        W62041  24.575  25.082  12.841
96562W        W62042  23.557   7.800   2.415
96563W        W62043  33.507   1.476  12.507
96564W        W62044  30.074   7.800  13.935
96565W        W62045   5.238   6.195   3.867
96566W        W62046  27.617  37.469  11.399
96567W        W62047   8.681  11.853   3.183
96568W        W62048  30.564  10.350   3.702
96569W        W62049  14.119  43.940   2.744
96570W        W62050  37.558  44.806   0.953
96571W        W62051  22.167   0.816   0.966
96572W        W62052  30.009  23.728  12.368
96573W        W62053  17.132  27.457   0.842
96574W        W62054   4.781  39.484  14.996
96575W        W62055  21.039  38.499  12.930
96576W        W62056  35.381   6.827   1.750
96577W        W62057  38.055  17.593  11.885
96578W        W62058  31.118  17.774   2.817
96579W        W62059  24.706  27.161  13.054
96580W        W62060  25.966   8.655   2.696
96581W        W62061  17.190   9.890   1.717
96582W        W62062  39.025  18.285  10.061
96583W        W62063  38.426  38.922   4.325
96584W        W62064  42.401   1.825   0.739
96585W        W62065  42.924  38.070  10.461
96586W        W62066  40.020  34.909  11.905
96587W        W62067  44.348  39.036  11.451
96588W        W62068   4.356   3.266  12.533
96589W        W62069  36.923  10.240  14.384
96590W        W62070  35.083  14.640   2.866
96591W        W62071   1.899  13.155   1.331
96592W        W62072   3.743   0.307   1.376
96593W        W62073  31.968  15.125  10.529
96594W        W62074  41.037  17.728  13.528
96595W        W62075  34.068   7.877  11.432
96596W        W62076   6.219  39.936   4.729
96597W        W62077   1.345  16.135  12.852
96598W        W62078   3.892  14.704  11.042
96599W        W62079  16.580  13.183   3.356
96600W        W62080   9.312  30.606  11.539
96601W        W62081  23.041   0.348   5.601
96602W        W62082   8.796   0.321  12.528
96603W        W62083   8.183  10.649   3.649
96604W        W62084  23.207  18.570  12.043
96605W        W62085  25.588  28.145   0.255
96606W        W62086   3.314  37.015  11.526
96607W        W62087  24.003  26.142  14.491
96608W        W62088  39.922  25.587   1.234
96609W        W62089  21.578  16.575  12.050
96610W        W62090   2.408  43.802   1.269
96611W        W62091  11.171  31.460   0.344
96612W        W62092  43.487   3.270  11.100
96613W        W62093  33.391  25.200   4.604
96614W        W62094   0.965  11.822   1.211
96615W        W62095   4.900  10.803  10.619
96616W        W62096  30.989   9.152  10.597
96617W        W62097  34.584  40.495   0.879
96618W        W62098  28.084  11.127   2.381
96619W        W62099  10.635   1.367   0.819
96620W        W62100  36.350  40.823   3.281
96621W        W62101   6.684  37.474   2.860
96622W        W62102  13.291  35.063  12.479
96623W        W62103   8.402  28.976  11.054
96624W        W62104  14.607  22.163  14.491
96625W        W62105  37.977  37.521  10.963
96626W        W62106  31.577  10.299   2.852
96627W        W62107  10.141  18.784   4.213
96628W        W62108   7.379  41.913   2.809
96629W        W62109  22.156   0.895   2.886
96630W        W62110  18.102  19.556  12.985
96631W        W62111  11.312  18.717  10.910
96632W        W62112  19.588   5.860  10.474
96633W        W62113   9.784  16.761   4.673
96634W        W62114  36.569  33.970  10.639
96635W        W62115   5.261   6.328  10.586
96636W        W62116  17.594  26.591   0.806
96637W        W62117  20.724  14.236  12.548
96638W        W62118  13.234  29.066   4.658
96639W        W62119  17.066  34.379   3.254
96640W        W62120  22.724  16.281  11.080
96641W        W62121  41.323  16.642   1.274
96642W        W62122  31.594   0.393   4.232
96643W        W62123  33.972  31.147  12.453
96644W        W62124  26.557   8.889   3.387
96645W        W62125  33.470  28.623  10.928
96646W        W62126  20.714   8.389   0.390
96647W        W62127  44.897   6.711  14.399
96648W        W62128  42.460  12.291   3.721
96649W        W62129  19.736  26.643  12.086
96650W        W62130  44.489  31.023  13.877
96651W        W62131  22.103  21.154   4.682
96652W        W62132  33.515  27.610   2.333
96653W        W62133  22.683   3.228  12.050
96654W        W62134  36.489  33.572  11.034
96655W        W62135  25.016  25.516   4.301
96656W        W62136  28.039  30.527   0.315
96657W        W62137  34.950   3.869  13.516
96658W        W62138  38.346  40.866  14.395
96659W        W62139  32.472  22.685   4.813
96660W        W62140   2.777  25.670   2.774
96661W        W62141  21.202  16.155  11.003
96662W        W62142   7.270  14.685   2.747
96663W        W62143  44.380  42.905  10.430
96664W        W62144  32.495  33.001   0.457
96665W        W62145  17.583  42.952   2.328
96666W        W62146  28.510   2.911   3.830
96667W        W62147   5.693   1.358  11.417
96668W        W62148   7.838  18.205  14.508
96669W        W62149  32.529   0.797   0.289
96670W        W62150  42.494  23.573  10.920
96671W        W62151  13.120  11.785   0.283
96672W        W62152  23.045  15.758  12.387
96673W        W62153  21.262   9.340  14.387
96674W        W62154  42.287  34.904   2.800
96675W        W62155  25.641  38.548   3.824
96676W        W62156  43.986  37.546   3.841
96677W        W62157  42.430  38.892  11.536
96678W        W62158  22.632  25.554  13.512
96679W        W62159  23.159  39.342   0.917
96680W        W62160   0.417  12.152   4.333
96681W        W62161   0.445  15.213  14.860
96682W        W62162  38.431  26.976   4.826
96683W        W62163  19.205  23.111  10.574
96684W        W62164  22.633  39.373   1.283
96685W        W62165  44.497  18.200  12.997
96686W        W62166  19.200  17.189  11.922
96687W        W62167   0.400  38.867   1.815
96688W        W62168  13.141  36.359  11.957
96689W        W62169  26.085  16.146  13.459
96690W        W62170  15.230  25.048  14.420
96691W        W62171   7.413  12.651   0.271
96692W        W62172  26.102  32.575  11.605
96693W        W62173  22.561   5.933   5.188
96694W        W62174  12.700  37.518  10.411
96695W        W62175  14.157   5.742  10.453
96696W        W62176  15.611  25.688  12.937
96697W        W62177  10.869  44.486  10.011
96698W        W62178  10.285   6.789  12.906
96699W        W62179  35.854  21.060   1.421
96700W        W62180  40.403  37.572  11.590
96701W        W62181   0.328  33.560  10.061
96702W        W62182   9.650  30.989  10.914
96703W        W62183  13.822  28.579  13.382
96704W        W62184  15.791  24.000  11.957
96705W        W62185   6.205  34.011   1.879
96706W        W62186  16.236  11.656   0.252
96707W        W62187   3.900  12.811  14.956
96708W        W62188  41.795  18.173  12.463
96709W        W62189  13.812  30.946   3.697
96710W        W62190  29.956  22.541  14.943
96711W        W62191  14.146  34.864   1.224
96712W        W62192  42.005  39.339   4.716
96713W        W62193  15.115   9.221  14.958
96714W        W62194   0.392   9.190   2.331
96715W        W62195  38.560  29.494   2.405
96716W        W62196  27.503  36.470   3.334
96717W        W62197  17.733  36.449   3.180
96718W        W62198  29.935  23.713   0.791
96719W        W62199  26.652  20.624  11.548
96720W        W62200  26.147  33.992   2.258
96721W        W62201  28.676  10.677   2.304
96722W        W62202  23.014  28.030   0.847
96723W        W62203   7.765   7.897   2.794
96724W        W62204  13.189  18.273  11.379
96725W        W62205  14.751  25.633   4.353
96726W        W62206  25.016  36.069  14.826
96727W        W62207   0.960   5.378  10.953
96728W        W62208  43.507  25.529   1.357
96729W        W62209  34.062  15.205  11.501
96730W        W62210  36.888  19.700  10.496
96731W        W62211  24.491  37.420  10.921
96732W        W62212   5.338   0.781  12.888
96733W        W62213  25.681  28.074   2.682
96734W        W62214  19.207  30.435   4.319
96735W        W62215  31.441  23.589  13.970
96736W        W62216  18.258  22.698   0.308
96737W        W62217  24.130  12.329  13.409
96738W        W62218  28.962  35.546  14.314
96739W        W62219  30.099  20.630   2.672
96740W        W62220  10.868   7.284   3.371
96741W        W62221  41.809  14.590   0.257
96742W        W62222  42.307  27.652  14.771
96743W        W62223  17.289  38.959  13.001
96744W        W62224  31.035  35.475   2.234
96745W        W62225  29.006  10.347   3.379
96746W        W62226  20.638  39.891   4.137
96747W        W62227  31.919  44.900   1.895
96748W        W62228   5.861  29.143   3.811
96749W        W62229   3.281   0.318  10.579
96750W        W62230   6.753   9.735  13.855
96751W        W62231  41.461  23.501  12.345
96752W        W62232   9.770   1.904   0.785
96753W        W62233   7.390  32.978  14.449
96754W        W62234  15.676  10.348  12.383
96755W        W62235  35.499   5.735  10.570
96756W        W62236  19.188  15.667  13.337
96757W        W62237   9.376  29.639  14.849
96758W        W62238  27.543  31.470  12.375
96759W        W62239  37.063   5.354  11.394
96760W        W62240   1.477   8.771   4.634
96761W        W62241  41.372  30.049  12.352
96762W        W62242  13.107  26.107   4.648
96763W        W62243  14.243  13.330  14.313
96764W        W62244  42.784  22.664   1.257
96765W        W62245  16.748  33.995   0.259
96766W        W62246  23.233  30.913   2.356
96767W        W62247  25.537  19.258   1.344
96768W        W62248  28.013  18.786  10.543
96769W        W62249  29.127   4.899  10.618
96770W        W62250   9.692   5.367   3.808
96771W        W62251   9.724  13.778  13.420
96772W        W62252  17.697   5.702  10.420
96773W        W62253  41.512  37.560  14.902
96774W        W62254  42.395  36.973   2.878
96775W        W62255  10.265  17.719  12.454
96776W        W62256  16.240  11.326  13.949
96777W        W62257  17.102  32.955  14.814
96778W        W62258  18.778  41.801   0.270
96779W        W62259  23.675  12.823   3.805
96780W        W62260  26.518  42.023  11.535
96781W        W62261  13.740  29.492  12.992
96782W        W62262  24.479   6.423  13.829
96783W        W62263  27.643  31.909  11.461
96784W        W62264   8.810  38.062   2.368
96785W        W62265   9.365  19.260  13.003
96786W        W62266  30.960   7.193  13.902
96787W        W62267  35.073   4.764  10.158
96788W        W62268  36.472  35.881  11.079
96789W        W62269   2.421  33.532   2.277
96790W        W62270  12.164  27.447  11.003
96791W        W62271   8.720  27.569   4.599
96792W        W62272  43.491  28.627  11.857
96793W        W62273  20.236  32.911   4.183
96794W        W62274  37.935  12.175  13.010
96795W        W62275  34.440   1.941  10.464
96796W        W62276  39.526  15.284  14.984
96797W        W62277  34.107   5.836   1.706
96798W        W62278  10.742  35.466   3.730
96799W        W62279  22.563   5.426  13.928
96800W        W62280   9.788  23.985   0.781
96801W        W62281   3.235  10.231  11.417
96802W        W62282  20.062   9.721  12.470
96803W        W62283  37.542  22.564   4.608
96804W        W62284  42.362  15.257   2.248
96805W        W62285   0.952  32.540   0.880
96806W        W62286   6.182  18.237   4.671
96807W        W62287  20.032  11.716  12.574
96808W        W62288   2.934  30.040  13.403
96809W        W62289   5.310  27.183   4.791
96810W        W62290  29.461  16.312  13.822
96811W        W62291  13.617   1.432  10.146
96812W        W62292  18.565  14.759  12.916
96813W        W62293  28.950  20.624   4.301
96814W        W62294  12.612  38.999   2.383
96815W        W62295  11.153  27.007  11.400
96816W        W62296  15.726  23.598  11.122
96817W        W62297  23.096  13.350   4.336
96818W        W62298  26.046   7.244  10.891
96819W        W62299  41.329  20.654   0.380
96820W        W62300   5.231  35.375   3.792
96821W        W62301   1.832  24.509   2.350
96822W        W62302  27.039  28.471   2.306
96823W        W62303  25.057  23.515   3.293
96824W        W62304  37.537  35.576   2.395
96825W        W62305  10.304  26.971  13.545
96826W        W62306  33.986   7.895  10.534
96827W        W62307  43.407   9.692  14.016
96828W        W62308   1.825  21.657   2.203
96829W        W62309  37.085   7.203   0.293
96830W        W62310  21.022  34.921  12.906
96831W        W62311   1.975  42.326  12.998
96832W        W62312   6.876  26.974   4.346
96833W        W62313   3.367   1.258  10.583
96834W        W62314   0.835  37.349   2.347
96835W        W62315  25.575  10.297   3.766
96836W        W62316  32.941  41.917  13.480
96837W        W62317  18.653  19.637   3.223
96838W        W62318  14.729  34.981   0.405
96839W        W62319   2.418  13.303   1.211
96840W        W62320  14.222   0.781   2.213
96841W        W62321  18.632  16.164   0.259
96842W        W62322  13.298  39.452  12.080
96843W        W62323  27.085   9.162   0.467
96844W        W62324  25.169  21.524  11.442
96845W        W62325  31.076  41.519   4.772
96846W        W62326  41.360  12.676  12.827
96847W        W62327  32.571  40.515   2.797
96848W        W62328  26.032  28.990   1.856
96849W        W62329   8.334   5.715  14.458
96850W        W62330  38.479  17.083  12.409
96851W        W62331  25.158  20.577   1.367
96852W        W62332   8.704  33.992  11.125
96853W        W62333  15.206  11.737   1.272
96854W        W62334  32.091  34.956   3.639
96855W        W62335  33.541  33.571   2.791
96856W        W62336   3.253  25.706  11.900
96857W        W62337  43.322  35.916  13.046
96858W        W62338  32.613  30.076  13.950
96859W        W62339  29.564   4.242  14.776
96860W        W62340  27.577   1.483  10.537
96861W        W62341  18.104  10.675   2.280
96862W        W62342  24.045  35.015   0.320
96863W        W62343  31.007  38.837   0.821
96864W        W62344   4.741  29.444   5.121
96865W        W62345  32.935  40.044  14.311
96866W        W62346  26.486   4.861  13.970
96867W        W62347  43.981  14.710  10.576
96868W        W62348  23.716   1.320  11.856
96869W        W62349  11.146  22.559  14.924
96870W        W62350  18.118  27.555  11.555
96871W        W62351  21.179  12.620   1.765
96872W        W62352  28.507  17.166  13.364
96873W        W62353  14.212  20.247   3.341
96874W        W62354  38.335   0.369   3.640
96875W        W62355  23.528  44.760  12.971
96876W        W62356  36.538  14.692   2.749
96877W        W62357   6.296  31.139   4.218
96878W        W62358  24.975  11.803  13.970
96879W        W62359  24.026   1.299   4.164
96880W        W62360   3.271  27.461  14.002
96881W        W62361   6.330  31.603  11.452
96882W        W62362   5.767   3.273  14.452
96883W        W62363  29.496  22.093  13.453
96884W        W62364  34.063  43.938  12.977
96885W        W62365  20.056  25.643  11.474
96886W        W62366  28.636  42.775   4.184
96887W        W62367  40.878   3.727   3.792
96888W        W62368  30.017  20.153   1.379
96889W        W62369   6.823  32.561  11.009
96890W        W62370   5.908  42.965   1.836
96891W        W62371   4.745   8.900  11.445
96892W        W62372  35.984  12.326  14.990
96893W        W62373  17.802  11.833  14.801
96894W        W62374  17.781  21.530   2.225
96895W        W62375  36.026  24.016   3.825
96896W        W62376  19.086   1.878  10.573
96897W        W62377  27.465   1.786  13.020
96898W        W62378  29.061  17.631  12.849
96899W        W62379  21.130  19.205  13.790
96900W        W62380  23.099   4.324  13.425
96901W        W62381   2.394  13.814  10.905
96902W        W62382  29.952  10.257   3.641
96903W        W62383  11.314  22.717   3.177
96904W        W62384  11.315  30.610  10.912
96905W        W62385  24.682  20.646   3.631
96906W        W62386  21.206   2.728   0.859
96907W        W62387   7.334  21.206  13.890
96908W        W62388  20.636  39.492  12.373
96909W        W62389  42.933   5.263   1.732
96910W        W62390  20.238   7.756  10.447
96911W        W62391  25.660  29.976  13.408
96912W        W62392  31.447   2.844  10.547
96913W        W62393  33.938  36.524  14.778
96914W        W62394  16.190  38.935   4.768
96915W        W62395  17.197  27.630  14.912
96916W        W62396  25.167  22.652   5.104
96917W        W62397   3.381  33.041   3.650
96918W        W62398  36.007  42.448   4.338
96919W        W62399  18.659  29.104   2.902
96920W        W62400  28.934  34.078  12.965
96921W        W62401  28.002   8.275   1.450
96922W        W62402  15.697  17.590   0.799
96923W        W62403   8.872  41.368  11.974
96924W        W62404   8.339  13.283  10.898
96925W        W62405  40.852  20.207  13.005
96926W        W62406  38.044  40.304   4.176
96927W        W62407   9.352  23.735   1.427
96928W        W62408  29.580   7.408   1.891
96929W        W62409  35.362  31.154  10.457
96930W        W62410  43.381  32.473  12.447
96931W        W62411  31.508  39.418  14.365
96932W        W62412  44.872  25.092  11.611
96933W        W62413  18.705  25.641   9.467
96934W        W62414   3.308  31.594   4.645
96935W        W62415  42.436  17.678  14.940
96936W        W62416  12.164  30.036   1.785
96937W        W62417  21.758  35.996  14.018
96938W        W62418  35.511  31.900  12.850
96939W        W62419  39.033  34.532   0.732
96940W        W62420  24.983  31.045  12.409
96941W        W62421  16.739  17.684  12.044
96942W        W62422   2.737   8.868  13.797
96943W        W62423   6.799  14.172  13.519
96944W        W62424  41.533  30.943   1.362
96945W        W62425  14.677  27.180   4.300
96946W        W62426  44.491  26.174   3.284
96947W        W62427  40.508  32.051  14.804
96948W        W62428  36.370  26.545  10.952
96949W        W62429  25.485  28.655   3.676
96950W        W62430  25.096  16.791  13.868
96951W        W62431  20.140   1.884   1.328
96952W        W62432  29.979  34.919  13.415
96953W        W62433  42.792  25.712  12.836
96954W        W62434  10.141  34.106   9.939
96955W        W62435  21.177   0.279   3.636
96956W        W62436  33.617  26.469   2.411
96957W        W62437  16.691  16.672  12.403
96958W        W62438  26.195   0.309   4.161
96959W        W62439  16.089  15.755  14.328
96960W        W62440  32.450   1.845  12.520
96961W        W62441  24.561   0.367   1.377
96962W        W62442   5.894  20.540  11.522
96963W        W62443  15.174  28.096  13.422
96964W        W62444  35.053  29.111  13.863
96965W        W62445   3.847  29.073  10.552
96966W        W62446  15.197  42.423  12.578
96967W        W62447  30.431  22.087   1.282
96968W        W62448  37.529   7.241  12.836
96969W        W62449  25.470  23.665   1.241
96970W        W62450  19.250  18.239   4.606
96971W        W62451  29.138  32.402  14.369
96972W        W62452  29.956   8.406   2.751
96973W        W62453  36.480  19.046  13.026
96974W        W62454  43.410  28.070   3.247
96975W        W62455  24.535   1.422  13.045
96976W        W62456  44.941  40.038  12.827
96977W        W62457  24.565  16.705  13.941
96978W        W62458  34.586  43.942  14.392
96979W        W62459  33.919  38.986  12.008
96980W        W62460  38.071  23.009   1.212
96981W        W62461   9.156  27.495   4.248
96982W        W62462  41.826  13.709  13.474
96983W        W62463  19.246  14.744   2.838
96984W        W62464  10.317  44.943   1.402
96985W        W62465  17.235   0.438   3.790
96986W        W62466  12.825   0.482   2.391
96987W        W62467   2.934  12.703   4.821
96988W        W62468  21.549  14.694   3.179
96989W        W62469  21.229  25.632  14.008
96990W        W62470  44.503   9.881   1.800
96991W        W62471  36.937  37.388  11.392
96992W        W62472  26.067  31.113   2.847
96993W        W62473  22.064  36.439  10.928
96994W        W62474  27.964  43.402   4.161
96995W        W62475  29.552   6.218  14.490
96996W        W62476  13.254   9.191   4.605
96997W        W62477  31.986  23.614   3.189
96998W        W62478  18.786   7.760  12.405
96999W        W62479   3.445   7.331   3.168
97000W        W62480  32.079  41.931   4.781
97001W        W62481   5.295   9.255   4.664
97002W        W62482  39.464   0.951  11.392
97003W        W62483   2.426  38.341   1.372
97004W        W62484   7.243   1.847  12.383
97005W        W62485   0.869  18.061  14.345
97006W        W62486  30.470   0.905  10.638
97007W        W62487  33.964  29.644  14.451
97008W        W62488  11.322  34.074  14.436
97009W        W62489  20.031  30.979  13.473
97010W        W62490  10.301  37.458   0.305
97011W        W62491  16.272   7.882   1.710
97012W        W62492  13.768  24.635   1.365
97013W        W62493  43.504   6.266  13.411
97014W        W62494   1.466  27.078   0.926
97015W        W62495  16.635  19.227   2.665
97016W        W62496  21.700  43.960   0.455
97017W        W62497   9.646   6.816   3.239
97018W        W62498  18.184  25.667  11.471
97019W        W62499  43.423   5.719   3.764
97020W        W62500  41.502  37.568   1.883
97021W        W62501  38.444  40.884   0.883
97022W        W62502  29.591  38.060   0.753
97023W        W62503  34.517   3.230   4.810
97024W        W62504  17.204   0.789   3.646
97025W        W62505   3.330   0.396  13.050
97026W        W62506  43.808  23.628  13.319
97027W        W62507  22.121  32.552  12.967
97028W        W62508  22.016   5.735   5.100
97029W        W62509   8.684  14.127  13.435
97030W        W62510  30.446   3.446   2.735
97031W        W62511  39.956  36.480   1.879
97032W        W62512  43.853   5.745   1.241
97033W        W62513  20.060  27.941  14.276
97034W        W62514  26.065   5.899   3.652
97035W        W62515  13.742   1.477   1.784
97036W        W62516  35.395  18.546  11.919
97037W        W62517  18.192  33.993  12.086
97038W        W62518   5.805  34.522  10.118
97039W        W62519  35.952   6.752  13.424
97040W        W62520  20.140  33.547  14.362
97041W        W62521  31.126  19.198  14.308
97042W        W62522  40.521   0.297  10.574
97043W        W62523  32.479  20.576   2.276
97044W        W62524  10.228  12.730  14.449
97045W        W62525  15.682   4.846  13.515
97046W        W62526  11.368  37.923  11.071
97047W        W62527  26.064  21.702   2.305
97048W        W62528  12.270   5.739  12.876
97049W        W62529  22.032  15.698   4.219
97050W        W62530  20.139  18.552   4.609
97051W        W62531  16.217  26.034   5.103
97052W        W62532  35.873  42.926  14.360
97053W        W62533  19.691  40.874  13.386
97054W        W62534  31.636   1.969  12.033
97055W        W62535  16.087  32.610  11.511
97056W        W62536  17.620  20.680  12.937
97057W        W62537  15.752  20.249  13.372
97058W        W62538   2.750  15.647   1.877
97059W        W62539   6.736  38.946  12.508
97060W        W62540  37.879   3.441  12.475
97061W        W62541  42.440  19.075  13.373
97062W        W62542   3.230  21.695  12.530
97063W        W62543  15.678  28.973   4.248
97064W        W62544  23.628  33.551  14.887
97065W        W62545  25.704  10.258   5.317
97066W        W62546  35.548  30.569   0.800
97067W        W62547  32.004  26.501  11.858
97068W        W62548  26.001  34.949   0.419
97069W        W62549  10.335  24.520   4.218
97070W        W62550  41.487  41.453   3.642
97071W        W62551  11.175  30.602  10.506
97072W        W62552  34.896  37.084  13.474
97073W        W62553  37.065  17.268   0.419
97074W        W62554  32.900  36.923   2.882
97075W        W62555   7.259   6.776   2.674
97076W        W62556  28.595   7.781  10.554
97077W        W62557   0.386   9.316  10.442
97078W        W62558  33.450   4.435   2.681
97079W        W62559   8.246   5.821  11.038
97080W        W62560  23.551  17.672  11.564
97081W        W62561   5.431  36.908   0.353
97082W        W62562  24.523  37.415  13.350
97083W        W62563   0.404  18.679   0.753
97084W        W62564  32.432   1.258  14.921
97085W        W62565   5.217  22.526   1.790
97086W        W62566  41.880   5.323   2.837
97087W        W62567   1.344  12.170   3.170
97088W        W62568   2.397  40.041   4.282
97089W        W62569  13.840  41.456  14.915
97090W        W62570  19.092  15.121  11.957
97091W        W62571  10.155   6.395  13.951
97092W        W62572  23.015  29.151   3.711
97093W        W62573   2.382  32.431   2.772
97094W        W62574   5.309  37.387   0.810
97095W        W62575  10.206  37.348  13.955
97096W        W62576  17.748  27.097  11.933
97097W        W62577   9.228  23.081  11.457
97098W        W62578  27.043  20.213   2.362
97099W        W62579  24.193  42.471  13.905
97100W        W62580  41.991  25.962  14.884
97101W        W62581  40.501  40.820  11.918
97102W        W62582  33.075  15.589   2.362
97103W        W62583  11.798  32.034   3.794
97104W        W62584  16.114  13.138  13.357
97105W        W62585  17.655  27.628  10.078
97106W        W62586  39.029  21.079   0.407
97107W        W62587  37.832  17.133  12.836
97108W        W62588  34.483  31.570  11.120
97109W        W62589  44.783   5.916  11.052
97110W        W62590  44.888   6.421   3.689
97111W        W62591  43.307  20.560   1.303
97112W        W62592  36.350  13.146   1.395
97113W        W62593  25.080  19.761   1.762
97114W        W62594   4.811  24.097   3.674
97115W        W62595  22.024  25.073  12.527
97116W        W62596  32.018  33.949  12.460
97117W        W62597  15.166  35.988   4.768
97118W        W62598  44.435  14.190  13.507
97119W        W62599  10.851  27.604  10.609
97120W        W62600  36.944  16.727  10.620
97121W        W62601   3.397  29.026  13.548
97122W        W62602  15.747   5.794  14.370
97123W        W62603  35.019  42.358   0.936
97124W        W62604   5.928  21.072  11.510
97125W        W62605  34.057  13.665  14.911
97126W        W62606   4.721  44.939   0.895
97127W        W62607  43.981  15.801   2.749
97128W        W62608  15.204   3.249   2.206
97129W        W62609  36.052  33.975  14.769
97130W        W62610  14.251  41.899  12.524
97131W        W62611   1.461  12.692   2.280
97132W        W62612  41.453  42.791  11.055
97133W        W62613   1.799   4.777   2.341
97134W        W62614  31.478   5.767  11.540
97135W        W62615   7.756  41.519  12.045
97136W        W62616   3.735   3.794  12.966
97137W        W62617  40.013   4.740  11.863
97138W        W62618  25.098  19.632  13.533
97139W        W62619  36.892  41.917   1.283
97140W        W62620  21.587  37.481   3.339
97141W        W62621  33.009  19.573  14.424
97142W        W62622  37.879  36.038   4.638
97143W        W62623   3.251  33.087   5.286
97144W        W62624   7.358  20.598   3.662
97145W        W62625   8.272  21.680   0.787
97146W        W62626  34.029  20.243  14.779
97147W        W62627  25.528  10.335   0.356
97148W        W62628  11.316  44.771  14.992
97149W        W62629   8.856   9.792  11.909
97150W        W62630  25.161   8.686  11.928
97151W        W62631  12.222  38.450  13.399
97152W        W62632  15.112   2.339   1.769
97153W        W62633  44.864  16.266  12.832
97154W        W62634  44.494  15.687  14.452
97155W        W62635  12.306  21.574   2.378
97156W        W62636  19.585  10.788  11.093
97157W        W62637  15.604  20.039  11.013
97158W        W62638  31.017  38.930   4.672
97159W        W62639   8.820  26.486  13.421
97160W        W62640  13.236  37.550  13.981
97161W        W62641  11.787  40.331   0.309
97162W        W62642  38.393  41.983   4.113
97163W        W62643  25.093  10.790  12.371
97164W        W62644  27.113   9.735  10.594
97165W        W62645  25.113   3.830  14.831
97166W        W62646  31.466  37.405   0.818
97167W        W62647  31.474  27.127  14.016
97168W        W62648  21.527  11.247   3.386
97169W        W62649  16.752  14.272   3.320
97170W        W62650  18.745  27.109  14.427
97171W        W62651  27.040  42.925  14.509
97172W        W62652  25.694  18.672  10.904
97173W        W62653   7.903   5.916   3.240
97174W        W62654  26.101  37.895   3.295
97175W        W62655  16.189   0.387  11.597
97176W        W62656  22.712  37.060   0.854
97177W        W62657  19.097  31.516  11.551
97178W        W62658   6.865  39.507  11.895
97179W        W62659  29.654  10.253   0.243
97180W        W62660  32.494  32.456   1.812
97181W        W62661  42.981   9.832  14.483
97182W        W62662   1.807  27.595   0.272
97183W        W62663  22.181  41.910   1.801
97184W        W62664  18.550  28.483  11.083
97185W        W62665  38.503  17.304   0.768
97186W        W62666  16.184  32.903  11.553
97187W        W62667  33.054  38.920  11.467
97188W        W62668   6.297  40.371   2.675
97189W        W62669  38.841  17.723  12.347
97190W        W62670  14.305  18.055   1.733
97191W        W62671  24.122   4.273   3.680
97192W        W62672  39.430   5.281  11.376
97193W        W62673  27.520  34.448  13.977
97194W        W62674  15.769  34.899   0.962
97195W        W62675   3.372  37.411   0.280
97196W        W62676  11.808  14.603   1.850
97197W        W62677  23.598  27.626  13.507
97198W        W62678  18.667  30.641   5.109
97199W        W62679  30.043   7.838  13.434
97200W        W62680   7.320  16.082  14.844
97201W        W62681  21.662  39.527   0.822
97202W        W62682  16.123   7.271   3.292
97203W        W62683  41.493  40.313   2.682
97204W        W62684  43.511  32.439   4.135
97205W        W62685  11.861  34.904  12.467
97206W        W62686  11.252   7.751   3.731
97207W        W62687  17.180  34.588  12.401
97208W        W62688   1.276   8.252  12.363
97209W        W62689   9.819  10.840  13.829
97210W        W62690  21.057  29.575   3.373
97211W        W62691  10.218  23.026  12.888
97212W        W62692   2.812  24.702  13.335
97213W        W62693  27.949  42.363   1.448
97214W        W62694  30.988  40.928   0.817
97215W        W62695  30.931  16.728   2.281
97216W        W62696  27.052  30.636  10.512
97217W        W62697  42.903   4.772   0.477
97218W        W62698  31.564  14.753  11.910
97219W        W62699  14.336  34.901   5.311
97220W        W62700   2.407   5.757  13.991
97221W        W62701  43.408  35.941  10.612
97222W        W62702  14.227  24.718  14.964
97223W        W62703   9.796  10.764  14.957
97224W        W62704   3.943  12.170  10.892
97225W        W62705  18.546   1.831   3.636
97226W        W62706  36.398   6.698   2.782
97227W        W62707  30.594  22.646  10.996
97228W        W62708  38.364  28.933  13.523
97229W        W62709  12.702  30.922   2.232
97230W        W62710  41.495  43.333   3.354
97231W        W62711  26.056  21.555   4.168
97232W        W62712  36.566  21.185   4.694
97233W        W62713  24.145   9.806  12.573
97234W        W62714   1.901  37.073  11.951
97235W        W62715  41.043  16.575   4.187
97236W        W62716   1.372  12.328  13.522
97237W        W62717  38.360   9.296   2.883
97238W        W62718  21.753  17.159  12.095
97239W        W62719  32.912  43.358   4.282
97240W        W62720  32.971  38.363   3.679
97241W        W62721  31.620  18.711  12.839
97242W        W62722  12.216  18.747  12.936
97243W        W62723  42.442  30.997   1.848
97244W        W62724   6.323  31.500  11.078
97245W        W62725  22.182  16.736   2.209
97246W        W62726  41.963   6.403   0.381
97247W        W62727  37.991  33.934   1.856
97248W        W62728  31.933  39.320   2.712
97249W        W62729  44.935  17.632   4.823
97250W        W62730  41.383  30.484  14.339
97251W        W62731   8.747  18.113  11.555
97252W        W62732   7.264  42.997  13.338
97253W        W62733  15.268   3.759   3.650
97254W        W62734  39.014  11.781   1.291
97255W        W62735  11.205  31.099  10.577
97256W        W62736  17.600  32.433  10.957
97257W        W62737  26.676   5.813  13.830
97258W        W62738  37.957  33.885  12.382
97259W        W62739  13.601  16.075   3.827
97260W        W62740  10.773  25.024   2.336
97261W        W62741  29.606  24.497   2.760
97262W        W62742  38.505  13.783   1.927
97263W        W62743   6.902  36.917   1.424
97264W        W62744  16.086  39.860  11.449
97265W        W62745  38.039   2.888   2.829
97266W        W62746   0.352  39.457   2.770
97267W        W62747  28.517  41.873   4.710
97268W        W62748  11.677  12.809  11.974
97269W        W62749  13.131   2.733  10.469
97270W        W62750  12.160  14.220  10.413
97271W        W62751  27.516   6.317  14.513
97272W        W62752  31.142   5.367   2.743
97273W        W62753  27.151  24.685   4.121
97274W        W62754  23.685  14.710  13.952
97275W        W62755  20.152  12.322  14.363
97276W        W62756  18.259   8.167   3.166
97277W        W62757   1.264  26.533  12.952
97278W        W62758  39.369   4.803   2.795
97279W        W62759   4.789  35.860  12.519
97280W        W62760  16.718  22.632  13.816
97281W        W62761  11.128  33.453  14.336
97282W        W62762  34.974  21.061   1.917
97283W        W62763   4.725  41.296  12.364
97284W        W62764  27.621  12.351  13.462
97285W        W62765  30.022  18.581  13.536
97286W        W62766   9.716   1.822   1.896
97287W        W62767  15.253  24.718  14.801
97288W        W62768  17.591   7.389   4.132
97289W        W62769  37.832  28.458  12.417
97290W        W62770   9.690  32.936  14.992
97291W        W62771  20.611   9.232   3.180
97292W        W62772   0.337  11.724  14.943
97293W        W62773  37.927   5.870   4.201
97294W        W62774  42.366  41.502  10.576
97295W        W62775  24.215  36.378  12.537
97296W        W62776   4.754  31.990   2.676
97297W        W62777  23.490  25.525  10.538
97298W        W62778   5.362  15.587   1.698
97299W        W62779  23.045   2.919  12.560
97300W        W62780  29.497   2.257   4.296
97301W        W62781  32.404  33.093   0.877
97302W        W62782  37.546   1.829   3.742
97303W        W62783  40.391  17.711   4.206
97304W        W62784  32.086  39.033   2.787
97305W        W62785   8.697  35.976  10.404
97306W        W62786  13.313  10.694  12.571
97307W        W62787   4.373   0.434  12.346
97308W        W62788   5.265  19.740   1.880
97309W        W62789  12.851  19.137  13.014
97310W        W62790  16.688   8.263  10.552
97311W        W62791   0.945  44.364  11.048
97312W        W62792  44.432   9.890  10.422
97313W        W62793  24.495  15.301  13.881
97314W        W62794  22.685  42.301   0.298
97315W        W62795  20.533  12.163   1.902
97316W        W62796   6.201  12.825  11.914
97317W        W62797  12.121   3.319   4.351
97318W        W62798  34.368  15.793  13.818
97319W        W62799  17.282  33.442   0.950
97320W        W62800  12.808  27.169   4.257
97321W        W62801  14.668  38.861  10.973
97322W        W62802  18.073   6.806  11.593
97323W        W62803  42.510  10.188   3.385
97324W        W62804  21.624  35.587  12.454
97325W        W62805  10.253  25.709  11.467
97326W        W62806  12.709  11.248  12.482
97327W        W62807  44.769  18.628   4.172
97328W        W62808  34.094  37.484  14.847
97329W        W62809  34.890  28.659   3.254
97330W        W62810   6.241   2.342   0.312
97331W        W62811   4.736  21.155   1.312
97332W        W62812  14.799  28.981   3.794
97333W        W62813  40.320  25.674  13.348
97334W        W62814  17.643  14.241   2.373
97335W        W62815  28.129  31.419   1.782
97336W        W62816  27.028  10.229   3.725
97337W        W62817  34.881  36.515   2.346
97338W        W62818  16.307   8.348  14.008
97339W        W62819   3.717  11.655  13.959
97340W        W62820  31.144  15.799  13.510
97341W        W62821  19.056  17.635  12.972
97342W        W62822  36.933  26.170  11.404
97343W        W62823  23.664  17.647  10.494
97344W        W62824  44.940  38.849  11.566
97345W        W62825  35.405  21.756   0.815
97346W        W62826  31.931   0.814   3.225
97347W        W62827  23.629   0.254  12.027
97348W        W62828  17.751  34.949   0.909
97349W        W62829  21.150  39.939  14.332
97350W        W62830  37.986   5.407  13.523
97351W        W62831  16.209  41.296   3.283
97352W        W62832   6.207  36.963   9.995
97353W        W62833  23.029  38.843  11.033
97354W        W62834   5.840  42.465  14.916
97355W        W62835  16.651  28.542  14.874
97356W        W62836   6.817   7.278   3.850
97357W        W62837  32.100  34.495   1.905
97358W        W62838  38.950  36.424  12.945
97359W        W62839  34.945  42.932   0.908
97360W        W62840  16.243  18.582   0.849
97361W        W62841  15.183   2.457  12.512
97362W        W62842  43.841   1.314  11.019
97363W        W62843  15.259  21.727  12.482
97364W        W62844  21.659  25.109  12.888
97365W        W62845  22.251  28.059   0.730
97366W        W62846  42.789  24.532  13.396
97367W        W62847  24.491  40.017   0.746
97368W        W62848  40.518   0.945  13.908
97369W        W62849  35.509  29.091   2.681
97370W        W62850   0.975  19.617  13.022
97371W        W62851  37.451  20.665   1.238
97372W        W62852   8.775  13.698   1.398
97373W        W62853  32.901  42.814  14.509
97374W        W62854  32.403   8.778  11.422
97375W        W62855  35.906  42.926   0.437
97376W        W62856  31.007  17.798   1.333
97377W        W62857  18.788   0.375   0.381
97378W        W62858  40.318  33.965   4.797
97379W        W62859   3.396  13.253   0.891
97380W        W62860  11.301   0.757   0.279
97381W        W62861   3.746  24.990   5.153
97382W        W62862  39.410  38.483  10.625
97383W        W62863  41.386  15.089   2.370
97384W        W62864  38.427   4.370  10.153
97385W        W62865   8.855  13.241   4.275
97386W        W62866  44.910  31.041   4.284
97387W        W62867   7.896  12.739   4.253
97388W        W62868  42.378  36.932  14.838
97389W        W62869  26.483  23.625  11.455
97390W        W62870  10.363  37.906   3.290
97391W        W62871  19.244   7.907   2.867
97392W        W62872  35.041  30.099   2.393
97393W        W62873  38.999   0.904  14.828
97394W        W62874   0.957   2.247   3.260
97395W        W62875  20.259  22.608   3.310
97396W        W62876  14.268  15.812  11.013
97397W        W62877   4.834  13.723   1.783
97398W        W62878  37.509  36.006  11.044
97399W        W62879   7.880  37.390   1.930
97400W        W62880  38.844  44.926   0.357
97401W        W62881  28.998  20.529  12.454
97402W        W62882  15.748  26.167   1.888
97403W        W62883  43.443  40.939  12.012
97404W        W62884  35.857   4.383   2.374
97405W        W62885  30.452  24.021   1.711
97406W        W62886  30.644  15.203   0.315
97407W        W62887  15.200  23.518  14.863
97408W        W62888  27.672  31.526   1.759
97409W        W62889  19.562  39.375  10.462
97410W        W62890  35.476  26.088  13.452
97411W        W62891  40.946   1.354  12.829
97412W        W62892  15.784  28.102   4.183
97413W        W62893   8.395  42.894  11.008
97414W        W62894  20.649  30.087   1.369
97415W        W62895  37.393  28.521   1.253
97416W        W62896  18.236  13.680   3.352
97417W        W62897  28.520  11.858  12.087
97418W        W62898  42.370  26.111  14.296
97419W        W62899   0.408  30.425   4.181
97420W        W62900   8.718  18.163   3.213
97421W        W62901  29.478  29.488  12.429
97422W        W62902  19.654  44.405  11.097
97423W        W62903  13.821  16.219   3.242
97424W        W62904  22.543  43.476   0.262
97425W        W62905  20.058  19.623   2.331
97426W        W62906   3.392   4.380  11.539
97427W        W62907  22.710  31.043   0.811
97428W        W62908  24.636  19.244   0.825
97429W        W62909  33.475  28.958   0.945
97430W        W62910   3.312  16.318   3.652
97431W        W62911   8.224  40.909  11.399
97432W        W62912  20.591  34.013  13.007
97433W        W62913  16.125  18.258  12.876
97434W        W62914  38.971  35.460   0.824
97435W        W62915  43.834  20.548   2.866
97436W        W62916  22.132  23.023  13.427
97437W        W62917  17.197  15.158  14.446
97438W        W62918   3.271  31.991  11.902
97439W        W62919  27.448   5.847   1.779
97440W        W62920  10.319  23.131   0.847
97441W        W62921  29.433  29.559  10.556
97442W        W62922  26.029  21.120   0.245
97443W        W62923   4.883   4.746   0.848
97444W        W62924  22.665  32.112  12.420
97445W        W62925  43.272  27.152  14.795
97446W        W62926  15.207  27.446   3.224
97447W        W62927  26.076   5.280   2.818
97448W        W62928  15.229  25.146   4.259
97449W        W62929   9.352   6.851  11.056
97450W        W62930  33.379  20.174  10.889
97451W        W62931  21.208   5.325  11.030
97452W        W62932   9.344   3.953   0.782
97453W        W62933  10.716  20.194  11.554
97454W        W62934   4.285  42.293   4.671
97455W        W62935  11.687  28.596   4.121
97456W        W62936   4.731  34.537   0.893
97457W        W62937   4.260  11.243   1.211
97458W        W62938  24.645  31.550  11.486
97459W        W62939  25.597  43.907  14.948
97460W        W62940  29.575  17.716  12.017
97461W        W62941  27.117  31.938  10.117
97462W        W62942  25.499  26.027  12.967
97463W        W62943  34.560  38.900  11.109
97464W        W62944  18.290  16.684   1.299
97465W        W62945  12.359  14.325  13.387
97466W        W62946   1.344   5.237   0.729
97467W        W62947   9.160  20.062   4.140
97468W        W62948  40.338  32.510  11.373
97469W        W62949  12.786  28.079   0.338
97470W        W62950  40.318  42.828  11.450
97471W        W62951  42.412  18.576   1.736
97472W        W62952  31.642  10.156   0.876
97473W        W62953  36.384  27.571  11.127
97474W        W62954   3.257  26.008   3.846
97475W        W62955   8.347   7.351   0.879
97476W        W62956  43.451  14.832  13.867
97477W        W62957   5.194  20.109   0.894
97478W        W62958  14.285  26.204  10.431
97479W        W62959  17.273  38.912  12.514
97480W        W62960  32.391  42.281  14.345
97481W        W62961   4.887  20.262   3.716
97482W        W62962  43.995   9.799  14.866
97483W        W62963  27.547  24.641   0.824
97484W        W62964  39.466  15.235  14.399
97485W        W62965  15.216  43.911  11.424
97486W        W62966  21.560  34.569   2.212
97487W        W62967  17.754  21.228  11.918
97488W        W62968   2.773  29.987   2.764
97489W        W62969  23.170  32.992  10.571
97490W        W62970  38.383  31.530  12.837
97491W        W62971  38.900  12.743   1.934
97492W        W62972  28.051  42.964   0.416
97493W        W62973  12.767  31.965   4.725
97494W        W62974  29.029  14.594  14.783
97495W        W62975  11.209  10.661  14.779
97496W        W62976  43.891   6.421   2.187
97497W        W62977   2.465   5.216  14.307
97498W        W62978   2.434  40.002   2.828
97499W        W62979   7.297   3.929  11.066
97500W        W62980  26.641  35.023   1.211
97501W        W62981  44.923  25.665   2.409
97502W        W62982  40.468  12.731  13.319
97503W        W62983  10.219  38.830  14.921
97504W        W62984  12.673  15.268   2.686
97505W        W62985  13.681  11.674   3.359
97506W        W62986  39.417  28.566  12.039
97507W        W62987  19.651  42.842  12.420
97508W        W62988  21.263  23.502  11.948
97509W        W62989   9.776  25.643  10.435
97510W        W62990  29.104   5.344  12.043
97511W        W62991  36.360  30.637  13.793
97512W        W62992  23.507  38.003   2.368
97513W        W62993  34.476   3.820   0.295
97514W        W62994  32.457  24.033   0.286
97515W        W62995  25.184  41.397   0.866
97516W        W62996  18.722   1.323  13.835
97517W        W62997   1.742   4.856   0.726
97518W        W62998  30.610  38.887   4.666
97519W        W62999   3.886   7.354   1.869
97520W        W63000  37.576  31.105   4.673
97521W        W63001  23.731  14.326   4.639
97522W        W63002  21.148  13.778   3.721
97523W        W63003  42.338  32.583   4.835
97524W        W63004  33.011  27.126  11.877
97525W        W63005  39.980   4.861  12.481
97526W        W63006  44.976  42.887   0.406
97527W        W63007  36.370  13.608   3.674
97528W        W63008  25.972  25.482  11.539
97529W        W63009   8.853  19.179  11.556
97530W        W63010  10.237  13.601  13.474
97531W        W63011  11.848  37.029  10.631
97532W        W63012   6.235  40.947  10.640
97533W        W63013  17.645  44.354  10.572
97534W        W63014   5.272  32.014  14.375
97535W        W63015  36.912  16.177  11.972
97536W        W63016  40.017   5.309  13.920
97537W        W63017  37.368  24.080  11.947
97538W        W63018  13.723  28.548   3.847
97539W        W63019  27.166  16.695  10.581
97540W        W63020  23.608   6.748  12.526
97541W        W63021   3.427  40.459  14.904
97542W        W63022  26.025  29.015  10.916
97543W        W63023  35.494  22.126  14.956
97544W        W63024  23.053   9.706  12.385
97545W        W63025  32.910  12.642   1.755
97546W        W63026  13.688  40.403  10.098
97547W        W63027   4.428  34.980   0.772
97548W        W63028  14.175  43.446  10.157
97549W        W63029   8.713  35.937  13.047
97550W        W63030  20.656   1.320  14.475
97551W        W63031  37.982   2.443  11.457
97552W        W63032   6.241  35.532   0.806
97553W        W63033   7.860  14.785   4.353
97554W        W63034  18.232  16.678   1.894
97555W        W63035  22.203  43.933  13.882
97556W        W63036  25.986  43.944  14.300
97557W        W63037  20.588  10.684  12.470
97558W        W63038   9.739  29.081  14.969
97559W        W63039  13.255  40.832  11.582
97560W        W63040  35.057  36.035   1.368
97561W        W63041   7.211   6.807  10.431
97562W        W63042  37.071  40.325  12.025
97563W        W63043   9.724   1.351  12.419
97564W        W63044  14.125  18.608   2.372
97565W        W63045  37.488  22.516   5.097
97566W        W63046   2.383   3.748   0.901
97567W        W63047  44.292  29.665   2.242
97568W        W63048  30.525   4.386   4.134
97569W        W63049  33.101  31.446   4.255
97570W        W63050   8.290  30.650  12.971
97571W        W63051  31.618  38.994   4.790
97572W        W63052  27.462   0.965  12.873
97573W        W63053  34.503   5.866  11.401
97574W        W63054  39.885  14.179   0.459
97575W        W63055  43.874  28.125   4.616
97576W        W63056  10.313   4.216   3.296
97577W        W63057  11.742  22.590  10.501
97578W        W63058  16.796  13.272   3.715
97579W        W63059  23.176   4.792  13.539
97580W        W63060  39.903  25.067  13.063
97581W        W63061   1.481  25.667   1.361
97582W        W63062   6.212   9.176  10.430
97583W        W63063  22.690   9.172   2.197
97584W        W63064  18.700  11.742  10.950
97585W        W63065  32.543  17.116  14.788
97586W        W63066  42.790   5.259   3.707
97587W        W63067   9.704   9.647  10.972
97588W        W63068  18.270   5.267  11.951
97589W        W63069  29.482  36.495   3.173
97590W        W63070  27.107   3.340   4.663
97591W        W63071  10.703  42.499   4.787
97592W        W63072  21.116  43.281  12.450
97593W        W63073  11.850  36.405  13.836
97594W        W63074  36.077  31.471  14.923
97595W        W63075  33.380  22.685  11.559
97596W        W63076  10.198  44.311   2.879
97597W        W63077  17.095  28.517  11.083
97598W        W63078  25.469  22.615  10.028
97599W        W63079  27.573  20.231   2.680
97600W        W63080  13.197  23.081   3.173
97601W        W63081  40.797  10.841  14.905
97602W        W63082  29.064   2.407   1.414
97603W        W63083  21.684  19.537  12.937
97604W        W63084  38.446  16.789  10.509
97605W        W63085   1.463  22.197   1.361
97606W        W63086   6.355   6.423  10.890
97607W        W63087   8.323  37.425   4.136
97608W        W63088  30.989  29.583   4.794
97609W        W63089  44.858  17.199  13.064
97610W        W63090  23.624  40.016   3.747
97611W        W63091  23.169  28.445  12.967
97612W        W63092  18.110  34.983  12.063
97613W        W63093  29.597   8.695  14.426
97614W        W63094   4.884   8.877   4.194
97615W        W63095  23.096  28.161  12.441
97616W        W63096  39.060  12.183  11.583
97617W        W63097  20.540  16.106   4.604
97618W        W63098  28.185  16.212   1.219
97619W        W63099  20.627  44.296   1.245
97620W        W63100  20.753  16.764  11.561
97621W        W63101  17.275  24.192  11.504
97622W        W63102  26.020  32.583  13.364
97623W        W63103  34.462  17.790  11.985
97624W        W63104  16.206  33.585   4.806
97625W        W63105   1.248   7.806   1.855
97626W        W63106  32.141   1.806   0.922
97627W        W63107  13.660  34.547   0.967
97628W        W63108  34.601  39.538   2.812
97629W        W63109  25.158  26.648  11.884
97630W        W63110   7.779   0.792   9.937
97631W        W63111  36.454  17.210  11.427
97632W        W63112  11.795  24.519  11.598
97633W        W63113  41.426  14.125  12.868
97634W        W63114  24.157  16.695  12.483
97635W        W63115  28.951  24.181  11.046
97636W        W63116  26.569  16.105   1.782
97637W        W63117  14.303  16.589  13.447
97638W        W63118  17.296   2.392  10.130
97639W        W63119  28.936  24.086   0.871
97640W        W63120  21.020   3.260   4.177
97641W        W63121   1.898  31.492   3.258
97642W        W63122  13.144  24.575   1.828
97643W        W63123  27.511  13.643  14.438
97644W        W63124  31.066  36.560  12.502
97645W        W63125  29.094   4.914   1.223
97646W        W63126  39.996  33.384  12.887
97647W        W63127  14.772  30.463  14.933
97648W        W63128   1.765   2.776  13.338
97649W        W63129  31.112   2.847   3.691
97650W        W63130   7.805  44.980   0.727
97651W        W63131  29.603  19.247  13.475
97652W        W63132   1.444  27.643   1.717
97653W        W63133  22.647  34.873  12.088
97654W        W63134  39.316  44.333   2.886
97655W        W63135   2.961  42.891   1.421
97656W        W63136  15.118  39.513   4.266
97657W        W63137  39.491  34.999   4.181
97658W        W63138  39.335  27.033   4.728
97659W        W63139  39.862  13.749   0.308
97660W        W63140   5.311  25.096   2.721
97661W        W63141  38.396  24.072  14.788
97662W        W63142   3.455  37.011   4.337
97663W        W63143  28.022  33.914   3.698
97664W        W63144  28.518  14.729  10.966
97665W        W63145  27.468   9.689   4.715
97666W        W63146  27.996  37.439  10.464
97667W        W63147  21.620  22.139  11.047
97668W        W63148  18.084  22.560   1.705
97669W        W63149  27.678  43.005  13.000
97670W        W63150  27.990  18.290  10.527
97671W        W63151  29.988   1.789  10.517
97672W        W63152  32.398  28.057  13.499
97673W        W63153  40.943  43.407   0.791
97674W        W63154  26.025  29.085   3.153
97675W        W63155  37.044   8.875  10.915
97676W        W63156  33.878  24.481   4.232
97677W        W63157  21.690  27.676  11.001
97678W        W63158   3.902  32.976  11.856
97679W        W63159  13.792  19.123   3.715
97680W        W63160  23.094   5.227   3.844
97681W        W63161  32.506  38.346  11.125
97682W        W63162  31.129   7.724   1.414
97683W        W63163  14.282  11.232   1.358
97684W        W63164  27.621   0.372   3.386
97685W        W63165  16.794  42.987   2.387
97686W        W63166   5.815  31.476   1.873
97687W        W63167   9.809  18.614  14.000
97688W        W63168   1.391  12.141  11.933
97689W        W63169   8.896  32.604  14.425
97690W        W63170   5.416   7.274   4.616
97691W        W63171  23.988  34.509   4.695
97692W        W63172   1.373  27.656   3.225
97693W        W63173  15.167  20.127  13.409
97694W        W63174  15.786  29.452   2.843
97695W        W63175  14.316  38.523   1.797
97696W        W63176  40.028  36.918   1.328
97697W        W63177  23.175  13.134  13.027
97698W        W63178  30.568  14.336   1.929
97699W        W63179  25.540   3.351  12.445
97700W        W63180  28.612  44.403   3.282
97701W        W63181  10.830  25.101  12.929
97702W        W63182  13.125   7.206   4.791
97703W        W63183   5.831  37.446  12.951
97704W        W63184  44.765  35.035  11.886
97705W        W63185  40.969  35.867   0.380
97706W        W63186  10.380  41.531  14.356
97707W        W63187  43.983  42.415  14.373
97708W        W63188  41.416  43.822  13.054
97709W        W63189   0.904  43.977   2.393
97710W        W63190  30.549   1.815  13.909
97711W        W63191  17.750  40.890  11.412
97712W        W63192  31.110  32.067  11.889
97713W        W63193   6.380   4.344   2.247
97714W        W63194  36.484  40.943   2.218
97715W        W63195   3.924  26.038   1.305
97716W        W63196  38.362  34.033  14.023
97717W        W63197  35.939   3.329   2.318
97718W        W63198  24.982  18.165  11.371
97719W        W63199  13.773  15.812  10.407
97720W        W63200  41.430  17.648   3.149
97721W        W63201   6.691  15.287  11.127
97722W        W63202  29.100  18.177  13.424
97723W        W63203  30.079  40.492  12.998
97724W        W63204  13.341  24.649   0.304
97725W        W63205  22.527   7.265   3.706
97726W        W63206  30.976   8.220   4.273
97727W        W63207  23.128  38.072  14.780
97728W        W63208  14.278  28.650   2.289
97729W        W63209   0.313  13.820   4.666
97730W        W63210  27.164  14.819   4.613
97731W        W63211  44.285  21.589   3.201
97732W        W63212  36.916  27.567   4.167
97733W        W63213   5.267   1.474  12.346
97734W        W63214  14.589  26.541   4.626
97735W        W63215  28.983   7.338   1.840
97736W        W63216   4.224  11.728  13.892
97737W        W63217  28.646  35.523   2.257
97738W        W63218  43.423  36.893  11.992
97739W        W63219   6.409  14.611  10.915
97740W        W63220  42.453  18.133   3.712
97741W        W63221   6.189  22.701  10.918
97742W        W63222  42.980  17.569  13.322
97743W        W63223   3.792   7.373  10.490
97744W        W63224  10.382  40.450   2.779
97745W        W63225  25.572   7.211  13.451
97746W        W63226  26.697   6.360  11.901
97747W        W63227   6.197  42.354   0.854
97748W        W63228   6.734  42.944  13.033
97749W        W63229  38.887  33.965   2.334
97750W        W63230  33.068  44.500   0.402
97751W        W63231  30.154  20.268  14.338
97752W        W63232  15.224  16.176   0.843
97753W        W63233  41.915   3.425  12.421
97754W        W63234  35.084  20.724  14.884
97755W        W63235  26.154  36.506  12.918
97756W        W63236   5.368  34.890  13.010
97757W        W63237  31.087  39.921  13.960
97758W        W63238  37.972  26.979  12.950
97759W        W63239  38.841  20.251  11.447
97760W        W63240  22.711  25.490  12.408
97761W        W63241   7.853  22.231  13.314
97762W        W63242  11.849  36.352   3.239
97763W        W63243  27.507  28.146   1.893
97764W        W63244  32.933  10.297  12.893
97765W        W63245   2.842   2.337  14.938
97766W        W63246  27.153  33.436   4.655
97767W        W63247  11.317  23.217   2.281
97768W        W63248  39.538  15.242   0.446
97769W        W63249  37.353  30.602  14.017
97770W        W63250   1.306  36.063   4.771
97771W        W63251  34.391  24.671   0.288
97772W        W63252   0.950  25.108  10.895
97773W        W63253  22.671  30.153  14.818
97774W        W63254  25.080  36.501  11.975
97775W        W63255  27.004  19.246  14.373
97776W        W63256   8.713  27.661   4.314
97777W        W63257  35.907  44.753  13.523
97778W        W63258  25.209  26.063  10.998
97779W        W63259   4.313   5.396  12.483
97780W        W63260  20.669  18.655   0.286
97781W        W63261  30.148  20.215   0.275
97782W        W63262   8.218   6.393  10.466
97783W        W63263   2.325  43.940   0.801
97784W        W63264  23.231   5.201  13.424
97785W        W63265  25.164  17.627  12.019
97786W        W63266  14.745  26.192  13.477
97787W        W63267   2.943  15.605   0.949
97788W        W63268  18.636  43.282   1.311
97789W        W63269   0.371   0.870   2.752
97790W        W63270  35.107  28.010   1.797
97791W        W63271   7.185  17.608   2.398
97792W        W63272   4.300  43.979   1.791
97793W        W63273  14.217   5.240   3.859
97794W        W63274   9.781  17.730  13.529
97795W        W63275  15.196  23.609  14.446
97796W        W63276   3.373  33.515   2.779
97797W        W63277   2.245   0.456   3.713
97798W        W63278  33.901  39.495   4.118
97799W        W63279   6.334  36.967  12.911
97800W        W63280  14.676  35.388  12.910
97801W        W63281  25.544  10.233  10.603
97802W        W63282   5.819  40.405  14.507
97803W        W63283   2.816  29.052  10.631
97804W        W63284  35.378  19.074   1.268
97805W        W63285  39.033  41.538   2.293
97806W        W63286  43.768  37.472   0.784
97807W        W63287  11.257  44.470   0.276
97808W        W63288   0.802   3.238  12.401
97809W        W63289  43.021  31.430  13.964
97810W        W63290   6.278   9.804   0.740
97811W        W63291   0.430   7.781   4.134
97812W        W63292   3.756  22.619   4.804
97813W        W63293   6.915  29.162  12.406
97814W        W63294  34.548  28.136  13.444
97815W        W63295  22.727  16.210  12.565
97816W        W63296   0.770  13.694  13.380
97817W        W63297   7.236  17.092  13.378
97818W        W63298  43.459  16.674  14.346
97819W        W63299  14.184  30.094   3.713
97820W        W63300  35.382  40.349  12.082
97821W        W63301  41.961  41.873  11.115
97822W        W63302  14.727  38.978  14.988
97823W        W63303  41.315  14.248  14.490
97824W        W63304   5.216   5.889  11.047
97825W        W63305  34.448   0.782   1.285
97826W        W63306  28.659  18.569   2.829
97827W        W63307   3.245  36.957   3.200
97828W        W63308  43.767   1.340   0.825
97829W        W63309   7.205   5.358   4.297
97830W        W63310  11.366   1.474  12.069
97831W        W63311  40.439   8.305  14.364
97832W        W63312   3.427  16.724  14.790
97833W        W63313  44.959  17.774   2.890
97834W        W63314   8.393  34.405  14.382
97835W        W63315   4.377  38.984   0.478
97836W        W63316  17.574  12.789  11.510
97837W        W63317  21.683  19.092  11.993
97838W        W63318   0.971  38.440  11.549
97839W        W63319  39.373  36.040   0.730
97840W        W63320  25.702  38.823   5.137
97841W        W63321  35.368  29.033   3.729
97842W        W63322  24.226  23.125   4.646
97843W        W63323   1.952  36.465  13.507
97844W        W63324  19.618  29.466  14.024
97845W        W63325  12.730  44.323   3.788
97846W        W63326  31.470   6.372  14.827
97847W        W63327  32.399  32.466  12.901
97848W        W63328  25.007  41.026   1.702
97849W        W63329  41.487   6.856   9.582
97850W        W63330  29.503  26.033  11.478
97851W        W63331  16.699  25.539  10.585
97852W        W63332  14.137  17.781   3.169
97853W        W63333  24.191   2.828  10.565
97854W        W63334  15.670  44.814   0.409
97855W        W63335   0.361   0.451   4.672
97856W        W63336  28.436   6.325  13.012
97857W        W63337   5.773  31.592   3.775
97858W        W63338   8.715  34.526  11.536
97859W        W63339  29.607  32.976  13.875
97860W        W63340  34.058  23.155  11.943
97861W        W63341  31.447  27.640   2.367
97862W        W63342  35.498  16.194   2.414
97863W        W63343  34.503  33.098  13.013
97864W        W63344  31.634  15.210   3.319
97865W        W63345  40.539   9.764  11.552
97866W        W63346  14.208  12.833  13.547
97867W        W63347   1.419  32.073   0.946
97868W        W63348  38.055   5.746  14.314
97869W        W63349  42.326   2.228   4.178
97870W        W63350   5.302  16.737  12.998
97871W        W63351  44.318  21.646  10.003
97872W        W63352  29.662  40.306   0.915
97873W        W63353  26.165  41.493   2.689
97874W        W63354  13.786  22.609   2.846
97875W        W63355   7.341  17.792  14.013
97876W        W63356   5.364  23.167   4.136
97877W        W63357  31.004  37.849   0.756
97878W        W63358   1.957  22.596  14.276
97879W        W63359   4.923   9.714  12.867
97880W        W63360  28.445  17.793  14.885
97881W        W63361  38.972  34.411  11.583
97882W        W63362  19.136  39.918   2.251
97883W        W63363  31.403  22.066   0.282
97884W        W63364  13.289  21.142   5.177
97885W        W63365  10.813  37.865  14.804
97886W        W63366  43.442  41.352  13.490
97887W        W63367  34.903  11.229  11.045
97888W        W63368  44.482  11.371   4.783
97889W        W63369  29.576  30.912  12.044
97890W        W63370   9.216  44.845  11.884
97891W        W63371  42.445  13.221   4.263
97892W        W63372  16.589  18.138  14.864
97893W        W63373  14.228  32.464   2.738
97894W        W63374   5.232  18.101   2.242
97895W        W63375  22.665  30.910  13.860
97896W        W63376   2.450  36.965  11.913
97897W        W63377  20.102  38.908  13.960
97898W        W63378  20.587  38.557  13.503
97899W        W63379  18.110  13.223   5.193
97900W        W63380  33.519  31.926   4.726
97901W        W63381  38.833  32.944   1.759
97902W        W63382  29.428   1.895   1.432
97903W        W63383  41.533  14.690   1.276
97904W        W63384  42.961  16.743   4.705
97905W        W63385  34.896  25.181  14.437
97906W        W63386  28.443   0.260   4.790
97907W        W63387  13.265   0.270   0.847
97908W        W63388  18.631  34.996   2.726
97909W        W63389  44.448   6.309   0.866
97910W        W63390  24.033  22.206   3.652
97911W        W63391  42.999  10.254   3.299
97912W        W63392  17.655  32.126  11.932
97913W        W63393  11.858  36.404   1.882
97914W        W63394  29.035  42.985  11.858
97915W        W63395  34.042  28.622  11.580
97916W        W63396  34.612  12.768  12.577
97917W        W63397  29.487   3.937   4.670
97918W        W63398  17.688  28.005   0.446
97919W        W63399   9.749  18.644   3.211
97920W        W63400  36.482  17.630  13.947
97921W        W63401  30.078  13.655  11.569
97922W        W63402  24.135  27.494   4.780
97923W        W63403  15.691  18.657   4.692
97924W        W63404   6.707  15.687  13.539
97925W        W63405   8.815  41.402  10.030
97926W        W63406  27.572  41.463   5.127
97927W        W63407  14.153  20.682   0.805
97928W        W63408  13.167   7.333   1.816
97929W        W63409   1.917  19.754  14.771
97930W        W63410  40.372  33.049  14.895
97931W        W63411  31.033  28.597   1.370
97932W        W63412  29.029  35.414  14.818
97933W        W63413  27.135  35.899  13.885
97934W        W63414   4.754  15.756  10.912
97935W        W63415  26.668  33.420  12.937
97936W        W63416  20.683  11.213  14.801
97937W        W63417  20.036  39.897  14.398
97938W        W63418   0.336  29.439   2.233
97939W        W63419  22.050   9.349   0.267
97940W        W63420  21.657   2.317   2.882
97941W        W63421  18.608  38.991   3.833
97942W        W63422  28.560  22.722  13.903
97943W        W63423  32.128  21.120   0.772
97944W        W63424  43.895   4.342   1.407
97945W        W63425  28.619  30.531  12.440
97946W        W63426   1.876  20.603   3.672
97947W        W63427  14.623  44.498   2.858
97948W        W63428  23.631  28.042   3.342
97949W        W63429   0.925  25.622   0.960
97950W        W63430   9.762   4.939   3.222
97951W        W63431  30.553  24.128   2.699
97952W        W63432  26.170   8.354   2.329
97953W        W63433   1.938  39.438   4.770
97954W        W63434  12.738   8.293   4.763
97955W        W63435  43.922  28.095  13.398
97956W        W63436   3.743  23.651   4.179
97957W        W63437  10.875   6.249   4.604
97958W        W63438  29.612  42.402   1.842
97959W        W63439  42.833  35.978  13.052
97960W        W63440  34.092  10.263   4.280
97961W        W63441  43.812  10.637  12.016
97962W        W63442  19.750  14.749  14.424
97963W        W63443  26.962  34.932   2.408
97964W        W63444  29.549  34.475   2.842
97965W        W63445  28.670  37.991  10.990
97966W        W63446  19.056   7.287   0.267
97967W        W63447  29.929  16.717  11.902
97968W        W63448  36.401  34.870   2.322
97969W        W63449   3.936  31.917   2.212
97970W        W63450  13.768   5.754   0.344
97971W        W63451  36.445  28.460  11.546
97972W        W63452  20.747  13.731  11.123
97973W        W63453   5.365  18.199  10.550
97974W        W63454  22.067  22.508  14.334
97975W        W63455  42.423  13.769  14.813
97976W        W63456  21.138  42.468  13.903
97977W        W63457   0.845   5.375  11.502
97978W        W63458   2.966  38.511   2.381
97979W        W63459  13.324  33.037  14.971
97980W        W63460   1.905   6.744  13.922
97981W        W63461  26.183  16.734   1.423
97982W        W63462   0.786  38.501   1.289
97983W        W63463  23.662  39.961   1.338
97984W        W63464   7.229  22.115   2.892
97985W        W63465  38.946  41.390   4.352
97986W        W63466  15.213  16.790   2.249
97987W        W63467  39.338  34.445  11.463
97988W        W63468  26.465   7.323  10.947
97989W        W63469  22.685  14.187   2.258
97990W        W63470  26.102   2.747   4.798
97991W        W63471  12.640   9.223   1.389
97992W        W63472  10.160  25.614   2.289
97993W        W63473  36.964  27.548   1.741
97994W        W63474  44.463  34.112   2.900
97995W        W63475  27.050  15.292  13.406
97996W        W63476  20.116  32.415   3.239
97997W        W63477  41.518  20.613  12.957
97998W        W63478  27.594   6.197  14.826
97999W        W63479  29.552  29.505   5.203
98000W        W63480  36.590   9.791   0.367
98001W        W63481  13.672  42.357  11.922
98002W        W63482  40.802  21.601  14.840
98003W        W63483   1.303  36.371   1.353
98004W        W63484  10.367  14.620  13.828
98005W        W63485   3.805  31.479  11.118
98006W        W63486  23.188  23.003   3.342
98007W        W63487  29.943   1.823   1.231
98008W        W63488  27.094  38.496  13.357
98009W        W63489  41.921   0.268  12.397
98010W        W63490  43.392  41.905   0.858
98011W        W63491   5.697  23.005  14.896
98012W        W63492  23.545  28.530   3.828
98013W        W63493  35.397  25.671   2.178
98014W        W63494  42.285   8.281  13.967
98015W        W63495   4.761  27.008   0.472
98016W        W63496  38.937   8.194  12.085
98017W        W63497  31.451  43.396   3.664
98018W        W63498  25.596   2.313  11.924
98019W        W63499  10.757   8.717  13.397
98020W        W63500  23.082  43.348   0.872
98021W        W63501   5.839  26.010   2.185
98022W        W63502   2.860  32.093   5.635
98023W        W63503   4.216   0.821  12.895
98024W        W63504  27.475  44.457  11.592
98025W        W63505   9.327  26.012  11.985
98026W        W63506  16.187  32.397  14.351
98027W        W63507   2.232  29.142  10.890
98028W        W63508   9.317  29.541   4.229
98029W        W63509  36.495   1.412  13.427
98030W        W63510  35.974  27.017   2.239
98031W        W63511  17.283  24.632  11.995
98032W        W63512  19.667  40.868   2.178
98033W        W63513  33.954  11.697  12.945
98034W        W63514  10.183  34.032  11.053
98035W        W63515  10.695   1.292   2.796
98036W        W63516  42.354  28.980  12.000
98037W        W63517   2.836   1.345  13.976
98038W        W63518   2.343  35.958   2.691
98039W        W63519  34.028   7.296  14.817
98040W        W63520  14.248  13.611  13.029
98041W        W63521  36.843  24.219   4.743
98042W        W63522   7.670  15.603   3.273
98043W        W63523   7.771  29.538   1.806
98044W        W63524  29.562   8.666  12.484
98045W        W63525  41.889  11.369  10.441
98046W        W63526  38.556   6.737  11.484
98047W        W63527  33.540  28.105   0.457
98048W        W63528  23.206  36.360   0.943
98049W        W63529  10.348   1.819   1.930
98050W        W63530   0.413  10.197   3.249
98051W        W63531  29.921   0.933  14.781
98052W        W63532  28.641   2.721   1.211
98053W        W63533  23.143   9.379  13.503
98054W        W63534  42.967  35.914  11.885
98055W        W63535  31.609  16.306  14.931
98056W        W63536  17.271  27.509  13.361
98057W        W63537  22.060  29.640  14.421
98058W        W63538   2.877  17.611   3.227
98059W        W63539   6.765  39.521  12.876
98060W        W63540  30.591  40.432  11.517
98061W        W63541  16.240   6.292  14.396
98062W        W63542  25.988  15.741  11.554
98063W        W63543  42.422  36.436  13.330
98064W        W63544  18.552  10.245  14.861
98065W        W63545  28.532   3.371   4.628
98066W        W63546   9.343  44.935   3.794
98067W        W63547  21.688   4.776   3.819
98068W        W63548  22.552  39.005   4.663
98069W        W63549   3.739  16.604  11.557
98070W        W63550  10.245  32.035  12.087
98071W        W63551  42.506  25.061  12.485
98072W        W63552  14.132  18.121  14.792
98073W        W63553  13.132  15.811   0.452
98074W        W63554   5.721  15.235   3.283
98075W        W63555  15.672   1.754  14.345
98076W        W63556  14.684   2.385  13.352
98077W        W63557  18.745  40.384  13.055
98078W        W63558  21.063  29.073  14.895
98079W        W63559  14.591  43.366   0.749
98080W        W63560  34.577   6.728  12.497
98081W        W63561  27.690  38.945  13.430
98082W        W63562  42.387  32.430   1.869
98083W        W63563  44.345  27.025   4.737
98084W        W63564  31.436  29.933  10.598
98085W        W63565  38.540   7.722  14.019
98086W        W63566  24.609   5.297   1.275
98087W        W63567  33.425  39.535  12.910
98088W        W63568  30.560  35.016  14.924
98089W        W63569   0.852   9.753  10.601
98090W        W63570  28.183   1.441  13.430
98091W        W63571  14.257   8.353   3.847
98092W        W63572  30.966  39.532   0.833
98093W        W63573  18.114  15.823  14.897
98094W        W63574   7.204  10.155   1.281
98095W        W63575  34.021  31.054  10.503
98096W        W63576  33.619  24.668   3.743
98097W        W63577  26.133  10.296  12.081
98098W        W63578  43.456  40.980   4.636
98099W        W63579  42.952  37.884   2.318
98100W        W63580  42.464  13.170   0.343
98101W        W63581  10.876  24.542  11.071
98102W        W63582  12.138  29.923  11.562
98103W        W63583  16.142   0.823  12.053
98104W        W63584   6.379  26.693   0.320
98105W        W63585  36.570  18.560   1.880
98106W        W63586  18.579  38.884  13.870
98107W        W63587  41.423  28.577   2.874
98108W        W63588  27.507   2.827  14.430
98109W        W63589   2.731  40.315   3.279
98110W        W63590  15.734  30.458  13.482
98111W        W63591  26.553  22.093  12.826
98112W        W63592   9.709  18.161  12.383
98113W        W63593  22.622  23.619  12.055
98114W        W63594   0.884  40.902   2.764
98115W        W63595  43.912  14.322   5.199
98116W        W63596  30.607  18.559   1.730
98117W        W63597  22.533   0.868   1.844
98118W        W63598  34.908  33.989  14.820
98119W        W63599  42.455  25.169   0.291
98120W        W63600   3.226  32.553   4.608
98121W        W63601  35.536  38.883  10.919
98122W        W63602  13.612   4.715  14.832
98123W        W63603  28.518  37.552   5.139
98124W        W63604  22.561   5.212   0.353
98125W        W63605  12.302  23.517   4.627
98126W        W63606   4.941   3.816   0.365
98127W        W63607   4.920  44.806   2.278
98128W        W63608  13.166   0.396   4.332
98129W        W63609  40.030  28.475   2.193
98130W        W63610  18.127  28.988   2.775
98131W        W63611  36.381  15.256  12.455
98132W        W63612  43.770   9.670  14.362
98133W        W63613  23.515   7.349  10.557
98134W        W63614  27.680  34.058  10.903
98135W        W63615  27.043  28.474   0.861
98136W        W63616  33.018  27.159  11.518
98137W        W63617   9.853   0.868  14.931
98138W        W63618  44.795  27.045  13.475
98139W        W63619  12.641  37.840   4.240
98140W        W63620   8.188  29.925  10.437
98141W        W63621  43.776  25.583   3.359
98142W        W63622  33.000  31.428   2.819
98143W        W63623  37.952  38.460  13.842
98144W        W63624  43.279  35.568   4.190
98145W        W63625  42.920  32.117   1.333
98146W        W63626  40.509  21.248   0.903
98147W        W63627  39.529  30.655   2.270
98148W        W63628  26.048   3.874   0.420
98149W        W63629  13.243  17.769  11.885
98150W        W63630  27.561   0.831  11.926
98151W        W63631  27.095  32.418   2.236
98152W        W63632  24.151   8.196   1.932
98153W        W63633  12.737   4.361   3.326
98154W        W63634  33.000  12.654  14.953
98155W        W63635   5.279  11.670   1.309
98156W        W63636  10.211  32.524   3.335
98157W        W63637  23.122  35.021  14.916
98158W        W63638  33.607  41.368  12.908
98159W        W63639  22.236  28.929   0.814
98160W        W63640   8.189  14.222  14.979
98161W        W63641  11.677   7.244  13.810
98162W        W63642   9.223  18.191   5.110
98163W        W63643  37.992  25.146   5.113
98164W        W63644  23.668  32.530   4.647
98165W        W63645   6.798  28.951  11.478
98166W        W63646  29.527   2.244  12.426
98167W        W63647  27.451   6.380   3.716
98168W        W63648  29.518  43.437  12.359
98169W        W63649   1.396  17.300   0.858
98170W        W63650  42.884  22.654  14.397
98171W        W63651  15.103  26.002   4.669
98172W        W63652  22.078  34.914  14.926
98173W        W63653  25.563  28.179  14.766
98174W        W63654   9.320  42.421   1.869
98175W        W63655  33.545  31.635  14.381
98176W        W63656  12.723  43.932  13.440
98177W        W63657  44.389   9.812  14.400
98178W        W63658  26.198  27.594  10.985
98179W        W63659  37.478  39.500  11.529
98180W        W63660   3.221  33.939  12.086
98181W        W63661  43.399  27.494  14.464
98182W        W63662  41.433  41.339   3.166
98183W        W63663  17.755  28.576   0.906
98184W        W63664  25.604  19.142  14.878
98185W        W63665  27.557  33.625  12.415
98186W        W63666  27.113  22.611   4.682
98187W        W63667  29.952  28.072   1.402
98188W        W63668  23.099  36.035  12.890
98189W        W63669  16.590  21.030   0.961
98190W        W63670  38.346  22.169   3.829
98191W        W63671  33.965  41.480   1.349
98192W        W63672   8.355  29.921   0.331
98193W        W63673  34.882   5.407  14.766
98194W        W63674  31.405  44.281   1.874
98195W        W63675  19.703   8.893  14.459
98196W        W63676  27.981   6.910  10.113
98197W        W63677  17.113  35.856   1.229
98198W        W63678  36.549  30.644  13.028
98199W        W63679  43.453  25.206  14.851
98200W        W63680   3.362  11.184  10.565
98201W        W63681   8.796  35.600   0.759
98202W        W63682  23.214  27.688  12.530
98203W        W63683  25.640  40.894   2.243
98204W        W63684  28.075  16.086  14.440
98205W        W63685   3.732   3.713  14.956
98206W        W63686  28.150   4.753   3.258
98207W        W63687  24.017   2.446   2.371
98208W        W63688  37.964  42.009   0.464
98209W        W63689  36.979  29.048   3.217
98210W        W63690  44.395   5.270  10.479
98211W        W63691  11.701   8.671   1.215
98212W        W63692  43.440  12.848  11.097
98213W        W63693  13.604  20.237   1.216
98214W        W63694   9.184  16.712  13.944
98215W        W63695   7.744  22.717  12.889
98216W        W63696  29.005  34.110   3.782
98217W        W63697  17.206  37.469   3.170
98218W        W63698   3.256  12.322  11.508
98219W        W63699  24.136   7.846  12.988
98220W        W63700  13.186  13.351   1.859
98221W        W63701  33.381  32.119  12.495
98222W        W63702  42.490   5.881   0.841
98223W        W63703   4.736   6.255  12.996
98224W        W63704  15.290   2.470   2.412
98225W        W63705   6.895  10.722   3.383
98226W        W63706   2.903  26.978   4.332
98227W        W63707  13.632  23.002  13.809
98228W        W63708  10.318  33.029  10.959
98229W        W63709  25.486   6.201   2.409
98230W        W63710  30.981  24.064   3.262
98231W        W63711  11.371  23.110  12.949
98232W        W63712  44.962  19.160  14.932
98233W        W63713  33.427  39.823  10.553
98234W        W63714  24.126  40.352  13.512
98235W        W63715  28.932  40.547   1.280
98236W        W63716  38.418   0.387   3.375
98237W        W63717   9.376  15.192   3.242
98238W        W63718  24.053  34.421  13.328
98239W        W63719  43.934  35.108  11.099
98240W        W63720  29.523  22.659   1.806
98241W        W63721  16.118  25.132   3.762
98242W        W63722  28.052   1.269  12.532
98243W        W63723  36.556  30.917   1.878
98244W        W63724  26.638  35.571  13.542
98245W        W63725   7.781  36.408   5.148
98246W        W63726  13.799  42.288  13.308
98247W        W63727  18.062  42.426  13.899
98248W        W63728  43.391  34.034  14.968
98249W        W63729  30.011  10.684   0.442
98250W        W63730   7.402  25.469  10.596
98251W        W63731   7.381  30.052  12.038
98252W        W63732  41.952  15.167   0.271
98253W        W63733  27.026  41.525  14.947
98254W        W63734  14.285  37.917   3.223
98255W        W63735  13.772  10.754   4.334
98256W        W63736   7.255   5.882  10.611
98257W        W63737  38.530  17.699   4.181
98258W        W63738  31.453  40.938   2.303
98259W        W63739  40.462  41.381   1.410
98260W        W63740  36.428  10.672   3.272
98261W        W63741  27.969  16.657   1.772
98262W        W63742  19.559   9.216   3.360
98263W        W63743   7.757  20.273  14.350
98264W        W63744  13.671   2.778   0.318
98265W        W63745  38.018  15.677  12.004
98266W        W63746  35.534   5.265   4.184
98267W        W63747  18.146  29.555  12.092
98268W        W63748  26.999  38.387   0.343
98269W        W63749   0.922  23.501  12.009
98270W        W63750  33.587  23.611   3.241
98271W        W63751  37.081  12.260   4.170
98272W        W63752  41.450   8.254   2.767
98273W        W63753  43.988  15.636   4.621
98274W        W63754   4.348  23.545  11.977
98275W        W63755  17.115  40.337   1.698
98276W        W63756  25.163  31.929  13.907
98277W        W63757  43.462  38.447   3.195
98278W        W63758   5.789  24.524   3.686
98279W        W63759  40.887   9.828   4.605
98280W        W63760  10.369  37.392  12.398
98281W        W63761  21.651  25.212   5.172
98282W        W63762  39.353  29.556  12.348
98283W        W63763  22.589  35.546   3.645
98284W        W63764  40.382  34.569   4.682
98285W        W63765  17.688  24.090   3.725
98286W        W63766   3.943  13.801   3.380
98287W        W63767  16.745  25.571  12.032
98288W        W63768  11.200  25.217   4.224
98289W        W63769  40.367  31.571  13.954
98290W        W63770  37.037  25.553  13.427
98291W        W63771   7.208  31.463  10.631
98292W        W63772  12.241  26.698   4.837
98293W        W63773  12.641  11.767  14.509
98294W        W63774  17.745  18.645  10.466
98295W        W63775  43.396   3.264  12.927
98296W        W63776  20.675   1.364   0.408
98297W        W63777  34.976  24.494   4.600
98298W        W63778  18.197  30.521   4.197
98299W        W63779  43.812  42.887  10.462
98300W        W63780  43.889  43.962   0.781
98301W        W63781  33.917   5.778   3.746
98302W        W63782  26.027  30.914  12.377
98303W        W63783  38.326  27.626  12.456
98304W        W63784  19.741  34.513   4.627
98305W        W63785  31.627  16.663  12.828
98306W        W63786  17.160   6.916   1.699
98307W        W63787  29.172  11.209   0.376
98308W        W63788  34.891  43.959   1.750
98309W        W63789  23.014   9.875   2.730
98310W        W63790  18.067  13.186   2.318
98311W        W63791  21.733  41.340   1.907
98312W        W63792   0.318  32.075  14.024
98313W        W63793  39.817  17.131   0.739
98314W        W63794  26.482  42.923   4.138
98315W        W63795  11.730  12.810   3.178
98316W        W63796  38.849  43.796  14.469
98317W        W63797   2.407  12.720   3.232
98318W        W63798  11.811  40.835  10.920
98319W        W63799  43.467   5.765  11.419
98320W        W63800  22.547  27.940   3.206
98321W        W63801  43.824  43.384   2.724
98322W        W63802  17.296  19.044   3.271
98323W        W63803  15.124  27.540   0.317
98324W        W63804  26.466  37.412  13.801
98325W        W63805  33.974  36.452   1.277
98326W        W63806   6.801  27.687   2.668
98327W        W63807  11.235   9.282  13.972
98328W        W63808  27.008  31.562   2.346
98329W        W63809   8.708   6.865  12.395
98330W        W63810  16.201  30.944  13.503
98331W        W63811  20.143  15.603  10.555
98332W        W63812   7.792  18.230  13.442
98333W        W63813  38.376  37.946   3.348
98334W        W63814  37.009  24.145  11.375
98335W        W63815  13.846  18.054   4.314
98336W        W63816  40.023  15.203   3.223
98337W        W63817  16.157  34.882  12.555
98338W        W63818  16.086  14.611  11.491
98339W        W63819  17.625   2.400  13.988
98340W        W63820  32.558  19.554   0.829
98341W        W63821  29.561  25.658  13.470
98342W        W63822  42.388  31.096  10.470
98343W        W63823  22.018  18.690  12.916
98344W        W63824  19.539  37.478   2.781
98345W        W63825  39.041  23.107   1.244
98346W        W63826  43.935  29.521   0.302
98347W        W63827  38.871  35.069   4.721
98348W        W63828   2.231  33.386   1.387
98349W        W63829   6.401   5.690   2.317
98350W        W63830  20.234  43.849  14.004
98351W        W63831  30.656  10.859  11.941
98352W        W63832  42.955  21.524  10.896
98353W        W63833   5.383  11.358  10.979
98354W        W63834   3.346  12.816   4.776
98355W        W63835  35.092  41.454   1.237
98356W        W63836  28.956  30.047  13.821
98357W        W63837  39.979   9.213   4.168
98358W        W63838   3.724  33.120   0.261
98359W        W63839  20.062   1.798   3.871
98360W        W63840  16.737   9.816  11.103
98361W        W63841  34.507  18.091   3.279
98362W        W63842  10.742  14.182   0.249
98363W        W63843  31.104  40.007   4.275
98364W        W63844  40.966  34.071   2.409
98365W        W63845  25.155  24.121  13.039
98366W        W63846   9.824  20.632  11.417
98367W        W63847  34.419  25.091  10.604
98368W        W63848  22.112  36.088  11.391
98369W        W63849  24.590  25.131   4.751
98370W        W63850   5.689  22.640   0.467
98371W        W63851  12.740  39.895   4.119
98372W        W63852  20.653  32.488   2.792
98373W        W63853  28.544  33.425   0.727
98374W        W63854  38.359   8.664  14.982
98375W        W63855  20.134  19.608  11.528
98376W        W63856  38.466  11.807  13.542
98377W        W63857  37.837  32.931  14.430
98378W        W63858  25.086  15.219   2.191
98379W        W63859   4.837  21.653   0.728
98380W        W63860   1.893   2.254   2.215
98381W        W63861  24.100  20.544   1.362
98382W        W63862  41.816  12.210  14.003
98383W        W63863   3.386  21.227   3.691
98384W        W63864  30.497  32.989   3.352
98385W        W63865  11.852  38.826   0.365
98386W        W63866  16.306  28.460   2.283
98387W        W63867   2.810  24.220  10.580
98388W        W63868  20.040  10.144   0.962
98389W        W63869  38.908  32.593   2.790
98390W        W63870  33.419  22.027  14.440
98391W        W63871  15.089  21.237   1.289
98392W        W63872  33.988   6.687  13.864
98393W        W63873  44.322  28.590   3.302
98394W        W63874  23.101   2.792   3.658
98395W        W63875  22.529  21.045   2.202
98396W        W63876  36.938  27.946   4.833
98397W        W63877   4.218  26.614  12.371
98398W        W63878  32.562   7.268   0.729
98399W        W63879  28.636  23.230  14.008
98400W        W63880   3.878  17.611   2.758
98401W        W63881  30.141  44.265  14.469
98402W        W63882  29.020  21.526  12.096
98403W        W63883  30.999  39.366   3.670
98404W        W63884   7.751  20.169   1.331
98405W        W63885  17.236  42.523   9.948
98406W        W63886  35.569  31.405   4.664
98407W        W63887  14.108   9.369  11.517
98408W        W63888  26.089  24.182  12.522
98409W        W63889  44.795  26.123   4.149
98410W        W63890  39.006  23.542  14.468
98411W        W63891  17.094  18.646   2.396
98412W        W63892   8.801   4.731  11.898
98413W        W63893  11.302  26.505  12.396
98414W        W63894   5.727  32.550   1.319
98415W        W63895  26.580  33.954  12.996
98416W        W63896  17.061   9.798   4.184
98417W        W63897  22.741  36.841   2.264
98418W        W63898  17.765  15.211   4.793
98419W        W63899  39.856  16.611  11.111
98420W        W63900  27.018  18.765  12.489
98421W        W63901  32.119   2.425   2.866
98422W        W63902  19.695  11.745  10.986
98423W        W63903  14.822  44.360   0.743
98424W        W63904  37.883  13.184  10.903
98425W        W63905  19.255  39.900  11.940
98426W        W63906  35.569  19.575  10.537
98427W        W63907  15.813  21.661   2.819
98428W        W63908  21.159  36.094  14.367
98429W        W63909  15.232  11.253   3.792
98430W        W63910   5.746  18.242   2.736
98431W        W63911   3.790   6.838  10.582
98432W        W63912   1.302   2.341   0.287
98433W        W63913  37.049  12.764  13.806
98434W        W63914   1.259  37.080   3.824
98435W        W63915  40.030  16.714   1.743
98436W        W63916  42.340  18.119   2.363
98437W        W63917   3.258  13.135  11.976
98438W        W63918  20.079  21.634   1.221
98439W        W63919   0.768  28.963   2.384
98440W        W63920   7.267  20.210   3.633
98441W        W63921   6.728  43.841  12.348
98442W        W63922   6.428  26.970   3.764
98443W        W63923   3.893   3.301  12.997
98444W        W63924  44.843  16.158   1.444
98445W        W63925  10.254  34.863   0.272
98446W        W63926  38.938  41.870   1.413
98447W        W63927   3.219  27.487   4.810
98448W        W63928   8.715  13.817  10.431
98449W        W63929  44.291  42.362   9.979
98450W        W63930  13.814  43.772   2.388
98451W        W63931  28.566  39.514   0.341
98452W        W63932  16.785  31.925   3.738
98453W        W63933  23.627  26.142  10.546
98454W        W63934  23.679  10.176  12.998
98455W        W63935  20.572  21.103  14.299
98456W        W63936   0.437  20.751   4.204
98457W        W63937  26.006  29.160   0.757
98458W        W63938  10.782  34.071  10.469
98459W        W63939   0.290  17.777  10.582
98460W        W63940  15.085  44.504   0.834
98461W        W63941  37.971   1.785  11.539
98462W        W63942   6.223  19.173  12.078
98463W        W63943  44.953   9.802   0.304
98464W        W63944   4.775  40.849  14.899
98465W        W63945  12.788  20.574  13.530
98466W        W63946   6.216  28.126   3.833
98467W        W63947  29.490  13.845   2.238
98468W        W63948  24.176  29.046  12.463
98469W        W63949  41.857  27.140   1.283
98470W        W63950  18.209  14.134   4.609
98471W        W63951   7.882  23.070  14.499
98472W        W63952   1.908   9.156   3.810
98473W        W63953  26.520  35.031   0.385
98474W        W63954  34.610  21.025   0.829
98475W        W63955   3.302   4.373   0.360
98476W        W63956  27.143  44.754   1.779
98477W        W63957  32.982  15.634   2.793
98478W        W63958  14.192   9.654  13.870
98479W        W63959   2.790  31.537  11.973
98480W        W63960   5.703  31.986   0.342
98481W        W63961   6.302   0.292  10.513
98482W        W63962  30.065   8.718   2.389
98483W        W63963  38.831  18.260   1.434
98484W        W63964   7.211  30.123   3.674
98485W        W63965  19.056  35.544  12.532
98486W        W63966  16.300  43.311   0.287
98487W        W63967  28.467  13.790  13.916
98488W        W63968  21.149  22.564   4.201
98489W        W63969  38.384  21.626   4.312
98490W        W63970  11.298  29.993   0.451
98491W        W63971  40.508   3.840  11.861
98492W        W63972  34.090  17.300   1.703
98493W        W63973  15.815  35.946   0.280
98494W        W63974  32.458  37.364  10.580
98495W        W63975  34.438  32.532   2.890
98496W        W63976   8.242   8.237  14.894
98497W        W63977  41.331  16.665   0.888
98498W        W63978  39.003  22.065  11.010
98499W        W63979  43.371   9.731   3.319
98500W        W63980   3.709  12.211   3.374
98501W        W63981  33.967  33.074   1.815
98502W        W63982   7.666  27.120  11.555
98503W        W63983  14.746  14.761  14.380
98504W        W63984  26.166  41.952  13.375
98505W        W63985  19.063  34.448  10.996
98506W        W63986   0.343  20.734   1.362
98507W        W63987  37.932  10.311  12.005
98508W        W63988  33.576  41.795   0.286
98509W        W63989  32.521   7.897   0.477
98510W        W63990  26.997   9.207  13.484
98511W        W63991  21.071  33.518   3.809
98512W        W63992   4.234  17.250  14.467
98513W        W63993  11.158  17.655   4.647
98514W        W63994  16.269   1.750  13.948
98515W        W63995  37.432  39.316   1.392
98516W        W63996  25.128   2.232  13.915
98517W        W63997  29.078  33.027  12.922
98518W        W63998  24.022  40.395  10.531
98519W        W63999   2.428  30.507   3.280
98520W        W64000  21.536  26.014  13.795
98521W        W64001  39.849  10.294   1.298
98522W        W64002  42.461   4.767   0.354
98523W        W64003  33.571  29.135  10.420
98524W        W64004  29.078  44.333   4.213
98525W        W64005  18.130  24.172   4.268
98526W        W64006  17.180  26.617   3.725
98527W        W64007  15.725  38.026   3.367
98528W        W64008   2.909   6.249   1.896
98529W        W64009  27.560  12.207  12.528
98530W        W64010  27.682  43.925  12.463
98531W        W64011  22.170  28.559  10.573
98532W        W64012   9.878  13.654   3.204
98533W        W64013   2.746  24.204  12.013
98534W        W64014   2.881   6.372   1.347
98535W        W64015  29.130  41.932   1.218
98536W        W64016   5.892  37.915  12.952
98537W        W64017   8.842  14.798   0.462
98538W        W64018  41.513  40.908  14.516
98539W        W64019  14.199  19.260   0.262
98540W        W64020  35.056  13.207  10.642
98541W        W64021  19.163  16.635  13.329
98542W        W64022  41.340   1.817   2.279
98543W        W64023  20.583  15.262   2.220
98544W        W64024  32.087  33.051  11.039
98545W        W64025  42.946  11.316  14.408
98546W        W64026   5.195  34.386  12.918
98547W        W64027  20.722  32.599   4.760
98548W        W64028   2.286  19.620  14.401
98549W        W64029   6.297  10.714  13.342
98550W        W64030   4.364   9.766   2.710
98551W        W64031  16.218  44.975   3.308
98552W        W64032  17.217  11.670  12.049
98553W        W64033  36.017  44.776   4.123
98554W        W64034  25.702  42.356   4.808
98555W        W64035  25.600  23.211   3.789
98556W        W64036  14.275  38.890  13.845
98557W        W64037  32.430   5.690   4.669
98558W        W64038   4.420   3.442  11.519
98559W        W64039  28.581  19.699   4.651
98560W        W64040   6.828   6.290   2.242
98561W        W64041  38.414  24.151   1.835
98562W        W64042  17.199   8.776  10.979
98563W        W64043   8.716  14.732  11.874
98564W        W64044  29.054  11.795  11.435
98565W        W64045   2.795  18.615   0.838
98566W        W64046  28.539  14.835  10.549
98567W        W64047  31.020  37.883   1.375
98568W        W64048   7.818  27.028   0.282
98569W        W64049   9.845  22.187  11.878
98570W        W64050   0.946   0.744   5.258
98571W        W64051  24.582  44.954  11.930
98572W        W64052  28.968  23.684  14.847
98573W        W64053  41.408  17.228  14.032
98574W        W64054   1.417  16.621   2.361
98575W        W64055  15.232  41.410   4.240
98576W        W64056   5.781   5.879  14.007
98577W        W64057  22.680  42.449  11.436
98578W        W64058  11.772  28.644  12.830
98579W        W64059  16.652  41.896  13.040
98580W        W64060  13.267   3.437  13.520
98581W        W64061  15.167  17.573   1.908
98582W        W64062  39.882  17.714   4.659
98583W        W64063  21.064  40.996  11.925
98584W        W64064  39.476  41.474  11.065
98585W        W64065  26.207  32.482  12.480
98586W        W64066  16.636  35.866  12.929
98587W        W64067  20.644   7.299   2.281
98588W        W64068  25.214  27.525   2.254
98589W        W64069  27.579  13.680   1.906
98590W        W64070   0.260  16.567  11.536
98591W        W64071  16.076  26.170  12.088
98592W        W64072   1.900  35.430  13.928
98593W        W64073   0.765   7.798  14.309
98594W        W64074  13.136  26.061  12.387
98595W        W64075  15.812  19.164   4.175
98596W        W64076   5.417  26.544  14.307
98597W        W64077  15.792  41.991  10.445
98598W        W64078  34.531   4.878   1.319
98599W        W64079  20.135   5.360   3.349
98600W        W64080  27.090  26.953   1.847
98601W        W64081  16.736  31.146  14.281
98602W        W64082  34.371  44.479   2.689
98603W        W64083  29.141  32.546  11.390
98604W        W64084  23.093   7.212  12.867
98605W        W64085   0.340  14.136  12.958
98606W        W64086   3.304   8.875   0.829
98607W        W64087  33.463  17.211  11.003
98608W        W64088  17.133  25.186  13.544
98609W        W64089  28.028  40.514  10.642
98610W        W64090  16.283   6.273   4.763
98611W        W64091  31.465  10.660   4.698
98612W        W64092   7.226   0.356  14.280
98613W        W64093  31.449  42.387   2.265
98614W        W64094  41.915  12.725   1.708
98615W        W64095  31.630  15.207   0.370
98616W        W64096  29.640  37.907   1.371
98617W        W64097   6.787  27.985  12.948
98618W        W64098   0.853   3.278  14.512
98619W        W64099  24.018  23.225  10.555
98620W        W64100  44.317  11.777   3.865
98621W        W64101   4.331  28.104   1.843
98622W        W64102  43.876  24.547   2.205
98623W        W64103   9.726  42.296   2.704
98624W        W64104   7.887  43.435  14.809
98625W        W64105  28.996  36.495  14.789
98626W        W64106   7.187  30.008  12.892
98627W        W64107  14.739  29.000   3.226
98628W        W64108  42.995  19.759  14.790
98629W        W64109   2.255  10.327  12.026
98630W        W64110   7.188  25.084   1.248
98631W        W64111  13.838  22.533   3.646
98632W        W64112  31.477  30.570   2.397
98633W        W64113  23.025  37.978  10.461
98634W        W64114  23.073  16.704   2.382
98635W        W64115   8.356  40.303   3.315
98636W        W64116   1.248   4.440   0.935
98637W        W64117  29.063  12.144  10.891
98638W        W64118  30.489  37.562   9.957
98639W        W64119   8.854  19.218   3.221
98640W        W64120  42.379  25.542   4.229
98641W        W64121  23.008  37.524  12.031
98642W        W64122   8.218  39.463   1.335
98643W        W64123   1.960  19.627  12.450
98644W        W64124   9.649  34.920   1.410
98645W        W64125  35.429  42.348  11.442
98646W        W64126  42.917   6.731   3.170
98647W        W64127  23.519  30.932  12.096
98648W        W64128   0.433  33.410   1.412
98649W        W64129  16.686   6.886  13.963
98650W        W64130  16.277   5.902   3.157
98651W        W64131  36.069  32.900  10.540
98652W        W64132   2.963  34.443  12.043
98653W        W64133  43.886  28.955  12.522
98654W        W64134   0.949   2.895  10.470
98655W        W64135   2.342  43.790  13.018
98656W        W64136  35.494  16.100  15.000
98657W        W64137  23.565  11.316  14.947
98658W        W64138  38.898   6.709   3.151
98659W        W64139  40.531  41.871   2.326
98660W        W64140  36.063  33.443   3.806
98661W        W64141  36.052  37.963   0.794
98662W        W64142   7.337  22.509  11.056
98663W        W64143  40.365  29.047  10.595
98664W        W64144  32.418   2.904   3.329
98665W        W64145  33.394  34.049   1.233
98666W        W64146  42.990  31.437   4.306
98667W        W64147  25.613  36.385   1.353
98668W        W64148  23.079   0.923  13.343
98669W        W64149   4.927   6.357   0.321
98670W        W64150  19.776   1.466   0.286
98671W        W64151  14.202  35.491   5.216
98672W        W64152  25.514  14.179   0.438
98673W        W64153  34.061  24.072   4.713
98674W        W64154  36.936  23.735  11.466
98675W        W64155  14.316  12.615   3.195
98676W        W64156  23.729  35.918   1.227
98677W        W64157   2.907  12.645   1.903
98678W        W64158  28.647  16.768  13.006
98679W        W64159  12.167   3.256  12.878
98680W        W64160  32.422  37.480  13.539
98681W        W64161  14.626   3.262  12.894
98682W        W64162   1.751  24.503   1.212
98683W        W64163  14.305  24.128  10.407
98684W        W64164  42.363  28.572  12.368
98685W        W64165  17.201   2.928   2.699
98686W        W64166  14.662   5.363   4.200
98687W        W64167  34.043  13.689   1.784
98688W        W64168   5.264  29.534   3.813
98689W        W64169  31.981  11.809   1.851
98690W        W64170  41.981   3.219  10.582
98691W        W64171  18.696   2.315   0.828
98692W        W64172  40.961  34.947   4.749
98693W        W64173  26.162  35.059  11.011
98694W        W64174  43.507  38.471   0.375
98695W        W64175  27.553  31.541  13.541
98696W        W64176  18.645  44.451   3.300
98697W        W64177   3.231   5.843   3.339
98698W        W64178  16.144   3.918   0.317
98699W        W64179  18.218   5.840   2.272
98700W        W64180  22.125   3.792  13.918
98701W        W64181   9.762   4.448  14.945
98702W        W64182  27.625  13.343   3.177
98703W        W64183   9.889   2.257  13.456
98704W        W64184  18.744   0.783  10.931
98705W        W64185   5.416  43.857   3.337
98706W        W64186   5.735  38.944   4.788
98707W        W64187  29.940   1.322   2.303
98708W        W64188  42.418  11.775   1.432
98709W        W64189   9.882  28.533  12.941
98710W        W64190   4.771  28.046  10.562
98711W        W64191  33.048   2.819  10.993
98712W        W64192   1.352   3.424   2.386
98713W        W64193   4.449  26.149   3.154
98714W        W64194  43.967  36.966  10.989
98715W        W64195  41.426  32.066   2.243
98716W        W64196  24.675  39.482   0.434
98717W        W64197  26.473  20.529   4.324
98718W        W64198  12.703  16.210   2.824
98719W        W64199  20.125  30.474  13.493
98720W        W64200  14.270  12.233   1.701
98721W        W64201  15.292  11.235   3.296
98722W        W64202  12.172  37.864   4.720
98723W        W64203  11.137  28.596  12.946
98724W        W64204   6.826  18.278   4.676
98725W        W64205  26.536  39.539   1.817
98726W        W64206  33.623  27.082   2.351
98727W        W64207  20.708  22.046  13.051
98728W        W64208  43.800  30.433   0.899
98729W        W64209   2.797  16.812   3.283
98730W        W64210  26.969  26.019  14.363
98731W        W64211   8.869  15.296  10.071
98732W        W64212   8.722   5.332   2.840
98733W        W64213  24.084  10.307   4.265
98734W        W64214  26.543  39.036  14.951
98735W        W64215  43.299  16.214   2.753
98736W        W64216  13.786  11.821  11.035
98737W        W64217  28.054  23.645   4.619
98738W        W64218  34.487  24.048   4.607
98739W        W64219  10.299  25.121  12.429
98740W        W64220  36.855  18.112   0.415
98741W        W64221  32.936  21.650  11.081
98742W        W64222  25.208  41.996  12.537
98743W        W64223  37.919  39.847  14.990
98744W        W64224   4.358   2.324   0.879
98745W        W64225  37.470   2.903  14.786
98746W        W64226  44.002   1.473  14.459
98747W        W64227   2.269  27.190   4.335
98748W        W64228  36.963  11.176  14.885
98749W        W64229  26.018  44.783  13.457
98750W        W64230  17.170  10.710  13.890
98751W        W64231   1.249  40.048  13.473
98752W        W64232  29.491  24.687   3.739
98753W        W64233  39.431   8.165   3.336
98754W        W64234   7.826  41.363  14.325
98755W        W64235  19.176  37.436   0.442
98756W        W64236  38.482  19.678  13.366
98757W        W64237  38.874  11.221   3.191
98758W        W64238  37.011  32.511   3.309
98759W        W64239  43.274  22.071   0.344
98760W        W64240  27.064   5.891   2.701
98761W        W64241  44.984  35.009  13.940
98762W        W64242   5.816   2.390  14.872
98763W        W64243   7.829   4.220   2.313
98764W        W64244   5.319   4.253   1.304
98765W        W64245   1.891   9.819   0.353
98766W        W64246  23.984  17.748   4.605
98767W        W64247   9.250  39.808  14.920
98768W        W64248  27.483  30.467  14.850
98769W        W64249  11.667  42.784  13.409
98770W        W64250  16.760  16.170   4.172
98771W        W64251  29.652   5.375   1.879
98772W        W64252  32.997  43.792   0.871
98773W        W64253   6.417  38.906  13.951
98774W        W64254   4.432   9.196   2.239
98775W        W64255   7.755  30.468   2.188
98776W        W64256   4.900  14.124  13.883
98777W        W64257  19.750  12.141   2.672
98778W        W64258  35.902  10.781   4.837
98779W        W64259  19.041   0.445   3.366
98780W        W64260  15.217   6.356  10.973
98781W        W64261  42.404   1.929   3.357
98782W        W64262  44.332   7.879  13.483
98783W        W64263   7.693   2.790  11.467
98784W        W64264  24.068   2.941   1.406
98785W        W64265  32.926  38.971  13.034
98786W        W64266  37.941  14.710   1.744
98787W        W64267  28.482  43.999  14.370
98788W        W64268  20.196  11.227   2.320
98789W        W64269  26.646  31.115  12.378
98790W        W64270  34.544  30.149   2.281
98791W        W64271  13.237  19.620   3.215
98792W        W64272  10.355  26.156  12.051
98793W        W64273  19.152  24.105   5.178
98794W        W64274  30.549  20.529  10.444
98795W        W64275  12.720  12.841  14.935
98796W        W64276   8.359  20.240  14.966
98797W        W64277  18.732   6.882  11.054
98798W        W64278  29.021  17.732  14.414
98799W        W64279  34.902   1.777  13.324
98800W        W64280  36.537  44.827   4.597
98801W        W64281  28.947   4.792  11.454
98802W        W64282  29.120  10.802  10.474
98803W        W64283  31.153  32.037   2.321
98804W        W64284   2.934  39.973  14.425
98805W        W64285  34.933  22.133   3.243
98806W        W64286  23.556  13.200   4.267
98807W        W64287   9.297  35.439  13.503
98808W        W64288   3.309  37.510  10.492
98809W        W64289   4.344  26.981   2.367
98810W        W64290  21.056  11.327   2.315
98811W        W64291  14.190  10.351   1.745
98812W        W64292  35.927  26.198  13.950
98813W        W64293  22.144  10.263  13.432
98814W        W64294  34.027  23.059   1.350
98815W        W64295   9.816  44.788   0.831
98816W        W64296  25.075   5.771   0.771
98817W        W64297  22.159   0.310   9.564
98818W        W64298  36.079  10.675   0.919
98819W        W64299  16.706  32.475   3.829
98820W        W64300   5.207   2.778  10.423
98821W        W64301  30.943  44.489  14.962
98822W        W64302  17.670  43.310  10.431
98823W        W64303  20.685   5.294  14.832
98824W        W64304  11.287  39.993  12.886
98825W        W64305  22.240  31.522   0.447
98826W        W64306  37.022  11.772  12.381
98827W        W64307   4.794   1.793  11.446
98828W        W64308   2.352  35.071   0.369
98829W        W64309  12.782  36.398   2.818
98830W        W64310  22.016  33.442  14.811
98831W        W64311  39.482  40.435  12.421
98832W        W64312  26.131  28.481   3.768
98833W        W64313  10.239  14.607   3.657
98834W        W64314  15.634  32.029   1.316
98835W        W64315  41.318  37.542  11.078
98836W        W64316  11.765  44.489  14.920
98837W        W64317  44.806   0.955  11.093
98838W        W64318   8.174   4.221  12.095
98839W        W64319  31.625   8.720   1.718
98840W        W64320   0.903  22.012  11.390
98841W        W64321  15.694  32.489   3.697
98842W        W64322   1.349  41.843   4.177
98843W        W64323  35.065  37.362   4.212
98844W        W64324  31.563  41.321  14.471
98845W        W64325  38.937  27.090  11.542
98846W        W64326  24.088  34.103  12.470
98847W        W64327  13.326  38.892  10.133
98848W        W64328  41.897  29.041   5.224
98849W        W64329  28.104  30.565   1.390
98850W        W64330  27.582  25.994  14.883
98851W        W64331  28.505  41.898   3.853
98852W        W64332  26.567  32.944  14.879
98853W        W64333  43.781   0.448  13.875
98854W        W64334  10.644  18.715   0.456
98855W        W64335  29.608  40.448   3.634
98856W        W64336  26.132   7.323   3.239
98857W        W64337  43.507  31.538  14.003
98858W        W64338   2.459   9.336  10.918
98859W        W64339  13.169  33.098  12.003
98860W        W64340  29.068   8.183  10.934
98861W        W64341   0.858  13.111   0.382
98862W        W64342  44.477  12.222   0.834
98863W        W64343  25.112  14.229  10.554
98864W        W64344   0.473  31.577  13.961
98865W        W64345  42.787  14.113   2.297
98866W        W64346  23.695  13.842   2.809
98867W        W64347  41.959  27.077  13.836
98868W        W64348  17.686  39.934   4.126
98869W        W64349  36.444  18.765  14.935
98870W        W64350   0.951  28.929  13.486
98871W        W64351   3.340  23.703  10.540
98872W        W64352  15.690   0.451  14.843
98873W        W64353  35.915  17.785  10.465
98874W        W64354  27.006  17.188  10.045
98875W        W64355  36.451   6.796  11.403
98876W        W64356   8.781  34.370   3.837
98877W        W64357   3.752  35.437   1.828
98878W        W64358  21.258  21.074   3.257
98879W        W64359  23.505  30.477   0.479
98880W        W64360  23.206  38.414   4.688
98881W        W64361  42.411  36.025  13.435
98882W        W64362  33.402  39.968   0.851
98883W        W64363  40.394  21.164  14.940
98884W        W64364  10.646   1.432  11.866
98885W        W64365  32.023  21.676   0.330
98886W        W64366  41.971  30.048   0.465
98887W        W64367  13.135  16.310  12.979
98888W        W64368  20.724  14.152  13.947
98889W        W64369  42.367   3.934  14.298
98890W        W64370  24.138  44.859  11.456
98891W        W64371  32.042  29.122   1.299
98892W        W64372  29.991  17.687   3.689
98893W        W64373  35.009  28.568  11.887
98894W        W64374  12.762   7.294   2.718
98895W        W64375  42.456  23.648   2.384
98896W        W64376   0.466  43.498   4.641
98897W        W64377  42.979  31.916   2.738
98898W        W64378  26.056   3.245   3.191
98899W        W64379   2.929  44.386  13.440
98900W        W64380  16.094  35.366   3.146
98901W        W64381  24.034  24.601   4.708
98902W        W64382   7.401   6.694   0.435
98903W        W64383   8.324  23.617   4.140
98904W        W64384  29.547  14.732  13.380
98905W        W64385  13.343  19.221  11.052
98906W        W64386  31.910  13.291   2.859
98907W        W64387  30.436  28.125   2.222
98908W        W64388  16.567  12.120   4.787
98909W        W64389  23.687  39.927   2.748
98910W        W64390   3.427  34.382  10.048
98911W        W64391  38.549  26.510  11.547
98912W        W64392  39.976   2.238   3.772
98913W        W64393  44.326   5.430  13.996
98914W        W64394  30.960   7.901  13.990
98915W        W64395  42.932   4.778   2.769
98916W        W64396  23.081  35.564  13.481
98917W        W64397  41.883  33.944  11.032
98918W        W64398   8.255  25.700   3.634
98919W        W64399  26.034  21.237  11.431
98920W        W64400   8.849  11.787  12.484
98921W        W64401  32.098  15.759  11.918
98922W        W64402  16.105  11.814  11.533
98923W        W64403  21.125   5.924   4.672
98924W        W64404  29.503   5.808   4.608
98925W        W64405   4.300  14.817  11.465
98926W        W64406  29.975   2.837  14.364
98927W        W64407  10.702  12.362  12.044
98928W        W64408  13.619   7.177   4.612
98929W        W64409  11.364  29.539   3.233
98930W        W64410  36.498  41.314   2.738
98931W        W64411  34.066  27.486  12.530
98932W        W64412  14.747   6.892   0.927
98933W        W64413  30.529  31.021   1.722
98934W        W64414  19.173  33.103   2.702
98935W        W64415  28.556  44.822   1.442
98936W        W64416  10.643  29.064   3.211
98937W        W64417   9.235   9.763  11.963
98938W        W64418  43.331  40.997  13.024
98939W        W64419  20.748   8.884  13.958
98940W        W64420   4.408  16.700  12.527
98941W        W64421  28.479  24.000   1.352
98942W        W64422  37.075  41.474   4.810
98943W        W64423  44.274  12.348  12.850
98944W        W64424  11.278  44.774   3.707
98945W        W64425  28.516  35.468  13.311
98946W        W64426  41.019  30.987  14.006
98947W        W64427   1.450  42.422  12.085
98948W        W64428  23.702  34.095  11.049
98949W        W64429  16.118   1.247  11.058
98950W        W64430  24.533  34.882  11.920
98951W        W64431  16.290  23.108  12.052
98952W        W64432  34.001  34.968  10.482
98953W        W64433  13.318  21.607  14.994
98954W        W64434   2.886  34.024   1.366
98955W        W64435  22.105  21.646   1.230
98956W        W64436  40.486  21.038   4.164
98957W        W64437  14.206  19.144   4.660
98958W        W64438   7.413  15.730  14.497
98959W        W64439  20.135  35.955  12.913
98960W        W64440  40.474  24.718   2.188
98961W        W64441  21.592  16.119   0.435
98962W        W64442   3.723   2.747   4.273
98963W        W64443   3.765  27.104  14.329
98964W        W64444  28.123  18.146  11.968
98965W        W64445  33.949  25.186   1.770
98966W        W64446  42.450  36.420   3.262
98967W        W64447  43.935  43.400  11.507
98968W        W64448   4.820  37.957   2.805
98969W        W64449  23.177  18.702   2.667
98970W        W64450  20.101  43.993   1.234
98971W        W64451  24.112  26.053  10.481
98972W        W64452  42.801  44.391   1.442
98973W        W64453  22.537  35.524   0.922
98974W        W64454  30.638   7.245  11.930
98975W        W64455  30.022   0.854   3.773
98976W        W64456  27.052  30.481  14.764
98977W        W64457  12.802  25.696   1.421
98978W        W64458  43.467  32.034   4.234
98979W        W64459  31.039   3.263   3.724
98980W        W64460  28.937  29.623   2.184
98981W        W64461  37.341  40.394  14.780
98982W        W64462   5.232   0.358  14.319
98983W        W64463  27.531  11.277   4.284
98984W        W64464  25.664   6.226  13.827
98985W        W64465  29.534  41.871  14.829
98986W        W64466  43.014  24.062   3.169
98987W        W64467   8.804  23.215  14.881
98988W        W64468  39.448  42.031  13.374
98989W        W64469   7.751  32.042  14.421
98990W        W64470  42.911  43.940   1.897
98991W        W64471  18.591  37.004  10.503
98992W        W64472  30.576  30.022  12.966
98993W        W64473   9.757  28.131   4.279
98994W        W64474  14.207  25.059  11.020
98995W        W64475  43.321  36.452   4.193
98996W        W64476  33.435   0.848   4.717
98997W        W64477  30.141   7.278  14.868
98998W        W64478  31.962   8.388  13.371
98999W        W64479  15.220   8.245   3.753
99000W        W64480  39.414   5.760  12.971
99001W        W64481   1.432  20.643   1.754
99002W        W64482   2.872  10.806   3.857
99003W        W64483  23.191  32.561   1.329
99004W        W64484   2.392   9.685  11.426
99005W        W64485  36.462  35.466   3.379
99006W        W64486  35.005   2.298   2.888
99007W        W64487   9.788   3.712   1.795
99008W        W64488  39.827  29.046   1.724
99009W        W64489  14.798  37.055  13.495
99010W        W64490  40.895  22.208   2.798
99011W        W64491   8.211  38.557   4.221
99012W        W64492   1.954  13.625  13.874
99013W        W64493  29.942  42.524  11.560
99014W        W64494  36.059  39.037  12.051
99015W        W64495  36.550  27.041  14.843
99016W        W64496  19.645  22.201  13.871
99017W        W64497  19.588  36.425   4.761
99018W        W64498   5.837   7.366   3.318
99019W        W64499  33.475  22.632  12.523
99020W        W64500  20.544  32.894  12.422
99021W        W64501   0.769   5.281  13.380
99022W        W64502  29.636  35.553  11.910
99023W        W64503  19.699  39.839  12.850
99024W        W64504  24.673  27.484  12.380
99025W        W64505  23.019   5.301  11.437
99026W        W64506   4.329  24.974   2.370
99027W        W64507  19.679  16.598   1.446
99028W        W64508  21.590   0.867   0.469
99029W        W64509  37.922  18.066   0.815
99030W        W64510  34.961  37.388  12.037
99031W        W64511   0.924   0.493   4.830
99032W        W64512  14.244  20.269  14.807
99033W        W64513   0.411  31.016   3.211
99034W        W64514  31.000   0.876  10.600
99035W        W64515  34.915   9.858  10.557
99036W        W64516   5.904  12.813  10.458
99037W        W64517  21.538   7.261  12.866
99038W        W64518  36.440  32.410   2.282
99039W        W64519  32.974   2.389  13.380
99040W        W64520   9.346  26.150   4.247
99041W        W64521   0.922  35.961  11.889
99042W        W64522  27.944   6.918   2.692
99043W        W64523  24.628  30.554  11.595
99044W        W64524   5.871  14.663   3.708
99045W        W64525   5.795  11.247  11.108
99046W        W64526  40.306  29.983   3.637
99047W        W64527   5.279   2.865  13.919
99048W        W64528  10.689   7.856   4.804
99049W        W64529   3.914  43.971  12.828
99050W        W64530  30.553  23.202  11.908
99051W        W64531   0.440  29.588   4.341
99052W        W64532   7.356  14.647  12.397
99053W        W64533  11.866  17.273  12.450
99054W        W64534  23.733  42.934   4.783
99055W        W64535  41.345  27.063  10.442
99056W        W64536  38.919  36.349   1.395
99057W        W64537  44.817  20.744   0.758
99058W        W64538  12.822  10.328  11.488
99059W        W64539  10.246   8.308  12.067
99060W        W64540  36.592   4.865  11.413
99061W        W64541  11.187   4.208  13.061
99062W        W64542  31.451  38.547  12.396
99063W        W64543  26.644  36.005   9.938
99064W        W64544   4.425  28.935  14.872
99065W        W64545  31.630  10.769   3.703
99066W        W64546  34.495   7.198   0.249
99067W        W64547  20.598  39.063   1.801
99068W        W64548   0.277  32.941  10.919
99069W        W64549   1.383  43.985   4.281
99070W        W64550  44.404  21.055  11.608
99071W        W64551  18.206  27.006  14.349
99072W        W64552  22.742   4.864   1.384
99073W        W64553   5.348  26.576  11.980
99074W        W64554  26.700  11.764   5.256
99075W        W64555  35.508  26.462  12.544
99076W        W64556  13.228  13.290   0.343
99077W        W64557  29.429  11.738  10.612
99078W        W64558  21.692  26.572   4.833
99079W        W64559  32.471  30.035  12.354
99080W        W64560  18.241  26.186  12.533
99081W        W64561  41.957  39.931   3.289
99082W        W64562  21.545  36.993  12.349
99083W        W64563  25.697  43.451  11.512
99084W        W64564  17.790  39.409  12.441
99085W        W64565  28.066   5.229   2.251
99086W        W64566  36.924   4.375  11.011
99087W        W64567   4.843  40.343  14.930
99088W        W64568  15.299  12.244   5.226
99089W        W64569  14.269  33.064  13.460
99090W        W64570  12.152   5.313   0.439
99091W        W64571  18.238  35.939   1.711
99092W        W64572  40.366   1.807   1.319
99093W        W64573  30.547  39.447  10.490
99094W        W64574   0.748  27.186   3.718
99095W        W64575   1.411  32.475  12.574
99096W        W64576  43.007   3.909  10.105
99097W        W64577  11.273  30.492  14.933
99098W        W64578  11.361  37.497   0.944
99099W        W64579  32.422   6.374   0.765
99100W        W64580  21.075   2.820  12.929
99101W        W64581  23.015   7.894  12.480
99102W        W64582   4.804   0.866   0.296
99103W        W64583  30.610  17.724  14.022
99104W        W64584  25.558   3.885  14.919
99105W        W64585  14.321  32.542  12.045
99106W        W64586  26.600  35.372   0.824
99107W        W64587  17.141  43.494  14.782
99108W        W64588  39.324   8.792  13.061
99109W        W64589  25.187  35.395   1.288
99110W        W64590   6.420  33.614  13.474
99111W        W64591   9.208  23.683  11.482
99112W        W64592  21.514  44.269  11.416
99113W        W64593  12.666  44.300   0.387
99114W        W64594   5.281  14.697   3.274
99115W        W64595  12.118  35.871  14.974
99116W        W64596   5.777   9.272   0.839
99117W        W64597  20.238  40.315   3.275
99118W        W64598  17.743  18.708   1.821
99119W        W64599  12.738   1.731  12.986
99120W        W64600   5.764  43.987  10.537
99121W        W64601  24.531  12.318   1.284
99122W        W64602  37.470  34.489  13.967
99123W        W64603   5.775  41.446   2.180
99124W        W64604  30.028  18.227   4.718
99125W        W64605  44.888  32.402   3.813
99126W        W64606  38.916  29.512   1.808
99127W        W64607  21.238   9.354   0.951
99128W        W64608  18.124  37.413  14.906
99129W        W64609  32.939   0.441   4.173
99130W        W64610  39.373  16.634  14.776
99131W        W64611  14.288   1.772  11.509
99132W        W64612  36.039  25.984   0.951
99133W        W64613  11.300  10.238   2.787
99134W        W64614  12.273   9.723  10.907
99135W        W64615  40.528  20.681   4.638
99136W        W64616  17.279  43.767  11.577
99137W        W64617  21.688  23.116  14.859
99138W        W64618  24.214  14.662   2.800
99139W        W64619  29.573   8.401   2.236
99140W        W64620   1.359  33.000   1.353
99141W        W64621  17.182   9.817   2.878
99142W        W64622   6.815  26.023   0.830
99143W        W64623  31.576   0.294   2.744
99144W        W64624  43.829  11.251   1.352
99145W        W64625  10.143  39.464   3.781
99146W        W64626  38.847  36.853  10.921
99147W        W64627  35.522  15.251  14.390
99148W        W64628  39.428  22.200   3.786
99149W        W64629  22.510  27.020   3.376
99150W        W64630  20.071  26.069  12.066
99151W        W64631  40.920   7.745  11.541
99152W        W64632   1.336   8.822  11.537
99153W        W64633  34.900  11.333   3.190
99154W        W64634   7.717  43.311   2.688
99155W        W64635  10.144  43.874  14.284
99156W        W64636   6.209  44.959  14.769
99157W        W64637  34.469   9.198  10.455
99158W        W64638  33.565  31.493   1.749
99159W        W64639  38.896  40.799   2.245
99160W        W64640  17.637  35.557  14.467
99161W        W64641  35.101  19.574   9.980
99162W        W64642  10.709  25.035   4.759
99163W        W64643  26.531   4.437   4.830
99164W        W64644  19.196  38.331   0.388
99165W        W64645  32.439  32.531  11.562
99166W        W64646  30.422  25.621  13.836
99167W        W64647   3.261  29.018  11.459
99168W        W64648  37.566  43.808   1.812
99169W        W64649  43.496  24.581  14.335
99170W        W64650  18.115   7.851   3.695
99171W        W64651  31.912   4.785  11.379
99172W        W64652  36.476  12.757  14.977
99173W        W64653  35.464  21.713   4.627
99174W        W64654  39.896  38.379   2.742
99175W        W64655   6.696  41.301   2.880
99176W        W64656  35.422  14.671  12.543
99177W        W64657  14.819  33.892   0.814
99178W        W64658  18.103  41.327   4.319
99179W        W64659   5.846   0.426   2.191
99180W        W64660  29.987   7.207   4.749
99181W        W64661  13.654  23.211   4.338
99182W        W64662  41.337  31.517   0.787
99183W        W64663  43.512  31.630   0.252
99184W        W64664   2.244  41.419   1.800
99185W        W64665  20.704   1.967  13.861
99186W        W64666  35.510  35.077  12.038
99187W        W64667  23.238  21.075  13.037
99188W        W64668  18.545  15.596   0.251
99189W        W64669   5.246  31.639   4.118
99190W        W64670  35.576   4.215   2.777
99191W        W64671  18.157  32.613  13.028
99192W        W64672  15.679  32.584  10.623
99193W        W64673  12.723  17.693   2.841
99194W        W64674  20.237  26.952   0.860
99195W        W64675  12.249  41.455  12.037
99196W        W64676  12.202  33.041  10.493
99197W        W64677  37.402  23.051  13.834
99198W        W64678   3.268   7.268   0.450
99199W        W64679  13.216  25.201   1.349
99200W        W64680  26.103   8.317   1.400
99201W        W64681  38.539  36.897  13.916
99202W        W64682  40.949  17.761   3.684
99203W        W64683   1.392  17.183  12.827
99204W        W64684  15.083  38.985  10.447
99205W        W64685  39.398  10.138   4.288
99206W        W64686  16.183  25.087   0.428
99207W        W64687  44.795  29.081  14.877
99208W        W64688  27.025   1.270   3.647
99209W        W64689  42.351   6.299   5.187
99210W        W64690  10.635  22.617  12.084
99211W        W64691  34.553  33.611  12.872
99212W        W64692  10.315  11.337   4.263
99213W        W64693  18.552  30.153   5.100
99214W        W64694  36.444  26.086  11.118
99215W        W64695  11.252  11.131   2.776
99216W        W64696   0.420  24.599  12.970
99217W        W64697  40.527   4.773  14.282
99218W        W64698   6.211  14.274  10.562
99219W        W64699  30.947  18.129   5.190
99220W        W64700  10.225  27.169   4.318
99221W        W64701  40.518   2.228  13.052
99222W        W64702   1.308  42.413   2.876
99223W        W64703  14.338  39.435  10.589
99224W        W64704  41.441   6.209   1.835
99225W        W64705  31.087  10.850   1.894
99226W        W64706  31.437   3.427  13.943
99227W        W64707  31.609  42.967   2.407
99228W        W64708  42.782  21.633  13.444
99229W        W64709  34.406  35.971  11.083
99230W        W64710  36.096  27.497   3.229
99231W        W64711  14.114  43.306   2.683
99232W        W64712  15.585  15.689   3.335
99233W        W64713  32.016   0.466  10.089
99234W        W64714  33.964  30.135   2.391
99235W        W64715  11.824  11.652   4.766
99236W        W64716  19.581  35.538  11.048
99237W        W64717   3.716   6.315  11.566
99238W        W64718  16.594  18.083   3.863
99239W        W64719   8.807  34.908   5.310
99240W        W64720  28.094  23.183   1.321
99241W        W64721  31.438   6.748  12.982
99242W        W64722  17.577  16.689  13.047
99243W        W64723  42.448   7.254   4.201
99244W        W64724  13.319  44.345   0.433
99245W        W64725  31.000  40.474   4.695
99246W        W64726  24.112  37.833  14.291
99247W        W64727  23.006   1.475   2.280
99248W        W64728  12.806   5.810  10.484
99249W        W64729   7.887   3.953   0.881
99250W        W64730  32.484  42.455   0.853
99251W        W64731   4.895  22.148   3.690
99252W        W64732  25.630  24.543   3.747
99253W        W64733   4.754  23.601  14.319
99254W        W64734  23.556   8.711   2.222
99255W        W64735   0.276   5.216  12.983
99256W        W64736  38.939  37.948   4.328
99257W        W64737   6.820  25.113  13.393
99258W        W64738  32.034  38.365  11.935
99259W        W64739  35.068  36.500  14.864
99260W        W64740  41.432   6.326  11.552
99261W        W64741  41.004  25.965   4.203
99262W        W64742  10.224  32.139   3.847
99263W        W64743   4.214  19.686  11.426
99264W        W64744   8.806  29.434  10.958
99265W        W64745  37.562  18.153  14.810
99266W        W64746  33.982  36.891  13.049
99267W        W64747   3.230  18.071  13.900
99268W        W64748  20.121  39.047  13.057
99269W        W64749  29.568  43.373  11.000
99270W        W64750  32.892  38.022   2.385
99271W        W64751  33.408  10.770  14.314
99272W        W64752  35.542  43.497   1.403
99273W        W64753   4.765  43.466  11.442
99274W        W64754  42.286  21.536  13.432
99275W        W64755  12.660  32.554  13.851
99276W        W64756   3.392   5.436  12.080
99277W        W64757  44.499   9.848  13.526
99278W        W64758  19.680  15.586   4.731
99279W        W64759  43.858   0.487   0.855
99280W        W64760  30.418   2.364  14.827
99281W        W64761  31.412  13.656   0.363
99282W        W64762  32.058  14.623  10.924
99283W        W64763  26.696  31.143  14.786
99284W        W64764  29.543   0.436   2.824
99285W        W64765   9.879  37.424   1.416
99286W        W64766   6.393  22.539   3.788
99287W        W64767  31.897   7.222  12.515
99288W        W64768  22.156  34.428  10.456
99289W        W64769  42.931  19.043  12.567
99290W        W64770   5.331  22.615  10.928
99291W        W64771  38.873  43.794  12.446
99292W        W64772  40.540  31.497   0.282
99293W        W64773  14.667   4.794   1.895
99294W        W64774  18.613  17.703   4.199
99295W        W64775  20.713  18.176   0.954
99296W        W64776  13.330  11.197  11.403
99297W        W64777  19.163  12.666   2.873
99298W        W64778  17.261  34.086   2.397
99299W        W64779   0.833  26.121   1.303
99300W        W64780  12.838   7.211  13.513
99301W        W64781   0.786   4.916   1.782
99302W        W64782   1.832   4.804   4.122
99303W        W64783  27.156   3.304  10.445
99304W        W64784  26.067  19.592  12.458
99305W        W64785  43.497  20.605  11.539
99306W        W64786   8.185  35.603  14.435
99307W        W64787   7.349  10.250  13.041
99308W        W64788  22.198  28.607  12.938
99309W        W64789  26.974  22.550   0.401
99310W        W64790  14.143  22.649   4.252
99311W        W64791  10.291  27.952  14.895
99312W        W64792  27.467  18.086   4.143
99313W        W64793  39.925   5.270   4.259
99314W        W64794   2.395  20.164  12.889
99315W        W64795  32.518  22.574   9.920
99316W        W64796  44.764  40.489  13.432
99317W        W64797  20.120  14.625  12.370
99318W        W64798  12.682   0.933  12.859
99319W        W64799  34.876   4.432  13.320
99320W        W64800  25.204  28.486  12.575
99321W        W64801  42.009  25.137   3.768
99322W        W64802  11.782  34.964  12.874
99323W        W64803  22.086  21.179   2.707
99324W        W64804   2.455  18.134  11.973
99325W        W64805  25.519   0.902  10.482
99326W        W64806   6.251  18.607   1.295
99327W        W64807  23.699  10.695  13.451
99328W        W64808  19.245   2.401   4.832
99329W        W64809  16.105   4.238   2.313
99330W        W64810  31.110  26.468  12.071
99331W        W64811  29.574   5.797   1.792
99332W        W64812   7.398   5.864   4.121
99333W        W64813  31.513  18.190   4.313
99334W        W64814  27.141  15.129   3.863
99335W        W64815   6.311  40.035  12.074
99336W        W64816   2.852   5.721   0.326
99337W        W64817  42.326  13.730   0.794
99338W        W64818  12.124   1.958  11.057
99339W        W64819  24.576   2.929  14.434
99340W        W64820   9.393  29.642   4.766
99341W        W64821   0.306  25.162   2.805
99342W        W64822  37.858  35.998  11.045
99343W        W64823   6.299   6.733   0.902
99344W        W64824  22.080  32.564  14.968
99345W        W64825   2.454  13.620   1.880
99346W        W64826   7.242   5.846  12.858
99347W        W64827  32.517  12.199   4.342
99348W        W64828  29.003   1.880   1.832
99349W        W64829   7.413  32.583  13.912
99350W        W64830  22.999   2.958   0.394
99351W        W64831  31.504  36.415  11.413
99352W        W64832  25.507  34.570   0.746
99353W        W64833  11.660  23.555  14.032
99354W        W64834  19.055   2.422  13.868
99355W        W64835  35.081  18.750   1.307
99356W        W64836  30.939  42.005   1.908
99357W        W64837  22.159  16.131  14.911
99358W        W64838  22.666  23.218   0.454
99359W        W64839  21.090   5.402  12.016
99360W        W64840  22.678  41.514  11.014
99361W        W64841  25.626  11.741  10.922
99362W        W64842  40.534  44.944   3.662
99363W        W64843  23.570  24.552  10.615
99364W        W64844  10.758  39.066   4.212
99365W        W64845   9.341   2.937   0.795
99366W        W64846   4.395   1.411   2.410
99367W        W64847   5.693  29.497  12.842
99368W        W64848  34.907  26.484  11.548
99369W        W64849  42.946  38.437  13.828
99370W        W64850  30.914   0.453   0.325
99371W        W64851  28.678  18.249   4.615
99372W        W64852  24.995   1.294  11.907
99373W        W64853  20.636  16.688  13.330
99374W        W64854   8.313  42.477  12.361
99375W        W64855  12.727  40.436  14.808
99376W        W64856   8.296  35.382  11.906
99377W        W64857  18.665  28.666  14.960
99378W        W64858  37.882  25.677   4.790
99379W        W64859  15.146   7.179  10.585
99380W        W64860  37.007  22.694  10.434
99381W        W64861   6.716   0.768  14.319
99382W        W64862  40.460  41.406  12.036
99383W        W64863  14.740  40.490   5.164
99384W        W64864  37.478  15.109  12.408
99385W        W64865  40.986  20.234   2.418
99386W        W64866   4.735   7.721   3.696
99387W        W64867  16.305  43.867   0.460
99388W        W64868   7.182   3.353   3.696
99389W        W64869  11.204  20.551   2.779
99390W        W64870  43.440  17.237   1.375
99391W        W64871  34.087  19.198  14.763
99392W        W64872   0.300  14.698   2.707
99393W        W64873  39.426  20.267  12.912
99394W        W64874  31.089  15.094  13.852
99395W        W64875   2.843   3.752  14.502
99396W        W64876  16.212  30.436  10.995
99397W        W64877  39.463   0.471   0.784
99398W        W64878   9.306  15.659  11.528
99399W        W64879  35.596   2.369  12.353
99400W        W64880   6.271  40.834   4.234
99401W        W64881  36.021   3.718  12.033
99402W        W64882  43.297  27.681   1.293
99403W        W64883  31.954   9.816  14.925
99404W        W64884  35.603   5.793  13.501
99405W        W64885  10.708  22.067   4.162
99406W        W64886  23.703   7.252   1.303
99407W        W64887   5.914   8.362  11.936
99408W        W64888  20.094  14.242   3.684
99409W        W64889  40.921  18.625   2.862
99410W        W64890  16.582  27.137  14.977
99411W        W64891  28.973  14.224   4.672
99412W        W64892  10.266  31.115   1.410
99413W        W64893   9.345  17.705  14.335
99414W        W64894  26.526  34.987  13.040
99415W        W64895  41.906  22.610   2.367
99416W        W64896  26.620  39.926   2.329
99417W        W64897  33.415  19.194   1.800
99418W        W64898  34.888  19.270   4.293
99419W        W64899   1.331  32.134   4.754
99420W        W64900   6.702  14.616   0.946
99421W        W64901   6.732  11.156   3.357
99422W        W64902  28.590  43.507   1.832
99423W        W64903  27.185   2.840   2.181
99424W        W64904  14.301  20.556   4.630
99425W        W64905   5.855  25.653  12.974
99426W        W64906  44.884  24.015  13.928
99427W        W64907  34.998  16.097  11.444
99428W        W64908  31.477   8.228  13.429
99429W        W64909  36.089  26.483  12.407
99430W        W64910  25.142  31.984  14.818
99431W        W64911  23.588   3.879  10.599
99432W        W64912  14.664  32.015   1.434
99433W        W64913  22.724  16.741   3.146
99434W        W64914   8.656  27.958   0.252
99435W        W64915  44.480  26.654  14.986
99436W        W64916  10.161  11.142   3.320
99437W        W64917  19.637  43.774  14.426
99438W        W64918  42.526  30.416  11.519
99439W        W64919  27.991  21.218  13.031
99440W        W64920  27.941  30.567  10.006
99441W        W64921  40.459  11.248   1.285
99442W        W64922   1.747  18.075   4.252
99443W        W64923  42.895  11.267  13.838
99444W        W64924  14.789  25.135  13.429
99445W        W64925   7.816  21.125  11.496
99446W        W64926   8.897  20.722  14.370
99447W        W64927  14.643  31.490   3.148
99448W        W64928   1.849  41.479   4.771
99449W        W64929  10.697   2.834   1.407
99450W        W64930  21.624   7.907  11.923
99451W        W64931  30.982  12.219  13.042
99452W        W64932  23.662  21.642  13.970
99453W        W64933   0.782  22.049   2.767
99454W        W64934   3.774  15.113  11.578
99455W        W64935  32.616  15.241  14.909
99456W        W64936  38.042  18.193  10.105
99457W        W64937  38.917  22.704   3.687
99458W        W64938  33.505  43.019   4.613
99459W        W64939  21.711  16.671   4.616
99460W        W64940  12.613  16.775  12.359
99461W        W64941  29.481  35.948  11.576
99462W        W64942   7.890  14.682   3.307
99463W        W64943   9.209  11.756   0.830
99464W        W64944  11.339  20.195  11.401
99465W        W64945  24.000  20.588   3.350
99466W        W64946  27.027  39.389   2.291
99467W        W64947  26.506  39.832  13.467
99468W        W64948   1.389  21.593   3.631
99469W        W64949  13.671  44.829   3.748
99470W        W64950  20.672  33.595  10.522
99471W        W64951  24.612  37.449   4.165
99472W        W64952  19.779  22.719   5.234
99473W        W64953  12.298  19.591   1.923
99474W        W64954  21.519  22.738  12.513
99475W        W64955  37.466  44.767   2.768
99476W        W64956  14.268  19.770  13.854
99477W        W64957  20.554  17.623  11.577
99478W        W64958  25.108  38.988  13.312
99479W        W64959  17.604   2.333  10.905
99480W        W64960  21.072  21.235   0.771
99481W        W64961  29.982  33.574  10.992
99482W        W64962  25.091  16.668  13.047
99483W        W64963   5.882   8.357   4.130
99484W        W64964   3.906   4.876  13.948
99485W        W64965  28.531  28.514   1.235
99486W        W64966  36.549  16.649   0.928
99487W        W64967   7.885  27.538  12.035
99488W        W64968  21.117  21.708   0.934
99489W        W64969   5.906  41.397   4.659
99490W        W64970  24.101   1.273  13.403
99491W        W64971  44.477   8.253  15.000
99492W        W64972  21.634  34.497  10.586
99493W        W64973  18.714  22.603  13.309
99494W        W64974  28.539  22.535   2.326
99495W        W64975   9.659   2.829  11.426
99496W        W64976  25.176  24.502   0.836
99497W        W64977  26.684  38.893  10.960
99498W        W64978  22.723  23.138   4.118
99499W        W64979   7.405  30.414   1.746
99500W        W64980  20.656  13.641   3.790
99501W        W64981  13.626   6.383  14.966
99502W        W64982   4.313  43.847  12.371
99503W        W64983  33.401   2.466   0.856
99504W        W64984   2.412  40.370   3.308
99505W        W64985   9.703  44.451  14.480
99506W        W64986   0.492  22.740   0.798
99507W        W64987  13.839  28.968  14.793
99508W        W64988  32.060  24.000   4.793
99509W        W64989   8.381  39.508  10.947
99510W        W64990  28.440  22.715   3.164
99511W        W64991  14.691  34.603  13.450
99512W        W64992  42.427  10.851  13.792
99513W        W64993  24.215  31.940  12.447
99514W        W64994  17.248  24.719  13.938
99515W        W64995  21.569  31.908  11.028
99516W        W64996  33.021  36.957  13.520
99517W        W64997   0.864   4.436   2.356
99518W        W64998  41.446  17.111   2.664
99519W        W64999  25.555  37.425   1.813
99520W        W65000   6.832  35.999   1.230
99521W        W65001  16.279  28.008   4.725
99522W        W65002   0.373  44.283  10.900
99523W        W65003   7.274  28.946  12.061
99524W        W65004   1.734  42.491  14.420
99525W        W65005   3.736  35.928  13.031
99526W        W65006  12.358  28.068   0.863
99527W        W65007  16.115   0.762   2.811
99528W        W65008  43.979  22.142  13.050
99529W        W65009   0.937  20.133  12.921
99530W        W65010  16.243   3.756   2.780
99531W        W65011  24.020   9.819   1.243
99532W        W65012  11.350  28.585  12.371
99533W        W65013  35.858  33.509   4.222
99534W        W65014   1.452  26.953  13.480
99535W        W65015  12.266  19.543   0.907
99536W        W65016  43.978  37.048  12.999
99537W        W65017  44.986  10.801   4.131
99538W        W65018  35.096   3.744   1.253
99539W        W65019  27.033  38.022   1.696
99540W        W65020  10.869   3.830  13.942
99541W        W65021  39.518  39.961  14.906
99542W        W65022   8.335  22.107  13.528
99543W        W65023  21.085   2.742  13.373
99544W        W65024   7.297  21.634  12.392
99545W        W65025  39.998  27.047  11.960
99546W        W65026   2.862  17.226   1.360
99547W        W65027  19.139  37.495   1.810
99548W        W65028  37.936  36.066  12.825
99549W        W65029  16.746  34.058   4.606
99550W        W65030   0.407  23.528  13.393
99551W        W65031  37.946  34.476   1.316
99552W        W65032  44.373  14.766   0.818
99553W        W65033  12.186   7.265   4.604
99554W        W65034  22.130  25.638  14.484
99555W        W65035  29.141  33.551  13.530
99556W        W65036   6.257  44.459   0.278
99557W        W65037  41.476  10.788   1.831
99558W        W65038  16.797  17.075  14.459
99559W        W65039  21.748  14.261  10.457
99560W        W65040  38.400  33.567   1.285
99561W        W65041   2.779  25.055   1.348
99562W        W65042  29.070   3.327  13.997
99563W        W65043   6.304  17.274   3.782
99564W        W65044  33.538  43.790  11.924
99565W        W65045  31.957   5.338  10.918
99566W        W65046  10.865   2.322   0.384
99567W        W65047  16.683   7.391  14.457
99568W        W65048  21.071  12.799   3.732
99569W        W65049  15.807  42.296  14.940
99570W        W65050  33.459  22.217   2.882
99571W        W65051  35.002  15.722   3.852
99572W        W65052  10.726  17.714  13.341
99573W        W65053  10.346  34.920   1.301
99574W        W65054  29.478  31.404   0.845
99575W        W65055   0.436  44.893  12.407
99576W        W65056   2.398  21.122  10.615
99577W        W65057  34.886  38.934  10.506
99578W        W65058   5.362  25.166  14.828
99579W        W65059  34.459  42.991   1.317
99580W        W65060  38.348   4.365  13.965
99581W        W65061   8.210  34.051   3.229
99582W        W65062  31.431  42.936  10.527
99583W        W65063  19.166  21.245  13.518
99584W        W65064  39.334  38.010  14.885
99585W        W65065   8.890  32.554   2.344
99586W        W65066  19.141   4.925   1.893
99587W        W65067  28.121  22.219  12.939
99588W        W65068   7.871   8.331   3.278
99589W        W65069  18.594  40.349  11.087
99590W        W65070   9.244  31.898  11.929
99591W        W65071  27.555   5.885  10.992
99592W        W65072  41.886  39.057   2.771
99593W        W65073   1.750  44.424   4.610
99594W        W65074  14.707  44.904   3.152
99595W        W65075  41.494  28.098  11.411
99596W        W65076  42.838  26.697  12.856
99597W        W65077   9.163  24.067   4.780
99598W        W65078  12.839  39.384   4.838
99599W        W65079  14.813  11.162  13.949
99600W        W65080  43.383  36.947   2.262
99601W        W65081  39.506  17.128   3.332
99602W        W65082   3.869   7.195   0.405
99603W        W65083  13.643  24.112  13.831
99604W        W65084  21.752  30.034  12.836
99605W        W65085  26.623  17.694   3.309
99606W        W65086  30.930  23.184   2.726
99607W        W65087  19.668  22.227  10.913
99608W        W65088   5.377  16.800  14.345
99609W        W65089  17.772  17.769  13.849
99610W        W65090   1.416  36.940   1.421
99611W        W65091  17.210  43.994  13.432
99612W        W65092   4.307  37.027   2.402
99613W        W65093   8.712  29.424  12.831
99614W        W65094  37.373   3.819  13.466
99615W        W65095   9.153  41.333  11.464
99616W        W65096  11.657  10.226   5.083
99617W        W65097   3.391  12.822  13.902
99618W        W65098  39.358  26.057  11.015
99619W        W65099   2.469  31.973  10.953
99620W        W65100   2.461  34.981   1.927
99621W        W65101  17.703  17.086   4.306
99622W        W65102  28.083  22.236   1.789
99623W        W65103   0.462   9.190  10.912
99624W        W65104  44.795  34.046   2.865
99625W        W65105  16.800  23.180  13.365
99626W        W65106   6.194   0.361  13.510
99627W        W65107  36.857  25.676   1.923
99628W        W65108  22.236   4.711   2.275
99629W        W65109  29.953   3.763  13.843
99630W        W65110  36.025  24.498  11.984
99631W        W65111  26.684  30.633   1.878
99632W        W65112   6.311  12.736   0.405
99633W        W65113  37.032  37.915   3.775
99634W        W65114   2.302  22.549   4.150
99635W        W65115   8.665  23.143   2.247
99636W        W65116   4.268  35.963   4.134
99637W        W65117  11.830  36.870   4.645
99638W        W65118  33.977  34.027  12.850
99639W        W65119  23.205   6.389   2.384
99640W        W65120  12.144  12.218   1.408
99641W        W65121   1.457  34.490   4.207
99642W        W65122  38.368   2.936   1.771
99643W        W65123   8.222  12.253  14.905
99644W        W65124   4.797  22.667  10.037
99645W        W65125  30.036  30.993  12.974
99646W        W65126  15.185  35.563   9.972
99647W        W65127  17.085  12.294   4.837
99648W        W65128  16.616  22.057  10.518
99649W        W65129   9.830  35.983  12.414
99650W        W65130  44.458   2.369  14.805
99651W        W65131  44.438  32.914   1.889
99652W        W65132  36.040  17.674  12.567
99653W        W65133  29.658   0.351   4.355
99654W        W65134  35.368  12.753   0.416
99655W        W65135  23.124  11.761   2.669
99656W        W65136  20.688  32.431   1.276
99657W        W65137  29.025  22.035   0.270
99658W        W65138  37.959  24.535   2.197
99659W        W65139  37.357  19.202  12.824
99660W        W65140   2.408  38.903  12.561
99661W        W65141   3.778  23.710   5.170
99662W        W65142  16.119  33.439   3.758
99663W        W65143  30.600  28.661   0.367
99664W        W65144   2.799  38.378  11.012
99665W        W65145  11.358   5.822  13.477
99666W        W65146  33.019  15.164  14.873
99667W        W65147  12.116   5.420   4.338
99668W        W65148  42.822  17.622  13.989
99669W        W65149  17.202  40.340   2.881
99670W        W65150  11.169  34.014  12.837
99671W        W65151   5.752  26.572  13.845
99672W        W65152  13.635  38.457   0.802
99673W        W65153  13.657  26.485  12.550
99674W        W65154  37.526  26.957  12.055
99675W        W65155  44.320   3.856   1.359
99676W        W65156  39.396  26.058  14.478
99677W        W65157  43.848  15.324   1.422
99678W        W65158   7.241  27.580  10.978
99679W        W65159  16.719  26.571  12.493
99680W        W65160  19.560  32.947   4.798
99681W        W65161  22.518  42.894   5.226
99682W        W65162  26.951  42.377   0.744
99683W        W65163  30.473  14.627   4.293
99684W        W65164  31.565   1.288   4.694
99685W        W65165   7.720  27.448  14.918
99686W        W65166  24.548  27.619  10.918
99687W        W65167   2.232  14.122   2.758
99688W        W65168  43.972   7.788  14.024
99689W        W65169   7.293  39.020  10.605
99690W        W65170   4.775  23.002  12.540
99691W        W65171  19.210   6.365  14.870
99692W        W65172  26.622  39.810   3.382
99693W        W65173  29.004  20.110  12.887
99694W        W65174  11.350  21.069   1.701
99695W        W65175   0.477   9.356   0.336
99696W        W65176   1.417   4.248  14.371
99697W        W65177  36.582  31.446   3.289
99698W        W65178  42.782  38.065  11.550
99699W        W65179  20.047  32.410   2.198
99700W        W65180  10.745  39.058   2.334
99701W        W65181   6.737  27.980   1.773
99702W        W65182  34.408  13.167  14.892
99703W        W65183  28.020  36.999   3.661
99704W        W65184  13.640   9.253   0.855
99705W        W65185  43.375  43.344  13.028
99706W        W65186   0.276   6.749  11.477
99707W        W65187   4.750  24.084   4.744
99708W        W65188  22.540   6.747   4.335
99709W        W65189  22.196  44.423   2.374
99710W        W65190   5.843   9.776   1.927
99711W        W65191  31.627  32.083   3.737
99712W        W65192  40.336  25.150   3.643
99713W        W65193   7.368  13.790   3.155
99714W        W65194   6.419   7.315  10.560
99715W        W65195  15.711  33.007  13.935
99716W        W65196   6.886  32.506  13.401
99717W        W65197  28.027  28.978   3.299
99718W        W65198  24.570  43.775  13.461
99719W        W65199  44.911   5.740   0.744
99720W        W65200  39.973  25.602  10.482
99721W        W65201  12.833   9.755   0.468
99722W        W65202  12.329   3.898   2.295
99723W        W65203  38.043  34.948  14.347
99724W        W65204   2.350  21.055  11.904
99725W        W65205  43.355  43.966  12.542
99726W        W65206  27.649   7.739   0.285
99727W        W65207  33.878  37.451   2.898
99728W        W65208   7.804  26.186  10.481
99729W        W65209  38.424  22.129  11.404
99730W        W65210  43.476  34.503  13.378
99731W        W65211  23.081   5.258   1.861
99732W        W65212  22.662  16.753   3.799
99733W        W65213  35.469   1.249   2.360
99734W        W65214   8.180  31.039  12.013
99735W        W65215  30.553  30.433   0.821
99736W        W65216   2.756  32.135   2.361
99737W        W65217  36.561   4.220   0.941
99738W        W65218   4.714   4.761   0.470
99739W        W65219  11.828  30.136  14.290
99740W        W65220   3.789  19.155  11.865
99741W        W65221  40.306   7.314  13.891
99742W        W65222   6.861  32.063  11.455
99743W        W65223  43.413  15.583   2.403
99744W        W65224  15.795   1.916   4.189
99745W        W65225   3.425  35.378  10.483
99746W        W65226  23.064  10.840  11.003
99747W        W65227  23.086   3.331   3.329
99748W        W65228  29.614  33.612   0.264
99749W        W65229  44.440  19.281   2.730
99750W        W65230   4.371  39.350   2.851
99751W        W65231  44.002  12.638   2.789
99752W        W65232   9.803   1.461   1.336
99753W        W65233   2.925   5.839  14.457
99754W        W65234  23.075  11.212   1.224
99755W        W65235   3.365  20.758  10.632
99756W        W65236  44.418  42.830  10.905
99757W        W65237  10.246  23.522  14.331
99758W        W65238   3.386  31.452   3.730
99759W        W65239   0.334  39.970  12.524
99760W        W65240  41.436   7.798   0.369
99761W        W65241  12.662  11.662   1.421
99762W        W65242  12.690  12.680   2.887
99763W        W65243  22.546  19.133   1.843
99764W        W65244  30.415  16.131   1.862
99765W        W65245   0.784  36.585  14.837
99766W        W65246   9.826   6.257  13.823
99767W        W65247  13.635  21.159  12.397
99768W        W65248  36.959  34.083  12.909
99769W        W65249  24.111  42.925   3.224
99770W        W65250  32.554   3.902   0.946
99771W        W65251  38.942  22.667  13.457
99772W        W65252  19.230  24.995   5.298
99773W        W65253  25.549   2.824   4.294
99774W        W65254  27.944   1.771   4.691
99775W        W65255  17.224   8.831   1.354
99776W        W65256  40.401  22.514  11.918
99777W        W65257  25.606  42.972   1.389
99778W        W65258   9.215  43.772  13.907
99779W        W65259  12.224  19.733   3.333
99780W        W65260  28.998  28.565   2.719
99781W        W65261   6.689  13.716   0.320
99782W        W65262   0.910  33.560   4.138
99783W        W65263  24.226  38.054  13.517
99784W        W65264  38.418  17.731   1.870
99785W        W65265  10.281  21.623  13.059
99786W        W65266  25.521   8.248  11.936
99787W        W65267  35.563   5.296   3.218
99788W        W65268  26.583  22.079  14.313
99789W        W65269  40.997  42.370  10.421
99790W        W65270  34.119  21.070   4.724
99791W        W65271  18.207  35.062   2.197
99792W        W65272  12.132  15.797   1.836
99793W        W65273  15.134  13.701  13.544
99794W        W65274  17.726  37.977   3.259
99795W        W65275  30.483  15.269   9.961
99796W        W65276  12.323  43.388   2.883
99797W        W65277   8.239   5.322   4.344
99798W        W65278   3.330  20.116   4.826
99799W        W65279  42.396  17.752  13.356
99800W        W65280  41.794  12.646  14.963
99801W        W65281  32.606  12.790   4.194
99802W        W65282   5.288  15.597   0.483
99803W        W65283  23.013   4.213   3.679
99804W        W65284  30.459  12.797  14.020
99805W        W65285  27.445  42.939   4.177
99806W        W65286  24.543  39.437  10.937
99807W        W65287   7.780  26.969   4.678
99808W        W65288  24.061   4.281   3.342
99809W        W65289  28.008  21.217   3.680
99810W        W65290  27.050  29.143  13.312
99811W        W65291  34.114  12.671  14.503
99812W        W65292  27.194  43.272  14.817
99813W        W65293  40.834  43.440   3.228
99814W        W65294  37.999  16.110   4.628
99815W        W65295   2.824  13.682   4.207
99816W        W65296  42.844   1.966   4.628
99817W        W65297  25.520  12.233   0.406
99818W        W65298  20.764  38.892   0.365
99819W        W65299   4.428  13.313  12.839
99820W        W65300  38.397  27.019  14.379
99821W        W65301  30.950  24.705  12.072
99822W        W65302  37.381  11.785  12.005
99823W        W65303  16.162  27.503   1.392
99824W        W65304  19.116  23.533   0.371
99825W        W65305  22.153   4.716   4.300
99826W        W65306  12.770  32.075   2.774
99827W        W65307  14.621  23.050  12.076
99828W        W65308  26.486  36.971   0.354
99829W        W65309  32.099  30.579   4.686
99830W        W65310  26.072  14.209   1.758
99831W        W65311   6.718  44.889   1.858
99832W        W65312  40.899  42.940   0.771
99833W        W65313  42.013  42.906   1.382
99834W        W65314  40.855  31.113  13.508
99835W        W65315  27.147  11.654   9.996
99836W        W65316   6.245  34.093  14.336
99837W        W65317   6.203  13.635  10.995
99838W        W65318  24.485  19.184   4.335
99839W        W65319  21.167  16.181   0.768
99840W        W65320  21.143  37.521  11.440
99841W        W65321  28.943  31.070   2.391
99842W        W65322   2.354  24.186   2.348
99843W        W65323  29.670  20.652   2.333
99844W        W65324  11.663  37.063   1.356
99845W        W65325  30.427  35.591   0.954
99846W        W65326  25.561  24.187  11.389
99847W        W65327  17.250  18.772  14.333
99848W        W65328   4.434   3.847   1.935
99849W        W65329  13.636  40.508  13.809
99850W        W65330  19.126  26.665  12.495
99851W        W65331  16.118  30.097   0.411
99852W        W65332  15.750  22.040  12.837
99853W        W65333   3.942  25.968   0.408
99854W        W65334   2.926  19.762   2.198
99855W        W65335  33.417  18.639  14.289
99856W        W65336   0.457   5.417   4.656
99857W        W65337  36.911  34.513   1.869
99858W        W65338  39.998   9.254   3.773
99859W        W65339  31.627   0.476  14.297
99860W        W65340  30.128  37.345   0.468
99861W        W65341  14.801  25.964   0.366
99862W        W65342  22.063  18.781   0.409
99863W        W65343   5.328  13.294  12.078
99864W        W65344  15.731  21.167   2.349
99865W        W65345   5.841  40.494   3.868
99866W        W65346  37.993  31.450  14.449
99867W        W65347  29.472   1.822   1.899
99868W        W65348   8.364  27.656   4.160
99869W        W65349  40.884  16.204  12.851
99870W        W65350  22.182   6.248  14.331
99871W        W65351   8.666  26.502  14.479
99872W        W65352  20.248  13.283   0.750
99873W        W65353  15.692  24.046  13.342
99874W        W65354  38.454   9.176   1.353
99875W        W65355  25.639  13.675   3.347
99876W        W65356  14.657  29.447  12.455
99877W        W65357  39.989   6.740  14.760
99878W        W65358  22.097  26.475   5.168
99879W        W65359  40.337   3.910   0.870
99880W        W65360  27.496  36.936   4.226
99881W        W65361  25.534   4.797  11.571
99882W        W65362   8.668  21.648   1.357
99883W        W65363  24.656  20.688  13.953
99884W        W65364  32.035  44.978   3.700
99885W        W65365  39.376  35.965  13.377
99886W        W65366   4.712  19.584  11.015
99887W        W65367   6.359  36.382  12.087
99888W        W65368  34.956   3.327  11.607
99889W        W65369  37.830  19.090  12.957
99890W        W65370  30.562  39.058  10.149
99891W        W65371   5.233   8.209   1.420
99892W        W65372   2.331  28.120  11.445
99893W        W65373  25.592   8.786  10.472
99894W        W65374  27.108  30.545  13.833
99895W        W65375   3.379  16.808  14.480
99896W        W65376  11.767   1.791  11.012
99897W        W65377   6.368  20.765  14.291
99898W        W65378   9.663  24.164   2.200
99899W        W65379  36.058   9.738  12.568
99900W        W65380   9.222  10.654   1.813
99901W        W65381  42.366  26.563   3.677
99902W        W65382   2.735   4.330  12.340
99903W        W65383  14.629  31.902   0.879
99904W        W65384  28.036  19.602   2.374
99905W        W65385  12.229  12.239   1.702
99906W        W65386  35.872   5.707  12.476
99907W        W65387  40.838  38.911   1.348
99908W        W65388  43.497  20.228   1.302
99909W        W65389  31.039   9.818   2.215
99910W        W65390  25.155  13.320   4.351
99911W        W65391  29.480  44.462   2.244
99912W        W65392  37.953   0.900  14.511
99913W        W65393  10.679  41.956  12.958
99914W        W65394  15.673  22.531   5.275
99915W        W65395  10.828  43.799   1.293
99916W        W65396   6.329   3.856  12.091
99917W        W65397  38.449  39.925   1.718
99918W        W65398   8.260  31.978   1.816
99919W        W65399   9.691  30.017   4.715
99920W        W65400  16.697  33.489  11.424
99921W        W65401  29.026  19.270  14.435
99922W        W65402  17.739   1.418  13.916
99923W        W65403  23.598  24.557   1.791
99924W        W65404  30.542   6.308   1.789
99925W        W65405  31.963  18.092   0.921
99926W        W65406  10.320  42.485   1.881
99927W        W65407  41.834  40.907   2.315
99928W        W65408   5.718  22.531   4.231
99929W        W65409   1.736  41.914   2.385
99930W        W65410  35.946  24.604   4.288
99931W        W65411  25.609   7.293   2.814
99932W        W65412  39.372  11.173   0.341
99933W        W65413  23.184  28.500   1.758
99934W        W65414  41.842  10.703  11.513
99935W        W65415  23.660   5.881   1.753
99936W        W65416  32.550  21.099   0.797
99937W        W65417   8.329  28.111  10.513
99938W        W65418  19.674   9.179   3.636
99939W        W65419  40.958  26.035  10.586
99940W        W65420  17.125  38.015   0.732
99941W        W65421  31.483  18.162  12.413
99942W        W65422  41.933  26.041  10.563
99943W        W65423  22.580   4.207  10.644
99944W        W65424  44.413  30.109  12.873
99945W        W65425  44.998  32.538  11.402
99946W        W65426  36.892   6.237   3.795
99947W        W65427  23.119  35.075  12.443
99948W        W65428   8.274  17.155  11.602
99949W        W65429  30.412   5.876  12.944
99950W        W65430  39.852   7.727  12.876
99951W        W65431  41.933  34.019  11.469
99952W        W65432  11.171  12.737   3.658
99953W        W65433  28.045   3.767  13.349
99954W        W65434   2.790  22.078  12.004
99955W        W65435  20.665  42.504   0.967
99956W        W65436  35.538   6.903   0.892
99957W        W65437   3.426  23.008   0.438
99958W        W65438  39.322   9.279  12.908
99959W        W65439  38.333  11.693  12.370
99960W        W65440   5.862  14.639   1.262
99961W        W65441  15.736  31.430  11.117
99962W        W65442   2.826  22.715   0.430
99963W        W65443  28.089  42.951  12.437
99964W        W65444  19.599  10.654   3.286
99965W        W65445  42.315  31.991   2.276
99966W        W65446  44.369  39.040   5.093
99967W        W65447  35.928  25.119   2.408
99968W        W65448  28.077   4.906  10.508
99969W        W65449  41.518  32.113  11.481
99970W        W65450   6.188  27.641  11.885
99971W        W65451  33.563  29.642  14.901
99972W        W65452  17.603  34.090  12.355
99973W        W65453  16.314  30.026  13.497
99974W        W65454  40.516  38.887  14.479
99975W        W65455   2.425   0.889   3.355
99976W        W65456   2.403   0.340   2.748
99977W        W65457  24.033  40.544   0.441
99978W        W65458  40.047  17.146  13.837
99979W        W65459  37.515   6.744  11.523
99980W        W65460  43.374  29.031   3.283
99981W        W65461   3.922   3.713   4.633
99982W        W65462  10.333  25.079  12.053
99983W        W65463  43.767  36.502   4.793
99984W        W65464   7.247   6.305   3.827
99985W        W65465  18.103  26.174   3.647
99986W        W65466  17.561   9.767  10.480
99987W        W65467  32.917  20.030   1.437
99988W        W65468  29.167   0.446  11.440
99989W        W65469  17.090  31.897   3.759
99990W        W65470  21.641  26.545   1.909
99991W        W65471  24.544  11.840  11.911
99992W        W65472  41.456  35.043   3.823
99993W        W65473  40.335  28.488  13.320
99994W        W65474  38.405  40.992  13.859
99995W        W65475  19.700  15.738  14.395
99996W        W65476  19.705   4.780   3.817
99997W        W65477  28.126  37.837   0.861
99998W        W65478   4.211   0.916   4.333
99999W        W65479  10.357  40.952  12.015
    0W        W65480  37.346   5.241  10.967
    1W        W65481  15.228  27.567  12.868
    2W        W65482  15.092  21.172  13.479
    3W        W65483  44.940  23.552  11.375
    4W        W65484   0.248   4.343  11.065
    5W        W65485  34.582  38.532  10.540
    6W        W65486  30.613  17.127  14.405
    7W        W65487  44.426  28.134  12.076
    8W        W65488  43.017  23.719  12.564
    9W        W65489  19.072  40.377  14.832
   10W        W65490  24.545  10.866   0.802
   11W        W65491   1.858  26.150  10.473
   12W        W65492  26.531  42.833   4.681
   13W        W65493   4.871  26.104  12.079
   14W        W65494  20.071  42.797   3.166
   15W        W65495  16.215  10.293   2.831
   16W        W65496  36.926  44.833   0.341
   17W        W65497  20.607  35.476   3.664
   18W        W65498  12.256  10.201  12.477
   19W        W65499  44.854  10.722  12.832
   20W        W65500  12.279   6.318   4.270
   21W        W65501  11.861   4.811  14.981
   22W        W65502  11.627  26.624  12.390
   23W        W65503  18.763  43.004  12.953
   24W        W65504   7.349   7.728  13.954
   25W        W65505  36.956  42.352   3.732
   26W        W65506   6.906   6.760   3.748
   27W        W65507  12.345  24.055   1.881
   28W        W65508   0.487  43.389   2.348
   29W        W65509  38.464   9.150   4.817
   30W        W65510  39.929  40.944  11.419
   31W        W65511  26.129  16.772   2.208
   32W        W65512  18.157  31.031  12.906
   33W        W65513  38.055  28.957  14.997
   34W        W65514  35.036  35.985  10.602
   35W        W65515  20.219  12.638   0.917
   36W        W65516  33.614  30.418   1.255
   37W        W65517   3.831   0.874   1.751
   38W        W65518   4.386  10.667   4.286
   39W        W65519  39.486  28.680  14.922
   40W        W65520  23.690   2.959  12.855
   41W        W65521   7.227  15.216   0.280
   42W        W65522   2.838   1.973   1.422
   43W        W65523  32.585  10.675  12.036
   44W        W65524  44.331  18.612   3.282
   45W        W65525  38.351  15.244   2.722
   46W        W65526   9.768   5.787  10.601
   47W        W65527   5.351  33.421   1.433
   48W        W65528  33.994  22.078   1.856
   49W        W65529  19.272  11.350  13.050
   50W        W65530  10.725  17.123  14.886
   51W        W65531  15.664  30.517   3.707
   52W        W65532  29.531  37.901   2.350
   53W        W65533  21.608  22.747   3.788
   54W        W65534  37.465  17.764  14.862
   55W        W65535  23.565  37.067   0.828
   56W        W65536  26.464  27.991   3.786
   57W        W65537  14.301  14.787   0.963
   58W        W65538   3.818  14.332  10.482
   59W        W65539  31.011   2.285   3.176
   60W        W65540   0.303  33.883  14.407
   61W        W65541   3.330  37.047   0.451
   62W        W65542  31.946  22.680   3.192
   63W        W65543  42.520  42.894   0.844
   64W        W65544   0.442   2.889  11.389
   65W        W65545  16.098   0.853   1.723
   66W        W65546   2.827  14.145  13.528
   67W        W65547   4.217  29.943  12.841
   68W        W65548  27.983  29.542   1.802
   69W        W65549  34.864  26.484   3.354
   70W        W65550  11.179  18.663   2.399
   71W        W65551   6.300  14.146   2.884
   72W        W65552  22.658  38.422  12.863
   73W        W65553  25.205  15.091   3.852
   74W        W65554  12.618  24.230  14.019
   75W        W65555  41.866   7.887   4.351
   76W        W65556  10.292  40.045  13.308
   77W        W65557  22.731   4.872   4.605
   78W        W65558  41.871  42.836  12.392
   79W        W65559  41.954  29.653   3.868
   80W        W65560  19.229  35.964   3.148
   81W        W65561  39.494  39.500  11.902
   82W        W65562   6.403   5.293  10.520
   83W        W65563   8.872  13.799   4.237
   84W        W65564  37.981   3.337   3.172
   85W        W65565  27.974  11.136   0.373
   86W        W65566  15.757  33.469  12.962
   87W        W65567   7.807  18.547   2.705
   88W        W65568  40.968   1.418  11.501
   89W        W65569  26.110   5.699   1.780
   90W        W65570  12.615  38.966  14.030
   91W        W65571  28.960  18.621   2.417
   92W        W65572   2.748   2.435   0.756
   93W        W65573  36.400   2.307  11.114
   94W        W65574   2.355  29.982   2.774
   95W        W65575  42.487  33.607   4.737
   96W        W65576   8.882  37.452   1.303
   97W        W65577  42.937  28.081   4.774
   98W        W65578  40.019  21.164  14.508
   99W        W65579  35.053  27.581   1.284
  100W        W65580  43.831  42.320  13.010
  101W        W65581  25.054   4.930   1.371
  102W        W65582  42.793  33.076  13.047
  103W        W65583  11.280  38.953  10.937
  104W        W65584  38.571  29.494   2.720
  105W        W65585   5.930  10.257   0.249
  106W        W65586  34.505  44.781  11.544
  107W        W65587   1.379  33.505  14.466
  108W        W65588  30.548  36.856   1.919
  109W        W65589  14.722  10.872   3.358
  110W        W65590  39.364  38.953  14.004
  111W        W65591  36.363   4.804  11.083
  112W        W65592   7.366  28.605  14.299
  113W        W65593  13.761  29.668   2.350
  114W        W65594  31.011  44.869  13.985
  115W        W65595  38.415  13.637   3.381
  116W        W65596  41.928  31.970   3.216
  117W        W65597  18.240  34.567  13.010
  118W        W65598  33.991  33.911   0.851
  119W        W65599  35.857   0.816  11.082
  120W        W65600   7.822  31.595  13.911
  121W        W65601  28.510   7.703  11.057
  122W        W65602  14.245  10.656   1.307
  123W        W65603  22.727   8.873   0.475
  124W        W65604  14.763   6.686  13.921
  125W        W65605  28.043  31.460  10.982
  126W        W65606  32.415  26.554  14.894
  127W        W65607  21.064  35.379   0.946
  128W        W65608   5.357  33.390   2.254
  129W        W65609   3.837  26.666  10.556
  130W        W65610  44.308   8.218   4.303
  131W        W65611   4.892   2.922   5.125
  132W        W65612  33.410   4.714  10.636
  133W        W65613  21.225  37.961   2.417
  134W        W65614  29.629  23.706  14.904
  135W        W65615  18.127  28.967   0.838
  136W        W65616  41.817   8.846  12.984
  137W        W65617   8.387  17.141   3.835
  138W        W65618  13.812  11.128  14.918
  139W        W65619  32.004   0.295   4.662
  140W        W65620   8.800  44.422   4.119
  141W        W65621   6.888  21.670  13.962
  142W        W65622  22.643   9.167   5.255
  143W        W65623  37.920  37.037   2.697
  144W        W65624  38.069   3.833   1.249
  145W        W65625   0.775  16.751  11.482
  146W        W65626  42.024  32.586  13.465
  147W        W65627  38.491  34.590  13.978
  148W        W65628  43.464  44.988   1.430
  149W        W65629  21.174  41.488  13.381
  150W        W65630   4.881  31.595  11.883
  151W        W65631  20.658  27.507   2.892
  152W        W65632  15.637  27.455  10.615
  153W        W65633  15.617   9.696   3.706
  154W        W65634  32.927  41.976   1.890
  155W        W65635  21.094  35.537   1.715
  156W        W65636  42.806   6.384  12.366
  157W        W65637  30.419  43.364   2.396
  158W        W65638  11.245  37.018  11.378
  159W        W65639  25.995  32.141  14.421
  160W        W65640  24.655  11.795   1.315
  161W        W65641  12.701  40.800   3.776
  162W        W65642  43.306  33.588   0.387
  163W        W65643  22.736  23.527   5.207
  164W        W65644  22.665  17.776  13.994
  165W        W65645  28.576  36.513   2.830
  166W        W65646   6.250  43.906  12.093
  167W        W65647  25.130  11.738   5.293
  168W        W65648  21.260   5.439  14.460
  169W        W65649  18.627  19.694   9.940
  170W        W65650   2.858  44.916  13.916
  171W        W65651   4.213  42.016  14.009
  172W        W65652  11.713  19.737   0.382
  173W        W65653   2.432   2.769  10.409
  174W        W65654   4.815  37.066   1.836
  175W        W65655  13.338  18.071   3.316
  176W        W65656  14.208  10.770   2.857
  177W        W65657   1.930  41.030  14.809
  178W        W65658   2.747  29.589   2.838
  179W        W65659  21.028  25.129   3.739
  180W        W65660   6.841  42.944   2.820
  181W        W65661  33.497  31.647   1.274
  182W        W65662  33.472  38.423  11.998
  183W        W65663   9.833   9.787  14.384
  184W        W65664  44.936  10.866   1.325
  185W        W65665  42.517  30.527  14.865
  186W        W65666   3.712   3.271  14.799
  187W        W65667  39.384  35.378  13.394
  188W        W65668   7.227  27.668   4.208
  189W        W65669  36.366  14.258   0.847
  190W        W65670  38.066  12.708   2.768
  191W        W65671  34.386  42.454   3.329
  192W        W65672  39.818  23.620   3.740
  193W        W65673  34.417   6.717   2.379
  194W        W65674  30.572  31.046   0.385
  195W        W65675   8.224   6.825  11.866
  196W        W65676  10.746   7.260  14.285
  197W        W65677  26.617  38.904  11.999
  198W        W65678  44.993  14.256  13.867
  199W        W65679  20.535  10.246   2.318
  200W        W65680  32.567  30.033  13.327
  201W        W65681  29.088  37.068   4.732
  202W        W65682  10.187  28.156  11.022
  203W        W65683  28.465  20.596   0.397
  204W        W65684  36.017  23.591   0.774
  205W        W65685  32.074  27.648   0.751
  206W        W65686  11.785  16.690   0.870
  207W        W65687  35.568  42.981  11.075
  208W        W65688  24.568   2.822  10.943
  209W        W65689  21.559   4.355  13.828
  210W        W65690   3.392   1.359  13.030
  211W        W65691  28.174  33.595   4.661
  212W        W65692  16.710  12.845  13.358
  213W        W65693  34.979  30.034  11.864
  214W        W65694  15.259  11.238   4.247
  215W        W65695  24.646  39.541   4.779
  216W        W65696  37.986   2.466  13.883
  217W        W65697  44.469  23.664  14.806
  218W        W65698  38.497   4.742  13.448
  219W        W65699  23.137  35.026  11.521
  220W        W65700  26.102  21.669  10.547
  221W        W65701  17.282  27.543   4.801
  222W        W65702   0.902  36.443  13.431
  223W        W65703  27.087   0.845  14.837
  224W        W65704  32.571  37.379  10.963
  225W        W65705  10.715  44.871   1.699
  226W        W65706  33.501  11.680  12.088
  227W        W65707   0.979  38.376  14.768
  228W        W65708   3.393  20.665  12.508
  229W        W65709  16.185  11.183   4.121
  230W        W65710  31.955  21.757   0.956
  231W        W65711   1.786  29.928  12.414
  232W        W65712  30.927   0.787  10.131
  233W        W65713   5.343  33.431  11.386
  234W        W65714   4.709   7.899  11.552
  235W        W65715  27.684  38.053   3.352
  236W        W65716  13.271  16.664   1.911
  237W        W65717  10.876  16.790   2.269
  238W        W65718   1.773  43.970  14.336
  239W        W65719  22.123  11.293   4.176
  240W        W65720   3.356   9.333  13.938
  241W        W65721  43.464   0.316   0.853
  242W        W65722  34.874  23.569   4.625
  243W        W65723  30.601  17.155   4.637
  244W        W65724  24.648  11.340  13.314
  245W        W65725  36.375  35.004   4.341
  246W        W65726  25.169  19.595  10.583
  247W        W65727  34.920  32.104  13.891
  248W        W65728   7.759  21.093   0.298
  249W        W65729   3.309   8.337   3.713
  250W        W65730  29.564  21.247   9.989
  251W        W65731  16.285  39.018  13.390
  252W        W65732   7.910  43.386   4.322
  253W        W65733   1.331   8.822   1.382
  254W        W65734  12.645  37.906   1.824
  255W        W65735  17.217  34.386   3.643
  256W        W65736  23.220  40.037  14.400
  257W        W65737   0.402  17.170  14.835
  258W        W65738  14.308  17.781  12.923
  259W        W65739   0.391  18.081  11.004
  260W        W65740   2.423   9.223  14.830
  261W        W65741  13.185  41.503   3.237
  262W        W65742   5.774  29.447   1.298
  263W        W65743  15.096  14.822   2.796
  264W        W65744  14.651  16.733  11.573
  265W        W65745   3.712  22.571   1.896
  266W        W65746  17.737  11.712   0.246
  267W        W65747  41.820  39.462   3.666
  268W        W65748  38.885  44.774   3.234
  269W        W65749   1.906  36.996   2.415
  270W        W65750  17.199  33.107  12.035
  271W        W65751  23.634  17.596  14.293
  272W        W65752  10.792  31.516  14.497
  273W        W65753  44.863  17.801  14.320
  274W        W65754  43.317  17.593   2.833
  275W        W65755  39.932  20.685  10.459
  276W        W65756  19.701  21.723   2.361
  277W        W65757  41.402  19.253   3.781
  278W        W65758  43.468   9.255   2.730
  279W        W65759   9.302  38.569  13.846
  280W        W65760  10.836  30.027  11.076
  281W        W65761  10.367  30.525   3.838
  282W        W65762   0.769  31.450   3.231
  283W        W65763   7.276  40.518   2.393
  284W        W65764   5.251  36.479  10.990
  285W        W65765   5.414  37.396   1.386
  286W        W65766   9.152  40.830  13.468
  287W        W65767  43.907  22.734  11.584
  288W        W65768  20.270   8.198  14.900
  289W        W65769  13.701  44.959  14.404
  290W        W65770   4.327  37.460  14.875
  291W        W65771  43.910   0.396  14.401
  292W        W65772  15.105   8.352   0.917
  293W        W65773   2.788  34.097   2.315
  294W        W65774  23.675   7.223  10.930
  295W        W65775  34.883  16.269  10.617
  296W        W65776  44.771  16.601   0.929
  297W        W65777  10.799  31.070   0.407
  298W        W65778  15.158   5.416  13.987
  299W        W65779  41.516  21.136  13.805
  300W        W65780   1.436   5.797   4.710
  301W        W65781  28.152  44.794   0.950
  302W        W65782  42.881  11.627   3.716
  303W        W65783  13.146  35.998  10.512
  304W        W65784  32.441   5.924  13.905
  305W        W65785  10.203  17.120  12.085
  306W        W65786  33.939  40.524   1.770
  307W        W65787  12.669  38.478  11.937
  308W        W65788   3.903  29.471  11.077
  309W        W65789  30.476  16.682   2.727
  310W        W65790  27.604   7.398  13.813
  311W        W65791  43.911  17.139  11.039
  312W        W65792  18.253  21.178  12.392
  313W        W65793  17.746  33.483   5.600
  314W        W65794  22.590  23.207  14.506
  315W        W65795   2.462  12.728   4.602
  316W        W65796  44.272  29.100   3.671
  317W        W65797  33.049  15.596  12.015
  318W        W65798  14.278  24.653  10.619
  319W        W65799   5.921   0.359   3.181
  320W        W65800  43.388  24.070  14.509
  321W        W65801  38.924  29.578   2.883
  322W        W65802  28.082   3.255   0.864
  323W        W65803  38.433  30.417  14.475
  324W        W65804  19.257   9.839  13.987
  325W        W65805  13.703  37.960   1.723
  326W        W65806   6.315  12.674  11.565
  327W        W65807  22.645  31.965   3.296
  328W        W65808   3.339  40.045  14.491
  329W        W65809  19.253  14.236   3.332
  330W        W65810  35.574   5.347  14.472
  331W        W65811   6.741  31.633   4.177
  332W        W65812  20.053  27.049   5.197
  333W        W65813   4.221   3.454   3.868
  334W        W65814  36.079  16.276  12.072
  335W        W65815   6.204  42.379  11.896
  336W        W65816  29.004  16.094  13.013
  337W        W65817  19.257  20.700  13.383
  338W        W65818   8.314   9.826  10.456
  339W        W65819  32.981  26.479  10.416
  340W        W65820  29.593  32.532   0.370
  341W        W65821  41.494  30.004   1.816
  342W        W65822  22.577   9.864  12.573
  343W        W65823  12.718  35.854  11.947
  344W        W65824  25.079   4.314   2.241
  345W        W65825   0.989  14.271  14.360
  346W        W65826  16.610  30.012  13.328
  347W        W65827  24.559  13.720  13.370
  348W        W65828  34.572  27.622  12.538
  349W        W65829  16.109  24.217  13.355
  350W        W65830   8.742  10.246   2.852
  351W        W65831  32.406  12.274   4.787
  352W        W65832   8.243   2.273   2.268
  353W        W65833  15.684  21.208  12.857
  354W        W65834  18.236   8.175   2.700
  355W        W65835  16.779  44.756   1.376
  356W        W65836   7.347  39.958  12.983
  357W        W65837  32.528  16.148   1.810
  358W        W65838  33.604  10.803   0.296
  359W        W65839  15.295  22.040  12.570
  360W        W65840  10.812  37.867  11.501
  361W        W65841  21.037  15.199   1.895
  362W        W65842  29.595  40.936   3.770
  363W        W65843  23.602  27.594  10.604
  364W        W65844  40.342  19.127  11.468
  365W        W65845  39.547  37.997   4.149
  366W        W65846  35.886  25.523   3.698
  367W        W65847   7.678  12.247  10.987
  368W        W65848  10.223  38.065   2.270
  369W        W65849  41.021  28.061  11.037
  370W        W65850  24.707  43.510   4.837
  371W        W65851  25.533  33.593   0.433
  372W        W65852  43.407  26.514  11.453
  373W        W65853  14.709  42.973   3.356
  374W        W65854  22.733  34.571  12.489
  375W        W65855   9.698  27.960  12.466
  376W        W65856  20.537  13.322   4.734
  377W        W65857  23.215  38.478  12.002
  378W        W65858  15.680  36.001  13.508
  379W        W65859  38.848  18.662   4.324
  380W        W65860  18.254  31.569   1.359
  381W        W65861  43.779   5.821   5.735
  382W        W65862   4.434  41.037  14.887
  383W        W65863  11.850  17.570  10.581
  384W        W65864  35.017  20.592   2.752
  385W        W65865   1.469  41.825  11.425
  386W        W65866  27.070  23.685   4.187
  387W        W65867  20.657  23.239  10.426
  388W        W65868   1.769  33.095   2.796
  389W        W65869  17.754  26.061  11.438
  390W        W65870  11.302  12.648   0.481
  391W        W65871   8.403  13.259  14.829
  392W        W65872  25.592  22.539   3.777
  393W        W65873  40.033  30.948  12.997
  394W        W65874   0.440  36.934  11.953
  395W        W65875  35.362  38.055  12.913
  396W        W65876  42.281  42.988   5.168
  397W        W65877  42.032  43.790   0.822
  398W        W65878  23.024  17.080   3.787
  399W        W65879  19.602  29.168   3.709
  400W        W65880  30.927  41.532   2.181
  401W        W65881  13.842   4.309   1.897
  402W        W65882   8.774  19.762   2.286
  403W        W65883  42.359  17.104   0.794
  404W        W65884   5.747  22.734   4.764
  405W        W65885  18.763  42.433   0.399
  406W        W65886   2.776  13.730   2.874
  407W        W65887  37.536   1.260  11.390
  408W        W65888  27.669   9.274  13.906
  409W        W65889  21.595  38.447  13.907
  410W        W65890  28.520  26.137  12.903
  411W        W65891  33.515  37.960  13.916
  412W        W65892  18.280  12.641   2.786
  413W        W65893  29.995  14.117  11.420
  414W        W65894  24.116  17.784   4.299
  415W        W65895  40.981  40.968   4.344
  416W        W65896  44.886  36.347  10.474
  417W        W65897  23.008  36.989  12.892
  418W        W65898   6.838  36.048  14.311
  419W        W65899  31.535  11.355  12.073
  420W        W65900  31.625  41.979   0.306
  421W        W65901  13.157  41.900   2.231
  422W        W65902  43.304  21.222   4.280
  423W        W65903  35.499   1.747  14.860
  424W        W65904   4.319   8.873  11.432
  425W        W65905   7.875  13.283   1.825
  426W        W65906  41.942  14.255   2.783
  427W        W65907  28.182  23.629   0.322
  428W        W65908  28.947  34.415   1.697
  429W        W65909  11.201  33.625   2.353
  430W        W65910   2.400  22.744   3.376
  431W        W65911  16.154   1.734   1.846
  432W        W65912  37.952  22.191   2.230
  433W        W65913  35.583  42.306   4.235
  434W        W65914  23.226   8.326  13.425
  435W        W65915   5.725  32.063  12.456
  436W        W65916  29.462  28.668  11.543
  437W        W65917  12.661   1.875   0.918
  438W        W65918  36.912  15.632   2.368
  439W        W65919   2.332   9.723   4.655
  440W        W65920  33.946  32.551   1.292
  441W        W65921  15.744  37.877   0.357
  442W        W65922  14.112  10.262  14.448
  443W        W65923  32.036  13.256   2.274
  444W        W65924  15.585  14.194  10.538
  445W        W65925   6.408  42.916   4.667
  446W        W65926   9.266  29.446   1.369
  447W        W65927  37.047   4.384   0.770
  448W        W65928   1.320  26.607   2.316
  449W        W65929  19.048  25.678   2.794
  450W        W65930  37.012   4.904   9.961
  451W        W65931  43.505  14.112  12.825
  452W        W65932  41.874  21.717   4.628
  453W        W65933   8.817  32.414  12.428
  454W        W65934  44.367  41.872  14.482
  455W        W65935  19.623  29.643   2.897
  456W        W65936  11.867  42.464   3.348
  457W        W65937  10.718  42.028  13.544
  458W        W65938  21.748  37.874   2.735
  459W        W65939  10.224  29.952   1.895
  460W        W65940  39.837  36.988  13.384
  461W        W65941  13.719  13.189  12.929
  462W        W65942   5.838  43.854  11.405
  463W        W65943  36.394  38.965   0.808
  464W        W65944  38.062   9.828  14.982
  465W        W65945  18.080  21.158  10.529
  466W        W65946  33.586  27.947  11.970
  467W        W65947  10.233  11.134   9.921
  468W        W65948  44.387  31.540  14.280
  469W        W65949   8.203   2.290  10.905
  470W        W65950   0.434  44.930  14.449
  471W        W65951  41.843  26.010   4.784
  472W        W65952  33.986  24.701  11.532
  473W        W65953  27.133  30.970   1.867
  474W        W65954  42.349  19.619   1.806
  475W        W65955  41.981  44.374   1.777
  476W        W65956  40.012  24.130  13.504
  477W        W65957  43.812  32.118   1.792
  478W        W65958  30.073  15.655   0.956
  479W        W65959  25.187  28.035   2.715
  480W        W65960  36.006  10.327  13.015
  481W        W65961  22.054  24.531   2.414
  482W        W65962  28.174  21.242  11.936
  483W        W65963   5.232   3.789  14.449
  484W        W65964   5.375  29.092   2.892
  485W        W65965  42.363  23.515   1.852
  486W        W65966   4.302   4.763   2.690
  487W        W65967  23.141  16.709  13.046
  488W        W65968  11.334  13.189   2.212
  489W        W65969  37.361  29.507  10.544
  490W        W65970   0.903  17.559   3.173
  491W        W65971  43.353  43.443  10.510
  492W        W65972  25.210  27.973  10.578
  493W        W65973  29.566   1.834  10.059
  494W        W65974  26.009  26.002  11.380
  495W        W65975  13.750  11.828  12.983
  496W        W65976  44.440  20.032   9.926
  497W        W65977  27.534   0.908   0.933
  498W        W65978  27.018  31.942  14.820
  499W        W65979  34.926   6.360  14.325
  500W        W65980  24.065  42.974  12.524
  501W        W65981  44.902  16.318  10.893
  502W        W65982   6.741  41.828  10.453
  503W        W65983   2.270  16.209   3.703
  504W        W65984  42.983  26.637   1.432
  505W        W65985   0.986  22.538  14.486
  506W        W65986  22.007  19.662   3.784
  507W        W65987  39.532  24.510   4.264
  508W        W65988   9.391  23.594   0.291
  509W        W65989  32.612   9.376   1.429
  510W        W65990  36.588  11.724   4.345
  511W        W65991  21.162  27.029  11.453
  512W        W65992  16.218  22.520  13.832
  513W        W65993  44.294  15.292  10.527
  514W        W65994  27.173  12.853   3.867
  515W        W65995  27.636  26.656  13.462
  516W        W65996  40.960   7.838   3.791
  517W        W65997  13.323  12.256  14.284
  518W        W65998  28.025  42.953   2.248
  519W        W65999  20.193  27.007  12.537
  520W        W66000  22.728  43.431  11.405
  521W        W66001  21.091  40.423  11.972
  522W        W66002  33.495  34.093  14.869
  523W        W66003  10.864  36.842   4.789
  524W        W66004  15.745  11.186   1.278
  525W        W66005  39.412  34.615   3.165
  526W        W66006  13.256   1.794  10.422
  527W        W66007  24.666  42.875   3.733
  528W        W66008  12.341  39.878  11.110
  529W        W66009  24.701  42.475  13.537
  530W        W66010  44.430  31.444   3.175
  531W        W66011  28.146  24.226   2.759
  532W        W66012  12.332  20.249   0.744
  533W        W66013  31.994  39.943  14.813
  534W        W66014  16.750   2.393   3.645
  535W        W66015   7.759  20.028  10.636
  536W        W66016   1.451  43.894  10.924
  537W        W66017  34.525  24.588  13.893
  538W        W66018  19.228  32.411   4.750
  539W        W66019  15.788  19.657  14.909
  540W        W66020  30.063  16.756   4.278
  541W        W66021  34.891  22.564  10.976
  542W        W66022  22.022  42.775   2.359
  543W        W66023  22.642   5.745   3.341
  544W        W66024  12.769  37.360   1.383
  545W        W66025  12.691   9.370  12.000
  546W        W66026  26.986  23.048  11.059
  547W        W66027   6.286  22.114   3.701
  548W        W66028   8.374  30.626   4.346
  549W        W66029   9.357  40.348   0.826
  550W        W66030  32.024  27.611  12.934
  551W        W66031  36.571  12.647  12.389
  552W        W66032  43.939  13.289   4.314
  553W        W66033  39.963   3.913  11.075
  554W        W66034  33.918   6.354   2.403
  555W        W66035   3.751  18.265  14.775
  556W        W66036  16.315   1.327   3.178
  557W        W66037  42.920  44.849   1.349
  558W        W66038  22.010  34.614   4.598
  559W        W66039  24.682  40.816   1.845
  560W        W66040  37.006  39.384  14.447
  561W        W66041  28.647  30.003   2.819
  562W        W66042  31.433   4.759  14.846
  563W        W66043  43.443  43.287  13.446
  564W        W66044  28.075   8.705  11.886
  565W        W66045  30.012  13.844  12.853
  566W        W66046  22.051  18.586   2.827
  567W        W66047   5.213   3.788  14.887
  568W        W66048  23.596  44.308   1.400
  569W        W66049  38.432  20.218  13.995
  570W        W66050  13.229  32.915  14.361
  571W        W66051  37.568  31.510  10.990
  572W        W66052   1.341  24.229  13.815
  573W        W66053  41.447  29.919  13.969
  574W        W66054  30.909  24.706   0.266
  575W        W66055  11.667  11.226  11.869
  576W        W66056  16.648   7.742  13.046
  577W        W66057  15.114  13.789  11.382
  578W        W66058  42.297  34.417   2.731
  579W        W66059   4.316  19.642  13.987
  580W        W66060  42.511  30.037  14.494
  581W        W66061  12.252  24.200   0.463
  582W        W66062  14.744  31.515  13.829
  583W        W66063  21.627  10.262   2.838
  584W        W66064  30.996   4.935  12.557
  585W        W66065  42.500  18.571  12.862
  586W        W66066   1.438   1.385  10.979
  587W        W66067  43.331  40.540   0.958
  588W        W66068  10.324  30.462  10.032
  589W        W66069  15.672  28.003   4.734
  590W        W66070  28.931  14.674   1.451
  591W        W66071  38.501  22.658  10.589
  592W        W66072  17.275  23.567  11.048
  593W        W66073  28.177   8.831   3.801
  594W        W66074  15.772  34.016   2.686
  595W        W66075  25.677  37.928   3.856
  596W        W66076  31.477  27.516   1.830
  597W        W66077  38.062  40.920   0.246
  598W        W66078  23.654  22.519  14.415
  599W        W66079  16.318  12.159   3.163
  600W        W66080  31.130  22.735   1.319
  601W        W66081   5.900  28.035  11.488
  602W        W66082  36.389  14.795  11.109
  603W        W66083  28.091   4.857   2.267
  604W        W66084  24.670   2.863   4.648
  605W        W66085  32.541   6.756  14.282
  606W        W66086  39.498  15.248   4.642
  607W        W66087  11.684  44.433   4.637
  608W        W66088  31.025   3.875  12.356
  609W        W66089   4.363  32.458   2.413
  610W        W66090  38.822   5.203  13.044
  611W        W66091  42.408  20.751  10.971
  612W        W66092  36.076   9.648  12.939
  613W        W66093  36.395  43.771   3.747
  614W        W66094  25.468  31.646   4.639
  615W        W66095  33.115  30.121   3.747
  616W        W66096  43.936   1.362  12.978
  617W        W66097  15.785  23.096   4.190
  618W        W66098  36.037  17.795  12.087
  619W        W66099  30.415  31.587   2.747
  620W        W66100  13.261   8.186  12.008
  621W        W66101  22.190  25.504  14.951
  622W        W66102  18.175  17.639   3.827
  623W        W66103  41.952   7.814  14.812
  624W        W66104  41.444  28.618  13.901
  625W        W66105  23.994  21.564   0.962
  626W        W66106   6.206  33.905   3.669
  627W        W66107   1.348  29.012   0.895
  628W        W66108   5.853  19.206   0.405
  629W        W66109   4.247  11.154   4.797
  630W        W66110   4.910  37.018   2.299
  631W        W66111   9.300  15.644   0.453
  632W        W66112  43.394  40.900  11.553
  633W        W66113  22.043  40.881  10.510
  634W        W66114  36.410  33.959   2.337
  635W        W66115  38.324  41.977   2.877
  636W        W66116   3.936  41.488  10.503
  637W        W66117  43.387  23.041   4.691
  638W        W66118  19.635   3.324  11.057
  639W        W66119   5.254  29.925   2.757
  640W        W66120  37.460  13.181  14.350
  641W        W66121  36.069  37.567   3.193
  642W        W66122   7.348   9.216  13.888
  643W        W66123   4.840  27.011  10.951
  644W        W66124   0.483  29.495   2.694
  645W        W66125  13.138   8.894  14.340
  646W        W66126  25.691  44.358  14.960
  647W        W66127  28.603  36.397   3.275
  648W        W66128  20.605  16.578   3.858
  649W        W66129  12.245   2.290  13.407
  650W        W66130  37.580  44.493   2.415
  651W        W66131  28.623  40.972  12.036
  652W        W66132  40.473  17.178   3.731
  653W        W66133  25.095  24.500  14.439
  654W        W66134  10.752  11.687   4.733
  655W        W66135  27.944  38.966   0.260
  656W        W66136   2.244  29.043  13.034
  657W        W66137  41.481   8.698  13.410
  658W        W66138   3.942  22.578   3.252
  659W        W66139   1.365   2.321   2.230
  660W        W66140  23.051  36.501  11.442
  661W        W66141  44.861  20.151  10.478
  662W        W66142  18.117  18.645  12.849
  663W        W66143  39.017  15.823   1.254
  664W        W66144  29.125  24.589  11.048
  665W        W66145   5.368  34.423   5.159
  666W        W66146  18.584  17.250   2.819
  667W        W66147   2.272  32.927   3.838
  668W        W66148  23.593   8.197   1.926
  669W        W66149  14.166  36.410   0.356
  670W        W66150  17.682  31.474   2.232
  671W        W66151   9.648  13.242   3.686
  672W        W66152  40.978  27.482   2.239
  673W        W66153  29.135  13.816  13.966
  674W        W66154  29.137   5.367  11.398
  675W        W66155  22.111  20.677  13.360
  676W        W66156  33.537  27.527  12.942
  677W        W66157   7.291  20.235  13.349
  678W        W66158   1.337  25.598   3.274
  679W        W66159  21.736  24.637   0.410
  680W        W66160  32.499  20.122   1.806
  681W        W66161   6.882  11.697  10.437
  682W        W66162  29.945   2.366  10.552
  683W        W66163  24.042  42.014   1.733
  684W        W66164   3.218  39.539   1.259
  685W        W66165  17.153   6.354  14.811
  686W        W66166  13.340  23.234  12.566
  687W        W66167  24.146  17.156   5.226
  688W        W66168  30.504  31.981   4.299
  689W        W66169   5.317  15.674  13.884
  690W        W66170   6.217   9.319  14.954
  691W        W66171   7.357  14.282   0.781
  692W        W66172  36.585   6.221  13.334
  693W        W66173  43.377  14.300  10.957
  694W        W66174   6.347   6.300  12.889
  695W        W66175  31.424  39.061   4.167
  696W        W66176   4.849   8.848   4.612
  697W        W66177   6.790  23.174  12.888
  698W        W66178   7.725  35.479   2.707
  699W        W66179  24.517  42.836  14.998
  700W        W66180  34.907  15.200   3.228
  701W        W66181  34.448  37.886  14.927
  702W        W66182   4.356   8.282  14.370
  703W        W66183  12.809  22.707   0.308
  704W        W66184  14.128   2.371  12.506
  705W        W66185  17.119   6.383   1.695
  706W        W66186  16.661  29.055   1.360
  707W        W66187  32.122  44.375  12.509
  708W        W66188  17.192  38.394  13.507
  709W        W66189  36.869  34.436  12.905
  710W        W66190   5.339  30.418   0.336
  711W        W66191  34.001  30.552   0.363
  712W        W66192   8.303   8.382   1.352
  713W        W66193  22.609   2.359  10.514
  714W        W66194  12.668  25.976  13.946
  715W        W66195  19.544   7.878   0.384
  716W        W66196  38.827  40.895   3.669
  717W        W66197  29.987  41.938  11.045
  718W        W66198  44.306  44.413   4.700
  719W        W66199   1.834  41.918  12.380
  720W        W66200  13.243   7.675  11.418
  721W        W66201  33.420  41.473  12.548
  722W        W66202  39.981  26.486   0.363
  723W        W66203   1.736  19.209   4.766
  724W        W66204  24.097   2.887   3.347
  725W        W66205  33.006  38.372   1.364
  726W        W66206   1.883  31.020   2.310
  727W        W66207  27.043   7.775   2.353
  728W        W66208   9.796  21.078  13.465
  729W        W66209  40.479  33.438  11.539
  730W        W66210  40.821  10.877  10.563
  731W        W66211   7.884   5.869  10.567
  732W        W66212  29.929  16.698  14.934
  733W        W66213   5.756   6.717   4.698
  734W        W66214  39.809  24.711   3.292
  735W        W66215  34.442  19.634  12.057
  736W        W66216  36.353  42.957  12.825
  737W        W66217  31.026  18.205   4.215
  738W        W66218   8.275   2.307  12.528
  739W        W66219   0.923  20.745   3.685
  740W        W66220  44.865  44.986  11.986
  741W        W66221  31.421  39.847   0.348
  742W        W66222  21.565   1.868  11.081
  743W        W66223  28.174  18.741  11.464
  744W        W66224   5.324  39.963  13.014
  745W        W66225  15.130  38.878  11.937
  746W        W66226  28.080  20.084   0.911
  747W        W66227  40.333  23.707   3.671
  748W        W66228  18.234  12.719  10.444
  749W        W66229  44.395  16.807  14.951
  750W        W66230  29.588  34.529   4.825
  751W        W66231  30.978  17.568  13.324
  752W        W66232   0.873  24.560  10.988
  753W        W66233  15.258  26.966  10.512
  754W        W66234  21.233  41.927   0.449
  755W        W66235  42.925  16.585  13.790
  756W        W66236  33.913  23.634  14.421
  757W        W66237   1.352  19.090  12.420
  758W        W66238   6.912  20.729   1.294
  759W        W66239   6.869  35.970   2.677
  760W        W66240  15.327  19.617  14.892
  761W        W66241   8.794  36.998   0.294
  762W        W66242  18.603  27.468   2.270
  763W        W66243   7.367  17.628   1.915
  764W        W66244  34.873  17.143  11.531
  765W        W66245  23.662   1.900   4.814
  766W        W66246  10.250  23.695   0.341
  767W        W66247  17.575   1.336  10.568
  768W        W66248   6.337  32.491   0.257
  769W        W66249  24.121  23.061   3.791
  770W        W66250   8.244   1.315   0.297
  771W        W66251  15.184  16.116   3.644
  772W        W66252  11.673  22.239   4.344
  773W        W66253  16.167   4.857  12.341
  774W        W66254  12.138   9.706  14.396
  775W        W66255  17.199   3.401  10.503
  776W        W66256  16.601   1.282  14.324
  777W        W66257  40.438  21.724  10.948
  778W        W66258  34.917  25.710  14.864
  779W        W66259  31.138  41.966   4.755
  780W        W66260  10.820  33.517  13.486
  781W        W66261   0.471  27.032  14.439
  782W        W66262  25.151  43.429  14.290
  783W        W66263  20.567  17.096   2.247
  784W        W66264   3.404  26.617  12.895
  785W        W66265  10.162  22.107   3.730
  786W        W66266   4.371   2.865  13.454
  787W        W66267  23.724   3.778  11.042
  788W        W66268   4.342   7.855   3.155
  789W        W66269   1.962   0.860   1.408
  790W        W66270  11.302  44.327   4.653
  791W        W66271  42.291  26.534  12.014
  792W        W66272  27.106  12.624  11.472
  793W        W66273  15.819  44.967  13.493
  794W        W66274  16.697  15.672  12.352
  795W        W66275  37.408   0.973  10.966
  796W        W66276  24.630   3.715  12.454
  797W        W66277   3.908  27.146   4.117
  798W        W66278  21.628  39.818   2.303
  799W        W66279  12.740  17.637  10.489
  800W        W66280  22.558   9.703   0.741
  801W        W66281  41.360  20.669  13.400
  802W        W66282  27.612  26.130  13.902
  803W        W66283  31.561  39.327   0.481
  804W        W66284  11.776   0.782   9.996
  805W        W66285  44.927   2.856  12.898
  806W        W66286  26.580   4.257  14.958
  807W        W66287  40.007  41.370  14.903
  808W        W66288  24.041  10.771  11.478
  809W        W66289  12.357   7.837   1.237
  810W        W66290   5.279  15.239   4.729
  811W        W66291  39.496  12.335  11.989
  812W        W66292   1.808   2.411  10.596
  813W        W66293  24.231  40.363  13.819
  814W        W66294  27.183  37.510  12.466
  815W        W66295  27.068  37.026  12.093
  816W        W66296  23.546   9.263  13.406
  817W        W66297  32.068   5.729  13.842
  818W        W66298   9.643  33.101  12.427
  819W        W66299  26.541  15.150  13.810
  820W        W66300  41.313  24.563   1.804
  821W        W66301  34.880  10.288  10.574
  822W        W66302   0.755  28.470  11.470
  823W        W66303   1.238   4.845   1.291
  824W        W66304  28.591   1.772  10.643
  825W        W66305  22.546  21.185   4.652
  826W        W66306   5.218   5.880  11.510
  827W        W66307  40.929  26.051   2.367
  828W        W66308  31.075  10.351  14.799
  829W        W66309   5.888  15.616   0.404
  830W        W66310  23.639  22.673  14.803
  831W        W66311  33.965  35.880  14.339
  832W        W66312  11.639  39.008   3.665
  833W        W66313  31.901   6.904   4.187
  834W        W66314   7.731  43.352  11.544
  835W        W66315   9.210  38.956  14.760
  836W        W66316  22.138  22.572   1.808
  837W        W66317   0.261  28.671  10.999
  838W        W66318  27.542   4.299   2.816
  839W        W66319   9.242  31.933  10.942
  840W        W66320  33.984  32.555  11.928
  841W        W66321  37.550  31.490   1.360
  842W        W66322  24.570  19.720   0.956
  843W        W66323   2.323  40.984  12.059
  844W        W66324   0.871   5.350   4.798
  845W        W66325  27.570   9.251   2.215
  846W        W66326  21.641  28.948  12.874
  847W        W66327  18.553   3.759  13.427
  848W        W66328  14.758  41.455  13.965
  849W        W66329  14.665  23.505   1.359
  850W        W66330  44.848  14.688  12.863
  851W        W66331  19.596  27.092  13.831
  852W        W66332  17.612  23.490  13.345
  853W        W66333  29.003  22.676  14.012
  854W        W66334  19.222  42.971  13.329
  855W        W66335  20.113  26.489  13.345
  856W        W66336  32.619   8.253   3.758
  857W        W66337   9.308  34.411   0.789
  858W        W66338  14.601  37.451  12.888
  859W        W66339  33.091   7.354  14.912
  860W        W66340  39.937  24.695  14.890
  861W        W66341  32.007  12.320  10.563
  862W        W66342  31.437  38.527  11.059
  863W        W66343  28.032  20.724   3.788
  864W        W66344   3.858  38.866   2.686
  865W        W66345  37.035  44.869  14.972
  866W        W66346  12.739  20.566  12.000
  867W        W66347  34.993  39.035  10.149
  868W        W66348   1.260  35.071  14.853
  869W        W66349  32.567  35.947   5.310
  870W        W66350  42.949   8.234   3.649
  871W        W66351  29.447   0.437  10.554
  872W        W66352  32.050  32.988   4.632
  873W        W66353  13.231  15.084   1.806
  874W        W66354   9.728  37.546  13.901
  875W        W66355  17.558  17.646   1.242
  876W        W66356  44.320  31.418  12.903
  877W        W66357  29.643  32.117   3.865
  878W        W66358  40.506   6.389  11.916
  879W        W66359  24.000  17.581  11.899
  880W        W66360  37.005  23.989  10.530
  881W        W66361  10.378  33.967   1.361
  882W        W66362  42.321  39.480   2.414
  883W        W66363  31.982  21.152   1.293
  884W        W66364  24.209  26.467  12.348
  885W        W66365  34.553  39.484   2.407
  886W        W66366   0.971  24.194   4.259
  887W        W66367   9.869  13.147   1.755
  888W        W66368  33.381  37.938   2.398
  889W        W66369  17.602  31.573  11.457
  890W        W66370  28.488  14.221   5.295
  891W        W66371  42.365  35.475  12.381
  892W        W66372  10.170   8.766   4.350
  893W        W66373  14.796  41.042   5.196
  894W        W66374  16.679   2.268   1.216
  895W        W66375  10.720  14.832  10.451
  896W        W66376  19.234   9.195  11.507
  897W        W66377  16.802  15.195  12.570
  898W        W66378   9.756   4.323   3.797
  899W        W66379  28.934   0.294   2.681
  900W        W66380  33.426  36.961   3.677
  901W        W66381  12.172  12.640  12.894
  902W        W66382  27.453   0.419   2.411
  903W        W66383   7.318   5.366  14.338
  904W        W66384  10.667  44.892  11.934
  905W        W66385  41.803   9.702   3.840
  906W        W66386  31.062  36.582   4.688
  907W        W66387  42.945  28.644   0.272
  908W        W66388   5.811  29.929  14.777
  909W        W66389   8.293  19.706   4.193
  910W        W66390  10.768   6.234   3.785
  911W        W66391  27.193  29.146  13.868
  912W        W66392  37.999  35.071  13.824
  913W        W66393  37.019   0.982   2.181
  914W        W66394  39.559  39.891   1.246
  915W        W66395  38.982  43.304   1.215
  916W        W66396  42.806   2.753   0.364
  917W        W66397  19.211   9.264  10.585
  918W        W66398  42.328  44.319   4.335
  919W        W66399  11.271  32.538   4.323
  920W        W66400  15.198  41.928  12.916
  921W        W66401   9.237  34.873  12.059
  922W        W66402   9.378  31.127  12.439
  923W        W66403  10.241  23.238  11.553
  924W        W66404  24.195  35.953   2.368
  925W        W66405  35.891  12.626   0.804
  926W        W66406   5.933  19.165   0.853
  927W        W66407  38.940  21.627   2.323
  928W        W66408  23.035  33.535   3.682
  929W        W66409   2.778   9.673  11.493
  930W        W66410   1.294  26.512  13.387
  931W        W66411  16.678  16.166  14.959
  932W        W66412  31.510  27.131  10.600
  933W        W66413  15.749  33.936  14.926
  934W        W66414   9.249   6.818   1.935
  935W        W66415   2.763  44.486   0.908
  936W        W66416  10.231  23.505  14.908
  937W        W66417  19.729  39.416   2.329
  938W        W66418  34.576  31.988   3.299
  939W        W66419  39.864  27.583  12.536
  940W        W66420   5.749   3.937  10.581
  941W        W66421   5.409   4.894  14.009
  942W        W66422  32.437  10.224  13.899
  943W        W66423   4.790  28.625  12.987
  944W        W66424  33.102  10.795  14.934
  945W        W66425  22.144  20.763  12.553
  946W        W66426  15.777  12.721  13.864
  947W        W66427  36.463  41.818  14.860
  948W        W66428   1.799  41.902  13.489
  949W        W66429  36.941  21.138   4.326
  950W        W66430  16.726  21.123  10.124
  951W        W66431  35.556  28.982  14.922
  952W        W66432  27.057  25.474   4.758
  953W        W66433  26.977  26.597  14.372
  954W        W66434   7.833   5.286   1.433
  955W        W66435  31.586  43.446   9.613
  956W        W66436  44.889  15.770   1.425
  957W        W66437  18.680  18.784  13.498
  958W        W66438   6.302  21.614   1.401
  959W        W66439  13.717  34.605  12.938
  960W        W66440   6.357  28.560  11.935
  961W        W66441   2.304  11.717  14.850
  962W        W66442  40.963   0.425   1.245
  963W        W66443  15.143   8.869  14.987
  964W        W66444  22.079  38.458  14.346
  965W        W66445   2.472  19.066  13.034
  966W        W66446  36.946  16.797   2.393
  967W        W66447   6.801   2.865   2.378
  968W        W66448  10.823  16.682   1.325
  969W        W66449  34.419  33.566   0.332
  970W        W66450  35.531  18.257  14.412
  971W        W66451  20.115  36.919  10.910
  972W        W66452  41.431  12.339  12.573
  973W        W66453  27.691  25.665   2.833
  974W        W66454  40.033  40.397   1.334
  975W        W66455  37.508  32.504  11.532
  976W        W66456   4.785  14.642  10.578
  977W        W66457  15.644  14.289  11.051
  978W        W66458  33.423   0.396   3.858
  979W        W66459  10.216  10.777   0.889
  980W        W66460  42.333  44.418  11.399
  981W        W66461  23.634  33.917  14.846
  982W        W66462  17.569  35.110   1.425
  983W        W66463  12.147  41.516   2.285
  984W        W66464  27.617  17.685  11.530
  985W        W66465  18.272  16.667   2.783
  986W        W66466  43.966  17.565   1.858
  987W        W66467   3.259   3.409   3.830
  988W        W66468  41.422   2.320   0.838
  989W        W66469  30.649   9.209   1.736
  990W        W66470  13.617  15.623   0.332
  991W        W66471   4.235  22.108  14.859
  992W        W66472  40.518  32.004   1.394
  993W        W66473  29.447  24.017   2.407
  994W        W66474  13.295   9.383   0.301
  995W        W66475  30.550  24.983   1.732
  996W        W66476   1.407   6.749   1.444
  997W        W66477  29.440  26.182   2.208
  998W        W66478  12.148  33.603   1.906
  999W        W66479  44.773  33.622   1.789
 1000W        W66480  38.017  39.455  13.542
 1001W        W66481  12.614  43.871   3.349
 1002W        W66482  27.024  16.314  12.355
 1003W        W66483  21.110  32.573   4.335
 1004W        W66484   7.409   2.458   4.237
 1005W        W66485   2.414   4.781   2.882
 1006W        W66486  39.423  22.223   4.821
 1007W        W66487   2.879   7.196  12.902
 1008W        W66488  31.907   3.955  14.489
 1009W        W66489  21.613   8.403   3.245
 1010W        W66490   4.775   9.872   2.226
 1011W        W66491  44.268  26.629   0.870
 1012W        W66492  42.357  24.586   1.273
 1013W        W66493  35.511  27.549  13.404
 1014W        W66494  18.678  16.669  10.535
 1015W        W66495  10.153  42.415   2.738
 1016W        W66496  28.553  38.426  10.596
 1017W        W66497  37.857  19.715   2.849
 1018W        W66498  11.865   1.362   0.288
 1019W        W66499  44.794   4.307  14.422
 1020W        W66500  27.542  42.818  13.478
 1021W        W66501  31.557  30.469   4.744
 1022W        W66502   7.220  24.718   1.368
 1023W        W66503  19.679  24.165   0.429
 1024W        W66504  40.982  28.667   0.251
 1025W        W66505  28.514  22.116  12.869
 1026W        W66506   1.404  20.132  12.503
 1027W        W66507  42.286  34.602  10.572
 1028W        W66508  29.165  11.244  11.998
 1029W        W66509   7.823  11.367   0.285
 1030W        W66510  20.180  37.467   1.393
 1031W        W66511  21.028   0.827  10.989
 1032W        W66512  39.961  10.293  12.937
 1033W        W66513  16.198  21.098   2.662
 1034W        W66514  36.445  34.506   0.479
 1035W        W66515  25.109  18.566  12.826
 1036W        W66516  20.222  12.786  11.900
 1037W        W66517   9.318  44.452   3.788
 1038W        W66518  11.690  10.324  10.086
 1039W        W66519  43.841  18.127   2.870
 1040W        W66520  15.143  41.956   2.415
 1041W        W66521  36.996  21.643   4.134
 1042W        W66522  30.600   2.961   1.925
 1043W        W66523  27.130   2.863   1.249
 1044W        W66524  22.688  41.001   0.329
 1045W        W66525  33.495  33.956  12.059
 1046W        W66526  33.417  20.589   2.789
 1047W        W66527  13.620  39.876  11.059
 1048W        W66528  30.529  29.040   2.792
 1049W        W66529  18.155  33.459  10.087
 1050W        W66530   8.712  14.689  14.379
 1051W        W66531  35.505  22.117  10.528
 1052W        W66532  39.944  14.674   3.854
 1053W        W66533  43.278  31.019  13.860
 1054W        W66534  17.630  26.596   3.783
 1055W        W66535  14.339   9.765  12.956
 1056W        W66536  17.219   8.330   4.816
 1057W        W66537   9.843  25.024   1.704
 1058W        W66538  44.502  26.963   2.896
 1059W        W66539   2.779  43.492  10.511
 1060W        W66540  36.842  42.456  11.593
 1061W        W66541  16.133  21.590  14.462
 1062W        W66542   5.427  36.034  11.099
 1063W        W66543  43.440  41.294   2.728
 1064W        W66544   5.703  39.987   1.783
 1065W        W66545  39.837   4.754  14.957
 1066W        W66546  21.544  41.495   1.321
 1067W        W66547  33.437   3.437   0.830
 1068W        W66548  34.961  39.005  14.301
 1069W        W66549  27.647  32.513   0.401
 1070W        W66550  23.165  13.643   1.361
 1071W        W66551  20.695  13.168   1.336
 1072W        W66552   1.307  44.879   1.770
 1073W        W66553  17.717  18.682  11.870
 1074W        W66554  27.061  23.654  12.939
 1075W        W66555  27.039  40.827   3.322
 1076W        W66556  13.700  20.156   2.741
 1077W        W66557   1.280  13.838   4.610
 1078W        W66558  33.031   7.855   1.791
 1079W        W66559  29.537  30.115  13.798
 1080W        W66560   3.738   6.242  12.450
 1081W        W66561  44.408   2.422  13.901
 1082W        W66562   1.472  30.002  11.993
 1083W        W66563  16.202   8.335  12.510
 1084W        W66564  38.505  44.839  14.390
 1085W        W66565  35.989  20.125  12.901
 1086W        W66566  22.671  13.723   4.274
 1087W        W66567  18.138  30.163   5.215
 1088W        W66568  10.218  26.125  11.606
 1089W        W66569   7.203  44.875   0.732
 1090W        W66570  20.272  11.312  13.955
 1091W        W66571  42.341  11.130  14.936
 1092W        W66572  24.179   6.792  11.387
 1093W        W66573  41.338   4.775   1.380
 1094W        W66574  12.209   3.912  12.017
 1095W        W66575  40.022  20.656  11.979
 1096W        W66576  17.104  37.865  11.905
 1097W        W66577  42.342  31.971   5.178
 1098W        W66578  36.094  26.059  12.005
 1099W        W66579  22.241  17.650  11.567
 1100W        W66580  24.600  19.253   1.724
 1101W        W66581  44.816  14.277  14.472
 1102W        W66582  28.938   3.767  13.533
 1103W        W66583   8.314  19.564   2.331
 1104W        W66584  39.061  38.517  11.070
 1105W        W66585  43.355  21.724  10.945
 1106W        W66586   4.821  42.305   0.249
 1107W        W66587  20.054  34.503  12.922
 1108W        W66588   4.866  38.988  12.931
 1109W        W66589   5.728   8.684   1.385
 1110W        W66590  10.382  37.899   2.788
 1111W        W66591  12.156   4.927  14.786
 1112W        W66592  13.250  42.321   2.210
 1113W        W66593  15.185  19.242   4.334
 1114W        W66594  15.749   1.910   2.301
 1115W        W66595  32.995  40.530   2.825
 1116W        W66596  32.974  13.179   4.788
 1117W        W66597  39.446  14.261  10.920
 1118W        W66598   0.756   6.699  10.562
 1119W        W66599  35.917  28.621  14.856
 1120W        W66600  18.686  15.169  11.991
 1121W        W66601  39.338  11.636   1.332
 1122W        W66602  15.321  13.166  12.380
 1123W        W66603  27.606   4.798  12.563
 1124W        W66604  39.495   8.790   3.257
 1125W        W66605  33.964   2.806   2.383
 1126W        W66606  41.980  23.612  10.956
 1127W        W66607  42.320  44.878   1.329
 1128W        W66608  39.396   6.183  13.540
 1129W        W66609  33.894  43.839  13.363
 1130W        W66610  37.412  18.129   1.349
 1131W        W66611  39.959   6.833  12.538
 1132W        W66612  15.278  44.768   1.308
 1133W        W66613   4.815   4.732  13.444
 1134W        W66614  35.997  44.860  11.591
 1135W        W66615   2.333  28.031  14.810
 1136W        W66616  16.296  21.106   0.273
 1137W        W66617  13.609  38.386  12.986
 1138W        W66618  21.729  12.678   3.291
 1139W        W66619  18.665  29.640   3.383
 1140W        W66620  22.152  13.699  11.984
 1141W        W66621  21.582  22.099   0.284
 1142W        W66622   3.868  21.564   1.426
 1143W        W66623  29.017  11.262  12.911
 1144W        W66624  36.003  10.654   2.844
 1145W        W66625  21.678  30.964  14.013
 1146W        W66626  17.716  38.530   2.407
 1147W        W66627   4.445   9.664  11.911
 1148W        W66628  43.992  21.061  13.852
 1149W        W66629  33.050  25.537   3.182
 1150W        W66630   0.806   9.812   3.762
 1151W        W66631  22.523  35.907   1.358
 1152W        W66632  23.493   0.384  13.311
 1153W        W66633   6.705  36.580  13.961
 1154W        W66634   5.771   5.898  11.479
 1155W        W66635  16.806  18.222   1.438
 1156W        W66636  37.449  33.449   5.205
 1157W        W66637  34.517   1.763   3.727
 1158W        W66638  14.136  35.500  13.383
 1159W        W66639  19.665  18.642   3.688
 1160W        W66640  11.794   8.193  11.527
 1161W        W66641  43.957  25.171  10.999
 1162W        W66642  18.295   2.747   2.813
 1163W        W66643  25.064  39.880   1.390
 1164W        W66644  12.730  42.348  14.458
 1165W        W66645  14.246   4.926  13.404
 1166W        W66646  16.780  33.604   2.764
 1167W        W66647   0.814  33.604  11.382
 1168W        W66648  39.065   8.741  10.007
 1169W        W66649  38.071  11.634   3.761
 1170W        W66650   8.194  35.415  10.910
 1171W        W66651  12.362  14.736   4.228
 1172W        W66652  41.450  37.902  10.617
 1173W        W66653  30.597   5.722  11.888
 1174W        W66654  32.409  17.213   1.861
 1175W        W66655  44.424  13.642  11.422
 1176W        W66656  32.407   9.214  13.945
 1177W        W66657  25.054  22.201  12.863
 1178W        W66658  15.712   5.259   4.152
 1179W        W66659  43.296  24.578   1.833
 1180W        W66660   7.310   2.452  11.478
 1181W        W66661  16.138  39.028   2.787
 1182W        W66662  21.655   0.261   3.305
 1183W        W66663  15.739  21.736  14.029
 1184W        W66664  10.758   3.810   4.168
 1185W        W66665  35.081  17.721  10.980
 1186W        W66666  17.211  32.952  10.502
 1187W        W66667  10.374  16.655   4.134
 1188W        W66668  17.742  22.605  11.501
 1189W        W66669  43.793  22.746  12.976
 1190W        W66670  42.013   3.714   2.222
 1191W        W66671  18.545  39.476  14.939
 1192W        W66672   8.186  34.027   0.941
 1193W        W66673  39.519  19.550   9.509
 1194W        W66674   7.818  30.602   4.298
 1195W        W66675  25.568  38.959   2.865
 1196W        W66676  39.508  38.833   0.865
 1197W        W66677  23.730  29.963   3.369
 1198W        W66678  17.281   3.772  12.563
 1199W        W66679  44.962  27.072  11.928
 1200W        W66680   9.651  17.713  11.537
 1201W        W66681  39.896  31.123   1.741
 1202W        W66682  31.141  38.000  10.038
 1203W        W66683   9.304  43.316   0.286
 1204W        W66684  23.047   6.798  14.991
 1205W        W66685  42.448   9.325   4.352
 1206W        W66686  19.636  30.106  13.048
 1207W        W66687  40.324  26.571   5.274
 1208W        W66688   5.854  42.813  13.318
 1209W        W66689  25.545  31.087  12.941
 1210W        W66690  26.482   5.923   9.922
 1211W        W66691  39.404  14.756   1.245
 1212W        W66692   5.923  34.547   3.683
 1213W        W66693  28.603  21.188   4.122
 1214W        W66694  12.160  10.856   2.695
 1215W        W66695  34.416  28.647   3.181
 1216W        W66696  16.164  38.062   1.824
 1217W        W66697   9.326   0.314  12.026
 1218W        W66698  37.019  19.243  11.578
 1219W        W66699  24.685  18.284   4.309
 1220W        W66700  17.252  37.951   0.275
 1221W        W66701  36.564   7.800   4.646
 1222W        W66702   5.688  27.594   4.707
 1223W        W66703  39.550   9.331  10.617
 1224W        W66704  34.959  21.632  10.428
 1225W        W66705  26.044  42.403  13.405
 1226W        W66706  27.084  32.396   0.271
 1227W        W66707  31.132  36.512  13.900
 1228W        W66708   5.408  15.317  11.884
 1229W        W66709   8.240  26.057   1.818
 1230W        W66710  32.139  23.054   0.938
 1231W        W66711  44.791  27.616   3.299
 1232W        W66712  42.923  15.763  13.343
 1233W        W66713   0.284  44.970   2.322
 1234W        W66714  14.339  24.651   1.714
 1235W        W66715  37.516  13.347   4.607
 1236W        W66716  13.127  20.125   4.176
 1237W        W66717   2.860  15.302   3.741
 1238W        W66718  29.066  34.067   2.407
 1239W        W66719  26.997   2.364  12.517
 1240W        W66720   5.226  32.493   3.165
 1241W        W66721  32.446   1.843   5.319
 1242W        W66722  14.611   2.931  14.802
 1243W        W66723  36.391  28.081   4.809
 1244W        W66724  11.676  12.347  10.904
 1245W        W66725  42.489  10.318   4.182
 1246W        W66726  39.478  25.621   4.230
 1247W        W66727  43.769  42.832   1.839
 1248W        W66728   5.275  21.159  13.062
 1249W        W66729   7.355  30.562  10.600
 1250W        W66730  36.362  35.104  10.524
 1251W        W66731   9.279  28.063   1.366
 1252W        W66732   1.827   9.748  12.824
 1253W        W66733   3.456  16.775   3.278
 1254W        W66734  38.350  30.443   4.164
 1255W        W66735  33.454  12.316  11.885
 1256W        W66736  42.971  22.655   4.652
 1257W        W66737  34.969   6.354   0.438
 1258W        W66738  13.246  19.172   2.332
 1259W        W66739   5.201   5.263  14.320
 1260W        W66740   9.305   8.855   4.744
 1261W        W66741  11.685  42.821   1.330
 1262W        W66742  18.786   4.208   4.645
 1263W        W66743   1.411  17.758  11.871
 1264W        W66744  39.956  21.253   2.826
 1265W        W66745  18.133  24.625   3.241
 1266W        W66746  31.619   2.230  10.625
 1267W        W66747  43.482   4.803  11.457
 1268W        W66748  28.491   9.186  14.912
 1269W        W66749  36.858  36.356  12.367
 1270W        W66750  36.579   8.198  11.110
 1271W        W66751  33.961   2.340   2.231
 1272W        W66752  30.097  19.275  13.878
 1273W        W66753  44.918  20.757  13.960
 1274W        W66754  18.633  33.400   1.350
 1275W        W66755  13.668  15.163   4.328
 1276W        W66756  23.095  25.639  10.463
 1277W        W66757  30.639   6.426  13.849
 1278W        W66758  11.718  39.336  12.552
 1279W        W66759  27.152  13.208   1.893
 1280W        W66760  16.201   9.837   3.638
 1281W        W66761  16.196  11.675  12.923
 1282W        W66762  35.931   1.776   3.209
 1283W        W66763  11.355  12.639  13.841
 1284W        W66764  30.994  20.546   2.764
 1285W        W66765  12.241  28.473  12.090
 1286W        W66766  10.151  10.242   2.202
 1287W        W66767  44.453  36.977  10.906
 1288W        W66768   2.396   3.278   3.676
 1289W        W66769  25.194  35.936  11.436
 1290W        W66770   9.350  20.086  14.805
 1291W        W66771  22.247  44.425  13.040
 1292W        W66772   1.290  31.004   2.267
 1293W        W66773   3.852   2.419  10.929
 1294W        W66774  33.881   3.320  11.389
 1295W        W66775  41.978  17.260   0.311
 1296W        W66776  23.550  32.543   1.816
 1297W        W66777  14.250  37.483   2.887
 1298W        W66778  43.380   8.762  13.973
 1299W        W66779  27.470  10.864  11.973
 1300W        W66780  38.525  17.168   4.120
 1301W        W66781  42.788  23.060  12.560
 1302W        W66782  38.505  32.495  12.470
 1303W        W66783  22.569  23.000   4.647
 1304W        W66784  41.353  18.632   3.724
 1305W        W66785  34.062  15.791  10.457
 1306W        W66786   2.890  28.486  10.528
 1307W        W66787  35.982  42.483  11.595
 1308W        W66788   4.334  29.424   1.232
 1309W        W66789   9.842  19.084  11.043
 1310W        W66790  32.539   6.792   1.377
 1311W        W66791  11.266   4.396   1.778
 1312W        W66792  27.012   3.842   3.688
 1313W        W66793  19.161   7.813  10.472
 1314W        W66794  34.045  36.491  14.461
 1315W        W66795  38.369   4.420  10.975
 1316W        W66796  31.082  29.636  13.945
 1317W        W66797   0.979  29.073  10.123
 1318W        W66798  37.523  21.198  13.356
 1319W        W66799   0.941  37.506  12.580
 1320W        W66800  29.076  32.434   4.230
 1321W        W66801   3.220  32.465  14.009
 1322W        W66802  38.009  42.953  11.502
 1323W        W66803   4.443   0.872  10.488
 1324W        W66804  13.183  14.635  11.919
 1325W        W66805  37.425  43.002   4.599
 1326W        W66806  13.166  35.450   2.876
 1327W        W66807  16.079  43.851  14.012
 1328W        W66808  33.007  28.044   4.227
 1329W        W66809  21.086  28.472   3.185
 1330W        W66810  25.473  33.070   1.319
 1331W        W66811  36.084  38.345  11.478
 1332W        W66812  20.573  26.590   5.744
 1333W        W66813   2.369  36.897   1.378
 1334W        W66814  25.490  21.097  10.970
 1335W        W66815  28.588  10.781   3.151
 1336W        W66816  26.593  26.042  11.422
 1337W        W66817   4.700  24.090  13.020
 1338W        W66818  26.187  31.570   3.745
 1339W        W66819  16.136  27.677   5.159
 1340W        W66820  36.569  24.102  12.876
 1341W        W66821  28.444  15.670  13.877
 1342W        W66822  12.178  34.546   2.869
 1343W        W66823  38.843  37.557   4.313
 1344W        W66824  34.507   0.809   0.904
 1345W        W66825  26.699  15.650  14.993
 1346W        W66826  15.130  32.966   4.222
 1347W        W66827   5.370   5.385  10.942
 1348W        W66828  39.414  22.202  12.349
 1349W        W66829  35.863  34.441   3.227
 1350W        W66830  19.138  27.967   3.856
 1351W        W66831   2.946  30.444   4.834
 1352W        W66832  22.247  28.015   4.762
 1353W        W66833  40.517   9.830   2.833
 1354W        W66834  36.428  39.038  14.428
 1355W        W66835   6.302  17.256   0.379
 1356W        W66836  26.516  19.736  11.958
 1357W        W66837  44.813  13.265  13.462
 1358W        W66838  44.417  43.328  13.915
 1359W        W66839   6.847  33.571   2.681
 1360W        W66840  14.765  37.004   2.302
 1361W        W66841  16.591  35.959   3.840
 1362W        W66842  28.506  23.676   0.967
 1363W        W66843   0.371  18.288   2.407
 1364W        W66844  30.004   4.912   2.388
 1365W        W66845  27.682  31.935  10.911
 1366W        W66846  30.563   6.387   5.183
 1367W        W66847  41.963   5.810  12.846
 1368W        W66848  30.629  14.620  14.970
 1369W        W66849   7.300  30.643  12.880
 1370W        W66850  10.287  15.650  12.529
 1371W        W66851  14.317  14.228   0.344
 1372W        W66852  34.965  33.607  14.445
 1373W        W66853  27.471  42.306  10.441
 1374W        W66854   5.688  32.410  14.765
 1375W        W66855  44.802  25.217   0.867
 1376W        W66856  23.602  23.526  12.387
 1377W        W66857  10.731  40.363  11.564
 1378W        W66858  22.644  28.479   4.792
 1379W        W66859   2.934   1.845   3.271
 1380W        W66860  14.179   9.314  14.787
 1381W        W66861   4.714   3.753   1.360
 1382W        W66862  29.093  19.600   1.807
 1383W        W66863   7.847  30.597   0.920
 1384W        W66864  38.509  36.951   1.406
 1385W        W66865  11.218  36.996   1.819
 1386W        W66866  33.577  24.163   0.887
 1387W        W66867  27.546  13.663  12.014
 1388W        W66868  13.132  23.729   5.108
 1389W        W66869  10.220   3.828  13.437
 1390W        W66870  22.181  19.077   4.612
 1391W        W66871  12.758  41.384   2.741
 1392W        W66872  16.727  38.477   3.199
 1393W        W66873  28.175  34.506  13.792
 1394W        W66874  41.868  44.865   3.684
 1395W        W66875   3.290  42.918   3.841
 1396W        W66876  25.711  43.317   0.461
 1397W        W66877  15.797  27.966   3.378
 1398W        W66878  11.263  18.620   3.675
 1399W        W66879  36.444   1.382   3.819
 1400W        W66880  40.432   7.795   4.258
 1401W        W66881   4.326  19.581   2.276
 1402W        W66882  41.849   6.736  14.293
 1403W        W66883  40.536  44.424  13.846
 1404W        W66884  37.481   4.223  14.298
 1405W        W66885  19.650  25.184  14.397
 1406W        W66886  27.677  12.221   0.823
 1407W        W66887  27.487  35.929  14.318
 1408W        W66888   3.231   2.464  12.555
 1409W        W66889  37.889  10.357   4.303
 1410W        W66890  32.104  29.644  14.380
 1411W        W66891   9.254  33.575   2.204
 1412W        W66892  31.949  10.281  11.108
 1413W        W66893  20.714  39.400  14.934
 1414W        W66894  24.023  40.446   4.688
 1415W        W66895   3.733  29.034  12.032
 1416W        W66896  33.458  24.049   3.220
 1417W        W66897  36.069   2.926  12.426
 1418W        W66898   4.289   4.413   3.280
 1419W        W66899  43.400   7.298  14.989
 1420W        W66900  11.863   3.263  10.119
 1421W        W66901  18.568  41.403  10.941
 1422W        W66902  35.009  37.890   2.812
 1423W        W66903  15.578  42.854  11.882
 1424W        W66904  39.332   5.381   1.376
 1425W        W66905  36.912  28.946  11.975
 1426W        W66906  32.399   0.332  14.454
 1427W        W66907  35.000   6.681   0.484
 1428W        W66908  12.733  11.137   4.784
 1429W        W66909  33.118  34.483  12.487
 1430W        W66910  43.412  36.058  11.383
 1431W        W66911   7.210  28.107  12.026
 1432W        W66912  35.930  34.873   0.810
 1433W        W66913  18.278  37.397  13.001
 1434W        W66914  27.952  32.569   4.783
 1435W        W66915  23.545   8.895  10.628
 1436W        W66916  31.067  36.045   3.724
 1437W        W66917  13.237  42.929  13.906
 1438W        W66918   6.418  14.254  10.058
 1439W        W66919  30.427  43.297   2.673
 1440W        W66920  13.148  30.940  13.009
 1441W        W66921  27.996  10.834   0.947
 1442W        W66922  26.583  14.599   2.878
 1443W        W66923  30.069  25.162   0.324
 1444W        W66924  29.635  31.948   1.288
 1445W        W66925  34.026  30.526  14.392
 1446W        W66926  17.762  11.294   4.639
 1447W        W66927  15.129   4.310   3.182
 1448W        W66928  29.930  11.317   0.416
 1449W        W66929  23.119  42.424  10.123
 1450W        W66930  15.606   9.876   3.247
 1451W        W66931  24.569  26.635   3.338
 1452W        W66932  17.617  33.500  14.007
 1453W        W66933  22.504   8.759   1.242
 1454W        W66934  37.884  16.102   2.832
 1455W        W66935  37.057  37.012   1.366
 1456W        W66936  18.546  10.187  10.515
 1457W        W66937  20.652  16.629   1.795
 1458W        W66938  20.755  22.660   0.785
 1459W        W66939  42.833  17.696   3.265
 1460W        W66940  12.129  38.325  10.917
 1461W        W66941  12.315  29.165  11.480
 1462W        W66942  32.557  14.159   4.323
 1463W        W66943  39.558   3.372  13.918
 1464W        W66944  23.520  41.874   3.782
 1465W        W66945  35.024  10.824  12.458
 1466W        W66946  25.595  16.194   0.872
 1467W        W66947   4.820  27.036  10.435
 1468W        W66948  22.048  22.538  10.496
 1469W        W66949  14.308  33.549  14.414
 1470W        W66950   9.723   5.796  14.478
 1471W        W66951  22.165   9.274   3.200
 1472W        W66952  30.494  44.416   2.826
 1473W        W66953   8.654  44.299   0.925
 1474W        W66954   4.700  33.004  12.460
 1475W        W66955  42.958  30.918  14.456
 1476W        W66956   3.228  19.216   1.853
 1477W        W66957  10.798  25.060   4.131
 1478W        W66958  17.097  44.269  13.874
 1479W        W66959  27.988  37.018   3.189
 1480W        W66960  30.604  15.247  13.439
 1481W        W66961  39.065   9.889  10.153
 1482W        W66962  44.919  24.089  12.841
 1483W        W66963  44.965  34.107   4.698
 1484W        W66964  26.992  41.520   4.348
 1485W        W66965  15.788  15.605  11.871
 1486W        W66966  15.275  42.929  13.485
 1487W        W66967   5.224   1.322  12.972
 1488W        W66968  40.385  15.306  12.390
 1489W        W66969  22.570  12.263  10.549
 1490W        W66970  33.530   4.421  13.471
 1491W        W66971  38.473  10.681  14.834
 1492W        W66972  35.470  15.119  10.619
 1493W        W66973  39.366  36.063  12.461
 1494W        W66974  17.744   3.896  11.563
 1495W        W66975  17.133  19.276   4.282
 1496W        W66976  24.219  28.666  11.576
 1497W        W66977  22.062   1.754   2.855
 1498W        W66978  23.733  25.149   3.252
 1499W        W66979  20.249  44.324  12.078
 1500W        W66980  34.405   4.923  14.883
 1501W        W66981  10.178  23.529   2.268
 1502W        W66982  14.743  31.482  14.994
 1503W        W66983   1.437  35.014  10.617
 1504W        W66984  40.806  10.705   1.450
 1505W        W66985   9.230  43.493  14.948
 1506W        W66986   3.746   0.257  10.440
 1507W        W66987   7.279  18.688  11.449
 1508W        W66988  20.552  34.551  11.105
 1509W        W66989   8.181  32.989   3.323
 1510W        W66990  11.848  36.865  12.855
 1511W        W66991  24.060  15.786  12.545
 1512W        W66992  22.529  35.965   3.249
 1513W        W66993  32.604  17.574   3.325
 1514W        W66994  16.222   3.231  12.469
 1515W        W66995  14.824  33.901   2.774
 1516W        W66996  37.435  36.914   4.344
 1517W        W66997  32.945  35.407  14.789
 1518W        W66998  13.819   6.190  10.992
 1519W        W66999  28.960  43.817   0.323
 1520W        W67000  12.793  37.023  11.976
 1521W        W67001  16.759  24.546   4.219
 1522W        W67002  15.722  11.244   1.883
 1523W        W67003   7.906  39.453   0.883
 1524W        W67004  31.132  42.032   2.889
 1525W        W67005   8.864  43.962  14.333
 1526W        W67006  25.124   3.297   0.794
 1527W        W67007  42.862  24.032   4.832
 1528W        W67008  37.993  13.180  13.861
 1529W        W67009  29.136  26.076   0.268
 1530W        W67010  20.135   1.280   1.273
 1531W        W67011  37.842  21.096  13.811
 1532W        W67012  29.436   1.873  11.904
 1533W        W67013  25.493  21.108   2.281
 1534W        W67014   6.910  10.715  14.955
 1535W        W67015   9.658  42.967   2.712
 1536W        W67016  29.442  41.825  13.839
 1537W        W67017  11.224  21.075   0.445
 1538W        W67018  12.313  40.421   1.733
 1539W        W67019  13.130   6.344  13.052
 1540W        W67020   6.705  19.218   2.267
 1541W        W67021   0.813  10.169   4.605
 1542W        W67022  27.656  41.516   9.921
 1543W        W67023  32.595   2.778   0.880
 1544W        W67024  20.665  31.904   4.350
 1545W        W67025  14.236  42.869   2.407
 1546W        W67026  21.611  29.459   0.472
 1547W        W67027  32.077   1.975   4.789
 1548W        W67028   3.407  39.907  10.628
 1549W        W67029  40.904  31.492  14.009
 1550W        W67030  42.845   9.244  13.326
 1551W        W67031  32.588  32.580  11.994
 1552W        W67032   6.206  39.329  14.786
 1553W        W67033  44.333   4.346   1.280
 1554W        W67034  18.719  26.110  14.027
 1555W        W67035  18.107  18.252  11.541
 1556W        W67036  43.925   3.405  14.321
 1557W        W67037  10.655  11.155  11.909
 1558W        W67038  10.243  17.065   5.117
 1559W        W67039  31.603  43.812   1.846
 1560W        W67040  18.634   6.228  13.827
 1561W        W67041  29.089  42.010   3.177
 1562W        W67042  36.512  12.139  11.123
 1563W        W67043  36.580  19.592   1.446
 1564W        W67044  44.974  39.560   2.859
 1565W        W67045  19.597   8.229   4.642
 1566W        W67046  30.493  38.482   2.325
 1567W        W67047   3.297  31.404   5.232
 1568W        W67048  16.297  44.755   1.796
 1569W        W67049  14.161  41.316  13.420
 1570W        W67050  31.498  33.981  11.109
 1571W        W67051  37.899  24.987   4.153
 1572W        W67052   7.225   8.771  14.342
 1573W        W67053  27.167   8.255  10.618
 1574W        W67054  18.210  36.397   0.908
 1575W        W67055  18.075  15.588  14.502
 1576W        W67056  35.532  43.440  13.829
 1577W        W67057   0.493  13.210  13.003
 1578W        W67058   6.910  20.086   3.841
 1579W        W67059   4.826  25.215  10.573
 1580W        W67060  17.649  36.907   1.757
 1581W        W67061  25.083   6.263   3.375
 1582W        W67062   8.697  39.886   2.186
 1583W        W67063   5.348   4.734   4.260
 1584W        W67064  39.544   6.739   1.834
 1585W        W67065  25.693  18.085  11.518
 1586W        W67066  24.096   3.811   2.256
 1587W        W67067  21.731  35.369   2.309
 1588W        W67068   9.758  30.653   4.738
 1589W        W67069  40.365   4.826   3.380
 1590W        W67070   6.295  19.763  11.086
 1591W        W67071  36.941  19.714   1.223
 1592W        W67072  14.767  44.974  10.148
 1593W        W67073  22.681   7.829  14.401
 1594W        W67074  23.728  25.054   4.703
 1595W        W67075  40.836  24.504  13.969
 1596W        W67076  42.424  32.948   3.691
 1597W        W67077  40.846  18.051  11.458
 1598W        W67078  30.562  36.473  12.493
 1599W        W67079  26.159  32.630  14.473
 1600W        W67080  36.352  16.100  14.445
 1601W        W67081  10.733  18.631   3.744
 1602W        W67082  20.562  36.470   4.695
 1603W        W67083  10.352   3.733   3.171
 1604W        W67084  23.512   4.883   0.743
 1605W        W67085  12.262  32.900   4.813
 1606W        W67086  21.100  20.219  12.448
 1607W        W67087  39.338  44.367   1.740
 1608W        W67088   5.341  38.942  13.533
 1609W        W67089  23.629  13.838   1.256
 1610W        W67090  17.789  42.028   1.780
 1611W        W67091  19.671  10.289   0.737
 1612W        W67092  38.520   5.809  14.410
 1613W        W67093  35.539  33.906  12.449
 1614W        W67094  18.220  24.150  14.949
 1615W        W67095  17.105  25.682   9.981
 1616W        W67096  14.322  20.646  14.294
 1617W        W67097   2.724  23.548  13.493
 1618W        W67098  27.490  13.217   1.929
 1619W        W67099   1.269  34.498   2.198
 1620W        W67100   5.701  32.896  13.983
 1621W        W67101  27.557  43.382  13.861
 1622W        W67102   6.805   0.766  11.121
 1623W        W67103   9.386  20.057  11.031
 1624W        W67104  40.827  13.316  11.091
 1625W        W67105  33.060   8.229  14.437
 1626W        W67106  24.053  19.660  12.960
 1627W        W67107  21.525  18.652   1.376
 1628W        W67108   8.763   8.835   1.883
 1629W        W67109   4.241  27.653  13.058
 1630W        W67110  14.774  14.253   1.874
 1631W        W67111   7.267  24.644   1.733
 1632W        W67112  41.536  40.828   3.320
 1633W        W67113  29.942  32.961  14.838
 1634W        W67114  40.820  30.115   2.417
 1635W        W67115  41.373   5.702  12.962
 1636W        W67116  38.898   3.333  11.525
 1637W        W67117  35.008  37.439   3.229
 1638W        W67118  37.910  34.449  13.447
 1639W        W67119  36.486   1.255  14.412
 1640W        W67120  29.588  15.781  14.881
 1641W        W67121  31.902   8.371  11.543
 1642W        W67122   8.399  35.938   4.355
 1643W        W67123   1.348   8.878   0.878
 1644W        W67124  10.167  27.078  13.999
 1645W        W67125   4.228  21.655  11.402
 1646W        W67126  28.181  27.516   1.857
 1647W        W67127   0.328  35.878  13.343
 1648W        W67128  44.796  21.126   3.817
 1649W        W67129  39.955  23.125  11.896
 1650W        W67130  23.181  35.950   3.814
 1651W        W67131  41.879  14.754   2.884
 1652W        W67132  26.478  28.618  10.468
 1653W        W67133  37.432  17.275  13.533
 1654W        W67134   2.306  27.042   4.796
 1655W        W67135  31.122  41.511  12.991
 1656W        W67136   9.177  29.489   0.770
 1657W        W67137  26.202   5.236   0.275
 1658W        W67138  14.807  35.953   4.118
 1659W        W67139  17.572  35.896   5.286
 1660W        W67140  40.994  20.205  11.003
 1661W        W67141  24.529  41.000  12.433
 1662W        W67142  36.523  41.993   3.178
 1663W        W67143  18.721  10.762   3.253
 1664W        W67144  32.126  18.724   1.221
 1665W        W67145  25.111  39.825   4.292
 1666W        W67146  22.043   2.227   2.861
 1667W        W67147   0.788  16.580   2.179
 1668W        W67148  35.096   9.350   4.175
 1669W        W67149   9.650  24.117  13.883
 1670W        W67150  22.701  40.001  10.487
 1671W        W67151  38.466  35.552   4.316
 1672W        W67152  40.361  23.504   1.805
 1673W        W67153  40.996  40.880  12.570
 1674W        W67154  39.457  20.645  12.580
 1675W        W67155  41.510  41.818   2.258
 1676W        W67156  16.648  41.923  13.962
 1677W        W67157  31.463  26.638  11.940
 1678W        W67158   2.236  25.034   1.865
 1679W        W67159  10.654  21.052   2.197
 1680W        W67160   8.852   5.364  11.886
 1681W        W67161  13.222   8.177   3.755
 1682W        W67162  33.555   5.919   3.161
 1683W        W67163   5.745  44.409   3.738
 1684W        W67164  18.220  41.005  10.450
 1685W        W67165   2.748   6.243  12.422
 1686W        W67166  17.237  36.908  14.012
 1687W        W67167  30.117  19.565   4.618
 1688W        W67168   2.331  25.619   2.331
 1689W        W67169  21.595  31.503  12.493
 1690W        W67170  40.843  23.061  14.308
 1691W        W67171  10.354  28.526  14.504
 1692W        W67172  21.051  42.007  14.514
 1693W        W67173  34.961   2.822   0.305
 1694W        W67174  33.504  10.140   1.307
 1695W        W67175  37.976   3.215  10.915
 1696W        W67176  10.780   5.815   0.926
 1697W        W67177  30.909  19.579   2.225
 1698W        W67178  42.366  43.425   0.860
 1699W        W67179  12.635   4.745   0.438
 1700W        W67180  26.556  40.900  14.981
 1701W        W67181  17.095  43.013   0.839
 1702W        W67182  32.613   9.767  14.305
 1703W        W67183  16.118  18.105  10.972
 1704W        W67184  19.239  29.126  13.516
 1705W        W67185  34.053  19.715   3.737
 1706W        W67186   9.881  39.026   0.963
 1707W        W67187   3.738  14.330  12.441
 1708W        W67188  11.285  11.836  12.413
 1709W        W67189  34.464  40.831   4.153
 1710W        W67190  38.819  11.798   2.387
 1711W        W67191  15.806  37.987  12.838
 1712W        W67192   3.273  13.812  13.480
 1713W        W67193  32.039  25.661   1.354
 1714W        W67194  27.630  42.367   0.397
 1715W        W67195  34.107  18.615   0.961
 1716W        W67196   6.747  40.322  14.874
 1717W        W67197   1.855  32.541  13.995
 1718W        W67198  40.032  15.128   1.695
 1719W        W67199  30.574  14.723  13.368
 1720W        W67200  23.172  24.618  10.541
 1721W        W67201  40.021   5.257   3.780
 1722W        W67202  33.458   2.825  12.386
 1723W        W67203  44.425  35.932  14.312
 1724W        W67204  18.088   3.447  14.452
 1725W        W67205  39.382  31.150  14.421
 1726W        W67206  22.999  43.969   2.714
 1727W        W67207  44.410  30.944   1.304
 1728W        W67208   5.324  10.777  11.393
 1729W        W67209  32.522  30.472  11.958
 1730W        W67210  35.024  44.413  11.914
 1731W        W67211  29.602  25.608  13.853
 1732W        W67212   0.435  26.143   2.244
 1733W        W67213  41.969  12.174   3.852
 1734W        W67214  11.331  18.215  13.450
 1735W        W67215  18.548  42.365  13.495
 1736W        W67216  43.769  38.570   3.240
 1737W        W67217  10.730  34.376   0.453
 1738W        W67218  27.167  31.513   1.332
 1739W        W67219  43.444   9.178   0.849
 1740W        W67220  30.972  26.989  12.072
 1741W        W67221   5.801  39.373  13.369
 1742W        W67222  13.256  32.523  14.403
 1743W        W67223  29.089  38.566   0.327
 1744W        W67224  29.439  41.012   2.764
 1745W        W67225   1.805  12.353   4.172
 1746W        W67226  32.915   2.362   1.935
 1747W        W67227  15.623  39.065  11.913
 1748W        W67228  14.641  15.686   3.740
 1749W        W67229  37.052  40.814  11.402
 1750W        W67230  39.483   4.735  11.943
 1751W        W67231  34.382  15.308  11.940
 1752W        W67232  12.791  40.487   4.203
 1753W        W67233  40.489  10.143  12.388
 1754W        W67234  10.804   6.351   2.843
 1755W        W67235  18.058  14.817  14.951
 1756W        W67236  22.055  40.052   4.346
 1757W        W67237  42.967  22.531   2.800
 1758W        W67238  17.741  24.056  10.549
 1759W        W67239  34.006  34.615   4.675
 1760W        W67240  35.468  44.323  13.882
 1761W        W67241  19.112  30.911   4.234
 1762W        W67242  31.099  23.126  11.984
 1763W        W67243  44.375  22.711   1.742
 1764W        W67244  27.951  21.624   4.621
 1765W        W67245  35.948  35.446  11.995
 1766W        W67246  35.972  36.502  14.824
 1767W        W67247  41.892  15.746   2.292
 1768W        W67248   7.227  25.674   1.422
 1769W        W67249  44.925   0.458  12.934
 1770W        W67250  22.684  22.733   3.297
 1771W        W67251  17.789  40.995   2.308
 1772W        W67252   7.199  30.091  13.422
 1773W        W67253  41.318  41.872  11.441
 1774W        W67254  15.214  34.584   1.869
 1775W        W67255  24.108  33.432  11.485
 1776W        W67256  35.972   5.413   4.206
 1777W        W67257  17.103  40.388   0.456
 1778W        W67258  43.513  25.121  10.962
 1779W        W67259  36.461  13.655  14.294
 1780W        W67260  18.135   1.294  10.900
 1781W        W67261  23.156  33.041  12.045
 1782W        W67262  36.094  33.404  11.506
 1783W        W67263  29.589  17.133   1.927
 1784W        W67264  38.375  20.698   4.746
 1785W        W67265   8.802  12.711   2.687
 1786W        W67266  44.275  21.091   0.910
 1787W        W67267  12.803  37.452  12.871
 1788W        W67268  26.533  41.945  14.810
 1789W        W67269  24.594  30.580   2.288
 1790W        W67270   7.864  34.609   4.728
 1791W        W67271  33.503  41.828  10.965
 1792W        W67272  11.329  32.136  10.591
 1793W        W67273   9.330  13.682  11.113
 1794W        W67274   3.253  30.572   1.341
 1795W        W67275  31.035   4.743   3.305
 1796W        W67276  34.050  44.261   4.318
 1797W        W67277   2.326  22.652   1.838
 1798W        W67278  38.511  43.344   4.326
 1799W        W67279   6.309  34.612   0.784
 1800W        W67280  27.053  44.333   1.331
 1801W        W67281  17.267  33.492   1.261
 1802W        W67282  37.992  17.273   1.820
 1803W        W67283   2.333  13.250   3.868
 1804W        W67284  35.387  29.928  11.858
 1805W        W67285   1.238  41.952   3.846
 1806W        W67286  27.943  11.371   4.677
 1807W        W67287   8.183  41.865  12.536
 1808W        W67288  25.649   8.821   1.429
 1809W        W67289  42.934  30.003   2.807
 1810W        W67290   3.454  30.984  12.502
 1811W        W67291  31.507  42.833   2.794
 1812W        W67292  31.044  21.520  12.897
 1813W        W67293  13.668  20.160   4.650
 1814W        W67294  27.126  13.828  13.037
 1815W        W67295  12.151  22.248   4.708
 1816W        W67296  44.853  18.701  13.453
 1817W        W67297   8.266  43.489  13.488
 1818W        W67298   6.682  23.564  13.804
 1819W        W67299  37.563  24.034  12.870
 1820W        W67300  20.137  41.951  12.500
 1821W        W67301  21.661  36.493   2.898
 1822W        W67302  22.686  19.098  12.366
 1823W        W67303  28.463  18.146   2.710
 1824W        W67304  10.296  24.497  11.432
 1825W        W67305  24.571  29.514  11.960
 1826W        W67306  44.384  15.317   0.751
 1827W        W67307  19.089  34.615   3.698
 1828W        W67308  20.702  18.583   1.315
 1829W        W67309  14.235  43.430   1.328
 1830W        W67310  41.820  19.665  12.578
 1831W        W67311  29.432  32.607   3.181
 1832W        W67312   6.897  18.734   4.602
 1833W        W67313  22.714  31.002  14.379
 1834W        W67314  24.542  27.658   1.712
 1835W        W67315  44.965  14.824   1.780
 1836W        W67316  14.668  38.877   4.237
 1837W        W67317  38.070  40.868  13.036
 1838W        W67318  15.673  13.722  11.113
 1839W        W67319   3.909  20.041  11.883
 1840W        W67320  23.627  25.195  10.524
 1841W        W67321  43.818   2.426   4.296
 1842W        W67322  16.204  30.982   2.319
 1843W        W67323   5.271  41.514  10.621
 1844W        W67324  42.318   6.841   1.416
 1845W        W67325  23.529   4.852   2.254
 1846W        W67326  10.334   9.663   1.404
 1847W        W67327  19.744  13.184   2.709
 1848W        W67328   4.750  44.907  11.063
 1849W        W67329  31.647   8.667   0.952
 1850W        W67330   9.165  21.562  14.320
 1851W        W67331   7.395  29.437  10.499
 1852W        W67332  42.851  37.569   1.850
 1853W        W67333  31.594   8.884  12.387
 1854W        W67334  21.188  40.468   3.678
 1855W        W67335   4.418  22.506   3.791
 1856W        W67336  43.878  15.656   0.334
 1857W        W67337  43.312  30.657  12.438
 1858W        W67338  27.044  10.343  12.047
 1859W        W67339  34.024  15.754   4.822
 1860W        W67340  34.098  16.701   3.752
 1861W        W67341  39.541   4.834   0.936
 1862W        W67342  17.768  32.409   1.848
 1863W        W67343  43.985  27.977  12.045
 1864W        W67344  14.182  42.965   1.229
 1865W        W67345  40.888  11.714  12.413
 1866W        W67346  33.436  12.740   2.373
 1867W        W67347  31.115   9.734   4.270
 1868W        W67348  39.906  38.067   1.908
 1869W        W67349   6.867   1.794  13.980
 1870W        W67350  39.962  34.912  10.924
 1871W        W67351  31.565   2.825   1.716
 1872W        W67352  31.121  12.622   0.774
 1873W        W67353  35.504  18.119  12.036
 1874W        W67354  10.829  41.840   0.402
 1875W        W67355  41.986  32.978  12.038
 1876W        W67356  20.697  18.078  14.381
 1877W        W67357  11.719  40.989   4.241
 1878W        W67358  12.751  18.676   0.406
 1879W        W67359  16.170  23.195  12.353
 1880W        W67360  33.080  40.389  14.806
 1881W        W67361  30.071  36.084   1.766
 1882W        W67362  18.100   2.871   0.448
 1883W        W67363   2.737  38.396  14.906
 1884W        W67364  27.623  43.787   2.859
 1885W        W67365  42.476  31.622   4.657
 1886W        W67366  15.122  10.382   2.680
 1887W        W67367  34.471  14.672  11.088
 1888W        W67368  30.087  26.094   4.326
 1889W        W67369   8.333  24.516  13.360
 1890W        W67370   0.758   9.887  14.351
 1891W        W67371   9.323  15.778   0.890
 1892W        W67372   6.897  36.563   0.406
 1893W        W67373  13.712  36.855  12.374
 1894W        W67374   5.391  35.452  12.013
 1895W        W67375  11.340  22.724  13.033
 1896W        W67376  40.470   5.307   2.820
 1897W        W67377   1.862  33.930   1.427
 1898W        W67378  19.549  28.658   4.171
 1899W        W67379  21.651  11.273   3.793
 1900W        W67380  44.814  19.065   4.714
 1901W        W67381  42.792  14.258  11.371
 1902W        W67382  25.656  16.780  14.910
 1903W        W67383  14.244  21.698   2.414
 1904W        W67384  24.680   8.766  11.549
 1905W        W67385  22.215   4.908   3.662
 1906W        W67386  44.808  40.823   4.253
 1907W        W67387  17.659   4.210  11.561
 1908W        W67388  18.546   8.698   3.726
 1909W        W67389  12.320  32.993   1.812
 1910W        W67390   0.800  42.295   3.739
 1911W        W67391  38.960  16.746  14.946
 1912W        W67392  14.236  28.181  12.047
 1913W        W67393  27.037  28.175   3.683
 1914W        W67394  16.786   7.328  13.884
 1915W        W67395   1.870  41.378   3.838
 1916W        W67396  39.031  15.653   0.278
 1917W        W67397  33.546  43.371   2.716
 1918W        W67398  22.206  20.076  12.849
 1919W        W67399  32.516  31.897   4.753
 1920W        W67400   7.701  34.926   4.753
 1921W        W67401  11.755  17.214  10.421
 1922W        W67402  14.596  43.840  14.862
 1923W        W67403  23.094   1.965  14.761
 1924W        W67404  27.967  10.832  12.407
 1925W        W67405  42.963  41.331   1.904
 1926W        W67406  23.193  17.239   4.123
 1927W        W67407   8.881  37.958  11.436
 1928W        W67408   1.471   3.383   3.156
 1929W        W67409  27.033   4.941   1.368
 1930W        W67410  30.026  26.037  11.570
 1931W        W67411  24.625  23.043  10.528
 1932W        W67412   8.390  38.540   1.875
 1933W        W67413  26.564  44.953   3.689
 1934W        W67414  24.989  20.132  11.574
 1935W        W67415   0.940  24.493   3.275
 1936W        W67416  43.799  35.912   4.732
 1937W        W67417  44.381  18.239   4.240
 1938W        W67418  39.887  36.852   1.886
 1939W        W67419  23.107   9.161   0.389
 1940W        W67420  11.841   6.830  10.609
 1941W        W67421  10.834  31.444  13.342
 1942W        W67422  17.161   3.304  14.875
 1943W        W67423  14.606   4.232  11.918
 1944W        W67424  11.150   4.275  10.431
 1945W        W67425  15.306  20.191  13.984
 1946W        W67426  21.141  35.973   3.801
 1947W        W67427  41.313   3.436   2.828
 1948W        W67428   3.901  17.142   1.778
 1949W        W67429   8.850  44.431   1.445
 1950W        W67430   2.406   4.942   5.296
 1951W        W67431  43.355   3.323   0.478
 1952W        W67432  15.787  17.282   2.184
 1953W        W67433  37.862  10.229  12.972
 1954W        W67434  11.835  42.802   2.360
 1955W        W67435  16.771  24.713   2.665
 1956W        W67436  18.604  14.682   2.299
 1957W        W67437  22.195   9.705   1.226
 1958W        W67438  27.523   2.874  12.427
 1959W        W67439  24.597  20.222   4.238
 1960W        W67440  39.034  27.159   1.737
 1961W        W67441  13.692  33.596  10.621
 1962W        W67442   5.242  16.672  10.441
 1963W        W67443  12.638   4.420  10.593
 1964W        W67444  41.921  30.537  13.309
 1965W        W67445  27.644  28.451  10.902
 1966W        W67446  17.284   2.267  13.853
 1967W        W67447  11.175  30.039  14.894
 1968W        W67448  20.029  30.051  10.569
 1969W        W67449  32.503  35.438  12.933
 1970W        W67450  41.936   6.304   4.133
 1971W        W67451   6.253  30.012   0.326
 1972W        W67452  30.638  42.503   3.739
 1973W        W67453  16.633  43.790   1.808
 1974W        W67454  10.207   0.952   5.176
 1975W        W67455   7.735  30.499   3.643
 1976W        W67456  25.708  23.623   4.597
 1977W        W67457  23.055  16.296   2.748
 1978W        W67458   6.738  27.172   0.365
 1979W        W67459  44.355  40.037   0.315
 1980W        W67460  42.340  14.173  12.382
 1981W        W67461  38.075  24.693  14.020
 1982W        W67462  14.266   6.382  13.062
 1983W        W67463   7.262   1.913   1.368
 1984W        W67464  26.655  20.223  11.545
 1985W        W67465  31.057   4.796  12.921
 1986W        W67466  44.947  12.751   4.124
 1987W        W67467  36.043   2.379   3.172
 1988W        W67468  29.588  44.863   3.372
 1989W        W67469   3.221   4.344   3.749
 1990W        W67470  33.966  24.042   4.344
 1991W        W67471  19.635  20.082  10.967
 1992W        W67472   7.174  32.619   3.732
 1993W        W67473  18.718  38.857   3.258
 1994W        W67474  24.518   2.372  10.578
 1995W        W67475  38.934  24.153  10.011
 1996W        W67476  17.193  15.232  10.143
 1997W        W67477   3.249   9.285   4.151
 1998W        W67478  37.842  42.295  14.354
 1999W        W67479  42.798  42.789  12.554
 2000W        W67480  10.869   1.288  14.801
 2001W        W67481  11.166  26.018  12.960
 2002W        W67482  40.481   8.222  13.909
 2003W        W67483  21.019  20.044  11.473
 2004W        W67484  13.345  15.227  12.094
 2005W        W67485  14.291  23.133   0.890
 2006W        W67486  27.091  14.588  12.395
 2007W        W67487  37.026  43.919  12.966
 2008W        W67488  41.919   8.269  12.535
 2009W        W67489  40.017   8.163   3.734
 2010W        W67490   4.443  15.279  13.548
 2011W        W67491  33.080  30.163   1.897
 2012W        W67492  11.650  15.111   4.748
 2013W        W67493  44.295   1.936   2.783
 2014W        W67494  35.504  18.637   0.949
 2015W        W67495  21.140  24.649   4.664
 2016W        W67496   0.269  39.429   0.899
 2017W        W67497  20.706  22.660  13.357
 2018W        W67498   8.192   9.781  11.393
 2019W        W67499  37.986   7.690  14.420
 2020W        W67500  32.965  25.184   2.825
 2021W        W67501   5.876  35.037  13.822
 2022W        W67502   6.884  37.053   2.674
 2023W        W67503   8.657   3.289   3.828
 2024W        W67504  41.890  12.657  10.546
 2025W        W67505  39.512  28.679  14.449
 2026W        W67506  29.007  42.950   3.322
 2027W        W67507  11.357   8.773  12.451
 2028W        W67508  29.995   1.814   3.781
 2029W        W67509   7.900  28.080  10.989
 2030W        W67510  21.666   3.943   4.733
 2031W        W67511  10.192  30.151  11.067
 2032W        W67512   8.281  21.535  11.441
 2033W        W67513   0.439  18.776  13.417
 2034W        W67514  36.416  21.052  11.000
 2035W        W67515  13.614  26.674  14.360
 2036W        W67516  38.436   0.928   4.353
 2037W        W67517  21.713  31.030   2.670
 2038W        W67518  35.472   1.414  14.804
 2039W        W67519   7.890  25.183  11.107
 2040W        W67520  39.435   2.268   4.240
 2041W        W67521  39.967  26.042  14.877
 2042W        W67522   3.915  18.736   4.277
 2043W        W67523  13.275   6.291   1.246
 2044W        W67524  11.141  34.466   1.837
 2045W        W67525   9.649   8.799  11.048
 2046W        W67526  28.495  39.065   2.343
 2047W        W67527   0.756   7.669  13.446
 2048W        W67528  17.296   9.816  12.049
 2049W        W67529  40.870  42.870  14.848
 2050W        W67530  40.876  33.604   0.391
 2051W        W67531  11.344  39.884   3.205
 2052W        W67532   8.885   1.839   0.472
 2053W        W67533  40.399  43.000   5.091
 2054W        W67534  22.123  38.071   3.323
 2055W        W67535  27.020  18.713  13.484
 2056W        W67536  41.858  13.232   2.731
 2057W        W67537  39.329  11.277  10.445
 2058W        W67538  41.892  32.590   2.330
 2059W        W67539   8.664  22.205  10.121
 2060W        W67540  28.101  10.696   2.279
 2061W        W67541   1.378  14.777  11.069
 2062W        W67542  14.334  18.193  12.855
 2063W        W67543  43.802   3.288  11.475
 2064W        W67544  33.933  16.189   0.865
 2065W        W67545  22.145  12.176   1.370
 2066W        W67546  35.063  19.621   3.243
 2067W        W67547  21.559   2.242  14.918
 2068W        W67548   8.229  24.050  11.870
 2069W        W67549  44.311  10.137  10.064
 2070W        W67550   3.268   4.252  10.458
 2071W        W67551  33.412  34.906  14.435
 2072W        W67552  43.445  23.021  10.411
 2073W        W67553  13.735  37.871   3.202
 2074W        W67554  34.923  26.080  13.863
 2075W        W67555  15.161  15.115   0.259
 2076W        W67556   4.358  41.936   1.706
 2077W        W67557  38.478  38.520  10.613
 2078W        W67558  17.174   6.676  13.793
 2079W        W67559   8.734  34.076  12.533
 2080W        W67560  44.897  17.241   0.844
 2081W        W67561   4.364  24.508   0.482
 2082W        W67562   3.384  42.299  10.453
 2083W        W67563   8.842  13.338   0.416
 2084W        W67564  40.826   3.358   0.456
 2085W        W67565  29.017  37.447   5.131
 2086W        W67566   1.345  17.169  11.973
 2087W        W67567   7.754  20.041  11.123
 2088W        W67568   0.845  10.246  12.917
 2089W        W67569   8.744  14.200  11.978
 2090W        W67570  33.459   0.275   5.317
 2091W        W67571  28.069  13.833  13.950
 2092W        W67572  30.035  34.567  12.567
 2093W        W67573  36.379  37.870   4.232
 2094W        W67574  12.645  14.339   2.296
 2095W        W67575  31.542  33.483  11.088
 2096W        W67576  21.153   2.940  11.398
 2097W        W67577  19.256  21.560   2.336
 2098W        W67578   1.412  22.113  14.029
 2099W        W67579  26.963  30.164  14.472
 2100W        W67580  42.525  10.730  13.368
 2101W        W67581  42.897  13.609  10.602
 2102W        W67582   6.258  15.753  14.433
 2103W        W67583  20.092  12.211  10.938
 2104W        W67584  13.242  34.009   3.720
 2105W        W67585  18.182  31.515   3.312
 2106W        W67586  34.049   4.305   0.946
 2107W        W67587  44.283  25.609  11.926
 2108W        W67588  27.083  28.932   4.688
 2109W        W67589   6.721  35.881  10.895
 2110W        W67590  16.235  19.681  14.798
 2111W        W67591  36.936  13.235   1.827
 2112W        W67592  39.384  30.080  11.900
 2113W        W67593  29.497  10.773   0.337
 2114W        W67594   7.340  18.071   0.754
 2115W        W67595  36.451  22.082   4.162
 2116W        W67596  27.453  27.194  14.423
 2117W        W67597  36.422  13.166   3.162
 2118W        W67598  32.134  21.078   2.841
 2119W        W67599   7.261   4.742  14.981
 2120W        W67600  23.653   3.309   3.193
 2121W        W67601  27.664  12.621  13.942
 2122W        W67602  17.270  33.410  11.086
 2123W        W67603  18.604   9.242  12.831
 2124W        W67604   9.872  16.232  14.989
 2125W        W67605  35.389  41.923   2.347
 2126W        W67606   5.792  17.241   0.383
 2127W        W67607  33.488   5.279  12.866
 2128W        W67608  15.158  33.605   1.842
 2129W        W67609  19.241   2.412   2.394
 2130W        W67610  30.542  12.246  13.969
 2131W        W67611  42.930  31.053  11.914
 2132W        W67612  12.268  33.030   3.705
 2133W        W67613  13.333  23.495   0.369
 2134W        W67614  16.319  30.453   0.397
 2135W        W67615  26.138  20.225  12.906
 2136W        W67616   4.786  38.329   1.438
 2137W        W67617  19.251  32.453   1.244
 2138W        W67618  40.918  43.828  10.996
 2139W        W67619  43.911  25.114   4.833
 2140W        W67620  40.868  17.774  12.933
 2141W        W67621  26.130   5.395  11.906
 2142W        W67622   1.848  39.829   3.746
 2143W        W67623  18.104  12.852  12.011
 2144W        W67624   3.413   5.900  12.855
 2145W        W67625  37.548  39.027  14.887
 2146W        W67626  39.347   2.265   2.340
 2147W        W67627  28.134   0.303   1.364
 2148W        W67628  44.448  43.785   2.875
 2149W        W67629  36.965   2.756  10.413
 2150W        W67630   4.790  44.782   4.272
 2151W        W67631   0.447  11.354   3.823
 2152W        W67632   7.759  26.552   4.333
 2153W        W67633   1.432  22.745  14.291
 2154W        W67634  37.418  36.457   3.317
 2155W        W67635  16.675  23.189  12.845
 2156W        W67636  11.239  15.229  11.104
 2157W        W67637  21.112  13.195   3.193
 2158W        W67638   0.319  35.987   1.237
 2159W        W67639   9.269  20.049   4.612
 2160W        W67640  33.525  25.614   3.274
 2161W        W67641  23.237   0.430  11.531
 2162W        W67642  25.064  33.976   0.369
 2163W        W67643  25.622  31.444  12.522
 2164W        W67644  41.341  35.019  11.453
 2165W        W67645  15.110  24.116   2.185
 2166W        W67646  41.802  18.258  13.016
 2167W        W67647  13.279  13.623   2.219
 2168W        W67648  34.492  10.173  13.505
 2169W        W67649  42.024  13.215  11.392
 2170W        W67650   7.213  37.933  12.077
 2171W        W67651  13.177   1.297  12.829
 2172W        W67652  34.449   4.809  11.452
 2173W        W67653   9.747  15.157   2.716
 2174W        W67654  24.613  34.945   3.374
 2175W        W67655  30.032  10.187   3.149
 2176W        W67656  41.417  22.033  12.011
 2177W        W67657   4.247  44.825  13.035
 2178W        W67658  38.984  28.178  14.490
 2179W        W67659  43.863   3.812   4.765
 2180W        W67660  18.686  40.436   1.293
 2181W        W67661   6.353   0.814   1.356
 2182W        W67662  17.245   1.808   2.347
 2183W        W67663  37.876  18.160  10.471
 2184W        W67664  42.009   1.768   2.374
 2185W        W67665   8.676  36.404   1.732
 2186W        W67666  15.222  28.511   0.376
 2187W        W67667   1.931  23.708   1.403
 2188W        W67668   7.232   6.867   4.155
 2189W        W67669  40.048   2.451  10.586
 2190W        W67670   8.845  44.865   3.253
 2191W        W67671  43.019   2.921  13.874
 2192W        W67672  21.197  39.343   5.277
 2193W        W67673  10.230  13.681  14.770
 2194W        W67674  37.942   4.877   3.871
 2195W        W67675   4.298  28.182  11.442
 2196W        W67676  44.314  19.535  13.402
 2197W        W67677  23.043  15.321   3.346
 2198W        W67678  42.367  30.592  10.578
 2199W        W67679  36.872  34.904   0.841
 2200W        W67680  44.998  37.427   3.750
 2201W        W67681  10.255  37.002   3.686
 2202W        W67682  15.278   9.732   1.247
 2203W        W67683   4.416  11.181   2.232
 2204W        W67684  18.761   4.915  10.064
 2205W        W67685  12.297  43.802   0.832
 2206W        W67686  12.717  37.373   4.352
 2207W        W67687   7.288  44.406  13.815
 2208W        W67688   2.795  41.916  13.394
 2209W        W67689  18.710  35.466  14.516
 2210W        W67690  38.918  39.980  10.623
 2211W        W67691  27.058   3.238  13.014
 2212W        W67692  17.077  35.557   3.864
 2213W        W67693   1.482   6.324   3.252
 2214W        W67694  26.528   2.239  12.448
 2215W        W67695   8.855   4.870   0.922
 2216W        W67696  38.535  29.032   0.440
 2217W        W67697  28.964  29.011  13.882
 2218W        W67698  33.422   6.728   0.930
 2219W        W67699  12.344  17.696  14.832
 2220W        W67700   3.317  32.462   3.245
 2221W        W67701  21.162  15.720   3.174
 2222W        W67702  41.392   3.352  14.877
 2223W        W67703  23.063  34.392   3.273
 2224W        W67704  19.223   4.807   2.766
 2225W        W67705  43.905  10.833   1.854
 2226W        W67706   1.757   4.775  14.511
 2227W        W67707  38.854  22.122   0.449
 2228W        W67708  23.174  35.105  12.081
 2229W        W67709  32.401  11.273  12.513
 2230W        W67710  19.206  25.128  14.492
 2231W        W67711   4.742  36.356  11.406
 2232W        W67712  27.974  41.318   0.799
 2233W        W67713  20.064  17.639  12.530
 2234W        W67714   7.901  19.094  10.603
 2235W        W67715  22.124  33.578  10.609
 2236W        W67716  19.219   7.876   4.278
 2237W        W67717  28.492  33.981   3.724
 2238W        W67718  17.267   6.821  13.028
 2239W        W67719  35.573   7.799   2.713
 2240W        W67720  17.704  21.148   0.762
 2241W        W67721   4.707  39.417  11.385
 2242W        W67722   9.284  17.307   3.718
 2243W        W67723   4.446  14.306   3.262
 2244W        W67724  43.299  25.490  13.852
 2245W        W67725   7.679  15.119   3.812
 2246W        W67726  18.173   7.251  12.395
 2247W        W67727  43.771  42.934  13.358
 2248W        W67728  14.613  21.574   3.373
 2249W        W67729  17.700  26.998   3.345
 2250W        W67730  20.573  28.049  12.048
 2251W        W67731  30.611  28.942  14.477
 2252W        W67732  24.028   6.201  14.016
 2253W        W67733  20.173   9.797   3.845
 2254W        W67734  17.722  14.117  12.384
 2255W        W67735  13.135  30.455   1.390
 2256W        W67736  12.722  31.540  10.496
 2257W        W67737  29.496  42.420   4.262
 2258W        W67738  27.489  30.968  10.971
 2259W        W67739  41.476   7.724   4.242
 2260W        W67740  30.633  12.356  13.415
 2261W        W67741  30.163  27.190   3.187
 2262W        W67742  38.332  17.717  14.298
 2263W        W67743  38.995   5.932  11.987
 2264W        W67744  20.222   4.774  13.011
 2265W        W67745  35.990  14.297  14.885
 2266W        W67746   2.958  41.930  12.526
 2267W        W67747   6.348  35.952  13.993
 2268W        W67748  40.812  34.867  12.546
 2269W        W67749  16.090  30.013  14.372
 2270W        W67750  41.330   1.955   3.837
 2271W        W67751   5.915   7.226   1.725
 2272W        W67752  16.705  28.139   3.273
 2273W        W67753  28.502  24.013  14.468
 2274W        W67754  18.742  38.450  13.515
 2275W        W67755   1.799   6.217  14.880
 2276W        W67756  28.173  27.504  10.067
 2277W        W67757   2.407  42.300   4.663
 2278W        W67758   4.274   1.830   3.864
 2279W        W67759   5.795  41.396   0.312
 2280W        W67760  10.635   9.203  11.574
 2281W        W67761  17.080  36.039  14.404
 2282W        W67762  36.549  31.406   1.741
 2283W        W67763  30.919   2.795   4.752
 2284W        W67764  20.526   9.828  13.913
 2285W        W67765  30.970  40.549   2.395
 2286W        W67766  15.148   4.313  14.028
 2287W        W67767  31.498  38.871  11.559
 2288W        W67768   9.870  26.470   1.740
 2289W        W67769  11.652  41.394  14.500
 2290W        W67770  22.574  17.228   5.155
 2291W        W67771   1.439  13.734   2.718
 2292W        W67772   1.325  26.128  13.033
 2293W        W67773   3.235   0.474  13.487
 2294W        W67774  42.809  12.237   0.338
 2295W        W67775  19.599  28.515   2.270
 2296W        W67776  38.974  41.366   1.267
 2297W        W67777  11.342   5.313  14.450
 2298W        W67778   4.744   3.393  14.854
 2299W        W67779   1.734   0.468  13.364
 2300W        W67780   4.755   9.373  11.009
 2301W        W67781  31.418   8.778  14.846
 2302W        W67782  29.561  16.576   4.767
 2303W        W67783  18.632   8.345   3.219
 2304W        W67784  20.183  10.788   4.261
 2305W        W67785  24.151  30.932   3.740
 2306W        W67786  39.376   4.405   2.896
 2307W        W67787  34.457   2.809   2.312
 2308W        W67788   6.360  28.981  13.319
 2309W        W67789  23.549   3.428  11.085
 2310W        W67790  42.395  44.838  12.087
 2311W        W67791  19.756   7.359   1.869
 2312W        W67792  28.934  41.415   1.745
 2313W        W67793  41.798   1.363  12.935
 2314W        W67794   1.403  10.366   3.292
 2315W        W67795  33.422   1.401  10.980
 2316W        W67796   6.351  32.909  14.029
 2317W        W67797  34.062   4.442  11.428
 2318W        W67798  12.235  19.275   1.384
 2319W        W67799  22.578  35.094  10.473
 2320W        W67800  19.039   0.876   2.349
 2321W        W67801  31.440  44.992   4.201
 2322W        W67802  35.438  36.035   1.756
 2323W        W67803  34.421  44.781  14.982
 2324W        W67804   4.787  12.851   3.843
 2325W        W67805  22.110  22.704   3.796
 2326W        W67806   1.393   5.768  13.035
 2327W        W67807  31.643  17.147   4.322
 2328W        W67808  25.645   9.279   1.892
 2329W        W67809  16.164  14.291  11.601
 2330W        W67810  30.914  27.564   4.214
 2331W        W67811  29.162  33.445   2.690
 2332W        W67812  24.131  29.999  12.399
 2333W        W67813  20.244  39.903  12.572
 2334W        W67814   3.387  30.634   2.693
 2335W        W67815  37.912  33.047  11.886
 2336W        W67816  14.125  39.432  13.467
 2337W        W67817  39.860  41.447   2.236
 2338W        W67818  34.383  33.456   1.708
 2339W        W67819  42.316   9.727   1.310
 2340W        W67820  33.463  25.516   0.966
 2341W        W67821  39.922  34.984   1.328
 2342W        W67822  29.947  10.657  11.036
 2343W        W67823  35.569  19.043  12.355
 2344W        W67824  12.757  41.892   5.094
 2345W        W67825  21.064  37.394   3.367
 2346W        W67826  37.016  33.008   4.351
 2347W        W67827   0.427  19.551  13.892
 2348W        W67828   5.831  34.007  10.953
 2349W        W67829   5.381  24.625   3.299
 2350W        W67830  44.762   9.779  14.992
 2351W        W67831  15.655  13.159  12.010
 2352W        W67832  12.116   0.441   1.229
 2353W        W67833  43.277  17.205   2.773
 2354W        W67834  22.178  33.988   2.390
 2355W        W67835  26.016  26.128   2.725
 2356W        W67836  44.326  44.432  13.037
 2357W        W67837  31.607  44.761   0.329
 2358W        W67838   4.208  14.629  13.505
 2359W        W67839   7.275  24.083  11.578
 2360W        W67840  25.053  22.093  14.453
 2361W        W67841  32.544  38.961   1.835
 2362W        W67842  10.694  12.782  14.380
 2363W        W67843   1.922  19.665  13.928
 2364W        W67844  35.445  16.779   4.715
 2365W        W67845  28.549  33.071  13.028
 2366W        W67846   8.872  33.975  13.016
 2367W        W67847  18.251   0.287  10.532
 2368W        W67848  33.884  33.957   0.320
 2369W        W67849  12.741  40.941  14.832
 2370W        W67850  14.641  20.060  13.521
 2371W        W67851  14.133  31.992  12.423
 2372W        W67852  32.623  25.134   9.950
 2373W        W67853   6.311  43.340   0.404
 2374W        W67854   3.262  15.614   3.259
 2375W        W67855  10.190  28.945  12.928
 2376W        W67856  10.734  37.871   3.271
 2377W        W67857   7.345  25.481  12.490
 2378W        W67858  36.484  11.829   4.701
 2379W        W67859   4.261  31.055   3.804
 2380W        W67860  38.462  38.398   3.345
 2381W        W67861   8.326  33.425   0.309
 2382W        W67862  10.140   0.432  10.918
 2383W        W67863  31.621  27.620  10.620
 2384W        W67864  37.014  20.609  12.838
 2385W        W67865  22.016  43.340   5.649
 2386W        W67866   9.843   6.802   4.293
 2387W        W67867  25.127   6.409   0.412
 2388W        W67868  24.649  12.179  12.355
 2389W        W67869  10.797  42.459  12.884
 2390W        W67870   2.285  37.025  14.371
 2391W        W67871  18.709  11.740  11.549
 2392W        W67872   1.446  10.367  14.830
 2393W        W67873  17.603  11.346   3.713
 2394W        W67874  26.975  13.795  11.547
 2395W        W67875  44.884  19.280  11.524
 2396W        W67876  39.893  21.163  11.542
 2397W        W67877  11.801  32.441  10.929
 2398W        W67878   1.879  15.295  11.448
 2399W        W67879  16.625  43.006  14.789
 2400W        W67880  39.551   4.814  13.345
 2401W        W67881  13.754  22.092  13.817
 2402W        W67882   4.368  34.586  14.470
 2403W        W67883  28.578  16.592   3.340
 2404W        W67884  12.309  37.087  10.523
 2405W        W67885  42.459   6.872   3.254
 2406W        W67886   9.737  43.851  13.825
 2407W        W67887  16.613  27.057  14.367
 2408W        W67888   6.416  16.265  14.377
 2409W        W67889   9.874   6.391  14.854
 2410W        W67890  17.572   4.331   3.772
 2411W        W67891  26.096  28.986   0.424
 2412W        W67892  40.363   5.276   2.379
 2413W        W67893  10.208  14.311  10.595
 2414W        W67894  40.009  29.506  11.549
 2415W        W67895  24.042   3.892   1.697
 2416W        W67896   1.856  34.884   1.284
 2417W        W67897  41.450  17.275  10.470
 2418W        W67898  40.512  14.101  13.358
 2419W        W67899  26.460  40.839   3.300
 2420W        W67900  26.669  27.523  12.970
 2421W        W67901  20.704   0.448   0.259
 2422W        W67902  28.574  22.674  12.874
 2423W        W67903  27.523  37.072   0.374
 2424W        W67904   0.944  27.683   3.385
 2425W        W67905  30.140  39.942  11.917
 2426W        W67906  41.843  32.046  10.116
 2427W        W67907  14.289  39.441   4.191
 2428W        W67908  21.062  39.496   2.891
 2429W        W67909  33.475  29.941   1.241
 2430W        W67910  33.585  38.819  11.598
 2431W        W67911  10.786  42.903   2.717
 2432W        W67912   3.783  37.453  11.953
 2433W        W67913  20.588  32.628  13.468
 2434W        W67914  22.026  29.569  12.853
 2435W        W67915  32.047  35.602  11.588
 2436W        W67916  29.138  30.047   4.248
 2437W        W67917   8.708  21.561   0.369
 2438W        W67918  26.625   8.734  13.051
 2439W        W67919  27.965  37.962   2.270
 2440W        W67920  29.057  36.512   2.668
 2441W        W67921   4.854  41.988   2.738
 2442W        W67922  43.270  21.515   2.375
 2443W        W67923   1.808  10.307   0.420
 2444W        W67924  37.335  26.154  12.400
 2445W        W67925  12.171  26.501   2.810
 2446W        W67926  39.434  37.536   3.249
 2447W        W67927   5.216  22.245   0.464
 2448W        W67928   9.646  32.950   4.325
 2449W        W67929  40.492  29.165  14.828
 2450W        W67930  34.079  22.035  11.554
 2451W        W67931   8.179  18.215  13.427
 2452W        W67932  24.099  28.959  14.304
 2453W        W67933  19.673  39.412   1.326
 2454W        W67934   0.491  13.820   1.791
 2455W        W67935  22.650  39.935   1.887
 2456W        W67936  37.433   6.742   2.418
 2457W        W67937  33.989   5.890   2.227
 2458W        W67938  20.231  42.984  13.913
 2459W        W67939  38.864  16.135  14.978
 2460W        W67940  30.974  17.098   3.357
 2461W        W67941  39.844  22.733  10.606
 2462W        W67942   9.177  33.526   0.438
 2463W        W67943  10.725  32.573   0.404
 2464W        W67944  26.996  24.121  12.042
 2465W        W67945  20.188   0.966   0.840
 2466W        W67946  34.901   7.234  12.518
 2467W        W67947  43.418  44.898   4.156
 2468W        W67948  15.726  25.548  14.028
 2469W        W67949  19.194  14.612   0.902
 2470W        W67950  10.806  12.676  14.020
 2471W        W67951   6.252  31.525   1.440
 2472W        W67952  14.780  36.923   0.815
 2473W        W67953  41.359  30.001  13.516
 2474W        W67954  42.916  31.580  10.453
 2475W        W67955  29.429  35.067   0.379
 2476W        W67956  20.761  42.347   3.290
 2477W        W67957  43.010  37.507   3.157
 2478W        W67958  44.387  35.066  12.468
 2479W        W67959   7.754  37.004   0.339
 2480W        W67960  14.816  34.950  11.507
 2481W        W67961  30.012   9.781  12.551
 2482W        W67962  14.603  11.812   2.765
 2483W        W67963  34.451  22.205   2.264
 2484W        W67964  21.216  39.532   0.803
 2485W        W67965  16.784  39.973   1.700
 2486W        W67966  10.815  10.172  12.499
 2487W        W67967  27.692  22.248   0.261
 2488W        W67968  26.576  24.011   3.231
 2489W        W67969  43.515   6.898  11.986
 2490W        W67970   7.347  24.132  10.580
 2491W        W67971   7.743  44.842   2.790
 2492W        W67972  31.542   7.706   0.791
 2493W        W67973  28.595  11.828   3.677
 2494W        W67974  39.021  11.207   4.276
 2495W        W67975   9.869   4.289  12.549
 2496W        W67976  31.955  42.330  14.029
 2497W        W67977  15.642  32.435  13.416
 2498W        W67978  44.821  10.851   4.641
 2499W        W67979  13.607  35.481  12.455
 2500W        W67980  35.410  30.006   2.305
 2501W        W67981  18.243  33.464  11.459
 2502W        W67982  11.794  26.570   3.708
 2503W        W67983  10.186   0.842  12.397
 2504W        W67984  31.938  14.595   2.896
 2505W        W67985   9.334  43.991   2.202
 2506W        W67986  29.100  39.987  14.915
 2507W        W67987  14.193  21.063  11.076
 2508W        W67988  31.404  25.700   4.662
 2509W        W67989  33.030  43.401   3.334
 2510W        W67990  10.137   4.748  14.295
 2511W        W67991  17.761  25.533   0.746
 2512W        W67992  29.929  39.983   0.385
 2513W        W67993  36.528  32.087  11.454
 2514W        W67994  40.821  41.461  10.416
 2515W        W67995  34.904   4.295   4.276
 2516W        W67996   2.853  44.779  14.295
 2517W        W67997   8.770  43.484   2.758
 2518W        W67998  44.933  36.932   4.273
 2519W        W67999   1.909  43.768   2.817
 2520W        W68000   7.872  32.962  11.442
 2521W        W68001   6.425   8.230   2.682
 2522W        W68002  32.914   8.814   0.333
 2523W        W68003  18.670  16.174  12.966
 2524W        W68004  22.739  20.028   1.447
 2525W        W68005   2.839  28.169   0.446
 2526W        W68006  32.111  21.708   3.298
 2527W        W68007  43.869  12.796   3.727
 2528W        W68008  10.171   6.711  12.029
 2529W        W68009  34.984   7.212  10.974
 2530W        W68010  44.856  33.546  12.052
 2531W        W68011   7.714  38.841   3.774
 2532W        W68012  11.200  37.987  12.995
 2533W        W68013  22.602  25.708  10.996
 2534W        W68014  31.510  11.630   1.335
 2535W        W68015  31.061   8.892  14.502
 2536W        W68016  11.300  43.474   0.460
 2537W        W68017  17.612   2.279   1.424
 2538W        W68018  25.002  28.969   2.899
 2539W        W68019  27.972  37.856   3.728
 2540W        W68020  37.027   3.823   4.769
 2541W        W68021  13.660  22.132   1.732
 2542W        W68022  19.637   0.752  10.407
 2543W        W68023   9.205  15.147  10.631
 2544W        W68024  32.019   7.200   3.674
 2545W        W68025   4.223   1.335  12.987
 2546W        W68026  37.037  31.051   2.710
 2547W        W68027  26.564  17.775  13.540
 2548W        W68028  44.311  35.412  11.401
 2549W        W68029  26.090  31.076   1.367
 2550W        W68030  18.585  19.716   4.354
 2551W        W68031   7.337  35.977   4.158
 2552W        W68032  41.467   9.356   2.779
 2553W        W68033  21.640  42.483  14.990
 2554W        W68034  26.597  23.141  12.377
 2555W        W68035  34.881  18.120  14.862
 2556W        W68036  30.112  17.164   3.649
 2557W        W68037  29.557  19.721  13.982
 2558W        W68038  13.230  37.367  11.612
 2559W        W68039   4.758  32.130   3.729
 2560W        W68040  27.681   2.411   2.259
 2561W        W68041  28.160  24.629  13.960
 2562W        W68042   6.403   8.308  12.475
 2563W        W68043  15.638  25.993   0.849
 2564W        W68044   2.438  35.461  10.493
 2565W        W68045  24.723  41.985   1.211
 2566W        W68046  19.696   8.225   2.392
 2567W        W68047  15.273  16.644  11.897
 2568W        W68048  22.594  33.898  12.503
 2569W        W68049  36.381   1.840  10.905
 2570W        W68050  16.768  20.099  13.495
 2571W        W68051  31.039  21.248   2.762
 2572W        W68052  17.652  17.287  11.942
 2573W        W68053  32.084  39.486  13.325
 2574W        W68054  30.016  15.263   2.300
 2575W        W68055  14.292  41.395  14.352
 2576W        W68056  20.228  28.083   1.451
 2577W        W68057  40.429   5.259  14.936
 2578W        W68058   5.282  25.041  10.618
 2579W        W68059  34.088  29.557  13.915
 2580W        W68060  19.267  33.505   2.691
 2581W        W68061   1.439  31.097   4.225
 2582W        W68062  37.971   7.795  10.626
 2583W        W68063  19.234   7.396   0.913
 2584W        W68064  41.380  34.108   1.283
 2585W        W68065  16.298  39.917   1.741
 2586W        W68066   9.645  27.987   2.727
 2587W        W68067  44.868  23.018   3.230
 2588W        W68068  36.558  27.982  10.434
 2589W        W68069   9.889  18.584  14.432
 2590W        W68070  23.066  16.783   0.792
 2591W        W68071  11.818   1.912  13.456
 2592W        W68072  25.173  26.115  14.478
 2593W        W68073  41.410  11.304  12.852
 2594W        W68074   3.414  25.054   4.660
 2595W        W68075  11.742  28.513  14.279
 2596W        W68076  40.433   4.842   1.270
 2597W        W68077   5.424  23.615  13.402
 2598W        W68078  16.670  26.128   2.805
 2599W        W68079  23.055  22.505  12.375
 2600W        W68080  29.945  33.050   3.732
 2601W        W68081  25.005  14.107  13.434
 2602W        W68082   5.268  34.995  10.098
 2603W        W68083   9.212  34.586   2.343
 2604W        W68084  32.897   6.292  13.060
 2605W        W68085  32.497  23.174   4.194
 2606W        W68086   2.774  14.165  10.586
 2607W        W68087  30.986  37.425  10.543
 2608W        W68088  22.072   6.695  13.446
 2609W        W68089   0.272  17.667  10.996
 2610W        W68090  12.362  22.070  11.539
 2611W        W68091   6.832  25.506  10.596
 2612W        W68092  44.300  13.134   3.750
 2613W        W68093  12.807   1.466   1.384
 2614W        W68094  24.135  14.152   1.391
 2615W        W68095  15.664   9.726  14.027
 2616W        W68096  31.002  32.510  14.986
 2617W        W68097  31.595   3.366   2.851
 2618W        W68098  42.942  34.996  11.454
 2619W        W68099  44.298  38.028  14.863
 2620W        W68100  41.922   2.303  10.907
 2621W        W68101  27.527  12.699  14.890
 2622W        W68102  44.977   4.316  12.390
 2623W        W68103   0.489  38.348   3.152
 2624W        W68104  12.261  13.161  14.454
 2625W        W68105  20.722  29.053  14.375
 2626W        W68106   4.748  38.421  14.293
 2627W        W68107   0.914   5.815   2.317
 2628W        W68108  34.999  20.092  13.406
 2629W        W68109  41.822  38.926  10.473
 2630W        W68110  12.690  30.491   1.885
 2631W        W68111  15.313  41.490   2.280
 2632W        W68112  11.706  16.171  11.963
 2633W        W68113  31.647  37.999  12.351
 2634W        W68114  44.963  41.854  10.921
 2635W        W68115  26.127   1.919   3.357
 2636W        W68116  21.018  41.468  11.532
 2637W        W68117  33.585  28.465   3.715
 2638W        W68118  22.540   9.659   4.260
 2639W        W68119  41.436   2.905   0.337
 2640W        W68120   6.754  13.753   2.284
 2641W        W68121  44.007  30.968   1.267
 2642W        W68122  27.558  29.514   4.673
 2643W        W68123  16.244  15.234  14.351
 2644W        W68124   0.489  34.487  10.547
 2645W        W68125  38.076  30.164   1.741
 2646W        W68126  23.534  21.182   0.873
 2647W        W68127  32.407  34.892   3.716
 2648W        W68128  12.270  30.090   3.679
 2649W        W68129  12.713  44.486  10.435
 2650W        W68130  39.887  42.440   3.332
 2651W        W68131  41.399  37.995  14.875
 2652W        W68132  14.310   0.913  13.993
 2653W        W68133  30.969  37.555  12.563
 2654W        W68134   1.347  34.966  13.901
 2655W        W68135   2.814  13.238   1.712
 2656W        W68136  28.182  15.652  14.418
 2657W        W68137   3.836  41.335  11.098
 2658W        W68138  43.999  41.889  10.895
 2659W        W68139   7.694   9.211  11.474
 2660W        W68140  33.898  41.508   4.138
 2661W        W68141  36.001  17.765   4.624
 2662W        W68142  28.141  41.885  12.515
 2663W        W68143   4.362  11.338  11.419
 2664W        W68144  19.567  39.050  11.923
 2665W        W68145  11.290  10.350  11.612
 2666W        W68146  26.463  44.866  10.558
 2667W        W68147  23.642  23.611   4.180
 2668W        W68148   2.329   1.389  11.012
 2669W        W68149  41.015  24.525   4.693
 2670W        W68150  23.109  24.185   0.278
 2671W        W68151  37.342  19.540  12.416
 2672W        W68152  31.576  30.026  12.855
 2673W        W68153   4.760   5.836   1.450
 2674W        W68154  10.855  44.932  13.852
 2675W        W68155   7.388  43.839   2.395
 2676W        W68156   5.818  25.054   1.766
 2677W        W68157  22.739  29.125   2.334
 2678W        W68158  10.647  36.063   4.150
 2679W        W68159  40.860   1.363   2.747
 2680W        W68160  21.690  32.010   0.840
 2681W        W68161  21.536  13.125  10.102
 2682W        W68162  35.484  19.249  14.980
 2683W        W68163  14.629  29.648   2.288
 2684W        W68164  41.005  38.072  12.083
 2685W        W68165   4.714   6.279  10.568
 2686W        W68166  10.337   0.426   1.801
 2687W        W68167   1.262  41.464  11.535
 2688W        W68168   8.385   8.870  14.475
 2689W        W68169  24.607  41.357  11.985
 2690W        W68170   6.893  19.611  12.979
 2691W        W68171  33.600   0.831  13.445
 2692W        W68172  20.050  17.728  14.968
 2693W        W68173  28.507  21.068  12.414
 2694W        W68174  33.992   8.831   4.147
 2695W        W68175  34.464  13.350   0.410
 2696W        W68176  12.280  40.999  10.926
 2697W        W68177  36.858  42.505   0.849
 2698W        W68178  27.191   4.877  12.846
 2699W        W68179  22.711  16.313   0.247
 2700W        W68180  19.624  30.491   4.120
 2701W        W68181   3.293  36.508  12.390
 2702W        W68182  23.623   6.791   4.166
 2703W        W68183  23.096  15.806  13.318
 2704W        W68184  10.282  31.901   1.442
 2705W        W68185  32.472  16.651   4.132
 2706W        W68186  28.160  32.022  14.362
 2707W        W68187   6.209  38.075   2.299
 2708W        W68188   2.408   5.331  13.424
 2709W        W68189  15.748   3.855  14.928
 2710W        W68190  10.285   3.321  11.606
 2711W        W68191  41.355  26.549   0.927
 2712W        W68192  44.818  44.264   1.408
 2713W        W68193  26.618  42.959  13.831
 2714W        W68194   2.428  13.288  14.414
 2715W        W68195  33.490   8.258  11.551
 2716W        W68196  24.086   5.860   1.253
 2717W        W68197  17.670  27.046   0.350
 2718W        W68198  33.967  26.627   4.183
 2719W        W68199   9.225   9.355   4.683
 2720W        W68200  41.853   1.410   2.831
 2721W        W68201  25.614  11.729   2.377
 2722W        W68202  42.882  37.468  13.042
 2723W        W68203  34.575  28.186  10.486
 2724W        W68204  43.495   1.824   4.238
 2725W        W68205  33.876  23.495   0.255
 2726W        W68206   9.714  24.593  14.958
 2727W        W68207   3.880  26.038  11.595
 2728W        W68208  24.581  34.115   4.160
 2729W        W68209   5.915  31.097   4.632
 2730W        W68210   9.243   0.882   1.924
 2731W        W68211  18.165   9.765  13.050
 2732W        W68212  40.884  34.506   0.278
 2733W        W68213   7.389   4.782   3.385
 2734W        W68214  41.354  38.464   0.767
 2735W        W68215  29.958  27.571  11.482
 2736W        W68216  30.483  39.405  14.481
 2737W        W68217  11.288  39.055   0.901
 2738W        W68218  11.343  14.262  13.967
 2739W        W68219  13.805  27.067  14.912
 2740W        W68220  28.082  14.705   3.643
 2741W        W68221   3.762  33.885   3.792
 2742W        W68222  23.674  31.485   4.330
 2743W        W68223  10.743   0.288  14.960
 2744W        W68224  41.811  27.962   1.720
 2745W        W68225  38.904   2.865  12.917
 2746W        W68226  31.986   9.823   1.798
 2747W        W68227  28.002  37.051  11.866
 2748W        W68228  28.500  14.323   0.274
 2749W        W68229  31.515   9.374   0.295
 2750W        W68230   3.341  21.563   1.450
 2751W        W68231  29.046  35.001   1.697
 2752W        W68232  30.454  38.917  10.455
 2753W        W68233   0.457  11.267   2.861
 2754W        W68234  38.075  30.504  12.518
 2755W        W68235  25.201  35.542  11.995
 2756W        W68236  36.588   9.866   1.912
 2757W        W68237  44.263  43.493   4.318
 2758W        W68238   2.413   6.849   4.331
 2759W        W68239  37.492  44.006   1.300
 2760W        W68240  21.035  18.198   0.883
 2761W        W68241  25.642  11.193   3.149
 2762W        W68242  22.091  43.363  13.512
 2763W        W68243  43.496  26.518   4.352
 2764W        W68244  26.157  36.551   0.953
 2765W        W68245  31.568  38.450   2.703
 2766W        W68246  33.992   8.852   0.746
 2767W        W68247  34.466  35.979  10.544
 2768W        W68248  28.507   3.335  14.286
 2769W        W68249   0.790  13.804  11.999
 2770W        W68250   3.802  23.180   0.794
 2771W        W68251  36.963  11.371   3.763
 2772W        W68252   4.427  36.474  11.548
 2773W        W68253  43.512  16.308   3.748
 2774W        W68254  42.015  11.211  11.908
 2775W        W68255  18.265  11.815  13.988
 2776W        W68256  19.047  22.683   2.662
 2777W        W68257   7.224  42.341  14.471
 2778W        W68258  12.734   4.922   1.236
 2779W        W68259  24.118  43.516  13.017
 2780W        W68260  17.238  10.137  10.560
 2781W        W68261  10.371  34.990   4.831
 2782W        W68262   3.900  35.852   4.177
 2783W        W68263  44.439  14.305   1.718
 2784W        W68264   1.366  35.573  11.944
 2785W        W68265  26.051  14.160   3.368
 2786W        W68266  26.585  28.129   4.770
 2787W        W68267  25.651  37.364   0.476
 2788W        W68268  22.069   4.826   0.739
 2789W        W68269  34.903  27.970  13.021
 2790W        W68270  10.731  34.509  11.389
 2791W        W68271  26.207  34.540  12.046
 2792W        W68272  44.489   0.838  14.955
 2793W        W68273  21.752   0.822   4.281
 2794W        W68274   4.723  37.472  11.100
 2795W        W68275  10.270  32.488   3.829
 2796W        W68276  14.191  41.357   0.794
 2797W        W68277  35.075  10.177  11.439
 2798W        W68278  27.546  43.951  11.040
 2799W        W68279   3.400  24.223  12.888
 2800W        W68280   6.748   6.257   4.333
 2801W        W68281  36.043  21.511   2.776
 2802W        W68282  31.924  33.956   3.161
 2803W        W68283  39.953  27.476  12.891
 2804W        W68284  33.543   0.459   4.681
 2805W        W68285  27.142  13.165   2.384
 2806W        W68286  16.222  30.994   3.846
 2807W        W68287  11.155   0.297   2.257
 2808W        W68288   2.290  15.777  14.831
 2809W        W68289  11.674  12.642   1.374
 2810W        W68290  24.558  16.686  14.883
 2811W        W68291  16.242  39.539  12.424
 2812W        W68292  24.610   4.221  12.061
 2813W        W68293  35.416  11.813   4.624
 2814W        W68294  31.469  30.970   3.150
 2815W        W68295  16.219  14.253  10.087
 2816W        W68296  24.110  18.566   3.782
 2817W        W68297  37.559  35.371   4.756
 2818W        W68298  43.991  14.826   3.669
 2819W        W68299   8.343  29.603   4.695
 2820W        W68300  31.408  27.592  14.302
 2821W        W68301  18.263  43.394   1.716
 2822W        W68302   0.898   1.751  13.382
 2823W        W68303  26.988  16.244  14.455
 2824W        W68304  22.683   0.844  10.151
 2825W        W68305  28.436  22.698  13.537
 2826W        W68306  24.215   2.797   1.915
 2827W        W68307   0.393  27.600   3.781
 2828W        W68308  20.179  42.302   4.150
 2829W        W68309  20.210  19.632   4.670
 2830W        W68310  18.645  27.564   4.127
 2831W        W68311  40.496  22.229  12.935
 2832W        W68312  17.771  41.826  12.485
 2833W        W68313  43.393  14.634   2.361
 2834W        W68314   6.824  42.388   4.206
 2835W        W68315  12.261   2.949  10.632
 2836W        W68316  13.254  27.486   4.288
 2837W        W68317  17.213   8.856   2.690
 2838W        W68318  40.374  41.910   4.174
 2839W        W68319  36.075  13.751   2.306
 2840W        W68320  44.781   8.897   1.219
 2841W        W68321  42.864  24.069  13.916
 2842W        W68322  39.477  31.997   3.681
 2843W        W68323  17.793  23.642  12.984
 2844W        W68324  38.879  31.977   4.197
 2845W        W68325  12.306  26.661  10.463
 2846W        W68326   6.904  23.007   4.616
 2847W        W68327  21.589  43.286   0.922
 2848W        W68328  40.906  13.293   3.737
 2849W        W68329  15.175  43.920   0.788
 2850W        W68330  42.314  27.977  11.049
 2851W        W68331  25.684  36.083  12.038
 2852W        W68332  40.368  39.001   4.354
 2853W        W68333  44.865   9.714  11.489
 2854W        W68334  14.189  26.973  13.963
 2855W        W68335  28.953  31.473  12.461
 2856W        W68336  18.702  31.505  13.382
 2857W        W68337  22.510  22.555   3.764
 2858W        W68338  11.771  38.340   1.913
 2859W        W68339   9.334   2.943  11.079
 2860W        W68340   2.378   6.860   0.959
 2861W        W68341  22.011  20.067   2.880
 2862W        W68342   5.701  30.068  13.959
 2863W        W68343  42.438  35.383  10.435
 2864W        W68344  24.484   6.275  12.358
 2865W        W68345  10.688   9.826   1.795
 2866W        W68346   0.404  14.165   1.806
 2867W        W68347  21.217  41.411   0.759
 2868W        W68348  37.553  31.545  13.317
 2869W        W68349   6.286   9.776  12.559
 2870W        W68350  28.651  19.229  13.475
 2871W        W68351   4.704  36.348   3.214
 2872W        W68352  27.531  10.312   0.907
 2873W        W68353  27.639  12.149   1.734
 2874W        W68354   7.381  12.261   1.934
 2875W        W68355   0.324   1.908   4.622
 2876W        W68356  26.057  35.512   4.157
 2877W        W68357  27.550  29.008   3.278
 2878W        W68358  37.925   2.309  12.506
 2879W        W68359  34.610  14.316   1.701
 2880W        W68360  18.649  37.894   0.326
 2881W        W68361  30.093  28.508   0.408
 2882W        W68362   2.966  21.553  12.492
 2883W        W68363   1.366  19.572   4.114
 2884W        W68364  11.801   1.924   1.435
 2885W        W68365  31.023  38.357  11.593
 2886W        W68366  32.568  15.702  13.875
 2887W        W68367  10.291  31.020   0.757
 2888W        W68368  34.994   6.279  13.522
 2889W        W68369   9.278  38.424   0.407
 2890W        W68370  23.496  35.362  12.377
 2891W        W68371  28.436  25.969  13.935
 2892W        W68372  13.773  10.674   0.855
 2893W        W68373  17.665  14.176   1.251
 2894W        W68374  12.786  33.064   3.721
 2895W        W68375  17.271  11.347  12.055
 2896W        W68376  13.129  12.340  12.940
 2897W        W68377  30.063  41.994   4.770
 2898W        W68378   3.849  38.360  14.342
 2899W        W68379  44.955  11.162  10.630
 2900W        W68380  31.619  30.994  13.440
 2901W        W68381   0.476  34.476   3.249
 2902W        W68382  26.681  30.089   4.704
 2903W        W68383  28.650  35.944  12.951
 2904W        W68384  41.931  12.314   4.718
 2905W        W68385  27.146  17.760   1.348
 2906W        W68386   4.709  27.449  12.528
 2907W        W68387   5.904  11.681   0.881
 2908W        W68388  25.091  16.754   1.405
 2909W        W68389  23.217  25.558  14.431
 2910W        W68390  22.176  40.913   3.220
 2911W        W68391  13.623   9.265  14.374
 2912W        W68392  31.608   4.754  10.032
 2913W        W68393  35.935   9.372   2.402
 2914W        W68394  13.683  25.177  11.491
 2915W        W68395  13.203  32.939   4.643
 2916W        W68396   1.467   4.252   1.405
 2917W        W68397  16.191  16.638   2.762
 2918W        W68398  29.105  26.457   0.816
 2919W        W68399  14.306  33.424   4.720
 2920W        W68400  42.292  22.672   3.673
 2921W        W68401  36.046  17.672   1.927
 2922W        W68402  34.903  41.842   4.788
 2923W        W68403  30.430  22.105  13.454
 2924W        W68404  39.991  33.526   0.839
 2925W        W68405  16.080  35.853   3.857
 2926W        W68406  18.620  30.936  10.997
 2927W        W68407  30.413   8.260   0.295
 2928W        W68408   3.813  35.379   0.481
 2929W        W68409  42.382  19.164  11.894
 2930W        W68410   9.725   6.261  14.322
 2931W        W68411  23.985  39.021   3.808
 2932W        W68412  38.570  20.603  10.956
 2933W        W68413  20.193  18.194   5.308
 2934W        W68414  28.943  13.228  11.866
 2935W        W68415  22.212   9.383  11.047
 2936W        W68416  23.596  36.378   1.238
 2937W        W68417   0.452  32.920  12.425
 2938W        W68418  35.444  26.978  12.542
 2939W        W68419  25.986  33.457  10.518
 2940W        W68420  29.562  15.320   0.736
 2941W        W68421   2.776  29.138  14.788
 2942W        W68422  15.275  23.107  11.960
 2943W        W68423  24.598  13.737   2.829
 2944W        W68424   7.409   5.227  12.426
 2945W        W68425  20.685   6.406  12.512
 2946W        W68426  38.462  12.170   4.651
 2947W        W68427  22.536   5.439   4.259
 2948W        W68428  22.025  24.125   0.732
 2949W        W68429  17.673  34.967  11.548
 2950W        W68430  27.608  31.434  11.124
 2951W        W68431  39.502  18.060   2.201
 2952W        W68432  43.017  35.064   3.375
 2953W        W68433  41.937   9.256   3.241
 2954W        W68434  11.185  22.126   3.375
 2955W        W68435  20.249  28.009   2.870
 2956W        W68436  43.807  42.406   2.372
 2957W        W68437   4.221  17.235  12.961
 2958W        W68438  19.249  40.407   3.851
 2959W        W68439  14.282  44.830  13.338
 2960W        W68440  32.960  19.685   3.339
 2961W        W68441   5.206  44.891  12.051
 2962W        W68442  23.132  13.249   2.393
 2963W        W68443  23.015  44.882  13.507
 2964W        W68444  36.555   5.816  13.017
 2965W        W68445  18.588  11.709  14.483
 2966W        W68446   1.787  32.010   2.765
 2967W        W68447  22.744  43.515  14.349
 2968W        W68448  17.074  30.119  13.970
 2969W        W68449  25.616  39.465   3.751
 2970W        W68450  36.016  36.894   3.831
 2971W        W68451  41.292  40.534   0.251
 2972W        W68452  17.689  30.441  13.927
 2973W        W68453  41.845  16.620   4.782
 2974W        W68454  14.133  39.434  12.473
 2975W        W68455  22.692  27.141   0.899
 2976W        W68456  42.958   0.315  10.591
 2977W        W68457  19.640  21.096  11.968
 2978W        W68458  26.573  17.684   0.736
 2979W        W68459  25.649  34.984  13.900
 2980W        W68460  15.649  24.513  13.379
 2981W        W68461  30.638  19.173   1.277
 2982W        W68462  41.487  16.767   4.192
 2983W        W68463   4.877  40.932  13.493
 2984W        W68464  11.185   2.293   1.876
 2985W        W68465  12.681  37.031  12.924
 2986W        W68466  42.508  34.539   3.298
 2987W        W68467   2.442  28.037  11.935
 2988W        W68468  14.175   5.297   0.790
 2989W        W68469  29.567  17.625  13.961
 2990W        W68470  24.218  20.538  12.006
 2991W        W68471  28.147   2.821  11.391
 2992W        W68472   1.246  42.918   2.667
 2993W        W68473  33.910  28.999   4.701
 2994W        W68474   3.361  33.499   0.952
 2995W        W68475  11.810  21.754  11.490
 2996W        W68476  16.612  15.146  13.438
 2997W        W68477   6.836  40.333   4.181
 2998W        W68478  16.154   2.331  14.980
 2999W        W68479  44.754  42.940   4.613
 3000W        W68480  44.886  16.571   4.230
 3001W        W68481  36.024  32.561   2.406
 3002W        W68482  43.970  44.930   1.899
 3003W        W68483  12.229  14.230   4.228
 3004W        W68484  26.582  40.892  13.878
 3005W        W68485   0.765  14.606   0.936
 3006W        W68486  30.460  11.232   2.747
 3007W        W68487  29.048   8.758   4.227
 3008W        W68488  33.117  28.551  14.997
 3009W        W68489  29.595   4.831   9.961
 3010W        W68490   7.680  14.672  10.422
 3011W        W68491   3.436   0.864  12.420
 3012W        W68492  21.669   0.477  12.987
 3013W        W68493  24.650  16.259   3.651
 3014W        W68494   5.232   1.965  14.316
 3015W        W68495  42.997   5.892   1.734
 3016W        W68496  44.294  32.003   2.880
 3017W        W68497  41.856  14.263  10.971
 3018W        W68498  19.107  25.140  14.969
 3019W        W68499   9.763  22.650   0.285
 3020W        W68500  29.069   8.370   3.298
 3021W        W68501  21.054  34.590  13.880
 3022W        W68502   0.467  22.192  13.791
 3023W        W68503  13.806   8.402  12.837
 3024W        W68504   1.748   4.788  10.950
 3025W        W68505  30.950   9.172   1.314
 3026W        W68506  10.745  11.305   1.444
 3027W        W68507  25.681  11.256  13.999
 3028W        W68508  27.670   4.390  12.529
 3029W        W68509  24.611  20.689  12.943
 3030W        W68510   0.779  23.139  12.389
 3031W        W68511  24.136  28.445   4.756
 3032W        W68512  18.226  18.697   0.270
 3033W        W68513   6.324  41.943   4.795
 3034W        W68514  35.446  16.787   3.814
 3035W        W68515   2.359   2.922   4.791
 3036W        W68516  20.209  25.016  13.804
 3037W        W68517  25.141  28.614  14.935
 3038W        W68518  39.359  33.897  13.839
 3039W        W68519   5.925   9.214  13.960
 3040W        W68520  19.124  12.647  11.978
 3041W        W68521  15.814  36.356   2.789
 3042W        W68522   9.250   8.402   1.872
 3043W        W68523   8.658  13.772  11.396
 3044W        W68524   4.871  12.210  14.501
 3045W        W68525  23.067   5.727   1.274
 3046W        W68526   5.898   8.374   3.319
 3047W        W68527  23.550  11.646  11.873
 3048W        W68528  28.000  16.608  12.342
 3049W        W68529  36.904  11.779   0.733
 3050W        W68530  15.605  31.971   2.212
 3051W        W68531  31.522  43.444  13.891
 3052W        W68532   6.784   2.469   3.808
 3053W        W68533  33.487  24.717  14.925
 3054W        W68534   1.803  26.970   3.842
 3055W        W68535  27.949  33.404  11.036
 3056W        W68536  28.454  39.880  13.918
 3057W        W68537  43.019  25.493   2.195
 3058W        W68538  16.623  18.701   1.830
 3059W        W68539   8.324  29.116  13.385
 3060W        W68540  37.018  23.021   3.252
 3061W        W68541   4.378  44.338  10.406
 3062W        W68542  43.970  42.005   3.206
 3063W        W68543  16.225  37.018  14.968
 3064W        W68544  14.776  31.934   4.738
 3065W        W68545  18.231  41.991   2.842
 3066W        W68546   2.881   5.307   0.777
 3067W        W68547  28.965   1.251   2.192
 3068W        W68548  19.082  42.012   4.696
 3069W        W68549  24.130  21.184  12.966
 3070W        W68550  22.021   4.699   1.913
 3071W        W68551  17.691  20.110   4.777
 3072W        W68552  23.156  26.129  10.575
 3073W        W68553  24.676  43.817   2.764
 3074W        W68554  42.915  26.588   4.270
 3075W        W68555  20.261  13.158   4.345
 3076W        W68556   9.756   8.219  10.992
 3077W        W68557  10.806  44.863   0.936
 3078W        W68558  14.646  28.181   3.754
 3079W        W68559  36.867  18.579  13.385
 3080W        W68560  19.738  18.589  11.470
 3081W        W68561  32.982  40.941   0.855
 3082W        W68562   4.293   5.432   3.352
 3083W        W68563  44.781   3.946  14.921
 3084W        W68564   5.242  13.627   2.315
 3085W        W68565   5.281  40.903   0.252
 3086W        W68566   6.727  33.118  11.505
 3087W        W68567  35.992  20.549  10.531
 3088W        W68568  43.407  18.606   2.854
 3089W        W68569   4.876  28.948  14.980
 3090W        W68570  29.470  13.241   5.117
 3091W        W68571  10.353  22.560  10.636
 3092W        W68572   2.834  33.102   2.751
 3093W        W68573  24.531  41.838   3.671
 3094W        W68574  21.658  11.292  14.790
 3095W        W68575  25.136  44.799   3.751
 3096W        W68576  13.318  35.369  10.552
 3097W        W68577  23.081  36.552  14.785
 3098W        W68578  13.776  28.528   2.292
 3099W        W68579   0.428  38.998  13.353
 3100W        W68580  35.412  37.069   3.864
 3101W        W68581  29.558   5.708   0.376
 3102W        W68582  41.406  27.999  10.910
 3103W        W68583   3.338  20.676  14.847
 3104W        W68584   3.331   3.773   1.857
 3105W        W68585   2.957   3.951  13.918
 3106W        W68586  20.754  29.944  10.935
 3107W        W68587   1.848  43.376  13.341
 3108W        W68588  15.185  27.469   3.674
 3109W        W68589  11.735  20.583   0.374
 3110W        W68590  13.756  31.512   4.184
 3111W        W68591   6.764   8.789   4.761
 3112W        W68592  14.136  40.452   4.234
 3113W        W68593   5.906  18.626   0.901
 3114W        W68594  16.238  43.843  14.330
 3115W        W68595   9.861   8.738   3.675
 3116W        W68596  31.900   8.767   4.128
 3117W        W68597   3.735  39.494   3.247
 3118W        W68598  24.100  11.827  13.541
 3119W        W68599  33.086   7.373  14.365
 3120W        W68600  25.029   3.811  13.330
 3121W        W68601   6.704  29.507   0.387
 3122W        W68602   8.778  11.690   5.108
 3123W        W68603  34.937  40.874   3.803
 3124W        W68604   2.741  28.063   3.224
 3125W        W68605   0.988  31.105  10.990
 3126W        W68606   1.951  37.496   1.266
 3127W        W68607  33.015  38.058  10.416
 3128W        W68608  34.012  42.899  11.388
 3129W        W68609  20.746  17.298   0.966
 3130W        W68610  40.478  29.445   4.661
 3131W        W68611  29.140  36.065  12.374
 3132W        W68612  19.217  24.986   4.197
 3133W        W68613  29.159  29.551  14.963
 3134W        W68614   8.743  37.076   4.756
 3135W        W68615   4.432  43.385  12.383
 3136W        W68616  28.667  42.441  13.905
 3137W        W68617   9.795   3.459  11.914
 3138W        W68618  32.437  33.557   1.785
 3139W        W68619  13.344  30.600   1.708
 3140W        W68620  30.108  30.996  11.024
 3141W        W68621   5.240  31.604  12.416
 3142W        W68622  30.122  13.253  14.921
 3143W        W68623  11.786   5.269   4.705
 3144W        W68624   4.347  20.091  13.809
 3145W        W68625  16.693  20.751  14.377
 3146W        W68626  26.052  37.540  13.987
 3147W        W68627  23.060  43.420  14.014
 3148W        W68628  14.274  12.323  14.779
 3149W        W68629   3.215  33.596  12.828
 3150W        W68630  41.034  17.068  10.626
 3151W        W68631   1.396  12.278  12.943
 3152W        W68632  41.022  12.272  11.954
 3153W        W68633  40.494   3.352   0.876
 3154W        W68634  44.309  35.906   0.834
 3155W        W68635   7.262  37.401   3.656
 3156W        W68636  35.427   1.420   2.773
 3157W        W68637  23.719  43.371  10.924
 3158W        W68638   3.237  20.708  12.972
 3159W        W68639  20.207  12.726   3.744
 3160W        W68640  27.122  25.116  13.386
 3161W        W68641  13.766  24.111  14.323
 3162W        W68642  20.060  22.596  13.900
 3163W        W68643  15.298  17.745   2.832
 3164W        W68644  25.147  41.818  11.118
 3165W        W68645  14.321  43.502   0.814
 3166W        W68646  11.756  31.573  11.053
 3167W        W68647  24.191  32.931   1.905
 3168W        W68648  16.646  33.581   3.714
 3169W        W68649  27.650  11.742   0.831
 3170W        W68650  24.183  15.302  13.970
 3171W        W68651   3.342   4.934   4.785
 3172W        W68652   9.715  21.528  11.122
 3173W        W68653  16.723  25.168  11.395
 3174W        W68654  32.092  33.053   3.239
 3175W        W68655  38.888  42.792   3.870
 3176W        W68656  20.676   5.351  12.077
 3177W        W68657   7.177  29.078  14.935
 3178W        W68658  17.227  44.766   0.804
 3179W        W68659  32.013  43.899  11.909
 3180W        W68660  38.953  18.648   0.411
 3181W        W68661  32.132   6.696  10.542
 3182W        W68662  16.573  18.608   4.715
 3183W        W68663  29.510   4.853  13.511
 3184W        W68664   7.346   3.840   4.625
 3185W        W68665  44.294  37.555   1.866
 3186W        W68666  27.064  12.132  12.021
 3187W        W68667  32.512  12.773  14.821
 3188W        W68668   7.803  24.132   1.218
 3189W        W68669  11.763  20.733   4.619
 3190W        W68670  13.175  34.866  10.632
 3191W        W68671  11.823  21.697  13.849
 3192W        W68672  18.089  30.911   0.962
 3193W        W68673  24.724  21.096  13.534
 3194W        W68674  40.484   9.227  10.992
 3195W        W68675  42.482   3.900   3.788
 3196W        W68676  37.065  10.364  12.489
 3197W        W68677  11.181  20.139  11.097
 3198W        W68678  26.011   4.359  14.817
 3199W        W68679   9.152   0.923   1.386
 3200W        W68680  23.071  18.271   2.672
 3201W        W68681   8.668   7.763   2.754
 3202W        W68682  24.013  39.557   2.230
 3203W        W68683  12.293  38.943  11.921
 3204W        W68684  30.147  27.137   4.297
 3205W        W68685  12.640  35.094   3.182
 3206W        W68686  44.411  17.133  14.348
 3207W        W68687   7.717   3.713   1.853
 3208W        W68688   7.381  21.132   0.838
 3209W        W68689  12.809  13.629  12.083
 3210W        W68690  18.263   5.350  14.830
 3211W        W68691   7.801  41.310  11.469
 3212W        W68692  24.084  23.626  14.479
 3213W        W68693  38.002  27.529   4.735
 3214W        W68694   5.380  30.108   3.691
 3215W        W68695  12.279   2.245  10.892
 3216W        W68696  28.434  35.389   1.859
 3217W        W68697  22.633   5.744  14.769
 3218W        W68698  21.248  14.230  14.827
 3219W        W68699  39.901   9.881   3.229
 3220W        W68700  16.659  15.282  12.827
 3221W        W68701  14.741  24.590   2.750
 3222W        W68702   5.733  42.836  14.431
 3223W        W68703  20.056   3.810  14.506
 3224W        W68704   0.781  43.021   2.890
 3225W        W68705  25.069  39.395   1.420
 3226W        W68706  10.140   0.984   0.415
 3227W        W68707  26.687   6.683   2.797
 3228W        W68708   9.664  36.906   3.311
 3229W        W68709  11.666  21.670   2.811
 3230W        W68710  23.616  28.564  13.478
 3231W        W68711  43.410  32.059  11.383
 3232W        W68712   6.767  38.894   1.854
 3233W        W68713  43.970  32.416  12.554
 3234W        W68714   9.245  34.425  11.948
 3235W        W68715   5.704  40.871   2.223
 3236W        W68716  17.558  43.801   4.642
 3237W        W68717  26.157   0.760   1.750
 3238W        W68718  20.587  25.065  11.488
 3239W        W68719   7.220  33.625  13.004
 3240W        W68720  31.060  39.475  11.896
 3241W        W68721  18.260  31.911   0.736
 3242W        W68722  29.490   0.365   4.677
 3243W        W68723  31.972   9.662   0.785
 3244W        W68724  34.954  31.928  13.486
 3245W        W68725  16.801  37.464  12.353
 3246W        W68726  32.926   3.744  11.963
 3247W        W68727  11.796  26.634   2.778
 3248W        W68728   9.833  36.525   4.219
 3249W        W68729   3.446  16.132   0.816
 3250W        W68730  11.683  27.463   0.904
 3251W        W68731   5.726  13.242  13.882
 3252W        W68732  29.155   2.374  13.412
 3253W        W68733  22.521  27.017   1.315
 3254W        W68734  40.941  12.273  12.559
 3255W        W68735  14.210  27.627   0.453
 3256W        W68736   2.272   4.842  11.576
 3257W        W68737  27.665   4.237  10.965
 3258W        W68738  20.723   7.358   3.177
 3259W        W68739  28.450  42.348  12.462
 3260W        W68740   1.821   5.399  12.581
 3261W        W68741  39.382  20.678  10.618
 3262W        W68742  41.845  34.925  13.888
 3263W        W68743  30.103  38.028  14.509
 3264W        W68744   4.449  17.565   2.712
 3265W        W68745  30.095  16.121  10.541
 3266W        W68746  24.501  17.612  14.829
 3267W        W68747  30.616  35.989   1.380
 3268W        W68748  26.463   6.404   2.820
 3269W        W68749  22.524   3.441   5.296
 3270W        W68750   0.840  43.776  13.513
 3271W        W68751  44.949  14.695  14.456
 3272W        W68752  20.619   6.369   2.675
 3273W        W68753  25.596  10.710   1.857
 3274W        W68754  13.204  22.205  12.064
 3275W        W68755  34.000  17.757  10.425
 3276W        W68756  34.917  13.131   0.304
 3277W        W68757  11.740   4.332   2.865
 3278W        W68758  32.965  33.923  10.985
 3279W        W68759  11.682   8.891   0.405
 3280W        W68760  37.841  38.843  10.092
 3281W        W68761  29.149  38.334  11.519
 3282W        W68762  14.819   7.779  10.467
 3283W        W68763   8.799  23.614   3.829
 3284W        W68764  41.528  38.538  13.881
 3285W        W68765  38.911  34.410  13.943
 3286W        W68766  32.953   2.759   0.839
 3287W        W68767  39.482   1.285  13.896
 3288W        W68768   5.834  25.141  12.894
 3289W        W68769  43.492  20.211  12.977
 3290W        W68770  29.617  14.279   4.149
 3291W        W68771  31.435  20.523   2.697
 3292W        W68772  42.527   8.353   2.269
 3293W        W68773  35.549  40.420   3.300
 3294W        W68774  39.997  16.149   0.437
 3295W        W68775   7.811  36.567  14.443
 3296W        W68776  34.589   0.441  14.371
 3297W        W68777  36.860  38.465   3.333
 3298W        W68778  32.438  29.158  11.409
 3299W        W68779  34.056  34.057   4.769
 3300W        W68780  14.227  15.127   2.662
 3301W        W68781  44.761  40.922   2.696
 3302W        W68782  31.453  22.252  13.790
 3303W        W68783  31.560  38.061   4.219
 3304W        W68784  17.599  20.248   3.261
 3305W        W68785  29.524  12.339  10.500
 3306W        W68786  29.573  33.084   1.227
 3307W        W68787  11.735  23.681  11.095
 3308W        W68788  35.360  12.239  12.079
 3309W        W68789  36.542  39.808  12.905
 3310W        W68790  24.079  10.154   2.244
 3311W        W68791  20.686   0.757  11.040
 3312W        W68792  19.552  31.021   1.297
 3313W        W68793  10.843   1.833  10.454
 3314W        W68794  39.813  14.273  12.520
 3315W        W68795  12.188  29.626   4.240
 3316W        W68796  38.554  10.779  11.061
 3317W        W68797  34.032  41.348  14.922
 3318W        W68798   2.375   7.814  10.998
 3319W        W68799  11.271  23.175  12.462
 3320W        W68800  25.070  16.691   3.313
 3321W        W68801  40.891  20.064  14.031
 3322W        W68802  28.161  40.947   4.663
 3323W        W68803  24.139   7.764  14.869
 3324W        W68804   5.262  10.725  10.508
 3325W        W68805   4.829   5.251  14.436
 3326W        W68806  28.957  38.464  10.587
 3327W        W68807  12.741  35.992  10.466
 3328W        W68808  34.926  10.344   3.643
 3329W        W68809  23.669   5.201  13.795
 3330W        W68810  10.206   7.749   1.721
 3331W        W68811  30.908  35.373  14.777
 3332W        W68812  28.085   0.962   3.376
 3333W        W68813  19.633  27.510   0.266
 3334W        W68814  10.765   2.438  14.327
 3335W        W68815  12.296   3.745  14.482
 3336W        W68816  28.069  34.499  11.589
 3337W        W68817  39.881  39.409  11.003
 3338W        W68818  16.619  42.928   0.822
 3339W        W68819  40.443  33.072  12.477
 3340W        W68820  10.167   4.788  14.003
 3341W        W68821  29.069  37.954  12.879
 3342W        W68822  41.969  42.515  14.435
 3343W        W68823  18.560   4.375  13.350
 3344W        W68824  30.535  12.653  10.635
 3345W        W68825   4.281  32.061   2.309
 3346W        W68826  43.495  22.050   1.818
 3347W        W68827   3.929  36.004  12.389
 3348W        W68828  21.085  12.164   3.719
 3349W        W68829  23.574  35.076  10.497
 3350W        W68830  22.164  33.493   4.783
 3351W        W68831   2.747   7.789   2.337
 3352W        W68832  40.889  31.111   3.753
 3353W        W68833  25.508  33.455  10.447
 3354W        W68834  21.162  23.666   1.345
 3355W        W68835  36.442  33.425   0.729
 3356W        W68836  28.615  14.266   1.799
 3357W        W68837  37.438  30.123   0.761
 3358W        W68838  12.623  30.972   1.717
 3359W        W68839   1.341  43.469   1.323
 3360W        W68840  21.193  22.042   2.366
 3361W        W68841  20.542   7.693   3.272
 3362W        W68842  26.550  36.069   0.373
 3363W        W68843  32.979  28.666  11.499
 3364W        W68844   3.233  26.593   2.274
 3365W        W68845  19.666  35.400  11.482
 3366W        W68846  13.604   1.765  11.087
 3367W        W68847  25.082  10.238   2.825
 3368W        W68848  31.023  16.247   3.235
 3369W        W68849  26.464  11.813   4.159
 3370W        W68850  11.694  28.546   0.276
 3371W        W68851   9.868  40.821  10.471
 3372W        W68852  42.909  25.971   2.324
 3373W        W68853   9.275   7.310  11.979
 3374W        W68854   7.385  29.524  14.822
 3375W        W68855  34.440  28.944   0.340
 3376W        W68856   9.342   5.304  12.828
 3377W        W68857  22.512   7.847   2.180
 3378W        W68858   2.930   4.787  11.976
 3379W        W68859  25.204  24.110  13.383
 3380W        W68860  12.281  29.161   2.836
 3381W        W68861  42.334  12.644   4.261
 3382W        W68862  44.465   2.828   1.776
 3383W        W68863  17.291   3.798   3.862
 3384W        W68864   2.418   4.890  10.954
 3385W        W68865  36.968  25.181  14.432
 3386W        W68866  34.410  39.482  14.281
 3387W        W68867  37.476  28.555   4.290
 3388W        W68868  43.944  34.067  11.521
 3389W        W68869  39.974   3.920  12.428
 3390W        W68870  31.578  42.879  11.553
 3391W        W68871  39.902  12.729  10.565
 3392W        W68872  44.978  27.512   3.871
 3393W        W68873   2.447   9.803   3.779
 3394W        W68874  34.553  29.971  12.510
 3395W        W68875  43.814  37.901  11.122
 3396W        W68876  39.555   4.247   3.633
 3397W        W68877  34.909  42.861  11.556
 3398W        W68878  13.629  22.721  11.890
 3399W        W68879  44.322  44.275   2.744
 3400W        W68880  24.601  24.060  14.440
 3401W        W68881  20.044  32.051   2.242
 3402W        W68882   4.324  11.645   0.915
 3403W        W68883  14.135  22.150   3.317
 3404W        W68884   4.302  21.105   0.340
 3405W        W68885  19.613   1.777   3.844
 3406W        W68886  29.006  43.785  12.546
 3407W        W68887  34.887  28.181   3.834
 3408W        W68888  24.025  20.049   3.208
 3409W        W68889  11.186  33.975   4.354
 3410W        W68890  39.524   1.957  13.813
 3411W        W68891  37.843   6.219  10.416
 3412W        W68892   3.428  43.958   4.305
 3413W        W68893  25.515  40.325   4.640
 3414W        W68894   4.860   5.215   4.777
 3415W        W68895   2.276   3.763   0.371
 3416W        W68896  29.478  25.980  10.584
 3417W        W68897   9.394  43.439  12.472
 3418W        W68898  33.933  17.259  10.057
 3419W        W68899  19.720  13.308   5.250
 3420W        W68900   6.685  37.581  11.493
 3421W        W68901   1.383   6.354  10.451
 3422W        W68902   0.977   6.753  11.112
 3423W        W68903   5.221  19.055  13.911
 3424W        W68904  35.003  25.995  14.395
 3425W        W68905  40.347   4.304   0.762
 3426W        W68906   1.904  12.655   0.356
 3427W        W68907  31.024   5.699  13.992
 3428W        W68908  18.720   0.843  10.439
 3429W        W68909  19.676   7.669   9.990
 3430W        W68910  33.031   7.413  11.484
 3431W        W68911  36.551  36.420   2.281
 3432W        W68912  44.756  34.874   1.385
 3433W        W68913   1.344  34.867   4.203
 3434W        W68914  30.011   2.373  12.949
 3435W        W68915  35.943  13.135  10.898
 3436W        W68916  19.631  34.533   2.340
 3437W        W68917  18.558  16.634   4.199
 3438W        W68918  11.783  18.593  11.420
 3439W        W68919  34.067  36.584   3.268
 3440W        W68920  43.314   0.881   3.277
 3441W        W68921  34.602  27.010  13.900
 3442W        W68922   8.857  16.739  12.969
 3443W        W68923  14.261  23.136  14.341
 3444W        W68924   0.843  21.617   0.280
 3445W        W68925  26.974  30.619  11.985
 3446W        W68926  19.195  41.305  12.842
 3447W        W68927  18.691  14.759  11.574
 3448W        W68928  22.589   1.290   4.124
 3449W        W68929  16.572   0.259  14.500
 3450W        W68930  42.327   3.229  11.062
 3451W        W68931  33.994  42.361  14.004
 3452W        W68932  18.581  11.645  13.330
 3453W        W68933  28.144  14.256  14.014
 3454W        W68934  31.520  28.488  14.849
 3455W        W68935  11.319   6.221   1.425
 3456W        W68936  42.986  23.566   3.795
 3457W        W68937  24.589  44.323  11.424
 3458W        W68938  37.413  22.011   1.276
 3459W        W68939  10.754  34.946   1.826
 3460W        W68940  25.474  33.538   2.717
 3461W        W68941  19.675  23.731  14.881
 3462W        W68942  19.229  41.814  10.568
 3463W        W68943  24.687  42.811  11.472
 3464W        W68944  37.918  31.108   1.927
 3465W        W68945  40.932  33.925   0.252
 3466W        W68946  36.093  20.049  14.437
 3467W        W68947  35.991  29.615   2.824
 3468W        W68948  36.465  24.558  13.338
 3469W        W68949  34.874  30.585  10.407
 3470W        W68950  33.907  26.018  10.507
 3471W        W68951  21.645  14.615  14.367
 3472W        W68952  41.349  15.718   2.872
 3473W        W68953  29.171  43.783  13.058
 3474W        W68954  39.518   7.882  14.466
 3475W        W68955  18.624  40.463   3.869
 3476W        W68956  28.651   5.291   0.265
 3477W        W68957  22.036  21.606   2.339
 3478W        W68958  40.956  10.372   0.959
 3479W        W68959  40.519  32.438  13.031
 3480W        W68960  20.253   3.747  13.896
 3481W        W68961  26.025  19.736   2.338
 3482W        W68962  36.393   2.893   1.928
 3483W        W68963   1.416  43.971  14.769
 3484W        W68964   9.852  21.153  11.528
 3485W        W68965  30.567  16.732  12.042
 3486W        W68966  35.106  10.148  11.988
 3487W        W68967  35.950  44.505   2.841
 3488W        W68968   3.327  25.139  13.062
 3489W        W68969  19.118  41.441   0.282
 3490W        W68970   7.805  27.673   0.366
 3491W        W68971   0.329   7.844   4.695
 3492W        W68972   6.819   9.793   4.697
 3493W        W68973  23.040  20.218  13.895
 3494W        W68974  25.142  35.979   2.283
 3495W        W68975  25.656  11.759   3.309
 3496W        W68976  28.569  40.818   4.736
 3497W        W68977  12.179  38.366   0.926
 3498W        W68978  36.996   4.348  11.943
 3499W        W68979  21.715  29.161  11.880
 3500W        W68980   8.787   3.952   4.262
 3501W        W68981  27.165  38.351   4.316
 3502W        W68982  13.790  15.327  14.412
 3503W        W68983   5.769  28.586   4.820
 3504W        W68984  12.667   4.902  11.902
 3505W        W68985   1.272  20.597  13.963
 3506W        W68986   7.230  30.543  10.984
 3507W        W68987  29.975  16.709   4.628
 3508W        W68988  39.003   3.439   0.391
 3509W        W68989  33.974   9.664  13.328
 3510W        W68990   4.802  36.030   0.284
 3511W        W68991  18.289  33.421   2.344
 3512W        W68992   7.727   3.880   3.224
 3513W        W68993  20.603  12.798   4.674
 3514W        W68994   7.263  17.591   0.947
 3515W        W68995  33.502   9.205  10.953
 3516W        W68996  15.177  37.410  13.500
 3517W        W68997   6.215  42.853  13.802
 3518W        W68998   3.430  19.124   2.705
 3519W        W68999  41.876  17.578   2.865
 3520W        W69000  29.033  37.006  11.373
 3521W        W69001  31.108   0.361  12.361
 3522W        W69002  43.379  13.821   2.729
 3523W        W69003  18.277   3.802   3.240
 3524W        W69004  34.098   1.753   2.840
 3525W        W69005  44.998   1.451  13.317
 3526W        W69006   4.915  36.849   1.405
 3527W        W69007  27.174  32.026   3.224
 3528W        W69008  24.582  19.174   4.804
 3529W        W69009  37.066  19.624  13.865
 3530W        W69010  38.845  28.156  11.056
 3531W        W69011  20.157  35.447   2.706
 3532W        W69012  18.274   9.295  10.462
 3533W        W69013  39.390  39.859   2.723
 3534W        W69014   5.908  25.137  12.561
 3535W        W69015  18.120  32.962  13.466
 3536W        W69016  44.954  36.368   4.301
 3537W        W69017  41.943   0.299   0.351
 3538W        W69018  20.249   7.273   3.305
 3539W        W69019   8.166  16.658   1.305
 3540W        W69020   2.319  21.693  13.940
 3541W        W69021  40.822  41.023   1.733
 3542W        W69022  38.902   9.370  14.511
 3543W        W69023  36.507   0.410   3.820
 3544W        W69024   0.891  28.495   3.344
 3545W        W69025  10.221  29.009  13.890
 3546W        W69026  43.767  41.789   0.905
 3547W        W69027   8.295  41.434  10.431
 3548W        W69028  32.139   3.439  13.883
 3549W        W69029  24.011  40.387   3.846
 3550W        W69030  21.551  32.010  13.515
 3551W        W69031  26.068   7.801  13.019
 3552W        W69032  40.979  24.154  14.475
 3553W        W69033  41.026  12.163  11.126
 3554W        W69034  40.951  32.938  13.827
 3555W        W69035  14.758  10.312  11.036
 3556W        W69036  29.603  37.380  13.011
 3557W        W69037  10.291  20.191  12.397
 3558W        W69038   0.334   7.755  13.344
 3559W        W69039  30.590  31.908  14.293
 3560W        W69040   7.668  31.505   4.773
 3561W        W69041  20.631   4.268   0.272
 3562W        W69042  38.348  42.511   2.340
 3563W        W69043  41.035   4.730  14.804
 3564W        W69044   0.259  35.980   3.340
 3565W        W69045   3.756  32.632  12.831
 3566W        W69046  13.686  40.889  12.921
 3567W        W69047  25.073  23.639  12.351
 3568W        W69048  12.701  26.184   3.756
 3569W        W69049  39.516  41.978  14.364
 3570W        W69050  21.742   4.292   4.283
 3571W        W69051  29.486  39.906   3.178
 3572W        W69052  18.225  22.512  14.765
 3573W        W69053   8.829  34.116  10.435
 3574W        W69054  44.359  26.143  10.508
 3575W        W69055   6.726  38.503  14.310
 3576W        W69056   6.396   6.420   2.812
 3577W        W69057  27.127  34.049   1.771
 3578W        W69058  37.428   2.765  13.986
 3579W        W69059  12.243   4.250   3.677
 3580W        W69060  16.153  20.714   2.406
 3581W        W69061  34.028  22.694   4.728
 3582W        W69062  15.605   9.389  11.508
 3583W        W69063   8.869   0.788   3.283
 3584W        W69064  19.664  20.679   0.747
 3585W        W69065  42.775   1.887   2.205
 3586W        W69066  21.155  44.926   2.179
 3587W        W69067  20.063  16.785   1.253
 3588W        W69068   3.893  44.503   3.839
 3589W        W69069  35.576  26.700   4.175
 3590W        W69070  38.505  27.618   0.793
 3591W        W69071   3.775  32.907   2.274
 3592W        W69072  33.551  20.590   9.922
 3593W        W69073  15.226  33.127  14.402
 3594W        W69074   3.421  33.483   1.215
 3595W        W69075  38.948  44.879  13.327
 3596W        W69076  24.510  22.074  14.452
 3597W        W69077  18.571  43.276   2.277
 3598W        W69078  40.929  26.040   3.214
 3599W        W69079   3.412  12.670  12.067
 3600W        W69080  27.572  35.106   1.451
 3601W        W69081  18.198  36.586  12.032
 3602W        W69082  42.798  15.180  12.915
 3603W        W69083  11.772  29.156   1.727
 3604W        W69084  20.569  44.479  13.033
 3605W        W69085  19.138   4.420  14.874
 3606W        W69086  13.662  12.179   4.807
 3607W        W69087   0.765  41.981   0.447
 3608W        W69088  19.693  32.047  11.878
 3609W        W69089  43.299  42.439  11.070
 3610W        W69090  37.390  12.626   3.210
 3611W        W69091  26.969  27.673  14.006
 3612W        W69092   7.327  12.840  12.455
 3613W        W69093  22.681  32.098   2.223
 3614W        W69094  16.803   4.333   4.159
 3615W        W69095  12.644  14.127   0.814
 3616W        W69096   0.807  31.591   1.744
 3617W        W69097  41.995  26.150   0.751
 3618W        W69098  37.871   5.241   0.764
 3619W        W69099  42.893  33.012  12.523
 3620W        W69100  29.531  10.357   1.354
 3621W        W69101  10.335   7.402   3.733
 3622W        W69102  44.824  38.035  12.426
 3623W        W69103   1.795  33.013   0.329
 3624W        W69104  22.140  19.548   4.240
 3625W        W69105  17.702   8.406  14.810
 3626W        W69106   6.897  24.973  11.895
 3627W        W69107  31.615   1.737  11.486
 3628W        W69108  31.128   6.690   0.408
 3629W        W69109  44.877   3.906   0.312
 3630W        W69110  22.580  39.875  10.065
 3631W        W69111   4.928   2.276   0.877
 3632W        W69112  31.934  42.814  12.951
 3633W        W69113  39.353   6.356  10.541
 3634W        W69114   8.775  42.991   0.245
 3635W        W69115  29.438  12.328   1.792
 3636W        W69116  38.996  36.502   0.320
 3637W        W69117  31.560   5.812  13.448
 3638W        W69118  11.664  22.245  11.375
 3639W        W69119  38.907  31.545   0.312
 3640W        W69120  35.093  18.672   0.304
 3641W        W69121   3.715  20.109   1.714
 3642W        W69122  33.383  36.551  12.558
 3643W        W69123  21.056  44.884   1.386
 3644W        W69124   9.214   4.256   0.370
 3645W        W69125  40.816  27.458   3.248
 3646W        W69126  31.563   2.328   4.630
 3647W        W69127   2.917  43.974   2.352
 3648W        W69128  23.240  21.111  13.476
 3649W        W69129  30.076  28.439  12.860
 3650W        W69130  12.313  24.179   4.198
 3651W        W69131  18.643   1.866  12.406
 3652W        W69132   0.929  44.334  11.542
 3653W        W69133  34.604  24.194  14.925
 3654W        W69134   8.800   2.816  14.365
 3655W        W69135  25.020  18.134   1.710
 3656W        W69136  19.550  10.826  10.427
 3657W        W69137  40.806  27.445   1.298
 3658W        W69138  22.560   3.724  14.304
 3659W        W69139   0.983   4.218  11.999
 3660W        W69140  33.081  36.912  12.897
 3661W        W69141  43.302  31.632  13.370
 3662W        W69142  19.563  37.916  11.944
 3663W        W69143  27.668  33.029   3.871
 3664W        W69144   4.736  10.647  11.971
 3665W        W69145  41.041  29.455   4.292
 3666W        W69146   5.893  30.567   4.673
 3667W        W69147  22.135  36.875   4.351
 3668W        W69148  16.163  34.549  13.345
 3669W        W69149  37.038   6.897   3.659
 3670W        W69150  29.025  41.346  13.802
 3671W        W69151  22.061  40.304  12.516
 3672W        W69152  43.864  30.942  14.483
 3673W        W69153   8.659  35.426  13.434
 3674W        W69154   5.718  29.055  11.885
 3675W        W69155  43.848   4.799   2.706
 3676W        W69156  17.191  25.151   1.807
 3677W        W69157  32.458   9.731  12.465
 3678W        W69158  40.459  38.362   3.351
 3679W        W69159  27.461  33.526   2.667
 3680W        W69160  34.403   5.751   4.255
 3681W        W69161   2.885  25.682  14.797
 3682W        W69162  12.655   2.322   2.797
 3683W        W69163  14.719   3.435   2.820
 3684W        W69164  31.062  25.080  14.288
 3685W        W69165  43.324  25.032   2.814
 3686W        W69166  22.150  25.978  12.363
 3687W        W69167  37.567  21.557  13.386
 3688W        W69168  22.205  29.966   2.887
 3689W        W69169  29.489  12.284  14.837
 3690W        W69170   5.926  24.182   0.785
 3691W        W69171  34.484  25.055  12.918
 3692W        W69172   9.237  43.953  11.446
 3693W        W69173  43.502  29.583  11.434
 3694W        W69174  14.825  29.027   0.937
 3695W        W69175  14.220  27.537   0.881
 3696W        W69176  19.768   0.944   2.858
 3697W        W69177  34.434  31.477   0.775
 3698W        W69178  37.987   3.285  10.440
 3699W        W69179  41.953  11.734  14.301
 3700W        W69180   5.206  13.137  13.014
 3701W        W69181  36.347   0.924   4.657
 3702W        W69182  27.123  32.050   0.422
 3703W        W69183  14.273  12.129  11.060
 3704W        W69184  37.967  33.023  13.012
 3705W        W69185  16.657  34.480   4.712
 3706W        W69186  11.746  33.442   0.354
 3707W        W69187  15.086  43.457  14.378
 3708W        W69188  44.301  22.161  13.403
 3709W        W69189  30.641  27.462   4.714
 3710W        W69190  40.888  17.150   0.409
 3711W        W69191  33.954  44.967   3.801
 3712W        W69192  33.113  31.154  14.461
 3713W        W69193  14.815  44.945  12.972
 3714W        W69194  11.737  19.737   1.250
 3715W        W69195   4.401  36.488   3.377
 3716W        W69196  10.737  16.197  13.408
 3717W        W69197  33.622  19.253   4.808
 3718W        W69198  24.527  22.505  12.350
 3719W        W69199   8.259  39.398  11.891
 3720W        W69200  42.962  33.525  10.896
 3721W        W69201  24.656   4.854  11.506
 3722W        W69202   7.260  26.647   0.414
 3723W        W69203   0.468  23.734   1.866
 3724W        W69204   8.389  19.135  12.511
 3725W        W69205  42.776  16.773  13.530
 3726W        W69206  36.462  44.505  12.826
 3727W        W69207  42.401  18.088  12.043
 3728W        W69208  30.923  19.748  12.561
 3729W        W69209  17.206  44.273   0.452
 3730W        W69210   8.687  39.886   4.191
 3731W        W69211  11.155  31.928  11.605
 3732W        W69212  37.979  20.146   3.847
 3733W        W69213  19.631  13.822  13.464
 3734W        W69214  15.084  34.445   3.630
 3735W        W69215  25.034  15.608   3.318
 3736W        W69216  31.047  12.717  11.418
 3737W        W69217   8.858  26.195   0.283
 3738W        W69218  32.031  12.187   3.258
 3739W        W69219  44.261  12.272   1.373
 3740W        W69220  36.880  27.193  10.940
 3741W        W69221  11.268  26.588   4.598
 3742W        W69222  43.348  43.998  13.534
 3743W        W69223  22.597  31.079  10.408
 3744W        W69224   5.747  20.183  11.595
 3745W        W69225  44.296  18.061   2.738
 3746W        W69226  11.197   5.845  12.452
 3747W        W69227   0.911  19.073   4.198
 3748W        W69228  21.622   3.321   3.238
 3749W        W69229  33.491  29.610   3.671
 3750W        W69230   5.815  12.670   2.716
 3751W        W69231  28.997   5.762  11.068
 3752W        W69232   9.830  18.777   0.918
 3753W        W69233  22.555  38.559  12.416
 3754W        W69234  13.800  39.012   3.837
 3755W        W69235   8.262  29.103   1.802
 3756W        W69236  30.519  42.311   4.622
 3757W        W69237   6.859   9.833  14.363
 3758W        W69238  41.317  28.129  12.847
 3759W        W69239  32.530  33.524   0.293
 3760W        W69240  35.876  35.426  11.581
 3761W        W69241   2.884  40.374  11.968
 3762W        W69242   1.384  30.596  10.515
 3763W        W69243  31.577   1.272  14.372
 3764W        W69244  11.727  38.525  14.008
 3765W        W69245   3.772  40.854  12.482
 3766W        W69246  15.129  12.739  10.524
 3767W        W69247  20.636  27.133   3.305
 3768W        W69248  33.972  22.636  14.484
 3769W        W69249  11.187  25.493  12.427
 3770W        W69250  20.151  43.792   2.727
 3771W        W69251   3.246  29.075  12.052
 3772W        W69252  24.723   2.948  11.440
 3773W        W69253  27.450   8.168  14.019
 3774W        W69254  22.034   5.337   2.368
 3775W        W69255   6.863  37.993   0.837
 3776W        W69256   5.819  34.029   0.450
 3777W        W69257  29.514  28.025  13.373
 3778W        W69258  29.604   2.295   4.796
 3779W        W69259  34.487  19.117   4.815
 3780W        W69260  22.537   7.847  13.477
 3781W        W69261  12.724  41.294   4.815
 3782W        W69262  19.575  19.652   2.229
 3783W        W69263  17.086  11.235   1.434
 3784W        W69264  13.732  12.654   4.294
 3785W        W69265  43.820  17.789  14.501
 3786W        W69266  38.922  28.057  14.031
 3787W        W69267  15.226  40.387   2.795
 3788W        W69268  40.019  31.509  10.574
 3789W        W69269  10.646   8.231  12.981
 3790W        W69270  42.407  17.210   4.173
 3791W        W69271  13.290   4.430   0.446
 3792W        W69272  11.747  29.553   3.710
 3793W        W69273  35.985  38.073   1.448
 3794W        W69274  42.825  30.068  13.459
 3795W        W69275   7.174  15.761  12.384
 3796W        W69276  43.306  29.483  14.279
 3797W        W69277  23.081  43.463   1.831
 3798W        W69278  43.909  40.523  14.767
 3799W        W69279  27.596   5.282  12.407
 3800W        W69280   2.397   4.402   3.316
 3801W        W69281  20.221   2.449  14.012
 3802W        W69282  16.212  43.964  11.875
 3803W        W69283  30.932  15.200   1.425
 3804W        W69284  17.081  39.480  12.880
 3805W        W69285  20.546  27.105   3.844
 3806W        W69286  32.961   8.175  13.495
 3807W        W69287  39.317  17.135  14.438
 3808W        W69288  42.930  22.697  11.489
 3809W        W69289  32.077  30.467  10.937
 3810W        W69290  24.230   8.662   3.216
 3811W        W69291  44.402  24.538  10.964
 3812W        W69292  24.489  11.274  13.872
 3813W        W69293  21.133  41.351   3.358
 3814W        W69294  33.445  37.861   1.837
 3815W        W69295  14.611   1.408  14.963
 3816W        W69296  33.442  23.691   1.819
 3817W        W69297  34.578  20.712   2.404
 3818W        W69298  23.106  16.237   3.354
 3819W        W69299  41.803  18.682  12.886
 3820W        W69300   1.321  22.176  12.539
 3821W        W69301   6.718  23.703  12.536
 3822W        W69302  16.225  26.678   1.347
 3823W        W69303  18.740  14.130   3.255
 3824W        W69304  27.485  41.822  10.135
 3825W        W69305  20.544  11.173  11.469
 3826W        W69306  29.491   3.930   0.440
 3827W        W69307  34.991   6.768  11.940
 3828W        W69308  16.724   5.382   0.298
 3829W        W69309  28.601  25.701   4.142
 3830W        W69310  16.790  12.841   4.671
 3831W        W69311   8.386  26.107  13.814
 3832W        W69312   1.447  35.964  10.464
 3833W        W69313  39.838  12.642  11.384
 3834W        W69314  27.584  10.848  11.544
 3835W        W69315  37.461  34.883  11.920
 3836W        W69316   8.176  37.400   1.730
 3837W        W69317   7.386   2.940  14.787
 3838W        W69318  40.989  25.080   4.641
 3839W        W69319  40.407  11.353   4.759
 3840W        W69320  32.955  40.926   2.209
 3841W        W69321  21.699  12.780  14.917
 3842W        W69322  13.779  42.409  14.916
 3843W        W69323  22.144   1.392  13.012
 3844W        W69324  38.843  44.903  14.920
 3845W        W69325  44.942   3.358   1.929
 3846W        W69326  23.632   3.922  14.001
 3847W        W69327  17.287   2.859  14.018
 3848W        W69328   4.430  34.111   1.396
 3849W        W69329  28.030  11.700  10.139
 3850W        W69330  36.534  20.571  14.772
 3851W        W69331  12.797  43.348  12.912
 3852W        W69332  21.587  12.668   3.808
 3853W        W69333  34.884  38.501   1.223
 3854W        W69334  22.643  42.359  14.424
 3855W        W69335  41.498  36.848  12.942
 3856W        W69336  34.587  37.422   4.352
 3857W        W69337  39.846  11.319  13.946
 3858W        W69338  27.038  38.385  14.016
 3859W        W69339  26.618  39.435  10.629
 3860W        W69340  10.142  19.124  14.316
 3861W        W69341  30.141  44.927   1.222
 3862W        W69342  24.554  41.460  10.416
 3863W        W69343   2.920  20.759   4.606
 3864W        W69344  30.614  23.234   2.223
 3865W        W69345  10.756  32.061  11.938
 3866W        W69346  38.506  41.952  13.885
 3867W        W69347   0.296  44.262  10.511
 3868W        W69348  44.292  27.016  11.475
 3869W        W69349  12.646  41.492  10.454
 3870W        W69350  26.602  38.016   3.834
 3871W        W69351  33.884  12.782   3.760
 3872W        W69352  27.046  24.095  12.392
 3873W        W69353   9.344   4.922   2.728
 3874W        W69354  22.251  44.433  11.541
 3875W        W69355  14.828  36.901   2.901
 3876W        W69356  13.347  37.392   4.127
 3877W        W69357  43.905  34.436  14.390
 3878W        W69358  40.437  18.170   0.911
 3879W        W69359  34.384  16.078  13.810
 3880W        W69360  11.359  20.204   3.323
 3881W        W69361  15.198  41.480  10.989
 3882W        W69362  34.983  44.859   4.655
 3883W        W69363   7.311  31.487  14.478
 3884W        W69364  30.605  19.563  11.886
 3885W        W69365  28.120  22.206   4.243
 3886W        W69366  34.103  38.415  11.104
 3887W        W69367   2.413  16.094   4.198
 3888W        W69368  34.490  44.932  10.486
 3889W        W69369   6.877  23.573   4.248
 3890W        W69370  32.544  24.704  11.856
 3891W        W69371  16.669   1.251  11.038
 3892W        W69372  34.007  26.662   0.923
 3893W        W69373   0.935  19.040  10.558
 3894W        W69374   8.354  11.782  14.895
 3895W        W69375   1.451  19.740  14.387
 3896W        W69376   6.749  22.215  13.395
 3897W        W69377   2.744  24.194   4.222
 3898W        W69378  35.420  41.938  13.920
 3899W        W69379  19.051   2.403  10.483
 3900W        W69380  35.589  42.421   2.262
 3901W        W69381  36.034   4.363   0.318
 3902W        W69382  27.110  43.857   2.704
 3903W        W69383   7.732  15.820  13.010
 3904W        W69384  43.772  14.283   3.786
 3905W        W69385  27.588  43.997  13.054
 3906W        W69386  37.965  29.553  10.590
 3907W        W69387   7.363   9.326   3.176
 3908W        W69388  28.645  26.505   2.839
 3909W        W69389  39.908   1.931   1.429
 3910W        W69390  16.781   4.258   3.314
 3911W        W69391  15.161  20.046  14.334
 3912W        W69392   4.341  11.747  14.855
 3913W        W69393  28.580  19.701  11.507
 3914W        W69394  15.690  33.510   4.148
 3915W        W69395  36.010  35.523   0.410
 3916W        W69396  26.684  12.645  12.826
 3917W        W69397   1.780  18.191  13.879
 3918W        W69398  37.991  26.144  13.931
 3919W        W69399  35.098  24.603   4.130
 3920W        W69400  35.046   4.277  10.505
 3921W        W69401   7.339  38.062  14.418
 3922W        W69402   5.770   5.396   2.226
 3923W        W69403  10.299  38.439  11.856
 3924W        W69404   3.879   1.951   0.867
 3925W        W69405  37.087  34.400   4.307
 3926W        W69406  40.945  34.952   2.883
 3927W        W69407  20.645  38.352   2.854
 3928W        W69408  30.415  17.648   1.437
 3929W        W69409  19.253  26.162   0.351
 3930W        W69410  19.147  30.072  14.340
 3931W        W69411  23.179  11.652  13.983
 3932W        W69412  21.228   0.877  13.962
 3933W        W69413  14.600  31.489  10.924
 3934W        W69414  28.003  41.395   1.290
 3935W        W69415  41.794  30.908  11.560
 3936W        W69416  42.933  43.854   0.262
 3937W        W69417  32.940  23.621   0.958
 3938W        W69418  32.515  34.549  12.399
 3939W        W69419  24.109  27.665  13.489
 3940W        W69420   9.723  15.294   1.879
 3941W        W69421  40.876  39.879  13.055
 3942W        W69422   3.882  41.862   0.727
 3943W        W69423  23.227  38.420   1.847
 3944W        W69424  34.544   5.203  12.041
 3945W        W69425  37.524  21.708   0.914
 3946W        W69426  31.422  19.173   2.758
 3947W        W69427   0.859  12.684  12.362
 3948W        W69428  22.026  29.022  13.363
 3949W        W69429  42.932  25.108   0.819
 3950W        W69430   2.726  12.156   4.659
 3951W        W69431  13.331  39.348  14.442
 3952W        W69432  15.211  22.212   1.256
 3953W        W69433  14.205  33.565   2.831
 3954W        W69434  38.342  34.498   1.796
 3955W        W69435  44.968  21.040   4.618
 3956W        W69436  44.828   6.726   3.211
 3957W        W69437  19.232  25.583  14.414
 3958W        W69438  13.804  21.724   3.847
 3959W        W69439  42.311  20.621   1.266
 3960W        W69440   0.852  18.130  10.505
 3961W        W69441   6.851  30.934   2.710
 3962W        W69442  14.655  21.555  14.945
 3963W        W69443  23.527  38.471   2.380
 3964W        W69444   0.397  22.223   4.766
 3965W        W69445  40.880   3.739   1.840
 3966W        W69446  28.649  14.747   2.300
 3967W        W69447  42.926  44.987   1.895
 3968W        W69448  29.494  19.749   4.128
 3969W        W69449  38.868  23.540   3.340
 3970W        W69450  36.429   5.278  11.409
 3971W        W69451  15.254  33.894   2.808
 3972W        W69452  15.639   1.270  14.902
 3973W        W69453  24.124   0.487  14.977
 3974W        W69454  21.186  10.332   2.374
 3975W        W69455  33.525  23.532   0.871
 3976W        W69456  28.471  26.681   2.316
 3977W        W69457  39.532  39.397  13.351
 3978W        W69458  27.574  21.605  14.851
 3979W        W69459  18.094  24.496   4.804
 3980W        W69460   9.723  40.870   1.728
 3981W        W69461  43.790  19.581  14.936
 3982W        W69462   4.807  28.652  11.572
 3983W        W69463  31.482   8.322   0.793
 3984W        W69464  42.887   2.748  12.441
 3985W        W69465  14.174  15.578   2.254
 3986W        W69466  12.134  25.590  13.968
 3987W        W69467  34.000   3.712  12.417
 3988W        W69468  20.682  25.573  10.463
 3989W        W69469   0.369  16.623  13.951
 3990W        W69470   8.879  35.428  14.798
 3991W        W69471  21.244  39.931  11.586
 3992W        W69472   1.248  24.167   3.320
 3993W        W69473  44.938  29.649   2.215
 3994W        W69474  13.617  35.933  10.558
 3995W        W69475  27.981   8.881   3.165
 3996W        W69476  20.067  43.320   3.383
 3997W        W69477  20.249  10.702  14.935
 3998W        W69478  44.311  40.912  11.095
 3999W        W69479  26.690   1.301  14.940
 4000W        W69480  18.207  41.028  11.959
 4001W        W69481   1.907  34.504  14.875
 4002W        W69482  33.612  42.412   4.661
 4003W        W69483  25.597  17.710  11.391
 4004W        W69484  30.535  30.953   1.416
 4005W        W69485   3.262  22.630   1.870
 4006W        W69486  37.957  10.862   4.716
 4007W        W69487  26.165  31.958  11.915
 4008W        W69488  12.687  43.434  13.314
 4009W        W69489  33.893  41.933  12.880
 4010W        W69490  37.497  29.170  13.465
 4011W        W69491  31.576  43.814   0.248
 4012W        W69492  18.234  21.696   4.174
 4013W        W69493  28.145   7.230   4.182
 4014W        W69494  13.248  43.009   3.748
 4015W        W69495  30.445  38.548  11.461
 4016W        W69496   2.821  36.525  14.923
 4017W        W69497  44.843  12.696  10.906
 4018W        W69498  32.107  12.812  13.796
 4019W        W69499  10.829  17.686   2.186
 4020W        W69500  32.040  44.485   3.730
 4021W        W69501  17.061  39.912   4.626
 4022W        W69502  37.539  34.607   2.883
 4023W        W69503  12.820  15.258   4.735
 4024W        W69504  41.501   8.186  12.848
 4025W        W69505  23.135  24.629  14.819
 4026W        W69506  33.584  20.707   1.425
 4027W        W69507  25.147   7.341   3.652
 4028W        W69508  40.928  31.542  10.521
 4029W        W69509  11.659  31.092   4.326
 4030W        W69510  21.576  43.433   0.284
 4031W        W69511   9.870  18.714  10.567
 4032W        W69512  13.138  16.242  13.328
 4033W        W69513   5.396  40.798  11.609
 4034W        W69514   8.729  19.119   4.337
 4035W        W69515   4.386  15.139   4.248
 4036W        W69516  31.152   5.273  14.274
 4037W        W69517  24.684  10.213   1.402
 4038W        W69518  20.115  31.575   4.219
 4039W        W69519  34.588  17.606  13.804
 4040W        W69520  18.191  20.197  12.851
 4041W        W69521  38.499  23.592   1.419
 4042W        W69522   3.898  14.175   1.366
 4043W        W69523   4.261  14.149   0.342
 4044W        W69524  39.056  10.716  12.878
 4045W        W69525  11.647  31.901  14.830
 4046W        W69526  42.346  43.310  13.791
 4047W        W69527  10.706  17.781  12.563
 4048W        W69528   9.770  39.415   4.150
 4049W        W69529  13.266  25.109  11.574
 4050W        W69530   0.364  26.181  13.898
 4051W        W69531  42.467  31.040   0.326
 4052W        W69532  15.115  13.732  11.128
 4053W        W69533  32.599  18.577  14.964
 4054W        W69534  26.477   0.936  14.299
 4055W        W69535  13.819  22.010  12.863
 4056W        W69536  15.292   3.405   5.292
 4057W        W69537  33.562  31.094  13.879
 4058W        W69538   1.944  23.054   0.812
 4059W        W69539  30.938   8.890  13.515
 4060W        W69540  14.818  23.125  12.920
 4061W        W69541  27.029   7.228   0.268
 4062W        W69542  35.023  30.061  14.976
 4063W        W69543  20.536  37.341   2.815
 4064W        W69544   2.233   2.956  10.920
 4065W        W69545  40.476  44.326   1.833
 4066W        W69546   9.173   8.686   1.787
 4067W        W69547  21.054  17.194   1.258
 4068W        W69548  11.857  12.830  12.579
 4069W        W69549   5.847  31.426  11.569
 4070W        W69550  26.577  15.634  11.511
 4071W        W69551  32.938  37.891   2.725
 4072W        W69552  10.649  25.658   1.892
 4073W        W69553  38.367   7.776  11.860
 4074W        W69554  43.921  20.078   2.779
 4075W        W69555  11.188   5.792  12.062
 4076W        W69556  23.714  42.502  13.903
 4077W        W69557  17.738  39.849   3.330
 4078W        W69558  17.646  17.755   1.730
 4079W        W69559   1.897  18.777   4.794
 4080W        W69560  28.141  10.759  14.763
 4081W        W69561  21.590  37.923   0.307
 4082W        W69562  22.157  20.207  10.530
 4083W        W69563  28.167  25.068   0.401
 4084W        W69564  29.122  14.817  13.353
 4085W        W69565  18.135  30.150  11.415
 4086W        W69566   8.753  27.979   5.255
 4087W        W69567  13.740  40.813  14.002
 4088W        W69568  10.860  43.829   2.383
 4089W        W69569  17.252  20.666   3.297
 4090W        W69570  41.512  26.990  11.126
 4091W        W69571   2.382  30.615  13.796
 4092W        W69572  27.102   3.782   1.363
 4093W        W69573  11.867  13.316   2.731
 4094W        W69574  15.673   8.825   0.897
 4095W        W69575   2.784   5.876  14.961
 4096W        W69576  24.575  26.167  11.098
 4097W        W69577  11.232  32.989   4.640
 4098W        W69578  15.794  25.497  12.471
 4099W        W69579  33.047  43.347   3.632
 4100W        W69580  17.060  18.615  10.619
 4101W        W69581  15.209   9.737  14.320
 4102W        W69582   0.825  24.643   1.406
 4103W        W69583  20.044  17.775  13.335
 4104W        W69584   7.754  11.764  10.500
 4105W        W69585  11.272  17.210  10.968
 4106W        W69586  33.998  25.575   2.290
 4107W        W69587  18.596  11.181   2.301
 4108W        W69588  21.110   0.490  12.058
 4109W        W69589  25.694  26.702  14.320
 4110W        W69590  28.170  14.137  12.056
 4111W        W69591  28.060  41.486  11.549
 4112W        W69592   6.358  15.733  10.412
 4113W        W69593   7.733  21.672  10.502
 4114W        W69594  31.072  19.041   0.799
 4115W        W69595   2.890  33.621  13.454
 4116W        W69596  27.527  30.649  10.519
 4117W        W69597   8.403  23.108  13.957
 4118W        W69598   9.230  44.999  13.348
 4119W        W69599   0.921  33.436   1.884
 4120W        W69600  41.032   1.323   0.315
 4121W        W69601  21.629  29.568  14.884
 4122W        W69602   9.648  27.595   4.653
 4123W        W69603  32.440  34.910   0.811
 4124W        W69604   4.735  33.077  12.081
 4125W        W69605  22.127  37.830  11.408
 4126W        W69606   2.863   9.166  13.532
 4127W        W69607  17.274   5.196  14.285
 4128W        W69608  22.550  21.155  13.939
 4129W        W69609  32.928  35.997  13.903
 4130W        W69610  38.008   3.888  11.477
 4131W        W69611  10.671  40.422   1.757
 4132W        W69612  34.945   8.199   0.340
 4133W        W69613  21.712  39.048   1.787
 4134W        W69614  17.281  13.728   2.241
 4135W        W69615  20.760  26.063  10.502
 4136W        W69616   6.903  33.556  12.495
 4137W        W69617  29.990   4.274   0.850
 4138W        W69618  29.034   2.778   4.692
 4139W        W69619   2.315  20.183   2.319
 4140W        W69620  25.172  32.983  12.353
 4141W        W69621  10.255  43.341  13.335
 4142W        W69622  26.645  38.999   1.310
 4143W        W69623  32.543  42.870   2.794
 4144W        W69624  20.148   6.847   2.711
 4145W        W69625  41.884  33.396  10.532
 4146W        W69626  38.823  42.961  13.009
 4147W        W69627  28.084  27.662  14.451
 4148W        W69628  34.068  43.409  14.997
 4149W        W69629  12.257  14.304   1.429
 4150W        W69630   5.810  28.599  13.945
 4151W        W69631  18.586  15.803  11.471
 4152W        W69632  42.940  39.443   3.190
 4153W        W69633  31.986  40.327   3.292
 4154W        W69634  13.304  34.480   3.796
 4155W        W69635   8.252  16.702  13.982
 4156W        W69636  28.998   1.253  14.770
 4157W        W69637  25.608  36.517  10.971
 4158W        W69638  20.255  36.890  12.937
 4159W        W69639  40.435   1.946  10.158
 4160W        W69640  22.161  31.103  13.906
 4161W        W69641  27.182  37.556  11.373
 4162W        W69642  29.100  44.324   2.750
 4163W        W69643  19.745   2.260   2.315
 4164W        W69644   3.224  23.724  13.535
 4165W        W69645  22.167  38.960  10.951
 4166W        W69646   0.869   9.293  12.903
 4167W        W69647   1.408  31.551  10.600
 4168W        W69648  32.112  20.675  14.029
 4169W        W69649  14.109  40.964   4.203
 4170W        W69650  33.513  30.130  14.973
 4171W        W69651  34.928   8.384  12.524
 4172W        W69652  17.199  37.998  14.849
 4173W        W69653  13.221   3.752  14.352
 4174W        W69654  40.320   3.368   4.637
 4175W        W69655  37.557   8.783   2.788
 4176W        W69656  15.312  22.102   3.707
 4177W        W69657  13.609   4.933   0.820
 4178W        W69658  17.611  43.470  14.496
 4179W        W69659   6.693   6.324   1.741
 4180W        W69660  25.547  25.479  12.863
 4181W        W69661  32.094   7.395  11.411
 4182W        W69662  28.612  11.734   0.451
 4183W        W69663  26.493  40.036  10.095
 4184W        W69664  43.348   9.313   0.410
 4185W        W69665  13.336  28.101  10.893
 4186W        W69666  32.918  13.128  11.533
 4187W        W69667  31.613  43.869  14.296
 4188W        W69668  39.015  31.931  14.964
 4189W        W69669  19.641  18.064  11.487
 4190W        W69670  29.429  37.987  14.436
 4191W        W69671  27.594  21.562   1.737
 4192W        W69672  38.840  11.257   0.787
 4193W        W69673   4.934  21.226  12.389
 4194W        W69674  12.318  30.624  14.017
 4195W        W69675   6.789  32.553   3.211
 4196W        W69676  43.325  11.249  11.067
 4197W        W69677  42.508   9.228  10.433
 4198W        W69678   9.309  30.551  13.496
 4199W        W69679  36.588   0.907  13.405
 4200W        W69680   0.881  37.031  10.955
 4201W        W69681  38.001  29.942  12.560
 4202W        W69682  33.988  43.858   4.205
 4203W        W69683  44.941  13.214   0.804
 4204W        W69684  29.489  41.037  14.844
 4205W        W69685  18.149  29.918   4.332
 4206W        W69686  14.791  40.004  14.356
 4207W        W69687  39.410  17.767   3.336
 4208W        W69688  44.872  43.407   1.225
 4209W        W69689   6.728   8.291   1.287
 4210W        W69690  42.289   1.855  13.876
 4211W        W69691   7.846  42.990   3.803
 4212W        W69692   6.389  13.742   4.817
 4213W        W69693   6.376  32.116  13.875
 4214W        W69694  25.687   9.312  11.104
 4215W        W69695   9.375  32.910   3.781
 4216W        W69696  37.000  28.594   0.348
 4217W        W69697  23.669  43.489   2.835
 4218W        W69698  17.234  38.461   2.838
 4219W        W69699  25.696   7.235   0.951
 4220W        W69700   5.247  36.090  14.800
 4221W        W69701  27.050   9.209   1.797
 4222W        W69702   7.771  29.980   4.797
 4223W        W69703  20.257   9.187   2.374
 4224W        W69704  32.137  42.956   0.778
 4225W        W69705   5.195  26.464   4.307
 4226W        W69706   1.845   7.389   3.850
 4227W        W69707  12.720  34.081   1.435
 4228W        W69708  19.151   6.763  14.423
 4229W        W69709  38.344  30.559  13.895
 4230W        W69710  38.549   0.869   2.851
 4231W        W69711   4.723  39.859  12.549
 4232W        W69712  18.064  39.374   0.837
 4233W        W69713   6.200  39.365  11.590
 4234W        W69714  22.087  21.095  10.607
 4235W        W69715  43.937  16.097   1.435
 4236W        W69716   6.211   5.727   0.898
 4237W        W69717  41.491  40.946  12.027
 4238W        W69718  37.999   2.375  13.447
 4239W        W69719  15.617  26.572   2.769
 4240W        W69720  44.805  40.038   1.930
 4241W        W69721  28.073   4.304   0.392
 4242W        W69722   7.682  20.578  14.841
 4243W        W69723  23.658  13.300   1.863
 4244W        W69724  22.073  15.328   4.131
 4245W        W69725  21.084  35.947   4.635
 4246W        W69726   2.957   6.722  13.936
 4247W        W69727  16.671   2.762   0.358
 4248W        W69728  12.278  35.987  10.934
 4249W        W69729   8.367  17.151   4.726
 4250W        W69730   6.325   5.212  12.910
 4251W        W69731  16.122  32.438   1.722
 4252W        W69732  15.789   2.315  12.386
 4253W        W69733   4.837  30.523   3.719
 4254W        W69734  18.732   9.381   1.448
 4255W        W69735   5.293  17.295   0.739
 4256W        W69736  35.102  21.019  10.118
 4257W        W69737  26.581   3.391   5.271
 4258W        W69738   1.414   4.337  13.382
 4259W        W69739  24.525  19.237   3.266
 4260W        W69740  30.563  25.692  10.550
 4261W        W69741  37.930  28.102  11.381
 4262W        W69742   0.786  40.941  14.397
 4263W        W69743  19.059   6.918  10.438
 4264W        W69744  28.083  29.958   4.714
 4265W        W69745  37.398  44.796  12.913
 4266W        W69746  26.023  25.573  14.998
 4267W        W69747  29.948   6.318  11.442
 4268W        W69748  44.006  26.147   0.297
 4269W        W69749  19.653  22.672   0.738
 4270W        W69750  34.068  20.230   3.330
 4271W        W69751  36.854   1.842   1.866
 4272W        W69752  11.695  18.658  13.893
 4273W        W69753  22.129   9.796   0.397
 4274W        W69754  36.875  39.488   1.933
 4275W        W69755  33.896  14.649  11.969
 4276W        W69756   6.314   1.377  14.429
 4277W        W69757  22.218   8.299   4.145
 4278W        W69758  23.553  36.987   1.216
 4279W        W69759  24.576   5.410  14.798
 4280W        W69760  15.732  35.972   2.346
 4281W        W69761  37.987  35.993  11.946
 4282W        W69762  11.359  36.922   3.796
 4283W        W69763  36.385  24.524   3.766
 4284W        W69764  19.265   4.755   0.851
 4285W        W69765  22.534  39.372   4.767
 4286W        W69766  27.125  12.647  13.507
 4287W        W69767  15.768  14.230   3.289
 4288W        W69768  27.597  21.149   1.392
 4289W        W69769   0.821  18.654  11.091
 4290W        W69770  38.820  26.552  12.519
 4291W        W69771  41.345  25.183   3.723
 4292W        W69772  11.752  37.918   4.794
 4293W        W69773  35.525  12.340  13.885
 4294W        W69774  20.608   6.233   3.226
 4295W        W69775  41.445  19.262  14.896
 4296W        W69776  23.035  44.332   0.802
 4297W        W69777  44.796  44.971   3.780
 4298W        W69778   6.200  29.431  11.914
 4299W        W69779   4.441  31.620  12.942
 4300W        W69780   1.841  23.586   3.301
 4301W        W69781  39.885  42.776   4.780
 4302W        W69782  29.536  33.383  13.365
 4303W        W69783  41.331  43.941  12.486
 4304W        W69784  17.193  39.062   9.929
 4305W        W69785  27.942   9.778  12.373
 4306W        W69786  31.108  14.629  14.434
 4307W        W69787  13.658  15.114   0.738
 4308W        W69788  27.117  15.621  10.491
 4309W        W69789  16.579  40.378   1.255
 4310W        W69790  44.962  43.498   0.771
 4311W        W69791  34.559  34.097   0.481
 4312W        W69792  15.101   5.688  11.910
 4313W        W69793  21.187  42.461  14.987
 4314W        W69794   7.869  31.427   3.741
 4315W        W69795  22.036  43.804   3.345
 4316W        W69796  17.296  32.634  11.583
 4317W        W69797  10.822  44.282  13.413
 4318W        W69798   7.728  22.128  13.910
 4319W        W69799  16.759  31.634   1.241
 4320W        W69800  29.537  32.596  14.024
 4321W        W69801  20.146   5.829   3.360
 4322W        W69802   8.739   7.194   4.658
 4323W        W69803   8.802   5.414  13.052
 4324W        W69804  40.487   1.433   4.287
 4325W        W69805  31.617   2.886  12.040
 4326W        W69806   8.751  17.280  11.551
 4327W        W69807  26.589   1.968  12.427
 4328W        W69808   4.219   9.213  12.381
 4329W        W69809  39.028  35.056  13.842
 4330W        W69810  10.768  30.960   4.813
 4331W        W69811   2.857  28.587  11.017
 4332W        W69812  32.928  27.976  13.458
 4333W        W69813  28.587   2.945  13.029
 4334W        W69814  31.145  10.219   0.271
 4335W        W69815  12.835  27.473  14.982
 4336W        W69816  38.855   6.399   2.853
 4337W        W69817  44.424  39.372   1.896
 4338W        W69818  19.062  35.572   2.685
 4339W        W69819  15.813  27.195  13.028
 4340W        W69820  37.400  14.685  12.059
 4341W        W69821   7.681  32.541  14.394
 4342W        W69822  17.087  33.407   4.248
 4343W        W69823   8.710   3.877   3.382
 4344W        W69824  12.636  25.044   4.158
 4345W        W69825  24.980  22.214   0.770
 4346W        W69826   2.444   7.788   5.089
 4347W        W69827  14.218   4.813   4.806
 4348W        W69828  32.007  41.535  10.082
 4349W        W69829  10.694  26.994  13.894
 4350W        W69830  41.941  38.914  11.042
 4351W        W69831  20.108  41.513   5.185
 4352W        W69832  10.166   9.669  14.822
 4353W        W69833  30.045  32.629   0.267
 4354W        W69834  39.421  33.473   3.161
 4355W        W69835  29.603  25.063   0.771
 4356W        W69836  39.514  35.990  12.009
 4357W        W69837  43.328  13.177   0.922
 4358W        W69838  24.048  41.875   0.484
 4359W        W69839  12.258  39.899   0.761
 4360W        W69840  23.053  28.637   1.215
 4361W        W69841  14.299  26.168  12.957
 4362W        W69842  44.788  17.252  14.316
 4363W        W69843  37.067  35.565   4.767
 4364W        W69844   7.897  38.890  11.082
 4365W        W69845  37.017   2.234  14.468
 4366W        W69846   8.348  40.949   1.785
 4367W        W69847  32.606  35.990   2.240
 4368W        W69848  44.000  10.232  12.963
 4369W        W69849  36.047  39.941   4.241
 4370W        W69850  32.446   4.264   0.456
 4371W        W69851  36.472  28.985   4.253
 4372W        W69852  42.377  24.503  12.965
 4373W        W69853   2.746  29.468  11.894
 4374W        W69854  29.924  43.830   1.408
 4375W        W69855  38.844  11.217  11.991
 4376W        W69856  17.736  16.104  10.450
 4377W        W69857  41.041  21.716  10.459
 4378W        W69858  23.210  25.659  13.831
 4379W        W69859  41.352   4.254  14.440
 4380W        W69860   2.352  26.515  14.404
 4381W        W69861  26.025  24.116  11.113
 4382W        W69862  42.442  24.716  14.444
 4383W        W69863  38.821  41.811   2.358
 4384W        W69864  21.523  15.719   4.351
 4385W        W69865  31.576   7.324  14.921
 4386W        W69866  37.894  33.593  14.992
 4387W        W69867   4.770  25.482   2.795
 4388W        W69868  37.057  32.402  12.084
 4389W        W69869  14.137  41.854  14.790
 4390W        W69870  36.873  37.566   1.697
 4391W        W69871  26.592  24.666  11.895
 4392W        W69872  43.999  31.038  12.973
 4393W        W69873  37.983  43.985  14.984
 4394W        W69874  28.053   7.723  11.127
 4395W        W69875  43.967   6.366   1.375
 4396W        W69876  38.048  18.184   3.864
 4397W        W69877  41.009   6.201   2.247
 4398W        W69878   4.923   3.916   3.195
 4399W        W69879   6.338  30.627   2.187
 4400W        W69880   2.930  31.463  12.470
 4401W        W69881  22.195  22.195  11.545
 4402W        W69882  33.379  37.338   3.360
 4403W        W69883  27.985  43.491   3.318
 4404W        W69884  39.919  15.683  12.365
 4405W        W69885  11.287  11.625  10.564
 4406W        W69886   5.739  33.558   2.744
 4407W        W69887   7.888  17.250  14.400
 4408W        W69888  42.832  28.055  12.014
 4409W        W69889  20.594   1.734   4.790
 4410W        W69890  33.566  41.508   4.191
 4411W        W69891  20.069  33.432   3.192
 4412W        W69892   5.843  35.411   3.647
 4413W        W69893  36.522   8.671  12.433
 4414W        W69894  37.965   9.288   4.831
 4415W        W69895  37.388  44.431   2.870
 4416W        W69896  35.076  14.315   0.893
 4417W        W69897  44.473  33.955   1.226
 4418W        W69898  18.714  16.628   4.624
 4419W        W69899  19.669  39.903   2.783
 4420W        W69900  29.465  14.710  10.931
 4421W        W69901  22.587  25.089  13.898
 4422W        W69902   6.391  43.354  10.582
 4423W        W69903  11.788  40.835  11.606
 4424W        W69904  25.032   5.432   4.245
 4425W        W69905  32.953  44.861  13.819
 4426W        W69906  43.967  16.285  10.986
 4427W        W69907   7.665  25.597   4.726
 4428W        W69908  12.663  24.595  10.585
 4429W        W69909  43.774  23.735  14.788
 4430W        W69910  10.834   6.810   1.701
 4431W        W69911   5.265  23.231   2.313
 4432W        W69912  40.989  35.410  11.865
 4433W        W69913  26.683   5.786  11.936
 4434W        W69914  27.628   5.198   1.448
 4435W        W69915  23.679  32.627  11.588
 4436W        W69916  43.905  37.509  14.489
 4437W        W69917   0.491  32.415  10.049
 4438W        W69918  34.558  23.633  14.905
 4439W        W69919  43.451  33.878   0.960
 4440W        W69920  12.788   3.778   4.265
 4441W        W69921  28.989  40.423  12.402
 4442W        W69922   4.413  40.541   3.709
 4443W        W69923  19.052   8.281   1.748
 4444W        W69924  42.857  44.971   2.775
 4445W        W69925  42.783  39.860   1.299
 4446W        W69926  24.049   8.235  14.364
 4447W        W69927  16.605  39.946  14.954
 4448W        W69928  38.916  25.631  13.457
 4449W        W69929   5.887   7.824   2.222
 4450W        W69930  14.715  34.013  13.402
 4451W        W69931  23.606  37.070  11.109
 4452W        W69932  43.405   7.392  10.997
 4453W        W69933   8.352  40.544  13.391
 4454W        W69934   4.418   1.869  14.957
 4455W        W69935  34.071   5.210   4.140
 4456W        W69936  17.088  10.173   0.324
 4457W        W69937  38.368  25.648  10.538
 4458W        W69938  19.053  28.119  11.045
 4459W        W69939  13.766  22.722   1.909
 4460W        W69940  12.698  27.015  12.381
 4461W        W69941  42.983  18.248   4.354
 4462W        W69942  11.727  33.522  10.013
 4463W        W69943   4.427  13.154   2.357
 4464W        W69944  18.266  32.134   5.256
 4465W        W69945  16.650  24.070  11.105
 4466W        W69946   9.673  39.867   1.899
 4467W        W69947   2.375   7.188  10.102
 4468W        W69948   9.213  17.600   0.930
 4469W        W69949  27.465  15.710   4.312
 4470W        W69950  37.062  27.112   2.805
 4471W        W69951  15.786  43.477  12.512
 4472W        W69952  18.748  25.157  12.572
 4473W        W69953   7.238   9.283   3.743
 4474W        W69954  37.359  20.533  14.465
 4475W        W69955  21.248  37.077  11.591
 4476W        W69956  41.018   4.352   0.867
 4477W        W69957  20.718  41.029   1.374
 4478W        W69958  22.615  28.139  11.998
 4479W        W69959   3.856  35.365   0.821
 4480W        W69960  11.846   0.393   3.659
 4481W        W69961  15.734  39.539  11.941
 4482W        W69962  25.664   2.786  12.449
 4483W        W69963  36.868  15.260  13.411
 4484W        W69964   5.706  28.038   1.262
 4485W        W69965  24.534   2.786  14.937
 4486W        W69966  24.060  10.147   0.838
 4487W        W69967  30.105  20.137   0.732
 4488W        W69968  39.853  43.857  11.479
 4489W        W69969  42.023  11.786  12.968
 4490W        W69970  36.500  24.998   1.815
 4491W        W69971   8.228  27.195  11.039
 4492W        W69972   9.359  33.561   3.262
 4493W        W69973  15.677  15.218   0.315
 4494W        W69974  13.289  32.607   3.698
 4495W        W69975  27.987  38.487  10.137
 4496W        W69976  28.566  43.924   2.188
 4497W        W69977  28.481  11.744  12.862
 4498W        W69978   0.864  14.661   1.272
 4499W        W69979  25.572  15.677   5.242
 4500W        W69980  34.105   2.252   3.350
 4501W        W69981  25.171  39.464  13.457
 4502W        W69982  19.052  33.619  10.409
 4503W        W69983  43.362  16.623   4.823
 4504W        W69984  16.725  17.198   2.753
 4505W        W69985  10.317  31.148   5.316
 4506W        W69986  23.115  30.971  12.502
 4507W        W69987  22.681   7.287   0.332
 4508W        W69988   8.859   0.892   0.884
 4509W        W69989  10.768  18.178  12.057
 4510W        W69990  39.968  19.092  12.429
 4511W        W69991  13.116  33.902  13.006
 4512W        W69992  34.069   7.694   3.793
 4513W        W69993  14.260  10.355   0.440
 4514W        W69994   7.771   6.390  10.930
 4515W        W69995  31.491  27.180   0.340
 4516W        W69996  19.741  17.128   1.738
 4517W        W69997  10.849  24.620   0.285
 4518W        W69998  34.503  40.807   2.180
 4519W        W69999  44.889  13.259  10.424
 4520W        W70000  26.139  33.049   4.687
 4521W        W70001  35.982  13.812   1.765
 4522W        W70002  38.831   8.193  14.422
 4523W        W70003   2.754   4.303   2.215
 4524W        W70004   9.733  20.088   1.222
 4525W        W70005  17.579  20.688  12.087
 4526W        W70006  37.043   1.953  14.421
 4527W        W70007  17.191  10.214  11.608
 4528W        W70008  44.780  36.848   0.899
 4529W        W70009   3.441   6.407   0.868
 4530W        W70010  28.485  25.131   1.824
 4531W        W70011  31.938  27.946  11.992
 4532W        W70012  26.597  15.611   4.728
 4533W        W70013  26.095  26.028  13.858
 4534W        W70014   0.947  28.980  12.075
 4535W        W70015   2.271  17.561  13.379
 4536W        W70016  13.188  12.179   2.882
 4537W        W70017   0.282  10.674   0.264
 4538W        W70018   9.878  34.596  11.593
 4539W        W70019  40.311  28.586   0.274
 4540W        W70020  32.597  37.523  14.502
 4541W        W70021  36.078   1.441   4.808
 4542W        W70022  26.697  32.904  10.095
 4543W        W70023  12.170   6.709  10.996
 4544W        W70024  33.923  12.138   1.345
 4545W        W70025   8.382  11.275  12.969
 4546W        W70026   6.692  34.919   3.381
 4547W        W70027  30.032  16.790  10.449
 4548W        W70028  28.492  10.212  14.895
 4549W        W70029  10.168  13.153  10.929
 4550W        W70030   7.783   4.914   0.789
 4551W        W70031  42.367  28.077   3.766
 4552W        W70032  40.807   6.765   0.469
 4553W        W70033   2.310  15.754   0.744
 4554W        W70034  11.856  29.117   0.734
 4555W        W70035   5.816  40.810  10.940
 4556W        W70036  43.012  39.421   0.963
 4557W        W70037   3.326  33.999  10.053
 4558W        W70038   2.359  32.072  14.878
 4559W        W70039  15.286  31.948   0.818
 4560W        W70040  35.590  13.269   0.905
 4561W        W70041  43.279  42.027   1.903
 4562W        W70042   9.353  11.280  12.510
 4563W        W70043  12.191  27.018  13.504
 4564W        W70044   3.329  41.951   2.354
 4565W        W70045  12.199  11.648  12.471
 4566W        W70046  11.647  17.629  11.523
 4567W        W70047  23.662  10.713  14.772
 4568W        W70048   5.284  34.384   1.805
 4569W        W70049   4.935  16.181   2.231
 4570W        W70050  38.349  26.955   2.811
 4571W        W70051  18.125  11.164  11.458
 4572W        W70052  20.224   2.869   1.240
 4573W        W70053  44.847  36.003  12.483
 4574W        W70054  24.553  31.146   0.849
 4575W        W70055  22.548  41.499   1.838
 4576W        W70056  19.681  33.546  12.060
 4577W        W70057  43.495  40.373   4.234
 4578W        W70058  20.219  13.845   4.635
 4579W        W70059   7.833  20.631   0.826
 4580W        W70060  39.336  38.061   2.288
 4581W        W70061  29.971  28.491  10.616
 4582W        W70062  26.137   2.841  12.921
 4583W        W70063  38.348  39.529   3.316
 4584W        W70064  10.157   3.794   4.738
 4585W        W70065  33.458  43.396  12.417
 4586W        W70066  31.543   2.788  11.075
 4587W        W70067  22.213  21.163  13.516
 4588W        W70068  39.470  41.466   4.702
 4589W        W70069  41.323  29.983   2.275
 4590W        W70070  15.727  11.852   0.338
 4591W        W70071   5.360  37.989   1.433
 4592W        W70072  16.267   1.930   2.715
 4593W        W70073  12.760  29.130  13.983
 4594W        W70074  15.815  18.568   0.909
 4595W        W70075  34.519   3.263   1.231
 4596W        W70076  20.644  15.589  14.385
 4597W        W70077  12.231  26.169  12.021
 4598W        W70078  29.626  26.527  14.855
 4599W        W70079  29.659  43.954   2.302
 4600W        W70080   0.461   2.949   0.844
 4601W        W70081   6.403  19.160  13.922
 4602W        W70082  14.260  35.873   1.283
 4603W        W70083  15.583  15.213  11.382
 4604W        W70084   9.787  24.070  14.770
 4605W        W70085  40.401  19.253   2.308
 4606W        W70086   1.416   3.917   1.745
 4607W        W70087  34.042  18.595  10.969
 4608W        W70088  28.128   9.380   2.695
 4609W        W70089  18.673  44.351  11.389
 4610W        W70090  36.866  42.869  13.845
 4611W        W70091  11.765  44.935  12.868
 4612W        W70092   1.452   0.268   2.289
 4613W        W70093   0.426  39.885  14.296
 4614W        W70094  16.213  14.778  11.897
 4615W        W70095   8.250  43.453  12.846
 4616W        W70096  32.393  32.519  10.464
 4617W        W70097  39.918  31.075  13.884
 4618W        W70098  31.518  42.829  12.045
 4619W        W70099  43.325   6.379   2.697
 4620W        W70100  38.016  17.594   0.954
 4621W        W70101  18.084   9.810   2.290
 4622W        W70102  15.695  39.000  12.540
 4623W        W70103  13.202  24.159   9.934
 4624W        W70104   4.347  41.930   3.215
 4625W        W70105  16.234  27.511   4.130
 4626W        W70106  37.455  26.175  13.341
 4627W        W70107  25.581  28.654  10.598
 4628W        W70108   8.189  43.515  12.030
 4629W        W70109  39.029  36.064   9.954
 4630W        W70110  36.446  10.743  14.976
 4631W        W70111  25.645  16.597   1.228
 4632W        W70112  44.394  31.093  11.860
 4633W        W70113  42.341  15.084  14.312
 4634W        W70114   6.227  25.198   0.454
 4635W        W70115  34.939  44.009   2.325
 4636W        W70116  12.303   4.363  12.491
 4637W        W70117  25.186   6.354   2.248
 4638W        W70118   1.265   9.318   2.841
 4639W        W70119   0.379  15.773   2.690
 4640W        W70120  17.185  19.689   2.716
 4641W        W70121  24.120  39.937   0.440
 4642W        W70122  26.105  33.503   1.447
 4643W        W70123  43.438  35.442   0.343
 4644W        W70124  23.986  13.123  11.946
 4645W        W70125   4.342   7.381   2.784
 4646W        W70126   2.339   4.394  11.108
 4647W        W70127  34.545  38.969  14.954
 4648W        W70128  20.691  40.444  13.366
 4649W        W70129   9.210   5.406  13.525
 4650W        W70130  38.458  20.163   3.793
 4651W        W70131  44.272  19.659  14.773
 4652W        W70132  24.163   1.388   2.722
 4653W        W70133  16.632  26.106  12.962
 4654W        W70134  38.984  19.779   1.381
 4655W        W70135  39.059  11.127  13.540
 4656W        W70136  19.721  22.999   0.365
 4657W        W70137   4.864  38.569   4.680
 4658W        W70138   4.842  25.494  11.012
 4659W        W70139  37.336  26.987   3.169
 4660W        W70140  11.201  31.554   3.292
 4661W        W70141  17.715  26.666   0.474
 4662W        W70142  12.227   4.746   2.723
 4663W        W70143  13.126  33.564  11.083
 4664W        W70144  23.603   3.732   1.711
 4665W        W70145  24.169  28.135   1.795
 4666W        W70146  15.174   6.397  14.788
 4667W        W70147  12.641  39.446  12.897
 4668W        W70148  18.745  17.158  12.503
 4669W        W70149   0.893  16.252  13.016
 4670W        W70150  28.448   0.339   3.367
 4671W        W70151   6.855  18.175  10.432
 4672W        W70152  33.953   6.821  11.592
 4673W        W70153  22.224  31.002   1.866
 4674W        W70154  30.156  30.511   4.166
 4675W        W70155  28.017  27.176   4.830
 4676W        W70156  37.974  11.629  13.357
 4677W        W70157  43.947  44.271  14.961
 4678W        W70158   7.298  25.588  13.837
 4679W        W70159  31.148   1.402  10.551
 4680W        W70160  21.528  33.561  12.572
 4681W        W70161  42.890  36.973  14.865
 4682W        W70162  23.086  29.096  11.417
 4683W        W70163   6.296   6.290  14.839
 4684W        W70164  40.865  25.987   0.281
 4685W        W70165  40.373   9.855   0.855
 4686W        W70166  33.008  34.943   3.704
 4687W        W70167   3.263  27.162  12.363
 4688W        W70168  33.508  41.389   5.143
 4689W        W70169  20.070  33.382  10.485
 4690W        W70170   5.286  22.727  14.507
 4691W        W70171   4.217   3.308   1.306
 4692W        W70172  11.362  36.588  10.608
 4693W        W70173   3.763  21.695   3.794
 4694W        W70174  29.151  22.032  13.910
 4695W        W70175  43.873  19.277   0.457
 4696W        W70176  21.243  20.216  13.838
 4697W        W70177   2.395  22.742   2.895
 4698W        W70178  24.076   0.889   5.322
 4699W        W70179  31.956  15.148  13.510
 4700W        W70180  39.837  27.120   3.229
 4701W        W70181   7.700  26.581   9.924
 4702W        W70182  10.674  36.841   1.714
 4703W        W70183  41.473  17.778   0.246
 4704W        W70184  30.033  22.677  11.500
 4705W        W70185   2.883  17.681   0.272
 4706W        W70186   3.943  13.621  11.566
 4707W        W70187  28.963  24.219   4.123
 4708W        W70188  40.910  18.200   0.835
 4709W        W70189  10.850   3.348   1.890
 4710W        W70190  15.634   3.245   0.918
 4711W        W70191   4.316  32.944   0.884
 4712W        W70192  23.149  15.806  13.895
 4713W        W70193  40.394  18.147  14.809
 4714W        W70194  34.947  39.871   1.824
 4715W        W70195  21.228  31.643   0.935
 4716W        W70196  24.135  15.135   4.211
 4717W        W70197  35.582  37.981  11.056
 4718W        W70198   1.399  25.592  14.965
 4719W        W70199  38.982  12.168  12.446
 4720W        W70200  28.131  22.156  11.528
 4721W        W70201  17.589  26.177  14.405
 4722W        W70202  27.079  27.948  14.855
 4723W        W70203   6.828   0.378   3.274
 4724W        W70204  18.215   4.916   4.210
 4725W        W70205   1.807   7.674  13.382
 4726W        W70206   8.871  12.138  14.349
 4727W        W70207  32.628  21.676  11.411
 4728W        W70208  41.922  31.640   4.135
 4729W        W70209  40.853  39.534   3.699
 4730W        W70210  33.449  16.706  10.089
 4731W        W70211  33.565  12.231   0.736
 4732W        W70212  16.200  18.673  14.477
 4733W        W70213  10.697  10.713   1.729
 4734W        W70214  20.104  13.797  14.928
 4735W        W70215  37.858  40.402  13.990
 4736W        W70216   9.859  10.803   3.205
 4737W        W70217  12.789   3.379  11.560
 4738W        W70218   9.762   8.162  10.608
 4739W        W70219  15.659   3.381   4.310
 4740W        W70220   6.374  27.479  12.429
 4741W        W70221  43.287  30.514   4.205
 4742W        W70222  26.092  14.727   0.838
 4743W        W70223  30.508  35.404   1.885
 4744W        W70224  14.205   7.251   2.198
 4745W        W70225   6.825  25.544  10.915
 4746W        W70226  25.503   7.329  10.146
 4747W        W70227   4.410  24.495   2.756
 4748W        W70228  23.224  35.453   4.142
 4749W        W70229  27.576   4.852   3.228
 4750W        W70230  33.998  14.647  12.940
 4751W        W70231  26.494  22.633  11.058
 4752W        W70232  35.968  38.068   2.218
 4753W        W70233  24.649  35.891  11.106
 4754W        W70234   7.278  17.271  10.931
 4755W        W70235  33.117  21.582  12.967
 4756W        W70236  24.512  32.924   1.754
 4757W        W70237  34.979  32.950  10.617
 4758W        W70238  13.233  26.697  10.076
 4759W        W70239   7.887  13.115  12.075
 4760W        W70240   0.826  12.348  13.016
 4761W        W70241  30.927  19.615  10.974
 4762W        W70242  20.143  32.982   1.303
 4763W        W70243  26.080   0.771   2.790
 4764W        W70244  28.092   0.489   3.170
 4765W        W70245  40.858   9.303  14.516
 4766W        W70246  28.635  27.008  14.369
 4767W        W70247  30.050  33.492   0.281
 4768W        W70248  34.602  20.560   3.200
 4769W        W70249  37.036   6.690   4.770
 4770W        W70250  17.167   7.232   4.680
 4771W        W70251  12.239   8.317   0.295
 4772W        W70252  10.770  10.702   1.435
 4773W        W70253   4.258  30.908  13.916
 4774W        W70254  11.687  13.249  14.457
 4775W        W70255  40.921  24.652  12.382
 4776W        W70256  29.644  37.403   0.734
 4777W        W70257   0.906  36.475   3.232
 4778W        W70258  37.054  12.255  11.899
 4779W        W70259  32.615  21.154   9.997
 4780W        W70260  13.757  10.793  10.982
 4781W        W70261  29.052  13.123  14.921
 4782W        W70262  30.483  27.615  12.448
 4783W        W70263  23.550   4.780  14.982
 4784W        W70264  24.071  22.047   4.272
 4785W        W70265  22.170   3.284  14.877
 4786W        W70266  16.810   2.374  14.826
 4787W        W70267  15.685  44.825   0.898
 4788W        W70268  11.207   2.948   0.476
 4789W        W70269  37.988   2.390   4.759
 4790W        W70270  21.613  21.206   2.855
 4791W        W70271  36.520  40.310   3.859
 4792W        W70272  41.415   3.742   9.555
 4793W        W70273   8.742  41.797   0.446
 4794W        W70274  17.092  44.453  11.438
 4795W        W70275  33.048   9.819  10.591
 4796W        W70276   7.751   8.405  13.311
 4797W        W70277  18.769   1.902  10.439
 4798W        W70278  13.186  27.613   2.316
 4799W        W70279  44.783   5.432   4.341
 4800W        W70280   5.220  16.776  11.412
 4801W        W70281  44.420  27.627  11.979
 4802W        W70282  19.658  42.778  11.578
 4803W        W70283   1.877  11.330  13.883
 4804W        W70284  19.227  21.126   3.803
 4805W        W70285  31.430  41.885   1.216
 4806W        W70286  27.640  21.263   3.319
 4807W        W70287  25.152  38.492   4.122
 4808W        W70288   5.341  21.056  11.961
 4809W        W70289  38.382  17.593  12.497
 4810W        W70290  31.990  27.184   4.161
 4811W        W70291  20.074   1.872   2.345
 4812W        W70292   7.398  26.555  10.105
 4813W        W70293  37.849  42.318   0.819
 4814W        W70294  35.931  29.950   2.864
 4815W        W70295  36.983  29.011  13.507
 4816W        W70296   9.869   5.881   3.312
 4817W        W70297   0.394   9.722   0.413
 4818W        W70298  26.655  14.603   1.327
 4819W        W70299   6.788  16.724   3.359
 4820W        W70300  19.652  44.349  10.404
 4821W        W70301  20.694  22.112   2.762
 4822W        W70302  13.754  25.713   0.944
 4823W        W70303  27.954  42.010  13.821
 4824W        W70304  27.516   3.426   3.322
 4825W        W70305  30.961  36.541   3.176
 4826W        W70306  12.184  11.707   3.225
 4827W        W70307  30.926   4.294  13.310
 4828W        W70308  17.671  24.489  12.009
 4829W        W70309  23.000  44.344  10.903
 4830W        W70310   6.393  16.305  13.409
 4831W        W70311  31.508  33.043  14.374
 4832W        W70312  12.744  14.232   4.605
 4833W        W70313   5.806  38.843   2.382
 4834W        W70314  33.383  15.596   2.207
 4835W        W70315  24.711  24.047   2.873
 4836W        W70316  20.677  20.267  12.524
 4837W        W70317  11.215  32.951  13.464
 4838W        W70318  35.936   0.279  13.344
 4839W        W70319   2.752   4.841   4.810
 4840W        W70320   4.909  14.590  14.807
 4841W        W70321   1.828  10.733   1.931
 4842W        W70322   3.340  31.013   3.801
 4843W        W70323  20.078  39.324  14.276
 4844W        W70324  19.159   5.367  11.073
 4845W        W70325   0.880  14.141   3.202
 4846W        W70326  43.928  24.673  12.902
 4847W        W70327  28.058   3.372   4.153
 4848W        W70328  43.315   4.944   2.345
 4849W        W70329  42.959   5.299  11.545
 4850W        W70330  29.452  34.584  10.055
 4851W        W70331  26.054  32.886   1.813
 4852W        W70332  25.978  44.332  13.420
 4853W        W70333  24.141   5.354   2.827
 4854W        W70334  14.732  34.991  12.069
 4855W        W70335  32.516  36.889  13.519
 4856W        W70336  40.540  25.527  11.503
 4857W        W70337  21.067  44.760   3.661
 4858W        W70338  14.323  24.008  10.897
 4859W        W70339  26.675  18.072  13.472
 4860W        W70340  35.864  21.177   3.747
 4861W        W70341  13.818  15.789   2.866
 4862W        W70342  37.992  22.228   4.726
 4863W        W70343  28.579  36.349   2.238
 4864W        W70344  21.040   0.433   0.825
 4865W        W70345  14.797  21.192   0.919
 4866W        W70346  15.639  10.366  14.860
 4867W        W70347  13.800   2.277   2.324
 4868W        W70348  26.151  41.462  11.912
 4869W        W70349  44.361  19.656   4.116
 4870W        W70350  22.106  29.108  10.891
 4871W        W70351  37.400  41.464   0.462
 4872W        W70352  12.238  40.871   0.289
 4873W        W70353   1.867  16.619  14.779
 4874W        W70354   3.907  19.201   2.391
 4875W        W70355  28.445  19.246   3.693
 4876W        W70356  20.764   9.707   4.606
 4877W        W70357  17.091  35.556   5.154
 4878W        W70358   2.355  40.487  11.517
 4879W        W70359  19.096  39.533   0.946
 4880W        W70360   7.205  35.088   4.142
 4881W        W70361  25.487  14.590  12.069
 4882W        W70362   0.477  20.105  11.529
 4883W        W70363  42.985   7.755   1.775
 4884W        W70364  41.990   4.825  12.519
 4885W        W70365  25.061   7.766  10.922
 4886W        W70366  19.253  40.394  10.992
 4887W        W70367   1.876  10.272  14.314
 4888W        W70368  17.575   6.678  11.516
 4889W        W70369   8.221  14.611   2.707
 4890W        W70370   3.766  10.299  12.012
 4891W        W70371  39.514  17.608   2.785
 4892W        W70372   5.737  37.918   4.780
 4893W        W70373  44.349   6.854  14.429
 4894W        W70374  26.062  21.537  13.964
 4895W        W70375  35.534  28.124   2.362
 4896W        W70376   5.726  24.522   4.161
 4897W        W70377  18.638   2.745   3.678
 4898W        W70378  39.553  42.514  11.389
 4899W        W70379  33.390   5.739  14.312
 4900W        W70380  38.075  34.398   0.467
 4901W        W70381   0.885   2.959   4.668
 4902W        W70382   5.414  43.305  10.929
 4903W        W70383  36.951  21.169  12.855
 4904W        W70384  15.653  14.202  12.971
 4905W        W70385   7.209  34.081   2.766
 4906W        W70386  11.791   0.414   2.246
 4907W        W70387   7.677   3.434  10.122
 4908W        W70388  12.295  19.116  10.964
 4909W        W70389  34.469  29.121   1.928
 4910W        W70390  28.049  42.381  10.973
 4911W        W70391  35.587  33.032  10.560
 4912W        W70392  19.281  26.512   2.400
 4913W        W70393  42.467  25.105  14.469
 4914W        W70394  31.646  11.165   0.469
 4915W        W70395   2.880  12.782  14.804
 4916W        W70396  17.763  41.985  13.421
 4917W        W70397   7.261  27.502  12.049
 4918W        W70398   2.888  27.524  13.846
 4919W        W70399   6.273  30.623  12.040
 4920W        W70400  35.065  28.654  10.536
 4921W        W70401  15.670  23.701  14.991
 4922W        W70402   8.721  19.558   3.167
 4923W        W70403  14.662   9.802   3.782
 4924W        W70404   7.876  33.417   1.296
 4925W        W70405  23.503   1.860  14.440
 4926W        W70406   8.772   5.439   0.269
 4927W        W70407  29.534  14.807  11.872
 4928W        W70408   2.948  16.669  11.398
 4929W        W70409  40.002  36.042  14.382
 4930W        W70410  42.890  12.145  13.336
 4931W        W70411   1.457  10.740   3.690
 4932W        W70412  14.705  37.401  13.516
 4933W        W70413  22.089   9.354  11.533
 4934W        W70414  24.975  35.567   2.232
 4935W        W70415  39.808  43.860  14.802
 4936W        W70416  28.524   0.791  14.502
 4937W        W70417   0.251   4.728   0.897
 4938W        W70418  28.184  36.846   9.965
 4939W        W70419   7.709  41.865  14.353
 4940W        W70420   8.186  34.397   1.883
 4941W        W70421  17.097  22.574   0.311
 4942W        W70422  38.065   9.215  10.645
 4943W        W70423  18.634   2.469   0.329
 4944W        W70424  26.540  12.355   1.731
 4945W        W70425  10.164   7.885   2.706
 4946W        W70426  26.683  11.670  10.644
 4947W        W70427  17.783   5.322  11.967
 4948W        W70428  40.500   7.861   5.181
 4949W        W70429  44.329  41.858  12.418
 4950W        W70430  36.538  25.075  14.423
 4951W        W70431  43.326  30.589   3.167
 4952W        W70432  33.608  25.143  13.433
 4953W        W70433   2.927  38.550   4.717
 4954W        W70434  37.957   4.263   3.249
 4955W        W70435  36.963  30.522  10.966
 4956W        W70436   6.259  43.466  11.995
 4957W        W70437  19.057   2.848   1.311
 4958W        W70438  26.176  39.554   3.387
 4959W        W70439  20.765  31.438  10.448
 4960W        W70440  28.605  26.474   3.349
 4961W        W70441   3.826  33.007   3.330
 4962W        W70442  36.908  11.735   1.873
 4963W        W70443   8.240  29.918   3.703
 4964W        W70444  27.979  31.568   3.792
 4965W        W70445  10.150  20.241   4.351
 4966W        W70446  11.252   0.823  10.568
 4967W        W70447  40.907   6.756   3.374
 4968W        W70448  39.827   8.397   0.788
 4969W        W70449  35.038  36.852   0.242
 4970W        W70450  22.500  26.062   1.277
 4971W        W70451   8.377  21.623  11.119
 4972W        W70452  31.515  13.187   0.480
 4973W        W70453  24.701  31.643  11.025
 4974W        W70454   4.267  20.047  12.501
 4975W        W70455  35.363  43.828  14.302
 4976W        W70456  31.955  23.167   4.657
 4977W        W70457  19.541   8.299   0.936
 4978W        W70458  21.261  38.381   3.243
 4979W        W70459  29.609  15.816  10.636
 4980W        W70460  38.884  15.671   2.752
 4981W        W70461  11.802  27.607   1.267
 4982W        W70462  41.905  24.031   1.364
 4983W        W70463   5.932  17.145   2.396
 4984W        W70464  28.970  39.459   3.838
 4985W        W70465  19.116  19.047  10.478
 4986W        W70466   6.679  44.281   2.852
 4987W        W70467  30.016  41.516  14.803
 4988W        W70468  32.515  21.092  13.053
 4989W        W70469   6.891   6.295   2.892
 4990W        W70470  28.554  29.044   0.895
 4991W        W70471  11.226  32.924  11.406
 4992W        W70472   0.872  37.970  11.084
 4993W        W70473  30.017  20.137  10.506
 4994W        W70474  13.805  17.560  12.571
 4995W        W70475  43.315  17.797  14.929
 4996W        W70476  36.896   3.937  13.385
 4997W        W70477  32.137  12.292  12.366
 4998W        W70478   8.369  13.296  13.987
 4999W        W70479  12.732  16.144   0.429
 5000W        W70480   7.765  23.071   0.305
 5001W        W70481  44.979  38.893  10.513
 5002W        W70482  44.920  32.108   4.176
 5003W        W70483  25.630  30.969  13.883
 5004W        W70484  20.636  23.096   2.734
 5005W        W70485   8.202  26.675   3.354
 5006W        W70486  21.532   1.731  11.996
 5007W        W70487  37.462  40.801  11.595
 5008W        W70488   3.434  42.283  13.029
 5009W        W70489  39.004  24.569  14.766
 5010W        W70490   4.840  30.604   3.292
 5011W        W70491  40.973  14.259  14.371
 5012W        W70492  32.409  37.974  14.477
 5013W        W70493   3.356   4.235   3.248
 5014W        W70494  32.618  17.727   2.408
 5015W        W70495   7.788  37.958  12.073
 5016W        W70496  26.671  16.114   3.744
 5017W        W70497   6.848  24.637  12.536
 5018W        W70498  10.695  30.130  13.463
 5019W        W70499  18.634   4.886   4.314
 5020W        W70500  12.121  34.505   3.772
 5021W        W70501   6.891  32.935  12.379
 5022W        W70502  16.076  16.102   2.275
 5023W        W70503  18.644  28.078  12.382
 5024W        W70504  13.720   5.376  14.951
 5025W        W70505  14.678  13.250   0.804
 5026W        W70506  36.869  16.076  14.369
 5027W        W70507  13.315  14.181  13.515
 5028W        W70508  15.318  10.241   4.690
 5029W        W70509  11.367  36.865  13.360
 5030W        W70510  22.231  34.951  13.425
 5031W        W70511   8.712  24.054  10.451
 5032W        W70512  28.168  36.458  11.490
 5033W        W70513  42.791  37.356  13.348
 5034W        W70514  27.489  33.407   2.215
 5035W        W70515  43.355  36.064  11.004
 5036W        W70516  39.831  38.501   2.259
 5037W        W70517  32.934  42.968  14.872
 5038W        W70518  44.978  12.681  14.501
 5039W        W70519  43.290  39.811   3.265
 5040W        W70520  43.792   5.688   0.809
 5041W        W70521  23.524  26.554  13.319
 5042W        W70522   2.288  11.675  12.500
 5043W        W70523   4.331  40.399  10.552
 5044W        W70524   7.807  15.096  11.549
 5045W        W70525  44.845  28.069   3.847
 5046W        W70526  14.107  14.284   2.195
 5047W        W70527  21.150  22.715   2.346
 5048W        W70528  18.648  11.854  12.004
 5049W        W70529  42.783  39.050  13.532
 5050W        W70530  27.189  20.066  13.522
 5051W        W70531  22.737  12.299   1.248
 5052W        W70532  43.976   8.802   3.374
 5053W        W70533  33.047  38.427  13.989
 5054W        W70534  23.073  29.105  13.797
 5055W        W70535  38.550   5.232   4.156
 5056W        W70536  38.974  19.109   9.530
 5057W        W70537  36.460  43.426  14.368
 5058W        W70538  38.359  24.705  11.500
 5059W        W70539  24.676  22.023   1.805
 5060W        W70540  35.569  31.436  13.882
 5061W        W70541  10.803  22.049  11.028
 5062W        W70542  30.040  41.852   1.227
 5063W        W70543  19.187  16.227  12.923
 5064W        W70544  31.499  41.370  13.062
 5065W        W70545  18.602  43.955   0.935
 5066W        W70546  18.054  25.125  10.144
 5067W        W70547  33.049  12.335  11.011
 5068W        W70548  17.158  37.427  12.056
 5069W        W70549   1.770  37.908   0.868
 5070W        W70550  33.084  34.390   2.403
 5071W        W70551  16.737   7.703  12.512
 5072W        W70552  43.362  33.446   4.828
 5073W        W70553  21.713  11.346  12.865
 5074W        W70554  26.003  16.767   2.726
 5075W        W70555  23.517  16.223   1.389
 5076W        W70556   0.958  25.080  11.560
 5077W        W70557   2.339   0.950   0.303
 5078W        W70558   9.382   3.321   3.338
 5079W        W70559  24.044  31.446  11.888
 5080W        W70560   9.250  43.327   1.743
 5081W        W70561  28.461   0.370  13.486
 5082W        W70562  14.257   4.239   4.683
 5083W        W70563  29.947   8.693   2.774
 5084W        W70564  19.275  29.103  11.122
 5085W        W70565  19.203  43.999   1.750
 5086W        W70566  37.077  37.388   4.140
 5087W        W70567  42.822  32.116  10.482
 5088W        W70568  16.777  26.991   2.699
 5089W        W70569  24.996   2.745  12.417
 5090W        W70570  44.330  12.843  12.971
 5091W        W70571  35.576   1.843   3.209
 5092W        W70572  19.061  24.171  14.930
 5093W        W70573  13.631  40.825   3.181
 5094W        W70574  13.299  36.904   3.834
 5095W        W70575  16.690  29.613  10.958
 5096W        W70576  25.686  26.102   4.773
 5097W        W70577   6.678  30.586  12.055
 5098W        W70578   4.847  12.327  12.912
 5099W        W70579  27.496  22.599   1.342
 5100W        W70580  27.156   9.729   2.284
 5101W        W70581  29.523  39.372   9.617
 5102W        W70582  27.619  10.683   2.805
 5103W        W70583  25.686  23.131  11.878
 5104W        W70584  43.781  36.437   3.709
 5105W        W70585  38.007  26.101  12.371
 5106W        W70586   8.251  27.607   2.768
 5107W        W70587  33.530  23.078  11.937
 5108W        W70588  40.398  24.208  11.945
 5109W        W70589  16.702  39.542  12.062
 5110W        W70590  44.876   0.886  14.841
 5111W        W70591  38.870   2.360  14.829
 5112W        W70592   0.451  12.274   2.301
 5113W        W70593  18.070  31.624  10.407
 5114W        W70594  33.019  19.241   2.368
 5115W        W70595  30.084  38.506  11.863
 5116W        W70596   3.225   1.892  10.548
 5117W        W70597  18.674  25.701  13.450
 5118W        W70598  39.525  36.930  13.814
 5119W        W70599   1.325   0.432   1.439
 5120W        W70600   2.742  31.989   5.147
 5121W        W70601  26.008  38.358   2.262
 5122W        W70602  29.620  14.801   2.723
 5123W        W70603  44.756  35.964   0.262
 5124W        W70604   6.364  17.710  14.502
 5125W        W70605   6.717  23.503   3.265
 5126W        W70606  38.036  31.455   2.337
 5127W        W70607   2.306   6.314   3.707
 5128W        W70608  33.874  19.630  13.511
 5129W        W70609  17.670  19.091  10.596
 5130W        W70610   9.768  25.137  11.541
 5131W        W70611  44.437  33.915  12.496
 5132W        W70612  30.573  20.535  13.423
 5133W        W70613  42.798   2.756  14.343
 5134W        W70614   0.958  22.157  14.011
 5135W        W70615  35.582   0.264  14.327
 5136W        W70616  30.458  44.382   0.357
 5137W        W70617  20.187  25.996   0.406
 5138W        W70618  13.828  13.821   2.191
 5139W        W70619  13.224   9.158  12.980
 5140W        W70620  30.450  38.993   0.372
 5141W        W70621  44.905  37.847  13.387
 5142W        W70622  42.920   3.732  14.002
 5143W        W70623   3.952  19.700   0.811
 5144W        W70624   6.400  15.729   3.689
 5145W        W70625   1.849  21.527   2.700
 5146W        W70626  13.778  33.434   1.300
 5147W        W70627  42.001   6.330  13.481
 5148W        W70628  39.828  35.065  13.006
 5149W        W70629  16.304   6.816   4.654
 5150W        W70630   7.754  13.163   3.309
 5151W        W70631  32.523  40.983   1.718
 5152W        W70632  32.615  36.378   2.816
 5153W        W70633   2.918  32.030  13.934
 5154W        W70634  40.852  19.581  14.893
 5155W        W70635  13.153  43.384   2.252
 5156W        W70636  40.380  14.603  11.000
 5157W        W70637   1.950  29.976  12.062
 5158W        W70638  15.123   9.882  13.844
 5159W        W70639  32.009   2.739  14.281
 5160W        W70640   4.274  37.055   1.704
 5161W        W70641   5.752  28.035  12.514
 5162W        W70642  22.225   0.936  14.852
 5163W        W70643   3.410  37.851  10.547
 5164W        W70644  25.667   3.874   3.154
 5165W        W70645  35.947   4.798  10.926
 5166W        W70646  22.014   4.446  13.994
 5167W        W70647  19.554  42.299   0.385
 5168W        W70648   4.728   6.759   0.800
 5169W        W70649  29.613  17.136   5.302
 5170W        W70650  29.059  22.520  14.468
 5171W        W70651   6.821  38.886   0.885
 5172W        W70652  15.254  22.090   4.264
 5173W        W70653  39.019  10.315   9.921
 5174W        W70654  37.883   2.957  10.905
 5175W        W70655   5.267  20.530   2.817
 5176W        W70656  41.840  36.372   1.269
 5177W        W70657  42.399  15.731   4.200
 5178W        W70658  17.647  36.507   2.707
 5179W        W70659  35.576  15.093  13.378
 5180W        W70660  37.890  42.891  13.488
 5181W        W70661   5.291  39.863   0.394
 5182W        W70662  38.515  36.407   2.205
 5183W        W70663  27.611   1.926   1.416
 5184W        W70664  23.109  20.259   4.654
 5185W        W70665  41.372  36.385   1.859
 5186W        W70666  16.698   5.370  12.984
 5187W        W70667  33.382   6.349  13.955
 5188W        W70668  25.652  27.039   0.334
 5189W        W70669  42.822  17.752  12.470
 5190W        W70670  39.430  30.480  14.324
 5191W        W70671   4.733   9.774  13.504
 5192W        W70672  14.773  36.364  12.036
 5193W        W70673  32.945  35.529  13.472
 5194W        W70674   1.834  23.013   4.335
 5195W        W70675  22.013  16.732   0.243
 5196W        W70676  27.960  16.798  13.815
 5197W        W70677   9.220  10.247   4.137
 5198W        W70678  33.525  31.508   3.674
 5199W        W70679  20.704   6.773   0.417
 5200W        W70680  17.606  36.002  11.435
 5201W        W70681   7.903  28.582   4.310
 5202W        W70682  21.201  28.160   4.797
 5203W        W70683   5.272  27.526   0.874
 5204W        W70684   2.254  43.303  11.090
 5205W        W70685  26.633  16.706   4.832
 5206W        W70686  14.116  25.060   3.363
 5207W        W70687  24.149  25.560  12.002
 5208W        W70688  25.655  36.422   2.262
 5209W        W70689   6.220  12.315   2.891
 5210W        W70690  20.128  44.334   0.252
 5211W        W70691  31.540   7.252  14.445
 5212W        W70692   8.202   9.663  12.083
 5213W        W70693  41.963  14.781   3.705
 5214W        W70694  27.171   4.929   1.734
 5215W        W70695  14.323   1.740  12.864
 5216W        W70696  22.642  44.871  14.786
 5217W        W70697   8.769   2.365  14.941
 5218W        W70698  15.115   4.827   4.226
 5219W        W70699  38.429  32.905  10.576
 5220W        W70700  23.126  43.482   1.407
 5221W        W70701  20.614  22.547   1.216
 5222W        W70702  35.900  36.446  11.950
 5223W        W70703  25.556  22.211   4.696
 5224W        W70704  34.118  22.659  13.473
 5225W        W70705  33.883  12.333   4.673
 5226W        W70706  16.762  10.708  11.909
 5227W        W70707   4.738  27.590  13.018
 5228W        W70708  17.258  31.565   2.886
 5229W        W70709  10.200  25.131  10.008
 5230W        W70710  17.592  22.190  14.001
 5231W        W70711  40.933  36.517  13.015
 5232W        W70712  26.135  43.915  13.997
 5233W        W70713  41.835  31.546   4.801
 5234W        W70714   4.305  22.547  14.920
 5235W        W70715  40.816  15.228   0.269
 5236W        W70716   7.243  13.152   0.343
 5237W        W70717  35.541  15.143  12.414
 5238W        W70718  41.479  32.441  11.067
 5239W        W70719  43.394  42.527   2.822
 5240W        W70720  17.735  23.082  11.923
 5241W        W70721   2.932  13.208   2.873
 5242W        W70722  23.083  24.004   1.346
 5243W        W70723  18.661  29.047   1.308
 5244W        W70724  13.753  38.524  11.088
 5245W        W70725  15.092   7.363   1.927
 5246W        W70726  32.895  25.611   1.351
 5247W        W70727   0.940  38.931   0.265
 5248W        W70728  19.751   5.831  13.871
 5249W        W70729  39.413  38.915   2.195
 5250W        W70730  25.638   0.278  13.309
 5251W        W70731   5.389  34.039   3.286
 5252W        W70732  42.845  23.136   2.864
 5253W        W70733   4.858  25.176   4.253
 5254W        W70734  35.533  28.680  10.974
 5255W        W70735  41.982   3.237  13.048
 5256W        W70736  38.401  21.549   0.244
 5257W        W70737   4.897  13.696   0.926
 5258W        W70738  13.321   0.826   2.816
 5259W        W70739  30.002  21.690  12.497
 5260W        W70740  21.626  33.625   2.864
 5261W        W70741   0.939  17.142  10.462
 5262W        W70742  17.114  17.615  14.884
 5263W        W70743  38.549  37.020   0.846
 5264W        W70744   1.856  12.689  13.448
 5265W        W70745  43.437  21.555   1.381
 5266W        W70746  33.904  25.705   3.786
 5267W        W70747   7.190  31.084  10.644
 5268W        W70748   1.408  44.808   0.758
 5269W        W70749  10.157  44.390   2.327
 5270W        W70750  40.305  15.151  10.926
 5271W        W70751  14.286  32.940   1.402
 5272W        W70752  39.488  24.090   1.750
 5273W        W70753  11.362  25.515   4.266
 5274W        W70754  12.201  37.990   3.752
 5275W        W70755  25.501  19.087  13.980
 5276W        W70756  17.177   9.743   4.781
 5277W        W70757  26.481   5.716   2.209
 5278W        W70758  11.816  18.710  14.479
 5279W        W70759   8.771  34.869   0.924
 5280W        W70760  44.782   8.759   4.139
 5281W        W70761  11.799  36.898   3.149
 5282W        W70762  16.164   6.374  11.878
 5283W        W70763   9.204   5.224  11.093
 5284W        W70764  10.290  35.917  13.944
 5285W        W70765   9.320   3.759  10.923
 5286W        W70766   5.705  15.148   1.730
 5287W        W70767   5.387  11.142   4.146
 5288W        W70768  27.614  13.839   4.188
 5289W        W70769  24.035  16.591  14.030
 5290W        W70770   3.919  17.233   2.327
 5291W        W70771  24.679  23.642   2.816
 5292W        W70772  21.223   0.826  12.918
 5293W        W70773  33.962   3.717  14.876
 5294W        W70774  32.441  21.756   4.237
 5295W        W70775  16.661   5.283  13.541
 5296W        W70776  38.960  38.973  10.475
 5297W        W70777  29.649  39.543   2.706
 5298W        W70778  29.053  32.920   3.680
 5299W        W70779  21.129  30.131  10.479
 5300W        W70780  31.537  13.622  14.387
 5301W        W70781   7.382  38.538   4.180
 5302W        W70782   9.253  35.983   3.629
 5303W        W70783  22.084  39.337  11.006
 5304W        W70784  17.166  41.295   1.802
 5305W        W70785  41.508  44.394  10.894
 5306W        W70786  18.060  44.394  14.381
 5307W        W70787  24.104  43.362   1.372
 5308W        W70788   6.721  15.702   3.376
 5309W        W70789   1.275  10.384  13.995
 5310W        W70790  29.077  31.124   1.304
 5311W        W70791  13.211  17.270   1.726
 5312W        W70792  35.059   2.753   1.725
 5313W        W70793  42.822  29.423  10.979
 5314W        W70794  40.459  35.902   4.136
 5315W        W70795   3.720   7.864  10.939
 5316W        W70796  35.897  34.454  13.505
 5317W        W70797  43.413  30.927  11.507
 5318W        W70798  41.506  33.008  11.974
 5319W        W70799  19.164  19.626   0.896
 5320W        W70800  25.175  11.172   2.341
 5321W        W70801  11.229  25.479   4.721
 5322W        W70802  16.731   2.273   0.923
 5323W        W70803  41.529  20.153  12.839
 5324W        W70804  20.077  44.460  12.979
 5325W        W70805  34.540   6.839   3.684
 5326W        W70806  11.210  43.370   2.827
 5327W        W70807  28.527  29.635   4.134
 5328W        W70808  43.358  14.145   9.964
 5329W        W70809   5.240  31.065   4.647
 5330W        W70810  28.147  37.380   3.331
 5331W        W70811  31.999  32.529  10.513
 5332W        W70812  42.514  25.521  13.325
 5333W        W70813  11.761  39.006   1.900
 5334W        W70814  20.628  44.969   0.798
 5335W        W70815  35.550  34.926  14.028
 5336W        W70816  28.986   0.830  10.911
 5337W        W70817   1.417  19.550  11.942
 5338W        W70818   5.741  14.120   2.676
 5339W        W70819  18.157  27.036  12.060
 5340W        W70820  43.386  23.052  14.848
 5341W        W70821   6.864  25.469  14.305
 5342W        W70822  16.654  14.176  12.498
 5343W        W70823   7.846  20.248   2.821
 5344W        W70824  21.235  15.789   1.210
 5345W        W70825  20.094  25.996  12.840
 5346W        W70826   9.293  41.994  11.583
 5347W        W70827  37.990  24.715   4.279
 5348W        W70828  23.151   8.867   1.791
 5349W        W70829  16.243  16.632  11.433
 5350W        W70830   3.922   3.785  10.411
 5351W        W70831  43.353  30.428   1.788
 5352W        W70832  27.490  35.941  11.952
 5353W        W70833  29.626  23.493   3.787
 5354W        W70834  37.469  14.100  11.876
 5355W        W70835   7.844  33.389   0.872
 5356W        W70836  41.937  39.866   2.864
 5357W        W70837  36.446  25.209  10.989
 5358W        W70838  32.968  27.992  14.956
 5359W        W70839  12.230   1.242  13.057
 5360W        W70840  11.222  41.969  13.907
 5361W        W70841  26.676  30.547   1.243
 5362W        W70842  24.097  12.676  12.035
 5363W        W70843  27.582   2.385  13.021
 5364W        W70844  34.454  33.016  10.523
 5365W        W70845   8.258  42.395   1.875
 5366W        W70846  40.455  37.397  14.395
 5367W        W70847  29.977   2.900  12.487
 5368W        W70848  25.710  17.784   3.348
 5369W        W70849  35.991  33.970   1.344
 5370W        W70850   3.923  34.492  14.840
 5371W        W70851   3.820  36.440   2.824
 5372W        W70852  38.901   7.809   0.429
 5373W        W70853   3.729   5.290  14.475
 5374W        W70854   0.423  10.799  13.498
 5375W        W70855  34.370   9.825   3.183
 5376W        W70856   7.316  33.606   1.910
 5377W        W70857  27.127  26.956  12.833
 5378W        W70858  15.722  12.256  10.625
 5379W        W70859  22.629  19.082  13.925
 5380W        W70860   5.414  29.653  14.911
 5381W        W70861  33.024  33.106  14.471
 5382W        W70862  39.325  18.253   0.289
 5383W        W70863   3.237  31.548   1.935
 5384W        W70864  12.793  20.098   3.241
 5385W        W70865  37.467  10.777   1.926
 5386W        W70866   4.930  37.978   4.219
 5387W        W70867  43.794  28.588   0.774
 5388W        W70868   0.343   7.342  13.339
 5389W        W70869  14.630   7.711   4.164
 5390W        W70870  39.056  36.017  13.519
 5391W        W70871   5.847  14.833  11.977
 5392W        W70872  28.961  18.217   3.331
 5393W        W70873  30.642  34.576  11.101
 5394W        W70874   0.820  22.243   0.852
 5395W        W70875  16.081  28.100  10.952
 5396W        W70876  35.384   7.253  11.919
 5397W        W70877  39.883   9.315  14.816
 5398W        W70878  25.616   0.911   2.350
 5399W        W70879  39.944   5.912   3.298
 5400W        W70880  26.199  22.158  10.608
 5401W        W70881  23.083  29.489   3.213
 5402W        W70882  40.992  15.272   1.699
 5403W        W70883  27.119  36.507   1.707
 5404W        W70884   5.779   9.765  13.342
 5405W        W70885  31.922   1.246   1.375
 5406W        W70886  13.334   5.796  13.420
 5407W        W70887   2.733   6.256   4.198
 5408W        W70888   3.362  22.179  10.587
 5409W        W70889  25.549   8.326  13.801
 5410W        W70890  41.967  23.589   0.860
 5411W        W70891   8.769   8.281  14.854
 5412W        W70892  37.452   3.720  12.396
 5413W        W70893  30.133  31.069  12.341
 5414W        W70894   4.807  14.196  11.469
 5415W        W70895  22.596  16.572  14.850
 5416W        W70896  39.439  42.428  13.991
 5417W        W70897  10.198  38.885  13.413
 5418W        W70898  35.934  29.490  13.406
 5419W        W70899  39.490  14.775  11.011
 5420W        W70900  10.211  18.122  13.350
 5421W        W70901  29.592  28.036  11.966
 5422W        W70902  15.745   1.911  10.612
 5423W        W70903   5.804  16.584   2.718
 5424W        W70904  21.018  14.650   5.182
 5425W        W70905   7.856   1.294  14.279
 5426W        W70906  32.885  36.373   3.322
 5427W        W70907  35.950   7.217   4.761
 5428W        W70908  24.710  25.152   1.332
 5429W        W70909  18.144   6.729   1.448
 5430W        W70910   0.435  18.246  12.394
 5431W        W70911  13.204  25.121   0.448
 5432W        W70912   1.425  33.624   5.793
 5433W        W70913   9.353  17.235   1.392
 5434W        W70914   3.914  29.090  14.784
 5435W        W70915  33.445  10.143  12.396
 5436W        W70916  20.531  16.147  12.030
 5437W        W70917  35.977  39.422   3.268
 5438W        W70918  38.833   3.252  12.488
 5439W        W70919  43.472  40.861  13.856
 5440W        W70920  41.830  37.502   3.752
 5441W        W70921  25.181   2.423  14.769
 5442W        W70922  15.293  30.078   1.834
 5443W        W70923  35.957   7.782  12.843
 5444W        W70924  33.102  21.627   0.739
 5445W        W70925  42.963  44.259   4.816
 5446W        W70926  17.155  12.235  11.017
 5447W        W70927  36.551  30.947   3.197
 5448W        W70928  26.640  21.062   0.384
 5449W        W70929  39.890   9.242  12.511
 5450W        W70930   2.463  40.007  12.499
 5451W        W70931  10.852  38.362  11.541
 5452W        W70932  42.377  17.224   1.368
 5453W        W70933  19.042  33.543   1.448
 5454W        W70934   4.882   4.254  11.107
 5455W        W70935  11.336  13.344  13.473
 5456W        W70936  19.702   2.749  11.934
 5457W        W70937   4.448  39.413  14.964
 5458W        W70938  31.540  31.964   5.152
 5459W        W70939  41.468   2.872   5.266
 5460W        W70940   7.730  30.629   1.761
 5461W        W70941  38.541  15.246   3.653
 5462W        W70942  39.379  36.584   4.340
 5463W        W70943  24.536  22.609   1.710
 5464W        W70944   2.925  26.617  13.854
 5465W        W70945  29.986  42.854   3.296
 5466W        W70946  39.985  12.301   4.803
 5467W        W70947  42.003  27.682   1.242
 5468W        W70948  13.675   9.888   3.278
 5469W        W70949   2.874  25.204   4.125
 5470W        W70950   0.759   3.797   3.356
 5471W        W70951  12.163  44.980   4.176
 5472W        W70952  29.430  30.136   0.434
 5473W        W70953  18.287  18.230  11.892
 5474W        W70954  44.804   2.402  12.362
 5475W        W70955  17.120  14.815   0.438
 5476W        W70956  40.501  22.688  10.519
 5477W        W70957  16.182  24.600  13.907
 5478W        W70958  34.490  19.724  13.024
 5479W        W70959  35.944  44.805  12.352
 5480W        W70960  28.639  28.464  10.488
 5481W        W70961  30.457  32.437   1.929
 5482W        W70962  32.568  35.556  14.982
 5483W        W70963  27.592  11.758  12.363
 5484W        W70964  38.528  39.874   3.644
 5485W        W70965  31.422  35.917  13.346
 5486W        W70966  18.598  42.283  14.491
 5487W        W70967   2.785   2.742   4.768
 5488W        W70968   3.215  20.053  11.430
 5489W        W70969   3.821   1.403  11.947
 5490W        W70970  26.529  31.127   3.835
 5491W        W70971  30.046  29.538  14.302
 5492W        W70972  21.690   6.781   3.366
 5493W        W70973  32.043  36.849  13.908
 5494W        W70974   5.895   7.255  12.031
 5495W        W70975   7.862  33.590  10.013
 5496W        W70976  42.969   9.777  11.541
 5497W        W70977  21.188  32.138  12.061
 5498W        W70978  37.869  20.711   3.160
 5499W        W70979   8.832  25.114  14.466
 5500W        W70980  43.288   8.206  13.455
 5501W        W70981   8.855  44.441   3.338
 5502W        W70982  26.579  20.245   2.664
 5503W        W70983   3.719  23.074  11.538
 5504W        W70984  13.804  43.486  12.435
 5505W        W70985  29.067  30.589   3.712
 5506W        W70986   2.814   3.271   0.746
 5507W        W70987  11.849  43.392   3.225
 5508W        W70988  18.079  25.983   2.710
 5509W        W70989   3.885  29.646  14.361
 5510W        W70990  22.672  16.269  11.592
 5511W        W70991  23.494  23.197  12.358
 5512W        W70992  14.675  22.609   1.896
 5513W        W70993   2.886  43.766  11.396
 5514W        W70994  20.648  20.086   4.660
 5515W        W70995   2.390   8.656  12.403
 5516W        W70996  14.621  43.307  14.449
 5517W        W70997  14.596  23.035  14.761
 5518W        W70998  27.084  17.671  11.964
 5519W        W70999  33.463  13.119  14.772
 5520W        W71000  13.260  16.632   2.218
 5521W        W71001  28.500  29.994  11.966
 5522W        W71002  16.752  31.489  12.426
 5523W        W71003  30.049  11.360   2.233
 5524W        W71004  39.445  14.209   0.319
 5525W        W71005  39.345  42.020   2.267
 5526W        W71006   4.786  34.545   1.273
 5527W        W71007  37.562   5.723  12.929
 5528W        W71008   0.825   4.899  13.905
 5529W        W71009   0.831  23.034   1.317
 5530W        W71010  21.668  34.481  13.950
 5531W        W71011   5.774   6.681  13.969
 5532W        W71012  22.087   4.275  14.426
 5533W        W71013  34.043  38.979  13.859
 5534W        W71014  42.320   1.249  14.803
 5535W        W71015  40.406  41.015   2.798
 5536W        W71016   2.355  32.990   3.295
 5537W        W71017   4.226  38.541   1.741
 5538W        W71018   7.344   3.827   2.355
 5539W        W71019  32.433  33.552  14.009
 5540W        W71020  38.922  12.276   4.149
 5541W        W71021  24.005  17.777  13.518
 5542W        W71022  36.462   5.932  11.899
 5543W        W71023   3.326   6.200  12.018
 5544W        W71024  43.011  40.346  13.945
 5545W        W71025  22.996  30.030   2.296
 5546W        W71026  30.092  17.640  13.871
 5547W        W71027  11.690  31.548   2.745
 5548W        W71028   3.878  15.763   0.422
 5549W        W71029  39.009  30.927  13.895
 5550W        W71030  12.675  20.749   1.278
 5551W        W71031   7.207  12.119  11.080
 5552W        W71032  24.087   9.350   1.809
 5553W        W71033  30.426  31.463  13.468
 5554W        W71034  35.105   1.454  13.007
 5555W        W71035  42.916  41.471   2.243
 5556W        W71036  35.105  41.038  13.000
 5557W        W71037  44.383   2.834  10.606
 5558W        W71038  38.830  38.564   3.370
 5559W        W71039   0.298  18.202   4.721
 5560W        W71040   6.375  16.107  14.005
 5561W        W71041   7.720   4.766  13.965
 5562W        W71042   9.201   1.255  12.465
 5563W        W71043  25.513  41.983   2.853
 5564W        W71044  17.086  15.302  12.843
 5565W        W71045  13.263  11.313  10.467
 5566W        W71046   2.226  38.384  14.890
 5567W        W71047  39.822  33.561  12.061
 5568W        W71048   4.209   1.380  13.882
 5569W        W71049  11.362  44.008   4.209
 5570W        W71050  16.133  31.534  11.535
 5571W        W71051   0.902  21.691  12.960
 5572W        W71052  39.412  38.833   4.699
 5573W        W71053  28.087  25.089  11.029
 5574W        W71054  42.356  40.370   2.267
 5575W        W71055  40.330   6.366   1.399
 5576W        W71056  26.174  41.800  11.432
 5577W        W71057  19.094  27.185   1.694
 5578W        W71058  19.547  41.406   3.709
 5579W        W71059  26.034  40.540   0.829
 5580W        W71060  19.199   7.723  14.908
 5581W        W71061  36.005  44.334  11.995
 5582W        W71062  36.854  38.061   2.305
 5583W        W71063  19.050   7.392   5.193
 5584W        W71064   2.771  19.684  13.364
 5585W        W71065  41.835  14.784  10.889
 5586W        W71066  27.134  27.567   3.685
 5587W        W71067  14.098  28.121   4.725
 5588W        W71068  28.148   8.244  13.497
 5589W        W71069  38.882   4.734  14.019
 5590W        W71070  30.909  18.687  13.425
 5591W        W71071  38.932  26.132   4.131
 5592W        W71072  30.005  34.969  13.011
 5593W        W71073  32.473  26.175   4.322
 5594W        W71074  13.765  38.069  13.982
 5595W        W71075   9.734   6.284   2.891
 5596W        W71076   4.736  10.377   4.303
 5597W        W71077   7.175  37.480  13.017
 5598W        W71078  42.932   3.747   2.806
 5599W        W71079  38.860  29.454   3.732
 5600W        W71080  35.449   9.864   2.888
 5601W        W71081   4.787  15.772  13.927
 5602W        W71082  20.642  43.405   3.783
 5603W        W71083  42.928   8.370   2.828
 5604W        W71084  24.050   9.218  14.274
 5605W        W71085  38.552  19.611   0.738
 5606W        W71086  26.053   6.266  10.953
 5607W        W71087  22.230  37.547  13.319
 5608W        W71088  38.511  12.690  13.054
 5609W        W71089  21.676  13.158   0.887
 5610W        W71090  19.130  41.498  11.054
 5611W        W71091   9.241  19.547   1.711
 5612W        W71092   6.724  19.087   4.322
 5613W        W71093   6.869   4.790   4.301
 5614W        W71094   5.300  30.921   3.249
 5615W        W71095   6.736  12.729   4.195
 5616W        W71096  17.220  38.549   4.305
 5617W        W71097  24.037  26.048   0.412
 5618W        W71098  13.723  35.386   2.363
 5619W        W71099  44.954   6.704   3.701
 5620W        W71100   9.199  24.132  13.544
 5621W        W71101  16.610  16.734  13.531
 5622W        W71102  13.647  20.156  12.541
 5623W        W71103  34.961  10.694   2.672
 5624W        W71104  19.110  39.320  12.947
 5625W        W71105  37.566   4.766  13.338
 5626W        W71106  33.432  36.432   1.722
 5627W        W71107  20.076  39.432  12.027
 5628W        W71108   1.458  42.488   0.805
 5629W        W71109  33.015  29.003  11.604
 5630W        W71110  20.135  32.127   4.277
 5631W        W71111  32.446  36.470   1.724
 5632W        W71112  23.004  37.578   3.840
 5633W        W71113  40.890  18.280  10.603
 5634W        W71114  43.365  19.646  13.023
 5635W        W71115  16.169  18.780   3.325
 5636W        W71116  33.410  20.176  11.972
 5637W        W71117  44.349   4.414   0.313
 5638W        W71118  28.995  38.979  10.600
 5639W        W71119  18.758  24.543  13.962
 5640W        W71120  24.509  39.023  10.432
 5641W        W71121  15.232  44.347   1.423
 5642W        W71122  23.499  11.721   3.849
 5643W        W71123  31.456  23.700   0.379
 5644W        W71124  25.189   1.264  14.773
 5645W        W71125  10.276  42.783   4.731
 5646W        W71126  43.441   7.233   4.204
 5647W        W71127  16.075  37.509   1.817
 5648W        W71128  37.477   5.867  14.897
 5649W        W71129   4.789  31.101  11.945
 5650W        W71130  19.169  26.590  12.843
 5651W        W71131   3.739  21.187  11.976
 5652W        W71132  43.892  26.526  13.033
 5653W        W71133  16.599  23.615  13.821
 5654W        W71134   2.832  16.795  14.950
 5655W        W71135  10.205   8.762  11.077
 5656W        W71136  36.081   0.329   4.633
 5657W        W71137  37.855   8.357   3.148
 5658W        W71138  13.343  27.184   3.262
 5659W        W71139  41.871  32.623   2.761
 5660W        W71140  22.158  13.122  10.551
 5661W        W71141  30.035  43.338   4.698
 5662W        W71142  12.279  17.675   2.745
 5663W        W71143  10.767  22.234   1.262
 5664W        W71144  13.773   9.720   0.256
 5665W        W71145  14.599  37.886  10.895
 5666W        W71146  27.182  11.785  12.434
 5667W        W71147  16.718  23.101   3.632
 5668W        W71148  12.306  27.171   4.767
 5669W        W71149  30.556  20.768  14.369
 5670W        W71150  39.397   3.879   4.684
 5671W        W71151  10.663  29.527  13.974
 5672W        W71152  33.920  10.844   4.120
 5673W        W71153  21.683  19.681  10.534
 5674W        W71154  20.247  41.494  14.997
 5675W        W71155  13.119  16.644  11.973
 5676W        W71156  26.027  21.528  12.863
 5677W        W71157  39.995   0.847  11.560
 5678W        W71158  32.464  17.192  13.344
 5679W        W71159  21.676  32.968  12.895
 5680W        W71160  15.311  16.803   2.664
 5681W        W71161   4.761  31.612   4.229
 5682W        W71162  19.651  41.033   0.932
 5683W        W71163  24.653  20.207   3.336
 5684W        W71164  41.430  12.230  11.519
 5685W        W71165  23.531   1.330  13.461
 5686W        W71166  24.212  41.521  10.141
 5687W        W71167   5.352  33.515   0.408
 5688W        W71168   0.832   4.725  14.983
 5689W        W71169   8.845  10.276   0.950
 5690W        W71170  27.026  13.178   4.752
 5691W        W71171   3.711  41.492   5.096
 5692W        W71172  33.026  34.945   0.323
 5693W        W71173  13.344   2.227  13.819
 5694W        W71174   1.788  12.358  12.987
 5695W        W71175  43.916  15.083   0.316
 5696W        W71176  37.034  18.082   1.906
 5697W        W71177  35.036  44.806  10.477
 5698W        W71178  44.953  16.576  11.099
 5699W        W71179  35.387   6.729   2.840
 5700W        W71180  15.216  16.750   0.294
 5701W        W71181   1.318  11.655   3.153
 5702W        W71182  18.726   1.466   0.451
 5703W        W71183  26.681   2.829   2.822
 5704W        W71184   0.316   0.370   2.892
 5705W        W71185  42.911  32.112   0.260
 5706W        W71186  31.428  42.979   1.849
 5707W        W71187  37.473   1.735   3.349
 5708W        W71188   0.278  43.823  14.492
 5709W        W71189  31.629  38.002   3.370
 5710W        W71190  40.979  42.900   4.758
 5711W        W71191  13.612  15.597   1.775
 5712W        W71192  43.293  26.690   3.870
 5713W        W71193  35.885   8.287  14.284
 5714W        W71194  24.111  15.305   4.693
 5715W        W71195   6.762  24.534  10.582
 5716W        W71196   4.412   1.733   4.335
 5717W        W71197  25.526  21.629   2.362
 5718W        W71198   5.238  36.564  12.076
 5719W        W71199  11.302  27.037  14.896
 5720W        W71200  16.629  23.100  14.866
 5721W        W71201  24.498  44.422  12.516
 5722W        W71202  20.167  27.557   0.370
 5723W        W71203  29.027  32.108   1.862
 5724W        W71204  25.995  31.962  10.494
 5725W        W71205  20.087  17.216   3.660
 5726W        W71206  14.603  34.502   2.220
 5727W        W71207  42.998   8.333  13.897
 5728W        W71208   6.325  36.960   4.690
 5729W        W71209  22.650  27.468   1.851
 5730W        W71210  18.738  14.101   0.362
 5731W        W71211  31.969   3.794   5.290
 5732W        W71212  30.577   0.310   1.725
 5733W        W71213  27.983   9.683   2.306
 5734W        W71214  13.197   4.913  13.337
 5735W        W71215  38.426  27.193   0.328
 5736W        W71216  43.928  14.206  11.030
 5737W        W71217  18.251   1.962  11.513
 5738W        W71218  32.594  38.542   4.640
 5739W        W71219  26.112  13.703   0.383
 5740W        W71220  40.360  30.543   0.353
 5741W        W71221  25.702  26.002  10.457
 5742W        W71222  12.851   6.748   1.320
 5743W        W71223  13.756  16.111   2.353
 5744W        W71224   3.329  24.044   2.820
 5745W        W71225  18.695  28.492  13.400
 5746W        W71226  40.373   3.399   5.188
 5747W        W71227   3.284  17.604  12.077
 5748W        W71228  28.011  13.130   1.318
 5749W        W71229  17.728  18.772   3.366
 5750W        W71230  20.523  33.403  13.972
 5751W        W71231  16.650   3.757  14.487
 5752W        W71232  21.758  42.853   1.832
 5753W        W71233  27.178  43.009   4.247
 5754W        W71234  37.387  32.541   1.408
 5755W        W71235  44.914   7.873   4.687
 5756W        W71236  19.564  37.467   0.787
 5757W        W71237  38.345  41.794  10.427
 5758W        W71238  44.261  17.748   2.227
 5759W        W71239  21.535  18.669   2.288
 5760W        W71240  30.949  24.711   1.423
 5761W        W71241  12.202  43.803   3.658
 5762W        W71242  27.085  34.095  11.389
 5763W        W71243  42.326  44.287  10.555
 5764W        W71244  35.069   0.311  10.504
 5765W        W71245   0.844  30.103   1.303
 5766W        W71246  28.085  42.861  14.890
 5767W        W71247  10.857  10.288  11.590
 5768W        W71248   5.722   9.370  14.841
 5769W        W71249  33.941   9.362  10.926
 5770W        W71250  32.140  13.190   3.767
 5771W        W71251  30.152  25.616   4.217
 5772W        W71252  18.785  21.162   1.731
 5773W        W71253  12.188  43.433  14.398
 5774W        W71254  20.085  36.066  10.538
 5775W        W71255  36.509  23.502  12.937
 5776W        W71256  10.316  17.103   2.713
 5777W        W71257  22.592  14.182   3.815
 5778W        W71258  36.485   5.291  10.589
 5779W        W71259  34.911  23.510  12.926
 5780W        W71260  36.419   6.363   3.208
 5781W        W71261  21.197  35.557   2.668
 5782W        W71262  12.286  19.546  10.579
 5783W        W71263   6.425  38.866   4.725
 5784W        W71264  26.053  23.640   1.446
 5785W        W71265  14.830  40.395   9.492
 5786W        W71266   0.364  25.600  14.382
 5787W        W71267  38.837   4.340   2.188
 5788W        W71268  25.162  16.212  12.354
 5789W        W71269  19.577  28.673   0.800
 5790W        W71270  10.834  27.542   3.796
 5791W        W71271  11.800   6.765   1.348
 5792W        W71272  28.149  13.324  14.496
 5793W        W71273   7.306  23.076  12.839
 5794W        W71274  37.994  14.733  14.930
 5795W        W71275  40.308  20.034  12.070
 5796W        W71276  15.622  22.550  13.520
 5797W        W71277  36.520   1.897   3.249
 5798W        W71278  44.481   0.852   3.303
 5799W        W71279   6.908  37.902  12.920
 5800W        W71280  11.244   7.870  12.908
 5801W        W71281  27.067  36.950   4.822
 5802W        W71282  27.453  22.097  14.435
 5803W        W71283  28.589  28.043   0.270
 5804W        W71284  28.598  26.642  11.042
 5805W        W71285  16.739  27.998  13.054
 5806W        W71286  19.658   1.374  12.558
 5807W        W71287  42.944  30.514   1.722
 5808W        W71288  26.191  13.142   1.891
 5809W        W71289   9.843  29.519  11.537
 5810W        W71290  44.377   9.262   0.372
 5811W        W71291   6.186  15.680   4.263
 5812W        W71292  36.055  44.951   2.744
 5813W        W71293  32.989  23.672   3.691
 5814W        W71294  44.972  11.284   1.902
 5815W        W71295   8.362   7.394  14.815
 5816W        W71296  34.884  28.608  12.943
 5817W        W71297  25.596   0.981  13.512
 5818W        W71298  20.053  38.030  11.432
 5819W        W71299   5.268  20.032  12.841
 5820W        W71300  41.379   5.404   0.745
 5821W        W71301   6.798  15.665   0.453
 5822W        W71302  34.867  14.233  14.454
 5823W        W71303  35.572  17.754  12.001
 5824W        W71304  27.139  31.153   3.762
 5825W        W71305  33.487  15.671  13.970
 5826W        W71306  32.140  22.155   0.484
 5827W        W71307  35.389  33.448  11.598
 5828W        W71308  42.519  36.550   2.774
 5829W        W71309  36.418   3.928   3.738
 5830W        W71310  16.077  14.215  11.989
 5831W        W71311  13.112  21.658   2.737
 5832W        W71312  13.748   4.265  11.896
 5833W        W71313  37.509  26.156   3.307
 5834W        W71314  26.062  12.118  14.419
 5835W        W71315  29.086   5.732   1.399
 5836W        W71316  41.846  16.771  14.325
 5837W        W71317  34.121  22.625   3.175
 5838W        W71318   0.299  43.353   2.891
 5839W        W71319   1.315  39.427   4.195
 5840W        W71320   1.864  14.772  11.383
 5841W        W71321  22.138  18.184   1.829
 5842W        W71322  11.791  21.096   3.779
 5843W        W71323  13.349   6.305   2.189
 5844W        W71324   1.336  23.604   0.425
 5845W        W71325  37.395   9.863  10.587
 5846W        W71326   9.272  13.236   1.705
 5847W        W71327  31.918  22.016  13.844
 5848W        W71328   4.704  23.184  11.427
 5849W        W71329  40.021  28.939  11.534
 5850W        W71330  44.483  28.647  11.971
 5851W        W71331   6.258  17.181   4.626
 5852W        W71332  25.566  30.500  11.583
 5853W        W71333  20.156  29.164   0.792
 5854W        W71334  21.585  35.086  14.027
 5855W        W71335   7.800   1.836  12.516
 5856W        W71336  25.971  43.391  11.591
 5857W        W71337  25.488   9.354   0.874
 5858W        W71338   7.218  44.436   0.885
 5859W        W71339  26.082  19.168   0.360
 5860W        W71340  20.550   5.861   2.377
 5861W        W71341   0.492  23.702  11.099
 5862W        W71342  27.645  31.135  12.047
 5863W        W71343  16.075   4.271   3.797
 5864W        W71344  41.803  13.156   4.170
 5865W        W71345  44.452  17.172   0.413
 5866W        W71346  14.793  16.681   2.846
 5867W        W71347  38.546  18.717   2.282
 5868W        W71348  39.333   2.440   0.308
 5869W        W71349  16.612  12.763   4.250
 5870W        W71350  29.648   2.827  11.418
 5871W        W71351  12.209  38.955   3.696
 5872W        W71352  32.114   5.923  14.316
 5873W        W71353   6.891   3.405  11.947
 5874W        W71354   8.757  10.665  10.504
 5875W        W71355  41.790  35.511  11.075
 5876W        W71356   7.201   7.862   3.818
 5877W        W71357   4.792  28.146  14.848
 5878W        W71358  22.565   1.868  12.876
 5879W        W71359   2.401  40.888  11.442
 5880W        W71360  44.799   7.692  13.488
 5881W        W71361  40.490   3.862  10.540
 5882W        W71362   3.225  17.274  11.607
 5883W        W71363   1.746   2.836  11.526
 5884W        W71364  34.420  14.297  13.350
 5885W        W71365  10.847   6.922  12.489
 5886W        W71366   7.906  10.876  13.055
 5887W        W71367   9.343  37.479  14.006
 5888W        W71368  37.395  31.493  11.890
 5889W        W71369   0.474  24.701  13.806
 5890W        W71370  15.296  25.491   0.929
 5891W        W71371  31.546  29.069   3.722
 5892W        W71372  25.708   1.864   9.937
 5893W        W71373   8.837  23.698   2.410
 5894W        W71374  19.603  37.974   0.484
 5895W        W71375  38.949  30.653  11.567
 5896W        W71376  10.164  32.523  12.558
 5897W        W71377  32.412  39.371  12.823
 5898W        W71378   6.818  30.130  13.050
 5899W        W71379  14.167   3.331  13.346
 5900W        W71380  35.362  39.986  10.943
 5901W        W71381  19.688   2.422  11.104
 5902W        W71382  27.541  40.440  10.914
 5903W        W71383  30.441  27.027   0.795
 5904W        W71384  34.046  26.501   3.696
 5905W        W71385  40.907   4.343  11.891
 5906W        W71386   1.282  12.644   4.332
 5907W        W71387  31.984  13.218  11.932
 5908W        W71388  29.538   2.375  11.904
 5909W        W71389  11.307   3.440   4.826
 5910W        W71390  38.863  21.101  13.971
 5911W        W71391  21.684  41.440   3.800
 5912W        W71392  40.028   1.295  10.992
 5913W        W71393   2.934  18.772   3.253
 5914W        W71394  15.261  34.083   0.903
 5915W        W71395  11.727  26.085   4.258
 5916W        W71396  33.444   4.236   1.259
 5917W        W71397  17.587  37.462   3.307
 5918W        W71398  26.107   9.153  14.878
 5919W        W71399  44.881  13.253  12.095
 5920W        W71400   4.336  14.622  10.935
 5921W        W71401  43.475  33.890  10.596
 5922W        W71402  42.418  42.863  11.976
 5923W        W71403  28.664  14.270   3.218
 5924W        W71404  24.021  34.385   3.727
 5925W        W71405  29.107  42.378   0.916
 5926W        W71406   0.766  27.610  14.971
 5927W        W71407  13.644  20.067  12.836
 5928W        W71408   8.354  35.983   1.872
 5929W        W71409  37.366   8.655  11.465
 5930W        W71410   5.867  30.546  14.784
 5931W        W71411   5.887  39.977  12.377
 5932W        W71412   8.317   1.851  10.624
 5933W        W71413  20.046  29.156  13.029
 5934W        W71414  15.314  11.364  11.929
 5935W        W71415  26.034  14.204  12.366
 5936W        W71416  31.112  43.813   2.327
 5937W        W71417   4.751  22.706   3.842
 5938W        W71418  40.899  34.076  13.442
 5939W        W71419   0.760  37.004  12.990
 5940W        W71420   2.837   5.865  11.021
 5941W        W71421  22.250  34.433  13.936
 5942W        W71422  42.350   1.855   3.715
 5943W        W71423  12.691  43.307  14.943
 5944W        W71424   7.677  35.453   1.449
 5945W        W71425  38.866  30.611   4.189
 5946W        W71426  35.065  42.501   3.150
 5947W        W71427  43.980  10.638  11.609
 5948W        W71428  29.108  26.172   0.817
 5949W        W71429  29.055  12.307   0.312
 5950W        W71430  18.111  24.004  13.823
 5951W        W71431  13.173   5.414  10.447
 5952W        W71432  13.224   5.402   3.216
 5953W        W71433   8.243  20.049   2.693
 5954W        W71434  16.637  32.567   2.770
 5955W        W71435  11.163  43.366   1.228
 5956W        W71436   5.216   1.408   3.308
 5957W        W71437   5.325  17.637   4.349
 5958W        W71438  20.602  27.029   1.705
 5959W        W71439   0.857  35.492   0.747
 5960W        W71440  40.337  28.083  12.952
 5961W        W71441  23.024  37.926   2.725
 5962W        W71442  31.136   8.386   3.724
 5963W        W71443  41.533  43.444  14.871
 5964W        W71444  35.398  36.512   2.219
 5965W        W71445   3.921  18.259   0.946
 5966W        W71446  10.314   9.864   3.775
 5967W        W71447  39.815  11.198   0.918
 5968W        W71448  18.622  30.493   4.193
 5969W        W71449  27.067   6.331  13.018
 5970W        W71450  35.383  20.655   0.803
 5971W        W71451  31.492  15.646   1.415
 5972W        W71452  15.293   9.384   1.304
 5973W        W71453  21.037   9.218   1.855
 5974W        W71454  39.813  11.669  11.115
 5975W        W71455  17.285   2.439   2.204
 5976W        W71456  16.661   5.906   0.290
 5977W        W71457  22.586  11.353   1.263
 5978W        W71458  28.640  19.723   4.152
 5979W        W71459   4.248  33.503  14.397
 5980W        W71460  16.804  43.313   1.312
 5981W        W71461  12.640   9.178  11.389
 5982W        W71462  18.545   3.759   4.824
 5983W        W71463  21.132  37.449   4.258
 5984W        W71464   3.396  27.594  13.012
 5985W        W71465  29.041   4.805   4.664
 5986W        W71466  43.988   4.415   4.784
 5987W        W71467  38.484  25.135   1.321
 5988W        W71468  13.600   1.243  12.537
 5989W        W71469  33.480  14.169  14.456
 5990W        W71470  32.896  17.578  11.896
 5991W        W71471  34.006  36.079  11.584
 5992W        W71472  29.120  32.625   2.297
 5993W        W71473   9.391   3.916  13.447
 5994W        W71474  40.048  11.152   2.341
 5995W        W71475  33.064  24.623   2.383
 5996W        W71476  12.707  17.296  12.971
 5997W        W71477  22.057  21.641  13.505
 5998W        W71478  19.180  37.874  10.498
 5999W        W71479  16.180  26.151   5.580
 6000W        W71480  33.480  43.844   0.735
 6001W        W71481  30.956  17.303  13.933
 6002W        W71482  31.094   9.194   1.703
 6003W        W71483   9.678  21.690   1.215
 6004W        W71484  20.243   4.868   3.638
 6005W        W71485  36.030  10.873   2.329
 6006W        W71486   5.232  14.313   2.296
 6007W        W71487  34.948  11.730   4.677
 6008W        W71488  37.908  43.887  14.345
 6009W        W71489  29.437   1.310  14.412
 6010W        W71490  31.438  11.133   3.669
 6011W        W71491  27.668  32.589   3.666
 6012W        W71492  27.056  14.299   5.206
 6013W        W71493  26.022  22.216  14.878
 6014W        W71494  11.649   9.357   3.248
 6015W        W71495  20.685  38.045  11.107
 6016W        W71496   9.213  18.766   0.787
 6017W        W71497  43.006  17.638   0.925
 6018W        W71498  17.077  10.835   2.318
 6019W        W71499  39.859  32.096  14.319
 6020W        W71500   1.875  17.161   2.381
 6021W        W71501  39.376  27.945  14.301
 6022W        W71502  17.163  21.572  10.636
 6023W        W71503  22.633  11.674  14.395
 6024W        W71504  17.704  34.061  13.364
 6025W        W71505  34.883  37.552   1.727
 6026W        W71506  15.790  34.441   1.721
 6027W        W71507  33.922  16.242  10.563
 6028W        W71508  43.972   3.433  12.090
 6029W        W71509  13.700  23.681  14.417
 6030W        W71510  42.932  32.587   1.297
 6031W        W71511  22.170  20.761  12.937
 6032W        W71512  12.244  14.819   2.843
 6033W        W71513  26.991   2.275  14.502
 6034W        W71514  32.572   4.375  10.434
 6035W        W71515  23.698  42.465   4.631
 6036W        W71516  11.868  41.981  10.149
 6037W        W71517  42.353  16.154   1.295
 6038W        W71518  27.162  37.937  13.971
 6039W        W71519  38.508  36.097   2.300
 6040W        W71520  42.351   2.737  14.323
 6041W        W71521  27.606  26.551   3.224
 6042W        W71522  28.558   3.331  10.442
 6043W        W71523  13.246  20.559   3.382
 6044W        W71524   1.470  22.006  10.942
 6045W        W71525  13.783  18.130   1.448
 6046W        W71526  13.778  42.814   2.722
 6047W        W71527  11.656  10.872   0.751
 6048W        W71528   4.886  35.593   1.362
 6049W        W71529  21.746  35.020   3.365
 6050W        W71530  22.081   4.225  11.474
 6051W        W71531  22.177  18.227  10.511
 6052W        W71532  22.532  15.129  12.476
 6053W        W71533  26.011  10.172   9.945
 6054W        W71534   8.837  43.471  11.075
 6055W        W71535  30.623  38.012   1.904
 6056W        W71536  40.969  43.950   2.704
 6057W        W71537  42.002  12.680   0.343
 6058W        W71538  20.255  30.451  14.352
 6059W        W71539  24.092  26.182  13.329
 6060W        W71540  21.608  39.832  12.460
 6061W        W71541  24.130  33.596  12.833
 6062W        W71542  13.838  15.597  13.546
 6063W        W71543  22.223   4.212   2.817
 6064W        W71544  10.314  41.438  13.872
 6065W        W71545  22.597   6.361   0.293
 6066W        W71546   8.246  23.223   0.784
 6067W        W71547  32.419   3.854  11.422
 6068W        W71548  29.594  24.655   3.327
 6069W        W71549  25.546  34.989  14.339
 6070W        W71550   1.287  28.661   2.767
 6071W        W71551  28.451  10.374  13.991
 6072W        W71552  36.430  24.206   3.246
 6073W        W71553   5.423  44.980  10.945
 6074W        W71554  33.026  18.591   4.161
 6075W        W71555  44.392  34.015  11.556
 6076W        W71556  17.153  36.959   1.391
 6077W        W71557   4.790  23.715  12.559
 6078W        W71558  29.160  40.882  13.365
 6079W        W71559   6.772  23.622  13.328
 6080W        W71560   5.696   1.479   2.398
 6081W        W71561  22.654  20.545   0.316
 6082W        W71562  25.201   9.665   0.911
 6083W        W71563   4.900  34.465  13.480
 6084W        W71564  18.270  42.948  13.006
 6085W        W71565  44.888  44.352   0.316
 6086W        W71566  30.580  35.520   2.404
 6087W        W71567  13.722  32.481   0.336
 6088W        W71568  17.725  29.021  12.535
 6089W        W71569  43.958  25.219   0.920
 6090W        W71570  26.525  37.578   2.257
 6091W        W71571   9.861  29.092  13.471
 6092W        W71572  25.581   1.893  13.968
 6093W        W71573  23.988   5.311   4.616
 6094W        W71574  31.411   5.899   4.258
 6095W        W71575  20.704  19.537  11.515
 6096W        W71576   2.242  44.996   0.868
 6097W        W71577   9.256  17.793   2.722
 6098W        W71578   4.223  24.041  11.491
 6099W        W71579  10.235  41.824  12.462
 6100W        W71580  18.092  29.561  12.892
 6101W        W71581  12.848  25.588   3.679
 6102W        W71582  24.026  25.098   4.233
 6103W        W71583  28.608  40.040   3.237
 6104W        W71584  25.532  12.659  11.018
 6105W        W71585  34.993   1.827   2.247
 6106W        W71586  26.681  10.724   0.758
 6107W        W71587   7.238  35.587   0.760
 6108W        W71588  39.937  33.468   1.226
 6109W        W71589  38.344  32.602  10.931
 6110W        W71590  42.813  35.903   2.292
 6111W        W71591  40.548  34.390  11.582
 6112W        W71592  10.769  13.247  11.484
 6113W        W71593  38.923  17.776   4.125
 6114W        W71594   5.229  13.135  14.461
 6115W        W71595  19.695   6.185  12.946
 6116W        W71596  16.154   6.249   0.762
 6117W        W71597  22.515   7.238  11.050
 6118W        W71598   7.412   1.433   1.257
 6119W        W71599  14.820  38.859   1.720
 6120W        W71600   6.258   9.781  14.835
 6121W        W71601   1.821  14.730  12.420
 6122W        W71602  12.201  35.066  14.996
 6123W        W71603  11.356  17.233  11.435
 6124W        W71604  16.663  20.724   3.638
 6125W        W71605  31.471  25.207   4.307
 6126W        W71606  41.018  39.884  13.311
 6127W        W71607  32.024  33.907   0.311
 6128W        W71608  37.402  20.109   2.210
 6129W        W71609  21.227  36.498  14.979
 6130W        W71610   3.419  23.040   3.712
 6131W        W71611   0.860  35.905   4.182
 6132W        W71612  36.350  25.613   4.737
 6133W        W71613  30.117  18.138  12.406
 6134W        W71614  32.460  24.706   1.269
 6135W        W71615  11.817  39.357   1.783
 6136W        W71616  27.001  31.420  11.537
 6137W        W71617  37.572  27.473   4.768
 6138W        W71618  16.698  27.609   2.319
 6139W        W71619  12.756  20.554   3.721
 6140W        W71620  42.878   6.818   0.751
 6141W        W71621  21.056  31.073  14.991
 6142W        W71622  41.824  44.919  11.402
 6143W        W71623  22.588  12.260  10.959
 6144W        W71624  24.722  13.281   2.370
 6145W        W71625  27.192  31.580   4.241
 6146W        W71626   2.792  34.401   2.382
 6147W        W71627  30.435  21.059  13.974
 6148W        W71628   5.289   7.395   3.859
 6149W        W71629  34.592  15.164   4.129
 6150W        W71630  22.150  32.907  13.003
 6151W        W71631  14.833  16.796   0.809
 6152W        W71632   4.711  39.050  12.393
 6153W        W71633  38.461  21.573  10.985
 6154W        W71634  43.472  11.783   3.819
 6155W        W71635  26.095  12.666   2.272
 6156W        W71636   6.271  23.549  13.884
 6157W        W71637  20.173  42.791   2.698
 6158W        W71638  32.587  36.008  10.562
 6159W        W71639  37.385  34.043   1.267
 6160W        W71640   2.828  19.212   2.259
 6161W        W71641  38.879  11.199   2.316
 6162W        W71642   8.900  17.771  11.408
 6163W        W71643  29.097  39.418   4.214
 6164W        W71644  36.528  22.705   2.785
 6165W        W71645  36.001  30.612   0.765
 6166W        W71646  23.499  11.819   2.703
 6167W        W71647  41.430  23.216  12.896
 6168W        W71648  33.957  20.115   4.744
 6169W        W71649  15.782   0.842   2.799
 6170W        W71650  23.150  14.596  14.471
 6171W        W71651  28.625  15.680   0.349
 6172W        W71652  12.329  39.423  12.866
 6173W        W71653  34.893  16.802  12.463
 6174W        W71654  12.293  28.460  12.862
 6175W        W71655  20.259  19.133   0.484
 6176W        W71656   6.909   9.389  12.866
 6177W        W71657   1.264  44.771   4.766
 6178W        W71658  24.055  30.159   0.342
 6179W        W71659  24.478   6.317  11.927
 6180W        W71660  38.823  41.347   4.691
 6181W        W71661  39.515  19.260   1.402
 6182W        W71662  32.968  25.001  10.576
 6183W        W71663  13.250  40.863   0.471
 6184W        W71664  40.434  31.625  10.954
 6185W        W71665   0.857  34.436   4.236
 6186W        W71666  28.434   6.408   3.340
 6187W        W71667  10.638  28.018  11.429
 6188W        W71668  15.730   8.337  11.038
 6189W        W71669   7.189  44.294   2.236
 6190W        W71670  34.118  27.601   1.806
 6191W        W71671   0.422   9.369  14.842
 6192W        W71672  11.858   2.931   2.718
 6193W        W71673   4.240  38.466   0.917
 6194W        W71674   1.796  31.040  12.535
 6195W        W71675   8.670   9.853   4.117
 6196W        W71676  41.009  27.683   0.882
 6197W        W71677  29.500  37.063  11.491
 6198W        W71678   7.216   2.361   0.852
 6199W        W71679  16.692  35.502   1.417
 6200W        W71680  17.136  21.656   2.833
 6201W        W71681  33.108  14.764  11.419
 6202W        W71682  26.671  17.669   1.913
 6203W        W71683  26.955  17.248  12.844
 6204W        W71684  44.461  33.379   5.168
 6205W        W71685   0.772  43.961  13.986
 6206W        W71686  34.039  24.033   2.271
 6207W        W71687  22.094   2.915  14.850
 6208W        W71688  34.401  31.094  12.038
 6209W        W71689   3.269  24.039   4.823
 6210W        W71690  23.111  40.910   2.333
 6211W        W71691  22.033  23.611  14.887
 6212W        W71692  21.051  28.534   3.782
 6213W        W71693  35.997  29.522   2.219
 6214W        W71694  44.385  27.688   3.191
 6215W        W71695  12.685  33.399   1.760
 6216W        W71696  17.585  40.825  13.047
 6217W        W71697  10.763  20.168  14.803
 6218W        W71698   7.211  25.193  13.508
 6219W        W71699   5.301   9.714   2.836
 6220W        W71700  23.611  29.659   2.367
 6221W        W71701   4.241  28.952   4.697
 6222W        W71702   8.312  43.900   2.386
 6223W        W71703  42.982  19.043   0.955
 6224W        W71704  24.228   9.212   0.941
 6225W        W71705   6.396   7.379   0.944
 6226W        W71706  44.400  23.108  12.385
 6227W        W71707  34.601  11.209   2.772
 6228W        W71708   6.885  20.676  12.449
 6229W        W71709  34.958  24.720   0.818
 6230W        W71710  28.480  35.053  13.494
 6231W        W71711  21.135  40.801  12.846
 6232W        W71712  15.612  25.074   1.915
 6233W        W71713  27.001  22.996   1.748
 6234W        W71714   9.880  13.351   1.257
 6235W        W71715  15.743  32.428   4.140
 6236W        W71716  44.430  31.527  11.049
 6237W        W71717  25.583  38.349   1.341
 6238W        W71718   0.819   8.657   0.345
 6239W        W71719  23.550  15.679  14.860
 6240W        W71720  41.431  25.072  12.445
 6241W        W71721  13.224  35.909   2.690
 6242W        W71722  32.575  29.164   4.708
 6243W        W71723  11.748  35.109  14.968
 6244W        W71724  18.625   5.726  12.927
 6245W        W71725   8.224  29.458  12.845
 6246W        W71726  13.117  21.234  10.038
 6247W        W71727  37.995  35.551  10.623
 6248W        W71728  33.466  19.740   1.428
 6249W        W71729  13.116  35.069   0.244
 6250W        W71730  39.048   0.487   1.391
 6251W        W71731  32.920  35.923  11.967
 6252W        W71732  14.591  38.474  11.928
 6253W        W71733  43.803  28.945   2.218
 6254W        W71734  12.838  44.756   3.255
 6255W        W71735  44.944  26.150  13.326
 6256W        W71736  22.535   1.777   5.185
 6257W        W71737  39.043   2.892   0.246
 6258W        W71738  29.078  37.511   0.859
 6259W        W71739  16.595  17.254   3.316
 6260W        W71740  36.886  29.975  13.447
 6261W        W71741   9.649  42.962  12.023
 6262W        W71742  20.263   2.244   3.219
 6263W        W71743  19.779   6.762  12.851
 6264W        W71744  30.044   7.395   4.185
 6265W        W71745   8.880  18.659  12.460
 6266W        W71746  25.013  21.221   3.768
 6267W        W71747  10.838  16.122  11.864
 6268W        W71748  38.820  26.552  11.381
 6269W        W71749   3.285  17.200  14.910
 6270W        W71750  42.361  43.952  12.985
 6271W        W71751  17.080   5.257   2.238
 6272W        W71752   3.397  42.033   3.646
 6273W        W71753   1.769  22.712   1.922
 6274W        W71754  22.177  20.765   3.817
 6275W        W71755  30.107  28.467   0.881
 6276W        W71756  27.555  39.015   3.244
 6277W        W71757  18.562   0.787   0.936
 6278W        W71758  23.028  26.655   4.134
 6279W        W71759  26.469   3.776   2.805
 6280W        W71760  14.243  13.261   2.835
 6281W        W71761  35.876  27.966  13.469
 6282W        W71762  10.358  28.543  10.998
 6283W        W71763   3.356   9.193   4.773
 6284W        W71764  28.485   0.925  10.903
 6285W        W71765  23.208  21.092  12.515
 6286W        W71766  40.338  25.090   2.263
 6287W        W71767   5.391  32.426   4.134
 6288W        W71768  28.681   0.911   0.292
 6289W        W71769  39.354  20.624  12.854
 6290W        W71770  34.474  40.500  12.570
 6291W        W71771   3.800  31.606  13.389
 6292W        W71772  36.487   1.409  10.965
 6293W        W71773  17.244  34.076  11.879
 6294W        W71774  10.808  32.124  14.921
 6295W        W71775  18.208  24.494   5.217
 6296W        W71776  31.612  24.719  11.945
 6297W        W71777  42.971  23.051   3.283
 6298W        W71778  30.068  23.710  14.933
 6299W        W71779  16.718  37.989  14.920
 6300W        W71780  43.298  35.990   2.717
 6301W        W71781   2.735  34.997   1.236
 6302W        W71782  24.976  44.802  11.430
 6303W        W71783  24.722  19.696   3.653
 6304W        W71784  41.931  16.745   1.858
 6305W        W71785  26.585   8.281  14.467
 6306W        W71786  14.835  32.473   2.277
 6307W        W71787  28.605  15.173  10.477
 6308W        W71788  38.029  36.582   4.628
 6309W        W71789  34.992  42.482  12.447
 6310W        W71790  20.721  38.329  11.569
 6311W        W71791   9.676  32.465  12.543
 6312W        W71792  30.588  15.695   1.862
 6313W        W71793   1.838  31.080  13.980
 6314W        W71794  42.899   8.804  10.590
 6315W        W71795  14.812  37.530   0.264
 6316W        W71796  33.131  31.018  10.614
 6317W        W71797  10.874   3.743   0.810
 6318W        W71798   2.388  35.885  14.020
 6319W        W71799  33.029   1.315   3.743
 6320W        W71800   7.673  15.691   1.800
 6321W        W71801  19.067  11.837   0.909
 6322W        W71802  38.476   4.329   4.721
 6323W        W71803  21.039  13.159   0.739
 6324W        W71804  12.811  26.129  12.045
 6325W        W71805  18.288  30.047  12.982
 6326W        W71806   3.424  31.034  11.414
 6327W        W71807   6.880   3.748   4.158
 6328W        W71808  25.531   4.698   2.896
 6329W        W71809  33.912  17.174  12.049
 6330W        W71810  12.805  22.039   1.435
 6331W        W71811   0.361  17.191  14.427
 6332W        W71812  21.248  11.626  14.503
 6333W        W71813   9.775  42.327  12.963
 6334W        W71814   8.788  31.960   2.228
 6335W        W71815  18.743  39.468   1.926
 6336W        W71816  19.247  21.587   1.880
 6337W        W71817  27.073  30.466  12.486
 6338W        W71818  33.096   6.734   1.322
 6339W        W71819  21.098   9.821   1.317
 6340W        W71820  19.767  33.875  12.854
 6341W        W71821  14.217  25.653   1.381
 6342W        W71822  44.992  43.794   4.746
 6343W        W71823  16.780  41.954   0.459
 6344W        W71824  41.406   2.292  11.533
 6345W        W71825  14.109  43.983   0.741
 6346W        W71826  29.605  17.153  12.990
 6347W        W71827   4.306  32.901  12.521
 6348W        W71828  22.148  18.138   0.766
 6349W        W71829  17.127  37.043  13.524
 6350W        W71830  23.197  17.256   0.391
 6351W        W71831  26.023  27.555  14.312
 6352W        W71832  21.586   0.966  11.429
 6353W        W71833  44.371  36.879   1.359
 6354W        W71834  23.541  19.151   1.795
 6355W        W71835  29.082  19.194  12.018
 6356W        W71836  31.939   3.927  12.547
 6357W        W71837   1.884  25.677   0.956
 6358W        W71838  43.895  28.562   4.137
 6359W        W71839  28.119  28.186  11.025
 6360W        W71840   6.823  15.104  12.830
 6361W        W71841   6.211  10.225   0.744
 6362W        W71842  14.725   6.287  12.462
 6363W        W71843  12.122  27.136  13.861
 6364W        W71844   0.954   6.341  12.963
 6365W        W71845   3.727  19.213   3.708
 6366W        W71846  29.029  23.069   3.166
 6367W        W71847  11.632  20.618   3.843
 6368W        W71848  21.689  10.304   0.402
 6369W        W71849  39.367   7.337  11.548
 6370W        W71850  28.516   1.957   4.269
 6371W        W71851  34.506   2.854   1.736
 6372W        W71852   4.918  22.746   4.116
 6373W        W71853  31.573  16.163  11.074
 6374W        W71854   9.364  12.201   4.755
 6375W        W71855   0.922  29.950  14.426
 6376W        W71856  40.468  23.046  10.478
 6377W        W71857  19.256  35.368   1.834
 6378W        W71858  40.940  12.343  13.851
 6379W        W71859  18.650  16.102  11.858
 6380W        W71860  40.396  37.002  13.885
 6381W        W71861  26.629  38.868  11.460
 6382W        W71862  12.160  38.864   0.915
 6383W        W71863  42.422  27.481   2.736
 6384W        W71864   4.394   0.338   0.268
 6385W        W71865  40.956  22.999   1.886
 6386W        W71866  16.170   2.238   3.633
 6387W        W71867  44.303   2.246   1.275
 6388W        W71868  24.710  28.661   1.698
 6389W        W71869  44.437   3.318  11.613
 6390W        W71870  43.506  34.555  14.392
 6391W        W71871  18.609  10.867  11.966
 6392W        W71872   7.395  43.380  11.123
 6393W        W71873  10.299  27.187   0.925
 6394W        W71874  24.127  34.995  14.449
 6395W        W71875  34.067  32.629  10.975
 6396W        W71876  30.026   1.962   2.378
 6397W        W71877  44.354  20.690   4.628
 6398W        W71878  11.713  13.765  12.492
 6399W        W71879   1.784  43.272  14.929
 6400W        W71880  23.986  35.909   4.735
 6401W        W71881   5.749  43.378  13.019
 6402W        W71882  28.623   3.714  13.860
 6403W        W71883   2.289  19.573  13.943
 6404W        W71884   3.772  20.724  14.319
 6405W        W71885  18.096   2.329   2.377
 6406W        W71886   3.852  34.469   0.407
 6407W        W71887  44.358   7.810  12.047
 6408W        W71888  28.679  41.331  11.502
 6409W        W71889  20.538  34.464   1.731
 6410W        W71890  14.317  12.263  13.046
 6411W        W71891  22.639  28.658  14.334
 6412W        W71892  13.314  16.775  10.617
 6413W        W71893   2.306   6.280   4.659
 6414W        W71894  44.900  24.662  13.333
 6415W        W71895  42.982  10.281  11.996
 6416W        W71896  25.552  37.495  13.437
 6417W        W71897   0.798  27.686  11.976
 6418W        W71898   5.406  43.504   1.401
 6419W        W71899  42.340   4.928   3.788
 6420W        W71900   4.267  39.983  10.905
 6421W        W71901   9.279   7.265   2.246
 6422W        W71902  44.855  35.453  12.436
 6423W        W71903  30.948   6.709  10.961
 6424W        W71904  18.068   7.809   0.947
 6425W        W71905  20.035  28.486   0.250
 6426W        W71906   0.390   5.410  12.382
 6427W        W71907  31.002  25.080   1.295
 6428W        W71908  17.213  35.373  11.529
 6429W        W71909  36.031  30.908   2.886
 6430W        W71910  22.170  39.835  13.359
 6431W        W71911  28.460  38.931   3.653
 6432W        W71912  41.925  26.601  11.577
 6433W        W71913  34.457  43.906   0.767
 6434W        W71914  28.033  41.443   4.728
 6435W        W71915  26.132  35.875  13.851
 6436W        W71916  42.791  16.277  12.417
 6437W        W71917  27.546  16.227   4.288
 6438W        W71918  17.604  44.346   1.925
 6439W        W71919  40.431  11.321   3.698
 6440W        W71920  22.226  44.296   2.811
 6441W        W71921   4.824  19.554  14.834
 6442W        W71922   2.292   0.348  13.013
 6443W        W71923   5.793  32.397  11.014
 6444W        W71924  36.450  42.992   2.303
 6445W        W71925   2.334   6.203  10.903
 6446W        W71926   4.378   0.814   0.465
 6447W        W71927   8.271  41.849   0.473
 6448W        W71928   7.705   7.239   5.158
 6449W        W71929  43.296  22.514  10.526
 6450W        W71930  21.648  12.225  12.909
 6451W        W71931   5.303  23.049   1.414
 6452W        W71932   2.944  13.654   3.779
 6453W        W71933  24.131  11.636   9.933
 6454W        W71934  30.932  16.289   1.760
 6455W        W71935  13.307  17.291   2.885
 6456W        W71936  22.028  37.471   0.272
 6457W        W71937  38.014   9.694  10.995
 6458W        W71938  37.920  23.041  13.015
 6459W        W71939  37.454  42.835   2.702
 6460W        W71940   0.885  18.184  13.380
 6461W        W71941  34.567  32.610  12.926
 6462W        W71942  24.091  22.081  14.811
 6463W        W71943   2.352  44.379   4.681
 6464W        W71944  14.688   3.389  13.854
 6465W        W71945  12.286   4.823   0.737
 6466W        W71946   7.329  41.453  10.628
 6467W        W71947   3.445   8.405  13.945
 6468W        W71948  32.942  20.687   4.326
 6469W        W71949  33.032  10.848  13.379
 6470W        W71950  42.382  20.150   4.784
 6471W        W71951  25.593  12.227  14.973
 6472W        W71952  12.329  12.653   4.120
 6473W        W71953  37.899  16.791  14.779
 6474W        W71954  31.088  29.546  10.586
 6475W        W71955  18.654  29.096   5.209
 6476W        W71956  42.823  30.447   3.354
 6477W        W71957  21.542  23.661   2.194
 6478W        W71958  21.753  38.057  10.632
 6479W        W71959  16.724  15.649   0.395
 6480W        W71960  36.881  10.343  10.484
 6481W        W71961  27.120  35.939   3.739
 6482W        W71962   5.414  39.045   4.753
 6483W        W71963  39.357   9.154   4.772
 6484W        W71964  35.008  37.377  12.423
 6485W        W71965  19.055  17.645  13.433
 6486W        W71966   5.924  19.734   2.351
 6487W        W71967  20.740  26.069  14.786
 6488W        W71968  36.991  44.996  12.028
 6489W        W71969   4.787   0.906   4.621
 6490W        W71970  42.863  18.269   0.887
 6491W        W71971  25.543  32.604  14.290
 6492W        W71972   0.414  30.124  11.421
 6493W        W71973   6.894   7.740  10.893
 6494W        W71974  35.856   8.204  13.941
 6495W        W71975  25.648  12.838   2.800
 6496W        W71976  17.681   3.748  14.761
 6497W        W71977  25.500   2.278   4.623
 6498W        W71978   4.729  38.385  12.091
 6499W        W71979  13.175  23.032  12.824
 6500W        W71980   1.336  15.104  12.014
 6501W        W71981  23.120  28.131  12.856
 6502W        W71982  25.962  16.234  11.966
 6503W        W71983  39.825  27.076   2.257
 6504W        W71984   8.693  19.708  14.463
 6505W        W71985  12.192  14.246   0.928
 6506W        W71986  22.708  33.535   4.280
 6507W        W71987  29.000  19.678  12.453
 6508W        W71988   0.980  23.080  10.527
 6509W        W71989   4.207  43.329  14.441
 6510W        W71990   7.171  28.666  11.993
 6511W        W71991  38.038  17.288   1.446
 6512W        W71992  27.459  40.937   2.784
 6513W        W71993  40.948  31.957   2.209
 6514W        W71994  37.913  38.038  14.479
 6515W        W71995  39.977   0.911   0.427
 6516W        W71996   5.876  36.004   2.894
 6517W        W71997  31.978  16.086   1.402
 6518W        W71998  21.736  33.415   0.427
 6519W        W71999  12.796  32.461  12.371
 6520W        W72000  39.941  33.470   4.219
 6521W        W72001  29.041  44.770  11.062
 6522W        W72002  43.891  23.636   4.686
 6523W        W72003  30.912  41.363  11.489
 6524W        W72004   7.834  17.297  10.461
 6525W        W72005   3.947  18.144   4.648
 6526W        W72006  20.088   1.454  12.352
 6527W        W72007   0.863   7.375  12.553
 6528W        W72008   2.742  15.298   4.274
 6529W        W72009  12.216  31.957  12.946
 6530W        W72010  30.154  35.061  13.830
 6531W        W72011   6.711  42.395  13.387
 6532W        W72012  19.754  24.038   0.792
 6533W        W72013  24.616  35.106  11.415
 6534W        W72014  44.003  16.301   0.835
 6535W        W72015  16.204  34.455   2.730
 6536W        W72016  37.009  16.644  12.880
 6537W        W72017  27.983   7.401  10.576
 6538W        W72018  38.422  24.674   1.832
 6539W        W72019  11.688   3.901  10.515
 6540W        W72020  32.006  37.385  14.000
 6541W        W72021  42.782  43.301   2.351
 6542W        W72022  42.324   6.225   2.391
 6543W        W72023  21.199  33.410  11.018
 6544W        W72024  29.496   3.446   4.624
 6545W        W72025  30.015  17.560   2.817
 6546W        W72026  32.081   0.283  10.412
 6547W        W72027  25.005   1.332   3.329
 6548W        W72028  33.106  36.001   2.767
 6549W        W72029   1.966  16.744   1.350
 6550W        W72030  12.270   8.386  11.562
 6551W        W72031  10.806  31.560   4.314
 6552W        W72032  40.310  29.540   2.720
 6553W        W72033  10.350   0.310   9.961
 6554W        W72034  14.730   8.714   0.361
 6555W        W72035  18.257  42.022   4.807
 6556W        W72036  24.607  15.583  11.957
 6557W        W72037  42.385  16.181  11.403
 6558W        W72038  17.258  13.683  13.417
 6559W        W72039  15.763  39.953  13.354
 6560W        W72040  35.592  31.541   0.870
 6561W        W72041  12.819  22.504   0.781
 6562W        W72042  13.243  21.514   4.208
 6563W        W72043  41.976  11.260  12.560
 6564W        W72044  21.711  16.221  13.424
 6565W        W72045  25.619  17.228   3.786
 6566W        W72046   9.868  29.029   0.964
 6567W        W72047  16.174   1.338  14.891
 6568W        W72048  26.556   0.483   0.904
 6569W        W72049  27.016   5.707  11.966
 6570W        W72050  11.153  24.483   1.716
 6571W        W72051  42.924  12.706  11.998
 6572W        W72052  15.770   5.350   2.310
 6573W        W72053  26.955   5.201   4.326
 6574W        W72054  12.319  38.384  11.605
 6575W        W72055   2.741   9.369   0.838
 6576W        W72056  30.535   1.310  13.342
 6577W        W72057  33.518   4.811  14.798
 6578W        W72058  31.414  25.963   4.351
 6579W        W72059  15.138  17.730   0.826
 6580W        W72060   9.666  29.047   0.254
 6581W        W72061  16.780  13.710  12.873
 6582W        W72062   0.947  42.961  12.377
 6583W        W72063  12.695   9.248  12.546
 6584W        W72064   9.160   4.322   2.690
 6585W        W72065   0.453   3.718   0.255
 6586W        W72066  33.011   5.917  11.858
 6587W        W72067   1.853  32.943  10.554
 6588W        W72068  32.959   9.217  14.810
 6589W        W72069  19.676  32.954   0.390
 6590W        W72070  43.788   0.784  11.949
 6591W        W72071   0.347  16.087  14.858
 6592W        W72072  26.093  41.356  14.949
 6593W        W72073  32.902  33.958  13.506
 6594W        W72074  19.235  31.143   1.279
 6595W        W72075  14.800   3.926  13.321
 6596W        W72076  30.458  29.619  10.642
 6597W        W72077  16.272   8.691   3.771
 6598W        W72078  24.607  31.960  11.972
 6599W        W72079  37.893  32.138  12.854
 6600W        W72080   0.826  33.418   5.090
 6601W        W72081  21.222  15.272   2.843
 6602W        W72082  22.616  25.616   1.820
 6603W        W72083   1.247  12.784  13.819
 6604W        W72084  41.972  12.636   2.306
 6605W        W72085  16.714   0.862  14.927
 6606W        W72086  15.156   2.308  13.855
 6607W        W72087  18.574  19.264  13.531
 6608W        W72088   8.793  13.639   2.315
 6609W        W72089  34.982  20.750   3.286
 6610W        W72090  40.799   9.675   3.728
 6611W        W72091  16.196  15.131   1.221
 6612W        W72092   6.188  18.771  11.465
 6613W        W72093  14.113  36.986  10.106
 6614W        W72094  38.337  39.028   4.706
 6615W        W72095  29.975  43.938  13.499
 6616W        W72096  27.482   2.345  13.395
 6617W        W72097  14.723  18.777  13.430
 6618W        W72098  11.736  21.065  13.936
 6619W        W72099  34.465  26.006  11.503
 6620W        W72100  39.810   3.791   4.148
 6621W        W72101  11.775   1.458   1.451
 6622W        W72102  17.606  29.042  10.637
 6623W        W72103  39.376  18.136  13.873
 6624W        W72104  35.040  41.900   2.879
 6625W        W72105   1.293  23.986  11.371
 6626W        W72106  14.617  11.206   3.708
 6627W        W72107  30.019  35.514   3.209
 6628W        W72108  27.503  22.730  12.453
 6629W        W72109  14.621  41.031  13.513
 6630W        W72110  44.009  20.141  11.128
 6631W        W72111  10.147  27.524  10.003
 6632W        W72112   9.200  39.019   4.637
 6633W        W72113  28.573  15.119  12.397
 6634W        W72114  38.353  35.905  10.575
 6635W        W72115  10.191  39.995   3.281
 6636W        W72116  21.722  19.550  10.951
 6637W        W72117  36.963  23.134   1.765
 6638W        W72118  27.509  21.084  14.954
 6639W        W72119  34.551  41.919   0.954
 6640W        W72120  38.036  34.002   3.860
 6641W        W72121  25.153  15.143   9.983
 6642W        W72122  13.266  18.190  13.980
 6643W        W72123  22.031  30.097   4.137
 6644W        W72124  24.712  15.133   4.693
 6645W        W72125   7.238   0.419  12.834
 6646W        W72126  38.382  21.017  10.906
 6647W        W72127  35.386  39.852  14.389
 6648W        W72128   5.898  37.431   1.773
 6649W        W72129  42.824  21.545  10.622
 6650W        W72130   6.845  15.583  14.413
 6651W        W72131  24.091  35.099   4.698
 6652W        W72132  23.703  28.960   2.343
 6653W        W72133  16.302  43.395  12.505
 6654W        W72134   8.852  20.192  13.841
 6655W        W72135   6.726  39.824   2.682
 6656W        W72136  34.441  22.166   1.373
 6657W        W72137  15.187  21.191   1.920
 6658W        W72138  25.526  14.116  12.984
 6659W        W72139  11.357  18.668   0.355
 6660W        W72140  30.610  18.129  13.829
 6661W        W72141   6.416  44.934   1.328
 6662W        W72142  14.662  23.183   4.633
 6663W        W72143  12.183  26.656   3.286
 6664W        W72144  14.665  18.633   3.275
 6665W        W72145  12.118  25.627   1.791
 6666W        W72146  21.200   7.699  12.018
 6667W        W72147   6.316   5.809  10.084
 6668W        W72148  26.203  36.086   2.354
 6669W        W72149   2.298  18.233   3.198
 6670W        W72150  15.712  10.645  13.469
 6671W        W72151  26.004   4.719   4.666
 6672W        W72152  41.421  38.074   3.341
 6673W        W72153  19.075  42.420   4.793
 6674W        W72154  31.424  31.504   2.305
 6675W        W72155  10.300   2.862  10.520
 6676W        W72156  33.943  12.746   0.463
 6677W        W72157  29.167  21.545   3.196
 6678W        W72158  35.508  15.671   0.848
 6679W        W72159  27.637   6.333  11.882
 6680W        W72160  34.919  31.009  12.993
 6681W        W72161  29.946  42.846   1.366
 6682W        W72162  33.485  20.680  12.556
 6683W        W72163   7.676  19.627   2.809
 6684W        W72164  17.754   2.393   2.703
 6685W        W72165  14.174  24.694   1.324
 6686W        W72166  24.020   6.790  13.958
 6687W        W72167   8.708  28.504  12.514
 6688W        W72168  19.534  10.217   0.401
 6689W        W72169   5.348  14.766   2.348
 6690W        W72170  17.073  13.745   3.805
 6691W        W72171   3.397  31.594   2.675
 6692W        W72172  37.977  24.159   1.727
 6693W        W72173   3.373  14.320   4.253
 6694W        W72174   1.783  30.618  14.452
 6695W        W72175   0.279   0.924   4.709
 6696W        W72176  15.150  28.934  14.810
 6697W        W72177  41.893  16.255  12.047
 6698W        W72178  26.556   9.289   5.223
 6699W        W72179  27.943  36.083   3.343
 6700W        W72180   9.846   8.803   0.416
 6701W        W72181   2.825  19.548   4.629
 6702W        W72182   8.220  10.222   1.874
 6703W        W72183   5.395   6.365  13.797
 6704W        W72184  42.332  16.597   2.261
 6705W        W72185  19.776  41.899   2.746
 6706W        W72186  26.605  30.155  13.913
 6707W        W72187   9.760  27.576  13.906
 6708W        W72188  42.502  31.540  11.117
 6709W        W72189  13.228  31.538  10.420
 6710W        W72190   8.272  44.428  11.019
 6711W        W72191  25.602  18.252  14.394
 6712W        W72192   8.754  36.951  14.980
 6713W        W72193  13.733  27.513  14.814
 6714W        W72194  36.494  28.515   3.208
 6715W        W72195  10.779  30.985   2.771
 6716W        W72196  42.850  35.029  14.792
 6717W        W72197  40.403  37.950   4.332
 6718W        W72198  28.144  31.093   4.677
 6719W        W72199  28.641  20.585  12.523
 6720W        W72200  44.894   0.834   3.655
 6721W        W72201  33.922  14.610   1.412
 6722W        W72202  23.583  12.643   2.794
 6723W        W72203  33.097   2.449   0.940
 6724W        W72204  39.826  19.171   1.785
 6725W        W72205  29.111  22.606  11.864
 6726W        W72206  13.614  10.299  12.465
 6727W        W72207  21.700   7.396   3.737
 6728W        W72208   9.296  14.327   0.450
 6729W        W72209  13.217  31.627   2.273
 6730W        W72210   2.955  11.775  11.005
 6731W        W72211  18.759  43.378   1.802
 6732W        W72212   4.765  13.684   3.355
 6733W        W72213  38.896   9.378   4.271
 6734W        W72214  42.841  37.947   0.790
 6735W        W72215  30.066   8.374  10.525
 6736W        W72216   7.854  30.430  12.391
 6737W        W72217   8.756   1.896  13.005
 6738W        W72218  14.610  37.079   3.642
 6739W        W72219  24.518  19.723  12.006
 6740W        W72220  11.363  44.760   0.284
 6741W        W72221  35.376  25.145   3.794
 6742W        W72222   5.237   9.660   1.277
 6743W        W72223  29.494  42.936  14.875
 6744W        W72224  16.644   9.332   3.636
 6745W        W72225  43.843  43.503  13.400
 6746W        W72226  29.632  24.093   5.214
 6747W        W72227   3.250   3.449   1.903
 6748W        W72228  22.740  20.211  12.562
 6749W        W72229  31.940  10.710   0.907
 6750W        W72230   2.326  10.642   0.300
 6751W        W72231   5.306  30.027   0.948
 6752W        W72232  17.235  10.200   0.838
 6753W        W72233   2.254  29.163  11.880
 6754W        W72234  34.099   4.897  12.840
 6755W        W72235   6.300  12.751   1.341
 6756W        W72236  44.826  13.281  12.569
 6757W        W72237  39.052   0.301  10.908
 6758W        W72238  23.644   3.810  12.058
 6759W        W72239  23.098  39.419  14.426
 6760W        W72240  27.480  41.347  14.838
 6761W        W72241   9.845  12.255   1.783
 6762W        W72242  38.326   9.793  14.315
 6763W        W72243  26.506  10.835   1.224
 6764W        W72244  32.592   5.918  13.050
 6765W        W72245  17.786  14.306  11.913
 6766W        W72246  27.581  27.600   3.359
 6767W        W72247  28.512  11.847   3.334
 6768W        W72248   3.384  35.382   0.382
 6769W        W72249  32.929   0.352  11.464
 6770W        W72250   2.947  38.895   0.450
 6771W        W72251  26.556  25.989   0.918
 6772W        W72252  43.290   5.234  11.935
 6773W        W72253  37.457   3.279  13.312
 6774W        W72254  27.080  16.197  12.928
 6775W        W72255  42.443   8.849   2.724
 6776W        W72256  33.564  12.798   3.686
 6777W        W72257  33.528  11.171   2.412
 6778W        W72258  42.399  34.066   4.776
 6779W        W72259   2.902  34.918  11.378
 6780W        W72260   7.345  13.298   1.851
 6781W        W72261  16.796  15.587  13.807
 6782W        W72262  15.173  30.999   3.250
 6783W        W72263  29.523  42.878   1.434
 6784W        W72264  39.877  43.792   0.749
 6785W        W72265   4.426   8.853  12.574
 6786W        W72266  23.225  22.738   1.853
 6787W        W72267  32.009  31.127  14.789
 6788W        W72268  22.609  43.497   5.120
 6789W        W72269  10.291  41.973   3.860
 6790W        W72270  32.593   4.431  13.969
 6791W        W72271  30.444  10.790  11.020
 6792W        W72272   6.780  44.825  14.352
 6793W        W72273   0.376   9.209  13.817
 6794W        W72274  19.703  20.667  10.580
 6795W        W72275  36.881  16.291  12.573
 6796W        W72276   2.804  33.511  11.904
 6797W        W72277  23.201  40.020   4.657
 6798W        W72278  28.016  38.363  12.050
 6799W        W72279  14.271   5.315   2.858
 6800W        W72280  25.043  31.070  13.401
 6801W        W72281  22.571   1.889  14.299
 6802W        W72282  36.989  32.891   4.800
 6803W        W72283  16.781   8.683   0.770
 6804W        W72284  28.445   9.719  10.898
 6805W        W72285  14.297  39.398  11.454
 6806W        W72286   0.941   1.788  13.973
 6807W        W72287  31.991  11.194  12.557
 6808W        W72288  40.473  22.613   0.312
 6809W        W72289  11.156   0.889   2.274
 6810W        W72290   4.743  24.218   4.204
 6811W        W72291  14.273  38.861  12.001
 6812W        W72292  20.691  29.490   2.694
 6813W        W72293  23.550   1.963   2.296
 6814W        W72294  41.973   7.317   1.878
 6815W        W72295  34.961  44.897   3.843
 6816W        W72296  26.541  44.838   0.416
 6817W        W72297  13.284   2.258  12.375
 6818W        W72298  33.517  33.080   4.148
 6819W        W72299  18.726   6.903   0.349
 6820W        W72300  32.447  32.624   0.278
 6821W        W72301   3.764  22.734  10.414
 6822W        W72302  27.650  40.389  10.022
 6823W        W72303  27.055  23.085   1.423
 6824W        W72304   9.344  21.511  12.394
 6825W        W72305  41.432  26.149  11.440
 6826W        W72306  12.355  40.411  11.945
 6827W        W72307   7.245  24.173  12.540
 6828W        W72308   9.799   6.705  12.527
 6829W        W72309   8.761  23.216  13.343
 6830W        W72310   8.376  14.688   3.682
 6831W        W72311  42.895  14.738  11.431
 6832W        W72312  32.531  15.772   2.698
 6833W        W72313  41.393   6.264   4.271
 6834W        W72314  40.957   1.830   3.756
 6835W        W72315  24.147  35.956   0.874
 6836W        W72316  29.495  19.698  10.510
 6837W        W72317   4.374  12.656  14.854
 6838W        W72318  27.182  13.680  10.995
 6839W        W72319  32.104  15.771   2.347
 6840W        W72320  12.221   6.375  14.000
 6841W        W72321  32.570  14.816  11.932
 6842W        W72322   3.904  23.119   3.768
 6843W        W72323  42.798  12.778  11.564
 6844W        W72324  29.095   2.283  14.329
 6845W        W72325  20.209   2.885  13.818
 6846W        W72326  39.856   4.298  13.849
 6847W        W72327  15.660  43.493   2.190
 6848W        W72328  29.078  32.424  13.414
 6849W        W72329   4.940  40.873  13.024
 6850W        W72330  11.859  39.053   2.862
 6851W        W72331  19.536  38.439   0.881
 6852W        W72332  26.038  40.946  10.892
 6853W        W72333   2.299   0.411  12.028
 6854W        W72334   1.408  30.445   3.258
 6855W        W72335  19.055  36.416  11.423
 6856W        W72336  29.980  35.512  14.834
 6857W        W72337  29.544  12.722   4.832
 6858W        W72338  10.278  43.397  14.985
 6859W        W72339  25.649  12.717   0.321
 6860W        W72340  12.640  30.024  10.963
 6861W        W72341  11.161   6.842  14.789
 6862W        W72342  43.477  11.717   4.788
 6863W        W72343   9.230  44.364  14.815
 6864W        W72344  42.510  29.131  14.382
 6865W        W72345  20.646   6.242   3.718
 6866W        W72346  21.715  28.179  12.865
 6867W        W72347  33.916  26.140   0.364
 6868W        W72348  31.937  23.682   1.744
 6869W        W72349  34.060  23.610  12.478
 6870W        W72350   6.360  40.950  13.459
 6871W        W72351  18.292  33.052  10.587
 6872W        W72352   6.227  37.000  14.475
 6873W        W72353  36.430  20.201  14.909
 6874W        W72354  14.606   5.855  14.477
 6875W        W72355  29.571  18.186   2.197
 6876W        W72356   8.723   1.811   1.787
 6877W        W72357  41.974  16.767   1.446
 6878W        W72358   9.163  28.080  11.413
 6879W        W72359  41.896  16.809  10.614
 6880W        W72360   0.338  29.175  13.330
 6881W        W72361  13.211  23.210   2.396
 6882W        W72362  18.570   8.375   1.791
 6883W        W72363  26.691   1.397  12.965
 6884W        W72364   6.788  13.838   2.853
 6885W        W72365  24.560  15.806  13.899
 6886W        W72366   1.440  20.078   0.912
 6887W        W72367  34.116  14.106   3.659
 6888W        W72368  44.454   3.799   2.322
 6889W        W72369  34.117   4.753   0.298
 6890W        W72370   3.280  43.976  13.355
 6891W        W72371  19.107  17.629   2.814
 6892W        W72372  14.244  44.444   2.874
 6893W        W72373  33.454  44.284  13.062
 6894W        W72374  16.592   5.238   1.382
 6895W        W72375  17.259  11.790   4.664
 6896W        W72376   4.446  16.128  11.539
 6897W        W72377  11.819  40.437  10.473
 6898W        W72378  37.063  41.292  10.569
 6899W        W72379  29.659  29.573  14.906
 6900W        W72380  33.396  30.509   4.658
 6901W        W72381  33.955  26.626   2.353
 6902W        W72382  11.363  30.973   1.396
 6903W        W72383   8.329   6.260  14.996
 6904W        W72384  12.245  20.653   2.247
 6905W        W72385  41.476   0.773  13.905
 6906W        W72386  14.774  20.060   1.330
 6907W        W72387  21.059  44.376  13.345
 6908W        W72388   2.778  39.020  14.398
 6909W        W72389  44.394  41.920  10.537
 6910W        W72390  18.767  42.487   0.729
 6911W        W72391  31.485   4.399  14.944
 6912W        W72392  20.090  16.782   4.290
 6913W        W72393  33.501  40.801  10.967
 6914W        W72394  25.596  43.876   2.786
 6915W        W72395  29.602  30.054   4.683
 6916W        W72396  14.644  20.567  14.320
 6917W        W72397   4.438  23.064  13.814
 6918W        W72398  39.426  31.150  11.479
 6919W        W72399  14.103  14.821  11.934
 6920W        W72400  34.039  15.717   1.292
 6921W        W72401  14.256  41.951   1.763
 6922W        W72402  23.990   3.927   3.277
 6923W        W72403  22.011  32.495  14.290
 6924W        W72404   2.245  21.230   2.744
 6925W        W72405  20.244  35.007  12.424
 6926W        W72406  10.674  18.778  10.965
 6927W        W72407  23.539  12.134  11.919
 6928W        W72408  33.027  23.715   1.902
 6929W        W72409   7.885  13.605  12.416
 6930W        W72410  34.385  32.474   4.243
 6931W        W72411  29.514  27.531  13.052
 6932W        W72412  41.846   0.247  14.809
 6933W        W72413  30.137  25.664   1.299
 6934W        W72414  19.677  32.633  11.375
 6935W        W72415   7.195   3.758  13.402
 6936W        W72416  24.672  18.212  11.064
 6937W        W72417  37.044   9.328  10.606
 6938W        W72418  28.524   4.254  13.799
 6939W        W72419   9.690  12.132   2.888
 6940W        W72420  13.340  40.004   4.817
 6941W        W72421  16.248  35.876   4.233
 6942W        W72422  20.765  44.413   2.723
 6943W        W72423  33.977  11.368  10.919
 6944W        W72424  30.596   9.278  11.443
 6945W        W72425   9.208  15.763  12.437
 6946W        W72426   0.314  20.219   1.245
 6947W        W72427   4.371  26.084  12.024
 6948W        W72428  14.790  24.608  13.474
 6949W        W72429   8.278  21.210   0.457
 6950W        W72430  17.748  31.488  14.330
 6951W        W72431   2.355  16.665  14.909
 6952W        W72432   7.871  18.100   5.300
 6953W        W72433  41.298  31.470  12.855
 6954W        W72434   2.435  12.327   3.722
 6955W        W72435  34.089   5.387   0.922
 6956W        W72436   7.237  33.998  12.966
 6957W        W72437  36.013   7.214  14.393
 6958W        W72438  20.135  35.028  14.463
 6959W        W72439  24.583  33.948   4.695
 6960W        W72440  34.057  10.731   2.405
 6961W        W72441  36.414   3.438  10.471
 6962W        W72442   3.783  41.432   2.356
 6963W        W72443  20.274  19.692   3.779
 6964W        W72444  10.763   0.335  11.427
 6965W        W72445  40.522   8.700   3.283
 6966W        W72446  30.907  21.262   0.478
 6967W        W72447  38.997  10.319  14.032
 6968W        W72448   1.948  35.508   1.241
 6969W        W72449  31.476   4.868  12.428
 6970W        W72450  25.992  35.508   0.433
 6971W        W72451  14.697  10.688  10.523
 6972W        W72452  31.075  42.302  11.520
 6973W        W72453  41.021  22.190  11.540
 6974W        W72454  41.410  34.112  10.404
 6975W        W72455  25.186  26.954  14.304
 6976W        W72456  28.950   1.414  12.526
 6977W        W72457  21.592  28.057   4.678
 6978W        W72458  29.467  20.131  10.535
 6979W        W72459  22.683   3.362   2.731
 6980W        W72460  24.506   6.392   3.763
 6981W        W72461  43.442  16.089  11.611
 6982W        W72462  24.114   5.768   3.384
 6983W        W72463  26.565  43.875  10.459
 6984W        W72464   3.249  41.812   1.708
 6985W        W72465  24.160  41.459   1.861
 6986W        W72466  18.664  24.693   4.635
 6987W        W72467  32.932   7.838   2.825
 6988W        W72468   2.410  18.640   1.340
 6989W        W72469  13.720   5.779   3.758
 6990W        W72470  29.094  35.050  13.411
 6991W        W72471  44.780  14.147  12.088
 6992W        W72472  16.711  13.687  12.479
 6993W        W72473  11.856  20.721  12.468
 6994W        W72474  12.197  16.729  14.805
 6995W        W72475  32.060  34.883   4.127
 6996W        W72476   8.238  38.832  12.976
 6997W        W72477  42.776   4.880  13.046
 6998W        W72478  35.889   2.400  11.417
 6999W        W72479  10.767  11.175  12.854
 7000W        W72480   3.243   2.470  13.000
 7001W        W72481  38.920  41.839   5.234
 7002W        W72482  31.990   9.753   4.150
 7003W        W72483  39.456  16.268  14.025
 7004W        W72484  27.454  16.232  13.985
 7005W        W72485  31.018  28.094  11.946
 7006W        W72486  37.404   7.870   3.721
 7007W        W72487  12.684   7.402  13.915
 7008W        W72488  43.923  37.856  14.394
 7009W        W72489  25.969  25.491  12.915
 7010W        W72490   8.198  19.740  10.564
 7011W        W72491  11.171  24.684  13.353
 7012W        W72492   3.417  19.628   0.761
 7013W        W72493  28.674  11.372  10.515
 7014W        W72494  19.108  25.690  14.782
 7015W        W72495  29.594  21.600  10.889
 7016W        W72496  30.116  25.618  13.877
 7017W        W72497  19.614  42.825   4.299
 7018W        W72498  17.654   1.397   4.785
 7019W        W72499   0.875  32.596  11.559
 7020W        W72500   5.268  28.525  10.468
 7021W        W72501  42.937  14.704   2.893
 7022W        W72502   6.896  19.715   4.639
 7023W        W72503  12.233   5.333  10.984
 7024W        W72504  19.705  28.531  13.529
 7025W        W72505  32.943  31.000  11.382
 7026W        W72506  28.978   6.302   1.450
 7027W        W72507  22.248  38.032   4.352
 7028W        W72508  32.925  35.855   2.278
 7029W        W72509  12.670   7.845  13.870
 7030W        W72510  18.790  21.070  13.482
 7031W        W72511  16.693  37.831  12.475
 7032W        W72512   3.805  15.803  10.558
 7033W        W72513  26.549  29.449   1.261
 7034W        W72514  22.224  16.226   2.772
 7035W        W72515  31.142   2.730   4.185
 7036W        W72516  24.540  13.150   0.449
 7037W        W72517   5.878  27.478  12.824
 7038W        W72518  39.340  36.352  10.602
 7039W        W72519  18.716  11.851  14.972
 7040W        W72520  13.237  15.701   3.643
 7041W        W72521   9.684  30.081   0.930
 7042W        W72522   3.259  43.471  10.471
 7043W        W72523  37.893  38.497   3.692
 7044W        W72524  30.434  28.646  13.843
 7045W        W72525   4.387  14.144   2.804
 7046W        W72526  43.282   1.938  11.064
 7047W        W72527  40.305  43.404   3.254
 7048W        W72528  12.715  16.278   1.287
 7049W        W72529  43.352  38.907   3.351
 7050W        W72530  35.943  20.044  12.016
 7051W        W72531  41.815  43.402   1.865
 7052W        W72532  32.945   3.388   4.240
 7053W        W72533  29.006   9.177   4.253
 7054W        W72534  27.565  27.960  14.433
 7055W        W72535  10.335  11.626  14.949
 7056W        W72536  44.967  11.306  13.968
 7057W        W72537  36.046  39.005   3.840
 7058W        W72538   3.413  11.852   0.462
 7059W        W72539  42.442  15.798  14.361
 7060W        W72540  41.796   6.823  13.387
 7061W        W72541  18.697  14.273  12.012
 7062W        W72542  28.958  21.511  10.478
 7063W        W72543   3.260  14.189   1.805
 7064W        W72544   3.792   8.287  13.334
 7065W        W72545  20.156  26.639   1.845
 7066W        W72546  17.556  34.537   0.843
 7067W        W72547  30.640  26.140   4.354
 7068W        W72548   5.701  13.631  10.601
 7069W        W72549  32.018  14.659   4.753
 7070W        W72550   8.893  10.160   2.359
 7071W        W72551  16.752   4.299  11.461
 7072W        W72552  26.543  13.705  12.984
 7073W        W72553  44.821  29.556  12.423
 7074W        W72554  15.743  24.646   1.909
 7075W        W72555  30.490  31.563   1.369
 7076W        W72556   5.700  30.615   1.872
 7077W        W72557   7.747  23.623  10.901
 7078W        W72558  36.409  10.171   3.175
 7079W        W72559   6.796  33.125  12.027
 7080W        W72560  29.100  30.034  12.522
 7081W        W72561  26.167  34.871   1.852
 7082W        W72562  41.034  30.929   2.385
 7083W        W72563  43.954  43.372  11.120
 7084W        W72564   1.806  34.552   1.421
 7085W        W72565   6.721  35.100   1.914
 7086W        W72566  27.629  11.225   3.661
 7087W        W72567  27.095   7.349   0.893
 7088W        W72568  10.782  27.446   1.725
 7089W        W72569  35.916  20.560   1.373
 7090W        W72570  34.031  44.483  10.500
 7091W        W72571   7.870  12.664   9.935
 7092W        W72572   3.281   2.895  12.986
 7093W        W72573   7.814  21.609   4.294
 7094W        W72574  27.007  11.138  13.948
 7095W        W72575   3.341  36.456  12.855
 7096W        W72576   3.374  26.534   3.736
 7097W        W72577  11.285  37.073   4.690
 7098W        W72578  22.157  29.126   4.731
 7099W        W72579  16.238  25.707  11.868
 7100W        W72580  42.863  26.597   5.134
 7101W        W72581  21.045  13.205   4.612
 7102W        W72582  13.292  24.523  11.950
 7103W        W72583  17.148  39.489   4.753
 7104W        W72584  30.908  40.941   0.345
 7105W        W72585  44.469   8.261   2.337
 7106W        W72586   0.397  26.560   3.339
 7107W        W72587   8.680   3.849   2.344
 7108W        W72588  33.394  44.446  13.795
 7109W        W72589  34.905  17.103  11.857
 7110W        W72590  23.576  39.945  13.542
 7111W        W72591  17.289   6.731   3.297
 7112W        W72592   0.451   6.765   2.197
 7113W        W72593  21.138  12.636   0.856
 7114W        W72594  31.488  43.373   0.327
 7115W        W72595  35.424  42.894  14.973
 7116W        W72596   1.350  28.081  11.057
 7117W        W72597  13.685  22.160   1.313
 7118W        W72598  39.539  17.115   1.431
 7119W        W72599   6.905  17.671  13.831
 7120W        W72600  22.110  22.085  12.835
 7121W        W72601   4.719  39.942   2.233
 7122W        W72602   1.315  36.437   2.805
 7123W        W72603  10.861  11.865  10.523
 7124W        W72604   0.404  13.750  14.447
 7125W        W72605   6.881   0.935   1.258
 7126W        W72606  23.496  33.578  14.324
 7127W        W72607  29.950  31.147   3.714
 7128W        W72608  37.909  14.628   2.395
 7129W        W72609  30.962  33.434   3.374
 7130W        W72610   1.741  26.082   2.721
 7131W        W72611   3.930  27.689  13.387
 7132W        W72612   7.339  34.499   1.386
 7133W        W72613  31.426  39.878  14.982
 7134W        W72614   0.442  23.516  14.315
 7135W        W72615  11.302  36.466  12.375
 7136W        W72616   4.806  42.398   1.409
 7137W        W72617  17.761  44.298   0.866
 7138W        W72618  29.026   8.764   1.799
 7139W        W72619   8.178  28.491  10.892
 7140W        W72620  13.668  26.019  12.039
 7141W        W72621  13.629  16.694  11.009
 7142W        W72622  20.173  20.100   0.452
 7143W        W72623  12.836  42.367  11.438
 7144W        W72624   6.775   3.905  11.024
 7145W        W72625   5.332   8.260  14.944
 7146W        W72626  29.477   4.712   1.862
 7147W        W72627  36.004   0.894  11.928
 7148W        W72628  43.925  42.407   1.791
 7149W        W72629  28.065  40.422  14.427
 7150W        W72630  12.664  25.025   1.294
 7151W        W72631   8.169   0.958   0.348
 7152W        W72632  27.577   0.916   4.623
 7153W        W72633  11.738  34.467   2.212
 7154W        W72634  30.935  42.985   5.184
 7155W        W72635  40.837  33.028   3.163
 7156W        W72636  12.618  41.466  14.413
 7157W        W72637  11.308  28.557  13.452
 7158W        W72638  17.225   7.253  12.831
 7159W        W72639  37.453  42.014   0.438
 7160W        W72640  33.076   9.204   4.748
 7161W        W72641  32.611  29.626  11.421
 7162W        W72642  10.813  42.389   1.864
 7163W        W72643  19.068  13.277  11.486
 7164W        W72644   3.885  33.510  11.517
 7165W        W72645  36.904  38.016   2.870
 7166W        W72646  11.270  32.437   1.834
 7167W        W72647  24.101  22.501  12.019
 7168W        W72648   5.910  37.352  12.396
 7169W        W72649  37.491   7.363  13.350
 7170W        W72650  33.588   7.278   1.337
 7171W        W72651  23.090   6.809  10.556
 7172W        W72652  26.998   1.804   2.763
 7173W        W72653  35.534   0.968   0.886
 7174W        W72654  15.663  36.876   4.710
 7175W        W72655  29.555  19.202  12.557
 7176W        W72656  30.010   6.427  10.497
 7177W        W72657  23.726  42.796   2.866
 7178W        W72658   8.329  34.994  14.353
 7179W        W72659   1.949  27.649   2.277
 7180W        W72660   8.745   8.768  13.350
 7181W        W72661  23.188  35.882  12.433
 7182W        W72662  14.608  32.042  11.416
 7183W        W72663  17.700  25.104  12.495
 7184W        W72664  12.353   5.732  11.039
 7185W        W72665  44.503   9.242  14.951
 7186W        W72666  39.393  31.929  11.390
 7187W        W72667   9.876   4.743  14.863
 7188W        W72668  12.636  35.901   1.906
 7189W        W72669   2.885  44.933   2.259
 7190W        W72670  23.134  33.014   3.155
 7191W        W72671   8.748  12.260   0.915
 7192W        W72672   5.355  29.459  11.877
 7193W        W72673  27.673  41.940  12.999
 7194W        W72674  19.589  19.056   4.686
 7195W        W72675  25.569   5.728   2.336
 7196W        W72676   1.422  44.771   3.201
 7197W        W72677   9.344  29.947   1.243
 7198W        W72678  40.414  35.905  12.901
 7199W        W72679  15.636  22.733  13.013
 7200W        W72680   3.246  40.303   1.419
 7201W        W72681  15.296  30.608  13.352
 7202W        W72682  25.964  26.563  14.287
 7203W        W72683   7.232  25.549   3.787
 7204W        W72684  17.660  29.168  13.538
 7205W        W72685   1.802   6.907   4.171
 7206W        W72686  25.979  29.509   4.804
 7207W        W72687  26.142  34.601   0.945
 7208W        W72688   7.227  41.405   1.325
 7209W        W72689   4.758  38.936   2.239
 7210W        W72690  23.120  17.099   2.748
 7211W        W72691  26.493   9.799  14.468
 7212W        W72692  18.285  10.216  10.911
 7213W        W72693   7.836  35.957  12.446
 7214W        W72694  37.466  23.079   2.324
 7215W        W72695  35.597  31.490   2.791
 7216W        W72696  15.666  43.001   2.874
 7217W        W72697  10.347  41.974   1.352
 7218W        W72698  30.012  39.063   5.734
 7219W        W72699  28.112  16.127   1.750
 7220W        W72700  29.930  40.024  14.277
 7221W        W72701   1.288  30.523  11.907
 7222W        W72702   3.225   2.874   0.382
 7223W        W72703  42.376  28.096  11.938
 7224W        W72704  26.191  28.149   1.303
 7225W        W72705   2.388   3.845  13.994
 7226W        W72706  18.224  41.999  12.564
 7227W        W72707  42.510   7.188  11.991
 7228W        W72708  22.023  17.214  13.541
 7229W        W72709   3.832   7.266  12.497
 7230W        W72710  30.416   8.320  12.839
 7231W        W72711  41.526   8.822   0.283
 7232W        W72712  15.291   9.174  11.002
 7233W        W72713  19.575  12.815   4.799
 7234W        W72714  27.575  33.424  10.426
 7235W        W72715  31.643  21.131  12.866
 7236W        W72716  23.998  39.496  13.536
 7237W        W72717   1.937  33.027   0.727
 7238W        W72718  26.594  33.105  13.474
 7239W        W72719  25.687  20.765  11.905
 7240W        W72720  11.172   7.259   4.199
 7241W        W72721  21.512  21.181   3.356
 7242W        W72722  22.721  43.965   1.781
 7243W        W72723  11.761  44.382   3.861
 7244W        W72724  30.921   2.314   1.373
 7245W        W72725  16.217  20.252  10.636
 7246W        W72726   2.453  40.509   1.908
 7247W        W72727  15.760  39.560  14.938
 7248W        W72728  21.527  13.677   1.258
 7249W        W72729  43.289  42.809   4.263
 7250W        W72730  22.609  14.803   1.249
 7251W        W72731   8.284   1.431  11.538
 7252W        W72732  26.519   6.361   4.342
 7253W        W72733  16.076  19.697   0.921
 7254W        W72734   3.816  14.600  11.499
 7255W        W72735   7.287  10.210  12.087
 7256W        W72736  43.014  34.385   4.277
 7257W        W72737  27.543   6.814  13.040
 7258W        W72738  37.010  11.180  14.483
 7259W        W72739  35.512  22.591   3.352
 7260W        W72740  14.183   5.323  10.966
 7261W        W72741  33.967  43.473   1.886
 7262W        W72742  25.491  14.141   4.214
 7263W        W72743  12.339   6.915  12.009
 7264W        W72744  30.451  44.425  14.904
 7265W        W72745  29.550  21.666  13.953
 7266W        W72746  34.613   9.654  11.998
 7267W        W72747  20.139  31.563   0.445
 7268W        W72748  19.133   5.885  13.938
 7269W        W72749   1.931  25.589  13.045
 7270W        W72750   0.832   8.256  14.488
 7271W        W72751   3.353  35.402  14.379
 7272W        W72752   1.811  34.552   0.447
 7273W        W72753  13.634  39.325  12.526
 7274W        W72754   3.259   9.875   1.375
 7275W        W72755  13.821  27.677   4.307
 7276W        W72756  22.121   6.793  10.518
 7277W        W72757  25.171  12.726   4.736
 7278W        W72758  26.956  19.090  12.376
 7279W        W72759   9.319   0.370   3.377
 7280W        W72760  12.647  30.085  11.579
 7281W        W72761  10.694   2.745  13.910
 7282W        W72762  42.017  40.476  10.991
 7283W        W72763  23.999  18.726   4.250
 7284W        W72764  20.756  20.123   1.884
 7285W        W72765  26.095  21.721  14.848
 7286W        W72766  37.432  42.797  10.632
 7287W        W72767   3.320  17.177   2.349
 7288W        W72768   5.216   4.938   2.183
 7289W        W72769  42.988   3.803  10.467
 7290W        W72770   4.930  12.273  10.086
 7291W        W72771  30.557  29.586   0.927
 7292W        W72772  28.117  27.648   0.749
 7293W        W72773  19.108   0.808   3.815
 7294W        W72774  10.854  43.972  14.368
 7295W        W72775   2.814  38.981  14.881
 7296W        W72776  13.308  10.356  14.962
 7297W        W72777  36.451   9.162   2.773
 7298W        W72778   1.774  22.119   2.291
 7299W        W72779  27.161  12.239  11.487
 7300W        W72780   7.271  19.629   3.153
 7301W        W72781  41.380  22.037   2.771
 7302W        W72782  27.490  16.197  11.012
 7303W        W72783  10.327  21.046   4.803
 7304W        W72784  27.025  42.885   3.309
 7305W        W72785  13.826   9.374   3.272
 7306W        W72786  23.083  30.438   4.651
 7307W        W72787  10.163  28.080  13.522
 7308W        W72788  20.757  41.814  11.533
 7309W        W72789   4.904  43.451   1.328
 7310W        W72790   5.809  33.464  11.119
 7311W        W72791   6.710  20.178   2.398
 7312W        W72792  14.172  27.509  10.631
 7313W        W72793   3.433  37.470  11.425
 7314W        W72794  25.178   0.431   3.245
 7315W        W72795  11.243  38.391   0.275
 7316W        W72796  14.219  31.647   0.284
 7317W        W72797  44.926  16.616  14.285
 7318W        W72798   2.322  35.397  11.525
 7319W        W72799  14.642  39.428   2.669
 7320W        W72800   1.365   0.474   3.672
 7321W        W72801  14.653   0.366   5.085
 7322W        W72802  39.045  13.759   0.439
 7323W        W72803  34.472  33.452   3.648
 7324W        W72804  14.174  19.049  13.344
 7325W        W72805   0.348  43.402   1.402
 7326W        W72806  40.924  15.188   1.432
 7327W        W72807  23.532  28.044   4.152
 7328W        W72808  40.858  12.185   3.194
 7329W        W72809   6.372  10.172   2.722
 7330W        W72810  20.189  11.281   3.645
 7331W        W72811   4.301  28.075   3.852
 7332W        W72812  32.979  24.648   3.717
 7333W        W72813  33.579  25.473   4.351
 7334W        W72814   6.835  41.013  10.996
 7335W        W72815  40.389  23.002  13.810
 7336W        W72816  18.217   7.734  13.929
 7337W        W72817  10.816  19.657   1.232
 7338W        W72818  44.487   8.381   3.729
 7339W        W72819  41.534  18.244  12.957
 7340W        W72820  31.994  10.216   2.855
 7341W        W72821  19.208  21.028  12.546
 7342W        W72822  32.085  19.768  12.849
 7343W        W72823  24.709  41.452   3.146
 7344W        W72824  43.503  37.439  12.457
 7345W        W72825   3.785  15.796   0.856
 7346W        W72826  23.644   8.336  12.400
 7347W        W72827  33.941   1.356   4.760
 7348W        W72828   8.833  28.481  11.918
 7349W        W72829  13.651  28.025  12.883
 7350W        W72830  36.397   9.733  12.974
 7351W        W72831  17.199   9.178  14.866
 7352W        W72832  32.919  42.942  10.463
 7353W        W72833  31.562  25.079  11.401
 7354W        W72834  26.598  34.587   0.412
 7355W        W72835  36.424  40.429   1.862
 7356W        W72836  44.803  21.022  13.447
 7357W        W72837   4.222   1.315  12.060
 7358W        W72838  38.398  11.188  10.536
 7359W        W72839  20.740  27.644  14.915
 7360W        W72840  12.634  20.599  10.513
 7361W        W72841  42.424  28.101  13.434
 7362W        W72842  27.071   1.388   3.208
 7363W        W72843   2.452  25.108  14.389
 7364W        W72844  32.565   0.824   3.378
 7365W        W72845  17.162  37.445  13.397
 7366W        W72846  36.447  12.308  12.554
 7367W        W72847   9.671  40.356  11.963
 7368W        W72848  18.566  23.708   2.871
 7369W        W72849  33.432  32.518  13.996
 7370W        W72850  19.692  15.313  10.568
 7371W        W72851   3.460  41.812  14.362
 7372W        W72852  22.646  19.069  13.442
 7373W        W72853  23.686   0.811  12.420
 7374W        W72854  37.367   2.300  14.512
 7375W        W72855  12.171  17.709   3.177
 7376W        W72856  10.744   4.731  13.824
 7377W        W72857  13.610  35.513  13.329
 7378W        W72858   3.332  37.859  13.388
 7379W        W72859  11.325  11.756   2.181
 7380W        W72860  41.845  23.177   0.277
 7381W        W72861  20.163  36.843  13.850
 7382W        W72862   9.286  19.049  14.969
 7383W        W72863  10.362  40.326   0.243
 7384W        W72864  40.499  30.608   3.230
 7385W        W72865  32.549  22.091  14.840
 7386W        W72866  15.258  14.601  11.449
 7387W        W72867  21.050  36.355   1.851
 7388W        W72868  42.963  33.949   4.666
 7389W        W72869  20.037  36.367   2.222
 7390W        W72870  28.084  13.227  10.642
 7391W        W72871  11.236  33.116   0.448
 7392W        W72872  42.958  26.662  14.339
 7393W        W72873  39.450  19.177  13.990
 7394W        W72874  11.847   5.220  10.902
 7395W        W72875  38.327  12.235  13.017
 7396W        W72876  18.772  36.445  13.987
 7397W        W72877  22.065  21.548   0.258
 7398W        W72878  13.320  39.473   3.345
 7399W        W72879  20.188   1.750   2.675
 7400W        W72880  35.432  36.472   0.916
 7401W        W72881  21.102  28.950   1.432
 7402W        W72882  20.202  18.567  10.445
 7403W        W72883  36.041  28.540  12.498
 7404W        W72884   6.205  23.048   1.338
 7405W        W72885  24.018  15.125  11.572
 7406W        W72886  30.122  14.239   5.184
 7407W        W72887  25.650  26.588  10.493
 7408W        W72888  23.118  37.032  11.588
 7409W        W72889  17.745  44.884   3.671
 7410W        W72890   0.278  21.511  12.561
 7411W        W72891  13.747   9.695   3.810
 7412W        W72892  34.409   9.231  13.969
 7413W        W72893  32.955  44.768   3.794
 7414W        W72894  41.845  30.536   1.823
 7415W        W72895  23.056  18.099  10.916
 7416W        W72896   5.868  35.404  10.538
 7417W        W72897   3.775  18.544  10.900
 7418W        W72898  41.457  24.124  14.945
 7419W        W72899  19.705   7.381  12.380
 7420W        W72900  23.556  13.631  11.571
 7421W        W72901  34.003  19.624  14.820
 7422W        W72902  23.148  11.740   3.662
 7423W        W72903  21.666  30.593   3.796
 7424W        W72904  28.480  15.140  10.991
 7425W        W72905  37.910  21.538  13.319
 7426W        W72906  44.768  32.394   2.235
 7427W        W72907  19.678  44.802   0.368
 7428W        W72908   4.921  18.607   2.214
 7429W        W72909  32.435  40.894  13.337
 7430W        W72910  18.779   3.911  11.859
 7431W        W72911  36.065  35.489  14.890
 7432W        W72912  24.694   4.942  11.051
 7433W        W72913  19.227   3.252  14.365
 7434W        W72914   1.908  28.979  11.518
 7435W        W72915  30.511   6.364   4.252
 7436W        W72916  41.873  44.891  12.907
 7437W        W72917  20.633  38.359   1.917
 7438W        W72918  28.648  40.381  11.946
 7439W        W72919   9.185  41.036  11.373
 7440W        W72920  42.931  21.225   0.954
 7441W        W72921   6.844  17.073   4.812
 7442W        W72922  13.325  35.374  11.926
 7443W        W72923   0.849  11.225   4.190
 7444W        W72924  37.378   0.932   3.732
 7445W        W72925  43.860   9.185   0.386
 7446W        W72926  12.726  28.672   1.272
 7447W        W72927  16.661   8.243  12.500
 7448W        W72928  24.629  23.052   3.220
 7449W        W72929   3.911  20.173  10.958
 7450W        W72930  16.741  44.395  13.830
 7451W        W72931  20.167  35.080   4.798
 7452W        W72932  26.083  31.097   2.224
 7453W        W72933  12.330  36.906  12.502
 7454W        W72934  43.945  29.497   3.152
 7455W        W72935  26.149   6.844  11.085
 7456W        W72936  29.599   8.863   2.848
 7457W        W72937  23.174  35.593   3.278
 7458W        W72938   9.694  29.918  13.526
 7459W        W72939  30.134  38.839   2.224
 7460W        W72940  22.674  42.927   0.813
 7461W        W72941  32.534  21.746   2.869
 7462W        W72942  16.265  40.001   2.273
 7463W        W72943  11.331  29.545   2.757
 7464W        W72944  29.552  24.991   4.716
 7465W        W72945  42.494  28.643  13.431
 7466W        W72946  18.759  32.957  14.980
 7467W        W72947  14.287   9.730  12.069
 7468W        W72948   7.825  16.751   1.416
 7469W        W72949   0.291   5.389  10.577
 7470W        W72950  14.247  17.590   0.261
 7471W        W72951  30.622  18.641  13.912
 7472W        W72952  20.055   0.456  10.928
 7473W        W72953  20.735   5.771   3.265
 7474W        W72954   8.352  23.095  11.396
 7475W        W72955  23.073   4.706  12.823
 7476W        W72956  33.609  41.890  10.604
 7477W        W72957  40.383   0.312   2.399
 7478W        W72958  26.629  27.975   5.180
 7479W        W72959  17.689  32.563   1.400
 7480W        W72960  35.554  21.703  12.867
 7481W        W72961   8.397  19.215  11.883
 7482W        W72962   8.683  22.580   2.715
 7483W        W72963  10.181  11.684  13.352
 7484W        W72964  21.690  17.636   0.900
 7485W        W72965   2.819  38.986  12.906
 7486W        W72966  42.878  14.296   4.277
 7487W        W72967  32.004  32.501   0.434
 7488W        W72968  44.998  33.466   0.261
 7489W        W72969  40.015  34.560  13.909
 7490W        W72970   3.848   5.327  14.792
 7491W        W72971   1.902  14.639  13.064
 7492W        W72972  20.270   5.425  12.053
 7493W        W72973  19.617   0.411   2.781
 7494W        W72974  16.230  22.631   3.769
 7495W        W72975   8.888  41.868  10.433
 7496W        W72976  41.848  31.949   2.828
 7497W        W72977  41.335  29.926  11.997
 7498W        W72978  27.476   0.914   1.280
 7499W        W72979  19.657  17.624   0.314
 7500W        W72980  24.560  42.516   1.927
 7501W        W72981  22.605  32.932   3.226
 7502W        W72982  42.504   0.315  12.032
 7503W        W72983  35.017  39.315  13.916
 7504W        W72984  27.652   9.858  14.419
 7505W        W72985  34.052   6.323  12.845
 7506W        W72986  41.830  34.903  10.540
 7507W        W72987  31.024  36.375   2.900
 7508W        W72988  17.192   8.729   3.869
 7509W        W72989   9.173  26.466  11.868
 7510W        W72990  44.854  33.015  12.074
 7511W        W72991  13.629   2.728  13.334
 7512W        W72992  33.928  11.365  12.560
 7513W        W72993  23.146  17.252  11.097
 7514W        W72994   1.301  34.088   9.658
 7515W        W72995  34.507   8.692   9.950
 7516W        W72996  38.472   3.431   1.768
 7517W        W72997   3.916   6.904  13.526
 7518W        W72998  38.369  30.948  14.377
 7519W        W72999  18.687  15.581   1.900
 7520W        W73000  24.517  38.421   2.182
 7521W        W73001  31.482  28.512   2.279
 7522W        W73002  29.957   0.341   0.864
 7523W        W73003   1.947   4.708   0.459
 7524W        W73004  41.851   7.328   2.803
 7525W        W73005  34.040   0.916  11.889
 7526W        W73006  28.984  34.606   3.189
 7527W        W73007  20.606  28.075  10.985
 7528W        W73008   9.359  16.763  11.474
 7529W        W73009  10.849   7.226  12.376
 7530W        W73010  24.228  35.507  10.441
 7531W        W73011  21.030  30.430  14.505
 7532W        W73012  12.638  12.286   3.383
 7533W        W73013  28.075  11.766  13.417
 7534W        W73014  37.467   8.785   2.278
 7535W        W73015  30.456   3.883   3.344
 7536W        W73016  38.842  23.078  13.842
 7537W        W73017  27.668  20.743   2.674
 7538W        W73018  21.110  17.250  13.534
 7539W        W73019  17.292  19.066  14.989
 7540W        W73020   1.366  13.771  14.760
 7541W        W73021  20.184   9.354   0.742
 7542W        W73022  10.178   6.265   0.416
 7543W        W73023   9.246  27.684  11.605
 7544W        W73024  32.068   3.932   0.385
 7545W        W73025  10.674  14.619   2.295
 7546W        W73026  43.297   7.881  11.123
 7547W        W73027  32.485  30.458   1.908
 7548W        W73028  33.979   1.753   1.719
 7549W        W73029  44.471   0.832  14.304
 7550W        W73030  29.989  29.997   1.420
 7551W        W73031  13.637  11.847   4.681
 7552W        W73032  34.978  43.828  14.436
 7553W        W73033  27.015   1.385  13.401
 7554W        W73034   2.919  28.933   1.901
 7555W        W73035  42.291  38.854  12.955
 7556W        W73036  23.028  11.650  13.382
 7557W        W73037  15.118  40.883   0.305
 7558W        W73038   0.254  31.120   4.755
 7559W        W73039  27.460  25.576  12.451
 7560W        W73040  16.650  40.979  14.920
 7561W        W73041  16.202  33.074   2.881
 7562W        W73042  13.632  41.990   2.800
 7563W        W73043  35.495  27.059   0.263
 7564W        W73044   8.274  17.264   1.737
 7565W        W73045   3.918  12.150   0.394
 7566W        W73046   1.952  40.876  10.414
 7567W        W73047  16.640  22.630   3.237
 7568W        W73048  32.406  33.584  14.884
 7569W        W73049  17.119  25.169  10.628
 7570W        W73050  11.138  29.150  10.932
 7571W        W73051   2.313  33.386   2.866
 7572W        W73052  37.455  36.527  11.856
 7573W        W73053   4.880   8.667  14.928
 7574W        W73054  38.363  15.706  11.977
 7575W        W73055   4.239  38.064   1.321
 7576W        W73056   7.706   5.839  11.471
 7577W        W73057  42.786  36.572  11.592
 7578W        W73058   6.192   6.306   4.832
 7579W        W73059  31.411  25.078  10.442
 7580W        W73060  25.074  12.651  14.836
 7581W        W73061  43.832  42.292  11.105
 7582W        W73062  19.585  27.654   2.664
 7583W        W73063  25.188   2.392  10.590
 7584W        W73064  44.486  35.946  11.109
 7585W        W73065   0.960  33.037  12.053
 7586W        W73066  39.952  26.056   2.788
 7587W        W73067  40.515   6.374   3.155
 7588W        W73068  36.987  26.062  13.322
 7589W        W73069  17.097  18.147  13.033
 7590W        W73070  26.095   6.316   4.757
 7591W        W73071  17.660   3.409  12.349
 7592W        W73072  10.660   3.257   0.415
 7593W        W73073  15.676  17.279  12.931
 7594W        W73074  11.184  22.727  11.030
 7595W        W73075  12.161  23.643  12.972
 7596W        W73076  21.608  35.025  10.568
 7597W        W73077  39.486  35.376   1.411
 7598W        W73078  17.754  20.555   4.297
 7599W        W73079  19.609  22.613   3.674
 7600W        W73080  40.872  41.533  11.943
 7601W        W73081  23.606  25.199   1.855
 7602W        W73082   8.268  41.310   1.787
 7603W        W73083  16.166  10.291  14.292
 7604W        W73084  26.590  12.644  10.405
 7605W        W73085  30.908  27.141   0.911
 7606W        W73086  12.189  20.768  11.518
 7607W        W73087  21.163   7.349   3.848
 7608W        W73088  15.249  17.303  11.394
 7609W        W73089  23.687   4.748   4.747
 7610W        W73090  16.087  38.954  12.831
 7611W        W73091  33.064  29.476   3.677
 7612W        W73092   4.236  28.605  14.506
 7613W        W73093  31.445  15.268   4.251
 7614W        W73094  21.113  18.669   5.231
 7615W        W73095   1.900  27.514  13.998
 7616W        W73096  20.121  42.027  13.872
 7617W        W73097  35.874   0.384   0.837
 7618W        W73098  35.936  10.309  13.992
 7619W        W73099  37.396  25.547  11.456
 7620W        W73100  25.524  36.864  12.518
 7621W        W73101  28.494   4.322   1.437
 7622W        W73102   2.265  13.142  11.041
 7623W        W73103  25.057  26.028  12.358
 7624W        W73104  37.845   2.920  12.985
 7625W        W73105   3.772   9.395   1.446
 7626W        W73106  37.992  37.051  11.976
 7627W        W73107  42.437  37.048   4.176
 7628W        W73108  26.507  15.789   3.386
 7629W        W73109  39.456  33.094   3.237
 7630W        W73110  24.231  37.921   3.382
 7631W        W73111  38.030  13.655   2.888
 7632W        W73112  22.720  30.145  11.110
 7633W        W73113  19.156  23.188  11.924
 7634W        W73114  20.196  42.894   0.802
 7635W        W73115  27.446   7.838   3.678
 7636W        W73116   3.380  22.137   2.291
 7637W        W73117  43.847  32.560   3.245
 7638W        W73118  30.445  35.417   0.409
 7639W        W73119  17.135  42.459  13.400
 7640W        W73120  28.003  19.538  11.565
 7641W        W73121   9.800  10.366   4.753
 7642W        W73122  24.562  19.127  12.466
 7643W        W73123  23.676  18.713  13.390
 7644W        W73124  42.526  26.617  11.452
 7645W        W73125  30.576  30.979   0.949
 7646W        W73126  12.818  40.380  14.349
 7647W        W73127  30.108  14.807   2.777
 7648W        W73128  31.105  11.640  14.477
 7649W        W73129  10.687  15.713   2.664
 7650W        W73130  33.474  33.513  12.570
 7651W        W73131  28.949  27.054  14.456
 7652W        W73132  28.498  19.583  12.027
 7653W        W73133  31.981  26.062  12.512
 7654W        W73134  24.693  22.203  10.544
 7655W        W73135  29.997  26.109   1.387
 7656W        W73136  20.078   0.388  12.886
 7657W        W73137  27.022   3.779   0.454
 7658W        W73138  32.017  35.904   4.264
 7659W        W73139   2.415  14.307  13.043
 7660W        W73140  29.451   8.386  14.923
 7661W        W73141   5.396   1.318  11.453
 7662W        W73142  34.094  39.373   1.713
 7663W        W73143  14.724  22.054   3.289
 7664W        W73144   2.236  13.221   3.174
 7665W        W73145  36.990   0.326  14.335
 7666W        W73146   0.328   0.350   0.739
 7667W        W73147  22.163  39.972   3.856
 7668W        W73148  36.562  29.641  14.007
 7669W        W73149  16.710  41.798  10.413
 7670W        W73150  42.437  25.484   3.850
 7671W        W73151   2.854  28.158  14.019
 7672W        W73152  13.658  38.928   0.874
 7673W        W73153   9.823  12.618  14.949
 7674W        W73154   2.938  44.984   1.429
 7675W        W73155  30.024  24.225  12.958
 7676W        W73156  40.381  10.216   3.648
 7677W        W73157   0.419  17.304   0.791
 7678W        W73158  13.640  10.765   3.808
 7679W        W73159  31.598  11.215  10.445
 7680W        W73160  22.514  38.934   1.336
 7681W        W73161   2.730  19.180   1.883
 7682W        W73162  40.925  37.068   1.815
 7683W        W73163   4.323   6.329   3.682
 7684W        W73164  11.262  17.699  11.610
 7685W        W73165  25.999  12.836   3.359
 7686W        W73166  27.146  44.769   1.242
 7687W        W73167  35.081   3.743   4.696
 7688W        W73168  13.222  12.643   4.220
 7689W        W73169  18.672  28.048   1.721
 7690W        W73170  14.227   9.343   2.878
 7691W        W73171  43.440  23.726  11.597
 7692W        W73172  26.518  20.062  14.381
 7693W        W73173  25.672  21.560  10.462
 7694W        W73174  41.457   9.744   3.188
 7695W        W73175  38.548  43.413  10.642
 7696W        W73176  15.276  25.041  13.048
 7697W        W73177  12.829   1.452   1.835
 7698W        W73178  23.496   8.779  13.026
 7699W        W73179  16.615   1.288   1.841
 7700W        W73180  18.692   9.313  13.470
 7701W        W73181   9.349  14.698  14.016
 7702W        W73182  22.183  26.156   4.654
 7703W        W73183   8.699  37.568   0.821
 7704W        W73184   7.701   8.285   1.839
 7705W        W73185   1.977   6.808   2.831
 7706W        W73186  21.708  14.098   0.462
 7707W        W73187  16.664  24.216   1.359
 7708W        W73188  12.674   3.338  12.951
 7709W        W73189  11.212  33.589   3.314
 7710W        W73190  39.003  25.120  10.632
 7711W        W73191  25.046   3.940   5.236
 7712W        W73192  31.574  28.173   1.740
 7713W        W73193  21.564   2.939   1.291
 7714W        W73194  20.057  10.382   4.165
 7715W        W73195  17.777   8.729  11.973
 7716W        W73196  44.474  32.427  11.885
 7717W        W73197  27.642  37.086   1.782
 7718W        W73198   0.335  30.011   1.748
 7719W        W73199  36.515  26.475  11.540
 7720W        W73200  12.230  25.114   1.218
 7721W        W73201  30.111  35.972  12.374
 7722W        W73202  41.306  11.296  11.938
 7723W        W73203  19.696   3.894  13.038
 7724W        W73204  17.562   1.288   2.349
 7725W        W73205  33.123  12.806   3.339
 7726W        W73206   3.320  13.661  11.124
 7727W        W73207   4.870  22.099  10.029
 7728W        W73208  31.947  34.424   1.413
 7729W        W73209  26.958  13.739   1.870
 7730W        W73210  44.479   1.251  10.962
 7731W        W73211  42.961  13.122  13.499
 7732W        W73212   5.279   0.404   0.281
 7733W        W73213  39.534  11.679   3.674
 7734W        W73214  40.879   9.266  13.529
 7735W        W73215  11.170  15.283  12.489
 7736W        W73216  36.585   6.223   0.925
 7737W        W73217   6.868  19.758  12.558
 7738W        W73218  24.121  33.540  14.001
 7739W        W73219  33.458  33.053  13.325
 7740W        W73220  15.609   9.163  13.312
 7741W        W73221  20.727  36.519   2.399
 7742W        W73222  41.826  28.467  11.097
 7743W        W73223  31.459  40.355   2.385
 7744W        W73224   4.230   0.961   3.231
 7745W        W73225   2.741  24.494  11.033
 7746W        W73226  16.721   5.901  13.837
 7747W        W73227  15.213  13.229   2.387
 7748W        W73228   6.196   1.734  14.354
 7749W        W73229  43.414  16.800  11.025
 7750W        W73230  25.016  35.023   0.435
 7751W        W73231  31.085  35.590  12.390
 7752W        W73232  41.366  40.428   3.643
 7753W        W73233  26.533  39.963  12.059
 7754W        W73234  23.609  17.666  12.878
 7755W        W73235  28.592   4.783   3.217
 7756W        W73236  13.699  42.424   2.344
 7757W        W73237  42.910  11.748  11.080
 7758W        W73238  33.081  27.028  10.998
 7759W        W73239  14.110  25.154   4.680
 7760W        W73240  16.642  37.342   1.432
 7761W        W73241   9.209   5.259  12.472
 7762W        W73242  12.811  10.673  12.918
 7763W        W73243  10.327  31.469   3.749
 7764W        W73244  33.436   5.795  13.989
 7765W        W73245   0.425  33.477   2.770
 7766W        W73246  40.914  22.638  14.932
 7767W        W73247  35.056  25.596   0.460
 7768W        W73248  35.990  11.834   2.840
 7769W        W73249  40.948  44.356  11.569
 7770W        W73250  35.559  17.787  12.477
 7771W        W73251  25.527  23.676   3.795
 7772W        W73252  42.943  42.524  12.442
 7773W        W73253  34.996  22.053  10.527
 7774W        W73254  19.053  27.562   0.739
 7775W        W73255  22.588   9.311   0.451
 7776W        W73256  14.280  35.398   3.752
 7777W        W73257  38.375   5.746  13.365
 7778W        W73258  42.895  15.166   3.757
 7779W        W73259  28.451  23.014   3.684
 7780W        W73260  22.252  16.645  12.913
 7781W        W73261  16.299  10.224   1.279
 7782W        W73262  39.896  38.950  12.930
 7783W        W73263   6.396  31.041  11.508
 7784W        W73264  29.981  27.106   0.251
 7785W        W73265  42.506  33.509  10.623
 7786W        W73266  28.933  37.498  13.333
 7787W        W73267  10.722  26.045  11.395
 7788W        W73268  17.703  17.675  14.417
 7789W        W73269  25.052  42.016  13.511
 7790W        W73270  13.173  41.357   0.803
 7791W        W73271  38.067  13.351   4.735
 7792W        W73272  35.462  26.536   2.361
 7793W        W73273  16.102  40.889   4.251
 7794W        W73274  38.830   3.337   2.352
 7795W        W73275   7.183  36.863   0.381
 7796W        W73276   1.365  37.068  12.834
 7797W        W73277  27.042  36.914  11.040
 7798W        W73278   7.876   0.311  12.089
 7799W        W73279  35.963  13.699   0.845
 7800W        W73280  27.114  20.218   2.852
 7801W        W73281  34.473  17.067   2.244
 7802W        W73282  10.346  37.493  13.357
 7803W        W73283   3.417  40.988  12.005
 7804W        W73284  17.712  34.099   1.364
 7805W        W73285  20.641  19.757   2.339
 7806W        W73286   0.897  12.809   1.421
 7807W        W73287  20.061  35.410  14.292
 7808W        W73288  40.474  37.920   4.784
 7809W        W73289  20.539   5.384  13.946
 7810W        W73290  41.466  21.073  14.472
 7811W        W73291  26.152  16.203   2.381
 7812W        W73292  26.512  28.677  13.970
 7813W        W73293  33.071   4.352   0.380
 7814W        W73294  20.128  38.884  14.511
 7815W        W73295  34.384   7.731   3.183
 7816W        W73296  38.823  14.731  11.410
 7817W        W73297  18.086  28.124   0.871
 7818W        W73298  43.465  13.289   1.708
 7819W        W73299  44.774   0.798   0.295
 7820W        W73300   5.433  19.588  11.980
 7821W        W73301  34.405  43.465  10.952
 7822W        W73302   5.248  14.622   4.318
 7823W        W73303  42.331  30.580   3.867
 7824W        W73304  43.854  17.655  11.054
 7825W        W73305  33.126  10.234   2.324
 7826W        W73306  25.126  31.533  14.288
 7827W        W73307   6.777   5.824   2.872
 7828W        W73308   0.453   9.803  12.454
 7829W        W73309  40.480  21.106  12.467
 7830W        W73310   9.787  13.723   0.894
 7831W        W73311  42.421  11.226  13.053
 7832W        W73312  32.888  18.262  11.882
 7833W        W73313  36.420   6.348   3.748
 7834W        W73314  24.978   5.769   3.815
 7835W        W73315  38.064  22.240  13.985
 7836W        W73316  15.239  33.040  11.089
 7837W        W73317  31.147  36.061   2.188
 7838W        W73318  11.269  23.718   1.910
 7839W        W73319   5.711  38.857  13.893
 7840W        W73320  13.774  17.743  14.852
 7841W        W73321  44.867   1.927   2.681
 7842W        W73322  44.877   5.800  14.842
 7843W        W73323  30.489  31.941   2.179
 7844W        W73324   4.433  32.441   0.936
 7845W        W73325  17.785   9.755  13.517
 7846W        W73326  37.007   4.385  11.466
 7847W        W73327  26.600   8.806   2.701
 7848W        W73328  32.551  10.683   3.225
 7849W        W73329  43.794   0.939   1.290
 7850W        W73330  11.702  23.220   1.267
 7851W        W73331  31.104   9.190  11.959
 7852W        W73332   5.807  16.587  14.892
 7853W        W73333   9.212  22.238  11.598
 7854W        W73334  36.030  18.206   0.760
 7855W        W73335  23.533  40.546   4.121
 7856W        W73336  40.951  43.005   4.230
 7857W        W73337  13.250  12.677   3.327
 7858W        W73338   8.768  12.836  12.922
 7859W        W73339  25.696   7.774  13.954
 7860W        W73340  43.289  26.512   2.691
 7861W        W73341  20.632  11.338  13.496
 7862W        W73342  12.284  29.618  14.367
 7863W        W73343  37.870  17.697   1.853
 7864W        W73344  34.463  31.412   2.279
 7865W        W73345  30.619  17.156   3.216
 7866W        W73346   0.271   4.864  10.927
 7867W        W73347  20.197  12.845  14.896
 7868W        W73348  31.404   5.429  14.323
 7869W        W73349  44.898   8.311   4.332
 7870W        W73350   2.756  20.767   0.350
 7871W        W73351  20.118  27.006  14.497
 7872W        W73352  31.977   9.666  10.096
 7873W        W73353  42.502  16.266   4.260
 7874W        W73354  33.449  19.233   3.724
 7875W        W73355   3.333  34.010   1.381
 7876W        W73356  22.215   7.193   5.191
 7877W        W73357  39.019  14.820  11.951
 7878W        W73358  21.512  30.975  12.017
 7879W        W73359  20.162  40.817   4.667
 7880W        W73360  14.719  19.271   4.610
 7881W        W73361  43.405  15.277  11.417
 7882W        W73362  13.808  26.086  13.374
 7883W        W73363  10.350  18.689   4.758
 7884W        W73364  44.337  11.809  12.563
 7885W        W73365   1.420   4.349   1.841
 7886W        W73366  39.470  20.035   0.260
 7887W        W73367   0.356   3.269  11.918
 7888W        W73368  41.020   0.970   3.195
 7889W        W73369  29.665  40.313  13.940
 7890W        W73370  37.536  21.670  14.986
 7891W        W73371  40.451  37.017  13.483
 7892W        W73372  34.103  23.601   2.807
 7893W        W73373  26.993  27.477   2.699
 7894W        W73374  13.634  41.325   9.546
 7895W        W73375  34.594  41.522  10.469
 7896W        W73376  21.709  44.389   1.442
 7897W        W73377  20.141  26.511   1.270
 7898W        W73378  11.139  40.468   1.373
 7899W        W73379  40.991  17.646   2.419
 7900W        W73380  35.520  39.954  13.795
 7901W        W73381   5.347  22.521  10.606
 7902W        W73382   0.949   3.862  11.917
 7903W        W73383   9.829  13.170  14.379
 7904W        W73384  19.172   4.761  12.959
 7905W        W73385  35.902  29.102  14.826
 7906W        W73386   8.687  43.018   3.822
 7907W        W73387  40.999  15.319  14.308
 7908W        W73388  21.125  39.554  12.935
 7909W        W73389  33.495  29.437  11.429
 7910W        W73390  28.482  41.304   2.211
 7911W        W73391  16.138   6.331   1.882
 7912W        W73392  11.337   8.215   3.365
 7913W        W73393   3.726  21.747   2.404
 7914W        W73394  29.173  33.942   1.745
 7915W        W73395  26.077  12.159   1.751
 7916W        W73396  13.837  31.529   2.723
 7917W        W73397  15.777  12.854   5.263
 7918W        W73398  23.022  44.945   0.342
 7919W        W73399  31.115  30.526  10.938
 7920W        W73400   7.796  19.695  13.047
 7921W        W73401  17.136  23.092   3.164
 7922W        W73402  28.977  20.645  11.114
 7923W        W73403  31.570  25.066  14.814
 7924W        W73404  43.890  33.129  11.067
 7925W        W73405  20.661   4.222  10.942
 7926W        W73406   9.296  43.845  12.019
 7927W        W73407  31.485   6.757  14.294
 7928W        W73408   3.711   3.232   5.107
 7929W        W73409  27.140   4.248   1.271
 7930W        W73410  32.969  22.549  10.541
 7931W        W73411  34.984  41.293   3.345
 7932W        W73412  34.094  29.448   3.267
 7933W        W73413  44.438   9.844   3.218
 7934W        W73414  21.696  34.493   4.196
 7935W        W73415  11.330  19.154   4.313
 7936W        W73416  36.049  21.111  14.906
 7937W        W73417  21.031  21.103   5.220
 7938W        W73418   4.810  44.010   3.825
 7939W        W73419  15.613  10.334   0.340
 7940W        W73420   0.809  17.169  14.764
 7941W        W73421  19.061  20.746   1.417
 7942W        W73422  23.079  14.666  13.845
 7943W        W73423   5.387  42.432   3.695
 7944W        W73424  17.765  34.987   3.293
 7945W        W73425  39.055  42.028  12.029
 7946W        W73426  14.277   7.366   0.266
 7947W        W73427  24.688  34.928   1.250
 7948W        W73428  23.150  28.449   2.793
 7949W        W73429  11.839  22.590   3.720
 7950W        W73430  37.930  29.447  14.801
 7951W        W73431  19.709  23.225   3.795
 7952W        W73432  16.317   1.329  12.874
 7953W        W73433   9.168  17.705  12.576
 7954W        W73434  27.481  37.040   0.809
 7955W        W73435  29.107  26.573   2.841
 7956W        W73436   7.326  23.072  11.055
 7957W        W73437  39.376  40.798   4.724
 7958W        W73438  27.082  23.145   4.202
 7959W        W73439  42.394  35.375   2.757
 7960W        W73440  15.795  37.426  14.879
 7961W        W73441  21.108   6.730  13.952
 7962W        W73442  35.025   3.786   2.817
 7963W        W73443   3.803   4.284   4.150
 7964W        W73444  43.898  31.084  13.371
 7965W        W73445   5.421  25.703   2.323
 7966W        W73446   0.366   5.414   3.195
 7967W        W73447  20.724  39.939   3.681
 7968W        W73448   9.311   4.266   0.841
 7969W        W73449  10.719  44.289  11.426
 7970W        W73450  22.511  17.221   3.767
 7971W        W73451  15.595   8.321   4.330
 7972W        W73452  13.171  40.954  12.998
 7973W        W73453  34.604  14.327  13.981
 7974W        W73454  38.381  43.897  11.046
 7975W        W73455  34.508  14.200   3.724
 7976W        W73456  29.624  10.276  11.540
 7977W        W73457  41.790  23.494  14.449
 7978W        W73458  14.757  33.906   4.782
 7979W        W73459  14.626  36.008   0.471
 7980W        W73460  16.587  33.125  12.485
 7981W        W73461  15.224  18.602   0.415
 7982W        W73462  16.262   8.269   1.371
 7983W        W73463   1.938  12.850  14.336
 7984W        W73464  39.343  39.883   4.257
 7985W        W73465  27.566  15.807  11.022
 7986W        W73466  15.174   7.328  10.938
 7987W        W73467  12.814  39.913  13.921
 7988W        W73468  27.488  21.160   0.735
 7989W        W73469  18.663  38.855  14.909
 7990W        W73470  20.263   4.372  14.975
 7991W        W73471  44.369   0.485   4.312
 7992W        W73472  21.157  14.734  13.876
 7993W        W73473  32.997  41.477   3.672
 7994W        W73474  34.486  15.694   4.623
 7995W        W73475  27.472  32.557   2.286
 7996W        W73476  39.447  37.575  14.278
 7997W        W73477  22.672  18.608   2.275
 7998W        W73478  12.699  12.782   3.251
 7999W        W73479  12.168   3.398   5.223
 8000W        W73480  43.329  41.514   4.838
 8001W        W73481  28.119  23.511   1.883
 8002W        W73482  29.116  10.382   0.329
 8003W        W73483   0.385  40.393   0.358
 8004W        W73484  34.060  30.955  13.868
 8005W        W73485   2.780  34.541   3.303
 8006W        W73486  18.077   8.257  11.444
 8007W        W73487  43.437  17.781  11.875
 8008W        W73488  27.543  11.347   1.845
 8009W        W73489  36.543  39.371   4.234
 8010W        W73490  22.196  17.681  12.494
 8011W        W73491   3.285  31.562  10.141
 8012W        W73492   8.727  25.100  10.955
 8013W        W73493  23.085  15.625   4.690
 8014W        W73494  40.847   6.793   2.798
 8015W        W73495  40.329  29.097   1.347
 8016W        W73496  17.791  15.698   3.642
 8017W        W73497  15.740  13.276  11.128
 8018W        W73498   2.864  36.424   2.320
 8019W        W73499  17.578  37.939  13.988
 8020W        W73500  14.678  22.245  12.392
 8021W        W73501   4.915  43.807  11.936
 8022W        W73502  22.039  24.065   2.180
 8023W        W73503   3.339   6.195  11.601
 8024W        W73504  13.782  24.071   2.797
 8025W        W73505   0.271  39.902  10.561
 8026W        W73506  26.056  23.588   0.250
 8027W        W73507   2.412  44.790   1.695
 8028W        W73508  35.024   7.745   0.891
 8029W        W73509  28.935  10.339  13.992
 8030W        W73510  33.020   0.835  10.610
 8031W        W73511  17.715  35.887  12.393
 8032W        W73512   8.789  24.158  14.023
 8033W        W73513  39.906  42.002  14.894
 8034W        W73514  38.997   1.239   2.754
 8035W        W73515  37.557  40.812   4.135
 8036W        W73516  37.521   0.858  13.019
 8037W        W73517  13.818  19.649   4.330
 8038W        W73518  36.028  37.566   3.738
 8039W        W73519  16.812  17.270   3.657
 8040W        W73520   6.775  16.619   4.818
 8041W        W73521   5.255   1.836  10.625
 8042W        W73522  16.752   1.259  12.079
 8043W        W73523  37.412   2.867   3.226
 8044W        W73524  29.048  34.389   2.220
 8045W        W73525  17.773   4.713  13.904
 8046W        W73526  22.542  34.914  13.015
 8047W        W73527  26.071  21.233  13.524
 8048W        W73528  36.851  26.191  12.854
 8049W        W73529  21.541  25.705   1.213
 8050W        W73530  18.087  22.091   4.701
 8051W        W73531  22.105  17.685  13.003
 8052W        W73532  44.911  31.029   3.805
 8053W        W73533  35.441  12.711   1.234
 8054W        W73534  25.473   3.943   4.231
 8055W        W73535  13.751  27.627  14.514
 8056W        W73536  28.084  20.067  14.807
 8057W        W73537  42.509  25.488   2.298
 8058W        W73538   2.772  11.701   4.286
 8059W        W73539   5.327  40.802  12.415
 8060W        W73540  37.401   3.953  11.123
 8061W        W73541  31.028  36.952  13.368
 8062W        W73542  38.851   2.757   3.667
 8063W        W73543  29.133  27.517  12.958
 8064W        W73544  42.333  30.079  13.813
 8065W        W73545   3.724  30.952  13.006
 8066W        W73546  35.106   4.762  11.044
 8067W        W73547  20.037  12.217   4.752
 8068W        W73548  42.969   2.884   3.768
 8069W        W73549  21.063  14.114  11.006
 8070W        W73550  24.208   2.388  11.579
 8071W        W73551  16.694  33.539  14.926
 8072W        W73552  10.703  37.473   3.698
 8073W        W73553  42.432  33.983   1.857
 8074W        W73554  27.158  19.231  13.061
 8075W        W73555  19.736  29.976   3.319
 8076W        W73556   4.411  44.906   0.849
 8077W        W73557  43.804  19.546   4.202
 8078W        W73558   8.866  16.178  14.793
 8079W        W73559  11.760  27.600  11.080
 8080W        W73560  38.517  26.537  13.466
 8081W        W73561  27.564  19.261  10.976
 8082W        W73562  13.831   3.277   3.843
 8083W        W73563  32.094  25.183   0.369
 8084W        W73564  22.038   5.313  12.348
 8085W        W73565  12.176  17.242   1.377
 8086W        W73566   9.710   8.260   0.428
 8087W        W73567  21.617  29.452   3.358
 8088W        W73568  33.049  18.055   2.291
 8089W        W73569  35.086  19.615   0.867
 8090W        W73570  17.217  10.204   1.292
 8091W        W73571  33.924   2.250  13.346
 8092W        W73572  29.956  13.288  13.354
 8093W        W73573  19.244  17.275   4.636
 8094W        W73574   1.905   4.220  12.559
 8095W        W73575  41.519  29.472   2.401
 8096W        W73576  39.831   5.713   3.704
 8097W        W73577   4.844   9.711  10.581
 8098W        W73578   9.867  16.171   0.840
 8099W        W73579   1.860  43.486  13.996
 8100W        W73580   8.209  37.435  11.007
 8101W        W73581  39.061  28.930  12.916
 8102W        W73582  19.553  17.778   0.927
 8103W        W73583   4.415  27.983   4.225
 8104W        W73584  34.573   9.765  11.603
 8105W        W73585  33.383  26.613   3.767
 8106W        W73586  30.918   6.775  12.880
 8107W        W73587  14.643  40.885  11.413
 8108W        W73588  29.026  25.617  13.382
 8109W        W73589   3.427  41.441   4.734
 8110W        W73590   4.873  25.034  14.352
 8111W        W73591  41.940  38.328   1.324
 8112W        W73592  30.533   1.401  12.079
 8113W        W73593   9.301   9.352  10.450
 8114W        W73594  26.481   2.891  11.115
 8115W        W73595  26.590  35.373  12.353
 8116W        W73596  14.153   2.283   3.288
 8117W        W73597  33.386  10.288  14.835
 8118W        W73598  24.156  12.773   3.635
 8119W        W73599  42.912   8.900   2.408
 8120W        W73600  44.293  37.425   3.288
 8121W        W73601  38.894   9.256  11.090
 8122W        W73602  12.345  44.769  11.043
 8123W        W73603   2.723  15.289   1.226
 8124W        W73604   0.431  15.280   1.240
 8125W        W73605  44.263  35.015  11.519
 8126W        W73606  23.101   1.262   4.134
 8127W        W73607  20.091   1.872  13.898
 8128W        W73608  12.161  38.341   1.788
 8129W        W73609   6.336  32.486   2.225
 8130W        W73610  22.083   8.316   1.340
 8131W        W73611  19.603  19.059  12.562
 8132W        W73612  36.398  11.323  14.484
 8133W        W73613  43.915  20.193   3.660
 8134W        W73614  42.979  15.580  14.506
 8135W        W73615  26.164  37.364  14.499
 8136W        W73616   6.763   4.728   2.765
 8137W        W73617  42.952   8.278   1.421
 8138W        W73618  27.984  18.127   0.852
 8139W        W73619  39.832  21.714   0.292
 8140W        W73620   8.197  36.977   0.946
 8141W        W73621   2.315  17.615   2.191
 8142W        W73622  31.081  29.959  12.506
 8143W        W73623  42.406  35.918  13.954
 8144W        W73624  13.117  36.562   0.888
 8145W        W73625  11.855  24.627   3.752
 8146W        W73626   0.363  29.664  13.865
 8147W        W73627  33.381   8.783   4.811
 8148W        W73628  25.694   7.249   0.386
 8149W        W73629  23.704  43.996   3.217
 8150W        W73630  33.119   6.730  10.547
 8151W        W73631  31.615  11.297   1.695
 8152W        W73632  39.343  26.157  11.927
 8153W        W73633  10.253   7.674  12.420
 8154W        W73634  18.151  10.265   2.337
 8155W        W73635  24.978  28.445  10.538
 8156W        W73636  39.444   0.363  14.965
 8157W        W73637  21.098   7.328  14.786
 8158W        W73638  36.486  23.574   1.780
 8159W        W73639   5.687  17.138  14.347
 8160W        W73640  33.879  23.221   0.949
 8161W        W73641  37.433  34.940   1.878
 8162W        W73642   9.765   1.265  10.419
 8163W        W73643   2.344   5.922  14.890
 8164W        W73644  16.714  42.805  11.891
 8165W        W73645   3.216  18.200   4.710
 8166W        W73646  23.559  25.128   0.255
 8167W        W73647  34.974  35.423   0.319
 8168W        W73648  30.538  38.567   3.345
 8169W        W73649  33.598  38.360  12.846
 8170W        W73650  39.523  10.245   0.860
 8171W        W73651  17.736  38.010   2.213
 8172W        W73652  34.425  18.651  14.761
 8173W        W73653   3.276  27.137  12.903
 8174W        W73654  26.652  31.578   1.440
 8175W        W73655  13.248  28.032  14.482
 8176W        W73656  19.767  33.077  12.863
 8177W        W73657  12.690  14.170  13.033
 8178W        W73658  11.264  44.993  11.373
 8179W        W73659  10.831  21.028   4.315
 8180W        W73660   0.338  20.742   3.187
 8181W        W73661  22.158  28.993  14.314
 8182W        W73662  34.937  20.695  12.480
 8183W        W73663  27.005   9.840   4.318
 8184W        W73664  38.935  40.417   2.203
 8185W        W73665  14.597  44.824   2.303
 8186W        W73666  34.999  43.783   0.358
 8187W        W73667   0.761  27.690   2.220
 8188W        W73668  38.391  25.666   2.326
 8189W        W73669  15.294  36.402   2.340
 8190W        W73670  40.974   6.235  14.385
 8191W        W73671  19.568  37.533   2.215
 8192W        W73672   5.827  39.555   0.891
 8193W        W73673  37.980   4.728   4.818
 8194W        W73674  40.446  42.011  13.944
 8195W        W73675  26.118  43.906  12.985
 8196W        W73676  21.726  12.148   3.672
 8197W        W73677  17.270  29.517  14.875
 8198W        W73678  12.358  37.858  13.991
 8199W        W73679  31.594  18.272  11.986
 8200W        W73680  24.014  24.182  13.344
 8201W        W73681  33.621  22.576  12.004
 8202W        W73682   8.380  15.785  14.817
 8203W        W73683   9.776   6.753  10.577
 8204W        W73684  38.848  18.679   1.446
 8205W        W73685   0.781  23.532   2.677
 8206W        W73686  18.627   6.278  12.457
 8207W        W73687  33.116  31.972  14.975
 8208W        W73688  30.624  34.518  12.448
 8209W        W73689   8.223  15.707  13.802
 8210W        W73690  13.729  30.030   0.466
 8211W        W73691  22.501  28.533   0.934
 8212W        W73692  42.988  16.771  12.528
 8213W        W73693  24.551  10.236   0.883
 8214W        W73694  39.908  40.427   0.809
 8215W        W73695  19.611   1.862   0.782
 8216W        W73696   4.857  41.313  11.008
 8217W        W73697   4.893  21.623  12.387
 8218W        W73698  15.702  25.482   1.885
 8219W        W73699  29.639  31.529  11.511
 8220W        W73700  15.135  43.831  13.312
 8221W        W73701  39.977  36.036   0.297
 8222W        W73702   0.288  40.004  11.070
 8223W        W73703  27.539  39.981   2.749
 8224W        W73704  12.149  25.056  11.907
 8225W        W73705   6.800  30.953   1.351
 8226W        W73706  28.994   2.813  10.568
 8227W        W73707  31.027   7.353   2.667
 8228W        W73708  30.487  30.530  14.403
 8229W        W73709  22.501  32.551  11.109
 8230W        W73710  26.079  22.125   0.281
 8231W        W73711   6.685  40.390   3.314
 8232W        W73712  32.119  28.115   1.903
 8233W        W73713  14.763  23.642   2.810
 8234W        W73714  13.771   8.695  11.085
 8235W        W73715  35.408  23.008   4.693
 8236W        W73716  22.638  38.387   2.281
 8237W        W73717   2.925  12.737   3.757
 8238W        W73718  41.995  35.534  13.309
 8239W        W73719  43.855  14.096   2.387
 8240W        W73720   1.870   8.737  13.338
 8241W        W73721  23.608  35.359  13.517
 8242W        W73722   8.337  16.272  10.573
 8243W        W73723   1.974  41.461  10.456
 8244W        W73724  24.047  13.714   3.268
 8245W        W73725  43.876   0.936  10.420
 8246W        W73726  32.054  15.769   3.153
 8247W        W73727   3.352   2.335  14.768
 8248W        W73728  35.483  42.381  10.471
 8249W        W73729  16.735  32.954   4.294
 8250W        W73730   8.868  38.456  12.005
 8251W        W73731  11.716  28.004   2.384
 8252W        W73732  18.673  17.307  10.408
 8253W        W73733   7.326  17.743   4.809
 8254W        W73734  27.083  31.146   2.828
 8255W        W73735  36.846  29.075   0.804
 8256W        W73736  21.682  31.520   2.334
 8257W        W73737  33.560  28.474  12.428
 8258W        W73738  22.215  36.069  13.909
 8259W        W73739  30.415  21.069  10.525
 8260W        W73740   6.265  16.101   2.697
 8261W        W73741  24.521  24.001   0.780
 8262W        W73742   5.248  14.209  11.586
 8263W        W73743   1.953  36.029   3.150
 8264W        W73744  37.516   9.177   5.241
 8265W        W73745  21.056   9.170   9.996
 8266W        W73746  43.884  14.109   4.244
 8267W        W73747  16.163  30.520  13.918
 8268W        W73748  30.107   2.860   0.890
 8269W        W73749  25.037  19.713   0.744
 8270W        W73750  12.214  41.928  12.519
 8271W        W73751  31.947  38.393  14.347
 8272W        W73752  40.371  42.815   4.117
 8273W        W73753  30.533  18.756  12.478
 8274W        W73754   9.185  28.168   3.752
 8275W        W73755  26.635   3.346   2.362
 8276W        W73756  32.910  25.593  14.966
 8277W        W73757  35.951  18.665   4.138
 8278W        W73758  38.459   4.293   2.392
 8279W        W73759  13.766  39.544   2.262
 8280W        W73760  15.283  10.669  12.503
 8281W        W73761  11.167   2.812  13.397
 8282W        W73762  23.692  20.538   4.165
 8283W        W73763  11.199  27.106  10.442
 8284W        W73764  19.240  16.658   4.736
 8285W        W73765   0.388  33.445   3.701
 8286W        W73766   8.872  13.188   4.668
 8287W        W73767  29.106  27.173   2.221
 8288W        W73768  26.072  41.873   1.289
 8289W        W73769  29.016  43.330   1.222
 8290W        W73770   8.164  22.563  12.955
 8291W        W73771   2.827  22.208   2.675
 8292W        W73772   1.397  23.044  12.521
 8293W        W73773  10.697   9.296   4.651
 8294W        W73774  24.189   2.795   4.197
 8295W        W73775  10.857  10.263  14.785
 8296W        W73776  27.453  21.755   4.287
 8297W        W73777   6.821  33.612  13.519
 8298W        W73778  13.774  23.059  13.471
 8299W        W73779  15.749  33.959   3.859
 8300W        W73780  19.195  29.528   1.256
 8301W        W73781   7.705   2.287  14.975
 8302W        W73782  39.952  38.023   3.769
 8303W        W73783  35.090  25.028   3.709
 8304W        W73784   6.793  25.653   0.727
 8305W        W73785  40.868  18.112  12.961
 8306W        W73786  32.421  13.261  10.943
 8307W        W73787  35.501  30.618  10.962
 8308W        W73788  26.066  32.945   2.755
 8309W        W73789  13.754  41.535   9.968
 8310W        W73790   8.702  22.083  13.309
 8311W        W73791  33.400  22.641   0.458
 8312W        W73792  10.375   5.826  10.431
 8313W        W73793  36.539  41.002  11.863
 8314W        W73794   3.874  21.162  14.029
 8315W        W73795  18.742  29.485   3.864
 8316W        W73796  12.181   3.802   1.769
 8317W        W73797  17.188  23.558   4.780
 8318W        W73798  41.431  26.084   2.672
 8319W        W73799  26.603  37.889  13.349
 8320W        W73800   1.819  35.008   2.854
 8321W        W73801   0.273  21.560   2.817
 8322W        W73802  15.087  36.938   3.374
 8323W        W73803  39.832   0.368   4.325
 8324W        W73804  16.729  11.257   0.834
 8325W        W73805  41.892  20.767  12.917
 8326W        W73806  29.603  22.524   9.929
 8327W        W73807  15.094  21.604  14.382
 8328W        W73808  21.697  22.566  13.347
 8329W        W73809  22.102  23.511   2.237
 8330W        W73810  29.609   8.878  11.032
 8331W        W73811   8.784  10.259   4.643
 8332W        W73812  43.335  18.568   1.218
 8333W        W73813  34.076   4.792  13.497
 8334W        W73814  41.800  17.744   3.633
 8335W        W73815   2.823  26.550   0.411
 8336W        W73816   3.295  39.486   2.369
 8337W        W73817  13.805   8.333   1.853
 8338W        W73818   0.452  29.014  11.444
 8339W        W73819  37.442   3.328  14.402
 8340W        W73820  11.247  14.111  10.440
 8341W        W73821  26.503  23.130   2.305
 8342W        W73822  25.686  10.275   1.789
 8343W        W73823  34.032   2.432   4.261
 8344W        W73824  19.562  35.946  13.524
 8345W        W73825  23.592  10.693  13.969
 8346W        W73826   3.268  41.812  13.002
 8347W        W73827  40.503  23.212   1.806
 8348W        W73828  27.137   9.698  14.017
 8349W        W73829  27.978   2.834  14.460
 8350W        W73830  43.420   6.860   3.791
 8351W        W73831  34.980  32.539  11.111
 8352W        W73832  39.523   0.489   1.821
 8353W        W73833  37.455  15.637   5.305
 8354W        W73834  40.910  36.427  14.889
 8355W        W73835  36.466  30.474   9.982
 8356W        W73836  39.979  14.588   4.691
 8357W        W73837  39.451  30.614  10.928
 8358W        W73838  12.856   0.322  12.428
 8359W        W73839  14.723  43.417  13.825
 8360W        W73840  20.260  40.847   1.785
 8361W        W73841  17.207   1.760   4.231
 8362W        W73842  16.657  33.475   0.255
 8363W        W73843  40.419  44.270  12.506
 8364W        W73844  27.082  15.781  11.033
 8365W        W73845   0.447  27.040   0.877
 8366W        W73846  12.733  35.476  12.824
 8367W        W73847  23.080  19.548   2.411
 8368W        W73848   4.738  15.794   4.334
 8369W        W73849  10.246  34.532   3.734
 8370W        W73850  23.704   7.864  12.471
 8371W        W73851  30.636   1.416  12.486
 8372W        W73852  18.123  41.475  12.970
 8373W        W73853  11.814  37.495  11.011
 8374W        W73854  29.637  21.626  10.487
 8375W        W73855  15.310   7.808  12.346
 8376W        W73856   7.196   1.790  14.444
 8377W        W73857  41.956  17.067  11.462
 8378W        W73858   2.280  32.915  14.801
 8379W        W73859  18.734  24.057   1.436
 8380W        W73860  42.419  15.779  11.482
 8381W        W73861  22.688  34.987   1.389
 8382W        W73862  25.506  42.364   1.814
 8383W        W73863  28.443  14.306   3.745
 8384W        W73864  31.453  24.141   2.862
 8385W        W73865  27.043  21.538  11.999
 8386W        W73866   9.801  23.645  13.801
 8387W        W73867  33.931  17.171  13.461
 8388W        W73868  28.059  42.018   4.656
 8389W        W73869  33.552  42.969  10.078
 8390W        W73870  22.154  19.580   0.751
 8391W        W73871  44.790  42.997   3.228
 8392W        W73872   2.763  10.647  13.873
 8393W        W73873   5.378  23.178   4.601
 8394W        W73874  34.934  43.772  11.534
 8395W        W73875  36.028  14.597  13.970
 8396W        W73876   6.257  31.618   2.207
 8397W        W73877  12.656   4.893  12.426
 8398W        W73878   4.853   1.308   1.758
 8399W        W73879  42.382  37.492   4.818
 8400W        W73880  33.955   5.738  13.838
 8401W        W73881   0.938  42.411   0.730
 8402W        W73882  43.785  20.750  14.480
 8403W        W73883  17.171  30.627  11.002
 8404W        W73884  38.571  15.629  10.482
 8405W        W73885  31.414   8.285   1.776
 8406W        W73886  34.911  39.392  10.634
 8407W        W73887  42.320  31.416  10.507
 8408W        W73888   5.797  31.027   1.791
 8409W        W73889   5.700  34.369   0.894
 8410W        W73890  35.985  28.072  14.475
 8411W        W73891  36.048  35.935  14.879
 8412W        W73892  39.946   1.828  14.472
 8413W        W73893  19.549   9.323   0.833
 8414W        W73894  25.971  37.835   1.327
 8415W        W73895  44.492  39.827   4.799
 8416W        W73896  32.893  11.360  11.128
 8417W        W73897  14.139  40.041  13.021
 8418W        W73898   4.346   1.294   1.797
 8419W        W73899  43.849   5.923  11.970
 8420W        W73900  17.715  25.586   1.860
 8421W        W73901  36.397  26.084   1.858
 8422W        W73902  18.783  15.148   0.751
 8423W        W73903   5.216  35.440  11.515
 8424W        W73904   1.965   0.376  14.877
 8425W        W73905  26.589  40.946  10.470
 8426W        W73906  21.656  14.148  13.501
 8427W        W73907  23.643  19.136   0.256
 8428W        W73908  16.147   9.305   2.885
 8429W        W73909  21.102   1.372  12.851
 8430W        W73910  25.541  37.073   3.773
 8431W        W73911  14.284  28.539  14.950
 8432W        W73912   0.917   1.838  10.061
 8433W        W73913  29.615  44.420   0.274
 8434W        W73914   7.738  29.069   2.831
 8435W        W73915  31.137  14.704  13.523
 8436W        W73916  44.329   9.795   0.752
 8437W        W73917  24.547  25.644  12.969
 8438W        W73918  20.729  34.968  11.005
 8439W        W73919  15.254  18.582   4.345
 8440W        W73920  39.387  43.941   0.418
 8441W        W73921   4.328  20.666   2.719
 8442W        W73922  15.272  39.006  13.848
 8443W        W73923  14.268   2.806  14.383
 8444W        W73924   8.232  28.549   3.748
 8445W        W73925  10.753  44.330   4.196
 8446W        W73926  27.674   1.406  11.406
 8447W        W73927  33.988  21.167  12.906
 8448W        W73928  32.624  26.070   0.363
 8449W        W73929  17.670  36.922   0.966
 8450W        W73930  31.458  25.548   1.315
 8451W        W73931  20.567  38.408   2.291
 8452W        W73932  10.701  31.037   1.731
 8453W        W73933   6.769  44.340  13.970
 8454W        W73934  25.198  37.497   2.252
 8455W        W73935  44.945  40.839  13.034
 8456W        W73936  42.956  27.003   2.363
 8457W        W73937  33.054  16.731   1.746
 8458W        W73938  29.143  30.093  14.366
 8459W        W73939  36.024  40.501  12.977
 8460W        W73940  23.219   0.799   2.893
 8461W        W73941  25.139  31.415   0.830
 8462W        W73942   0.387  38.522  12.997
 8463W        W73943  10.752   1.749   1.371
 8464W        W73944  12.832  17.639  11.001
 8465W        W73945   3.786  15.202  12.559
 8466W        W73946  23.240  13.161   1.256
 8467W        W73947  41.386   7.871  10.003
 8468W        W73948  38.985   0.911   1.902
 8469W        W73949  43.474  33.400  13.504
 8470W        W73950  39.045   6.761   4.787
 8471W        W73951  37.421  22.073  12.496
 8472W        W73952  32.457  28.088  11.502
 8473W        W73953  10.852  40.328   3.244
 8474W        W73954   5.357  36.490  14.820
 8475W        W73955  37.574  14.250   0.747
 8476W        W73956  15.291  10.717  14.480
 8477W        W73957  21.044  22.086  12.992
 8478W        W73958  23.191  14.729   2.341
 8479W        W73959  31.928  35.992   4.704
 8480W        W73960   5.705   9.778  11.397
 8481W        W73961  32.631  19.642  10.641
 8482W        W73962   1.767  28.510   0.431
 8483W        W73963  44.320   6.415   2.273
 8484W        W73964   1.328  10.849  12.894
 8485W        W73965  42.441  29.019  14.946
 8486W        W73966  32.012  24.112  10.588
 8487W        W73967  21.735  13.638   1.783
 8488W        W73968   8.217   5.738  11.422
 8489W        W73969  18.711  38.461  14.765
 8490W        W73970  44.828  27.142  14.964
 8491W        W73971  26.645   9.690   4.835
 8492W        W73972  24.036   0.956   1.739
 8493W        W73973  44.964  13.817  10.946
 8494W        W73974  18.150   6.252  14.917
 8495W        W73975   6.394  36.492  12.341
 8496W        W73976   1.812  34.980  13.032
 8497W        W73977   0.949  13.718  12.343
 8498W        W73978  25.209  15.222   0.403
 8499W        W73979  36.409  13.710  10.999
 8500W        W73980   0.282  42.385   1.373
 8501W        W73981  42.289  41.869   0.888
 8502W        W73982  26.971   7.815  10.916
 8503W        W73983  12.338  36.983  14.454
 8504W        W73984   1.895  35.563  14.380
 8505W        W73985  27.149   1.328  12.510
 8506W        W73986   2.432  24.549  12.018
 8507W        W73987  29.602   7.357  13.012
 8508W        W73988  20.066  30.057   1.296
 8509W        W73989  31.436  39.025   5.221
 8510W        W73990  29.949  35.993  11.065
 8511W        W73991  21.576  17.627  10.913
 8512W        W73992   6.904  35.476   3.228
 8513W        W73993   9.209   6.774   4.122
 8514W        W73994  26.203   7.345   1.879
 8515W        W73995  10.670  35.056   3.222
 8516W        W73996  22.738  34.979  14.903
 8517W        W73997   5.234   1.372   4.786
 8518W        W73998  14.624  24.983   3.808
 8519W        W73999  40.403  35.379   3.278
 8520W        W74000   9.275   1.970   2.368
 8521W        W74001  39.403  39.882  12.916
 8522W        W74002  19.653   6.219   3.249
 8523W        W74003   0.762  38.446   0.461
 8524W        W74004  18.124   2.879   0.842
 8525W        W74005  29.157  16.308  10.627
 8526W        W74006  10.204  39.011   3.802
 8527W        W74007   5.840  10.265   4.792
 8528W        W74008   0.866  35.492   1.750
 8529W        W74009  17.588  43.467  11.897
 8530W        W74010  41.339   1.326  10.588
 8531W        W74011  37.924   9.770   0.865
 8532W        W74012  27.530  37.030  14.974
 8533W        W74013  14.264  40.512  13.022
 8534W        W74014  40.922   0.907   3.692
 8535W        W74015  36.385  16.245   2.725
 8536W        W74016  41.926  19.650   2.873
 8537W        W74017  21.213   0.898   3.751
 8538W        W74018  31.015   9.867  11.480
 8539W        W74019  12.776   7.841   3.776
 8540W        W74020  18.617  10.266  12.019
 8541W        W74021  37.938  24.584  11.392
 8542W        W74022  20.546  16.664   2.415
 8543W        W74023  12.668   3.718   3.711
 8544W        W74024  30.458  41.422   0.875
 8545W        W74025  23.055  22.588   1.290
 8546W        W74026  25.600  18.772   1.792
 8547W        W74027   3.738  42.779  13.463
 8548W        W74028   5.700  11.340  13.054
 8549W        W74029  12.677  32.920  13.504
 8550W        W74030  39.847   1.259   4.116
 8551W        W74031  43.314  30.044  11.905
 8552W        W74032  14.829  27.594  11.925
 8553W        W74033  29.005  14.745  10.486
 8554W        W74034  19.778   6.186   0.867
 8555W        W74035   0.369   2.902  13.974
 8556W        W74036   8.811  32.939   3.644
 8557W        W74037   1.451  30.643   4.237
 8558W        W74038   2.308  11.788   0.943
 8559W        W74039  37.985   7.325  11.100
 8560W        W74040  43.916  40.919  13.822
 8561W        W74041  28.666  35.971   1.852
 8562W        W74042   1.733  13.125   0.344
 8563W        W74043  20.527  17.306  14.881
 8564W        W74044  17.075  41.950   0.476
 8565W        W74045   3.753  17.289  12.445
 8566W        W74046  37.088   4.226   3.198
 8567W        W74047  41.981  20.117  13.791
 8568W        W74048   1.756  24.563   1.803
 8569W        W74049  17.572  10.823  12.370
 8570W        W74050   2.898   2.344   3.291
 8571W        W74051  36.081   4.929   0.821
 8572W        W74052  28.185  10.328   9.920
 8573W        W74053  15.131  28.541  13.391
 8574W        W74054  13.646  39.450   3.844
 8575W        W74055  40.314  21.699   3.630
 8576W        W74056  24.002   7.209   3.373
 8577W        W74057  32.979  29.984  11.928
 8578W        W74058  10.335  25.178   0.748
 8579W        W74059  33.080  22.107  13.888
 8580W        W74060  14.115  30.991   2.878
 8581W        W74061  31.094  18.702   2.682
 8582W        W74062  22.679  10.687   3.234
 8583W        W74063  17.581  21.574   1.925
 8584W        W74064  19.181  42.931  13.880
 8585W        W74065  34.531  19.683   0.465
 8586W        W74066  13.603  26.596   3.191
 8587W        W74067  37.879  43.826  13.811
 8588W        W74068   8.160  41.925   1.217
 8589W        W74069  28.073  17.602   4.626
 8590W        W74070  17.677  13.279  13.348
 8591W        W74071  32.454   6.424  11.118
 8592W        W74072  31.580  34.893   1.723
 8593W        W74073  40.317  21.554  11.543
 8594W        W74074   3.786  27.516  10.953
 8595W        W74075   5.755  30.950  14.293
 8596W        W74076  21.139  19.743   3.244
 8597W        W74077  41.389  13.164   0.827
 8598W        W74078  42.517  18.261   5.159
 8599W        W74079  43.326  14.160   0.938
 8600W        W74080  30.944  42.799  13.792
 8601W        W74081  30.556  21.515   2.381
 8602W        W74082  16.745  42.293  14.954
 8603W        W74083   6.204  21.596   4.127
 8604W        W74084  15.650  12.302   0.423
 8605W        W74085   3.888  42.934   0.885
 8606W        W74086  22.663  40.882  14.848
 8607W        W74087   3.317  11.804   0.837
 8608W        W74088   1.848  38.052   1.312
 8609W        W74089  26.146  29.923  14.514
 8610W        W74090  16.073   9.708   3.329
 8611W        W74091  12.304  34.119  13.874
 8612W        W74092  10.213  29.984   1.437
 8613W        W74093  18.184   1.309   4.325
 8614W        W74094   3.929  18.737   1.815
 8615W        W74095  13.317   9.268   1.389
 8616W        W74096  37.481  11.706  14.319
 8617W        W74097   6.750  29.115  12.982
 8618W        W74098  40.908  17.133  11.088
 8619W        W74099  12.856  19.217  14.810
 8620W        W74100  19.099  35.599  10.124
 8621W        W74101  40.994   2.445   1.778
 8622W        W74102  39.029   8.391   3.852
 8623W        W74103  36.912  13.799  10.569
 8624W        W74104  40.007  25.487   2.241
 8625W        W74105  14.184  25.569   0.303
 8626W        W74106  10.335   5.200  14.955
 8627W        W74107   1.462  10.299  12.517
 8628W        W74108  42.388   8.358  14.398
 8629W        W74109  35.943  14.126   3.660
 8630W        W74110  37.840  37.455  10.430
 8631W        W74111   2.434   6.918   0.438
 8632W        W74112  36.395  17.183   4.743
 8633W        W74113   5.397   1.911  11.374
 8634W        W74114  38.328  12.182   3.300
 8635W        W74115  18.215  16.717  13.355
 8636W        W74116  44.878  36.089   5.300
 8637W        W74117  28.978  17.693  10.465
 8638W        W74118  33.519  25.666   3.782
 8639W        W74119  34.445  21.735   4.602
 8640W        W74120  38.491   7.810  11.559
 8641W        W74121  28.491   1.960  13.913
 8642W        W74122  23.045  20.088   0.877
 8643W        W74123   3.943   4.748  11.973
 8644W        W74124   0.829  28.132  11.946
 8645W        W74125  23.096  43.277   9.538
 8646W        W74126  37.020  43.827   3.219
 8647W        W74127   3.912  30.490   0.367
 8648W        W74128  11.132  32.394   4.769
 8649W        W74129  36.438  33.924   3.386
 8650W        W74130  13.259  29.579   1.423
 8651W        W74131  42.354   1.347   2.311
 8652W        W74132  41.916  25.189   4.745
 8653W        W74133  27.650  29.461  14.299
 8654W        W74134  21.108  41.297  14.861
 8655W        W74135   0.325  28.514  12.403
 8656W        W74136  24.225  33.574   1.869
 8657W        W74137  24.667  34.475  11.472
 8658W        W74138  26.091  42.798   1.365
 8659W        W74139   1.413  37.977  11.900
 8660W        W74140  41.338  40.977  11.052
 8661W        W74141  23.227   1.771  13.338
 8662W        W74142   9.199   2.953  13.461
 8663W        W74143  25.042  27.134   3.254
 8664W        W74144  38.865  39.824  13.309
 8665W        W74145  32.426  35.450   1.382
 8666W        W74146  35.455  31.963   1.318
 8667W        W74147   6.864  13.176   3.229
 8668W        W74148  16.274   6.915   0.340
 8669W        W74149  39.890  24.655   1.869
 8670W        W74150  16.810  32.435  12.091
 8671W        W74151  17.218  44.419  12.927
 8672W        W74152  20.575  22.248   2.314
 8673W        W74153   1.858  20.258   1.356
 8674W        W74154  24.987   5.863  12.569
 8675W        W74155  35.031  38.858  10.949
 8676W        W74156  32.977  36.968  10.917
 8677W        W74157  29.020  38.865  13.036
 8678W        W74158   2.789  39.321  14.765
 8679W        W74159  42.798  17.229   0.334
 8680W        W74160  16.647  28.104   4.333
 8681W        W74161  24.029  29.100   1.773
 8682W        W74162   5.815  42.863  10.417
 8683W        W74163   9.293  37.571   4.181
 8684W        W74164  20.638  39.905  10.985
 8685W        W74165  37.990   8.292   0.746
 8686W        W74166  24.516  19.584  11.583
 8687W        W74167   1.828  36.477  11.885
 8688W        W74168  42.486   9.372   1.366
 8689W        W74169  23.640  24.155   1.401
 8690W        W74170  39.879  25.100   0.743
 8691W        W74171  29.065  42.956   2.780
 8692W        W74172  37.471   1.426  10.944
 8693W        W74173  28.954  14.314  11.490
 8694W        W74174  17.095   1.767   0.421
 8695W        W74175  37.424  44.790   4.686
 8696W        W74176  21.522  30.617  10.575
 8697W        W74177  26.058  16.154   2.857
 8698W        W74178   3.402  29.459   2.712
 8699W        W74179  25.968  33.050  13.847
 8700W        W74180   4.305  42.388   2.331
 8701W        W74181  29.149  14.237   4.214
 8702W        W74182  41.408  27.509   3.186
 8703W        W74183  18.568  17.787  14.387
 8704W        W74184  27.630  11.183  12.406
 8705W        W74185   3.799  17.724   4.285
 8706W        W74186  35.023  11.845   4.143
 8707W        W74187  26.532  21.056  14.364
 8708W        W74188  34.087  13.302   3.338
 8709W        W74189  16.265  39.944   4.836
 8710W        W74190   3.224  25.469  13.028
 8711W        W74191  21.177   5.204   4.271
 8712W        W74192   3.280   7.909   5.246
 8713W        W74193   4.931  40.481  12.060
 8714W        W74194   2.764  31.943   2.663
 8715W        W74195  32.043   9.754   1.376
 8716W        W74196   9.746  20.207  14.761
 8717W        W74197   0.812  12.152   2.314
 8718W        W74198   3.749  19.602   3.844
 8719W        W74199  31.473   4.232  12.015
 8720W        W74200  44.010  24.671  11.885
 8721W        W74201  18.586  26.100  11.433
 8722W        W74202  28.050  34.524   3.728
 8723W        W74203  33.984   1.869  10.896
 8724W        W74204  41.038  24.682   0.753
 8725W        W74205  19.057   2.741   2.709
 8726W        W74206  32.556   2.783  14.330
 8727W        W74207  42.949  32.095  11.411
 8728W        W74208  41.490   9.758   2.899
 8729W        W74209  22.639  36.870   3.822
 8730W        W74210  37.061   0.361  11.086
 8731W        W74211   3.775  41.865  12.845
 8732W        W74212  42.805   4.277   5.300
 8733W        W74213  16.164   5.330   2.235
 8734W        W74214  22.576  44.461   4.257
 8735W        W74215  38.396  44.469  14.024
 8736W        W74216   1.914  19.666   0.810
 8737W        W74217  22.187   5.337  14.005
 8738W        W74218  44.452  24.667  11.589
 8739W        W74219  22.209  22.247   3.364
 8740W        W74220  30.530  20.722  11.127
 8741W        W74221   7.769  20.095  14.816
 8742W        W74222   7.731  29.094  11.446
 8743W        W74223  42.525   2.954  14.881
 8744W        W74224   8.226  11.234  12.485
 8745W        W74225  20.642  36.088   1.884
 8746W        W74226  30.144  17.207   1.222
 8747W        W74227  31.138   7.707   1.859
 8748W        W74228   8.818  34.875   4.620
 8749W        W74229   1.746  39.881  11.864
 8750W        W74230  37.516  22.515   2.296
 8751W        W74231  28.496  23.037   1.410
 8752W        W74232  41.295  31.949  14.845
 8753W        W74233  36.408  38.053   1.853
 8754W        W74234  12.166   0.764   3.823
 8755W        W74235  30.477  19.601   2.852
 8756W        W74236  31.926  33.129  11.966
 8757W        W74237  32.428  42.998  10.427
 8758W        W74238   6.761  41.482  11.505
 8759W        W74239  10.753  31.910  14.399
 8760W        W74240  32.928  37.378   0.306
 8761W        W74241  40.955  22.623   3.387
 8762W        W74242  29.602  39.434  13.350
 8763W        W74243  14.667  23.520   4.221
 8764W        W74244  21.584  22.693   0.939
 8765W        W74245  32.502  42.865  12.907
 8766W        W74246   6.277  43.921  13.898
 8767W        W74247  33.068  40.538  11.934
 8768W        W74248  31.010  40.417   0.860
 8769W        W74249  30.040   0.909   1.924
 8770W        W74250  42.331  34.106  10.444
 8771W        W74251  33.415   8.197  14.472
 8772W        W74252  39.906  10.766  11.498
 8773W        W74253   5.209  38.335  12.352
 8774W        W74254  16.102  34.500  12.489
 8775W        W74255  31.557  37.448   0.385
 8776W        W74256   2.267   8.761   2.871
 8777W        W74257  25.181  27.551  12.558
 8778W        W74258  29.123  21.651   4.762
 8779W        W74259  13.141  31.090  14.787
 8780W        W74260  19.268  16.168  12.391
 8781W        W74261  26.601  19.235  13.357
 8782W        W74262   7.382  35.082  12.921
 8783W        W74263  40.424  15.689   3.376
 8784W        W74264   2.938  12.257  14.482
 8785W        W74265  40.985  39.832  12.554
 8786W        W74266  29.143  44.394  14.956
 8787W        W74267  40.011  27.511  13.989
 8788W        W74268  23.513   2.413   2.228
 8789W        W74269  44.007  34.974  12.082
 8790W        W74270  16.141   2.270   4.290
 8791W        W74271  24.160  40.037  11.933
 8792W        W74272   7.880  14.734   0.287
 8793W        W74273  13.767  28.935   1.802
 8794W        W74274  23.203   5.216  11.057
 8795W        W74275  44.823   0.274   3.829
 8796W        W74276  32.473  19.205  14.768
 8797W        W74277  10.791  27.560   4.723
 8798W        W74278  16.078   0.413  10.600
 8799W        W74279  34.948  12.305  13.374
 8800W        W74280  21.236   9.353   0.303
 8801W        W74281  35.028  37.938  14.341
 8802W        W74282  36.379  21.087   1.818
 8803W        W74283   6.373  42.911  12.852
 8804W        W74284   6.834  13.288  12.433
 8805W        W74285  14.225  21.640  13.964
 8806W        W74286  25.532  37.927   4.138
 8807W        W74287  31.908  18.227   4.143
 8808W        W74288  36.360   7.791  13.464
 8809W        W74289   0.398  38.497  14.383
 8810W        W74290  19.205   9.850   1.826
 8811W        W74291  20.159  38.497  12.899
 8812W        W74292   8.289  13.604  11.940
 8813W        W74293  17.307  10.670   1.326
 8814W        W74294   8.191   5.415  12.979
 8815W        W74295  43.830  29.152   4.632
 8816W        W74296  43.397  11.224   1.902
 8817W        W74297  19.282   9.709   2.272
 8818W        W74298   1.765  22.124   1.883
 8819W        W74299  28.020   3.948   4.216
 8820W        W74300   1.386   6.734   3.385
 8821W        W74301  43.286  33.439  14.451
 8822W        W74302  23.066   6.245  13.950
 8823W        W74303  42.401  17.075  14.289
 8824W        W74304  15.582  20.645  13.971
 8825W        W74305  40.833   3.372   5.635
 8826W        W74306  32.920  37.466   2.250
 8827W        W74307  16.187   1.306  14.012
 8828W        W74308   3.347  14.774  13.400
 8829W        W74309  21.058  34.544  10.607
 8830W        W74310  31.406   4.356  12.948
 8831W        W74311   5.785   3.408  13.445
 8832W        W74312  41.302  25.480   1.853
 8833W        W74313  37.923   6.421   0.433
 8834W        W74314  33.067  11.266  13.893
 8835W        W74315  34.398  23.554  12.439
 8836W        W74316  27.185   9.354   4.712
 8837W        W74317  17.210  15.645  11.553
 8838W        W74318  37.847  31.458  11.540
 8839W        W74319  11.334   9.872   1.894
 8840W        W74320  15.714  24.691  11.087
 8841W        W74321  10.374   3.380  10.985
 8842W        W74322  23.592   9.388   1.800
 8843W        W74323  36.869  25.625   3.722
 8844W        W74324   3.900  17.565  11.959
 8845W        W74325   4.793   1.916   9.976
 8846W        W74326  25.494  25.695   0.728
 8847W        W74327   9.317   1.814   1.871
 8848W        W74328  37.553  42.336   2.258
 8849W        W74329  20.638  35.536   2.840
 8850W        W74330  43.973  10.162  14.853
 8851W        W74331  31.138  11.749   5.104
 8852W        W74332  26.618  33.043  10.992
 8853W        W74333   3.254  14.189   2.677
 8854W        W74334  30.463   2.806  11.885
 8855W        W74335   6.840  10.171   3.659
 8856W        W74336   8.829  14.642  12.888
 8857W        W74337   9.881  24.528   3.331
 8858W        W74338  10.375  26.616   3.330
 8859W        W74339   5.291  28.605  12.978
 8860W        W74340  22.013   8.175   0.734
 8861W        W74341  14.274  30.647   3.832
 8862W        W74342  40.043  22.544   1.227
 8863W        W74343  35.093  28.016  10.926
 8864W        W74344  44.405   0.340  11.476
 8865W        W74345  20.526  40.331  12.356
 8866W        W74346  25.688  31.017   0.922
 8867W        W74347  26.054  12.136   0.333
 8868W        W74348  21.130  43.816   0.884
 8869W        W74349   2.964  12.230   3.274
 8870W        W74350  34.537   6.359  14.819
 8871W        W74351  37.547  22.623   1.241
 8872W        W74352  10.310  29.173   1.890
 8873W        W74353  13.290  39.332  10.497
 8874W        W74354  12.695  19.102   2.330
 8875W        W74355   4.721  30.516  11.003
 8876W        W74356   8.861  40.414   2.285
 8877W        W74357   7.209  18.577  12.883
 8878W        W74358  23.182  19.575  11.489
 8879W        W74359  28.165  29.459  12.339
 8880W        W74360  33.455  14.202  12.975
 8881W        W74361  33.938  43.782  10.521
 8882W        W74362  31.152  15.693   5.204
 8883W        W74363  31.085  42.882   1.259
 8884W        W74364  41.886  29.440  11.083
 8885W        W74365  17.638   1.431   3.636
 8886W        W74366  32.411   7.884  14.772
 8887W        W74367  19.749  13.778   2.729
 8888W        W74368  39.460  22.728  14.762
 8889W        W74369  17.668  18.570  13.886
 8890W        W74370  41.315   3.375   9.670
 8891W        W74371  25.565  17.226  14.453
 8892W        W74372   0.257  34.959   0.894
 8893W        W74373  11.757  23.115  14.789
 8894W        W74374  32.980   7.748  14.464
 8895W        W74375  15.799   3.242  14.485
 8896W        W74376   5.797  11.779   1.304
 8897W        W74377  29.633  12.195  10.908
 8898W        W74378  24.214  24.016   0.929
 8899W        W74379  15.748   8.276   1.220
 8900W        W74380  11.329   7.220  11.479
 8901W        W74381  28.541  22.534  12.532
 8902W        W74382  34.076  21.056  14.863
 8903W        W74383  14.114  14.595   9.930
 8904W        W74384  19.753  26.691  13.824
 8905W        W74385  44.004  29.458   0.958
 8906W        W74386  10.778  25.570   0.800
 8907W        W74387   0.310  21.058   4.634
 8908W        W74388  23.726   4.926  13.061
 8909W        W74389  32.044  28.497  12.408
 8910W        W74390   6.186  44.423  13.909
 8911W        W74391  39.487  43.854  13.539
 8912W        W74392  29.947  14.699  11.600
 8913W        W74393  31.500  37.483  14.504
 8914W        W74394  18.228  10.691   4.674
 8915W        W74395  20.175  28.092   1.721
 8916W        W74396  27.635  13.768   3.167
 8917W        W74397  44.876   3.928  11.570
 8918W        W74398   4.448  34.416  13.321
 8919W        W74399  36.350  18.148   4.142
 8920W        W74400  14.603  28.176  13.493
 8921W        W74401  34.482  15.233   3.300
 8922W        W74402   3.840  42.497   1.715
 8923W        W74403  42.787  27.022  12.381
 8924W        W74404  15.322  39.988  14.834
 8925W        W74405  26.534  28.025  10.475
 8926W        W74406  29.600  13.601  13.055
 8927W        W74407  27.029   6.275   1.419
 8928W        W74408   6.817  15.781   1.856
 8929W        W74409   1.955  37.478  12.360
 8930W        W74410  36.471  14.258   5.292
 8931W        W74411   1.464  24.484   1.886
 8932W        W74412   3.948  12.257   3.825
 8933W        W74413  18.089  34.878  14.364
 8934W        W74414  22.692  39.542   0.787
 8935W        W74415  38.020  31.107  10.644
 8936W        W74416   2.850  16.080   4.743
 8937W        W74417  17.589   6.860  13.841
 8938W        W74418  12.736   6.773   3.701
 8939W        W74419  23.179  17.762  11.107
 8940W        W74420  37.506  35.584   3.296
 8941W        W74421  44.309  29.425   2.775
 8942W        W74422  26.175   2.315  13.504
 8943W        W74423  30.998  15.758  14.008
 8944W        W74424   3.730  22.048  13.472
 8945W        W74425  37.496   5.811   2.901
 8946W        W74426  40.055   3.802  10.563
 8947W        W74427  44.264  20.092   1.297
 8948W        W74428  36.033  35.551  10.570
 8949W        W74429  13.119  10.233   1.736
 8950W        W74430   1.873  28.937  12.922
 8951W        W74431  42.987   7.798  12.942
 8952W        W74432  30.977  22.736   2.279
 8953W        W74433   0.418  14.750   4.269
 8954W        W74434  41.363  24.986   2.698
 8955W        W74435  22.650  21.616  14.845
 8956W        W74436  13.757  20.756   3.210
 8957W        W74437  15.764  17.190  10.483
 8958W        W74438   1.257  36.901   2.190
 8959W        W74439  15.144  37.025  14.423
 8960W        W74440   2.402   8.287   2.889
 8961W        W74441   1.239  17.097  10.594
 8962W        W74442  41.439  18.553   2.882
 8963W        W74443   1.922   2.721  14.304
 8964W        W74444   5.748  12.629   1.247
 8965W        W74445  38.857  36.365   3.806
 8966W        W74446  26.457  34.470  10.136
 8967W        W74447  27.486  24.122  12.045
 8968W        W74448  31.537  34.987   4.218
 8969W        W74449  13.817   7.216   1.895
 8970W        W74450   9.853  22.600   4.599
 8971W        W74451   5.723  41.517  14.498
 8972W        W74452   0.329  19.180   0.246
 8973W        W74453  35.564   4.753   1.317
 8974W        W74454   7.905   1.943   1.361
 8975W        W74455  30.425   3.709  10.939
 8976W        W74456  43.510  28.488   3.735
 8977W        W74457   6.274  44.894   2.299
 8978W        W74458  16.748  18.667  12.455
 8979W        W74459  14.649  13.640   0.928
 8980W        W74460  30.019  15.315   0.438
 8981W        W74461  18.295  25.679   4.669
 8982W        W74462  21.600  41.497   4.745
 8983W        W74463  30.566  36.502   3.648
 8984W        W74464  10.770   5.916  14.487
 8985W        W74465  16.110  44.492   0.843
 8986W        W74466  26.052  14.190   2.188
 8987W        W74467  10.833  23.238  13.536
 8988W        W74468   3.251   7.387  13.972
 8989W        W74469  31.964  22.043  11.869
 8990W        W74470  37.833   3.813  12.989
 8991W        W74471  10.196  27.580   0.963
 8992W        W74472  18.623  35.030   3.704
 8993W        W74473  24.214  30.123   3.671
 8994W        W74474  31.091   2.382  13.519
 8995W        W74475  14.174   7.814   4.643
 8996W        W74476   1.469  20.557  14.898
 8997W        W74477  27.983  13.299   2.880
 8998W        W74478   4.777  31.063   2.315
 8999W        W74479  18.691  41.321   1.392
 9000W        W74480  17.755  43.002  14.805
 9001W        W74481  17.602  41.532   4.744
 9002W        W74482  43.431  10.360  12.006
 9003W        W74483  30.129  35.450  12.866
 9004W        W74484  36.077  25.095  14.377
 9005W        W74485   8.165  22.203   2.757
 9006W        W74486  40.516  44.876   0.862
 9007W        W74487  16.194  12.137  13.896
 9008W        W74488  31.040   1.449   1.417
 9009W        W74489  33.910  22.061   2.283
 9010W        W74490  16.776   8.684  10.617
 9011W        W74491  38.949   2.818  12.527
 9012W        W74492   2.452  42.889  11.093
 9013W        W74493   6.883   4.936  11.935
 9014W        W74494  32.133  10.775  11.973
 9015W        W74495  20.060   6.223   4.167
 9016W        W74496  13.334   8.302   1.806
 9017W        W74497  20.527  18.619   4.738
 9018W        W74498   7.407  18.125   2.339
 9019W        W74499  38.438   8.349  11.610
 9020W        W74500  30.601  40.842   1.786
 9021W        W74501  42.885  42.518   3.847
 9022W        W74502   1.843  40.946   0.798
 9023W        W74503  40.402   9.345   3.348
 9024W        W74504  26.023  19.233   1.403
 9025W        W74505  27.995  25.614   3.306
 9026W        W74506  28.677  28.170   2.767
 9027W        W74507  25.474   2.238  10.461
 9028W        W74508  23.101  41.366  14.512
 9029W        W74509  23.094  20.167  12.877
 9030W        W74510  25.480   7.361   3.763
 9031W        W74511   0.250  12.211   3.381
 9032W        W74512  27.174  10.664   2.252
 9033W        W74513  32.895  41.465   5.234
 9034W        W74514  10.321  37.054  11.450
 9035W        W74515  44.008   7.178   2.241
 9036W        W74516  35.472  40.405   2.753
 9037W        W74517  18.090   4.428  10.608
 9038W        W74518  10.878  11.815   3.318
 9039W        W74519  28.067   2.434  13.376
 9040W        W74520  24.032  16.082   2.899
 9041W        W74521  30.650  15.626   2.178
 9042W        W74522  34.449  26.650   3.238
 9043W        W74523  32.584   6.252  10.462
 9044W        W74524   3.316  35.524  11.420
 9045W        W74525  34.100  39.821   2.774
 9046W        W74526   8.774  13.349  13.963
 9047W        W74527  33.013  21.650   1.328
 9048W        W74528  40.378  35.102  11.602
 9049W        W74529  12.323   5.211   4.622
 9050W        W74530   3.442  35.018  12.930
 9051W        W74531  24.213  36.891   1.293
 9052W        W74532  29.094   4.910  12.846
 9053W        W74533   6.715  43.982  11.578
 9054W        W74534  11.757  14.722  14.768
 9055W        W74535  39.955  27.111   3.788
 9056W        W74536  21.255  35.392   0.311
 9057W        W74537   6.261  17.605   4.201
 9058W        W74538  29.624  34.933  14.929
 9059W        W74539  21.610  34.006  12.860
 9060W        W74540  15.260  35.867   2.340
 9061W        W74541  29.994  21.232   2.378
 9062W        W74542  40.006  32.927   3.779
 9063W        W74543   4.863   4.783   1.751
 9064W        W74544  14.682  33.964   3.268
 9065W        W74545  39.481  43.829   4.615
 9066W        W74546   0.311  32.915   0.737
 9067W        W74547  19.574  38.991   3.329
 9068W        W74548  10.680  44.854   3.170
 9069W        W74549  28.969   9.341   1.356
 9070W        W74550  12.133  26.007   0.372
 9071W        W74551  13.183   3.414  12.369
 9072W        W74552  32.422  20.050   3.832
 9073W        W74553  15.595  20.113  12.048
 9074W        W74554  16.239  11.755  10.961
 9075W        W74555  34.561  37.009  14.829
 9076W        W74556  13.760  43.359   1.727
 9077W        W74557  12.337   7.303   0.334
 9078W        W74558  28.528  31.037  12.347
 9079W        W74559  20.555  38.947  14.910
 9080W        W74560  33.893  26.696   9.961
 9081W        W74561  10.284  14.678  10.520
 9082W        W74562   3.859  24.515   4.834
 9083W        W74563  32.900  40.941  11.471
 9084W        W74564  16.120   5.422  14.879
 9085W        W74565  12.137   5.249  10.606
 9086W        W74566  17.279  11.770  11.592
 9087W        W74567  34.503  12.680   3.178
 9088W        W74568  25.534  24.088   3.383
 9089W        W74569   5.768  20.565  14.432
 9090W        W74570   3.906   4.852   1.727
 9091W        W74571   9.752  17.667  12.531
 9092W        W74572   0.898  27.638   0.362
 9093W        W74573  22.140  16.263  12.520
 9094W        W74574  40.381  26.682  12.357
 9095W        W74575  29.047  33.891   0.258
 9096W        W74576  27.573   2.782  10.930
 9097W        W74577  20.575  26.177   9.513
 9098W        W74578   8.309  25.979   2.755
 9099W        W74579  35.579   4.798   3.719
 9100W        W74580  36.476   0.789   9.963
 9101W        W74581  31.124   1.456   0.469
 9102W        W74582  22.589  18.055  11.451
 9103W        W74583   0.781  39.055  10.943
 9104W        W74584  17.096  21.524   2.325
 9105W        W74585  20.584  41.320   0.944
 9106W        W74586  22.088  33.946  14.772
 9107W        W74587  17.186   0.316  13.309
 9108W        W74588  31.604  35.482  11.481
 9109W        W74589  29.648  13.820  13.969
 9110W        W74590  43.281  41.531  11.096
 9111W        W74591  30.635  12.768  13.461
 9112W        W74592  42.386   2.769   0.920
 9113W        W74593  23.021  44.988   1.383
 9114W        W74594   6.428  14.249  11.112
 9115W        W74595  40.865  28.011   0.810
 9116W        W74596  28.514  41.509   0.917
 9117W        W74597  31.082  34.422   1.828
 9118W        W74598  14.730  40.527   4.650
 9119W        W74599  41.811  40.445  14.361
 9120W        W74600  15.688  15.199   3.269
 9121W        W74601   7.338  26.970   2.322
 9122W        W74602  40.039  31.630   0.407
 9123W        W74603  14.180  13.748  14.336
 9124W        W74604  37.996   4.428  13.470
 9125W        W74605  36.466  13.142  14.972
 9126W        W74606  40.332   2.744   3.861
 9127W        W74607  15.243  22.740   1.854
 9128W        W74608  13.197   2.290   2.745
 9129W        W74609  41.794  34.456  13.939
 9130W        W74610  20.273  24.620   0.852
 9131W        W74611  14.166  41.536   1.860
 9132W        W74612  44.484   8.760  14.761
 9133W        W74613  38.427  22.703  13.030
 9134W        W74614  35.915   8.216   1.926
 9135W        W74615  18.609   8.864   0.458
 9136W        W74616  13.304  34.551   5.261
 9137W        W74617  38.913  43.841   4.212
 9138W        W74618  42.983  11.302   0.301
 9139W        W74619  12.630  17.755   1.900
 9140W        W74620  29.968  11.160  14.826
 9141W        W74621  29.114  30.458   0.900
 9142W        W74622  30.140  13.745  13.368
 9143W        W74623  33.388  30.459  12.976
 9144W        W74624  32.630  42.450  13.024
 9145W        W74625  13.329  25.629   2.718
 9146W        W74626  23.678  21.599   0.444
 9147W        W74627  19.604  14.231   4.168
 9148W        W74628  11.808  32.617   2.359
 9149W        W74629  18.647  36.917   2.261
 9150W        W74630  36.454  23.592  10.075
 9151W        W74631  27.620  10.807  14.465
 9152W        W74632   0.870   9.676   4.824
 9153W        W74633  41.951  35.563   3.832
 9154W        W74634  41.509  27.690  10.425
 9155W        W74635  15.216  23.019   1.871
 9156W        W74636  20.216  37.974  14.467
 9157W        W74637  15.197  12.208  13.531
 9158W        W74638  14.696   8.256   4.115
 9159W        W74639   9.260  26.594   0.774
 9160W        W74640  41.853  10.773   1.699
 9161W        W74641  37.849  22.252   2.862
 9162W        W74642   6.733  29.092   3.232
 9163W        W74643   9.821  29.455  14.772
 9164W        W74644  30.069  12.650  11.116
 9165W        W74645   1.371   2.965   4.130
 9166W        W74646  14.829  12.764   1.785
 9167W        W74647  43.810  24.037   0.391
 9168W        W74648  31.647  24.042  11.965
 9169W        W74649  20.111   6.888   2.279
 9170W        W74650   5.350   5.796   2.702
 9171W        W74651  36.585  44.853  12.837
 9172W        W74652  15.106  31.984  11.024
 9173W        W74653  25.096  31.626   4.821
 9174W        W74654  37.383  43.423   1.796
 9175W        W74655  13.300  14.336  12.863
 9176W        W74656  37.885  26.031  10.936
 9177W        W74657  11.154  19.723  14.857
 9178W        W74658  26.087  36.577  10.423
 9179W        W74659  31.570  34.374  11.560
 9180W        W74660   8.835  43.510  13.314
 9181W        W74661   4.921  33.560  13.831
 9182W        W74662   9.755  19.575  11.127
 9183W        W74663  43.776  23.103  14.815
 9184W        W74664  23.228   0.858  12.913
 9185W        W74665   8.786  25.577   2.248
 9186W        W74666  25.201  42.973   1.390
 9187W        W74667  11.862   8.389  10.593
 9188W        W74668  26.037   9.732  11.994
 9189W        W74669  36.538  18.626  14.352
 9190W        W74670   5.200  31.607   2.692
 9191W        W74671   1.419  39.052   3.774
 9192W        W74672  16.783  31.491  10.505
 9193W        W74673  26.984   6.795  14.007
 9194W        W74674  31.446   5.411   2.327
 9195W        W74675   1.804  13.601  10.444
 9196W        W74676  25.971   2.736   3.226
 9197W        W74677  14.111  26.024  13.847
 9198W        W74678  26.614  43.996  12.828
 9199W        W74679  43.329  17.215   3.665
 9200W        W74680  18.595  38.326   3.837
 9201W        W74681  35.096  33.020   3.806
 9202W        W74682  40.469  25.556   0.285
 9203W        W74683  13.217  41.007  14.377
 9204W        W74684  33.927  14.228   3.298
 9205W        W74685  41.359  10.179   1.214
 9206W        W74686  22.083  18.074   0.259
 9207W        W74687  44.913  37.393  11.864
 9208W        W74688  10.197  42.518  14.434
 9209W        W74689  36.476   6.263   4.144
 9210W        W74690  20.534  10.690  10.890
 9211W        W74691  17.701  23.992   4.323
 9212W        W74692  24.207  30.007   2.407
 9213W        W74693  29.551  43.767  14.962
 9214W        W74694  27.518  21.155   3.737
 9215W        W74695   1.362  29.004   1.834
 9216W        W74696  30.908  10.159   1.292
 9217W        W74697  14.331  44.790  11.475
 9218W        W74698  19.657  38.069  12.411
 9219W        W74699  30.110  30.615   3.813
 9220W        W74700  37.556  42.993  14.300
 9221W        W74701  22.645  17.686  13.062
 9222W        W74702  24.199  34.592   0.797
 9223W        W74703  43.808  10.138   3.378
 9224W        W74704  20.151  14.320   2.278
 9225W        W74705  20.069  12.258   1.882
 9226W        W74706  28.549  33.978  14.025
 9227W        W74707  17.129  25.996   2.703
 9228W        W74708  12.718  18.120   1.304
 9229W        W74709   4.891  14.786  10.983
 9230W        W74710   3.218  33.056  13.426
 9231W        W74711  22.669  17.772   3.686
 9232W        W74712  36.414  21.702  12.954
 9233W        W74713  34.379  14.736   2.298
 9234W        W74714  22.127  10.770  11.943
 9235W        W74715  23.234  35.553   2.230
 9236W        W74716  40.938  35.896   1.748
 9237W        W74717  44.484  17.259  13.860
 9238W        W74718  18.642   0.985  12.421
 9239W        W74719  11.771  24.123   2.409
 9240W        W74720   9.728  42.437   2.345
 9241W        W74721  32.971  10.210  11.997
 9242W        W74722   6.679   9.675   2.759
 9243W        W74723  14.294  30.977   4.617
 9244W        W74724   0.773  24.038  14.509
 9245W        W74725  31.135  24.029   2.743
 9246W        W74726  41.330  17.609  13.432
 9247W        W74727  11.637   1.954   0.754
 9248W        W74728  23.157  15.304  11.567
 9249W        W74729  33.580   6.861   1.388
 9250W        W74730  43.491  41.975  12.862
 9251W        W74731  21.044   9.691  13.407
 9252W        W74732  10.640   3.725   3.338
 9253W        W74733  44.262   3.805   3.778
 9254W        W74734  13.632  41.415   4.734
 9255W        W74735  33.875  10.787  14.374
 9256W        W74736  29.030  14.292  10.418
 9257W        W74737   8.896  40.432  14.448
 9258W        W74738  17.713   7.814  12.095
 9259W        W74739  26.124  40.481   1.797
 9260W        W74740  22.529  29.556  11.890
 9261W        W74741  44.920  26.599  14.373
 9262W        W74742  15.254  20.747   0.815
 9263W        W74743  12.210  37.954  11.540
 9264W        W74744  36.529  43.917   2.336
 9265W        W74745  37.009  29.980  12.412
 9266W        W74746  33.028  13.641  13.814
 9267W        W74747  14.677  33.015   3.686
 9268W        W74748  22.134  27.582   0.329
 9269W        W74749  26.507   6.901   3.634
 9270W        W74750  37.344  20.719   3.794
 9271W        W74751  28.931  29.947   1.741
 9272W        W74752  21.191  11.731  14.871
 9273W        W74753  32.125  31.128  14.016
 9274W        W74754   5.271  26.954   0.421
 9275W        W74755  39.853  32.574   4.728
 9276W        W74756  10.245  33.005   3.631
 9277W        W74757  23.989   3.239   3.795
 9278W        W74758  14.803  31.628   1.813
 9279W        W74759   1.829  11.216  11.973
 9280W        W74760  41.366  27.958   4.656
 9281W        W74761  33.475  10.675   0.821
 9282W        W74762  18.670  29.441  12.347
 9283W        W74763  35.927  33.456   0.296
 9284W        W74764   9.849  44.930  10.494
 9285W        W74765  29.514  21.660  12.457
 9286W        W74766   1.475   6.892  12.068
 9287W        W74767  19.191  44.322   3.375
 9288W        W74768   8.362  17.557   2.220
 9289W        W74769  31.587  26.651   3.772
 9290W        W74770  32.140   4.756   0.254
 9291W        W74771  22.093  31.909   0.784
 9292W        W74772   1.956  25.172  12.857
 9293W        W74773  11.689  11.159   4.789
 9294W        W74774  19.634  43.884   1.333
 9295W        W74775   4.772  27.106  11.508
 9296W        W74776   5.247  32.603   2.263
 9297W        W74777   3.780  31.436  13.927
 9298W        W74778  30.937  16.608  10.140
 9299W        W74779  21.260  14.160   3.272
 9300W        W74780  11.666  27.627   0.261
 9301W        W74781   4.915   3.421   1.346
 9302W        W74782  21.164   0.284  15.000
 9303W        W74783   4.347  35.521  11.457
 9304W        W74784  22.239  35.502  10.944
 9305W        W74785   9.831   5.385  14.028
 9306W        W74786  44.883  39.387  13.893
 9307W        W74787  13.648   8.793  11.943
 9308W        W74788  38.565  21.678  14.516
 9309W        W74789  16.738   0.920  12.064
 9310W        W74790  27.518  13.179  11.050
 9311W        W74791  19.691  23.199  13.518
 9312W        W74792   0.401   9.238   0.807
 9313W        W74793   8.682  22.659   2.398
 9314W        W74794  22.609   5.278  12.447
 9315W        W74795  19.044  43.298  14.497
 9316W        W74796  33.010  11.697   0.390
 9317W        W74797  36.094   9.280   3.784
 9318W        W74798  25.994  38.866  11.990
 9319W        W74799  21.596  15.719   2.861
 9320W        W74800   2.236   4.742  13.330
 9321W        W74801   2.925  30.021  14.488
 9322W        W74802  21.697  44.971   2.293
 9323W        W74803  38.998  39.975   3.331
 9324W        W74804  31.102  28.181   2.826
 9325W        W74805  33.097  11.226  14.489
 9326W        W74806  43.919  27.109   1.226
 9327W        W74807  27.685  30.570   2.218
 9328W        W74808  40.035  44.277  13.970
 9329W        W74809  18.222   3.303   1.316
 9330W        W74810  11.831   0.345  13.511
 9331W        W74811  23.009  43.971  11.935
 9332W        W74812  13.605   9.166  11.954
 9333W        W74813   7.890  34.598  12.576
 9334W        W74814  40.434  14.328   2.261
 9335W        W74815   6.394  12.650  10.405
 9336W        W74816  34.900  36.028   3.236
 9337W        W74817  24.633  16.102  12.979
 9338W        W74818  33.045   3.734  14.279
 9339W        W74819  27.047   2.841   3.282
 9340W        W74820   3.728  14.182   5.287
 9341W        W74821   9.665   4.742   3.702
 9342W        W74822  31.141  33.384  12.936
 9343W        W74823  26.594  37.077   3.743
 9344W        W74824  31.402  17.091  14.462
 9345W        W74825  39.399  33.887   1.804
 9346W        W74826  29.578  33.450  10.018
 9347W        W74827   1.268  11.657  11.099
 9348W        W74828  17.695  30.025   1.915
 9349W        W74829   0.811  39.939   2.782
 9350W        W74830   2.253  26.024  12.539
 9351W        W74831  20.555  37.485  10.408
 9352W        W74832  43.780  21.578  12.520
 9353W        W74833  18.643  30.509  13.004
 9354W        W74834  39.422   3.360  13.422
 9355W        W74835  14.804  25.563  13.816
 9356W        W74836  27.060  17.582   0.777
 9357W        W74837  38.920  13.667  11.090
 9358W        W74838  40.804  11.153  14.496
 9359W        W74839  26.962   4.354  11.499
 9360W        W74840  15.113   3.341   3.655
 9361W        W74841  22.714   6.845   2.413
 9362W        W74842  32.560  36.089   3.810
 9363W        W74843  17.638  30.991  10.517
 9364W        W74844  14.300   4.231  10.486
 9365W        W74845  26.079   7.301  11.510
 9366W        W74846  24.035  22.729   1.369
 9367W        W74847  25.215  28.148   1.294
 9368W        W74848  10.219   1.938   3.345
 9369W        W74849  15.299   9.840   2.803
 9370W        W74850  32.406   4.807   1.857
 9371W        W74851  12.655  15.300   5.166
 9372W        W74852  31.030  10.348  13.792
 9373W        W74853   5.808   6.690  12.428
 9374W        W74854  40.895   2.816   4.151
 9375W        W74855   1.920  17.287   0.273
 9376W        W74856  28.589  41.788  10.449
 9377W        W74857  25.995  33.034   0.940
 9378W        W74858   9.327  41.449  10.568
 9379W        W74859  12.237  18.059   1.228
 9380W        W74860  23.205  22.178   4.189
 9381W        W74861  12.627   3.368   1.766
 9382W        W74862   8.765  15.634   1.812
 9383W        W74863  42.941  32.080  11.903
 9384W        W74864  20.639  33.887   2.194
 9385W        W74865  15.607  42.776   1.386
 9386W        W74866  29.989   2.433  12.468
 9387W        W74867  29.559   3.809  14.836
 9388W        W74868  35.398  16.608  14.339
 9389W        W74869  41.301  38.454  10.524
 9390W        W74870  25.041   5.713  13.508
 9391W        W74871  37.418   4.821  14.423
 9392W        W74872   0.828  38.852  12.374
 9393W        W74873  13.605  23.686   3.166
 9394W        W74874  23.529   3.278   0.265
 9395W        W74875   7.380   1.750  12.006
 9396W        W74876  41.036  23.667  10.973
 9397W        W74877   1.445   2.811  12.563
 9398W        W74878  11.731   6.385  13.967
 9399W        W74879  39.367  28.992  12.871
 9400W        W74880  13.295   5.250  11.996
 9401W        W74881  30.598  43.459  13.386
 9402W        W74882  25.991   7.881   1.909
 9403W        W74883  34.475  42.296  11.975
 9404W        W74884   2.898   6.756  14.477
 9405W        W74885  22.224  40.517   4.150
 9406W        W74886  30.572  38.445   0.791
 9407W        W74887   6.760  16.646   3.691
 9408W        W74888  14.633   0.988  10.622
 9409W        W74889  34.614  44.393   4.301
 9410W        W74890  44.362  42.450  10.449
 9411W        W74891  27.131  38.016   2.760
 9412W        W74892  30.615  25.627  12.529
 9413W        W74893   3.337  28.953   1.778
 9414W        W74894  33.128  27.168   4.346
 9415W        W74895   8.704   9.355  10.558
 9416W        W74896  11.752  11.737  11.001
 9417W        W74897  21.089  21.213   0.356
 9418W        W74898  15.252  32.919  10.592
 9419W        W74899   6.220  37.490   0.326
 9420W        W74900  21.051  32.454  13.037
 9421W        W74901  37.948  19.693  14.276
 9422W        W74902  20.115  31.009  11.954
 9423W        W74903  34.544   2.438   0.806
 9424W        W74904  33.407   3.305   3.362
 9425W        W74905   5.379  36.020   2.849
 9426W        W74906   8.298  17.206  12.549
 9427W        W74907  29.118  32.530  12.845
 9428W        W74908  31.024  27.530   0.413
 9429W        W74909  17.306  28.935   1.408
 9430W        W74910  36.047  23.033  14.937
 9431W        W74911   0.946  39.041   3.313
 9432W        W74912  20.137  31.000   1.934
 9433W        W74913  40.814  39.483  14.811
 9434W        W74914  17.267  30.106   2.346
 9435W        W74915  15.198  16.767   1.722
 9436W        W74916  26.046  43.876  11.503
 9437W        W74917  40.308  34.476  14.794
 9438W        W74918   3.358  14.313  10.963
 9439W        W74919  14.117  28.676   0.926
 9440W        W74920  18.281  20.079  10.616
 9441W        W74921  21.562  39.538   4.201
 9442W        W74922  18.777  42.933  13.376
 9443W        W74923  25.501  24.058   2.376
 9444W        W74924  43.957   9.889   3.282
 9445W        W74925  42.350  39.925  13.939
 9446W        W74926  28.594  22.241  11.998
 9447W        W74927  31.459   9.743  12.380
 9448W        W74928   0.955  13.233   0.881
 9449W        W74929  12.269  34.034  12.021
 9450W        W74930   5.352  44.393  11.407
 9451W        W74931  24.052  21.693  13.408
 9452W        W74932  19.757  10.188   2.719
 9453W        W74933  14.599   5.387   0.376
 9454W        W74934   7.730  17.153   2.310
 9455W        W74935  43.974  40.397   0.854
 9456W        W74936   8.686  30.585   4.786
 9457W        W74937  22.691  18.784   4.692
 9458W        W74938  36.842  24.568  10.894
 9459W        W74939  19.085  42.329  14.809
 9460W        W74940  12.270   7.715   0.903
 9461W        W74941  29.064  16.142  13.329
 9462W        W74942  42.997  21.583  11.441
 9463W        W74943  29.033  33.546   1.918
 9464W        W74944  29.982  26.679   1.384
 9465W        W74945  11.766  34.013  13.540
 9466W        W74946  38.927  33.000   4.227
 9467W        W74947   2.775  39.867  13.995
 9468W        W74948  27.664  31.495  13.801
 9469W        W74949  30.946  24.227   9.998
 9470W        W74950  20.618   5.888  10.522
 9471W        W74951  10.173  11.235  14.870
 9472W        W74952   3.241  16.679   2.711
 9473W        W74953  11.294  44.969  12.846
 9474W        W74954  20.149   3.248  12.547
 9475W        W74955   7.780  35.412  11.909
 9476W        W74956  44.856  12.725   4.753
 9477W        W74957  13.217  28.028   2.712
 9478W        W74958   5.774  22.026  11.107
 9479W        W74959   3.780   5.775   3.724
 9480W        W74960  23.522  38.067  11.065
 9481W        W74961   2.267  37.344  13.897
 9482W        W74962   8.685  21.043  11.012
 9483W        W74963  10.336   5.284  13.538
 9484W        W74964  21.196  35.855   4.307
 9485W        W74965  14.820   9.683  12.012
 9486W        W74966   2.289  19.754  12.951
 9487W        W74967   7.390   1.866   4.778
 9488W        W74968  41.943  21.648   1.288
 9489W        W74969  24.533  40.411   2.875
 9490W        W74970  35.546   2.854   2.839
 9491W        W74971  20.056  15.324   4.831
 9492W        W74972   8.801   8.378  13.983
 9493W        W74973  13.126  33.468  13.799
 9494W        W74974  18.650   4.208  12.877
 9495W        W74975   7.234   2.919   1.729
 9496W        W74976   5.322  11.320   2.383
 9497W        W74977   0.354   7.283  10.968
 9498W        W74978  12.236  28.938  14.938
 9499W        W74979  40.453  33.018   0.774
 9500W        W74980  14.711  21.245  10.044
 9501W        W74981   2.387   6.762  13.911
 9502W        W74982  44.369  43.018   0.854
 9503W        W74983  40.835  14.726  13.341
 9504W        W74984   6.684  14.810  14.790
 9505W        W74985   0.287  11.723  11.052
 9506W        W74986  13.687   1.282  14.515
 9507W        W74987  34.937  39.982  12.090
 9508W        W74988  21.146  28.663  14.919
 9509W        W74989   5.839  16.793   3.233
 9510W        W74990  23.039  39.022  12.871
 9511W        W74991  40.964   0.254   1.870
 9512W        W74992  42.527  25.031   3.206
 9513W        W74993  15.792   5.717  12.932
 9514W        W74994  38.917   8.822  11.054
 9515W        W74995  31.966  12.825  10.613
 9516W        W74996   5.870  39.463  10.975
 9517W        W74997   0.866  13.799   3.323
 9518W        W74998  30.959  16.581   4.780
 9519W        W74999  31.066  15.820   0.377
 9520W        W75000  18.222   2.874  11.951
 9521W        W75001  42.984  23.702   1.754
 9522W        W75002  14.740   7.228  10.046
 9523W        W75003  44.396  33.023  14.776
 9524W        W75004  20.567  25.128   1.786
 9525W        W75005  43.963  33.999   4.308
 9526W        W75006  14.194  14.149  13.378
 9527W        W75007  36.407  22.123  11.992
 9528W        W75008  16.231  15.211   2.788
 9529W        W75009   0.318  21.044   3.760
 9530W        W75010   2.901  12.689  10.997
 9531W        W75011  23.137  15.275   2.786
 9532W        W75012   0.812  41.498  14.780
 9533W        W75013  34.397  35.961   1.425
 9534W        W75014  40.955  26.161  12.354
 9535W        W75015  36.375  10.250   2.756
 9536W        W75016  40.542  39.518   0.779
 9537W        W75017  30.658  39.457   3.741
 9538W        W75018  42.981  14.653   2.376
 9539W        W75019  12.667  39.404  11.873
 9540W        W75020  40.410  35.990  11.948
 9541W        W75021  34.913  19.623   0.304
 9542W        W75022   1.757  23.597   1.812
 9543W        W75023   6.306  25.196  14.946
 9544W        W75024   2.751  40.465   1.888
 9545W        W75025  38.515  25.590   1.926
 9546W        W75026  14.682   7.769   3.282
 9547W        W75027  37.454  16.694   4.618
 9548W        W75028  26.105  37.935   0.271
 9549W        W75029   7.222  37.382  12.039
 9550W        W75030   5.873  10.320   2.184
 9551W        W75031  16.766  23.239  12.481
 9552W        W75032  18.788  16.131  10.426
 9553W        W75033  29.558  23.067   1.765
 9554W        W75034  43.777  37.482   4.676
 9555W        W75035  37.979  16.105   1.731
 9556W        W75036  34.952  20.532   0.295
 9557W        W75037  19.167  13.180  10.608
 9558W        W75038  41.970  14.788   1.307
 9559W        W75039  15.614  41.327   0.845
 9560W        W75040  28.546  36.443  11.991
 9561W        W75041  10.377   2.320  12.561
 9562W        W75042   5.408  13.797   3.264
 9563W        W75043  28.645  24.545   2.248
 9564W        W75044  41.354  41.039  12.870
 9565W        W75045  18.592   9.890  11.024
 9566W        W75046   9.371  20.149  12.983
 9567W        W75047  27.945  23.159   2.851
 9568W        W75048  20.687   7.242  11.522
 9569W        W75049  36.360  37.868  14.902
 9570W        W75050  41.020  29.022   2.400
 9571W        W75051  43.887  31.929   0.467
 9572W        W75052  35.097  12.221   4.683
 9573W        W75053   7.895  18.120  10.452
 9574W        W75054   9.245  28.634   1.213
 9575W        W75055   0.443  23.174  13.518
 9576W        W75056  40.824   9.300   2.727
 9577W        W75057  22.039  22.041   1.306
 9578W        W75058  37.954  44.876   2.841
 9579W        W75059  35.068  44.308  11.111
 9580W        W75060  13.717  40.424   0.964
 9581W        W75061   4.273  19.050  12.923
 9582W        W75062  23.115  17.237  14.931
 9583W        W75063  29.490  28.519   4.660
 9584W        W75064   1.405  41.786   0.814
 9585W        W75065  25.646  31.634  10.456
 9586W        W75066   2.754  17.757  11.878
 9587W        W75067  36.368  19.673  13.928
 9588W        W75068  34.025  25.621   0.478
 9589W        W75069   9.762  13.753  12.440
 9590W        W75070  13.120  23.170  11.566
 9591W        W75071  26.516  41.863   2.360
 9592W        W75072  41.415  29.619   1.254
 9593W        W75073  21.078  31.035   1.375
 9594W        W75074  18.620  43.981  11.928
 9595W        W75075  37.866   8.669  14.859
 9596W        W75076  10.636  30.994   2.351
 9597W        W75077   0.329  36.029   2.256
 9598W        W75078  28.652   7.698  14.856
 9599W        W75079  20.545  25.187   2.773
 9600W        W75080  43.443  33.070   2.352
 9601W        W75081  20.230   0.772   3.221
 9602W        W75082  29.433  27.677   3.778
 9603W        W75083   8.211  18.561   3.234
 9604W        W75084  10.192  26.649   0.286
 9605W        W75085  34.543  13.674   3.343
 9606W        W75086  16.180  14.187  13.793
 9607W        W75087  22.688  17.177  12.515
 9608W        W75088  25.517   9.311  11.377
 9609W        W75089  15.707  16.289  11.440
 9610W        W75090  21.062  38.565  14.475
 9611W        W75091   8.773  24.179  12.557
 9612W        W75092  33.466  26.597   1.696
 9613W        W75093  42.301  37.048   3.734
 9614W        W75094  17.737   3.322   2.683
 9615W        W75095  22.699   1.309   2.214
 9616W        W75096  34.080   5.823   1.374
 9617W        W75097  31.077  14.752  12.365
 9618W        W75098  15.601  16.659   3.647
 9619W        W75099  25.615   4.375  13.445
 9620W        W75100   5.698  17.677  13.334
 9621W        W75101  26.481  30.617  12.457
 9622W        W75102  43.786  11.285   4.227
 9623W        W75103  13.340  29.169  12.557
 9624W        W75104  25.590  28.459   2.766
 9625W        W75105   4.943  14.122  10.055
 9626W        W75106  36.064  35.972   2.824
 9627W        W75107  10.230  32.524   0.913
 9628W        W75108  33.970  44.921  11.428
 9629W        W75109  38.938  33.900  12.530
 9630W        W75110   8.276   8.278  10.554
 9631W        W75111  44.989   2.723   1.882
 9632W        W75112  34.077  36.926   4.760
 9633W        W75113  31.056  21.629   3.732
 9634W        W75114  24.490  37.343   4.760
 9635W        W75115  12.269  38.965   1.397
 9636W        W75116  13.834  35.025  11.583
 9637W        W75117   0.405  38.036   4.305
 9638W        W75118  44.837  27.643   4.705
 9639W        W75119  43.284  34.963  14.814
 9640W        W75120  20.526   7.326   1.861
 9641W        W75121   7.856  11.736  13.389
 9642W        W75122  25.503  21.219  14.857
 9643W        W75123  36.353   9.174  11.438
 9644W        W75124  43.764   7.187  13.317
 9645W        W75125  15.186  38.373  12.462
 9646W        W75126  16.175  40.816  10.920
 9647W        W75127  43.848  44.418   2.337
 9648W        W75128  29.570  23.548  13.443
 9649W        W75129  22.166  42.380  12.066
 9650W        W75130   9.795  34.952  13.323
 9651W        W75131  35.524   9.287  12.055
 9652W        W75132   6.355  24.977  10.426
 9653W        W75133   8.850  13.735  12.962
 9654W        W75134  19.536   0.446  14.823
 9655W        W75135  18.638   3.274   3.745
 9656W        W75136   3.913  14.324   9.922
 9657W        W75137  27.150  43.879   4.214
 9658W        W75138  24.211   1.348  11.533
 9659W        W75139  42.841  11.206  13.021
 9660W        W75140  37.405  16.797   0.388
 9661W        W75141  14.819  26.564  10.467
 9662W        W75142  31.626  11.839  14.339
 9663W        W75143  30.130   5.851   0.749
 9664W        W75144  25.208  13.836   2.241
 9665W        W75145  14.117  30.122  14.287
 9666W        W75146  44.795  37.924   0.872
 9667W        W75147  28.668   2.336  12.432
 9668W        W75148  16.607  44.309   0.323
 9669W        W75149  35.410  22.522   3.657
 9670W        W75150   1.897  30.630   2.302
 9671W        W75151  30.069  33.455   4.767
 9672W        W75152  24.009  34.895   4.300
 9673W        W75153  41.441  33.906  11.463
 9674W        W75154  22.632  34.369   4.312
 9675W        W75155  43.375  42.988   2.853
 9676W        W75156  13.147   0.455  13.932
 9677W        W75157  20.218  28.476  12.839
 9678W        W75158  11.853   8.166   3.735
 9679W        W75159  38.830  30.104   4.820
 9680W        W75160  22.584  34.602  14.963
 9681W        W75161   6.695  10.838   4.334
 9682W        W75162  44.329  33.601   1.844
 9683W        W75163  41.497  20.665   4.166
 9684W        W75164  30.524  28.116   4.149
 9685W        W75165  23.704  12.795  11.531
 9686W        W75166  38.915  42.457   3.185
 9687W        W75167  15.648  42.308  13.435
 9688W        W75168  10.328   9.384   0.931
 9689W        W75169   4.311  33.477   1.768
 9690W        W75170  30.144   1.239   2.718
 9691W        W75171   4.713  39.516   0.251
 9692W        W75172  34.868   1.467  11.439
 9693W        W75173  24.480  19.774   5.256
 9694W        W75174  21.653  22.997  10.918
 9695W        W75175  41.930  16.259   4.310
 9696W        W75176  27.033  19.135  10.607
 9697W        W75177  43.945  41.956  12.493
 9698W        W75178  44.259  22.501  10.964
 9699W        W75179   5.835  34.606   1.731
 9700W        W75180  36.391   1.773   1.790
 9701W        W75181  10.247   4.858   5.321
 9702W        W75182  30.042  42.370  13.513
 9703W        W75183   5.724   4.290   1.229
 9704W        W75184   6.901  39.985  11.544
 9705W        W75185   1.390  15.588  10.130
 9706W        W75186   8.873  30.638   3.162
 9707W        W75187  10.655  29.670  10.970
 9708W        W75188  14.640  30.997   4.285
 9709W        W75189  10.362  23.238   1.699
 9710W        W75190  39.321  40.507   1.448
 9711W        W75191   2.362   8.802   1.857
 9712W        W75192  21.204  34.550  13.477
 9713W        W75193  38.848   8.405  13.492
 9714W        W75194   4.850  14.685   2.316
 9715W        W75195   2.855  19.151  13.454
 9716W        W75196  42.843  44.378   4.174
 9717W        W75197  23.183  19.649  14.469
 9718W        W75198   1.924  17.261  13.982
 9719W        W75199  37.560  33.001  10.618
 9720W        W75200  20.155  43.340   0.905
 9721W        W75201   9.366  41.816  12.977
 9722W        W75202  38.878  29.044   0.404
 9723W        W75203  10.338  12.833  11.016
 9724W        W75204  14.620  17.257   0.294
 9725W        W75205  43.510  22.192  12.541
 9726W        W75206  11.801  26.022   1.357
 9727W        W75207   0.933  19.602  10.014
 9728W        W75208   2.457  12.635  10.888
 9729W        W75209  31.139  14.203   2.866
 9730W        W75210  20.096  37.087  10.456
 9731W        W75211  34.597  16.107   1.794
 9732W        W75212  27.580  11.796   4.782
 9733W        W75213  38.014   4.817   0.805
 9734W        W75214  39.885  28.112   0.465
 9735W        W75215  29.031  25.097  12.484
 9736W        W75216   1.467  44.406  14.785
 9737W        W75217  20.028  24.102  12.489
 9738W        W75218  36.438   7.835   1.245
 9739W        W75219  41.398  39.541   3.287
 9740W        W75220  24.042   3.284   4.153
 9741W        W75221   9.393  27.655   3.752
 9742W        W75222  34.021  38.858   1.306
 9743W        W75223   1.773  14.313  14.289
 9744W        W75224  30.435  29.555  13.491
 9745W        W75225   3.302  39.506   3.278
 9746W        W75226  37.427  22.503   3.825
 9747W        W75227  40.421  11.334  13.030
 9748W        W75228  41.422  44.819  12.984
 9749W        W75229  38.414  41.364   0.832
 9750W        W75230  31.098  27.455   1.310
 9751W        W75231  23.017  29.558   2.197
 9752W        W75232   9.796  17.205  14.505
 9753W        W75233  32.110  40.534   1.865
 9754W        W75234   7.254  31.941   3.687
 9755W        W75235  35.080  17.157  14.787
 9756W        W75236  16.093  40.969  14.958
 9757W        W75237  30.641  43.770  10.435
 9758W        W75238  37.415   7.782  12.947
 9759W        W75239  15.156   4.853   2.836
 9760W        W75240  16.708  31.147   0.866
 9761W        W75241  22.701   3.940  14.773
 9762W        W75242  20.570   1.824   0.894
 9763W        W75243   2.902  38.422   0.477
 9764W        W75244  29.482  37.516   2.334
 9765W        W75245  29.590  14.268  13.386
 9766W        W75246   3.920  16.295  10.495
 9767W        W75247  38.999  27.157   2.315
 9768W        W75248  36.012  42.934  12.919
 9769W        W75249  19.768  33.915  11.117
 9770W        W75250   0.765  15.721   9.938
 9771W        W75251  35.531  40.922  10.909
 9772W        W75252  43.337  37.942  14.779
 9773W        W75253  10.250  14.765  10.910
 9774W        W75254  44.784   7.292  12.961
 9775W        W75255  27.596  22.542   2.257
 9776W        W75256  29.954  31.976   4.732
 9777W        W75257  16.688  28.439  11.060
 9778W        W75258  30.646  38.403   5.151
 9779W        W75259   1.436  31.029  10.914
 9780W        W75260   6.266  27.052  14.017
 9781W        W75261  25.675  11.815   4.803
 9782W        W75262  14.818   8.395  13.368
 9783W        W75263  26.613  24.167   5.277
 9784W        W75264  23.718  27.138   3.817
 9785W        W75265   7.338  26.959  10.478
 9786W        W75266  29.615  44.291  10.023
 9787W        W75267  42.396  18.166   5.566
 9788W        W75268  11.304   7.844   4.274
 9789W        W75269  34.531  19.771   2.819
 9790W        W75270  24.153  43.985  13.438
 9791W        W75271  12.684   0.315  13.484
 9792W        W75272  36.496   0.272  14.775
 9793W        W75273  20.093  28.123  12.018
 9794W        W75274  29.929  18.784  13.018
 9795W        W75275  18.153  15.711   3.305
 9796W        W75276  22.683  33.605   3.254
 9797W        W75277  41.929   2.418  12.949
 9798W        W75278  37.853  34.393   0.806
 9799W        W75279   0.352  34.942   3.251
 9800W        W75280   0.950  27.142  11.055
 9801W        W75281   7.262   6.227  14.290
 9802W        W75282  34.521  28.641   4.597
 9803W        W75283  18.677  18.605   2.343
 9804W        W75284  37.885  28.990   3.237
 9805W        W75285   0.475  37.452  10.966
 9806W        W75286   9.254  13.655   1.238
 9807W        W75287  27.668   7.197  10.504
 9808W        W75288  44.494  13.193  14.016
 9809W        W75289  28.550   6.256   2.866
 9810W        W75290   1.750  23.685  14.463
 9811W        W75291   4.228   9.769  12.481
 9812W        W75292  26.663   0.400  11.924
 9813W        W75293   9.825  27.550   1.305
 9814W        W75294  36.885  33.088  14.432
 9815W        W75295  35.420  24.520  12.550
 9816W        W75296   6.346  19.160  14.877
 9817W        W75297  21.200  21.539  12.999
 9818W        W75298  43.981  17.662   3.353
 9819W        W75299  30.647   7.887  14.397
 9820W        W75300  10.315  22.072   3.240
 9821W        W75301  14.291  10.284   5.242
 9822W        W75302  13.749  20.208   1.708
 9823W        W75303  37.956   0.857   4.623
 9824W        W75304  41.381  30.529  13.996
 9825W        W75305   4.769  15.696   4.832
 9826W        W75306  20.648  25.623  12.520
 9827W        W75307  33.493  17.653   4.759
 9828W        W75308  12.352  28.526  14.311
 9829W        W75309  39.533  22.199  12.019
 9830W        W75310  33.968  12.816   0.927
 9831W        W75311  14.251  32.051   4.254
 9832W        W75312  33.897   3.233  13.062
 9833W        W75313  14.660  40.459   1.250
 9834W        W75314  32.412  34.452  10.596
 9835W        W75315  19.716  25.073  14.781
 9836W        W75316  44.424  39.462  12.825
 9837W        W75317  40.314  11.368  12.025
 9838W        W75318  10.673  33.491  10.089
 9839W        W75319  18.245  14.680  10.561
 9840W        W75320  36.568   5.297   1.697
 9841W        W75321  11.753  26.516   0.882
 9842W        W75322  43.946  31.952   4.275
 9843W        W75323   0.924  15.205  10.536
 9844W        W75324  36.997  43.483   0.904
 9845W        W75325  21.238   0.811   3.366
 9846W        W75326  37.841  15.103  11.122
 9847W        W75327   7.378  29.484  11.443
 9848W        W75328  41.431   0.267  12.543
 9849W        W75329   6.393   2.737  11.509
 9850W        W75330   1.374  31.958  13.912
 9851W        W75331  28.638  14.246  12.414
 9852W        W75332  19.537  20.718   1.329
 9853W        W75333   7.830  44.997   4.261
 9854W        W75334   6.283  15.778  13.469
 9855W        W75335  16.670  25.022  13.324
 9856W        W75336   1.869  17.602   0.416
 9857W        W75337  20.068  43.387  11.545
 9858W        W75338  43.868   4.750   4.130
 9859W        W75339  26.476  31.952  12.383
 9860W        W75340  33.116   1.274  14.807
 9861W        W75341  29.576  19.669   3.672
 9862W        W75342  16.074  18.124  11.423
 9863W        W75343  38.478  22.679  11.604
 9864W        W75344   3.867  29.096   3.316
 9865W        W75345  41.922  10.764  14.456
 9866W        W75346  44.006  20.724   0.456
 9867W        W75347   4.911  27.966   2.210
 9868W        W75348   1.935   7.338   1.431
 9869W        W75349  14.253   2.922  13.384
 9870W        W75350  27.566  38.027  13.825
 9871W        W75351  19.215   8.796  11.595
 9872W        W75352  25.547  34.890   4.613
 9873W        W75353  18.183   3.423   1.811
 9874W        W75354  16.246  32.636  12.016
 9875W        W75355   5.779  44.307  11.891
 9876W        W75356   4.238  16.115   3.148
 9877W        W75357  30.457  38.559   2.871
 9878W        W75358  29.123  22.231  13.349
 9879W        W75359  20.592   8.666  14.339
 9880W        W75360  38.832  35.480   1.855
 9881W        W75361   0.805  38.975   1.713
 9882W        W75362  23.004  38.891   4.797
 9883W        W75363  11.174   8.748   5.250
 9884W        W75364  36.559   7.204   3.871
 9885W        W75365  22.194  26.673   2.759
 9886W        W75366  12.638  12.222   1.451
 9887W        W75367  14.262   6.207  10.465
 9888W        W75368   9.861  19.587  13.002
 9889W        W75369  28.566   0.466   0.946
 9890W        W75370  39.404  24.129   4.314
 9891W        W75371  34.542  43.372  10.472
 9892W        W75372  25.211   4.770   0.430
 9893W        W75373  38.357  30.123   1.281
 9894W        W75374  38.987   0.914  10.055
 9895W        W75375  44.961   6.875  12.003
 9896W        W75376  44.327  40.396  10.567
 9897W        W75377  30.516  11.315   1.928
 9898W        W75378   7.231  39.490  11.025
 9899W        W75379  22.601   4.774   4.300
 9900W        W75380  11.171   6.387  12.917
 9901W        W75381  29.495  18.087  11.464
 9902W        W75382  26.183  10.709   2.376
 9903W        W75383  41.410  11.806   1.382
 9904W        W75384  34.525  40.844   1.838
 9905W        W75385   3.433  19.754   3.342
 9906W        W75386   4.287  24.039  13.847
 9907W        W75387  36.962  36.985   2.408
 9908W        W75388  20.163   4.944  14.006
 9909W        W75389   9.262  23.101  14.843
 9910W        W75390  32.937  17.759   4.811
 9911W        W75391   8.726   6.192   4.233
 9912W        W75392  18.162  16.306   1.866
 9913W        W75393  11.740  33.582   4.754
 9914W        W75394  39.881  14.118   4.626
 9915W        W75395  44.297  35.875  13.000
 9916W        W75396   7.707  42.002   4.187
 9917W        W75397   8.315  26.031   2.412
 9918W        W75398  24.224   3.940  12.413
 9919W        W75399  26.082  14.771   2.861
 9920W        W75400  13.834  23.513   1.326
 9921W        W75401  24.067  26.497   2.823
 9922W        W75402   2.897  40.389   4.244
 9923W        W75403  29.424  37.571   4.192
 9924W        W75404   2.886  10.871   2.290
 9925W        W75405  23.067  35.865   4.814
 9926W        W75406  27.940   0.855  11.587
 9927W        W75407  19.664  26.062   2.800
 9928W        W75408  44.959  28.076  12.865
 9929W        W75409  20.154  38.477  13.361
 9930W        W75410  27.015  30.040  13.044
 9931W        W75411  26.123  23.532  12.920
 9932W        W75412  44.264  10.819   1.905
 9933W        W75413  16.283  26.675  10.963
 9934W        W75414  13.117  20.080  13.515
 9935W        W75415  38.451  10.306   3.161
 9936W        W75416   9.202   2.455  12.458
 9937W        W75417  14.744  43.991   0.833
 9938W        W75418  36.063  39.409  13.431
 9939W        W75419  17.173   6.363   4.350
 9940W        W75420  12.284  23.658  11.561
 9941W        W75421   5.339  44.886   4.604
 9942W        W75422   9.395  13.669   4.120
 9943W        W75423  25.971  19.220   2.883
 9944W        W75424  28.094  33.596   2.356
 9945W        W75425  30.601  24.199   0.814
 9946W        W75426  22.075  28.954   2.202
 9947W        W75427   2.235   9.355  14.497
 9948W        W75428   1.425  32.068  13.055
 9949W        W75429   0.923   1.746  12.005
 9950W        W75430  25.213  33.984   0.749
 9951W        W75431  21.043  20.228   3.753
 9952W        W75432  16.295  37.930  14.866
 9953W        W75433   6.849  40.851   0.468
 9954W        W75434  39.000   6.844  11.607
 9955W        W75435  25.158  42.354   0.382
 9956W        W75436   7.823   9.208   4.773
 9957W        W75437   8.281  38.916   4.282
 9958W        W75438   3.766  30.130  12.838
 9959W        W75439   9.791  21.608   0.269
 9960W        W75440  34.921  22.171   3.791
 9961W        W75441  17.079  33.517   1.802
 9962W        W75442  19.189  44.891   3.870
 9963W        W75443  24.606  20.525  13.486
 9964W        W75444  31.971  20.757   4.143
 9965W        W75445  31.531  16.695   3.311
 9966W        W75446   1.834   7.715  12.833
 9967W        W75447   7.758  13.761  12.921
 9968W        W75448   2.245  11.341  11.044
 9969W        W75449  36.965   1.291   2.198
 9970W        W75450   7.671  11.199  13.976
 9971W        W75451  38.355  30.080  10.939
 9972W        W75452  43.269   4.794   0.281
 9973W        W75453   9.763  23.680   2.867
 9974W        W75454  38.427   4.300  11.550
 9975W        W75455  31.631  27.059   1.261
 9976W        W75456  37.394  13.136  11.919
 9977W        W75457  34.115  31.405   2.868
 9978W        W75458   5.271   9.689   1.934
 9979W        W75459  13.180  16.574   1.287
 9980W        W75460  24.008   7.232  14.325
 9981W        W75461  22.167  31.022   1.238
 9982W        W75462  35.093  39.849  12.872
 9983W        W75463  16.710  14.721   1.705
 9984W        W75464  28.173  12.314   1.809
 9985W        W75465  10.153  29.603  11.958
 9986W        W75466   6.292  35.397  12.986
 9987W        W75467   4.400  11.131   3.653
 9988W        W75468  25.584  11.293  10.990
 9989W        W75469  40.460  20.130  10.454
 9990W        W75470  16.101  42.029  13.049
 9991W        W75471  10.762   2.869  14.489
 9992W        W75472  33.412  11.185  11.379
 9993W        W75473  38.414  11.312   3.244
 9994W        W75474  44.785  26.609   1.895
 9995W        W75475  14.774  31.615   2.369
 9996W        W75476  24.221   3.319   4.751
 9997W        W75477  11.168  11.244   0.282
 9998W        W75478  36.901  40.314  13.062
 9999W        W75479  11.858  30.654  14.455
10000W        W75480  25.632   4.316   2.809
10001W        W75481   0.894   7.375   3.860
10002W        W75482  21.515   3.725  10.466
10003W        W75483  38.519  16.306   3.329
10004W        W75484  27.533   5.300  10.894
10005W        W75485  16.782  30.156  10.945
10006W        W75486  10.165   0.477  13.007
10007W        W75487  43.768   6.391  12.881
10008W        W75488  14.259  17.107   1.710
10009W        W75489  13.727   3.318  12.947
10010W        W75490  24.681   6.363   2.377
10011W        W75491   9.754  38.875   4.811
10012W        W75492  27.075  41.538   4.624
10013W        W75493   5.197  31.150   0.751
10014W        W75494   8.279  44.361   1.343
10015W        W75495  30.909   9.834  11.959
10016W        W75496  10.741  13.146  14.276
10017W        W75497  17.271   7.792   0.829
10018W        W75498  35.041   9.818   2.314
10019W        W75499   0.294  36.488  13.971
10020W        W75500  26.486   1.264  10.533
10021W        W75501  21.518  28.526  10.453
10022W        W75502  20.640  38.996  11.534
10023W        W75503  26.515  19.207   3.235
10024W        W75504  25.628  25.665  10.474
10025W        W75505  21.755  26.957   4.313
10026W        W75506  38.824  13.129  14.859
10027W        W75507  40.349  30.531  12.944
10028W        W75508   3.453  30.023  14.489
10029W        W75509  31.472   6.850  13.852
10030W        W75510  30.610  29.601   3.241
10031W        W75511   6.853  32.629  14.788
10032W        W75512  43.480  21.076   0.318
10033W        W75513  18.070  23.601  10.623
10034W        W75514   1.872  15.696   0.885
10035W        W75515  41.474  38.947   5.234
10036W        W75516  38.035  15.634  14.028
10037W        W75517   9.734   8.247  12.467
10038W        W75518  16.607  38.057   2.692
10039W        W75519   9.772  38.966  13.505
10040W        W75520   9.668  16.130   4.706
10041W        W75521   4.449   9.816  14.778
10042W        W75522   4.280   4.833   2.418
10043W        W75523  37.486  33.066  10.145
10044W        W75524  26.119   8.799  11.489
10045W        W75525  11.158  38.873   1.874
10046W        W75526  31.933  44.855  12.027
10047W        W75527  10.305  20.095   1.732
10048W        W75528  29.976  27.178  11.118
10049W        W75529  22.119   9.232  14.516
10050W        W75530  22.557  21.692   3.203
10051W        W75531  37.476  28.615   0.840
10052W        W75532  14.599  24.503   3.680
10053W        W75533  17.773   2.351  11.970
10054W        W75534  21.665  14.650  13.377
10055W        W75535  38.558   7.301   2.766
10056W        W75536  37.872  38.368   1.409
10057W        W75537  42.975  18.752  11.566
10058W        W75538  44.924  32.508  13.027
10059W        W75539  30.084   0.830  11.106
10060W        W75540  33.002   0.957  11.585
10061W        W75541  36.006  20.253  11.454
10062W        W75542  10.153  27.941   4.720
10063W        W75543  11.228  14.621   3.247
10064W        W75544  11.724  29.448  10.410
10065W        W75545  43.906  44.439  11.413
10066W        W75546   7.338  30.110  13.894
10067W        W75547   3.866  28.168   2.853
10068W        W75548   4.299  14.133   3.761
10069W        W75549  33.430  22.117  13.848
10070W        W75550  36.911  41.482  12.388
10071W        W75551  39.869  38.464   3.756
10072W        W75552  12.661  24.491  12.385
10073W        W75553   7.683  32.914   3.269
10074W        W75554  35.362  32.437  11.510
10075W        W75555  20.084  29.490   2.704
10076W        W75556  34.580   5.712  10.442
10077W        W75557  23.617  43.863   1.260
10078W        W75558  18.674  18.588   3.329
10079W        W75559  31.439  36.857   2.236
10080W        W75560   1.397  29.666   0.914
10081W        W75561  11.217  38.433  14.350
10082W        W75562  36.881   2.445   2.749
10083W        W75563  27.577  12.679  13.021
10084W        W75564  13.809   6.292  11.564
10085W        W75565  14.324  15.157   2.347
10086W        W75566  20.712  10.137   3.224
10087W        W75567  43.333  25.651  10.472
10088W        W75568  40.336  32.915  14.006
10089W        W75569  20.659   1.284  14.960
10090W        W75570  28.112   7.682   2.226
10091W        W75571   1.327  31.611   3.830
10092W        W75572  32.569   6.419   3.693
10093W        W75573  12.216  21.167   1.326
10094W        W75574  34.970  12.663  10.920
10095W        W75575  27.192  37.534   1.367
10096W        W75576  21.056  21.152   1.341
10097W        W75577  31.027  44.376   2.887
10098W        W75578   1.952  11.830   4.220
10099W        W75579  41.026  27.144   1.236
10100W        W75580  13.830   7.298  10.526
10101W        W75581  11.336  26.579  13.325
10102W        W75582  38.941  23.615   0.246
10103W        W75583  37.833  24.029  11.882
10104W        W75584   1.917  39.986   4.816
10105W        W75585  22.079  19.685   1.292
10106W        W75586   4.807  18.262   1.438
10107W        W75587  12.225  27.018   1.273
10108W        W75588  16.648  27.151  13.897
10109W        W75589  27.197  35.066   3.354
10110W        W75590  21.577  41.414  13.879
10111W        W75591  19.139  25.187   1.696
10112W        W75592   9.307  17.695  13.424
10113W        W75593  26.691  25.152   4.806
10114W        W75594  30.087  23.699   2.325
10115W        W75595   2.254  35.601  14.411
10116W        W75596  29.117  15.323   1.444
10117W        W75597  23.575  30.515   3.719
10118W        W75598   9.738  32.632  11.954
10119W        W75599  12.131  12.743  13.505
10120W        W75600  13.812  29.435  10.936
10121W        W75601  16.296  36.366  10.107
10122W        W75602  10.186  18.614  12.544
10123W        W75603   4.703  22.570   2.806
10124W        W75604   0.454  27.010   3.750
10125W        W75605  20.744  40.483  14.797
10126W        W75606  14.731  12.260   3.219
10127W        W75607  35.033  41.952  11.509
10128W        W75608  26.134  17.228  12.414
10129W        W75609   8.674  23.166  11.525
10130W        W75610  22.573  22.118   2.383
10131W        W75611  24.031  20.051   4.254
10132W        W75612  27.568  14.161   4.806
10133W        W75613  26.030  40.921   4.146
10134W        W75614  18.242  23.032  14.432
10135W        W75615  32.495  10.223  14.512
10136W        W75616  42.527  27.691   4.276
10137W        W75617  33.524  24.707  10.967
10138W        W75618   2.317  25.029   0.331
10139W        W75619  41.427   0.299   4.714
10140W        W75620  44.865  35.532  14.399
10141W        W75621  29.957  20.206  12.954
10142W        W75622   5.841  36.889   4.221
10143W        W75623  19.134  33.604  11.924
10144W        W75624   3.933   4.251   1.264
10145W        W75625  37.497  32.938  11.399
10146W        W75626  36.553   8.406  12.395
10147W        W75627  41.494  27.536  12.433
10148W        W75628  21.670   6.805  14.367
10149W        W75629  26.594   9.811  10.517
10150W        W75630  35.979  39.987  14.441
10151W        W75631  31.554   9.261   1.771
10152W        W75632  25.628  16.696  11.117
10153W        W75633  37.387  39.355   4.330
10154W        W75634  39.557   3.270  10.509
10155W        W75635  38.950  33.976  13.814
10156W        W75636  22.518  14.631  12.370
10157W        W75637  18.657   3.305  13.871
10158W        W75638  34.959  21.554   4.758
10159W        W75639  32.959  23.664  11.100
10160W        W75640   1.285  39.322  11.931
10161W        W75641  25.115  22.722   2.780
10162W        W75642  32.517  15.119  11.415
10163W        W75643  21.641  42.021   2.883
10164W        W75644  26.121  27.555  10.534
10165W        W75645  24.139  31.011  13.453
10166W        W75646  33.560  27.114  11.527
10167W        W75647  26.580   3.742   3.315
10168W        W75648  25.548  44.344  11.497
10169W        W75649   7.666  32.034  13.532
10170W        W75650  17.147  44.838   2.794
10171W        W75651  12.118   4.289  12.927
10172W        W75652  18.729  17.727  11.454
10173W        W75653   2.808   2.794   1.265
10174W        W75654  15.649  18.776  13.995
10175W        W75655  35.032   4.859   5.162
10176W        W75656  10.199  27.494  13.891
10177W        W75657  41.344  40.872  13.472
10178W        W75658  38.067  33.516   2.693
10179W        W75659  26.096  36.068   0.264
10180W        W75660  22.178  26.515   0.277
10181W        W75661  10.314  20.587  14.782
10182W        W75662   2.840  20.533  12.030
10183W        W75663  18.641  27.540  14.418
10184W        W75664  18.674  15.758  10.076
10185W        W75665  21.521  30.630  13.829
10186W        W75666  36.380  34.549  14.780
10187W        W75667  11.147  39.837   2.284
10188W        W75668  35.423  25.969   4.643
10189W        W75669   9.223   5.865   4.135
10190W        W75670  41.463   4.244   0.905
10191W        W75671  40.536  25.015   0.334
10192W        W75672  33.930  16.298  14.924
10193W        W75673  41.887  21.678  11.511
10194W        W75674  21.727  12.785  13.038
10195W        W75675  20.732  12.279  11.434
10196W        W75676   9.284   0.350   0.296
10197W        W75677  36.027  29.669   4.215
10198W        W75678   0.415   8.348   3.151
10199W        W75679  37.552   7.677   3.348
10200W        W75680   3.332  14.286  11.585
10201W        W75681  44.857   4.424   4.228
10202W        W75682   4.360   2.772   4.237
10203W        W75683  29.505  41.372   4.791
10204W        W75684   0.250  41.298  10.423
10205W        W75685  42.322  20.135   3.743
10206W        W75686  21.229  42.493   0.951
10207W        W75687  14.630  20.704   1.431
10208W        W75688  24.160  41.385  11.015
10209W        W75689  40.876  10.145  11.549
10210W        W75690  23.540  40.885   0.269
10211W        W75691  21.164  28.990   3.184
10212W        W75692  22.610  22.515   0.480
10213W        W75693  35.998  44.931   0.823
10214W        W75694  39.825   3.306   0.459
10215W        W75695  23.119  15.709  14.334
10216W        W75696  24.058   9.729  11.103
10217W        W75697   5.203   4.328  11.496
10218W        W75698  22.549   6.915  12.399
10219W        W75699  13.173  10.383  10.144
10220W        W75700  29.658  37.048  10.590
10221W        W75701  42.965   8.292  10.479
10222W        W75702  30.009  43.906   4.702
10223W        W75703  27.132  18.644   4.219
10224W        W75704   0.914  13.268   4.717
10225W        W75705  44.814  40.408   2.715
10226W        W75706  21.648  43.854   2.719
10227W        W75707  12.253  22.211  12.052
10228W        W75708  18.754   2.356  13.522
10229W        W75709   4.447  36.404   4.778
10230W        W75710  28.576  35.481   1.400
10231W        W75711  36.018  28.127   3.790
10232W        W75712  23.205  36.845  13.418
10233W        W75713   7.333   0.877  11.104
10234W        W75714   1.374  16.595  10.566
10235W        W75715  37.941  13.709  10.600
10236W        W75716   9.740   5.360   2.819
10237W        W75717  41.987   7.193  13.424
10238W        W75718   4.752   1.943  13.859
10239W        W75719  30.047  42.515  12.075
10240W        W75720  14.825  10.326   3.356
10241W        W75721  43.449  24.147   1.300
10242W        W75722  17.067   3.349   5.177
10243W        W75723  26.986  24.001   0.360
10244W        W75724  10.773  35.446  14.029
10245W        W75725  18.729  10.864  14.282
10246W        W75726  24.207  10.379   3.169
10247W        W75727  26.661  44.312  14.028
10248W        W75728  35.025   0.336   4.620
10249W        W75729  10.350  24.629  12.409
10250W        W75730  18.100  34.932   1.820
10251W        W75731  12.168  28.512   4.229
10252W        W75732  33.579  33.411  10.512
10253W        W75733   2.946  26.963   0.480
10254W        W75734  21.580  20.589   4.181
10255W        W75735   3.914   8.324  11.414
10256W        W75736  16.238  12.186  10.600
10257W        W75737  13.328  12.821   4.815
10258W        W75738  11.769  12.357   4.629
10259W        W75739  26.130   0.478   2.688
10260W        W75740  24.519   0.422  12.548
10261W        W75741  14.106  25.660   4.169
10262W        W75742  40.987  37.966   3.259
10263W        W75743   8.747  20.143  12.837
10264W        W75744   9.676  14.250  12.359
10265W        W75745  22.620  15.755   3.694
10266W        W75746  24.674  33.049   2.252
10267W        W75747  40.400  34.438   2.236
10268W        W75748  42.904  21.588   1.817
10269W        W75749  18.612  39.331  12.824
10270W        W75750  11.170  26.557  11.483
10271W        W75751  15.734   9.254   3.286
10272W        W75752  26.053  14.748   4.754
10273W        W75753  43.302  43.004  10.914
10274W        W75754   0.988  29.160   1.406
10275W        W75755  32.559  27.490   2.276
10276W        W75756   6.839  26.164  14.889
10277W        W75757   7.850  29.928  11.515
10278W        W75758   9.672  16.296  13.895
10279W        W75759  13.122  35.867   1.805
10280W        W75760  38.450   5.757  11.397
10281W        W75761  27.512   2.431  13.885
10282W        W75762   6.839  37.581  12.995
10283W        W75763   6.787   7.733  13.845
10284W        W75764   1.771  26.137  14.339
10285W        W75765   2.780   8.803   0.840
10286W        W75766  37.471  13.245   4.279
10287W        W75767  29.494  33.514   3.313
10288W        W75768  15.619  28.674   2.278
10289W        W75769  40.373   2.311   3.343
10290W        W75770  31.020  30.071   2.847
10291W        W75771  44.780   1.871   1.866
10292W        W75772   9.385  43.997  14.854
10293W        W75773  32.009   9.710  11.377
10294W        W75774  27.585  37.431   2.369
10295W        W75775  18.234  35.394   2.869
10296W        W75776  41.928  11.652  10.416
10297W        W75777  26.484  19.596  12.986
10298W        W75778  42.027  35.402  12.838
10299W        W75779  11.843   6.794   2.818
10300W        W75780  11.866  21.594  11.900
10301W        W75781  32.514  36.505  13.793
10302W        W75782   5.877  33.486   1.792
10303W        W75783   3.260  17.668   0.726
10304W        W75784   6.836  37.072  12.524
10305W        W75785  28.001   4.847  13.881
10306W        W75786  34.582   3.429   2.846
10307W        W75787   5.259  20.537  12.040
10308W        W75788  44.761  41.825  12.041
10309W        W75789  35.989  22.714   4.643
10310W        W75790  35.979  37.896  10.931
10311W        W75791   9.758  41.874  14.376
10312W        W75792  21.724  29.031   0.374
10313W        W75793  40.431  17.199  10.972
10314W        W75794  22.522  13.238  13.935
10315W        W75795  41.926   5.835  12.479
10316W        W75796   8.361  17.274   3.355
10317W        W75797  23.055  19.067  12.835
10318W        W75798  13.730  29.976  13.512
10319W        W75799  35.854  17.202  11.098
10320W        W75800  10.371  25.497   3.171
10321W        W75801   4.847  41.292  10.104
10322W        W75802  35.959  41.840  10.557
10323W        W75803  14.113  38.937  13.324
10324W        W75804  28.465  32.045   2.753
10325W        W75805  39.036  19.536   4.346
10326W        W75806  29.089  32.062  14.805
10327W        W75807  38.420  32.460   3.650
10328W        W75808  14.174  26.525  13.425
10329W        W75809  42.468   8.357   5.128
10330W        W75810  25.038   0.879  14.013
10331W        W75811  39.428  37.940  11.033
10332W        W75812  27.181  43.451  11.941
10333W        W75813  40.031  21.550  14.958
10334W        W75814  12.277   7.700  14.845
10335W        W75815  13.747  12.623   3.170
10336W        W75816  38.074  26.961   3.216
10337W        W75817  39.482   7.345  14.408
10338W        W75818   7.685  23.539  10.081
10339W        W75819  20.674  24.686  12.483
10340W        W75820  38.355  34.961   1.904
10341W        W75821  30.025  29.437   2.902
10342W        W75822  25.072  25.962   1.812
10343W        W75823   2.818  33.065   1.213
10344W        W75824  31.096  21.714   1.864
10345W        W75825  41.334  22.181  12.975
10346W        W75826  17.257  43.948   0.262
10347W        W75827  32.456  10.839   2.187
10348W        W75828   0.893  38.848  12.038
10349W        W75829   0.313  29.068   3.265
10350W        W75830   6.743   5.839  12.444
10351W        W75831   5.921  34.444   0.297
10352W        W75832  20.534  17.183   1.851
10353W        W75833  33.432  24.482  10.612
10354W        W75834  20.082  36.405  12.946
10355W        W75835  20.159   5.822  12.955
10356W        W75836  28.472  41.944   4.218
10357W        W75837  38.553  29.932  10.472
10358W        W75838   9.297  25.167   4.291
10359W        W75839  30.065  31.047   4.179
10360W        W75840   1.420  23.056   1.400
10361W        W75841   6.200  10.262   3.250
10362W        W75842  35.487   2.839   0.966
10363W        W75843   8.194  21.541   3.157
10364W        W75844  35.995  39.523   2.413
10365W        W75845  18.579  33.900   0.935
10366W        W75846  14.620  10.832   2.200
10367W        W75847  12.671  14.230  11.489
10368W        W75848  41.997  24.631  11.034
10369W        W75849  21.652  12.211   2.817
10370W        W75850  43.291  31.962   0.929
10371W        W75851  20.131  36.461   3.355
10372W        W75852  14.204  42.845  14.908
10373W        W75853  20.094   1.370   2.250
10374W        W75854  11.735  31.632   1.870
10375W        W75855   9.388  27.062   0.375
10376W        W75856  28.118  21.258   5.197
10377W        W75857  30.548   5.266  12.355
10378W        W75858  18.603   9.179   4.798
10379W        W75859  21.072  16.182  13.486
10380W        W75860  44.502   5.389   2.672
10381W        W75861  11.318   2.288   3.226
10382W        W75862  39.445   3.320   0.478
10383W        W75863  14.243  30.485  10.586
10384W        W75864   1.253  20.157  10.569
10385W        W75865  18.562  30.526   2.338
10386W        W75866  25.141  30.557  13.855
10387W        W75867  24.591  22.689   0.269
10388W        W75868   4.327  16.793  11.441
10389W        W75869  13.722   9.235   1.398
10390W        W75870  32.954  24.620  10.509
10391W        W75871   6.678   9.227   0.260
10392W        W75872  36.031  39.994   3.773
10393W        W75873  20.706  18.677  10.554
10394W        W75874  18.643  23.234  11.416
10395W        W75875  30.621  42.848  12.880
10396W        W75876  26.090  19.169  11.069
10397W        W75877  33.618  15.308  13.953
10398W        W75878  28.497  44.276  13.935
10399W        W75879   2.741  40.323  13.851
10400W        W75880  26.992  13.825  14.793
10401W        W75881  38.820  33.063   0.444
10402W        W75882  16.725  19.091   4.335
10403W        W75883  43.487  23.492   2.405
10404W        W75884  44.405   7.402   3.167
10405W        W75885  43.889  21.724   1.411
10406W        W75886  10.264  43.901   3.328
10407W        W75887  25.012  22.517  10.427
10408W        W75888  44.783   9.665  12.516
10409W        W75889  10.212  11.752   4.175
10410W        W75890   7.798  28.993   1.448
10411W        W75891  16.107  24.053  13.873
10412W        W75892  22.128  11.232   2.247
10413W        W75893  16.190  28.089   2.888
10414W        W75894  14.178  42.297   1.790
10415W        W75895  44.289   5.279   1.375
10416W        W75896  16.141  30.095   1.410
10417W        W75897  34.969   2.414  10.468
10418W        W75898   8.319   5.224  12.470
10419W        W75899  36.849  23.612   4.313
10420W        W75900  13.624  21.541   2.404
10421W        W75901   8.263  17.666  10.966
10422W        W75902  39.386  14.834   4.794
10423W        W75903  12.736  44.316   4.759
10424W        W75904  10.211  12.856   0.829
10425W        W75905  12.129  35.566   0.382
10426W        W75906   0.286  30.568  11.933
10427W        W75907  39.923  28.067  13.381
10428W        W75908  17.228   5.743   2.351
10429W        W75909  24.996  17.156   2.238
10430W        W75910  41.030  41.334   1.721
10431W        W75911  30.159  41.974   0.762
10432W        W75912  35.095  30.139  12.991
10433W        W75913  37.967  42.796   1.247
10434W        W75914  20.061   9.701   1.277
10435W        W75915  43.281  31.062  14.785
10436W        W75916  31.448   3.768  10.515
10437W        W75917   2.351  38.960  14.318
10438W        W75918  13.321   0.870  11.551
10439W        W75919  25.530  37.970  12.971
10440W        W75920   1.281   9.332  13.460
10441W        W75921  13.786  27.456   0.884
10442W        W75922  43.907  12.158   4.710
10443W        W75923  14.166  28.619  12.061
10444W        W75924   5.721  29.071   1.918
10445W        W75925  10.719  39.495  14.472
10446W        W75926  12.802   0.339  13.810
10447W        W75927  25.682  37.375   2.723
10448W        W75928  26.024   7.283  12.024
10449W        W75929  44.498   8.385  10.928
10450W        W75930  35.001  16.620   1.887
10451W        W75931  21.261  23.175   2.215
10452W        W75932  41.816  41.861   4.732
10453W        W75933  22.594   2.738  10.115
10454W        W75934  28.579   2.289  11.523
10455W        W75935  35.493  32.122  13.340
10456W        W75936  26.590  18.680   3.826
10457W        W75937  10.807  34.924  11.892
10458W        W75938  43.343  26.205  12.446
10459W        W75939  38.403  19.573  11.082
10460W        W75940  42.465  44.899   2.691
10461W        W75941   5.415  17.104  11.948
10462W        W75942  31.421  37.017   1.806
10463W        W75943  22.036   1.323  13.843
10464W        W75944  21.095   3.357   1.826
10465W        W75945  31.151   7.751  14.870
10466W        W75946  14.150  42.396  13.853
10467W        W75947  41.829  21.559  12.510
10468W        W75948   3.890  12.802   0.450
10469W        W75949  30.032  22.208   1.815
10470W        W75950  14.682   0.310   2.322
10471W        W75951  35.508  22.197  12.081
10472W        W75952  14.635  38.051   3.800
10473W        W75953   1.812  43.474   2.302
10474W        W75954  18.693  29.038   3.207
10475W        W75955  14.709  23.164   0.919
10476W        W75956  40.406  26.111   0.760
10477W        W75957  28.136  27.602  13.316
10478W        W75958  28.162  26.460  12.062
10479W        W75959  39.347  23.121   0.405
10480W        W75960  22.248  37.928  14.276
10481W        W75961   6.296  16.172  11.125
10482W        W75962  28.170   2.870   3.824
10483W        W75963   6.311  33.985   4.222
10484W        W75964  11.277  35.074   4.749
10485W        W75965  13.127  18.081   3.756
10486W        W75966  24.134  44.822  11.898
10487W        W75967  38.837  37.026   2.674
10488W        W75968  42.395  38.541  11.992
10489W        W75969  33.994  32.995   3.262
10490W        W75970  27.482  28.544   3.666
10491W        W75971  26.036   0.285   3.219
10492W        W75972  37.933  18.280  13.031
10493W        W75973  37.396  41.529  14.790
10494W        W75974  40.866  17.276   3.309
10495W        W75975  23.180  24.655   1.377
10496W        W75976  26.489  30.091   4.136
10497W        W75977   8.779   8.225   4.652
10498W        W75978  33.917  18.211  12.351
10499W        W75979  31.932  38.955  13.935
10500W        W75980  16.310   2.352  12.498
10501W        W75981  18.569   7.691  14.857
10502W        W75982  17.789   1.390  12.339
10503W        W75983  24.543  43.335  14.368
10504W        W75984  33.463  17.096  10.512
10505W        W75985  39.430  32.507  11.017
10506W        W75986  26.135  14.820  14.387
10507W        W75987  36.532  26.159  12.024
10508W        W75988  16.219   9.850  12.393
10509W        W75989  38.838  30.566   0.480
10510W        W75990  33.082   0.427   0.358
10511W        W75991  13.832   0.872  14.333
10512W        W75992  41.306  37.081  14.995
10513W        W75993  33.958  33.562   3.323
10514W        W75994  20.179  38.883   2.704
10515W        W75995   8.841  33.059   3.269
10516W        W75996  29.639  36.473   2.671
10517W        W75997  21.085  32.944  10.446
10518W        W75998  35.962   1.782   1.276
10519W        W75999  26.163  10.317  11.500
10520W        W76000  10.771   3.379  14.355
10521W        W76001  21.164  14.788  11.026
10522W        W76002   8.349  35.437  14.785
10523W        W76003  11.363  41.897  14.951
10524W        W76004  16.691  42.888  12.546
10525W        W76005  42.494  36.408   1.866
10526W        W76006  37.485  21.615   4.156
10527W        W76007  15.251  11.252  11.387
10528W        W76008  39.983  15.149  13.910
10529W        W76009  41.032  17.690   0.900
10530W        W76010  28.032  29.502  11.001
10531W        W76011  33.916  13.210  11.975
10532W        W76012  26.621  21.113  11.006
10533W        W76013  31.070   6.218  12.972
10534W        W76014  31.465  36.376   1.252
10535W        W76015   5.718   3.917   2.813
10536W        W76016  44.993  27.964   0.864
10537W        W76017  16.197   7.405  12.086
10538W        W76018   1.372  21.674  11.020
10539W        W76019   8.407  31.939   3.227
10540W        W76020  30.065   9.759  11.595
10541W        W76021  24.197  33.995  13.924
10542W        W76022  20.240  20.134   4.125
10543W        W76023  23.545  10.294  14.771
10544W        W76024  24.169  33.597   4.604
10545W        W76025   4.874  37.989   3.327
10546W        W76026  40.531  12.749   5.262
10547W        W76027  35.105  16.576  10.598
10548W        W76028   0.830  10.810   1.860
10549W        W76029  13.804  42.517   3.843
10550W        W76030  32.401   4.878   0.745
10551W        W76031   4.935  27.096  14.844
10552W        W76032   7.771  37.035   4.159
10553W        W76033  18.786  11.189  11.081
10554W        W76034   8.377  26.467  12.370
10555W        W76035  20.098   1.463   4.307
10556W        W76036  18.295  17.591  12.348
10557W        W76037   0.783  33.019  12.355
10558W        W76038  21.079  20.538  11.378
10559W        W76039  33.438  44.804   0.736
10560W        W76040  25.476  30.086  14.388
10561W        W76041   9.888  41.494  14.895
10562W        W76042  31.533  23.240   4.290
10563W        W76043  42.813  35.084  14.418
10564W        W76044  14.736  27.998   4.354
10565W        W76045   6.834  34.516   1.338
10566W        W76046  27.624  30.994  10.574
10567W        W76047  33.517  18.605  11.973
10568W        W76048  35.073  22.634   4.777
10569W        W76049  34.491  41.399   3.343
10570W        W76050   0.369  31.613   3.271
10571W        W76051  42.783  32.614   5.083
10572W        W76052  11.831  35.048   3.869
10573W        W76053   9.393  38.419  14.771
10574W        W76054  39.043  40.477  14.478
10575W        W76055  10.275  32.923   1.267
10576W        W76056  13.699  26.522  10.995
10577W        W76057  31.144   8.276  13.468
10578W        W76058  28.593  15.255   1.696
10579W        W76059  21.172  41.381   2.351
10580W        W76060  18.142  27.174  12.826
10581W        W76061  28.968  10.227  11.034
10582W        W76062  31.060  12.164   3.697
10583W        W76063  13.141   6.373  10.941
10584W        W76064  33.085  33.089  10.632
10585W        W76065  31.604   5.898  10.532
10586W        W76066   8.218  20.542   3.733
10587W        W76067  11.184  44.846   0.899
10588W        W76068  19.722  18.208  14.784
10589W        W76069  17.591  30.961   2.278
10590W        W76070  33.031   5.201   4.610
10591W        W76071  25.485  30.119  13.908
10592W        W76072  13.200   1.866  12.093
10593W        W76073  41.952  38.829   4.310
10594W        W76074  23.492  20.582  13.433
10595W        W76075  43.961  43.422  13.999
10596W        W76076  32.022   0.905   1.719
10597W        W76077  33.558  38.922  11.959
10598W        W76078  34.935  18.576  12.935
10599W        W76079  31.635  44.957   0.796
10600W        W76080  30.140   2.432  11.477
10601W        W76081  19.647  22.078  11.976
10602W        W76082  30.964  32.074  13.868
10603W        W76083  29.530   9.232  13.408
10604W        W76084  18.593  29.147   0.322
10605W        W76085  35.424   3.858  12.075
10606W        W76086  22.706  28.986  14.395
10607W        W76087  22.245  25.063  12.039
10608W        W76088  10.370  40.441  13.522
10609W        W76089  32.994  11.219   3.678
10610W        W76090  28.156  13.634  12.570
10611W        W76091   0.833  24.078   0.269
10612W        W76092  14.825  35.467  12.512
10613W        W76093  37.398  14.637   2.851
10614W        W76094  25.552  40.984   0.436
10615W        W76095  22.219  34.013   0.765
10616W        W76096  12.123   5.842  13.860
10617W        W76097   2.309  11.180  14.343
10618W        W76098  37.045  13.781   4.244
10619W        W76099   7.307  37.421   2.700
10620W        W76100  20.626  43.924   1.328
10621W        W76101  27.092  25.552  14.017
10622W        W76102  42.393  28.557  11.986
10623W        W76103  14.757  40.371   0.947
10624W        W76104  16.612  10.208   4.140
10625W        W76105   2.832  22.204  13.809
10626W        W76106  10.649  19.649  11.518
10627W        W76107  34.985  10.762  12.912
10628W        W76108  16.144  39.010   3.742
10629W        W76109  30.930   5.910   2.708
10630W        W76110   3.302  17.169   3.324
10631W        W76111  28.934  27.657  11.383
10632W        W76112  23.691  29.062  11.891
10633W        W76113  33.025  13.689  13.535
10634W        W76114  16.777   3.863   0.739
10635W        W76115  25.678   4.758   3.837
10636W        W76116  32.556   2.344  13.972
10637W        W76117  38.391  19.071   0.903
10638W        W76118  17.306  33.916   1.904
10639W        W76119   1.374  43.284  14.389
10640W        W76120   5.799   2.471  13.520
10641W        W76121  36.006  18.603  14.976
10642W        W76122   0.762  43.005  11.071
10643W        W76123   4.357  15.317   1.417
10644W        W76124  13.328  20.553   1.263
10645W        W76125  28.634   4.214  12.852
10646W        W76126   0.437  22.070   1.243
10647W        W76127  35.535   2.842  14.484
10648W        W76128   2.300  44.776  14.502
10649W        W76129   8.323  12.707   4.652
10650W        W76130  27.517  29.087  12.565
10651W        W76131  20.731   2.967   1.805
10652W        W76132   0.952  43.807  12.574
10653W        W76133   2.444  30.512   0.947
10654W        W76134  24.983   9.235  10.997
10655W        W76135  31.133  12.673   4.679
10656W        W76136  10.870  20.764  13.442
10657W        W76137   5.241   4.740  10.001
10658W        W76138  29.423   0.803  13.338
10659W        W76139  35.032  26.505   3.697
10660W        W76140  43.292  44.405   4.273
10661W        W76141  24.080  13.175   0.341
10662W        W76142  18.723  20.040  11.502
10663W        W76143  21.609  39.420  14.842
10664W        W76144  10.222  17.142  12.458
10665W        W76145  24.034  14.767   0.318
10666W        W76146  16.181   1.800  10.525
10667W        W76147   3.767  33.554  14.311
10668W        W76148  24.198   0.859  12.508
10669W        W76149  38.446  19.660  14.281
10670W        W76150   1.932  18.713   4.169
10671W        W76151  13.159  11.171  12.955
10672W        W76152  41.454  29.439   4.151
10673W        W76153  37.427  29.990  10.452
10674W        W76154  32.474  39.009   2.689
10675W        W76155  14.314  34.576  10.953
10676W        W76156   6.227  34.493  12.522
10677W        W76157  32.894  14.747   4.309
10678W        W76158   2.468  23.088   3.830
10679W        W76159  25.104  16.763  11.128
10680W        W76160  42.003  37.022  14.350
10681W        W76161  26.601  36.452   4.809
10682W        W76162  19.715  42.947   5.113
10683W        W76163  42.001  18.142   4.720
10684W        W76164   3.940  16.128   3.834
10685W        W76165   6.187   3.711  13.858
10686W        W76166  18.609  37.915   2.805
10687W        W76167  42.511   7.678   2.244
10688W        W76168  25.198  13.610   3.160
10689W        W76169  21.681  15.731   0.923
10690W        W76170  41.509  17.222   2.418
10691W        W76171  38.004  23.620   2.399
10692W        W76172  25.515  32.002   2.348
10693W        W76173  15.128   9.274  11.596
10694W        W76174   7.879  42.002   2.695
10695W        W76175  26.970  15.090   1.358
10696W        W76176  16.239  27.492  14.308
10697W        W76177  23.491  16.306  14.816
10698W        W76178  43.942  39.330   0.448
10699W        W76179   2.332  27.490  14.980
10700W        W76180  34.513  13.218   2.732
10701W        W76181  19.680  32.527   1.743
10702W        W76182  19.709  33.989  12.468
10703W        W76183   8.839  26.199   2.392
10704W        W76184  37.063  21.131  13.892
10705W        W76185  36.097   3.225   4.752
10706W        W76186   1.243  22.049   0.271
10707W        W76187  33.596  19.159  10.950
10708W        W76188  12.291  21.177  14.876
10709W        W76189  35.521  35.507   3.272
10710W        W76190   6.852   4.214  11.078
10711W        W76191  34.489  15.703   2.853
10712W        W76192  18.576  23.034  12.950
10713W        W76193   5.286  30.039   2.363
10714W        W76194  25.992   3.719   0.726
10715W        W76195  18.117  38.010  13.814
10716W        W76196  30.917  19.534  13.878
10717W        W76197  16.159  40.548   1.244
10718W        W76198  16.110  17.214  13.356
10719W        W76199  10.143  24.991   2.367
10720W        W76200  21.537  25.709   0.760
10721W        W76201  39.444  13.674   0.893
10722W        W76202   4.247  19.700  10.980
10723W        W76203  36.944  42.863  12.890
10724W        W76204  11.153  40.014  14.884
10725W        W76205   6.193  20.043  10.627
10726W        W76206  19.667  16.291  14.003
10727W        W76207   9.831   0.377  10.594
10728W        W76208  38.904  31.899  11.879
10729W        W76209   4.842   6.691   4.162
10730W        W76210  12.714  16.181  13.990
10731W        W76211   4.393  17.586  10.466
10732W        W76212  22.610   6.893  14.445
10733W        W76213   7.900  15.593  10.072
10734W        W76214  10.736  18.249  11.412
10735W        W76215  33.922  25.188  12.861
10736W        W76216   7.841   3.246  13.864
10737W        W76217  36.469  24.568   0.385
10738W        W76218  29.479  14.623   3.348
10739W        W76219  24.686  35.426   2.787
10740W        W76220  29.952  41.961   2.693
10741W        W76221  29.668  21.158   2.411
10742W        W76222  27.038  15.181  14.865
10743W        W76223  33.877  19.581   1.374
10744W        W76224  30.128  37.457   1.210
10745W        W76225   6.201  11.766   4.773
10746W        W76226  22.027  17.641   2.888
10747W        W76227  16.282  43.961   0.897
10748W        W76228  11.687  33.929   0.779
10749W        W76229  36.041   8.203  12.900
10750W        W76230  25.630  27.170  10.585
10751W        W76231  12.667   7.690   1.746
10752W        W76232  22.027   5.427  12.926
10753W        W76233  43.995  17.707  11.990
10754W        W76234  34.946   3.870   3.781
10755W        W76235  13.133  20.130   1.863
10756W        W76236  35.040  18.564  11.057
10757W        W76237  38.372  27.554  13.456
10758W        W76238  36.972   6.261   4.327
10759W        W76239  15.086  37.877   1.708
10760W        W76240  19.559  24.609  11.027
10761W        W76241  13.762  40.809   3.865
10762W        W76242  41.383  41.811   0.910
10763W        W76243  29.641  32.107   2.759
10764W        W76244  34.870   7.405   0.856
10765W        W76245  31.426  19.697   3.340
10766W        W76246  17.169   2.460  13.538
10767W        W76247  21.705  30.907   3.279
10768W        W76248   5.306  26.501  10.909
10769W        W76249  34.961   3.265   1.398
10770W        W76250   2.869  15.313  14.984
10771W        W76251  33.996  11.246   3.824
10772W        W76252  17.251  25.014  11.408
10773W        W76253  10.876   1.269  14.493
10774W        W76254   6.741  39.379   4.676
10775W        W76255  10.765  30.542  13.983
10776W        W76256  14.129   0.941  10.436
10777W        W76257  38.024  40.423  12.017
10778W        W76258  19.073  36.408   2.835
10779W        W76259   2.735  20.082   4.821
10780W        W76260  23.646  16.788  14.826
10781W        W76261  39.404   4.741   1.756
10782W        W76262  26.968  33.415  13.898
10783W        W76263   7.358  43.926  14.445
10784W        W76264   6.772  18.562  14.928
10785W        W76265   1.772  18.268   1.916
10786W        W76266  33.079  16.703   4.800
10787W        W76267  25.009  11.721  12.040
10788W        W76268   5.413  22.041   1.749
10789W        W76269  24.156  20.115   0.286
10790W        W76270  40.531  40.966  12.442
10791W        W76271  10.295   2.398   3.208
10792W        W76272  22.617  27.656  13.423
10793W        W76273  34.438  15.779   2.285
10794W        W76274   9.233   0.366   4.201
10795W        W76275  37.899   3.322  11.966
10796W        W76276  44.935  36.084  13.829
10797W        W76277  19.191  26.470  11.423
10798W        W76278  27.103  34.389  13.862
10799W        W76279   6.415   9.198  13.991
10800W        W76280  37.835  17.602   0.319
10801W        W76281  20.563  28.458   4.779
10802W        W76282   3.903  25.700  12.468
10803W        W76283  33.945   3.397   5.272
10804W        W76284  24.537  13.274  10.420
10805W        W76285  37.837  19.662  13.363
10806W        W76286  25.703  30.621  11.042
10807W        W76287   5.728  30.085  10.558
10808W        W76288  35.090  24.131  14.771
10809W        W76289   8.256  33.606   2.700
10810W        W76290   9.804   3.274   3.360
10811W        W76291  21.736  36.094   0.905
10812W        W76292   2.940  41.935  14.329
10813W        W76293  34.014   6.363  12.358
10814W        W76294   3.952  31.052   3.324
10815W        W76295   1.749  41.355   0.252
10816W        W76296  11.367   1.859  12.089
10817W        W76297  14.742   1.278   3.871
10818W        W76298  32.086   0.387   3.766
10819W        W76299  27.974  12.633   0.889
10820W        W76300  39.340  13.691  13.478
10821W        W76301  43.943  31.942   3.313
10822W        W76302  13.702   8.325  11.545
10823W        W76303  30.983   1.310   2.845
10824W        W76304  14.797  16.285  12.067
10825W        W76305   4.305  26.117   1.712
10826W        W76306  12.697  34.005   1.855
10827W        W76307  27.460  10.712  14.024
10828W        W76308  44.906  21.244  12.080
10829W        W76309  42.407  31.486   4.121
10830W        W76310  22.560   0.347  12.481
10831W        W76311  31.613   4.941  13.531
10832W        W76312  13.189  38.411  12.494
10833W        W76313  33.893   0.402  11.065
10834W        W76314  26.068  28.617   2.406
10835W        W76315  12.363   0.946  10.456
10836W        W76316   5.701  44.900   1.805
10837W        W76317  36.981  28.597   3.650
10838W        W76318  35.944  44.378  14.497
10839W        W76319  14.323  38.932   3.729
10840W        W76320  27.089  22.251  10.636
10841W        W76321   6.740  27.155  14.814
10842W        W76322   7.686  39.519  13.840
10843W        W76323  15.719  10.763  14.446
10844W        W76324  12.351  30.066   0.799
10845W        W76325  36.880  25.217   3.751
10846W        W76326   4.925  35.900   1.282
10847W        W76327   1.808  26.468   2.267
10848W        W76328  44.780  18.113   3.270
10849W        W76329  39.462  39.957   2.215
10850W        W76330  43.765  44.453   1.828
10851W        W76331   7.267  41.843   1.322
10852W        W76332   6.423  11.195  13.442
10853W        W76333   2.451   8.817  11.413
10854W        W76334  26.983  34.994  10.599
10855W        W76335  36.000  16.646   0.773
10856W        W76336  28.039   5.383   0.922
10857W        W76337  43.379  16.085  13.891
10858W        W76338  25.478  40.464  12.395
10859W        W76339   1.817  23.722  10.967
10860W        W76340  26.164  26.033  10.585
10861W        W76341  30.580  19.543   4.652
10862W        W76342  30.117  34.504  11.856
10863W        W76343  29.121   3.945  14.987
10864W        W76344  33.557   9.802   2.781
10865W        W76345  38.466   4.741  12.838
10866W        W76346  12.128  14.267   4.627
10867W        W76347   8.202  20.630  14.808
10868W        W76348  28.488   8.316  11.506
10869W        W76349  19.188   9.187   1.270
10870W        W76350  38.390  41.492  14.972
10871W        W76351  37.436  18.134   0.787
10872W        W76352  40.889  18.120   2.778
10873W        W76353  17.716  24.059  10.937
10874W        W76354  14.749  27.496  14.947
10875W        W76355  33.408  32.623  12.004
10876W        W76356  18.100   5.909  11.985
10877W        W76357  38.852   3.733   2.877
10878W        W76358  24.150  32.028   2.394
10879W        W76359   4.229   5.854  13.496
10880W        W76360  10.723   7.184  13.404
10881W        W76361  15.113  41.429  14.761
10882W        W76362  35.923  24.121  11.514
10883W        W76363   7.680  38.341  12.090
10884W        W76364  13.716   3.899   0.785
10885W        W76365  14.170   2.800  13.015
10886W        W76366  11.866  13.808  12.960
10887W        W76367   3.795  14.749   0.921
10888W        W76368  12.222   3.314  11.485
10889W        W76369  20.694   9.643  11.372
10890W        W76370  27.189  28.990  11.969
10891W        W76371  25.613  37.043   4.809
10892W        W76372  29.930  41.309   2.710
10893W        W76373  25.110   2.760   3.771
10894W        W76374  40.830   8.244   3.161
10895W        W76375  27.509   9.361   4.633
10896W        W76376   3.951   4.817   3.325
10897W        W76377  42.798   1.371   0.872
10898W        W76378   3.303  31.457  12.482
10899W        W76379  15.269  25.694  11.034
10900W        W76380  32.082  41.847  11.456
10901W        W76381  43.826  28.059   0.310
10902W        W76382  24.563  42.347  11.422
10903W        W76383  21.633  12.316  10.414
10904W        W76384  36.505  39.864  10.564
10905W        W76385  43.363   2.327   0.877
10906W        W76386  39.936  19.672   1.727
10907W        W76387  40.453  37.977  14.482
10908W        W76388  34.524  31.131   3.817
10909W        W76389   2.375  17.146  13.966
10910W        W76390   2.450  34.584   3.362
10911W        W76391  35.402  25.105   0.873
10912W        W76392  25.684  26.141   2.699
10913W        W76393  19.040  19.638  13.938
10914W        W76394  19.661  36.525   1.299
10915W        W76395  33.927  34.934   2.867
10916W        W76396  38.927  27.036   3.769
10917W        W76397  30.527  26.645  10.441
10918W        W76398  39.986  21.657  10.441
10919W        W76399   8.726   1.797  10.114
10920W        W76400   1.312  28.663  11.459
10921W        W76401   0.862   7.246   2.348
10922W        W76402  15.142  38.519   1.427
10923W        W76403  28.640  17.197   0.469
10924W        W76404  17.129   1.868  10.157
10925W        W76405  33.381  25.177  10.425
10926W        W76406  18.780  16.194  14.777
10927W        W76407  39.902   5.841   1.823
10928W        W76408  16.090  30.595  14.288
10929W        W76409  34.539  15.167  13.541
10930W        W76410  16.686  20.261  12.526
10931W        W76411  13.648   9.888  11.504
10932W        W76412   3.767  39.957   4.346
10933W        W76413   3.267  10.379   4.708
10934W        W76414  13.169  33.113   2.671
10935W        W76415  21.566  16.784  12.863
10936W        W76416  28.085   9.817  11.879
10937W        W76417   9.674   0.384   0.738
10938W        W76418   2.907  33.382   3.775
10939W        W76419  25.973  32.632  14.972
10940W        W76420  28.951   5.884   3.343
10941W        W76421  14.271  25.024  14.333
10942W        W76422   3.252  42.872   3.327
10943W        W76423  36.026  22.556   3.229
10944W        W76424  27.499   8.693   1.718
10945W        W76425  41.358   1.886  13.495
10946W        W76426  43.991  41.514  11.467
10947W        W76427   3.947  19.126   4.777
10948W        W76428  21.589  32.614  14.507
10949W        W76429  39.890   7.256   0.830
10950W        W76430  18.600  30.574  11.883
10951W        W76431  34.570  23.658   3.275
10952W        W76432  41.396  39.846  10.475
10953W        W76433   3.274  32.126   2.838
10954W        W76434  24.660   4.698   3.679
10955W        W76435   8.217   9.344  14.862
10956W        W76436   9.702  42.364  14.925
10957W        W76437  25.648  23.651  11.526
10958W        W76438  37.553   4.385   3.846
10959W        W76439  12.166   1.343   3.860
10960W        W76440  43.351  34.966   3.271
10961W        W76441  22.534  11.760   0.836
10962W        W76442   8.672  17.276  13.978
10963W        W76443  36.008  29.175  13.472
10964W        W76444  22.070  23.088   3.770
10965W        W76445  28.126  17.218   2.726
10966W        W76446  13.182  44.765  14.475
10967W        W76447  43.994  22.120   4.757
10968W        W76448  10.646  33.988  12.839
10969W        W76449  39.999  43.810   3.790
10970W        W76450  42.033  14.731  13.933
10971W        W76451  15.694   8.385  10.593
10972W        W76452  42.398  33.985   0.758
10973W        W76453   2.911  38.494   3.703
10974W        W76454  42.380  12.246   3.343
10975W        W76455   2.234  26.978   3.704
10976W        W76456   3.334   6.206  10.448
10977W        W76457   2.325  19.159   4.761
10978W        W76458   9.264  24.587  10.449
10979W        W76459  33.581   0.353   2.233
10980W        W76460  11.127   3.258   4.186
10981W        W76461  30.594   7.764   4.311
10982W        W76462   8.885  44.304  11.946
10983W        W76463  30.971  17.618  13.799
10984W        W76464   6.769  21.223   4.272
10985W        W76465   3.851  26.099  12.362
10986W        W76466   3.413  33.596   9.937
10987W        W76467  26.549  23.704   2.414
10988W        W76468  39.559  35.546  12.034
10989W        W76469  14.210   8.180  10.638
10990W        W76470  34.976  40.857  11.609
10991W        W76471  34.867  40.843  13.395
10992W        W76472  36.072  11.689  13.428
10993W        W76473  35.584  29.545  11.386
10994W        W76474   8.805  44.459  10.453
10995W        W76475   6.413  36.541   1.247
10996W        W76476  40.545  17.719   1.802
10997W        W76477  23.050  42.950   3.853
10998W        W76478  14.280  28.594  12.914
10999W        W76479   5.760  21.215  13.004
11000W        W76480   1.433  12.141   2.310
11001W        W76481   6.314  20.706   2.251
11002W        W76482   2.766  28.137  12.967
11003W        W76483   6.246   8.822  10.510
11004W        W76484  35.490   5.278   0.953
11005W        W76485  39.872  29.951  11.891
11006W        W76486   0.892  39.550   2.757
11007W        W76487  38.961  15.665  11.381
11008W        W76488   7.302  20.714   4.808
11009W        W76489   5.697  22.540   3.240
11010W        W76490  44.437  25.060   4.749
11011W        W76491  36.096  14.638  11.960
11012W        W76492  37.578   5.900   0.294
11013W        W76493  44.371  17.782  13.016
11014W        W76494   4.337  25.535  13.445
11015W        W76495   4.909  10.148   1.403
11016W        W76496   3.254   9.290   1.700
11017W        W76497  37.840  41.522   4.175
11018W        W76498  36.923   4.746   4.127
11019W        W76499   5.396  25.013  11.558
11020W        W76500  33.567   0.886   0.876
11021W        W76501   8.676  33.444   0.864
11022W        W76502  42.472  43.495   2.409
11023W        W76503  12.345   3.246   0.325
11024W        W76504  34.077   8.784   0.396
11025W        W76505   9.358  37.003   3.238
11026W        W76506  17.230  37.011  10.547
11027W        W76507   1.783   2.455   0.862
11028W        W76508  10.824  14.127   1.900
11029W        W76509   8.205  27.190   2.241
11030W        W76510   3.734  26.982  13.433
11031W        W76511  18.791  22.694   4.806
11032W        W76512  26.047  10.160  10.973
11033W        W76513  31.488  29.945   0.472
11034W        W76514  23.523  15.273   0.912
11035W        W76515  16.666  14.680  12.435
11036W        W76516  31.545  17.573   4.634
11037W        W76517  12.838  31.936  12.416
11038W        W76518   7.377  44.282  13.525
11039W        W76519  26.140  39.062  13.004
11040W        W76520  14.738  25.050   1.758
11041W        W76521  14.708   4.225   0.737
11042W        W76522  23.086  30.628  13.537
11043W        W76523  36.347   2.433  13.410
11044W        W76524  30.016  32.037  10.951
11045W        W76525   1.318  17.068  14.998
11046W        W76526  15.715  27.531   3.845
11047W        W76527   5.211   0.260   1.233
11048W        W76528  24.719  27.101   2.180
11049W        W76529  13.713  19.562  14.776
11050W        W76530  44.908  39.894   4.126
11051W        W76531  15.149  14.250  14.302
11052W        W76532  40.864   0.878   4.245
11053W        W76533  36.465  10.145  13.447
11054W        W76534  25.672  38.415  13.988
11055W        W76535  13.724  35.503  11.950
11056W        W76536   6.693  41.031  10.423
11057W        W76537  10.240   8.811   2.215
11058W        W76538  19.581  17.299  13.823
11059W        W76539  26.052   5.812  14.920
11060W        W76540  10.737  42.393   4.236
11061W        W76541  40.810  29.985  14.295
11062W        W76542   8.853  44.770   4.212
11063W        W76543  36.054  22.014   0.371
11064W        W76544  43.426  33.570  10.639
11065W        W76545  25.163  39.020   3.153
11066W        W76546  33.502  11.345   0.311
11067W        W76547  34.004  10.792  12.905
11068W        W76548   4.903   4.277   3.809
11069W        W76549  21.593  26.082  12.989
11070W        W76550  44.361  13.280   1.915
11071W        W76551   1.970  13.223  14.429
11072W        W76552  44.465  16.568   3.189
11073W        W76553  35.068  26.063  12.375
11074W        W76554  35.894  29.567  14.288
11075W        W76555  12.846  11.137   1.267
11076W        W76556   8.839   9.272  10.993
11077W        W76557   8.354   4.703  13.339
11078W        W76558  29.962   9.243  10.959
11079W        W76559  39.506  34.433  13.970
11080W        W76560   3.438  23.988   2.399
11081W        W76561  33.395   8.813  13.018
11082W        W76562   2.763   0.372   1.802
11083W        W76563  26.958  19.217   4.626
11084W        W76564  43.844   1.420  11.545
11085W        W76565   0.760   2.229   1.809
11086W        W76566   2.279  41.355  11.071
11087W        W76567  28.627  26.668   1.433
11088W        W76568  10.178   8.714   0.862
11089W        W76569   3.835   6.840   4.128
11090W        W76570  29.565   1.883   3.249
11091W        W76571  28.086  44.990   3.817
11092W        W76572  22.023   0.783  13.870
11093W        W76573   7.903  19.153  14.881
11094W        W76574  34.967  29.433  10.642
11095W        W76575  13.141   7.336   0.815
11096W        W76576  22.697  44.375  13.545
11097W        W76577  36.533  26.694   4.213
11098W        W76578  12.124  28.560  12.365
11099W        W76579   5.285  21.211   1.928
11100W        W76580  29.049  41.494   1.261
11101W        W76581  31.089  17.106   3.793
11102W        W76582  22.552   8.216   1.335
11103W        W76583  38.418  17.731   3.752
11104W        W76584  31.522  31.074   0.935
11105W        W76585  21.140  16.127   3.203
11106W        W76586  10.840  33.010  12.909
11107W        W76587  44.908  38.986   3.867
11108W        W76588   9.172   7.368  12.512
11109W        W76589  18.222  30.448  14.357
11110W        W76590   9.676  10.316   2.407
11111W        W76591   6.204  40.322   2.413
11112W        W76592  22.711   3.842   3.773
11113W        W76593  16.198  23.682  11.533
11114W        W76594  30.431   3.856   1.437
11115W        W76595  33.531  13.677   3.231
11116W        W76596   0.456  30.068   4.214
11117W        W76597   3.857   7.679   3.862
11118W        W76598  36.447  39.317  10.481
11119W        W76599  21.515  22.026   1.789
11120W        W76600  15.195   1.814  12.092
11121W        W76601  17.733  38.340  13.422
11122W        W76602  20.699   5.792   3.802
11123W        W76603   6.194  36.396   4.177
11124W        W76604   4.316  26.111  10.601
11125W        W76605  19.596  14.145  13.043
11126W        W76606  44.338  30.430   2.178
11127W        W76607  14.295  35.480   4.811
11128W        W76608   6.895  21.733   2.819
11129W        W76609   4.231  25.558   1.733
11130W        W76610  19.050  22.568  13.838
11131W        W76611   2.432   1.824  14.919
11132W        W76612  23.176   3.940   3.647
11133W        W76613  30.922   3.241  11.020
11134W        W76614  38.995  33.475  10.076
11135W        W76615  21.126  28.545  10.895
11136W        W76616  41.855  33.913   0.731
11137W        W76617   8.171  12.839   3.806
11138W        W76618  14.111  35.488  11.874
11139W        W76619  37.078  39.877  12.078
11140W        W76620  12.852  13.724  10.909
11141W        W76621  30.419  35.961  14.442
11142W        W76622  22.680  30.479  13.368
11143W        W76623  39.431   6.794   2.262
11144W        W76624   9.186  15.804   3.265
11145W        W76625  43.826  34.055   1.271
11146W        W76626  13.815  18.106   0.871
11147W        W76627  40.515  17.653  13.354
11148W        W76628  23.227  42.900  11.088
11149W        W76629   7.799   5.239  13.858
11150W        W76630   8.675  29.653   1.257
11151W        W76631  16.627  40.020  12.387
11152W        W76632  14.718  30.961   0.265
11153W        W76633   5.807   3.424  10.899
11154W        W76634  12.343  11.182  13.318
11155W        W76635  43.975  22.026   3.682
11156W        W76636  12.699  31.543   2.305
11157W        W76637   1.919  22.058  14.509
11158W        W76638  38.498  42.371   1.355
11159W        W76639   6.898  30.076   0.952
11160W        W76640  13.299  24.670   4.294
11161W        W76641   1.415   8.740  13.023
11162W        W76642   1.974   1.351  12.848
11163W        W76643  32.120  42.399   0.472
11164W        W76644  10.807   1.261   4.241
11165W        W76645  11.844   7.307   0.298
11166W        W76646  29.431  16.199   1.427
11167W        W76647  32.905  32.408  14.514
11168W        W76648  22.201  10.161   5.628
11169W        W76649   3.927   9.314  14.298
11170W        W76650  28.948  15.109  11.982
11171W        W76651  39.954  32.423  12.965
11172W        W76652  30.519  10.298   2.819
11173W        W76653  38.471  26.004   0.772
11174W        W76654  42.356  36.577  14.793
11175W        W76655   4.232  20.265   3.172
11176W        W76656  21.667  34.599  12.073
11177W        W76657  12.170   8.325  12.564
11178W        W76658  30.092  33.461  12.575
11179W        W76659  22.622  38.048  12.391
11180W        W76660  35.076  24.121  11.967
11181W        W76661  16.602  12.725   1.920
11182W        W76662  15.768  36.573   2.240
11183W        W76663   3.726   2.914  12.865
11184W        W76664  27.570  38.379  11.119
11185W        W76665   6.316  30.069  13.471
11186W        W76666  19.733   5.826   3.265
11187W        W76667   7.687  21.229  10.596
11188W        W76668  42.299   7.225  12.394
11189W        W76669  44.928  26.591   3.382
11190W        W76670  17.771  13.813   2.341
11191W        W76671  20.723   8.242   1.214
11192W        W76672  20.627  41.424  10.925
11193W        W76673   6.198  32.056  10.584
11194W        W76674  10.255  17.586   1.780
11195W        W76675  10.352  20.050  12.969
11196W        W76676  38.857  28.618   4.700
11197W        W76677   1.884  11.656  13.356
11198W        W76678  23.001  33.398   4.200
11199W        W76679  34.425  33.976   1.237
11200W        W76680  11.190  31.646  13.402
11201W        W76681  26.959  20.192   4.231
11202W        W76682   2.409  10.274  13.020
11203W        W76683  18.085  15.635  12.458
11204W        W76684   8.330   1.938  14.988
11205W        W76685  35.430   0.403   2.376
11206W        W76686   7.209  40.534  14.370
11207W        W76687  28.134  33.400   0.463
11208W        W76688  35.920  17.735  14.807
11209W        W76689  21.201  35.385   4.332
11210W        W76690  11.179  43.945  10.517
11211W        W76691  44.946  31.568  10.933
11212W        W76692   6.697  41.448  14.432
11213W        W76693  16.760  29.552   4.823
11214W        W76694   2.744  28.595  11.488
11215W        W76695  35.914  40.337  12.004
11216W        W76696  21.085  37.519   9.989
11217W        W76697  22.247  30.032  12.511
11218W        W76698  24.679   8.729   2.337
11219W        W76699  31.143  28.929  11.937
11220W        W76700  12.217   5.337   3.209
11221W        W76701  16.198  37.952  12.514
11222W        W76702  32.034   0.801  14.020
11223W        W76703   3.763   3.796  13.886
11224W        W76704   0.381  44.390  12.880
11225W        W76705  30.994  25.030   4.313
11226W        W76706   5.237  25.080   2.336
11227W        W76707  23.714  24.219   4.283
11228W        W76708  32.939  35.105   4.317
11229W        W76709  32.493  27.661  12.355
11230W        W76710  38.365   3.764   4.744
11231W        W76711  43.932  23.149   4.118
11232W        W76712  24.689   6.690  12.996
11233W        W76713  25.625  29.670  13.957
11234W        W76714  30.968  12.290  14.912
11235W        W76715  22.212  30.542  12.352
11236W        W76716  20.067  41.039  10.617
11237W        W76717  26.690  42.997   3.707
11238W        W76718  34.060  43.979  11.939
11239W        W76719  24.480  36.482  13.891
11240W        W76720  12.857  41.536  14.966
11241W        W76721  17.225  19.623  14.332
11242W        W76722   2.273  10.264   5.169
11243W        W76723  15.584  16.694  14.357
11244W        W76724  39.419  19.715   1.392
11245W        W76725  16.655   6.885  14.883
11246W        W76726  40.003   8.865   1.361
11247W        W76727  17.199  25.661   1.393
11248W        W76728  26.999  33.044  14.337
11249W        W76729  41.438  13.633   3.869
11250W        W76730  10.867   4.301  10.919
11251W        W76731  32.079  18.244  12.400
11252W        W76732  13.131   9.385  13.900
11253W        W76733  41.922  35.875  10.112
11254W        W76734   7.274   3.742   3.266
11255W        W76735  30.638  42.979   3.675
11256W        W76736  19.754  31.112   4.725
11257W        W76737  15.699   5.700   1.369
11258W        W76738  41.823  29.550   1.407
11259W        W76739  24.616  37.441   3.310
11260W        W76740  30.936   5.781   4.195
11261W        W76741  21.669  18.282   1.752
11262W        W76742   7.788   1.962   5.098
11263W        W76743   7.415  25.082  12.015
11264W        W76744  25.678  25.053   0.821
11265W        W76745  32.459  16.685   1.725
11266W        W76746  10.772  44.346  11.976
11267W        W76747  25.130  14.105   1.280
11268W        W76748  26.029  44.959   1.768
11269W        W76749  24.139  16.100   4.661
11270W        W76750  30.054   9.841   0.914
11271W        W76751  27.039  13.735  13.379
11272W        W76752  17.080   6.418   2.225
11273W        W76753  14.278   4.318  13.876
11274W        W76754  40.506  35.473  10.894
11275W        W76755  44.821   8.331  11.485
11276W        W76756  20.183  10.839  12.571
11277W        W76757  37.503   1.731  14.008
11278W        W76758  16.272  12.704   5.196
11279W        W76759   0.283   8.709   2.900
11280W        W76760   3.237   2.812  10.982
11281W        W76761  41.397  26.522  12.383
11282W        W76762  26.505  31.463   4.650
11283W        W76763  37.847  10.201   3.217
11284W        W76764  35.894  40.513  11.389
11285W        W76765   3.935  37.847   2.339
11286W        W76766  38.512  30.971   1.728
11287W        W76767  22.678   7.848  12.947
11288W        W76768  33.509  40.457  14.919
11289W        W76769  22.585  30.519  12.390
11290W        W76770  24.583   0.803   3.762
11291W        W76771  30.049   9.776  10.521
11292W        W76772   0.751   4.770  10.612
11293W        W76773  16.194  33.541   4.163
11294W        W76774  38.894  36.453  10.422
11295W        W76775  23.668  12.293  12.853
11296W        W76776  24.564  18.126  12.097
11297W        W76777  43.802  21.127   2.745
11298W        W76778  16.626  44.937  13.863
11299W        W76779   7.835  34.450   2.704
11300W        W76780  37.951  22.214  13.505
11301W        W76781  10.212  30.104  13.450
11302W        W76782  32.457   5.696   0.472
11303W        W76783  40.430  11.216  11.043
11304W        W76784  33.002  44.278  11.417
11305W        W76785  20.658  38.373  13.887
11306W        W76786  18.058  41.945  10.467
11307W        W76787   4.899  12.244  14.029
11308W        W76788  26.505  36.469   2.235
11309W        W76789  32.391  39.038  14.854
11310W        W76790  14.146   0.762   1.858
11311W        W76791  12.310  41.004   4.686
11312W        W76792   4.437  17.559   2.389
11313W        W76793   0.472   3.334   0.756
11314W        W76794  44.882  27.172   3.151
11315W        W76795  22.076  40.894   2.763
11316W        W76796  23.995  23.005  12.838
11317W        W76797  20.677  23.125   1.297
11318W        W76798  34.921  29.510   3.305
11319W        W76799  41.321  32.941   3.676
11320W        W76800  42.398  23.597   3.757
11321W        W76801  27.571  19.646   4.803
11322W        W76802  19.612  23.709  14.480
11323W        W76803  30.011  10.822  12.935
11324W        W76804   9.178   0.277  13.920
11325W        W76805  37.408  10.274  11.393
11326W        W76806  41.019  10.143   2.188
11327W        W76807  17.750  35.855  13.451
11328W        W76808   5.801   0.909   1.436
11329W        W76809  30.049  30.987  14.317
11330W        W76810  42.964  38.836   1.427
11331W        W76811   7.751   2.758  12.861
11332W        W76812  29.154   0.329   3.291
11333W        W76813   2.875  26.604   3.255
11334W        W76814  35.382  10.279   3.192
11335W        W76815  39.432  13.696   1.774
11336W        W76816   5.386   7.853  14.893
11337W        W76817  22.029  39.334   1.247
11338W        W76818  29.631   9.753  10.467
11339W        W76819  42.816  20.539  12.905
11340W        W76820  38.401  23.560  11.575
11341W        W76821  32.547  39.361   2.336
11342W        W76822  37.550   8.377   3.201
11343W        W76823  22.671  25.121   2.788
11344W        W76824  13.150   4.741  11.544
11345W        W76825   9.167  16.314   3.162
11346W        W76826   7.863   9.867  11.472
11347W        W76827  43.973  21.594  10.440
11348W        W76828  26.083  39.350  10.449
11349W        W76829  23.635  44.452   2.388
11350W        W76830  31.038  13.601   2.402
11351W        W76831  31.065  11.268   4.683
11352W        W76832   3.822  38.028  11.479
11353W        W76833  31.928   7.223   3.245
11354W        W76834  36.924   0.769  12.995
11355W        W76835  21.574  22.101   2.713
11356W        W76836  43.946  20.574   2.388
11357W        W76837  42.398   6.219   2.830
11358W        W76838   0.249  26.637  14.419
11359W        W76839  24.640   9.220   0.355
11360W        W76840   5.772  35.923  11.433
11361W        W76841  11.257   2.791  10.491
11362W        W76842  15.162  11.704   0.780
11363W        W76843  35.073   6.323  12.867
11364W        W76844   8.764   3.947   0.420
11365W        W76845   3.936  12.754   9.936
11366W        W76846  20.608   5.730   4.827
11367W        W76847  12.723  14.617  14.913
11368W        W76848   1.938  10.267   0.894
11369W        W76849   3.730   9.211   1.845
11370W        W76850  24.027  27.658  12.522
11371W        W76851  12.640  44.940  13.421
11372W        W76852  28.171  19.635   1.321
11373W        W76853  36.383  17.672  13.508
11374W        W76854  28.606  16.679   4.148
11375W        W76855  14.787   9.258  11.928
11376W        W76856  12.772  28.989  11.864
11377W        W76857   1.882  26.977   3.340
11378W        W76858  34.875  41.454   5.106
11379W        W76859  40.033  35.473   3.686
11380W        W76860   0.967   4.315   3.630
11381W        W76861  14.591  18.100   3.713
11382W        W76862   2.789  21.075   4.234
11383W        W76863   9.387  13.139   0.414
11384W        W76864  16.074   0.968  10.598
11385W        W76865  26.556  36.503   1.390
11386W        W76866  43.364  10.840   2.726
11387W        W76867   6.756  38.421   4.648
11388W        W76868  25.975  39.461  13.891
11389W        W76869  13.131   1.371  10.531
11390W        W76870  34.919  33.061   3.194
11391W        W76871  30.449  25.982  12.000
11392W        W76872   8.209  19.645   0.744
11393W        W76873  42.323  10.755  10.594
11394W        W76874   1.864  25.016   4.832
11395W        W76875   8.311  34.006  12.362
11396W        W76876   0.778  42.452  14.434
11397W        W76877   1.357  40.930   0.447
11398W        W76878  34.401  16.811  11.046
11399W        W76879  10.288  11.685   3.698
11400W        W76880  14.597  11.136   2.185
11401W        W76881  20.653   2.360  13.906
11402W        W76882  10.729  41.298  13.016
11403W        W76883  20.169   6.803   1.783
11404W        W76884  35.875  16.278  13.315
11405W        W76885  40.533  43.290  13.343
11406W        W76886  35.601  38.384  13.030
11407W        W76887   0.985  37.011  11.452
11408W        W76888  20.073  38.538  13.988
11409W        W76889   8.680  24.149   1.342
11410W        W76890   7.390  27.620   3.211
11411W        W76891   4.862  32.018   2.263
11412W        W76892  30.513  15.133   1.239
11413W        W76893   9.733  23.688  13.410
11414W        W76894  30.423   7.864  12.093
11415W        W76895  18.103  42.479  14.855
11416W        W76896  39.883  22.505   3.241
11417W        W76897   5.907  26.649   3.836
11418W        W76898   8.748  16.116   3.800
11419W        W76899  22.658  29.451   0.877
11420W        W76900  43.879   4.822  11.086
11421W        W76901   3.820  33.466   2.666
11422W        W76902  26.584  39.008  12.400
11423W        W76903  15.584   8.328  13.845
11424W        W76904  33.430  13.248   0.735
11425W        W76905  43.382   9.166  11.440
11426W        W76906  44.308  31.119  12.897
11427W        W76907  32.143  40.465   1.317
11428W        W76908   3.802  18.296  11.016
11429W        W76909  36.938  19.631   3.212
11430W        W76910   5.429  19.678   0.473
11431W        W76911  17.071  22.130  12.023
11432W        W76912  24.132  15.728   3.176
11433W        W76913  37.514  26.974  10.583
11434W        W76914   1.442  28.639  10.433
11435W        W76915   2.871  29.064   0.910
11436W        W76916  35.911   9.345   4.662
11437W        W76917  43.984  22.160   3.366
11438W        W76918   1.425  39.814   1.364
11439W        W76919  40.428  25.138   4.821
11440W        W76920   2.899  39.921  11.882
11441W        W76921   3.725  30.977   2.235
11442W        W76922  28.134  26.981  11.093
11443W        W76923  39.457  34.024  13.348
11444W        W76924  16.632  19.581  13.977
11445W        W76925  37.403   4.285  14.895
11446W        W76926  42.520  32.568   3.360
11447W        W76927  29.441  36.902   4.187
11448W        W76928  37.345  19.259  10.573
11449W        W76929  32.635  30.934  11.381
11450W        W76930  19.638   9.649  13.383
11451W        W76931  32.497   9.301   4.794
11452W        W76932  37.548  24.153   2.837
11453W        W76933  30.538   8.210  10.480
11454W        W76934  37.047   3.232  12.925
11455W        W76935  39.518  18.717  13.346
11456W        W76936   9.682  33.560   4.731
11457W        W76937  41.915  40.923   4.678
11458W        W76938   6.783  21.254   2.322
11459W        W76939  11.713  18.089   0.250
11460W        W76940   5.710  23.667   2.304
11461W        W76941   3.260  28.028  12.454
11462W        W76942  42.887  10.295  13.511
11463W        W76943  10.827  35.577  12.434
11464W        W76944   2.785  33.900  11.912
11465W        W76945  36.063  40.346   1.249
11466W        W76946  31.572   8.819   3.163
11467W        W76947   6.741  35.888   3.830
11468W        W76948   6.340  37.515  14.885
11469W        W76949  25.029  19.255  11.519
11470W        W76950  26.488   0.948  11.495
11471W        W76951  25.620  10.812  13.426
11472W        W76952  16.720  34.447   2.880
11473W        W76953  13.231  36.557  10.529
11474W        W76954  27.557   4.733  11.430
11475W        W76955  25.648  44.945   1.269
11476W        W76956  14.615   4.774   0.806
11477W        W76957  22.608  44.400   0.850
11478W        W76958  20.133  27.988   3.720
11479W        W76959  29.669   5.719  13.338
11480W        W76960  26.497  40.539   4.345
11481W        W76961  34.982  17.757  11.564
11482W        W76962  12.699  28.501  14.762
11483W        W76963  35.559  18.189   1.835
11484W        W76964  11.679  27.108  12.487
11485W        W76965  11.837  15.701  13.349
11486W        W76966   4.242  35.883  13.892
11487W        W76967  37.854  39.413  14.876
11488W        W76968  30.092  40.038   3.850
11489W        W76969  37.402  18.688  12.033
11490W        W76970  11.275  44.421   0.889
11491W        W76971  29.468  37.531   0.370
11492W        W76972  29.085   5.408  10.584
11493W        W76973   5.344   9.301  12.572
11494W        W76974  35.597   3.415  13.882
11495W        W76975  42.360   1.787   1.702
11496W        W76976  29.985  31.629  14.836
11497W        W76977  25.098  11.625   3.377
11498W        W76978   9.287  34.393  14.012
11499W        W76979  18.201  28.014   4.785
11500W        W76980   6.882  30.567   1.837
11501W        W76981   8.394  44.903  11.417
11502W        W76982  34.040  41.988  12.008
11503W        W76983  16.639  21.713  14.981
11504W        W76984  12.299  22.593   3.650
11505W        W76985  39.423   0.788  14.439
11506W        W76986   1.917  38.327   1.363
11507W        W76987  30.984  26.157   4.817
11508W        W76988  12.667  32.628   3.706
11509W        W76989  18.656  10.243   2.308
11510W        W76990  16.099   5.353  12.570
11511W        W76991  33.456  40.408   4.783
11512W        W76992  20.595  30.063   3.233
11513W        W76993  37.418  18.751   1.788
11514W        W76994   9.756  16.165  14.329
11515W        W76995  32.051  10.641   3.701
11516W        W76996  11.270   4.241  11.082
11517W        W76997  12.826  44.473  11.416
11518W        W76998  19.131   2.262   2.681
11519W        W76999  21.712  24.085  11.565
11520W        W77000  15.280  17.250  10.478
11521W        W77001  36.476  14.742  10.449
11522W        W77002  36.023   8.282   3.183
11523W        W77003  21.729  37.539  11.898
11524W        W77004  27.591  27.988  11.973
11525W        W77005  22.618  27.039  10.541
11526W        W77006  11.366  22.240   0.276
11527W        W77007  21.715  36.551  14.283
11528W        W77008   0.890   2.323   2.829
11529W        W77009  28.969  33.465  12.417
11530W        W77010  30.149  12.741   1.248
11531W        W77011  21.687  22.080  12.448
11532W        W77012  43.794  29.090   1.354
11533W        W77013  44.368  20.729   0.359
11534W        W77014  20.744  36.092   2.400
11535W        W77015  18.778  14.794   1.352
11536W        W77016  22.570  21.606   1.295
11537W        W77017  13.809   2.388   0.850
11538W        W77018   1.781  33.532   1.777
11539W        W77019  26.054  30.553   4.749
11540W        W77020  34.444   6.409   2.188
11541W        W77021  38.958  14.701  14.855
11542W        W77022  36.520  27.174   3.163
11543W        W77023  24.497   6.860   3.714
11544W        W77024  23.053  17.604  11.888
11545W        W77025  24.218  32.440  11.095
11546W        W77026  16.100  43.413   2.354
11547W        W77027  24.186  42.433   3.339
11548W        W77028  41.978  26.988   1.790
11549W        W77029  31.126   3.832  13.545
11550W        W77030  14.736  15.179   0.955
11551W        W77031  24.594  11.127   1.337
11552W        W77032  14.188  40.487  11.375
11553W        W77033   2.850   2.239  14.318
11554W        W77034  32.033  19.189  14.447
11555W        W77035  30.028  14.824  14.349
11556W        W77036  17.201   2.807  11.955
11557W        W77037  13.769  30.625  10.541
11558W        W77038  43.386  26.184  14.303
11559W        W77039  15.085  20.163   3.784
11560W        W77040  28.580   3.449   1.310
11561W        W77041  40.440   5.779   0.809
11562W        W77042  25.063  24.661   1.795
11563W        W77043   3.281  22.563   2.715
11564W        W77044  33.559  21.175  14.893
11565W        W77045  22.164  17.778  14.277
11566W        W77046  14.744  24.145  12.960
11567W        W77047  21.753  31.026  12.454
11568W        W77048   2.783  26.682  11.098
11569W        W77049  44.372   8.301  12.347
11570W        W77050  40.837  17.570   1.417
11571W        W77051  28.496  27.480  11.060
11572W        W77052  33.941  43.922   2.261
11573W        W77053  36.375   7.341  14.882
11574W        W77054  27.073  15.810  12.089
11575W        W77055  17.284  27.467   5.255
11576W        W77056  16.723   4.214   1.428
11577W        W77057  36.429  23.039  11.943
11578W        W77058  13.189  24.670   2.811
11579W        W77059   0.861  31.141   0.291
11580W        W77060   2.726  16.306  12.084
11581W        W77061  39.443   6.773   1.449
11582W        W77062   1.358   4.944   3.672
11583W        W77063  28.516   1.264  12.013
11584W        W77064   5.363   3.794  13.443
11585W        W77065   0.860  13.335  14.929
11586W        W77066  43.967  25.605   1.376
11587W        W77067   6.378  20.149   2.362
11588W        W77068  36.930  17.797  11.090
11589W        W77069  27.571  29.064   2.249
11590W        W77070  37.954  43.799  11.029
11591W        W77071   7.251  19.547  12.437
11592W        W77072  34.987  36.460  12.457
11593W        W77073  25.096  44.777  11.858
11594W        W77074  39.862  27.995  14.886
11595W        W77075  18.685  17.141   0.371
11596W        W77076  43.327  34.419  13.003
11597W        W77077  10.771  24.678   4.709
11598W        W77078  11.779  39.386   2.672
11599W        W77079  20.250  18.722  12.915
11600W        W77080  43.794   0.358  10.889
11601W        W77081  32.961  43.383  13.991
11602W        W77082  13.190  30.009   4.182
11603W        W77083  15.613  21.706  11.480
11604W        W77084  30.910  32.962   0.966
11605W        W77085  29.534  16.709  11.584
11606W        W77086  31.622   2.436   0.471
11607W        W77087  31.071  38.329   4.606
11608W        W77088  10.709   1.773   5.094
11609W        W77089  27.657  10.750  12.548
11610W        W77090  17.291   7.823  11.493
11611W        W77091  17.083   0.432  10.926
11612W        W77092   6.278  21.021  14.775
11613W        W77093  14.732  35.577   2.779
11614W        W77094   8.747  20.598  11.963
11615W        W77095  41.983  27.583   4.267
11616W        W77096  23.710   9.788   2.338
11617W        W77097  44.906  38.843  12.385
11618W        W77098  13.348  30.065   0.836
11619W        W77099   2.410  44.807  10.566
11620W        W77100  29.110   9.805  13.464
11621W        W77101  36.081  39.514  11.555
11622W        W77102  31.071  43.019  10.629
11623W        W77103   4.926  19.196  14.769
11624W        W77104  17.586   0.770  11.890
11625W        W77105   3.420  24.493   2.202
11626W        W77106  23.127  39.327  10.577
11627W        W77107   0.966  22.634  11.534
11628W        W77108  31.928  21.208  11.593
11629W        W77109  31.118  22.719  13.819
11630W        W77110  41.835  28.436   0.472
11631W        W77111   5.258   6.741   2.279
11632W        W77112  43.914   9.870  13.915
11633W        W77113  15.272   1.836   0.417
11634W        W77114   8.337  16.729  11.002
11635W        W77115  42.963  17.797  12.902
11636W        W77116   7.358   6.264   2.868
11637W        W77117  13.784  17.074   2.731
11638W        W77118  31.413  10.762  10.515
11639W        W77119  21.191   3.897   2.899
11640W        W77120  18.770  26.530   2.356
11641W        W77121  11.238  11.784  11.902
11642W        W77122  35.590  44.305   2.816
11643W        W77123  38.430  21.547  12.883
11644W        W77124  12.163   0.927   0.750
11645W        W77125  22.228  18.202  11.020
11646W        W77126  12.283   3.900  13.037
11647W        W77127  43.283  36.421  14.398
11648W        W77128  32.569  37.918  13.832
11649W        W77129   7.326  15.130  11.418
11650W        W77130   0.440   6.359  14.031
11651W        W77131   7.238  21.183   3.668
11652W        W77132  17.265   7.317  10.015
11653W        W77133  36.860  17.713   4.218
11654W        W77134  12.721  20.659  13.946
11655W        W77135  19.114  34.887  12.941
11656W        W77136  20.138  44.882   3.196
11657W        W77137  25.025  14.173  10.974
11658W        W77138   5.211  15.797  12.966
11659W        W77139  27.555   7.727  14.894
11660W        W77140   8.337  38.959  11.470
11661W        W77141  15.311  21.683  11.994
11662W        W77142   2.411   3.306   4.770
11663W        W77143   7.308   2.962  12.832
11664W        W77144  23.639  43.381   1.871
11665W        W77145  32.572  35.529   2.291
11666W        W77146   4.389  39.495   4.706
11667W        W77147  35.048   0.254  11.103
11668W        W77148   3.729  36.016   2.673
11669W        W77149  14.666   2.822  13.497
11670W        W77150  28.976  24.174   1.826
11671W        W77151  20.235  21.533   2.734
11672W        W77152   3.728   3.405   4.192
11673W        W77153  14.197   7.329   1.256
11674W        W77154  40.866  13.275   3.323
11675W        W77155  15.589  38.852   5.198
11676W        W77156  42.016   6.846   4.156
11677W        W77157   3.255  40.905  10.598
11678W        W77158   0.766   0.308  12.545
11679W        W77159  43.893  21.734   4.789
11680W        W77160  30.045   6.273   1.801
11681W        W77161  31.496  20.264   2.765
11682W        W77162   4.727  25.492  12.345
11683W        W77163   1.463  40.848  12.823
11684W        W77164   3.826   5.362  10.621
11685W        W77165   2.466  22.612   0.315
11686W        W77166  30.045  18.583  12.505
11687W        W77167  43.784  36.554   2.208
11688W        W77168   7.671   6.683   4.838
11689W        W77169   2.281  12.173   0.793
11690W        W77170  10.788  26.190  12.348
11691W        W77171  13.693  39.374   2.742
11692W        W77172  44.478  22.740   0.482
11693W        W77173  43.418  20.067  12.392
11694W        W77174  26.188   7.288  13.430
11695W        W77175  15.648  24.168   2.887
11696W        W77176  36.900  38.869  10.570
11697W        W77177  38.490  12.680   3.767
11698W        W77178  26.550  10.813   4.167
11699W        W77179  34.446   2.273  13.042
11700W        W77180  38.857  36.929  10.407
11701W        W77181  36.994  14.704   4.715
11702W        W77182  23.720  41.000   3.385
11703W        W77183  35.377  25.686  12.496
11704W        W77184  37.391  25.013  11.033
11705W        W77185  15.716  42.354  12.863
11706W        W77186  14.803  12.762   2.680
11707W        W77187  29.125   7.739  14.406
11708W        W77188  37.399  28.935   2.298
11709W        W77189  18.277  34.060   0.952
11710W        W77190  34.018  31.107   4.113
11711W        W77191  32.516  20.059  10.426
11712W        W77192  17.145  40.889   4.190
11713W        W77193  44.004  26.552  10.595
11714W        W77194  30.440  11.807  12.370
11715W        W77195   0.898  33.988   4.337
11716W        W77196  11.280   6.680  12.478
11717W        W77197  16.679   8.336   4.194
11718W        W77198  33.041  22.678   0.314
11719W        W77199  24.167  13.658  14.486
11720W        W77200  14.758  26.673   3.672
11721W        W77201  10.335  42.834  10.497
11722W        W77202  39.967  25.580   3.764
11723W        W77203  17.229   4.214   1.395
11724W        W77204  20.741  22.060  13.508
11725W        W77205  30.545   5.250  11.552
11726W        W77206  41.034  32.504   2.219
11727W        W77207  22.645  37.505  12.089
11728W        W77208  21.568  35.910  11.548
11729W        W77209  43.773  24.216   4.291
11730W        W77210  30.093  38.496   3.236
11731W        W77211  12.857   9.697   4.226
11732W        W77212   3.829   4.224  11.917
11733W        W77213  33.948  39.453   2.351
11734W        W77214   3.318   4.231   1.364
11735W        W77215  28.036   3.805   5.161
11736W        W77216   2.450  43.328  14.785
11737W        W77217  40.917  26.162   1.750
11738W        W77218  26.985  15.604   0.904
11739W        W77219  20.139  44.786  12.916
11740W        W77220  29.668  22.203   2.738
11741W        W77221  32.623  31.648  11.917
11742W        W77222   5.382  16.609   2.815
11743W        W77223  23.225  34.610   1.388
11744W        W77224  21.524   5.294   0.827
11745W        W77225  10.300   8.288  11.040
11746W        W77226   5.811  18.165  10.526
11747W        W77227  41.900  30.532   9.942
11748W        W77228  40.465  12.714  12.924
11749W        W77229  21.533  10.261  12.364
11750W        W77230  38.479  39.985   4.149
11751W        W77231  18.230   0.976  11.375
11752W        W77232  33.879  36.581   1.749
11753W        W77233   7.831  26.072  13.390
11754W        W77234   2.288  11.842   4.694
11755W        W77235  14.735  12.617   1.413
11756W        W77236  36.011  13.259   4.319
11757W        W77237   0.833  36.063   2.820
11758W        W77238  28.104  44.421  14.840
11759W        W77239  32.046  19.177  11.117
11760W        W77240   7.328  12.783  14.392
11761W        W77241  36.092  20.036   1.802
11762W        W77242  25.141  11.322  10.621
11763W        W77243  11.731  32.455  11.375
11764W        W77244  43.914  27.016   3.371
11765W        W77245   3.356  19.242   2.409
11766W        W77246  18.245  30.603  12.521
11767W        W77247  39.964  12.613   1.893
11768W        W77248  23.111   1.745   5.276
11769W        W77249  20.547  21.125  13.516
11770W        W77250  32.068  33.061  10.124
11771W        W77251   3.712  23.571  12.521
11772W        W77252  15.148  24.001  14.938
11773W        W77253  12.724   0.861   1.749
11774W        W77254  39.499  19.138  13.052
11775W        W77255  42.355  21.152   0.266
11776W        W77256   0.908   0.799  14.339
11777W        W77257   1.347  30.913  13.911
11778W        W77258  37.533  40.356  10.535
11779W        W77259   2.727  32.976   1.867
11780W        W77260  32.991   8.669   2.668
11781W        W77261  24.516  39.888   1.352
11782W        W77262  35.436   1.940  12.376
11783W        W77263  38.353  13.809   1.243
11784W        W77264  35.406  36.467  11.009
11785W        W77265  15.290  13.688  14.511
11786W        W77266   7.812  40.028  11.033
11787W        W77267   1.949  19.262   1.359
11788W        W77268  19.739  33.522   0.844
11789W        W77269  11.863   9.302  14.399
11790W        W77270  23.578  12.315   3.356
11791W        W77271  24.538   0.746   2.358
11792W        W77272  24.549  25.986   0.748
11793W        W77273  14.681  38.549   3.763
11794W        W77274  40.455  35.425  12.004
11795W        W77275  24.671  16.262   0.810
11796W        W77276   3.449   7.201  10.419
11797W        W77277  16.212  25.148  12.977
11798W        W77278  40.969  31.421   3.181
11799W        W77279   0.840  25.082  12.461
11800W        W77280  42.490   1.476   2.804
11801W        W77281   9.238   9.778   4.661
11802W        W77282  17.257  30.444   1.815
11803W        W77283  33.008   8.386  13.807
11804W        W77284  26.539  24.215  10.498
11805W        W77285  30.059  32.543   4.255
11806W        W77286  15.264  23.677   1.330
11807W        W77287  39.481  18.108   1.247
11808W        W77288  41.379  13.710   1.737
11809W        W77289  28.060  35.012   0.807
11810W        W77290  33.426  14.807   4.724
11811W        W77291  44.903  35.030  12.526
11812W        W77292  10.771   2.331   1.748
11813W        W77293   5.707  18.788  14.766
11814W        W77294   0.383  15.814  12.076
11815W        W77295   7.873  42.355   1.811
11816W        W77296  39.039  42.927   4.258
11817W        W77297  11.656   6.327  11.105
11818W        W77298   9.375   5.204   1.312
11819W        W77299  18.152  26.049   0.942
11820W        W77300  42.305  23.067  12.490
11821W        W77301  32.628  22.997  12.395
11822W        W77302  26.044  16.266   1.227
11823W        W77303  26.664  35.424  14.934
11824W        W77304  30.111  22.184   0.440
11825W        W77305   8.406  32.412  10.431
11826W        W77306  18.608  26.639   0.926
11827W        W77307  42.938  19.248  12.002
11828W        W77308  37.462  12.244  11.868
11829W        W77309  36.005  42.997  12.349
11830W        W77310   1.798  14.750   0.839
11831W        W77311  11.865  33.124   1.427
11832W        W77312  25.105  37.414  13.474
11833W        W77313  26.160  14.710   1.326
11834W        W77314  31.898  34.564   4.259
11835W        W77315  25.634  35.428   2.326
11836W        W77316   1.298  29.600   0.337
11837W        W77317  11.302  26.107  12.088
11838W        W77318  10.370  27.594  14.794
11839W        W77319   6.824  30.013   2.262
11840W        W77320  31.964   8.369   0.416
11841W        W77321  28.128   4.249   4.827
11842W        W77322   5.377  18.585   0.881
11843W        W77323  30.960  19.563  10.136
11844W        W77324  42.346   7.905   2.691
11845W        W77325  17.572  18.264   0.808
11846W        W77326  23.208  32.102  14.013
11847W        W77327  29.094  44.804  13.335
11848W        W77328  11.866  12.827   5.106
11849W        W77329  39.840  17.136   3.311
11850W        W77330   5.416  11.136  14.450
11851W        W77331  42.321   4.239  14.406
11852W        W77332  33.625  17.166   1.865
11853W        W77333  21.103  31.144   1.883
11854W        W77334  33.439  20.249  12.389
11855W        W77335  42.440  31.142  14.908
11856W        W77336  24.711  43.832  13.861
11857W        W77337  33.409  31.560  13.404
11858W        W77338  11.626   4.328  11.957
11859W        W77339  27.464  26.666   2.354
11860W        W77340  31.410   5.282   2.810
11861W        W77341  38.837  35.030  14.865
11862W        W77342  39.027  40.808   4.609
11863W        W77343   3.254  44.828   1.868
11864W        W77344  20.061  21.173   2.891
11865W        W77345  33.932  36.034  10.921
11866W        W77346  19.621   5.318   3.690
11867W        W77347  30.092  25.548  12.895
11868W        W77348  18.135   6.700  11.115
11869W        W77349   7.898  27.036  11.038
11870W        W77350  24.657  11.328  11.611
11871W        W77351  23.036  11.165   3.149
11872W        W77352  43.418  26.159  13.527
11873W        W77353  32.440  32.540   4.294
11874W        W77354  25.565  26.537   4.154
11875W        W77355  21.194  28.640  10.519
11876W        W77356  22.655   5.210  10.956
11877W        W77357  39.471  26.583   3.779
11878W        W77358  17.790  27.511   5.110
11879W        W77359  21.178  23.019  11.119
11880W        W77360  38.338  19.636   4.627
11881W        W77361   8.241  19.638  14.761
11882W        W77362  14.310   2.240   4.171
11883W        W77363   5.322  29.928   3.358
11884W        W77364  39.956   0.960   1.242
11885W        W77365  41.013   3.222   0.801
11886W        W77366   1.283  30.548   1.734
11887W        W77367  17.705   0.985   0.363
11888W        W77368   2.421  35.898  14.879
11889W        W77369  23.182  20.762   3.248
11890W        W77370  10.201  36.526  14.503
11891W        W77371  25.177   3.335   2.711
11892W        W77372  36.039  34.452   4.702
11893W        W77373  15.188  13.194  11.873
11894W        W77374   5.325  26.479   9.975
11895W        W77375   7.824  26.016  11.436
11896W        W77376  13.715   8.302   0.803
11897W        W77377   4.212  35.992  10.593
11898W        W77378  32.125  28.938  13.437
11899W        W77379  26.203  34.484   2.414
11900W        W77380   8.660   8.734   2.779
11901W        W77381  19.144  41.513  14.470
11902W        W77382  19.252  25.529   0.386
11903W        W77383  25.489  10.761   2.322
11904W        W77384  12.806   2.326   1.288
11905W        W77385   2.899   0.911   0.729
11906W        W77386  22.690  27.995   5.213
11907W        W77387  28.541  38.990  11.396
11908W        W77388  40.016  41.319  14.005
11909W        W77389  15.114   0.850  13.352
11910W        W77390  26.124  43.359  13.461
11911W        W77391  10.238   9.333  12.080
11912W        W77392  39.900  15.327   4.216
11913W        W77393  13.717  21.190   3.315
11914W        W77394  16.231   0.477   1.336
11915W        W77395  15.113  31.585   0.311
11916W        W77396  10.189   3.841  14.886
11917W        W77397   4.750   5.695  10.613
11918W        W77398  34.419  21.057   4.198
11919W        W77399  14.336  14.621   0.286
11920W        W77400   6.767   4.434  12.387
11921W        W77401  35.030  16.297  11.863
11922W        W77402   6.268  15.607  11.588
11923W        W77403   5.885  15.798   3.258
11924W        W77404  23.173  42.910  11.983
11925W        W77405  38.947   6.194  10.949
11926W        W77406  28.627  13.624   2.699
11927W        W77407  30.968  29.501   4.182
11928W        W77408   8.270   4.332   2.294
11929W        W77409  27.592  34.106   3.228
11930W        W77410  27.135  33.945  12.488
11931W        W77411  34.586   5.359  11.599
11932W        W77412  41.846  40.451  13.471
11933W        W77413  28.094  25.154  10.563
11934W        W77414  10.184  44.303  11.893
11935W        W77415   2.914   8.343  11.389
11936W        W77416   6.232  24.976  11.078
11937W        W77417  13.809  37.961   4.348
11938W        W77418  16.652  40.475   3.770
11939W        W77419  13.756  26.624  13.879
11940W        W77420  35.108  41.494  10.972
11941W        W77421  14.298   8.657  12.568
11942W        W77422   1.732  40.874  11.103
11943W        W77423  40.519  13.731   0.896
11944W        W77424  31.552   1.841  13.428
11945W        W77425   9.698  16.296  10.917
11946W        W77426  16.185  42.446   5.278
11947W        W77427  16.263   0.273   2.367
11948W        W77428  36.557  25.600  12.397
11949W        W77429   4.868  25.074   4.823
11950W        W77430   8.705  35.585  11.427
11951W        W77431  30.635  13.144  14.881
11952W        W77432   4.333  11.863  12.989
11953W        W77433  15.110  43.329  11.942
11954W        W77434  43.818  11.287  10.932
11955W        W77435  13.628  22.196   2.696
11956W        W77436  21.207  14.213   3.754
11957W        W77437  30.988  16.295   4.228
11958W        W77438  34.900   6.807   2.195
11959W        W77439  42.509  39.969   3.841
11960W        W77440   2.946  33.077   4.123
11961W        W77441  26.542   6.731   2.322
11962W        W77442  42.524  14.127   3.165
11963W        W77443  15.643   2.256   0.305
11964W        W77444  13.260  31.517   4.670
11965W        W77445  35.869  28.607  11.095
11966W        W77446  38.402  29.018  14.426
11967W        W77447   8.889  18.727  13.903
11968W        W77448  24.132  13.271   1.843
11969W        W77449  44.422   9.243   3.340
11970W        W77450  25.963  26.021  13.514
11971W        W77451   3.244  26.487  11.084
11972W        W77452   2.356   1.275   3.788
11973W        W77453   3.425  23.603  12.841
11974W        W77454  30.136  22.679  13.966
11975W        W77455  28.442  27.453  12.914
11976W        W77456  26.644  31.424   0.295
11977W        W77457  30.492  18.127  11.092
11978W        W77458  44.778   0.450  14.811
11979W        W77459  22.103  34.949   0.838
11980W        W77460  15.767  30.422  10.525
11981W        W77461  17.218  42.952  12.420
11982W        W77462  12.851  35.549  11.053
11983W        W77463  20.043  17.144   2.822
11984W        W77464   8.342   4.345  11.502
11985W        W77465   8.835  44.278  13.844
11986W        W77466  44.449  43.913  12.854
11987W        W77467   2.289  31.409   0.880
11988W        W77468  30.974  38.421  10.047
11989W        W77469  25.520  44.500   3.703
11990W        W77470  24.587  43.967  10.603
11991W        W77471  25.709  27.639  14.897
11992W        W77472  17.758   4.792  11.024
11993W        W77473  36.942  34.575   2.809
11994W        W77474   7.741  38.924  13.423
11995W        W77475   3.734  43.333   0.428
11996W        W77476  26.196  17.716  14.006
11997W        W77477   3.267  44.401   4.316
11998W        W77478   5.853  31.104   3.713
11999W        W77479  36.588  24.129   1.710
12000W        W77480  24.590  24.671  14.484
12001W        W77481  23.576  33.484  12.879
12002W        W77482   3.358  16.771   3.857
12003W        W77483   7.743  27.531   3.228
12004W        W77484  13.270   6.228   4.767
12005W        W77485  32.395  11.263   0.388
12006W        W77486  11.178   2.810   1.776
12007W        W77487  25.060  29.495   1.236
12008W        W77488   6.340  17.196   4.209
12009W        W77489  40.474   4.225   3.745
12010W        W77490  44.363  10.732   1.407
12011W        W77491   0.408  17.290   1.228
12012W        W77492  35.516  10.146  13.386
12013W        W77493  33.521   5.251   1.867
12014W        W77494  38.836  30.092   0.288
12015W        W77495  36.584   8.738   0.823
12016W        W77496  35.460   3.751  14.913
12017W        W77497  30.508   2.778  14.917
12018W        W77498  22.611   5.416  13.035
12019W        W77499  33.498   6.904   2.285
12020W        W77500  20.650  31.602  13.378
12021W        W77501  14.720  13.201  12.539
12022W        W77502   1.341  31.966  11.589
12023W        W77503   4.736   2.241   3.737
12024W        W77504   3.898  19.069  12.989
12025W        W77505   1.841  13.763  13.357
12026W        W77506   7.679  39.469   0.324
12027W        W77507  21.187  24.583   5.106
12028W        W77508   2.900  19.044   3.272
12029W        W77509  18.077  20.700   3.713
12030W        W77510  18.247  40.379   1.300
12031W        W77511  26.102  44.457  12.881
12032W        W77512  15.627  26.512  12.845
12033W        W77513  13.244   5.386   1.915
12034W        W77514  16.709  19.717   4.622
12035W        W77515  35.081  39.821   4.140
12036W        W77516  36.038  11.247   2.846
12037W        W77517  44.897  22.542  12.547
12038W        W77518  36.550  32.488   0.433
12039W        W77519   6.680  37.934   4.347
12040W        W77520   9.160  22.027   0.447
12041W        W77521  31.045  33.501   3.806
12042W        W77522  33.525  19.055   4.255
12043W        W77523  24.658  21.049  12.043
12044W        W77524  43.776  26.015   4.614
12045W        W77525  19.771   8.827  13.358
12046W        W77526  37.488  15.179   1.814
12047W        W77527  31.487  31.506  10.617
12048W        W77528  36.890   1.837  11.960
12049W        W77529  42.527  31.967   1.396
12050W        W77530  16.687  26.630   0.333
12051W        W77531  35.462  32.544   0.904
12052W        W77532  23.502  13.736  14.853
12053W        W77533  18.262  26.466  13.950
12054W        W77534  37.499  21.581  12.091
12055W        W77535  23.496  42.496   3.242
12056W        W77536   9.795  12.305  13.063
12057W        W77537  41.808  23.176   2.196
12058W        W77538  13.342  29.460   4.631
12059W        W77539  38.486  30.148  13.488
12060W        W77540   3.280  15.585   0.840
12061W        W77541   1.299  35.880  14.940
12062W        W77542  14.104  25.042  12.560
12063W        W77543  24.036  35.884   2.708
12064W        W77544  19.678  29.554   0.422
12065W        W77545   4.862   0.860  13.454
12066W        W77546  34.472  26.150  12.888
12067W        W77547  37.910  15.802   2.350
12068W        W77548  40.816  29.029   1.925
12069W        W77549  16.304  22.071   1.794
12070W        W77550  10.669  37.463   0.388
12071W        W77551  36.450  35.404  10.911
12072W        W77552   6.919  23.991   2.858
12073W        W77553  34.508  10.821  12.907
12074W        W77554  40.410  25.004   5.261
12075W        W77555  31.643  15.741  11.911
12076W        W77556   1.884  43.368  10.479
12077W        W77557  41.484  28.965  12.437
12078W        W77558   1.254  17.255  13.877
12079W        W77559  37.405  33.025  13.338
12080W        W77560   3.847   7.335   2.772
12081W        W77561  31.632   8.382   3.250
12082W        W77562   3.436  31.938   3.844
12083W        W77563   7.222  38.067  12.836
12084W        W77564  17.599  43.382  13.933
12085W        W77565  44.411  36.568  12.899
12086W        W77566   8.678  10.163   3.217
12087W        W77567  36.542  23.182  11.422
12088W        W77568  32.441  12.855   3.779
12089W        W77569  37.082  35.854  11.445
12090W        W77570  31.023  34.458  14.409
12091W        W77571  10.686  35.586   2.863
12092W        W77572  20.114   9.199  11.417
12093W        W77573  33.498  10.688   2.344
12094W        W77574   2.781   2.468   3.651
12095W        W77575  30.511  20.577   1.412
12096W        W77576  10.190  27.005   2.896
12097W        W77577  24.488  11.699  12.900
12098W        W77578  22.058  28.668   2.289
12099W        W77579  15.726  31.019   2.881
12100W        W77580  36.942  43.004   3.779
12101W        W77581   7.809  36.427   1.774
12102W        W77582   1.820  17.784  14.868
12103W        W77583  15.260  16.109  13.956
12104W        W77584  15.612   7.741  10.948
12105W        W77585   6.789  13.696  12.486
12106W        W77586  26.516   8.230  11.011
12107W        W77587   3.826  14.781   4.166
12108W        W77588   4.393  11.821   4.615
12109W        W77589  38.947  30.514  14.962
12110W        W77590  20.601  23.046  11.076
12111W        W77591  20.069   6.730  12.043
12112W        W77592  33.614   9.884   0.419
12113W        W77593  36.374  27.057   4.631
12114W        W77594  22.530  35.016  10.894
12115W        W77595  40.321  17.188  13.447
12116W        W77596   8.326   7.180  12.067
12117W        W77597  18.178  14.281   5.199
12118W        W77598  36.453  20.540   4.662
12119W        W77599  14.611   6.383  10.990
12120W        W77600   8.742   2.730   0.919
12121W        W77601  37.385   5.821   3.344
12122W        W77602  17.240   4.943   2.826
12123W        W77603  25.551   7.688   4.822
12124W        W77604  16.075   0.404  12.918
12125W        W77605  15.631  44.900   4.341
12126W        W77606  13.215  38.563  14.456
12127W        W77607   6.793   3.250  13.835
12128W        W77608  10.254  31.070   3.855
12129W        W77609  25.688   6.767  14.910
12130W        W77610   5.286  24.029  11.600
12131W        W77611   1.791  15.138  13.928
12132W        W77612  31.951  29.557  13.412
12133W        W77613  39.412  18.213  14.431
12134W        W77614  21.190  19.251  10.540
12135W        W77615  17.649   8.790   3.714
12136W        W77616  39.984  13.626   3.380
12137W        W77617   8.279  29.134   1.314
12138W        W77618  28.039  29.074   0.358
12139W        W77619  31.597  19.730   2.689
12140W        W77620  33.598  36.429   4.297
12141W        W77621   9.285  23.633  12.068
12142W        W77622   8.778  33.075  11.908
12143W        W77623  40.015  28.174  14.431
12144W        W77624   1.902   6.917   1.705
12145W        W77625  17.214   6.398  13.829
12146W        W77626   0.489  38.362  10.912
12147W        W77627  11.821  12.303   0.873
12148W        W77628   6.225  29.084   5.280
12149W        W77629   0.871   1.242  11.019
12150W        W77630  30.536  27.635   4.147
12151W        W77631  10.867  43.859  12.401
12152W        W77632   3.760  34.993  13.895
12153W        W77633  39.909  31.472   4.302
12154W        W77634  30.164   9.236  13.934
12155W        W77635  40.336  31.486  11.918
12156W        W77636  26.652  34.372  11.881
12157W        W77637  28.005  29.631  13.421
12158W        W77638  25.689   2.743   0.367
12159W        W77639  36.430   0.881  12.081
12160W        W77640  14.186  37.831   4.818
12161W        W77641  40.414  37.839   3.307
12162W        W77642  17.128  18.176   0.787
12163W        W77643  32.558  26.609  12.951
12164W        W77644  15.227  39.976  11.995
12165W        W77645  41.455  16.291  13.423
12166W        W77646  36.416  42.442  14.902
12167W        W77647  21.057  37.579  13.468
12168W        W77648   6.700   8.725   1.841
12169W        W77649  34.016  12.268  14.962
12170W        W77650   2.375  41.026   4.291
12171W        W77651   6.683   8.372   2.715
12172W        W77652  42.510   1.975   1.409
12173W        W77653  39.368  31.930   0.832
12174W        W77654  27.587  21.235  11.377
12175W        W77655  17.167  20.554  13.051
12176W        W77656  43.851  24.550   0.398
12177W        W77657  29.467  27.123   4.331
12178W        W77658  32.528  34.044   4.348
12179W        W77659  26.157  37.082  13.372
12180W        W77660  38.424  18.689  13.448
12181W        W77661  16.767   8.376  14.949
12182W        W77662  11.695  42.842   3.156
12183W        W77663   4.392  30.633   1.444
12184W        W77664  19.231  11.340   3.367
12185W        W77665   1.780   2.463   4.279
12186W        W77666   7.230  25.028   2.711
12187W        W77667  33.591  36.347  14.284
12188W        W77668  20.042  25.134   0.932
12189W        W77669  20.685  16.147   3.276
12190W        W77670  43.770  29.004  13.905
12191W        W77671  25.690  31.937   1.930
12192W        W77672   4.873   5.284  13.872
12193W        W77673   2.294  13.116  14.925
12194W        W77674  34.550   7.684  14.296
12195W        W77675  32.043  30.007   1.758
12196W        W77676  36.912  41.878  11.942
12197W        W77677  31.430  11.724   3.810
12198W        W77678  27.042  43.816   1.824
12199W        W77679   9.231  21.585  10.641
12200W        W77680  22.518  11.793   5.122
12201W        W77681   2.364  33.437  13.476
12202W        W77682  26.993  42.501  12.403
12203W        W77683   1.240   9.837  12.998
12204W        W77684  41.035  19.215   4.326
12205W        W77685  18.670  21.621   0.835
12206W        W77686  26.503   3.350   3.682
12207W        W77687  23.128   9.170  14.806
12208W        W77688  18.268  23.117   0.292
12209W        W77689  39.877   8.855  13.864
12210W        W77690  32.111  15.817   3.755
12211W        W77691  13.714  15.682   2.201
12212W        W77692  44.867  25.619   0.252
12213W        W77693  36.020  31.914  11.126
12214W        W77694  40.342  33.554  10.067
12215W        W77695   3.942  18.193   3.869
12216W        W77696  25.214  32.523   3.180
12217W        W77697  32.032  43.427  13.981
12218W        W77698  16.570  10.783  12.877
12219W        W77699  30.065  36.373   2.843
12220W        W77700  42.010  18.137   3.191
12221W        W77701   3.250  18.686  14.457
12222W        W77702  13.288  12.278  14.788
12223W        W77703  38.951  30.418  12.905
12224W        W77704  26.556  39.373   0.967
12225W        W77705  42.305  16.177   0.873
12226W        W77706  19.666  28.469   1.408
12227W        W77707  17.567  25.082  14.788
12228W        W77708   5.851  43.828   4.791
12229W        W77709  16.277  15.761   0.865
12230W        W77710  37.028  42.862  14.765
12231W        W77711   8.381  41.440  12.861
12232W        W77712  21.094   5.709  10.003
12233W        W77713  31.943  25.134  11.488
12234W        W77714  43.338  13.198   4.283
12235W        W77715  11.353   1.243  13.346
12236W        W77716  22.050  37.479   1.257
12237W        W77717  25.589  20.087  10.562
12238W        W77718  24.644  20.035   3.673
12239W        W77719  41.790  39.810  12.908
12240W        W77720   3.727  39.849  13.799
12241W        W77721  24.558  37.956   2.734
12242W        W77722  21.641  38.360  12.388
12243W        W77723   5.424   1.343  14.903
12244W        W77724  19.191   9.668  10.462
12245W        W77725  20.201  35.600  14.975
12246W        W77726  26.480  23.987   4.250
12247W        W77727   7.378   9.827  12.519
12248W        W77728  35.863  18.761  11.396
12249W        W77729  20.710  22.024   3.662
12250W        W77730   0.463  21.073  10.077
12251W        W77731  36.042  17.147   2.230
12252W        W77732   0.983  40.430   0.482
12253W        W77733   6.409  18.774   3.312
12254W        W77734  43.815  12.284   2.867
12255W        W77735   3.723  28.522   1.761
12256W        W77736   4.909  23.526   0.387
12257W        W77737  14.313  33.550   0.849
12258W        W77738   6.881   0.287  14.310
12259W        W77739  11.301  19.278   3.678
12260W        W77740  20.078  30.104   3.866
12261W        W77741  25.074  36.393   1.441
12262W        W77742  14.148  28.669  10.611
12263W        W77743  11.150  14.596  11.858
12264W        W77744   2.827  11.792   1.899
12265W        W77745  14.308  37.946  11.071
12266W        W77746  23.198  19.244   3.282
12267W        W77747  36.048  22.507  12.435
12268W        W77748   5.272   0.764   2.763
12269W        W77749  22.659  14.767  11.862
12270W        W77750  29.649  18.247  10.995
12271W        W77751   5.232  26.176   4.716
12272W        W77752  36.988  10.341  10.047
12273W        W77753  34.056   5.926   0.327
12274W        W77754  32.591  14.253   0.404
12275W        W77755  36.885   4.368  10.632
12276W        W77756  15.701  11.253   2.320
12277W        W77757  41.471  31.121   3.309
12278W        W77758  34.488  19.200  10.426
12279W        W77759   5.768  33.880  11.441
12280W        W77760   2.935  40.876   4.607
12281W        W77761  30.936  23.551  13.309
12282W        W77762  26.103  15.084  14.893
12283W        W77763  28.602  44.911  11.424
12284W        W77764  26.566  31.594   2.323
12285W        W77765  20.141   6.343  10.590
12286W        W77766  10.374  41.812   9.977
12287W        W77767  12.677   9.790  11.586
12288W        W77768   6.860   7.206   4.729
12289W        W77769  31.035  21.582   4.278
12290W        W77770  39.853  39.840  10.614
12291W        W77771  11.365  15.822  13.488
12292W        W77772  33.447   6.412   2.273
12293W        W77773  12.733   2.861  10.961
12294W        W77774   7.744  29.564  10.558
12295W        W77775   9.720  22.065  14.882
12296W        W77776  14.777  35.407   4.597
12297W        W77777  19.664   6.699   0.934
12298W        W77778  39.914  28.680   1.216
12299W        W77779  19.775  41.949   2.264
12300W        W77780  14.797  39.505  11.990
12301W        W77781  25.518   6.740   2.354
12302W        W77782  16.696  11.756   0.379
12303W        W77783  44.847  36.436   0.328
12304W        W77784   7.826  24.663   2.259
12305W        W77785  40.836  27.503  14.287
12306W        W77786   1.462   6.329  14.282
12307W        W77787  31.967  21.612   1.895
12308W        W77788  22.588  22.189  14.866
12309W        W77789  26.173  25.665   1.270
12310W        W77790   2.948  15.289  13.976
12311W        W77791  22.093  14.293   3.683
12312W        W77792  38.458  25.649  13.354
12313W        W77793  39.875  39.916   3.273
12314W        W77794  30.491  38.859   9.476
12315W        W77795  27.602   3.925   3.322
12316W        W77796  43.008  35.555  14.842
12317W        W77797  14.789  22.551  11.373
12318W        W77798  37.838   5.860   3.251
12319W        W77799  12.308  37.927  14.898
12320W        W77800  42.484  17.633   2.286
12321W        W77801  31.028  43.421   0.764
12322W        W77802   9.392  10.236   2.787
12323W        W77803   4.939  37.837  12.436
12324W        W77804  18.156  18.286   3.836
12325W        W77805  23.582   2.467  13.358
12326W        W77806  25.046  32.986  14.331
12327W        W77807  16.602  43.919   2.890
12328W        W77808  16.699  16.222  13.813
12329W        W77809   1.968  11.635   3.373
12330W        W77810  12.804   6.900   4.229
12331W        W77811   9.882  21.687  10.630
12332W        W77812  42.968  10.827   1.771
12333W        W77813  38.365   5.221   0.879
12334W        W77814  13.671  42.518   0.298
12335W        W77815  27.072  34.052   4.272
12336W        W77816  25.479  30.925   2.690
12337W        W77817  12.287  37.544  12.874
12338W        W77818  14.318  38.849   3.372
12339W        W77819  21.192  37.532  14.879
12340W        W77820   2.301   8.326  14.333
12341W        W77821  42.429  21.567  12.054
12342W        W77822  28.587  31.619  12.009
12343W        W77823  37.072  30.414   0.435
12344W        W77824  30.627  28.566   0.923
12345W        W77825  22.610  22.554  11.497
12346W        W77826  44.835   2.783   2.212
12347W        W77827  35.565  35.914   4.764
12348W        W77828  44.399  14.187   4.687
12349W        W77829  10.149   4.206   1.757
12350W        W77830  25.102   3.729  13.913
12351W        W77831  21.092   1.300   3.252
12352W        W77832  11.853  43.391   0.737
12353W        W77833   9.342   9.779  11.469
12354W        W77834  36.571  40.509   2.896
12355W        W77835  12.321   0.771  12.046
12356W        W77836   9.751  34.910  12.407
12357W        W77837  37.379  10.249   5.097
12358W        W77838   7.386   6.794  12.881
12359W        W77839  22.638  33.967  10.564
12360W        W77840  11.149  21.252   4.211
12361W        W77841  30.427  35.504  14.344
12362W        W77842   9.849  10.323   0.942
12363W        W77843   9.657  40.823  12.383
12364W        W77844  43.367  12.121   1.873
12365W        W77845  15.666  43.957  14.412
12366W        W77846  36.877  21.203  14.369
12367W        W77847   0.290  16.170  14.298
12368W        W77848  42.976   6.813  10.621
12369W        W77849   3.778  10.357  12.454
12370W        W77850  44.431  13.277   1.269
12371W        W77851  25.185  20.255   1.752
12372W        W77852  42.455  35.854   2.213
12373W        W77853  32.577  42.852   3.845
12374W        W77854  10.365  24.097   3.738
12375W        W77855  15.116  37.959   2.718
12376W        W77856  12.669  30.989  14.829
12377W        W77857  38.023  10.341   1.903
12378W        W77858  34.582   4.878   4.837
12379W        W77859  32.399  35.558  11.943
12380W        W77860   0.967   3.772   0.928
12381W        W77861   9.829   2.309  14.902
12382W        W77862  17.725  37.044  11.549
12383W        W77863  32.397  37.516   0.249
12384W        W77864  42.438   6.196   0.385
12385W        W77865   5.748   7.906  10.463
12386W        W77866  12.142  11.682   0.436
12387W        W77867  40.446   5.259  14.287
12388W        W77868  34.987  11.642   2.700
12389W        W77869  18.572  35.893  14.828
12390W        W77870  26.685  37.862   2.774
12391W        W77871  19.689  34.011   2.822
12392W        W77872  26.076  32.111  11.095
12393W        W77873  36.020  30.983  11.925
12394W        W77874  35.051  25.041   5.300
12395W        W77875  44.842  22.109   1.363
12396W        W77876  25.510  41.873  14.991
12397W        W77877  12.267  23.221  13.536
12398W        W77878  17.286  25.647   3.761
12399W        W77879  27.575  10.724   1.275
12400W        W77880  21.018  13.766  11.520
12401W        W77881  38.547  20.160   1.353
12402W        W77882  34.912  14.634  12.527
12403W        W77883   0.433  16.233  11.586
12404W        W77884  38.347  28.624  11.924
12405W        W77885  30.418   4.222   3.799
12406W        W77886  21.100   8.311  14.436
12407W        W77887  39.330  12.142  13.421
12408W        W77888  36.088   0.791   4.218
12409W        W77889  26.545   9.382  10.445
12410W        W77890  17.692  30.085  11.424
12411W        W77891  23.127  20.531  12.022
12412W        W77892  13.155  39.037  13.525
12413W        W77893  38.898  32.436  14.384
12414W        W77894  26.049   1.252   3.387
12415W        W77895  23.724  27.607   4.278
12416W        W77896  18.158  28.621   3.712
12417W        W77897  12.307   2.291  14.961
12418W        W77898  12.169  17.749  12.842
12419W        W77899  14.793  14.720  13.858
12420W        W77900   7.899  17.601  14.929
12421W        W77901  35.461  38.889  12.521
12422W        W77902  17.235  11.266   4.230
12423W        W77903  16.254  42.386   0.324
12424W        W77904  41.794  40.827   0.302
12425W        W77905  27.637  32.915  10.955
12426W        W77906  21.682  41.965  13.921
12427W        W77907  20.536  29.661  11.039
12428W        W77908  41.790  10.733  10.557
12429W        W77909  20.208  19.763  12.928
12430W        W77910  23.660  41.446   3.327
12431W        W77911  16.787  27.461  10.484
12432W        W77912  16.241  20.063  11.589
12433W        W77913  13.650  24.177  11.124
12434W        W77914  10.288   9.217   2.708
12435W        W77915  44.806  30.150  12.386
12436W        W77916  21.716  26.456  10.147
12437W        W77917  22.520   7.260   1.301
12438W        W77918  19.210  15.726   4.342
12439W        W77919  43.905  41.452  10.468
12440W        W77920   1.764  34.040  13.886
12441W        W77921  18.576  31.469   1.923
12442W        W77922  32.887  23.029  12.059
12443W        W77923   1.247  21.221  13.452
12444W        W77924  27.064  33.546  12.877
12445W        W77925   8.861  33.124   2.733
12446W        W77926  42.993  40.951   4.186
12447W        W77927  27.467  19.117  14.859
12448W        W77928  33.616  16.231  13.343
12449W        W77929  12.793   2.780  11.867
12450W        W77930  12.255  34.537  11.423
12451W        W77931  20.563  44.862   3.330
12452W        W77932  38.917  36.349   1.793
12453W        W77933  43.278  23.613  14.384
12454W        W77934   4.309  16.803  10.940
12455W        W77935  37.939  39.519  11.019
12456W        W77936  23.535   3.321  12.964
12457W        W77937  12.852  28.120   4.196
12458W        W77938  30.031   9.361  14.285
12459W        W77939  27.109  22.581  10.531
12460W        W77940  29.511  17.087   4.804
12461W        W77941  34.467   7.905  13.955
12462W        W77942  25.570  19.136   0.788
12463W        W77943  44.969  15.140   4.802
12464W        W77944  13.830  30.531   2.306
12465W        W77945  20.064  28.509  11.541
12466W        W77946  44.490  37.894   2.736
12467W        W77947  16.666  17.285   4.260
12468W        W77948  30.635   4.919   2.178
12469W        W77949  40.404  39.458  14.993
12470W        W77950   2.844   5.332   4.665
12471W        W77951  36.433  35.016  12.470
12472W        W77952  32.897  36.954   4.615
12473W        W77953  37.904  21.222   3.305
12474W        W77954  31.481  40.514   1.748
12475W        W77955  12.760   2.866   2.221
12476W        W77956   2.864  43.406  11.610
12477W        W77957   5.351  42.307   4.196
12478W        W77958  34.386  31.142  13.879
12479W        W77959  22.724  33.007   0.359
12480W        W77960   0.772  21.158  11.596
12481W        W77961  13.270   3.258   1.250
12482W        W77962  15.088  36.462  10.975
12483W        W77963   2.732  30.515   2.897
12484W        W77964  40.898  17.766   0.333
12485W        W77965  18.595  29.531   2.840
12486W        W77966   3.852  14.110  14.502
12487W        W77967   1.845  44.963   1.308
12488W        W77968  42.448  12.773  13.920
12489W        W77969  27.483  14.822  11.010
12490W        W77970   7.327  41.795   3.853
12491W        W77971  30.996  31.084  14.453
12492W        W77972  42.500  26.488   4.241
12493W        W77973   6.384  16.305   2.181
12494W        W77974  13.348  34.393  10.113
12495W        W77975   2.365  42.490  14.924
12496W        W77976  17.193  24.572   1.876
12497W        W77977  27.587   4.785   3.760
12498W        W77978  42.024   4.372  12.019
12499W        W77979  19.672  18.069   0.876
12500W        W77980   8.726  43.900   0.264
12501W        W77981  35.910  44.395   3.296
12502W        W77982   9.246  35.958  13.926
12503W        W77983  32.140  35.496   2.185
12504W        W77984  11.851   8.221  13.392
12505W        W77985  17.597  24.674   3.199
12506W        W77986  42.779   1.943  11.071
12507W        W77987   1.925  27.943   4.790
12508W        W77988  12.805  34.935  12.942
12509W        W77989   7.794   3.795  13.439
12510W        W77990  20.603  31.481  10.933
12511W        W77991   0.254  11.792  12.419
12512W        W77992  30.505  41.490   4.140
12513W        W77993  19.248  41.999   2.885
12514W        W77994   9.357  37.879   4.130
12515W        W77995  21.613   4.862  14.974
12516W        W77996  35.962  12.745  12.467
12517W        W77997   4.914   0.386  13.432
12518W        W77998  13.238  29.667  11.382
12519W        W77999  38.532  13.127  10.968
12520W        W78000   1.763  24.050   2.221
12521W        W78001  17.082   2.747   4.721
12522W        W78002  30.586  37.408  12.576
12523W        W78003   6.378  28.596   1.310
12524W        W78004  27.476  31.557   1.359
12525W        W78005  14.251  16.093   4.190
12526W        W78006   9.854  41.857  12.833
12527W        W78007  27.982  32.051  13.359
12528W        W78008  28.160  20.560   3.195
12529W        W78009  25.046  18.092  12.015
12530W        W78010  20.756  23.232   3.782
12531W        W78011  32.074  32.991  13.457
12532W        W78012  24.596  33.473   3.260
12533W        W78013  27.962  43.405  12.379
12534W        W78014   2.930   1.872  10.985
12535W        W78015  39.052  25.136   1.437
12536W        W78016   0.802   8.359   0.447
12537W        W78017  18.563   3.832  12.952
12538W        W78018  19.598  41.019  10.602
12539W        W78019  26.564  19.643   1.229
12540W        W78020   4.770   5.930  11.885
12541W        W78021  40.432  16.260   1.358
12542W        W78022   8.215  27.983   0.835
12543W        W78023  33.531  42.291  10.972
12544W        W78024  23.110   2.410  14.862
12545W        W78025  44.885   3.786   2.676
12546W        W78026  29.463  12.857   1.308
12547W        W78027   4.347  40.341  11.002
12548W        W78028  40.869  23.109   4.181
12549W        W78029  14.155   7.700  12.476
12550W        W78030  26.201   1.322  11.545
12551W        W78031   7.194  36.396  13.031
12552W        W78032  29.002   0.866   3.806
12553W        W78033  33.116  16.663  11.917
12554W        W78034   4.934  30.030   4.330
12555W        W78035  42.505  16.651  11.933
12556W        W78036  13.653  43.386   3.379
12557W        W78037  14.699   1.737  12.929
12558W        W78038  24.226   5.857   3.705
12559W        W78039   8.292  40.469  13.936
12560W        W78040  38.986  43.393  10.420
12561W        W78041  40.822  11.211  11.027
12562W        W78042   0.303  15.784   0.931
12563W        W78043  18.277  35.374  14.333
12564W        W78044   5.421  40.395   4.342
12565W        W78045   2.364  43.429   4.700
12566W        W78046  14.633  17.631  14.495
12567W        W78047   1.373  38.067   0.750
12568W        W78048  17.789  25.069   3.188
12569W        W78049  16.811  29.650   0.248
12570W        W78050  25.655  13.278  11.085
12571W        W78051  30.924  14.834   2.727
12572W        W78052  13.150   9.675  13.009
12573W        W78053   9.390  35.476   3.868
12574W        W78054  19.718  13.626  12.450
12575W        W78055  26.497  36.558   0.297
12576W        W78056  24.482  11.329   1.786
12577W        W78057  41.816  42.908   0.855
12578W        W78058  36.851  32.623   3.742
12579W        W78059   3.757   9.863   1.374
12580W        W78060  31.035  32.563  10.532
12581W        W78061  11.755  13.138  10.611
12582W        W78062  39.517  12.130  14.467
12583W        W78063  12.204   8.771  13.466
12584W        W78064  29.095  39.494   1.919
12585W        W78065  23.226  41.369   0.344
12586W        W78066   0.422  34.025   1.757
12587W        W78067  15.101  22.581   4.617
12588W        W78068   4.365  39.466  13.322
12589W        W78069  32.104  25.563  12.567
12590W        W78070  12.704  18.636  13.061
12591W        W78071  16.157  22.176   3.290
12592W        W78072  35.472  28.114   4.611
12593W        W78073   6.804  12.846  10.950
12594W        W78074   9.696  12.697   1.304
12595W        W78075  23.053  38.015   0.291
12596W        W78076   5.766  42.986   4.172
12597W        W78077   6.698  24.480   2.249
12598W        W78078   3.930   2.350   2.800
12599W        W78079  21.238  28.653   0.963
12600W        W78080  15.649  15.805   5.614
12601W        W78081  42.436  37.994   3.227
12602W        W78082  39.872  11.636  12.371
12603W        W78083   8.216  11.262   3.211
12604W        W78084  32.040  21.144   2.186
12605W        W78085  12.841   9.673  11.070
12606W        W78086  18.730  12.725  14.342
12607W        W78087   4.335  37.480  14.380
12608W        W78088  13.230  19.134  11.860
12609W        W78089  12.704  32.422   1.845
12610W        W78090   3.777  28.599  12.033
12611W        W78091  24.139  11.642  13.919
12612W        W78092   3.253  14.647  11.114
12613W        W78093   5.837  39.849   3.784
12614W        W78094  12.752  26.687   4.328
12615W        W78095  16.670  11.744  11.414
12616W        W78096  24.100  27.147  12.469
12617W        W78097  25.045  34.481  14.973
12618W        W78098  16.801   6.803  10.591
12619W        W78099  22.616  43.832   1.355
12620W        W78100  35.017  44.479  13.884
12621W        W78101  35.025  35.510  13.484
12622W        W78102  38.324   1.967  13.055
12623W        W78103   6.916  37.895  14.919
12624W        W78104  34.401  10.229  14.950
12625W        W78105  17.129  22.513   4.340
12626W        W78106   0.960  21.545   0.794
12627W        W78107  12.699  10.238   1.886
12628W        W78108  22.058  34.430  12.948
12629W        W78109  13.326  28.963  12.047
12630W        W78110   9.197  35.046   3.794
12631W        W78111  24.673  42.430   3.297
12632W        W78112  32.488  39.964  13.528
12633W        W78113  34.104  42.997   2.356
12634W        W78114  39.361  36.432   0.459
12635W        W78115  13.686  19.045  13.924
12636W        W78116  16.319   3.240  11.018
12637W        W78117   6.283  17.656   3.255
12638W        W78118   1.298  19.173   3.342
12639W        W78119  19.606  25.169   2.755
12640W        W78120   2.423  34.997  11.932
12641W        W78121  20.272   8.401   3.303
12642W        W78122   5.846  33.111  11.017
12643W        W78123  30.639  22.152  14.770
12644W        W78124   9.723  25.542  13.895
12645W        W78125  26.463  43.400   1.282
12646W        W78126  25.041  25.646  12.441
12647W        W78127   1.258   4.367   2.285
12648W        W78128  41.528  24.717   2.271
12649W        W78129  34.890  34.884   2.837
12650W        W78130  21.561  35.875  11.902
12651W        W78131  44.878  41.494   2.232
12652W        W78132  38.475   6.735  13.836
12653W        W78133   8.195  24.656   3.846
12654W        W78134  31.001   0.928  14.969
12655W        W78135   2.842  26.177   2.212
12656W        W78136   8.833  37.953  12.424
12657W        W78137  21.081  12.710   4.669
12658W        W78138  43.294  44.374  10.478
12659W        W78139  30.467  13.303   0.318
12660W        W78140  16.301   3.215   1.846
12661W        W78141  29.457   6.845  14.389
12662W        W78142   5.780  35.928  14.390
12663W        W78143  34.380  29.084   0.749
12664W        W78144  30.977  39.925   0.894
12665W        W78145  44.503  13.718  13.426
12666W        W78146  26.474  35.066  12.027
12667W        W78147  35.932  42.969   3.634
12668W        W78148  23.727  18.731   0.785
12669W        W78149  30.052  20.624   0.249
12670W        W78150  17.249  10.872   4.617
12671W        W78151  44.373  15.137  11.516
12672W        W78152  26.996  35.066  11.967
12673W        W78153  41.973  42.863  10.531
12674W        W78154  35.903   6.678  12.088
12675W        W78155  17.721  11.333  14.759
12676W        W78156  34.402   8.389  12.084
12677W        W78157  16.194  18.579  11.569
12678W        W78158  18.119  11.365   2.898
12679W        W78159  15.124   3.457   0.746
12680W        W78160   9.389  12.145   2.694
12681W        W78161  11.818  24.681  12.443
12682W        W78162  11.681   5.227   0.348
12683W        W78163   0.392  19.649   3.684
12684W        W78164  26.070   1.335   0.902
12685W        W78165  32.974  29.019   2.812
12686W        W78166  26.608   2.820   4.797
12687W        W78167  39.332  27.460  11.380
12688W        W78168  13.242  26.955   2.332
12689W        W78169   1.906  44.767  11.866
12690W        W78170  40.827   0.396   0.754
12691W        W78171   2.765  38.011  13.439
12692W        W78172   4.423  35.917  12.577
12693W        W78173  28.460   0.796  13.428
12694W        W78174  30.650  14.766  11.897
12695W        W78175  37.503   9.185  12.048
12696W        W78176  35.010  16.644  13.506
12697W        W78177   5.216   2.353  12.481
12698W        W78178  34.875  28.065  10.068
12699W        W78179   8.202  18.586  10.968
12700W        W78180  31.049  18.144  12.908
12701W        W78181   1.786  11.132  11.056
12702W        W78182   1.467   7.230   1.739
12703W        W78183  32.104   1.299   3.296
12704W        W78184  20.637  17.226   4.204
12705W        W78185  24.156   4.719   2.717
12706W        W78186  24.185  44.923   2.383
12707W        W78187  39.918  43.301   0.923
12708W        W78188  11.306  41.862   2.282
12709W        W78189  15.083  29.022   0.472
12710W        W78190   8.378  22.070  13.811
12711W        W78191  33.097  29.176   0.387
12712W        W78192   3.415  21.532   3.748
12713W        W78193   4.283   0.371  14.492
12714W        W78194   2.360  24.129   9.955
12715W        W78195  29.598  12.702  14.288
12716W        W78196  40.018  14.253  13.834
12717W        W78197   9.702  35.976  11.491
12718W        W78198  14.779  32.550  13.509
12719W        W78199  37.953  43.419  13.868
12720W        W78200   4.337  17.742   3.337
12721W        W78201  32.522   1.962  10.113
12722W        W78202  12.160  31.613   4.221
12723W        W78203  44.367  11.659  13.448
12724W        W78204  21.197  23.029   4.241
12725W        W78205  32.925   0.286  12.409
12726W        W78206  35.544   4.334   3.667
12727W        W78207  11.212  26.133   4.757
12728W        W78208  19.570  16.781  10.922
12729W        W78209  20.262  23.212   4.814
12730W        W78210  37.547   3.341  12.900
12731W        W78211  14.613  41.320  14.868
12732W        W78212  16.737  37.863   3.816
12733W        W78213  38.044  17.728  10.951
12734W        W78214   3.391  27.950  14.002
12735W        W78215  38.390  31.443   1.349
12736W        W78216  17.728  16.091   1.408
12737W        W78217   5.877   4.769   3.717
12738W        W78218  37.836  12.697  14.970
12739W        W78219  14.808  22.586  13.389
12740W        W78220   4.811  25.989   2.198
12741W        W78221  19.185   0.355  12.999
12742W        W78222  16.624  11.169   0.445
12743W        W78223  15.166  13.686  13.980
12744W        W78224   5.295  18.269  11.909
12745W        W78225  22.194  31.491   3.366
12746W        W78226   7.692   4.214   1.794
12747W        W78227  28.653  34.947   0.770
12748W        W78228   5.832  35.518   0.331
12749W        W78229  16.273  41.336   0.813
12750W        W78230   3.790  19.192   1.802
12751W        W78231   3.311   3.892   4.322
12752W        W78232  22.048  44.832  13.345
12753W        W78233  17.187  26.189   1.711
12754W        W78234  12.787  22.746   2.767
12755W        W78235  23.735  25.637   1.810
12756W        W78236  12.720   7.275  10.989
12757W        W78237  43.780  29.621   2.306
12758W        W78238  20.177  28.975   0.451
12759W        W78239  43.382   4.402  11.371
12760W        W78240  31.128  11.275  10.947
12761W        W78241   2.432  43.412  11.527
12762W        W78242   8.778  26.490   1.378
12763W        W78243  39.557  17.255   0.846
12764W        W78244  16.144  35.865   5.215
12765W        W78245  34.913  16.179   3.843
12766W        W78246  33.952  14.798   4.195
12767W        W78247  29.650  10.651   1.879
12768W        W78248  32.461   5.731  12.062
12769W        W78249   8.761  16.695   2.885
12770W        W78250   9.782  13.639   1.927
12771W        W78251  18.588  39.908   1.323
12772W        W78252  32.994   2.840   2.688
12773W        W78253   1.907  20.098  12.995
12774W        W78254  41.931  34.409  11.884
12775W        W78255  16.102  29.993   2.269
12776W        W78256   8.235  16.150  11.063
12777W        W78257  41.353   3.897   0.361
12778W        W78258  36.933  36.501   1.306
12779W        W78259  24.582  33.507   4.680
12780W        W78260  26.512  28.484  11.055
12781W        W78261  11.260   5.934   3.221
12782W        W78262   6.745  36.569  12.367
12783W        W78263  23.609  25.209  11.959
12784W        W78264   3.309   3.321   4.769
12785W        W78265  26.018  13.140  14.782
12786W        W78266  31.566  35.412  14.874
12787W        W78267  12.204  44.975   3.746
12788W        W78268  14.266  24.135  11.958
12789W        W78269  12.140  14.720   0.269
12790W        W78270  30.013  30.985   1.261
12791W        W78271  10.803  16.166  14.942
12792W        W78272  43.853  10.194  14.382
12793W        W78273  41.002  13.611  11.908
12794W        W78274  16.079   7.680  13.511
12795W        W78275  13.715  42.451  11.464
12796W        W78276  33.002  19.127   0.451
12797W        W78277  28.668  33.059   3.238
12798W        W78278  10.363  17.187  11.120
12799W        W78279  10.633   1.732   2.689
12800W        W78280   5.720   0.868   0.264
12801W        W78281   6.288  15.110  11.411
12802W        W78282  28.567  36.867  12.423
12803W        W78283   9.789  26.616   0.728
12804W        W78284  41.314   8.380   0.360
12805W        W78285  21.708  43.436   1.724
12806W        W78286  17.158  15.106   4.160
12807W        W78287  25.596   2.927   2.785
12808W        W78288  19.603  32.068   1.382
12809W        W78289  35.976  33.129   3.152
12810W        W78290   6.230  31.563  13.038
12811W        W78291   9.810  42.808  11.575
12812W        W78292   2.471   9.703  12.053
12813W        W78293  18.221   6.756   1.767
12814W        W78294  15.168  37.863  14.333
12815W        W78295  22.049  27.126   2.296
12816W        W78296  31.456  43.366   4.742
12817W        W78297  30.013   9.178   2.687
12818W        W78298   7.910  16.276  10.595
12819W        W78299  22.164   4.904  11.996
12820W        W78300   0.977  27.113  13.529
12821W        W78301  29.500  37.958  13.326
12822W        W78302  31.522  15.173  12.934
12823W        W78303   5.383  15.579   2.689
12824W        W78304  42.852  39.530   1.720
12825W        W78305   3.887   7.749   1.271
12826W        W78306  25.161   3.806   1.908
12827W        W78307  31.502  23.218  11.996
12828W        W78308  16.162   2.963  13.030
12829W        W78309  16.730  35.859   2.336
12830W        W78310  43.843  30.058  13.362
12831W        W78311   7.359   6.298  10.890
12832W        W78312   4.801  25.188  11.898
12833W        W78313  11.361  18.236  14.436
12834W        W78314   2.772  17.190  13.507
12835W        W78315  19.603  18.633  14.442
12836W        W78316   1.404  42.802   3.808
12837W        W78317  13.262  17.580   2.766
12838W        W78318  33.930   2.878   4.675
12839W        W78319  10.643  16.603  11.012
12840W        W78320  30.516   3.839   4.133
12841W        W78321  37.845  44.987  11.501
12842W        W78322  29.613  12.303   2.241
12843W        W78323  40.913  30.582  13.543
12844W        W78324   6.789  27.636  14.437
12845W        W78325  37.000  13.831   3.171
12846W        W78326  12.127  12.298  11.493
12847W        W78327   6.249  33.903  10.562
12848W        W78328  41.922  32.086  12.095
12849W        W78329  34.482  30.627   0.312
12850W        W78330   6.231  10.309  13.547
12851W        W78331   0.490   6.914  14.508
12852W        W78332  24.997  14.280   4.181
12853W        W78333  40.311  24.599   0.760
12854W        W78334  39.991  16.122   0.824
12855W        W78335   9.751   1.280   0.295
12856W        W78336  15.606  24.054  12.866
12857W        W78337  13.690  30.650   1.879
12858W        W78338  19.049  29.041  10.558
12859W        W78339  42.939  41.350  14.762
12860W        W78340  43.503  17.097  10.521
12861W        W78341  28.529   5.365  11.584
12862W        W78342   7.354   2.233  13.856
12863W        W78343  22.061  44.815   1.718
12864W        W78344  42.002  21.633   0.808
12865W        W78345  42.845   2.228   2.755
12866W        W78346  28.148  38.935   4.614
12867W        W78347  30.430   3.296  11.069
12868W        W78348   1.308   3.454   5.147
12869W        W78349   5.202   7.741   4.264
12870W        W78350  24.979  13.175   2.889
12871W        W78351  29.167   5.261   1.433
12872W        W78352   6.203  32.945  11.900
12873W        W78353  42.833  14.280   0.443
12874W        W78354  22.564  31.590  14.445
12875W        W78355  23.035  26.011   1.791
12876W        W78356  10.750  28.459  11.120
12877W        W78357   1.813  35.455  10.974
12878W        W78358   4.936  26.527  13.474
12879W        W78359   9.393  24.078   3.632
12880W        W78360   2.264  19.725  14.949
12881W        W78361  44.869  42.351  11.462
12882W        W78362   5.818  37.393  11.946
12883W        W78363   0.280  32.077   4.332
12884W        W78364  13.649  44.820  14.907
12885W        W78365  12.224  22.663   1.848
12886W        W78366  28.473  24.158   3.157
12887W        W78367  24.670   5.366   0.966
12888W        W78368   8.374  24.568   3.250
12889W        W78369  17.247   9.268  11.099
12890W        W78370  20.659   6.252   1.833
12891W        W78371  16.319  33.039   3.234
12892W        W78372  27.993  39.827   1.214
12893W        W78373   9.723  30.487   2.699
12894W        W78374  36.976  25.586  10.587
12895W        W78375  31.416   9.301   2.217
12896W        W78376  18.774  33.077   0.768
12897W        W78377  21.136  37.075  11.916
12898W        W78378   8.398  19.541   0.276
12899W        W78379   5.806   9.723   2.320
12900W        W78380   7.313  42.907   4.811
12901W        W78381   0.327  40.376  11.425
12902W        W78382  19.146   9.373  14.378
12903W        W78383   1.433  21.257  11.020
12904W        W78384  41.878   7.697   0.316
12905W        W78385  28.051  16.780   1.401
12906W        W78386  38.554   4.425  11.956
12907W        W78387  31.134  18.668  12.843
12908W        W78388  39.405  10.247   1.918
12909W        W78389   8.178  30.498   3.729
12910W        W78390  34.450  39.956  12.469
12911W        W78391  36.584  12.772  14.004
12912W        W78392   7.675  29.061  12.561
12913W        W78393  28.068  25.049  12.873
12914W        W78394  10.353  44.799  14.768
12915W        W78395  36.845  18.791   0.829
12916W        W78396   4.208  25.613   3.798
12917W        W78397  34.608   7.825   0.434
12918W        W78398   1.387  42.473  12.939
12919W        W78399  30.658  31.976  14.878
12920W        W78400  20.079   6.885   0.858
12921W        W78401   0.827  28.166  12.886
12922W        W78402   8.818  33.993  11.972
12923W        W78403   0.368  26.534   2.411
12924W        W78404   4.315  29.660  11.957
12925W        W78405  42.414  13.766  10.624
12926W        W78406  20.099  23.026  13.851
12927W        W78407  35.895  28.121   1.719
12928W        W78408  32.013  16.807  14.292
12929W        W78409  21.679  17.228   4.744
12930W        W78410  23.689   9.840  12.506
12931W        W78411  21.595  30.062  14.994
12932W        W78412  31.502   1.950  10.483
12933W        W78413   8.314  25.166   3.348
12934W        W78414  39.857  33.432   1.902
12935W        W78415  20.729  37.557   3.325
12936W        W78416  20.632  35.467  10.538
12937W        W78417   7.860  18.567   4.667
12938W        W78418  29.444  16.090   4.653
12939W        W78419  27.012   8.267   0.896
12940W        W78420   9.700  35.514  13.039
12941W        W78421  24.589  12.638   1.788
12942W        W78422  44.809   2.284  11.524
12943W        W78423  34.887  27.163  10.937
12944W        W78424   7.312   1.922  14.932
12945W        W78425  16.273  32.557   4.612
12946W        W78426  28.138  34.442   5.156
12947W        W78427   5.819  36.085   3.856
12948W        W78428  34.963  14.828  13.795
12949W        W78429  34.979  20.044   0.869
12950W        W78430  16.167  38.415  12.013
12951W        W78431  43.359  39.914   0.484
12952W        W78432  41.512  23.715   3.341
12953W        W78433  44.805  19.106   3.795
12954W        W78434  32.028  28.940   1.892
12955W        W78435  44.440  39.898  10.992
12956W        W78436  19.733  11.732   5.240
12957W        W78437  13.837  17.205  14.022
12958W        W78438  20.196  21.117  10.978
12959W        W78439  25.116  21.532   3.810
12960W        W78440   1.798  43.333   1.401
12961W        W78441  37.506   1.941   9.932
12962W        W78442  25.176   1.251   1.428
12963W        W78443  17.260  34.599   0.810
12964W        W78444  37.007  18.581   4.708
12965W        W78445  13.615   1.404  13.337
12966W        W78446  42.368  18.768   3.804
12967W        W78447   1.283  42.902  13.462
12968W        W78448  39.525   0.825  12.824
12969W        W78449  32.395  22.683   1.226
12970W        W78450   8.370  40.309   4.828
12971W        W78451  12.744  23.508  11.575
12972W        W78452  34.917  15.268  10.946
12973W        W78453  31.906  25.524   2.248
12974W        W78454  23.184  35.584  13.992
12975W        W78455  43.861  16.566  13.328
12976W        W78456  32.440  20.702   1.751
12977W        W78457   9.222  20.116   0.456
12978W        W78458   7.740   3.330  13.462
12979W        W78459  11.307  28.486   1.294
12980W        W78460  44.899  35.871  14.836
12981W        W78461  35.878  31.574  13.464
12982W        W78462   8.809  36.040  11.857
12983W        W78463  44.306  34.598   3.264
12984W        W78464  44.834  27.546  14.366
12985W        W78465  32.510  14.783   3.270
12986W        W78466  36.862  27.071   0.736
12987W        W78467   5.199  44.909   0.310
12988W        W78468  19.613  14.808  10.914
12989W        W78469  30.620  29.528  14.986
12990W        W78470  20.244  10.859   1.908
12991W        W78471  14.239  43.336  13.020
12992W        W78472  31.967  32.998   1.334
12993W        W78473  21.180  43.791  12.394
12994W        W78474  31.023   7.220   0.356
12995W        W78475   3.323  17.798   4.747
12996W        W78476   5.742   3.766   0.799
12997W        W78477  20.235  23.136   0.803
12998W        W78478   4.869  11.804   9.935
12999W        W78479   3.784   8.722  13.957
13000W        W78480  35.866   2.886  12.913
13001W        W78481   4.312  22.085   1.402
13002W        W78482  34.032  37.578  11.866
13003W        W78483  35.391   8.798  13.416
13004W        W78484  23.220  12.186   4.296
13005W        W78485   0.430   7.803  12.514
13006W        W78486   8.331  19.257  13.547
13007W        W78487  41.901   3.324   0.429
13008W        W78488  22.026  29.495   0.729
13009W        W78489  30.641  28.019  13.955
13010W        W78490  18.291  28.581  12.857
13011W        W78491  29.945   6.324  11.024
13012W        W78492   9.734  22.063  12.935
13013W        W78493  14.673  33.999   0.286
13014W        W78494   9.365  13.725  13.826
13015W        W78495  32.490  18.131   3.294
13016W        W78496   4.422  31.433   0.315
13017W        W78497  13.702  43.867   1.449
13018W        W78498  26.098  38.932   0.941
13019W        W78499   9.333  36.971   2.802
13020W        W78500  39.936  34.059  13.897
13021W        W78501   1.259  16.779   3.741
13022W        W78502   9.762  24.672   2.403
13023W        W78503  17.715  30.974   3.696
13024W        W78504  20.261   9.385  14.498
13025W        W78505  26.548  33.573  13.425
13026W        W78506  25.189  33.112   0.751
13027W        W78507  39.525   2.919   1.800
13028W        W78508   2.822  20.136  14.390
13029W        W78509  10.744  20.561  14.935
13030W        W78510   7.213  37.060  12.555
13031W        W78511  30.457  33.929  10.463
13032W        W78512  18.553   6.355   4.262
13033W        W78513  20.261  37.900   1.818
13034W        W78514  23.985  11.647   1.399
13035W        W78515  21.681  26.616   4.248
13036W        W78516  21.235   4.336  14.436
13037W        W78517  30.947  20.181  12.847
13038W        W78518  34.514  11.735   3.287
13039W        W78519  39.997   9.674  14.883
13040W        W78520   8.349  26.545  13.328
13041W        W78521   7.178  15.166   3.712
13042W        W78522  13.616   5.367  14.450
13043W        W78523  17.236  34.982  10.419
13044W        W78524  24.054  10.753   4.796
13045W        W78525  32.059   7.413  10.912
13046W        W78526   7.336  15.176   2.205
13047W        W78527  27.567   2.853   0.292
13048W        W78528  36.384  19.116  10.518
13049W        W78529  39.320   9.183   1.310
13050W        W78530  44.505  29.923   1.928
13051W        W78531  21.713   4.852  13.544
13052W        W78532  30.586  34.453   0.439
13053W        W78533  21.522   4.377   3.855
13054W        W78534  21.182  13.689  13.329
13055W        W78535  13.293  38.888  14.945
13056W        W78536   4.355  28.937  13.384
13057W        W78537   1.916  25.209  10.949
13058W        W78538   4.937  17.743   3.771
13059W        W78539   7.682  41.367   2.281
13060W        W78540  12.653  18.703   1.289
13061W        W78541  19.773  13.718  14.888
13062W        W78542  34.101  18.132  11.959
13063W        W78543   4.836  18.138   0.752
13064W        W78544  29.082  34.999   2.742
13065W        W78545  43.469  36.473   2.843
13066W        W78546  26.113  11.238   0.777
13067W        W78547  25.645  40.316  13.321
13068W        W78548  28.138  34.100   0.462
13069W        W78549  27.648  20.163   2.321
13070W        W78550   3.827   1.429  11.081
13071W        W78551  20.555  28.540   0.737
13072W        W78552  23.735  21.118   1.253
13073W        W78553  32.465  16.177  14.931
13074W        W78554  40.799  36.895  14.864
13075W        W78555  13.645  43.793  13.847
13076W        W78556  22.996  19.631   4.756
13077W        W78557  11.671  31.048  11.400
13078W        W78558  26.061   9.186   2.704
13079W        W78559  32.927  22.009   4.255
13080W        W78560  30.928  42.468   3.703
13081W        W78561   9.809  16.271  12.516
13082W        W78562  23.065  13.157  12.394
13083W        W78563   4.337  41.373  10.981
13084W        W78564  23.572  24.041   0.726
13085W        W78565  41.446  10.772  10.942
13086W        W78566   3.354  13.337  13.841
13087W        W78567  38.006  19.275  14.304
13088W        W78568  29.038  33.954  10.518
13089W        W78569   8.855   7.246   4.312
13090W        W78570   4.361  14.693   2.742
13091W        W78571   5.808  29.161  10.473
13092W        W78572  23.134  16.623   0.464
13093W        W78573  28.493  13.189  14.322
13094W        W78574   4.431  28.104   4.760
13095W        W78575  10.374  18.105   3.797
13096W        W78576   0.798  13.204   2.308
13097W        W78577  10.378  39.870   2.855
13098W        W78578  25.655  11.724   3.692
13099W        W78579  20.030  28.527   1.323
13100W        W78580  28.570  19.095   2.688
13101W        W78581   7.182  12.715   2.798
13102W        W78582  14.144  36.992   1.348
13103W        W78583  24.505   3.445   1.405
13104W        W78584  30.103   2.455   1.437
13105W        W78585   3.308   3.900   0.346
13106W        W78586   0.989   6.338  11.087
13107W        W78587   8.195  29.584   4.288
13108W        W78588  13.317  41.472   4.344
13109W        W78589  23.511  25.973  10.962
13110W        W78590   1.917  16.126  12.840
13111W        W78591  33.455  23.572  10.526
13112W        W78592   8.384  33.092  14.463
13113W        W78593  12.207  41.786   3.792
13114W        W78594  29.636   7.830   2.258
13115W        W78595  15.109   3.358  11.963
13116W        W78596  33.621  33.069  12.834
13117W        W78597   8.202   4.798  11.552
13118W        W78598   9.858  23.519  14.773
13119W        W78599  39.015  17.126   4.298
13120W        W78600  35.506   5.917   2.819
13121W        W78601  35.496  29.589   2.870
13122W        W78602  31.056  22.016   3.182
13123W        W78603  41.923  30.442   2.871
13124W        W78604   5.901  16.214  12.965
13125W        W78605  26.102  16.289   0.405
13126W        W78606  41.967  15.204   2.847
13127W        W78607  44.473  28.078  11.442
13128W        W78608   4.241  25.577  12.342
13129W        W78609   9.653   9.324  14.318
13130W        W78610   3.230  14.203  12.370
13131W        W78611  10.365   8.660   1.250
13132W        W78612  10.810  40.947   2.669
13133W        W78613  13.275  30.055   3.868
13134W        W78614  16.688   0.252   0.481
13135W        W78615  27.448  23.716  11.053
13136W        W78616  21.216   0.405   1.920
13137W        W78617  16.639  24.712   2.182
13138W        W78618   2.265  31.589  13.328
13139W        W78619   9.375  12.320   1.383
13140W        W78620  19.126  39.825  12.868
13141W        W78621   6.680  40.901   4.267
13142W        W78622  11.189  42.294   4.214
13143W        W78623   1.397  38.060  14.371
13144W        W78624  33.953  18.650  14.468
13145W        W78625  21.657  19.763  14.948
13146W        W78626   1.935   2.957   3.303
13147W        W78627   1.451   8.689  11.122
13148W        W78628  31.108  22.580   3.229
13149W        W78629  32.440  36.463   3.258
13150W        W78630  12.713  29.461  13.341
13151W        W78631  38.421   2.281   0.740
13152W        W78632  24.661   4.241   2.775
13153W        W78633  29.436  14.702   1.289
13154W        W78634  44.829  43.431   2.407
13155W        W78635  14.292  44.428   9.968
13156W        W78636  43.356  42.984  14.496
13157W        W78637  15.104  32.973   4.716
13158W        W78638  10.210  42.415  13.993
13159W        W78639  11.827  25.984   3.378
13160W        W78640   1.314  39.974  14.935
13161W        W78641  16.790  13.178  14.429
13162W        W78642  28.665  21.180   0.294
13163W        W78643  17.609  14.215  14.383
13164W        W78644  26.999  21.142   1.900
13165W        W78645  15.777  19.654   3.857
13166W        W78646  43.477  27.647  11.562
13167W        W78647  33.518  31.574   4.731
13168W        W78648   2.888  25.499  11.520
13169W        W78649  25.626  26.080   4.278
13170W        W78650  22.028  15.634  11.453
13171W        W78651  38.856   1.859  12.365
13172W        W78652  13.704  26.477   2.390
13173W        W78653   6.286  19.172  14.288
13174W        W78654   8.325   3.385   3.158
13175W        W78655  22.012  36.501   4.158
13176W        W78656   3.798  33.895  12.981
13177W        W78657  14.209  29.978  13.342
13178W        W78658   0.940  29.456   1.406
13179W        W78659  42.014  43.793  11.881
13180W        W78660  10.712  18.723  14.913
13181W        W78661  24.504  20.079   2.252
13182W        W78662  28.052   6.812  12.482
13183W        W78663  17.734   0.377   0.456
13184W        W78664  28.096  12.623  10.973
13185W        W78665  12.626  40.971  13.959
13186W        W78666  42.297  28.587  14.411
13187W        W78667  18.132  39.518  14.303
13188W        W78668  15.799  35.940   4.327
13189W        W78669  11.772  23.541   0.911
13190W        W78670  26.516  38.362   3.856
13191W        W78671  13.601   2.352  14.884
13192W        W78672  11.839   6.417   3.178
13193W        W78673  22.620  10.171   4.717
13194W        W78674  38.481  33.447  12.544
13195W        W78675  40.871  43.515  14.421
13196W        W78676  41.531  24.671  13.047
13197W        W78677  11.763  28.069   0.260
13198W        W78678  30.060  35.477   0.442
13199W        W78679  12.801  43.942   0.477
13200W        W78680  21.066  18.636  11.434
13201W        W78681   9.320  26.199  13.004
13202W        W78682   6.263  25.043   9.990
13203W        W78683  13.126  28.652   3.749
13204W        W78684  10.276  44.412   9.952
13205W        W78685  34.946   5.770   0.377
13206W        W78686  44.942  11.351  11.092
13207W        W78687  13.334   7.859   0.365
13208W        W78688  40.994  19.686  13.507
13209W        W78689  34.382  21.130  12.079
13210W        W78690   1.447  34.506  11.599
13211W        W78691  11.319  31.081  12.465
13212W        W78692   8.335  35.402  11.458
13213W        W78693  36.077  28.465   4.256
13214W        W78694  25.185   8.879  13.980
13215W        W78695   6.864  38.438  14.948
13216W        W78696  20.151  40.800  11.880
13217W        W78697  43.848   3.459   4.681
13218W        W78698  29.131  24.677   1.240
13219W        W78699  13.702  17.110   1.818
13220W        W78700  28.439  39.958  13.359
13221W        W78701  39.065  12.245   1.756
13222W        W78702  41.970   4.881   3.864
13223W        W78703  31.034   0.428  14.934
13224W        W78704  11.213  19.116  14.430
13225W        W78705  15.813  19.627  13.793
13226W        W78706  20.150  23.564  13.801
13227W        W78707  40.961   6.397  11.895
13228W        W78708   8.249   8.244   3.290
13229W        W78709  44.259  39.326   1.415
13230W        W78710  23.218  41.833   2.784
13231W        W78711  39.970  16.313   1.227
13232W        W78712  24.593  11.239  13.048
13233W        W78713  14.116  33.430  13.025
13234W        W78714   6.301  33.381   4.774
13235W        W78715  17.258  19.628   0.895
13236W        W78716  30.021  34.456   3.360
13237W        W78717  29.431   7.725   3.370
13238W        W78718  23.712  38.430   3.748
13239W        W78719  27.035  24.624   3.757
13240W        W78720  43.337   2.255  14.446
13241W        W78721  43.951  42.468   4.797
13242W        W78722  29.093  16.117   2.903
13243W        W78723  25.527  27.566  12.449
13244W        W78724  29.080   3.221   1.413
13245W        W78725  38.483  10.695  12.354
13246W        W78726  10.202   2.800   2.261
13247W        W78727  32.050  16.084  13.039
13248W        W78728   3.824  25.516   2.352
13249W        W78729   3.245  32.000  14.407
13250W        W78730  11.262  12.191  13.378
13251W        W78731  43.387  31.940  10.507
13252W        W78732  33.458  31.405   0.776
13253W        W78733   9.886  42.026   1.870
13254W        W78734  30.119  32.031  10.081
13255W        W78735  41.501  37.347   2.784
13256W        W78736  20.043  44.845   3.799
13257W        W78737  24.123  11.127  14.792
13258W        W78738  27.631   3.782  13.408
13259W        W78739   0.251  22.725  14.464
13260W        W78740  16.237  20.654  14.030
13261W        W78741  24.540  24.563  13.314
13262W        W78742   2.867   6.205  10.985
13263W        W78743  40.989  13.669  12.533
13264W        W78744   4.858  11.642   3.166
13265W        W78745  15.717   4.366   1.312
13266W        W78746   5.853  38.000  11.920
13267W        W78747  44.376  10.152  12.543
13268W        W78748  43.450  25.043   2.270
13269W        W78749  31.095  32.040  11.552
13270W        W78750  32.967  27.012  13.792
13271W        W78751  18.129  40.476   0.472
13272W        W78752   5.330  22.220   4.718
13273W        W78753  12.613  30.019  12.365
13274W        W78754   0.369  13.651   0.883
13275W        W78755  40.414  30.010   4.178
13276W        W78756   2.381   9.312  11.486
13277W        W78757   8.731   4.747  10.438
13278W        W78758  22.540  33.424  11.052
13279W        W78759   9.706   3.415   4.749
13280W        W78760  19.102  28.117  14.379
13281W        W78761  11.732   7.356  12.015
13282W        W78762  15.293   9.242   2.766
13283W        W78763  36.951  33.900   4.644
13284W        W78764  27.188  32.922  10.573
13285W        W78765   9.702  40.923  13.935
13286W        W78766   5.739  14.663   3.260
13287W        W78767  31.574   0.867  14.859
13288W        W78768  32.078  29.646  11.580
13289W        W78769  20.066  36.523  11.537
13290W        W78770  37.413  43.845   2.869
13291W        W78771  25.103  28.647  11.553
13292W        W78772  36.426  21.708   3.871
13293W        W78773  37.547   6.753  11.984
13294W        W78774   5.301  10.158   4.736
13295W        W78775  32.537   3.891   0.431
13296W        W78776  12.277  40.806  14.860
13297W        W78777  24.523  24.034  10.988
13298W        W78778  37.460  39.879  14.936
13299W        W78779  30.005  12.119  12.896
13300W        W78780  32.072   2.386  14.311
13301W        W78781  16.217   3.310   0.329
13302W        W78782  28.093  12.700   0.355
13303W        W78783  33.419  16.787  12.882
13304W        W78784  21.045  33.050   2.264
13305W        W78785  22.718  31.914  11.076
13306W        W78786   0.743   6.189  11.491
13307W        W78787   6.299  25.043  13.441
13308W        W78788  31.612  28.586   3.647
13309W        W78789   8.242  31.919   5.315
13310W        W78790  32.066  41.449  12.855
13311W        W78791  41.453  22.540  13.518
13312W        W78792  16.100   1.411   4.300
13313W        W78793   1.340  31.033  11.492
13314W        W78794  14.316  42.380  14.815
13315W        W78795   8.374   9.826  11.035
13316W        W78796  17.117  24.657   3.714
13317W        W78797  36.566  27.094   3.791
13318W        W78798  27.954  25.613  12.380
13319W        W78799  10.168   6.402  12.007
13320W        W78800  14.711  10.311   0.483
13321W        W78801  31.458  15.155   2.673
13322W        W78802  30.608  37.451   5.093
13323W        W78803   6.297  25.578  14.358
13324W        W78804  37.344  23.534  10.614
13325W        W78805   5.886  23.085   0.324
13326W        W78806   4.874   3.826   2.323
13327W        W78807  36.885  31.073   4.673
13328W        W78808  13.185  20.716   3.644
13329W        W78809   0.974   6.872   1.211
13330W        W78810   0.760  42.374  14.987
13331W        W78811  32.626  41.331   3.860
13332W        W78812  25.524  37.915  13.363
13333W        W78813  30.438   8.728  12.845
13334W        W78814  10.261  21.751   2.342
13335W        W78815  19.117  21.732   1.438
13336W        W78816  16.301   5.372  14.004
13337W        W78817  24.582  38.028  12.077
13338W        W78818  22.112  17.176   1.311
13339W        W78819  26.156  15.146  11.069
13340W        W78820  31.621  42.495  12.481
13341W        W78821   6.328  33.515   2.768
13342W        W78822  30.521  24.106   2.357
13343W        W78823  28.955  20.591  11.497
13344W        W78824  23.166  32.502  14.492
13345W        W78825  26.536  26.534   2.399
13346W        W78826   3.312  25.486   2.782
13347W        W78827  13.276   8.299  10.419
13348W        W78828  38.502  28.172   4.137
13349W        W78829  17.589   3.364   0.291
13350W        W78830  18.546  26.463   1.248
13351W        W78831  32.438  34.615  11.113
13352W        W78832   1.904  39.992  12.341
13353W        W78833  38.937  29.467   2.382
13354W        W78834  16.680  10.845   1.352
13355W        W78835  27.066  26.590  12.553
13356W        W78836  29.022  30.072   0.326
13357W        W78837   1.251  14.633  11.994
13358W        W78838  12.335  34.461   2.187
13359W        W78839  39.851   4.272  11.585
13360W        W78840  33.961  21.085   3.257
13361W        W78841   4.859  29.129  13.377
13362W        W78842  31.004  27.030   2.342
13363W        W78843  29.596  36.418   3.828
13364W        W78844  33.000   5.813   2.664
13365W        W78845  23.725   1.434   2.801
13366W        W78846  35.600   5.361  11.562
13367W        W78847  29.936  38.876  10.443
13368W        W78848   5.398  43.478  14.991
13369W        W78849  17.151  44.334  14.433
13370W        W78850  32.032  35.866  11.908
13371W        W78851   6.249  14.790  14.397
13372W        W78852  13.264  33.583   4.667
13373W        W78853   8.309  19.567  12.824
13374W        W78854  24.648   2.385  14.759
13375W        W78855  16.275  36.894   0.851
13376W        W78856  20.036  40.523   2.371
13377W        W78857  34.411  11.323   3.754
13378W        W78858  36.384  43.840  12.384
13379W        W78859  34.545   9.890  13.337
13380W        W78860  17.757  14.605   1.342
13381W        W78861  34.010  38.849  10.146
13382W        W78862  24.666  13.329  12.965
13383W        W78863  25.105  30.938   1.867
13384W        W78864   3.301  26.138  14.929
13385W        W78865  11.346   8.673   0.851
13386W        W78866  29.636   9.705   2.392
13387W        W78867  42.899  43.413   3.168
13388W        W78868  26.589  43.772   1.345
13389W        W78869   5.433  23.643  14.463
13390W        W78870   4.740  12.143  10.531
13391W        W78871  42.479  40.334   2.717
13392W        W78872  44.284  28.064  12.391
13393W        W78873  26.637  33.541   2.787
13394W        W78874  36.848  25.472  12.966
13395W        W78875  33.554   3.934  11.980
13396W        W78876   8.883  40.371  13.868
13397W        W78877   8.350  29.007  11.888
13398W        W78878  37.494  40.410  13.366
13399W        W78879   8.195  16.171   4.343
13400W        W78880   8.209   9.754  14.966
13401W        W78881   8.349   1.269   4.122
13402W        W78882  31.129   3.895   2.761
13403W        W78883   4.324  38.366  14.503
13404W        W78884  19.122  24.192   0.749
13405W        W78885  10.190   2.249   1.847
13406W        W78886  25.631  10.282   4.143
13407W        W78887  35.970   2.817   2.806
13408W        W78888  19.063  40.906   3.747
13409W        W78889  22.541  40.023  11.532
13410W        W78890  23.632  38.447   2.822
13411W        W78891  11.369  39.451  12.888
13412W        W78892  44.871  44.259  11.979
13413W        W78893  28.103   9.848   0.762
13414W        W78894  12.310  24.026  12.539
13415W        W78895  27.145   4.354  12.415
13416W        W78896   4.336  33.082   0.318
13417W        W78897  37.939  41.376  13.459
13418W        W78898  44.382  25.100   2.409
13419W        W78899  37.443  43.869  10.988
13420W        W78900  16.209   8.665   5.211
13421W        W78901  13.788  19.265   1.440
13422W        W78902  26.687  42.334   3.816
13423W        W78903   7.891   1.405   0.858
13424W        W78904  29.132   8.862   1.277
13425W        W78905  33.068   0.265  14.335
13426W        W78906  15.578  37.497   2.393
13427W        W78907  41.498  28.494  12.868
13428W        W78908  35.889   5.770   2.370
13429W        W78909  37.068  25.972   4.172
13430W        W78910  19.191  11.323   2.738
13431W        W78911  28.636  28.438  12.056
13432W        W78912  37.938  43.490   2.670
13433W        W78913  20.072  22.243   2.764
13434W        W78914  43.893  33.425   3.747
13435W        W78915  24.993  29.096  14.433
13436W        W78916   1.914   5.424   0.750
13437W        W78917  28.468  37.875  12.891
13438W        W78918  44.419   1.824  12.073
13439W        W78919  26.186   9.346   1.757
13440W        W78920  21.262   6.782   1.335
13441W        W78921   6.858   5.873   0.341
13442W        W78922   4.909  12.678  12.987
13443W        W78923  22.105  40.443  11.432
13444W        W78924  36.413  43.994   1.864
13445W        W78925  18.701  41.376   4.271
13446W        W78926  21.053   2.895   1.274
13447W        W78927  38.470  15.657  11.451
13448W        W78928  14.823  33.566  12.046
13449W        W78929  35.474  37.555  10.549
13450W        W78930  39.372  25.648   3.290
13451W        W78931  10.653  14.832  11.450
13452W        W78932  14.635  41.934  12.539
13453W        W78933  26.490   1.441   1.319
13454W        W78934  15.273  38.001   4.273
13455W        W78935  15.685  15.242   2.723
13456W        W78936   7.396   2.791   1.385
13457W        W78937  13.761  34.518  12.541
13458W        W78938   7.740  40.960  10.895
13459W        W78939  12.790  12.266  13.935
13460W        W78940  26.571   0.344   1.697
13461W        W78941  30.418   4.911  12.859
13462W        W78942  31.105  15.118   1.696
13463W        W78943  22.040  12.179   2.826
13464W        W78944  12.793  25.627  11.593
13465W        W78945  15.195  37.917  10.908
13466W        W78946  37.080   6.713   1.880
13467W        W78947  10.823  34.112  11.936
13468W        W78948   2.472  44.286   2.768
13469W        W78949  41.370   4.381  12.849
13470W        W78950  25.478   5.765  11.496
13471W        W78951  11.854   2.276  12.451
13472W        W78952  38.483  10.186   2.273
13473W        W78953  19.203  29.986  14.845
13474W        W78954   6.294  15.680  13.891
13475W        W78955  19.258   3.719  12.053
13476W        W78956  16.250   5.312   3.744
13477W        W78957  21.139  17.299  12.393
13478W        W78958  27.560  25.492  10.536
13479W        W78959  35.103  41.968  10.442
13480W        W78960  42.989   6.244   2.815
13481W        W78961  30.953  25.976   1.430
13482W        W78962  16.266   2.363  10.576
13483W        W78963   3.237  35.549  12.046
13484W        W78964   0.772   8.184  13.843
13485W        W78965  40.356   8.265   2.737
13486W        W78966  32.627  18.293   2.209
13487W        W78967  44.790   3.395   4.629
13488W        W78968  32.498   7.200   4.267
13489W        W78969   7.397   3.298  11.538
13490W        W78970  35.568  20.031   3.699
13491W        W78971  23.106  23.509   4.636
13492W        W78972  42.383   8.303  11.591
13493W        W78973   9.306  41.954  12.414
13494W        W78974  41.908  41.314   2.185
13495W        W78975  11.863  23.014  10.424
13496W        W78976  26.468  16.299  13.368
13497W        W78977  37.343   6.886   3.641
13498W        W78978   4.714  33.099  14.394
13499W        W78979  30.651  31.537   0.398
13500W        W78980  33.444   7.231  11.430
13501W        W78981   6.722  41.000   4.687
13502W        W78982  21.631   0.965   4.677
13503W        W78983  29.986   9.193  14.830
13504W        W78984  10.209  44.007  11.907
13505W        W78985  24.532  19.039  10.565
13506W        W78986  18.057  42.479   2.180
13507W        W78987   4.411   7.179  10.570
13508W        W78988  11.856   3.453  12.933
13509W        W78989   9.811  39.052  11.857
13510W        W78990  34.966  32.121   2.216
13511W        W78991  27.084  39.027  10.153
13512W        W78992  21.246  17.693   4.263
13513W        W78993  34.022   0.813   2.705
13514W        W78994   7.898  39.910  14.961
13515W        W78995  31.926  20.600  11.878
13516W        W78996  31.072  30.159   4.230
13517W        W78997   7.759  13.632  14.791
13518W        W78998  21.709   3.944  10.916
13519W        W78999  24.724   5.789  10.533
13520W        W79000   5.325   3.904  12.067
13521W        W79001  32.060  36.399  11.067
13522W        W79002  37.351  23.515   2.875
13523W        W79003  33.052   2.931   3.822
13524W        W79004   1.823   8.766   4.201
13525W        W79005   8.161  27.957  14.893
13526W        W79006  19.171  44.495   3.644
13527W        W79007   0.814   7.719   2.243
13528W        W79008   6.420  35.900   2.862
13529W        W79009   4.356  32.548  11.558
13530W        W79010   3.447  37.530  12.506
13531W        W79011  20.029  26.963   3.286
13532W        W79012  23.583  13.233   4.784
13533W        W79013  16.567  12.318   2.769
13534W        W79014  38.876  12.841  11.966
13535W        W79015  16.652  36.050   3.170
13536W        W79016  29.424   3.877  10.417
13537W        W79017  14.220  13.180  13.397
13538W        W79018  12.709  35.588  10.615
13539W        W79019  15.677  41.035  14.352
13540W        W79020   0.388  15.780   3.845
13541W        W79021  42.918   3.370  13.538
13542W        W79022  15.723  19.232  12.356
13543W        W79023  21.212  35.511  14.297
13544W        W79024   0.986  24.125  13.457
13545W        W79025  21.105  39.390   3.664
13546W        W79026  13.345  43.878  13.391
13547W        W79027  40.467  41.818  14.464
13548W        W79028  30.067  35.553  14.419
13549W        W79029  23.598  42.460  13.496
13550W        W79030   9.889  28.090   1.353
13551W        W79031  26.024  27.447   4.336
13552W        W79032  10.865  35.100   4.684
13553W        W79033   5.278  16.746   1.850
13554W        W79034  32.448  31.918   1.418
13555W        W79035  10.754  29.641   2.824
13556W        W79036  23.001  22.720  11.425
13557W        W79037  23.018   5.691   0.858
13558W        W79038  28.592  20.187  12.556
13559W        W79039  21.586  20.152   4.598
13560W        W79040   2.882   2.752   1.787
13561W        W79041  29.558  43.825  13.813
13562W        W79042   0.434  38.559   2.864
13563W        W79043  32.401  11.809  10.135
13564W        W79044  43.879  28.440   3.712
13565W        W79045   9.205   6.682   3.185
13566W        W79046  16.616  16.680  11.469
13567W        W79047  16.633  29.968  11.415
13568W        W79048   9.744  36.050   0.411
13569W        W79049  28.558  11.787  10.539
13570W        W79050  17.668  13.839  14.950
13571W        W79051  12.808   3.337  11.989
13572W        W79052   1.825   8.886   1.768
13573W        W79053  15.247  31.913   4.724
13574W        W79054   9.726  41.835   4.717
13575W        W79055   6.839  23.220  12.529
13576W        W79056  24.095  20.273   3.712
13577W        W79057  39.844  38.889   3.685
13578W        W79058   5.762  17.093   3.634
13579W        W79059  37.839  24.496   0.476
13580W        W79060  27.688  13.822   3.656
13581W        W79061  34.010   2.441  12.505
13582W        W79062  36.004   2.764   4.264
13583W        W79063  38.976  24.665  11.413
13584W        W79064  12.680  13.816   4.230
13585W        W79065  25.522  43.460  11.896
13586W        W79066  12.248  39.810   2.780
13587W        W79067  18.234   5.749   3.817
13588W        W79068  33.925   8.316  12.848
13589W        W79069   2.406   1.302  14.425
13590W        W79070  23.050   4.861  13.982
13591W        W79071  30.017   7.190  11.591
13592W        W79072  26.954  41.790   4.123
13593W        W79073  22.714   0.854  11.486
13594W        W79074  14.193   4.272  14.949
13595W        W79075  28.026  37.460   0.354
13596W        W79076  10.163   8.806   9.985
13597W        W79077  21.570   5.796   4.732
13598W        W79078  24.690  42.899   4.203
13599W        W79079  16.796  24.676  12.885
13600W        W79080  35.863  44.781  12.974
13601W        W79081  24.106  20.071  14.880
13602W        W79082   9.350  40.382   4.281
13603W        W79083   0.370  11.135  12.885
13604W        W79084  43.382  16.622  12.096
13605W        W79085  10.252   1.325  12.419
13606W        W79086  24.008  31.007   1.342
13607W        W79087  23.134  22.019   3.762
13608W        W79088  39.903  32.430   1.260
13609W        W79089  39.374  27.684   4.258
13610W        W79090  31.124   5.311   1.784
13611W        W79091   8.378  35.109  12.032
13612W        W79092  41.499   5.864   1.425
13613W        W79093  28.570  42.384   2.832
13614W        W79094  18.567   0.884  14.806
13615W        W79095   7.719  40.846  11.604
13616W        W79096   3.217  33.409   1.926
13617W        W79097  21.035  30.602  13.401
13618W        W79098  42.828  26.020  14.031
13619W        W79099   2.247  43.511  12.452
13620W        W79100  30.948  20.556  11.117
13621W        W79101  20.751  19.648   0.942
13622W        W79102   1.368  26.657   5.170
13623W        W79103  32.051   5.314  12.016
13624W        W79104  41.820  28.972  10.977
13625W        W79105   5.916  19.062  14.423
13626W        W79106  38.828  22.628   2.844
13627W        W79107  39.946  37.451   1.901
13628W        W79108  13.165  16.271  10.578
13629W        W79109  34.401  36.361   3.747
13630W        W79110  41.492   2.427   3.201
13631W        W79111  29.029  31.028  13.915
13632W        W79112  35.565  42.796  11.587
13633W        W79113  15.684  41.895  14.356
13634W        W79114  39.047   0.337  12.568
13635W        W79115  40.957  18.277   2.329
13636W        W79116  16.278  39.550  14.813
13637W        W79117  36.400  34.484  10.017
13638W        W79118  10.647   5.701  11.118
13639W        W79119  16.221  34.024   0.931
13640W        W79120  29.999  13.603   1.784
13641W        W79121  18.737  32.998   3.224
13642W        W79122  24.548  24.611  11.562
13643W        W79123  27.022  32.530  12.052
13644W        W79124  36.568  39.948  13.801
13645W        W79125  44.335  10.281  11.506
13646W        W79126  33.981  39.509  12.373
13647W        W79127  16.590  19.542  11.507
13648W        W79128  34.112   3.896  14.439
13649W        W79129  28.080   3.727  13.062
13650W        W79130  26.588   9.171   4.277
13651W        W79131  31.957  27.944  12.850
13652W        W79132   5.279  36.939  10.503
13653W        W79133  42.344  17.627  10.592
13654W        W79134  34.945  43.419   0.261
13655W        W79135   6.918  39.833   3.341
13656W        W79136  19.639  20.573  12.480
13657W        W79137   4.448   3.739  11.374
13658W        W79138  43.316   0.298   2.315
13659W        W79139  43.275  33.094  10.620
13660W        W79140  28.578  10.271   4.151
13661W        W79141  24.549  29.093  14.900
13662W        W79142  17.767   1.312  13.464
13663W        W79143   7.855  27.455  13.359
13664W        W79144   7.301  23.107   0.951
13665W        W79145  30.500  40.034   0.867
13666W        W79146   6.236   0.396  11.876
13667W        W79147  22.233  23.679   4.652
13668W        W79148  31.594   8.186  12.849
13669W        W79149  31.404  27.175   2.875
13670W        W79150  38.024  30.111  11.866
13671W        W79151  13.130  18.109   2.206
13672W        W79152   8.213  43.429   1.826
13673W        W79153  17.191  32.130   0.272
13674W        W79154  44.427   8.827  12.060
13675W        W79155  20.200  25.691   3.159
13676W        W79156  16.225  18.170   2.369
13677W        W79157  10.269  33.979   2.270
13678W        W79158  39.550   4.414   1.767
13679W        W79159  30.924   5.377  12.863
13680W        W79160  35.405  22.101  11.537
13681W        W79161  22.582   2.962  10.989
13682W        W79162   2.289  11.665   5.310
13683W        W79163   4.708   3.911  10.932
13684W        W79164  15.715  39.506   0.379
13685W        W79165   9.245   8.841  13.002
13686W        W79166   7.306  15.309  14.951
13687W        W79167  33.109   6.716   3.257
13688W        W79168  18.602   7.260  12.980
13689W        W79169  34.507  42.951  13.313
13690W        W79170   2.909  36.027   2.771
13691W        W79171  27.125  18.599  11.612
13692W        W79172   4.737   9.684   1.743
13693W        W79173  19.718   4.754   1.389
13694W        W79174  43.909  21.207  12.874
13695W        W79175  36.978  26.505   1.432
13696W        W79176   2.370  36.566   1.249
13697W        W79177  29.990   1.348   4.183
13698W        W79178   5.792  18.254  12.425
13699W        W79179   8.861  24.081   5.139
13700W        W79180  28.612  39.537  14.426
13701W        W79181  11.278  32.972   1.722
13702W        W79182  16.195  18.217  12.055
13703W        W79183  18.213  30.653  11.989
13704W        W79184  22.559  26.112  13.406
13705W        W79185  30.155   3.416   0.950
13706W        W79186  24.030  43.369   1.807
13707W        W79187  22.726  37.417  12.561
13708W        W79188  43.274  41.417   4.233
13709W        W79189  24.009  27.144  13.039
13710W        W79190  11.820  32.463  13.803
13711W        W79191   8.217  41.468  10.915
13712W        W79192   1.823   6.350   0.359
13713W        W79193  41.040  12.695  13.528
13714W        W79194  21.547  31.607  13.526
13715W        W79195  31.444   2.402  14.894
13716W        W79196  28.562  34.989  13.800
13717W        W79197  25.156  20.640  14.341
13718W        W79198  19.048  30.981  13.842
13719W        W79199  20.083  16.624  12.991
13720W        W79200  39.066   8.843  13.011
13721W        W79201  25.168  24.122   1.785
13722W        W79202  38.072   0.458  12.037
13723W        W79203  39.867  38.559  11.047
13724W        W79204  12.353  38.046   2.723
13725W        W79205  26.593  38.945   0.272
13726W        W79206  24.215  17.656  11.492
13727W        W79207  13.320  34.099  14.861
13728W        W79208   9.821  18.263  13.491
13729W        W79209   2.922  39.326  11.870
13730W        W79210  42.780  31.434  11.921
13731W        W79211   0.923  37.444   0.926
13732W        W79212  15.112  34.486   0.827
13733W        W79213  31.473  12.308  13.438
13734W        W79214  21.170  23.189  14.947
13735W        W79215  24.986  25.646  14.389
13736W        W79216  11.220  17.583  11.918
13737W        W79217  20.554  26.203   4.827
13738W        W79218  31.607   3.450  11.863
13739W        W79219   7.183  34.583  13.033
13740W        W79220  20.527   2.333  10.960
13741W        W79221   8.844  19.058  12.848
13742W        W79222   1.468  22.505   2.896
13743W        W79223   8.350  35.076   2.310
13744W        W79224  31.445   6.384   3.268
13745W        W79225  15.214   4.388  11.879
13746W        W79226  19.600  33.912  14.993
13747W        W79227  34.901  38.976   1.282
13748W        W79228   0.873   2.411  11.496
13749W        W79229  23.571  33.024   3.169
13750W        W79230  27.014  11.720   2.226
13751W        W79231   5.763   6.298  10.995
13752W        W79232  38.844  23.181   3.273
13753W        W79233   5.428   2.294   4.273
13754W        W79234  11.165   1.386  12.968
13755W        W79235  19.647  29.577   4.679
13756W        W79236  26.050  43.467   3.359
13757W        W79237  17.179   7.408  10.533
13758W        W79238  21.089  30.645   5.233
13759W        W79239  31.605   6.841   4.353
13760W        W79240  31.404  43.412   5.081
13761W        W79241  17.684   1.963  12.400
13762W        W79242  38.914  34.909   2.684
13763W        W79243   5.734  20.581   4.698
13764W        W79244  33.428  23.007   4.807
13765W        W79245  17.255  22.047   4.346
13766W        W79246   7.735   7.317   4.600
13767W        W79247  24.624  40.416  11.470
13768W        W79248  11.151  14.239  11.379
13769W        W79249  14.629  21.181   1.390
13770W        W79250  25.018   4.817  11.046
13771W        W79251   9.327  31.976   0.862
13772W        W79252  27.155  32.891   1.881
13773W        W79253  30.157  24.591  14.870
13774W        W79254   4.873  21.185   0.745
13775W        W79255  36.539  16.646   4.205
13776W        W79256  26.984  42.017   3.642
13777W        W79257  27.082  17.575   4.271
13778W        W79258  38.959  18.225  11.056
13779W        W79259  30.432   1.760   2.900
13780W        W79260  18.653  38.330   1.230
13781W        W79261   2.836  23.139  11.510
13782W        W79262  26.953  43.301  13.503
13783W        W79263  11.281   6.788   3.340
13784W        W79264   5.687  14.608  12.824
13785W        W79265  39.025  39.978  14.837
13786W        W79266   7.216  34.489   3.782
13787W        W79267   5.729  35.854  13.957
13788W        W79268  16.279  28.467   1.290
13789W        W79269  43.953  33.021   3.655
13790W        W79270   8.307  26.571   3.733
13791W        W79271  41.838   2.433   0.260
13792W        W79272   8.692  32.451   2.701
13793W        W79273   0.797  36.866   1.256
13794W        W79274  16.243  10.819  12.843
13795W        W79275  15.783  23.153   3.677
13796W        W79276  36.014   0.452   3.176
13797W        W79277  21.591  26.095  14.482
13798W        W79278  33.597  26.550   1.405
13799W        W79279   3.924   2.296  13.333
13800W        W79280  34.457  39.002  12.875
13801W        W79281  20.522  29.030  12.403
13802W        W79282   0.767  41.526   2.736
13803W        W79283  31.560  21.742   2.739
13804W        W79284  20.093  38.449  11.977
13805W        W79285  30.516  36.539   5.240
13806W        W79286  25.078  10.361   0.856
13807W        W79287  33.981  18.199   2.220
13808W        W79288   6.354  22.568  13.495
13809W        W79289  43.507  35.004   1.741
13810W        W79290   1.914  26.639  12.369
13811W        W79291   9.876  41.974  10.457
13812W        W79292  21.728  17.590   1.703
13813W        W79293   4.940  18.725   4.154
13814W        W79294  23.072  38.563  12.835
13815W        W79295  18.648  20.133   3.253
13816W        W79296   1.836  22.553   4.755
13817W        W79297  18.562  37.440   2.866
13818W        W79298   0.477  24.569   3.790
13819W        W79299   1.303  29.471   4.339
13820W        W79300  12.836  13.820   0.415
13821W        W79301  25.162  30.610   3.852
13822W        W79302  42.030   5.249  14.877
13823W        W79303   8.761  32.414  13.495
13824W        W79304  21.182  12.730   2.861
13825W        W79305  35.371   1.791   2.685
13826W        W79306  40.873  25.690  10.487
13827W        W79307  22.603   6.197   5.148
13828W        W79308  22.504  21.566  13.809
13829W        W79309  12.294  36.891   3.335
13830W        W79310  22.225  38.026   4.612
13831W        W79311   9.241  23.010  12.092
13832W        W79312  39.419  11.303   1.272
13833W        W79313  28.631  41.854   2.853
13834W        W79314  13.164  14.601   2.761
13835W        W79315  32.142  24.674   3.364
13836W        W79316  26.624  41.843  13.885
13837W        W79317  29.141  40.419  11.527
13838W        W79318  16.209  43.438   1.695
13839W        W79319   9.376  24.001  14.023
13840W        W79320  19.714   2.410   2.797
13841W        W79321  36.453   3.410  13.436
13842W        W79322  28.559  23.088  12.862
13843W        W79323  13.761  41.525   0.245
13844W        W79324  32.962  21.090  11.978
13845W        W79325  32.010   4.357  13.900
13846W        W79326  23.136   7.347   2.785
13847W        W79327  23.148  13.748  11.424
13848W        W79328  23.091   8.269   1.820
13849W        W79329  19.079  17.190  11.041
13850W        W79330  32.451  14.289   1.702
13851W        W79331  40.854  34.541  12.887
13852W        W79332  34.591  22.133  13.425
13853W        W79333   9.685  34.105  12.566
13854W        W79334   9.697  42.498  12.499
13855W        W79335  31.591  38.441   0.473
13856W        W79336  38.415  11.701  10.932
13857W        W79337  32.610   9.730  11.012
13858W        W79338  21.540  43.810  12.387
13859W        W79339  35.941  44.937   4.786
13860W        W79340  20.191  41.933   0.962
13861W        W79341  38.833  13.109   2.823
13862W        W79342  26.485  13.125  13.312
13863W        W79343  21.754   4.231   4.688
13864W        W79344  22.696  34.992   0.753
13865W        W79345  19.562  40.020   0.414
13866W        W79346  32.991  12.339  14.789
13867W        W79347  37.891  21.227  12.481
13868W        W79348  40.876  11.193   3.289
13869W        W79349  20.257   4.446  10.903
13870W        W79350   2.776   7.322   2.721
13871W        W79351  31.593  21.034  12.063
13872W        W79352   4.781   2.924  13.990
13873W        W79353  41.982  37.987   0.779
13874W        W79354   5.223   2.392  13.442
13875W        W79355   2.346   0.253  14.329
13876W        W79356   8.175  29.038  11.491
13877W        W79357  28.548   3.875  14.860
13878W        W79358  42.000  16.299   1.741
13879W        W79359  34.933  35.065  13.999
13880W        W79360  10.284  28.551   4.668
13881W        W79361  17.796  12.619  14.834
13882W        W79362  26.976   1.918  12.843
13883W        W79363  25.590  37.478   0.793
13884W        W79364  25.621   0.944  11.602
13885W        W79365  26.134   0.273  11.503
13886W        W79366   5.888   1.451  11.097
13887W        W79367  11.296  31.453   1.854
13888W        W79368  26.041  23.561  14.844
13889W        W79369  23.139  36.368   4.795
13890W        W79370  18.265  39.559   1.762
13891W        W79371   2.862  19.684   4.198
13892W        W79372   9.778  36.927  11.098
13893W        W79373  18.070   4.435   3.638
13894W        W79374  27.993   7.262   1.897
13895W        W79375  11.148   5.926  11.417
13896W        W79376  23.629  15.120   1.443
13897W        W79377   4.438  43.303   3.742
13898W        W79378  33.960  25.996  11.094
13899W        W79379  37.944  37.504   4.303
13900W        W79380  14.178  15.243   0.796
13901W        W79381  36.501  12.767   1.229
13902W        W79382  25.474   5.250   2.400
13903W        W79383  13.278  43.840   2.672
13904W        W79384  24.088  18.737   1.450
13905W        W79385   9.281  40.039  14.515
13906W        W79386  16.221   2.872  11.982
13907W        W79387  22.622  20.236   2.211
13908W        W79388  29.007  12.701   0.807
13909W        W79389  32.038   9.210  12.012
13910W        W79390  26.979  31.609  14.863
13911W        W79391  29.015  33.894   1.214
13912W        W79392   9.704  40.356   1.248
13913W        W79393  21.064  33.967   0.779
13914W        W79394  23.716  19.702   4.325
13915W        W79395  43.345   1.287  11.543
13916W        W79396  11.255  26.594  13.831
13917W        W79397   2.400   7.299   2.670
13918W        W79398  35.468  26.134   1.300
13919W        W79399   0.841  39.373   2.214
13920W        W79400  11.635  44.360   2.285
13921W        W79401  30.529  23.101  11.597
13922W        W79402  27.679  41.961  11.997
13923W        W79403  16.128  32.454  10.475
13924W        W79404  26.694  16.087  11.090
13925W        W79405   4.215  18.655   0.779
13926W        W79406  10.153  38.417  12.909
13927W        W79407  40.544  32.114   2.389
13928W        W79408  22.589  12.255   4.793
13929W        W79409   5.890   5.313   2.730
13930W        W79410  16.195  21.629   4.149
13931W        W79411  24.500   7.385  14.306
13932W        W79412   0.362  22.659  14.005
13933W        W79413  27.111  33.131  11.937
13934W        W79414  28.084  23.127   3.759
13935W        W79415  28.091   3.941   2.779
13936W        W79416  21.629  36.463   2.254
13937W        W79417  20.253  38.863   2.282
13938W        W79418  36.491  43.921   4.830
13939W        W79419  37.416  21.589   1.410
13940W        W79420  38.337  25.158   3.269
13941W        W79421   0.329  11.364   1.213
13942W        W79422  30.004  32.611   1.382
13943W        W79423  38.041  43.866   4.206
13944W        W79424  10.773   8.724   4.230
13945W        W79425  37.407  38.429   1.923
13946W        W79426  36.401  24.668   0.877
13947W        W79427  43.810  26.032   4.181
13948W        W79428  21.605  35.503   1.400
13949W        W79429  22.536  10.346  11.574
13950W        W79430  41.537  42.417  13.031
13951W        W79431  10.255   9.273   0.290
13952W        W79432  26.608  43.309  10.578
13953W        W79433  39.030  23.524   4.838
13954W        W79434  30.079  17.761  12.044
13955W        W79435  41.013  23.045   2.415
13956W        W79436   4.717   8.848   0.347
13957W        W79437  13.681  28.518   3.289
13958W        W79438  22.178  38.360  12.548
13959W        W79439  23.038   2.397  10.617
13960W        W79440  14.103  15.776  12.004
13961W        W79441  22.040  10.252  12.367
13962W        W79442  23.553  30.558   2.882
13963W        W79443  41.973  14.223   3.164
13964W        W79444  12.800  42.974  14.421
13965W        W79445  34.516  23.541  13.368
13966W        W79446  42.927  22.676  14.864
13967W        W79447  15.579  25.693  10.465
13968W        W79448  35.030  20.087   4.731
13969W        W79449  23.118  26.626   1.411
13970W        W79450  22.076  44.311  14.410
13971W        W79451  22.669  24.636   0.439
13972W        W79452   2.925  31.561  10.143
13973W        W79453   8.848  36.875  10.559
13974W        W79454  40.832  28.133  11.462
13975W        W79455  30.491   3.449   0.869
13976W        W79456   5.722  41.888  12.994
13977W        W79457   7.248   8.845   1.719
13978W        W79458  13.752  33.884   0.443
13979W        W79459  23.719  23.558  13.448
13980W        W79460  38.864  10.374   0.330
13981W        W79461  41.812  38.900   3.345
13982W        W79462  14.237   0.870  14.278
13983W        W79463  21.088  35.069   3.639
13984W        W79464  13.209  32.062  13.324
13985W        W79465   9.788  25.599  12.826
13986W        W79466   3.779  23.084  12.541
13987W        W79467  41.530  31.447  14.355
13988W        W79468   7.246  21.696   4.353
13989W        W79469   8.181   9.154   4.737
13990W        W79470   6.300  31.528   4.797
13991W        W79471  16.168  20.163   1.258
13992W        W79472  10.840  15.699   4.804
13993W        W79473  42.930  24.065   2.673
13994W        W79474  34.003  28.084  13.027
13995W        W79475  36.419  11.140   0.283
13996W        W79476  17.677  15.193  14.293
13997W        W79477  19.664   6.259  14.417
13998W        W79478  33.013  36.497   1.363
13999W        W79479  18.698  37.350   1.427
14000W        W79480   4.376   2.880   4.647
14001W        W79481   0.433  11.762   0.942
14002W        W79482  44.380  19.637   1.291
14003W        W79483  15.127  14.194  13.063
14004W        W79484   5.809  24.654   1.935
14005W        W79485  43.778  33.542  14.760
14006W        W79486  23.064  30.473  12.958
14007W        W79487  28.016   0.320  12.453
14008W        W79488  22.249  42.850   1.851
14009W        W79489  23.071  26.202  13.847
14010W        W79490  24.074  21.749  14.478
14011W        W79491  11.294   6.309  13.400
14012W        W79492  22.161  22.705   1.230
14013W        W79493   4.306   7.222   4.663
14014W        W79494  38.418  10.170   1.272
14015W        W79495  29.922  15.616   2.699
14016W        W79496  15.818   6.286   0.879
14017W        W79497  34.446  37.561  14.847
14018W        W79498  26.703  31.530  10.422
14019W        W79499   8.812   5.893  13.350
14020W        W79500  20.149  19.611   1.433
14021W        W79501  17.161  12.827   4.757
14022W        W79502  16.600  26.602   2.681
14023W        W79503  18.742  44.283  10.987
14024W        W79504   1.336  31.030   1.875
14025W        W79505  37.979  20.663  11.862
14026W        W79506  37.387   3.909  12.049
14027W        W79507  33.935  39.039   2.842
14028W        W79508   3.444  20.222   0.410
14029W        W79509  28.183  30.009   2.340
14030W        W79510  34.504  26.512   0.308
14031W        W79511  35.938   8.751   5.265
14032W        W79512  29.662  44.484  11.462
14033W        W79513  28.671  40.873   2.280
14034W        W79514  13.662  12.749  11.857
14035W        W79515  39.037  44.291  14.453
14036W        W79516  44.885  11.763   4.739
14037W        W79517  33.515  44.261   3.726
14038W        W79518  42.776  11.706  14.372
14039W        W79519  27.178   8.304   0.276
14040W        W79520  27.599  39.541   4.351
14041W        W79521  18.068  12.693  12.414
14042W        W79522  31.645  19.666   0.379
14043W        W79523   2.961  17.632  12.539
14044W        W79524  37.445  21.018   1.712
14045W        W79525   6.778  19.262  11.381
14046W        W79526  10.313  44.956   2.729
14047W        W79527  31.559  31.064  13.844
14048W        W79528   7.724   1.431  13.500
14049W        W79529  15.294  12.175   0.925
14050W        W79530  39.472  20.055  10.594
14051W        W79531  30.443   5.871   2.713
14052W        W79532  24.024  27.101   0.429
14053W        W79533  29.536  21.587  14.900
14054W        W79534  27.654  27.959  13.403
14055W        W79535   6.684  15.308   2.800
14056W        W79536  28.967  16.606   0.871
14057W        W79537   2.874  29.454  10.924
14058W        W79538  30.149  33.929  13.465
14059W        W79539  13.835   9.308  10.521
14060W        W79540   9.209  22.595   4.179
14061W        W79541   5.365  23.097  13.345
14062W        W79542  11.154  24.009  11.945
14063W        W79543  17.573  34.925  14.861
14064W        W79544  19.223  16.810  12.040
14065W        W79545  33.454  35.878   0.958
14066W        W79546  16.772  38.915  14.029
14067W        W79547  44.323  14.743  14.335
14068W        W79548   2.770  20.734  12.870
14069W        W79549   7.366  26.619   0.826
14070W        W79550  39.358  44.386  10.073
14071W        W79551  22.012  10.645  11.501
14072W        W79552  41.830   0.881   0.731
14073W        W79553  36.415  30.503  11.584
14074W        W79554  15.604  27.970  11.891
14075W        W79555  42.803  12.683  14.897
14076W        W79556   8.883  37.550   4.715
14077W        W79557  28.003  26.170  12.994
14078W        W79558  22.231  14.706  10.487
14079W        W79559   1.445  13.110  13.390
14080W        W79560  26.595   6.817  12.938
14081W        W79561  44.901  24.624  11.037
14082W        W79562  12.832   0.801  13.842
14083W        W79563  13.253  24.187  11.870
14084W        W79564  44.962   3.380   2.258
14085W        W79565  35.551  29.060   0.917
14086W        W79566  40.412  11.739  13.043
14087W        W79567  29.527  16.804   0.361
14088W        W79568  25.071  43.865  10.951
14089W        W79569   7.416  28.014  14.328
14090W        W79570   1.837   1.292   0.403
14091W        W79571  23.706  18.752   1.896
14092W        W79572  27.584  13.347   0.292
14093W        W79573  22.127  27.524   3.354
14094W        W79574   8.820  11.848   0.365
14095W        W79575  36.492  43.350  12.368
14096W        W79576   7.901  33.473   0.419
14097W        W79577   6.277  11.311  11.578
14098W        W79578  12.326  28.956   0.815
14099W        W79579  43.826  38.040   3.375
14100W        W79580  38.896  34.872  11.964
14101W        W79581  13.214  10.650   1.231
14102W        W79582  15.270   8.800   0.371
14103W        W79583  14.697  18.572   0.758
14104W        W79584  36.896  42.417   4.608
14105W        W79585   7.790  21.261   4.707
14106W        W79586  23.086   4.932   2.391
14107W        W79587  30.473  10.155   1.214
14108W        W79588  25.035  40.959  12.434
14109W        W79589  30.990  19.584   2.673
14110W        W79590   2.741  25.123   2.305
14111W        W79591  31.402  15.766   3.672
14112W        W79592  13.108  10.260  11.575
14113W        W79593  41.960  40.936   2.882
14114W        W79594   2.397  42.950  12.478
14115W        W79595  15.654  38.824  14.453
14116W        W79596  30.552  27.677   1.743
14117W        W79597  19.043  23.681  14.477
14118W        W79598  24.982  22.716   4.739
14119W        W79599  35.570   3.455   3.342
14120W        W79600   9.721  19.113  14.841
14121W        W79601   3.404  14.098  14.835
14122W        W79602  15.672  38.058   2.873
14123W        W79603  30.969  11.812  12.518
14124W        W79604  25.196  15.142   1.934
14125W        W79605  31.563  35.459   1.918
14126W        W79606  17.588  19.177   3.791
14127W        W79607  31.496  41.417   3.298
14128W        W79608  13.110  43.967   3.272
14129W        W79609  18.745  27.465   5.784
14130W        W79610  15.584  44.798  12.541
14131W        W79611  36.471  22.170  13.057
14132W        W79612  26.571   3.424  11.905
14133W        W79613  11.234  40.928  11.971
14134W        W79614   9.241   5.884  14.862
14135W        W79615  39.993  43.401   1.266
14136W        W79616   6.829   1.425   0.750
14137W        W79617   4.765  16.201   4.623
14138W        W79618  40.824  44.264  13.049
14139W        W79619   8.334   7.397  12.443
14140W        W79620  19.075  39.953  10.427
14141W        W79621  25.474  12.857   3.350
14142W        W79622  41.035  14.730   2.337
14143W        W79623   8.240  30.961   1.338
14144W        W79624  34.927  21.209   1.313
14145W        W79625  38.932  16.576   1.834
14146W        W79626  34.444   7.892  12.365
14147W        W79627  19.770  30.637  12.855
14148W        W79628  21.558  26.001   2.837
14149W        W79629  19.138   5.420   0.425
14150W        W79630  12.292   6.889  14.952
14151W        W79631  42.945  19.092  13.991
14152W        W79632  38.335  13.324   2.722
14153W        W79633  22.655  24.192   1.315
14154W        W79634  34.007  15.242  13.803
14155W        W79635  27.453  39.954   4.229
14156W        W79636  36.889  13.843   2.313
14157W        W79637   9.747  32.569   1.696
14158W        W79638  35.006  31.459   2.901
14159W        W79639  17.149  45.000  12.945
14160W        W79640   8.361   9.163  11.097
14161W        W79641  36.461  41.029  12.881
14162W        W79642  28.113  42.484  11.951
14163W        W79643  40.911  19.564   0.747
14164W        W79644   8.793  40.882   1.425
14165W        W79645  22.091   8.354   0.305
14166W        W79646  21.056   9.820  14.779
14167W        W79647   3.425   2.842  14.329
14168W        W79648  15.326  19.581   2.331
14169W        W79649  18.162  43.793  10.931
14170W        W79650  41.791  38.948  12.413
14171W        W79651  12.197  39.385   3.292
14172W        W79652  23.101   6.684   3.171
14173W        W79653  35.409  31.032  12.082
14174W        W79654  34.875   0.777   2.181
14175W        W79655  40.365  26.652   1.318
14176W        W79656  32.588  42.362  11.558
14177W        W79657  13.687  43.806   2.757
14178W        W79658   3.275  36.475   5.148
14179W        W79659  19.778   7.355  12.924
14180W        W79660  10.857  20.140   2.216
14181W        W79661  27.061  17.245  10.598
14182W        W79662  33.940  44.305  12.462
14183W        W79663   7.678  33.060  12.835
14184W        W79664  25.552   2.392   3.776
14185W        W79665  13.128   0.956   1.357
14186W        W79666  44.496  39.496  14.906
14187W        W79667  13.703  41.465   2.266
14188W        W79668  10.674   0.481   3.174
14189W        W79669   0.819  41.033   0.791
14190W        W79670  32.049  21.180   3.179
14191W        W79671   7.777  32.570   2.239
14192W        W79672   4.897  40.803  10.493
14193W        W79673  39.895  12.768   4.133
14194W        W79674  23.561  40.974   3.756
14195W        W79675   6.685  29.572   0.912
14196W        W79676  39.413   3.304   4.214
14197W        W79677  25.529  11.364   3.834
14198W        W79678  12.658  19.091   0.357
14199W        W79679  38.392  36.895  12.443
14200W        W79680  26.042  40.049   4.798
14201W        W79681   1.873  40.367   2.822
14202W        W79682  36.918   3.935  12.403
14203W        W79683   0.801   7.745   1.243
14204W        W79684  41.478  44.423   3.784
14205W        W79685  28.675  41.836  13.001
14206W        W79686  22.555  30.909   1.248
14207W        W79687  16.190  36.477  13.832
14208W        W79688  10.746  39.947   4.835
14209W        W79689   0.286  23.685   1.308
14210W        W79690  13.755  22.158   4.354
14211W        W79691   9.728   9.684   0.736
14212W        W79692  31.491   3.229  10.572
14213W        W79693  42.486   4.435  12.077
14214W        W79694  19.083  10.721   3.664
14215W        W79695  41.401  26.645   4.730
14216W        W79696  34.873  24.612   0.411
14217W        W79697  14.774  40.922  12.493
14218W        W79698  10.843   6.260  13.337
14219W        W79699   6.874  29.088  10.461
14220W        W79700  18.740  15.129   4.665
14221W        W79701   1.455   5.220   4.619
14222W        W79702   1.365   0.881   3.716
14223W        W79703  19.592  19.088   0.840
14224W        W79704  35.023  32.122   0.763
14225W        W79705  10.304   8.206  13.396
14226W        W79706  11.666  22.653  11.089
14227W        W79707   2.832  31.097   1.394
14228W        W79708  44.834  11.276  12.551
14229W        W79709  24.714  28.026  12.478
14230W        W79710   0.394  18.242  12.849
14231W        W79711  35.961  39.902  12.525
14232W        W79712  38.548  44.488   0.962
14233W        W79713  36.931  34.087  12.361
14234W        W79714   1.858   3.951  13.401
14235W        W79715   4.864  44.313  11.109
14236W        W79716  28.515  34.388  12.359
14237W        W79717  19.232  32.417   0.317
14238W        W79718  34.592  28.969   1.431
14239W        W79719  43.967  25.098   2.796
14240W        W79720  33.975  37.833  13.378
14241W        W79721   6.800   4.397  12.007
14242W        W79722  12.168   8.837   4.610
14243W        W79723  29.440  22.059   0.344
14244W        W79724  26.692  26.158   4.231
14245W        W79725  13.692  32.452  12.440
14246W        W79726  30.949  38.947  11.094
14247W        W79727  18.683  26.635  13.854
14248W        W79728  18.782  44.465  12.020
14249W        W79729  37.362  19.709  10.543
14250W        W79730   7.802  12.282  13.469
14251W        W79731  19.769   8.339   3.737
14252W        W79732  42.367   3.724   5.087
14253W        W79733  20.615   1.446  11.540
14254W        W79734  23.555  30.458  13.825
14255W        W79735  34.936  28.472  14.880
14256W        W79736   5.771   6.358   0.324
14257W        W79737  10.139  22.606   4.788
14258W        W79738  23.614  16.314  13.981
14259W        W79739  24.082  22.613   0.870
14260W        W79740  14.601  37.507  12.572
14261W        W79741  17.637  34.898  11.901
14262W        W79742  33.536  15.724   2.896
14263W        W79743  40.311  17.307   1.359
14264W        W79744  34.512   4.429  11.951
14265W        W79745  19.074  34.537   4.689
14266W        W79746  41.809  15.302   4.676
14267W        W79747  20.598   8.762   1.781
14268W        W79748  32.906  23.069  13.831
14269W        W79749  18.679   7.250  11.490
14270W        W79750  16.627  43.401  10.518
14271W        W79751  26.134  35.428  11.950
14272W        W79752   4.791  24.482  12.485
14273W        W79753  25.176  10.867  11.980
14274W        W79754   6.234  15.650  11.952
14275W        W79755  28.977  25.181   4.128
14276W        W79756   6.912  36.958   1.719
14277W        W79757  34.103  28.984   4.128
14278W        W79758  37.419  23.572  13.371
14279W        W79759   6.902  16.673  14.370
14280W        W79760  44.479   2.433   2.670
14281W        W79761  33.080   5.371  13.542
14282W        W79762  32.124  33.897   1.734
14283W        W79763  40.386   7.842  14.830
14284W        W79764   2.805  27.097  13.914
14285W        W79765   6.693  10.799  10.574
14286W        W79766  29.427  35.538   3.836
14287W        W79767   3.890   7.407   3.822
14288W        W79768  29.033  37.906   3.746
14289W        W79769   7.330  36.964   4.762
14290W        W79770  36.874  31.521  11.602
14291W        W79771  19.067   0.262   3.694
14292W        W79772   2.336  24.564  13.440
14293W        W79773   2.819  12.744   4.273
14294W        W79774  19.279   9.849   2.896
14295W        W79775  34.419   3.216   3.730
14296W        W79776  31.626  14.750  14.996
14297W        W79777  13.824   5.830   4.659
14298W        W79778  27.088  38.944  13.048
14299W        W79779  18.706  30.921  14.021
14300W        W79780   0.971  26.678   1.864
14301W        W79781  43.869  44.384  14.471
14302W        W79782  13.819  30.604  13.923
14303W        W79783  15.132  37.548   2.407
14304W        W79784  19.061   8.308   3.662
14305W        W79785  36.580  42.484   3.810
14306W        W79786  25.083   9.788   1.752
14307W        W79787  37.921   0.881  12.443
14308W        W79788  14.214  25.704   4.782
14309W        W79789  31.616   8.178  13.844
14310W        W79790  14.828  16.568   1.853
14311W        W79791  18.233  20.689  12.466
14312W        W79792  19.144  24.542   1.260
14313W        W79793  17.120   8.249  14.489
14314W        W79794   8.286  36.848   1.722
14315W        W79795  18.081  27.029  13.918
14316W        W79796  43.979  39.857   2.411
14317W        W79797  10.339  21.735   3.361
14318W        W79798  22.032  34.924  11.431
14319W        W79799   1.899  38.431  11.921
14320W        W79800   3.921  32.086  14.909
14321W        W79801  20.687  38.347   3.261
14322W        W79802  26.026   7.211  14.341
14323W        W79803  37.939  27.956  12.877
14324W        W79804  39.531  33.521   3.683
14325W        W79805  23.530  15.298  14.415
14326W        W79806  35.094  44.473  10.502
14327W        W79807  23.035  23.033  12.924
14328W        W79808  34.383  13.706  11.972
14329W        W79809   6.254  43.874  12.480
14330W        W79810  28.681  43.392   0.904
14331W        W79811  32.907  11.623  11.029
14332W        W79812  21.141   4.814  13.902
14333W        W79813  19.768  39.845  10.592
14334W        W79814  42.837  18.775  10.105
14335W        W79815  37.061  23.621  10.590
14336W        W79816  27.642  20.651   0.922
14337W        W79817   3.927  14.761  11.964
14338W        W79818   6.376  43.390  14.397
14339W        W79819   9.376  24.516   3.629
14340W        W79820  10.735   9.675  14.779
14341W        W79821  36.497  34.601   4.647
14342W        W79822  36.405  21.630  12.421
14343W        W79823  33.014  20.574   4.605
14344W        W79824  10.161   5.253  10.514
14345W        W79825  15.118  12.669  14.766
14346W        W79826  21.084  37.439   1.382
14347W        W79827   9.208  16.667  12.907
14348W        W79828  44.364  41.887  13.464
14349W        W79829  37.523  35.876   0.881
14350W        W79830  13.237  23.539  10.596
14351W        W79831  41.317   9.392  12.558
14352W        W79832  24.227  25.101   0.313
14353W        W79833  32.621   9.667  12.944
14354W        W79834   0.750  19.107   1.846
14355W        W79835  30.465  39.015   2.286
14356W        W79836   3.383  44.417   4.749
14357W        W79837  28.058  22.206   2.333
14358W        W79838  35.477  29.112   4.321
14359W        W79839  44.778   5.848  12.374
14360W        W79840   3.807  34.587  13.990
14361W        W79841  24.227  16.176   0.759
14362W        W79842  33.565  34.444  11.931
14363W        W79843   3.286  21.118   5.109
14364W        W79844  15.753  31.053  10.889
14365W        W79845  11.786  36.077   4.770
14366W        W79846   4.441  17.560  14.370
14367W        W79847  25.025  10.677  10.934
14368W        W79848   6.832  23.719  14.775
14369W        W79849  42.025  11.291   4.800
14370W        W79850  14.237  25.668   3.748
14371W        W79851   2.272  26.167   0.384
14372W        W79852  30.543   1.947  12.401
14373W        W79853   2.404   6.710  12.044
14374W        W79854  19.708  18.752   4.744
14375W        W79855   9.770  28.534   1.707
14376W        W79856  40.981  11.197  11.552
14377W        W79857  10.855  40.503   4.216
14378W        W79858   5.242  25.156  12.032
14379W        W79859  26.201   7.737   2.882
14380W        W79860  42.343  34.017   2.266
14381W        W79861  38.882   6.276   3.208
14382W        W79862   1.882  28.650  14.413
14383W        W79863   8.399  10.727  13.923
14384W        W79864   3.827  33.429  14.874
14385W        W79865  40.860  20.098   5.696
14386W        W79866  34.909  36.370   3.684
14387W        W79867  30.464  20.127  11.994
14388W        W79868   9.691  23.131  12.904
14389W        W79869  21.060  39.504  13.926
14390W        W79870  42.005  44.402   4.826
14391W        W79871   3.925   2.735   0.378
14392W        W79872  39.539  20.685   2.338
14393W        W79873  43.923  13.735  13.960
14394W        W79874   2.834  28.024   0.776
14395W        W79875  10.679  13.667  11.394
14396W        W79876   8.167  14.292  14.475
14397W        W79877   3.813  37.386  14.468
14398W        W79878  35.082  12.119  11.126
14399W        W79879  44.846  30.634  14.955
14400W        W79880  15.603   0.889   0.387
14401W        W79881  34.017  42.973  13.823
14402W        W79882  29.563   4.207   1.885
14403W        W79883  20.735  40.411  11.543
14404W        W79884   9.275  22.523  12.521
14405W        W79885  36.948  32.580  14.491
14406W        W79886   0.900  30.625  12.072
14407W        W79887  17.071  36.996   5.259
14408W        W79888  43.285  14.655   3.225
14409W        W79889  17.694  25.624   1.347
14410W        W79890   6.880  36.528  11.969
14411W        W79891  25.192  21.669  12.383
14412W        W79892  25.510  23.164   1.749
14413W        W79893  15.787  10.794   4.816
14414W        W79894  38.023  11.250  10.574
14415W        W79895  34.878  21.589   2.852
14416W        W79896  34.895  43.479  11.379
14417W        W79897   9.306   8.668   0.791
14418W        W79898   2.869  23.042  12.989
14419W        W79899   8.262  16.647   0.949
14420W        W79900  38.884  30.486  13.861
14421W        W79901  40.899  17.141   1.335
14422W        W79902   5.765  32.098  14.958
14423W        W79903  14.682  33.118  13.045
14424W        W79904  17.177  33.543  12.469
14425W        W79905  29.544  38.003   3.836
14426W        W79906  43.939  17.626   3.794
14427W        W79907  17.759  37.430   3.786
14428W        W79908  23.216  32.533  13.458
14429W        W79909   4.909   1.777   0.818
14430W        W79910  24.099   1.965  14.443
14431W        W79911   7.849   6.416  13.945
14432W        W79912  20.069  35.055   1.347
14433W        W79913  39.465  19.722  11.388
14434W        W79914  21.237  29.472   2.196
14435W        W79915   3.954   1.470  14.011
14436W        W79916   0.775   3.899   1.901
14437W        W79917  42.022  22.672   9.963
14438W        W79918  23.727   9.714   1.348
14439W        W79919  25.156  34.559  14.290
14440W        W79920  26.471  29.923   0.282
14441W        W79921  26.079   9.762   3.221
14442W        W79922  13.144   2.770   4.131
14443W        W79923  12.358  44.449  10.986
14444W        W79924  36.952  12.727   2.709
14445W        W79925  34.445  37.345   1.918
14446W        W79926  11.689  17.142  11.128
14447W        W79927  17.214  25.582   0.941
14448W        W79928  27.057  36.079   0.396
14449W        W79929  25.563  43.909   1.717
14450W        W79930  32.551   5.253  11.458
14451W        W79931   6.776  22.084   2.803
14452W        W79932  37.549  42.444   3.737
14453W        W79933  14.338  37.408  12.576
14454W        W79934  27.541   3.829   4.125
14455W        W79935  31.018  20.680   4.326
14456W        W79936   2.398  37.388   0.830
14457W        W79937  38.844   2.268   2.215
14458W        W79938  23.115  22.521  10.554
14459W        W79939  25.101   9.770  12.408
14460W        W79940   4.867   1.893  13.428
14461W        W79941  26.615  14.597   5.237
14462W        W79942  39.434  28.935  13.307
14463W        W79943  28.521  31.905  13.930
14464W        W79944  19.195  30.926  11.480
14465W        W79945  22.117  15.634  14.799
14466W        W79946  31.626  31.139   1.347
14467W        W79947  31.141  12.158  11.542
14468W        W79948  34.450  35.432  12.580
14469W        W79949  20.574  14.769   4.642
14470W        W79950  16.751  25.585   3.752
14471W        W79951  33.885  15.732   3.812
14472W        W79952  26.127  32.082   0.810
14473W        W79953  13.831  17.671  14.464
14474W        W79954   3.430  18.058  11.596
14475W        W79955  10.239   6.398   1.361
14476W        W79956  12.856  21.571   0.342
14477W        W79957  15.230  17.660  12.906
14478W        W79958  19.698  22.055  11.454
14479W        W79959  24.213   7.854   0.367
14480W        W79960  37.018  34.897  13.939
14481W        W79961  14.756  35.481   0.306
14482W        W79962  42.288   2.342   1.364
14483W        W79963   3.735  19.282   0.735
14484W        W79964  14.290  33.897  13.475
14485W        W79965  34.377   6.418   3.304
14486W        W79966   0.883  25.598  12.935
14487W        W79967  20.572   1.942  14.378
14488W        W79968  38.835   0.788  11.508
14489W        W79969   5.846  31.416  14.305
14490W        W79970  18.554   0.852  12.956
14491W        W79971  35.038  27.140   1.424
14492W        W79972  41.938  26.597   1.294
14493W        W79973  43.376  12.847  10.450
14494W        W79974  10.875  27.138  11.915
14495W        W79975   2.771  37.459   2.823
14496W        W79976   6.421  17.595  13.825
14497W        W79977   4.207   4.338  13.953
14498W        W79978   2.391  29.134   4.784
14499W        W79979  34.993  28.163   5.279
14500W        W79980  40.480  39.341  12.488
14501W        W79981  32.991  37.506  11.103
14502W        W79982  10.847  34.057  13.423
14503W        W79983  20.262   4.297  12.996
14504W        W79984   6.240  21.575  11.600
14505W        W79985  28.126  26.140  12.046
14506W        W79986  43.826  22.627   2.703
14507W        W79987   8.874  29.618   0.308
14508W        W79988  19.623  20.240   4.304
14509W        W79989  36.472  30.546  10.473
14510W        W79990  12.256  42.005   1.762
14511W        W79991  13.763  21.060  13.466
14512W        W79992   6.899  32.395   1.353
14513W        W79993   0.475   4.368   3.220
14514W        W79994  24.176  13.224   2.855
14515W        W79995   8.377  14.781  10.583
14516W        W79996   0.869  22.583   1.221
14517W        W79997  34.399  17.654  13.500
14518W        W79998  13.231   5.867   1.834
14519W        W79999   3.333  27.601  14.973
14520W        W80000  12.748   9.804   1.887
14521W        W80001  43.771  24.638  13.480
14522W        W80002  34.869   3.790  13.927
14523W        W80003   9.294  42.827   4.191
14524W        W80004  24.027  38.485  12.944
14525W        W80005  41.950  35.902  14.802
14526W        W80006  34.073   7.884   4.638
14527W        W80007  29.595  41.365  13.377
14528W        W80008   7.342  41.504   2.360
14529W        W80009  29.576  22.527   2.815
14530W        W80010  39.045  26.585   0.315
14531W        W80011  36.357  33.521  13.538
14532W        W80012  41.312   4.912   4.303
14533W        W80013  38.383  20.028  11.024
14534W        W80014  33.028  27.120  10.449
14535W        W80015  19.044  27.487   2.880
14536W        W80016  16.617  18.105  12.843
14537W        W80017  35.576  36.969   2.767
14538W        W80018  34.551  16.255   0.861
14539W        W80019  34.485  25.643   3.315
14540W        W80020  14.314   6.329   1.934
14541W        W80021  14.803  30.621  13.396
14542W        W80022   7.768  29.643   4.313
14543W        W80023  38.543  29.453  11.994
14544W        W80024   1.865  14.281   2.284
14545W        W80025  37.527  17.190   5.221
14546W        W80026   8.714  25.029  12.859
14547W        W80027  44.474  25.095  12.396
14548W        W80028   7.388  26.465  12.007
14549W        W80029  36.914  22.505   1.415
14550W        W80030  19.534  24.135  14.882
14551W        W80031  31.629  40.976  12.487
14552W        W80032  28.654  35.955  14.914
14553W        W80033  39.994  24.637   0.454
14554W        W80034   4.404  17.240   2.255
14555W        W80035  40.514  17.166   5.132
14556W        W80036  14.768  28.492  10.526
14557W        W80037  31.542  25.484  11.073
14558W        W80038   9.362  32.058   1.772
14559W        W80039  16.218  23.047  13.803
14560W        W80040  27.121  43.301  13.062
14561W        W80041   1.413  11.182   1.250
14562W        W80042  41.991  12.249  13.495
14563W        W80043   1.398  43.394  14.763
14564W        W80044   1.481  21.539   1.309
14565W        W80045  13.658  40.965   9.513
14566W        W80046  12.798  33.420  13.797
14567W        W80047   6.236   3.728   4.740
14568W        W80048  28.117  20.668  11.076
14569W        W80049  36.440   8.758  14.802
14570W        W80050  37.416  29.948  13.491
14571W        W80051  44.365  42.805   1.273
14572W        W80052  40.530  43.964  14.310
14573W        W80053  43.884  38.444   1.438
14574W        W80054   2.967  41.458   2.672
14575W        W80055  33.035  15.724   1.419
14576W        W80056  36.550  33.076  13.794
14577W        W80057  15.770  34.900  14.761
14578W        W80058  20.744   0.364  13.420
14579W        W80059  14.668   0.256   1.397
14580W        W80060  35.869  20.563   4.655
14581W        W80061   2.278  19.223   1.718
14582W        W80062  24.988  11.221  11.391
14583W        W80063  13.687   8.752   2.685
14584W        W80064  42.822  30.986   3.196
14585W        W80065  10.710  40.392  10.943
14586W        W80066   4.905   7.731  10.607
14587W        W80067  32.636  17.756   0.301
14588W        W80068  26.625   9.665  11.515
14589W        W80069  44.898   8.406   3.215
14590W        W80070  41.881   8.797   9.969
14591W        W80071   7.764  10.838   3.180
14592W        W80072  11.244  24.116   2.190
14593W        W80073  14.613   3.900   1.836
14594W        W80074  23.227  41.865   0.790
14595W        W80075  39.869  18.770  11.579
14596W        W80076  42.028  17.649   4.784
14597W        W80077  21.705  30.926  13.332
14598W        W80078  32.622  26.958  14.919
14599W        W80079  38.982  38.518   1.217
14600W        W80080  23.190  32.035   2.241
14601W        W80081   8.261   8.347  12.836
14602W        W80082  41.954   2.281   2.771
14603W        W80083  12.681  20.214   2.315
14604W        W80084  34.885  19.720  11.588
14605W        W80085   6.379   1.833   2.797
14606W        W80086  30.985  19.127  13.436
14607W        W80087  30.996  25.052   5.175
14608W        W80088  11.145  11.667   3.693
14609W        W80089  44.280  33.997  13.871
14610W        W80090  43.869  20.539   0.752
14611W        W80091  34.462  29.165  14.791
14612W        W80092  10.228  11.698   3.360
14613W        W80093  32.445  33.891  10.422
14614W        W80094  21.203  43.396   0.906
14615W        W80095  41.380  43.795  11.515
14616W        W80096  36.347  18.197  12.561
14617W        W80097   3.437  41.355  10.609
14618W        W80098   1.339  22.564   1.292
14619W        W80099  15.626  40.809  12.870
14620W        W80100  40.852  44.813  13.504
14621W        W80101  29.016   9.727   0.792
14622W        W80102  30.921  33.939  14.953
14623W        W80103   7.883  15.309  12.989
14624W        W80104  20.265   4.248   3.672
14625W        W80105   2.882  44.370  14.308
14626W        W80106  20.164  22.643  11.949
14627W        W80107  16.083  10.257  11.990
14628W        W80108   9.735  16.619   2.713
14629W        W80109   0.449  34.000  10.428
14630W        W80110   4.899  10.303   3.767
14631W        W80111  36.084  26.666   1.708
14632W        W80112  11.624  33.076   4.668
14633W        W80113  32.543  23.696   1.852
14634W        W80114  31.048  20.716  13.536
14635W        W80115  19.744  10.871  13.981
14636W        W80116  27.174   6.842   2.328
14637W        W80117   0.965  41.456  13.388
14638W        W80118   1.366  23.715  14.865
14639W        W80119  25.072  21.541  14.776
14640W        W80120  19.679  17.569   3.148
14641W        W80121   4.233  24.525   3.369
14642W        W80122  22.234  42.896   9.965
14643W        W80123  27.143   4.818   2.395
14644W        W80124  15.791  38.448   0.751
14645W        W80125  40.369  23.661   0.326
14646W        W80126  16.638  32.104   3.269
14647W        W80127  19.700  27.598  14.856
14648W        W80128  24.632  38.332   1.858
14649W        W80129  15.157  28.618  13.023
14650W        W80130  44.376  17.274  11.544
14651W        W80131  39.419  18.233   5.601
14652W        W80132  20.206  23.605  13.365
14653W        W80133  27.542   0.343  10.888
14654W        W80134  31.086  20.247  13.350
14655W        W80135  32.403  10.340  11.559
14656W        W80136  26.069  18.683  13.450
14657W        W80137   9.268  40.383  10.942
14658W        W80138  30.429  30.461  12.885
14659W        W80139  13.658  10.275   3.816
14660W        W80140  39.469  17.587   1.255
14661W        W80141  42.995  13.815   1.805
14662W        W80142  30.542   9.247  14.855
14663W        W80143  15.785  23.516  11.996
14664W        W80144   6.223   5.366   3.639
14665W        W80145  13.608  11.852   1.391
14666W        W80146  25.604  12.656   3.829
14667W        W80147  40.935  40.464  11.107
14668W        W80148  33.014  29.604   2.759
14669W        W80149   4.803  11.326  10.595
14670W        W80150  18.764  33.498   3.197
14671W        W80151  44.993  39.451   0.347
14672W        W80152  27.490  39.856  10.108
14673W        W80153  15.823  24.176  11.060
14674W        W80154  18.762  28.489  12.017
14675W        W80155  20.266  12.855  13.033
14676W        W80156  21.134  10.251  12.029
14677W        W80157  27.968  24.184  11.987
14678W        W80158  17.665  24.592   2.723
14679W        W80159  25.553  42.009   3.699
14680W        W80160   9.293  11.136   2.416
14681W        W80161  36.581  39.339   0.821
14682W        W80162  17.154  20.760   0.253
14683W        W80163  38.009  18.678  13.008
14684W        W80164  42.802  42.856  13.482
14685W        W80165   0.328  36.070  12.345
14686W        W80166  40.380  28.062  11.949
14687W        W80167  15.780  37.979  10.404
14688W        W80168  43.000  22.030  14.360
14689W        W80169  38.541  39.960   3.238
14690W        W80170  18.061  44.493   1.789
14691W        W80171  32.636  38.379   2.229
14692W        W80172   3.339  28.509   2.227
14693W        W80173   4.822  19.548   2.279
14694W        W80174  20.243  18.152   2.216
14695W        W80175  10.220  21.723  13.439
14696W        W80176  22.512  30.534  12.008
14697W        W80177  36.058  44.446   2.302
14698W        W80178  23.156  44.478   0.414
14699W        W80179  33.567  27.054  11.945
14700W        W80180  20.138  34.526  13.835
14701W        W80181   2.338  14.750   3.317
14702W        W80182   1.279  39.938   4.173
14703W        W80183   5.216  15.159  11.017
14704W        W80184  15.189  31.997   4.323
14705W        W80185  10.342  35.392   3.365
14706W        W80186  20.714  35.012  11.413
14707W        W80187  38.024  42.502  14.859
14708W        W80188  17.168  12.722   4.348
14709W        W80189  29.126  16.671   4.704
14710W        W80190  33.929   5.730   0.901
14711W        W80191  27.546  43.994   1.784
14712W        W80192  37.895  44.360   3.266
14713W        W80193  10.828  43.927  14.800
14714W        W80194  27.654  11.148  11.972
14715W        W80195  38.915   2.819  10.493
14716W        W80196  15.726  12.219   0.920
14717W        W80197   1.811   6.703  10.888
14718W        W80198  14.282  30.501  11.877
14719W        W80199   0.450  14.828  14.452
14720W        W80200   9.156  31.044   4.145
14721W        W80201   7.284  11.328   0.913
14722W        W80202   6.784   2.432  13.793
14723W        W80203  16.136  28.115  12.991
14724W        W80204   5.305  27.154  12.940
14725W        W80205  16.648   5.195   3.327
14726W        W80206   3.331  22.223   0.374
14727W        W80207   3.320  42.784  10.889
14728W        W80208  23.056  24.525   2.329
14729W        W80209  17.139  35.397   0.802
14730W        W80210  21.235  15.149  12.852
14731W        W80211   1.432  34.888  13.513
14732W        W80212  41.329  29.014  13.447
14733W        W80213  36.485   8.765   1.903
14734W        W80214  40.391  24.509  13.891
14735W        W80215   6.320  30.024  10.513
14736W        W80216  35.022   6.849  13.486
14737W        W80217  32.091  25.661  13.949
14738W        W80218  11.786  34.985   0.459
14739W        W80219  41.314  22.020   3.337
14740W        W80220  13.748  21.064   2.392
14741W        W80221  25.160  20.594   2.245
14742W        W80222  30.599   8.295  14.002
14743W        W80223   1.852  40.807   2.672
14744W        W80224  31.013  32.417  12.833
14745W        W80225  20.043  36.910  14.793
14746W        W80226  26.666  26.647  12.423
14747W        W80227  13.197  11.250  11.866
14748W        W80228   3.851  11.630  10.091
14749W        W80229  35.578  10.189   1.340
14750W        W80230  10.778  37.459  10.481
14751W        W80231  19.124  20.122  14.423
14752W        W80232  30.981  20.111   4.627
14753W        W80233  43.307  10.261  10.012
14754W        W80234  33.953  27.627   2.200
14755W        W80235  24.151  20.259  12.504
14756W        W80236   4.409  31.994   3.863
14757W        W80237   2.396   4.908  14.807
14758W        W80238   6.358   4.888  11.545
14759W        W80239  17.638   2.734  10.598
14760W        W80240   4.231  31.996  14.789
14761W        W80241  23.061  31.963   0.264
14762W        W80242  36.426  23.520  13.308
14763W        W80243  26.006  24.177   0.352
14764W        W80244  40.048  38.885  13.346
14765W        W80245  36.436   0.382   4.117
14766W        W80246  11.333  17.250   4.653
14767W        W80247  19.212   5.241  10.601
14768W        W80248   9.345  10.812   0.941
14769W        W80249   2.229  31.536  12.459
14770W        W80250  19.642  24.516  13.421
14771W        W80251  44.849   9.657   2.393
14772W        W80252   0.984  10.787   2.387
14773W        W80253  28.107  25.700  13.376
14774W        W80254  11.622  20.765   0.863
14775W        W80255  29.427   6.855  10.547
14776W        W80256  22.510  10.873   1.776
14777W        W80257  30.613   9.187   0.886
14778W        W80258  29.626  26.127   1.765
14779W        W80259  12.306  43.391   2.330
14780W        W80260   4.299  21.206  14.902
14781W        W80261  13.787  42.788  11.436
14782W        W80262   7.815   7.400  14.918
14783W        W80263  44.262  36.844  13.963
14784W        W80264  37.430  13.348   1.754
14785W        W80265  29.634  28.144   0.765
14786W        W80266  36.573   5.261  14.441
14787W        W80267  20.235  20.708   4.179
14788W        W80268  14.106   6.711  11.476
14789W        W80269   2.243  36.910  13.370
14790W        W80270  37.888  30.011  14.490
14791W        W80271  19.586  14.120   0.866
14792W        W80272  39.036  19.564  14.923
14793W        W80273  37.532  16.620  12.470
14794W        W80274  23.166  41.505  12.549
14795W        W80275  17.255  31.438  14.399
14796W        W80276  32.064  29.596   3.224
14797W        W80277  31.028  33.905   1.772
14798W        W80278  14.240  38.527  11.520
14799W        W80279  44.910  12.328   4.234
14800W        W80280  21.105  40.521   0.885
14801W        W80281  18.091  26.680   4.275
14802W        W80282   5.219  19.077  14.767
14803W        W80283   3.741   7.738  14.385
14804W        W80284  28.449  26.538   0.332
14805W        W80285  14.231   6.756  10.551
14806W        W80286   1.279  27.624   2.669
14807W        W80287  32.937  10.680  14.289
14808W        W80288  39.003  37.419   2.705
14809W        W80289  25.524  21.632   1.795
14810W        W80290   3.233   1.441  11.955
14811W        W80291  25.985   6.234   2.341
14812W        W80292  27.122   6.406  13.969
14813W        W80293  23.217  14.757  14.877
14814W        W80294  35.574   1.933   1.799
14815W        W80295  28.077  10.148  13.837
14816W        W80296  20.057  26.202  12.550
14817W        W80297  20.240  11.772   1.836
14818W        W80298  31.563  29.504  12.418
14819W        W80299  15.272  29.437  14.476
14820W        W80300  15.655  41.852  14.981
14821W        W80301  37.875   8.839  13.791
14822W        W80302  43.465   0.961   4.156
14823W        W80303  44.365  27.571   3.805
14824W        W80304  23.032  27.576   4.639
14825W        W80305  16.144   6.255  14.985
14826W        W80306   8.841  39.427   0.850
14827W        W80307  41.489  27.667  11.557
14828W        W80308  25.544   7.788   0.753
14829W        W80309  22.514  38.937  12.848
14830W        W80310  15.614   9.286   2.346
14831W        W80311  31.439   0.893  12.930
14832W        W80312  29.526  17.783   3.641
14833W        W80313  30.599  23.609   0.338
14834W        W80314  27.614  26.129   1.820
14835W        W80315  38.974   6.261   4.711
14836W        W80316  35.969  19.169  11.611
14837W        W80317  32.436  19.080   2.822
14838W        W80318  39.022   7.727   3.763
14839W        W80319  37.084  25.547  11.959
14840W        W80320  28.057  22.723  12.935
14841W        W80321  30.025  17.648  14.318
14842W        W80322  21.253  34.981   5.131
14843W        W80323  25.094  22.152   3.167
14844W        W80324   4.444   6.251   0.393
14845W        W80325  36.061  40.846   1.265
14846W        W80326  27.139  32.462   2.815
14847W        W80327  33.004  19.655   0.365
14848W        W80328  37.365  30.564   1.882
14849W        W80329  34.932  31.492   1.286
14850W        W80330  29.123   1.308   2.664
14851W        W80331  12.640  35.033  14.805
14852W        W80332   2.352  27.528   2.890
14853W        W80333   5.920  34.496   1.336
14854W        W80334  10.347   7.677  10.587
14855W        W80335  44.926  29.107   4.311
14856W        W80336  22.151   3.432   0.957
14857W        W80337  20.228  36.484  11.048
14858W        W80338  20.577  19.735   4.693
14859W        W80339  43.844  44.990   2.693
14860W        W80340  22.700  18.050   1.746
14861W        W80341  13.754  15.119  14.932
14862W        W80342  27.181  24.115   4.667
14863W        W80343   5.700  41.306  10.931
14864W        W80344   8.806   8.344  12.496
14865W        W80345   8.706  29.578   4.339
14866W        W80346  40.053  43.415  12.962
14867W        W80347  31.050  28.083  13.376
14868W        W80348  38.887  28.620   3.337
14869W        W80349  44.851  12.821   1.711
14870W        W80350  25.638  17.154   4.797
14871W        W80351  19.198   4.908   3.862
14872W        W80352  18.275   2.315  11.514
14873W        W80353  16.649   5.767   4.282
14874W        W80354  35.852  38.054  14.316
14875W        W80355   1.460  39.447  11.555
14876W        W80356  28.051  38.465   3.374
14877W        W80357  18.702  41.362   0.318
14878W        W80358  43.366  25.701  11.887
14879W        W80359   6.791  26.061  11.464
14880W        W80360  15.784  32.122   4.162
14881W        W80361  35.038  32.082   0.336
14882W        W80362  16.649  39.042  14.335
14883W        W80363  40.502  33.982   1.712
14884W        W80364   0.927   4.417   2.664
14885W        W80365  39.917   3.710   2.378
14886W        W80366   4.721  15.693   1.448
14887W        W80367  21.566  36.564   1.904
14888W        W80368  43.447  28.455   0.932
14889W        W80369  28.118  17.760  12.058
14890W        W80370  38.431  25.078   0.347
14891W        W80371  11.838  15.622   3.737
14892W        W80372  41.348  34.485  11.455
14893W        W80373   6.840  29.093  14.467
14894W        W80374  37.567  43.823  10.413
14895W        W80375   8.227   8.746   3.645
14896W        W80376  23.736  19.079  14.861
14897W        W80377  14.195  24.497  11.084
14898W        W80378  41.991  44.346   0.817
14899W        W80379  11.179  17.306   1.850
14900W        W80380  30.560  33.090   4.710
14901W        W80381  31.527  19.071   4.305
14902W        W80382  26.574  18.108  14.434
14903W        W80383  17.605   5.851   4.619
14904W        W80384  31.434   1.325  14.794
14905W        W80385  36.394   9.834   0.913
14906W        W80386  18.278  20.087  12.562
14907W        W80387  34.035  25.205  14.442
14908W        W80388  14.774  42.455  12.836
14909W        W80389   2.274  23.098  11.940
14910W        W80390  15.746  15.319  11.093
14911W        W80391   9.380  21.611   0.476
14912W        W80392  40.907  38.892  14.935
14913W        W80393  17.702   8.214   0.318
14914W        W80394  40.957  23.625   4.724
14915W        W80395  40.878  10.733  14.435
14916W        W80396   1.263  31.959  13.443
14917W        W80397  33.501  32.971  10.430
14918W        W80398  31.011  32.059   1.697
14919W        W80399  41.369   9.258   3.303
14920W        W80400  34.925   9.208   4.791
14921W        W80401  12.255  40.975  13.968
14922W        W80402  35.963  16.765  12.500
14923W        W80403  38.341  21.757   3.674
14924W        W80404  33.404   1.365  12.079
14925W        W80405  40.305  33.102   3.729
14926W        W80406   6.908  22.227   0.310
14927W        W80407  35.078  42.480  11.015
14928W        W80408  28.089  34.099   2.709
14929W        W80409  16.722  17.640   3.219
14930W        W80410  16.642  30.488   4.273
14931W        W80411   4.401  30.973   1.352
14932W        W80412  15.611  31.567   3.336
14933W        W80413  32.553  19.109  10.545
14934W        W80414   2.372  14.247  14.938
14935W        W80415  37.437  39.968   4.278
14936W        W80416  30.029   1.392  13.846
14937W        W80417  30.160  38.979  10.956
14938W        W80418   7.684   0.396   4.283
14939W        W80419  42.444   8.296   4.285
14940W        W80420  21.662  11.714  11.072
14941W        W80421   6.740   4.327   2.286
14942W        W80422  33.594   1.310   4.236
14943W        W80423   1.478   3.264  13.548
14944W        W80424  44.999   8.229  14.990
14945W        W80425  31.485   9.384   4.331
14946W        W80426  34.114  26.605   1.897
14947W        W80427   5.779  15.269  12.405
14948W        W80428   2.866  28.000   3.812
14949W        W80429  22.997  31.901  12.859
14950W        W80430   8.181   1.759   1.796
14951W        W80431  30.103  16.764   0.942
14952W        W80432  21.119  11.750   4.712
14953W        W80433  35.383   9.845   0.438
14954W        W80434   9.365   6.189  10.540
14955W        W80435   7.818  20.765   3.738
14956W        W80436  27.600  39.320  14.325
14957W        W80437  39.315  18.072  12.546
14958W        W80438  24.514  44.798  13.000
14959W        W80439  43.506  25.166   3.721
14960W        W80440   3.233  35.927  13.989
14961W        W80441  40.433  18.153   4.343
14962W        W80442  40.491  44.416  12.878
14963W        W80443   6.701  12.140   3.386
14964W        W80444  22.224  15.326   0.322
14965W        W80445  34.576  26.507   4.723
14966W        W80446   8.208  24.525   1.230
14967W        W80447   2.930  34.474  14.378
14968W        W80448  13.290  24.504  11.421
14969W        W80449  16.135  29.523   3.774
14970W        W80450   3.948  30.530  11.072
14971W        W80451  35.385  44.839  11.535
14972W        W80452  37.467  18.286  10.519
14973W        W80453  12.648  11.639   2.260
14974W        W80454  27.545  23.572  13.516
14975W        W80455   3.714  22.041   1.767
14976W        W80456  30.458  13.622   2.379
14977W        W80457   6.210  43.446  12.974
14978W        W80458  13.661  40.980   0.857
14979W        W80459  35.584  12.177   2.820
14980W        W80460  30.943  38.448  12.511
14981W        W80461  41.888  25.707   1.919
14982W        W80462  39.391  44.337  11.095
14983W        W80463  24.076  42.521  11.891
14984W        W80464  11.304  38.501  11.439
14985W        W80465  11.141  10.211   1.864
14986W        W80466  32.633  39.321  12.498
14987W        W80467  43.011  15.097   1.231
14988W        W80468  26.682  41.956  10.993
14989W        W80469  37.344  19.660   2.843
14990W        W80470  26.054  23.237  14.412
14991W        W80471  38.325   6.754   4.643
14992W        W80472  44.319  23.573   3.178
14993W        W80473  23.160  29.572   3.676
14994W        W80474  26.101   7.207  12.377
14995W        W80475  36.071  29.044  10.425
14996W        W80476  34.882  28.597  14.311
14997W        W80477  21.092   6.752  10.952
14998W        W80478  31.594   9.846  12.956
14999W        W80479  30.553   3.838  14.300
15000W        W80480   6.728  13.114  11.909
15001W        W80481   7.347   2.406   1.856
15002W        W80482  41.920  42.002  11.884
15003W        W80483  41.922  41.334   2.764
15004W        W80484  26.501   7.895  12.853
15005W        W80485  23.716   9.221  12.942
15006W        W80486   6.333  15.122  13.897
15007W        W80487   9.162  19.574   1.309
15008W        W80488  32.569  10.808  14.780
15009W        W80489  29.468  13.616  10.518
15010W        W80490  22.730   5.290  13.354
15011W        W80491  31.070   7.411  14.316
15012W        W80492  32.087  11.628   5.220
15013W        W80493  36.575  20.148  12.469
15014W        W80494  25.993   0.839  10.609
15015W        W80495  37.874  20.653   2.209
15016W        W80496  25.619  31.600   0.316
15017W        W80497  18.788   2.842   1.755
15018W        W80498  27.048  20.078   0.399
15019W        W80499  19.651   5.835  11.428
15020W        W80500  12.754  24.528   0.826
15021W        W80501  44.446  43.322   4.624
15022W        W80502   8.211  26.593  12.887
15023W        W80503  40.307  40.490   2.181
15024W        W80504   0.457  22.680   4.610
15025W        W80505  29.923   6.710   4.303
15026W        W80506   1.364  19.168  13.323
15027W        W80507  44.813   8.843   0.731
15028W        W80508  44.787   8.386  13.948
15029W        W80509  23.598  20.685   1.719
15030W        W80510  13.167  27.019  10.916
15031W        W80511   6.313  18.063   1.314
15032W        W80512  42.782   7.185  14.988
15033W        W80513  22.198  26.016   0.378
15034W        W80514  40.965   3.272   2.826
15035W        W80515  43.919   1.365  13.361
15036W        W80516  43.341  12.321   0.893
15037W        W80517   3.417  40.822   3.729
15038W        W80518  10.345  15.580   1.822
15039W        W80519   8.201  24.137  10.509
15040W        W80520   1.394  42.960   0.920
15041W        W80521  16.749  25.205   2.207
15042W        W80522  21.720  23.193   3.760
15043W        W80523  23.125   4.274  11.027
15044W        W80524  39.822  15.657  11.897
15045W        W80525  14.703  29.635  12.972
15046W        W80526  28.562   8.405  14.768
15047W        W80527  11.831  39.868   2.801
15048W        W80528   7.744  30.017  12.397
15049W        W80529  37.996  15.288  13.534
15050W        W80530   2.776  42.877   2.227
15051W        W80531  20.544   8.269  14.315
15052W        W80532  27.629  21.607  12.936
15053W        W80533  35.532  24.184  11.097
15054W        W80534   3.461  22.669   5.175
15055W        W80535  26.679  24.554  12.453
15056W        W80536  25.080   8.375  14.901
15057W        W80537   0.878  35.928   4.837
15058W        W80538  29.537  15.652   5.143
15059W        W80539  43.901  13.696   2.201
15060W        W80540  30.946  18.618  10.515
15061W        W80541  31.478  13.800   2.755
15062W        W80542   5.750  26.588   0.955
15063W        W80543  14.192  24.093   5.212
15064W        W80544  14.171  20.591   2.757
15065W        W80545  38.459  18.787   0.964
15066W        W80546   2.311  41.487   1.218
15067W        W80547   9.208  12.190   3.335
15068W        W80548  28.944  22.140  13.048
15069W        W80549  36.050  32.550  13.448
15070W        W80550  10.206  29.569   2.363
15071W        W80551   0.428  20.028   3.741
15072W        W80552  37.417  15.578   0.847
15073W        W80553  31.106  24.976   4.823
15074W        W80554  15.696  41.532   2.412
15075W        W80555  41.792  30.024   1.852
15076W        W80556  24.989  39.047   1.718
15077W        W80557  34.410   0.832   2.353
15078W        W80558  34.081  23.182  14.336
15079W        W80559  13.209   6.867   0.387
15080W        W80560  36.487  15.734  13.791
15081W        W80561  37.034  44.484   0.810
15082W        W80562  31.489  30.092  14.782
15083W        W80563  19.220   5.918   2.798
15084W        W80564  30.491   5.256   2.412
15085W        W80565  41.301   7.790  11.463
15086W        W80566   3.402  19.712   1.834
15087W        W80567  40.446  20.689  10.584
15088W        W80568  26.460  13.110   3.365
15089W        W80569   4.748   7.181   4.262
15090W        W80570  32.602  44.006  10.476
15091W        W80571  43.345  36.417   1.713
15092W        W80572  29.621  20.704   3.378
15093W        W80573  38.482  31.926  10.595
15094W        W80574  36.070   0.291   4.124
15095W        W80575  36.547  41.373   4.637
15096W        W80576  14.222  29.540   0.455
15097W        W80577  21.515  43.846   3.217
15098W        W80578  42.298   6.301  13.975
15099W        W80579  44.824  20.199   0.307
15100W        W80580   9.707  42.479   1.294
15101W        W80581  15.684  31.948  11.929
15102W        W80582   3.833  20.161  14.386
15103W        W80583  26.667  10.284  11.868
15104W        W80584  39.989  16.656  12.061
15105W        W80585  29.095  24.108  14.447
15106W        W80586   9.247  20.207  10.531
15107W        W80587  14.242  16.268  11.536
15108W        W80588  42.775  28.165  12.890
15109W        W80589  31.527  25.547   0.892
15110W        W80590  26.476  13.220  10.623
15111W        W80591   0.369  33.011   1.313
15112W        W80592  26.561   0.914  13.985
15113W        W80593  22.062  15.715  12.039
15114W        W80594   4.791  19.164   0.328
15115W        W80595  11.296  43.766  13.819
15116W        W80596  11.742  37.351  10.133
15117W        W80597  26.952  17.607   3.858
15118W        W80598  38.454   3.881  14.770
15119W        W80599  10.188  19.051  10.971
15120W        W80600   5.771   1.827   1.252
15121W        W80601  19.169  34.097   4.611
15122W        W80602  29.927  42.407   2.180
15123W        W80603  33.517  23.677   4.837
15124W        W80604  17.095   2.428  13.015
15125W        W80605  30.043  19.208  12.528
15126W        W80606  14.330  32.393  13.426
15127W        W80607  11.671  37.832   2.208
15128W        W80608  40.962  18.681   3.212
15129W        W80609  28.987  31.601  11.550
15130W        W80610  42.510  21.534   0.847
15131W        W80611  27.567  12.309  10.524
15132W        W80612  27.060  32.560   3.817
15133W        W80613  36.487  27.644  11.610
15134W        W80614  39.492  24.077   4.753
15135W        W80615  10.362   6.392   2.219
15136W        W80616  13.278  18.639  14.827
15137W        W80617  21.244  33.622  14.317
15138W        W80618  44.792  42.513   0.884
15139W        W80619  17.100  25.558   4.269
15140W        W80620  16.175  10.187  12.877
15141W        W80621  14.258  37.047  12.352
15142W        W80622  37.411   7.720  10.603
15143W        W80623  24.108  32.978  14.445
15144W        W80624  18.112  44.807  12.935
15145W        W80625  42.888  44.418  13.365
15146W        W80626  27.448  28.938   3.700
15147W        W80627   0.339   6.392   2.696
15148W        W80628   1.348  30.492   4.650
15149W        W80629  20.714   7.801  12.562
15150W        W80630  18.099  11.371  10.896
15151W        W80631  10.211  40.379   4.752
15152W        W80632  34.031  27.577  14.299
15153W        W80633   4.798  14.176  14.343
15154W        W80634  19.272  21.079   0.807
15155W        W80635  22.525   4.851  10.435
15156W        W80636   3.736   7.711   4.292
15157W        W80637  44.371  19.591   2.300
15158W        W80638  20.070  39.355  11.434
15159W        W80639  38.845  25.638  12.073
15160W        W80640   1.870  31.480  13.500
15161W        W80641  31.419  33.556   1.750
15162W        W80642  41.894  43.287  10.547
15163W        W80643   7.854  29.029   4.174
15164W        W80644  32.945  30.492  14.001
15165W        W80645  29.066   6.825   0.381
15166W        W80646  35.947  32.593  14.491
15167W        W80647   9.360  27.660  12.960
15168W        W80648  20.137   1.454   0.430
15169W        W80649  14.664  27.674  11.577
15170W        W80650  43.410  40.029  12.065
15171W        W80651  23.994  36.087  12.859
15172W        W80652  40.524  13.129  13.801
15173W        W80653  41.538  34.008  13.960
15174W        W80654  12.315  34.959   1.870
15175W        W80655  26.533  41.994   5.157
15176W        W80656  18.759  11.157   4.811
15177W        W80657   2.831  26.616   1.783
15178W        W80658  10.820  22.713  12.886
15179W        W80659   1.408  23.529   3.170
15180W        W80660  28.589   5.398   4.187
15181W        W80661  12.178  16.186   2.350
15182W        W80662  23.614   1.859  13.049
15183W        W80663   2.317   5.320   0.733
15184W        W80664  11.844  11.340   1.351
15185W        W80665  10.285  24.183   1.328
15186W        W80666  25.700  44.810  12.836
15187W        W80667  16.258  36.861   3.821
15188W        W80668  14.200  22.068  10.561
15189W        W80669  27.501   3.900   4.653
15190W        W80670   6.762  42.893   0.303
15191W        W80671  27.020  12.692  12.347
15192W        W80672  29.006  19.042  10.404
15193W        W80673  42.826  16.288  14.920
15194W        W80674  21.173  29.952  12.536
15195W        W80675  23.133   7.855   0.817
15196W        W80676   5.899   5.296   3.703
15197W        W80677  22.557  13.342   3.206
15198W        W80678  33.569  43.399  14.386
15199W        W80679   8.197   4.388  12.564
15200W        W80680  29.971  44.398   0.368
15201W        W80681  33.617  33.879   2.789
15202W        W80682   8.271  13.811   1.436
15203W        W80683  23.532   4.372  11.110
15204W        W80684   6.695  10.234   4.300
15205W        W80685  11.626  23.987  12.384
15206W        W80686  29.667  40.816  12.509
15207W        W80687  43.430  20.747  14.391
15208W        W80688  20.183  20.639   2.840
15209W        W80689  22.637   0.848  12.356
15210W        W80690  14.291  29.460  14.319
15211W        W80691   6.744  25.564   4.222
15212W        W80692  24.046  37.850  14.884
15213W        W80693  21.255  12.141  13.892
15214W        W80694  25.698  28.449  12.865
15215W        W80695  25.642  22.743  10.978
15216W        W80696  10.180  15.108   2.394
15217W        W80697  41.379  44.270  10.601
15218W        W80698  34.082   6.846  12.901
15219W        W80699  20.062  21.721  13.057
15220W        W80700   8.391   0.364  13.980
15221W        W80701  29.553  20.108  14.489
15222W        W80702  21.675  13.346   4.756
15223W        W80703   8.375   6.322  13.402
15224W        W80704   3.362   9.227  13.008
15225W        W80705   5.316  18.775   4.671
15226W        W80706  27.450  15.595   0.395
15227W        W80707  41.007  38.368   0.366
15228W        W80708  34.548  41.005  12.072
15229W        W80709  21.176  40.027  13.922
15230W        W80710   8.317  27.634   3.339
15231W        W80711  12.838  33.568   3.240
15232W        W80712   7.365  36.889   0.756
15233W        W80713  20.763  29.571  12.477
15234W        W80714   7.688  36.363  12.358
15235W        W80715   7.302   9.361   0.305
15236W        W80716  13.830  37.943  14.910
15237W        W80717  31.983  14.127  10.959
15238W        W80718  37.499  35.049  12.454
15239W        W80719  10.230  10.320   4.707
15240W        W80720  21.213  20.100  13.372
15241W        W80721  23.596  33.429   1.776
15242W        W80722  18.746  25.054   1.797
15243W        W80723  34.092   7.898   2.307
15244W        W80724  13.273  14.599   2.243
15245W        W80725   2.339  19.124   3.689
15246W        W80726  32.914  10.323  14.389
15247W        W80727  40.939  30.160  11.978
15248W        W80728  17.706  27.488  11.375
15249W        W80729  30.435  43.438  11.028
15250W        W80730  43.936   3.933   1.254
15251W        W80731  37.451  11.770  14.863
15252W        W80732  18.716  41.903   2.341
15253W        W80733  43.006   2.300   4.242
15254W        W80734  27.985  18.587  11.009
15255W        W80735  19.610  34.520  11.922
15256W        W80736   2.951  14.691   1.278
15257W        W80737  15.325  29.662  13.860
15258W        W80738   5.221  39.998  14.425
15259W        W80739  44.370  18.744  14.426
15260W        W80740  26.023  27.018   1.896
15261W        W80741   3.233  41.375  13.921
15262W        W80742   2.820  15.665   3.747
15263W        W80743  40.998  20.675   0.917
15264W        W80744  35.384  38.410  14.940
15265W        W80745  41.031  11.790  10.450
15266W        W80746  12.241  28.084  13.996
15267W        W80747  27.957  39.028   1.768
15268W        W80748  31.128   2.432   0.953
15269W        W80749  33.943  34.927  12.961
15270W        W80750   7.715   8.799   4.293
15271W        W80751  35.462   3.855  11.411
15272W        W80752  37.472   5.837   3.791
15273W        W80753   0.398  16.737  12.565
15274W        W80754  23.094  22.217  13.888
15275W        W80755  27.012  26.172   4.805
15276W        W80756  29.145  27.586   0.247
15277W        W80757  25.012  14.308   3.237
15278W        W80758  13.287  20.554  13.974
15279W        W80759   3.819  23.505   0.735
15280W        W80760   2.275  32.993  13.323
15281W        W80761  31.044  32.898  13.456
15282W        W80762   7.693  41.502  14.954
15283W        W80763  10.651   7.684   0.938
15284W        W80764  38.567  19.053  14.784
15285W        W80765  27.597  20.272  11.487
15286W        W80766   3.274  33.544   3.757
15287W        W80767  16.689  24.519  10.961
15288W        W80768  32.474   4.234   3.857
15289W        W80769  30.117  12.121   3.655
15290W        W80770   0.423  31.019   3.738
15291W        W80771  25.607  25.070   0.334
15292W        W80772  12.655   3.241  13.544
15293W        W80773  40.022  36.972  11.925
15294W        W80774  44.798  22.251  10.557
15295W        W80775  17.743  20.153   0.875
15296W        W80776   4.407  24.057  14.335
15297W        W80777  13.179  32.142  14.419
15298W        W80778  38.523  24.047  12.454
15299W        W80779   9.749  12.653   2.841
15300W        W80780  21.562  11.273   1.365
15301W        W80781  10.766  34.528  13.850
15302W        W80782  38.532  19.259   3.862
15303W        W80783  13.220   2.755   0.349
15304W        W80784   3.818  39.982   2.362
15305W        W80785  41.873  24.193   0.728
15306W        W80786  23.231  41.839  12.518
15307W        W80787  31.511  35.368   2.362
15308W        W80788  18.075  16.269   0.790
15309W        W80789  16.289  32.935   2.229
15310W        W80790   2.447  41.834   4.205
15311W        W80791  39.994  24.231   0.820
15312W        W80792   6.248   1.480   1.285
15313W        W80793  40.505  30.961  13.829
15314W        W80794  21.201  22.659  13.449
15315W        W80795   9.874  31.082  10.639
15316W        W80796  40.906  14.213  12.960
15317W        W80797  11.663  23.192   0.909
15318W        W80798   3.714  30.486   1.284
15319W        W80799  41.311   6.825   1.329
15320W        W80800  19.664  17.696   2.890
15321W        W80801  10.260  29.615   1.263
15322W        W80802  31.054  28.546  13.816
15323W        W80803  27.041  26.184   1.915
15324W        W80804  12.182  23.155   1.747
15325W        W80805  40.005  42.517  12.358
15326W        W80806  27.546   5.258   1.783
15327W        W80807  44.864  44.457  13.858
15328W        W80808   3.788  13.139  13.796
15329W        W80809  42.777  33.504   3.758
15330W        W80810  37.461  29.598   2.715
15331W        W80811  25.560  27.160   1.309
15332W        W80812  37.933  18.785   4.604
15333W        W80813  23.006   5.277   4.269
15334W        W80814  38.007  38.431  11.391
15335W        W80815  39.480  12.658  12.471
15336W        W80816   9.194  28.649   4.140
15337W        W80817   2.433  11.772  13.917
15338W        W80818  40.053   8.733  12.857
15339W        W80819  12.296  27.026  10.992
15340W        W80820  27.137  27.604  14.935
15341W        W80821   3.906  27.052  13.025
15342W        W80822   3.433  44.983  11.421
15343W        W80823   3.764   7.747   2.256
15344W        W80824  31.900   5.687  10.552
15345W        W80825  33.961  15.257   0.935
15346W        W80826  33.558  29.045   3.379
15347W        W80827  38.442   0.464  10.434
15348W        W80828  16.585  20.150   0.789
15349W        W80829  12.717  41.001   4.134
15350W        W80830  19.165  19.186  11.867
15351W        W80831  14.826  30.453   0.770
15352W        W80832   2.467  30.474  10.135
15353W        W80833  41.946  18.077  14.388
15354W        W80834   2.241  29.668  14.768
15355W        W80835   4.265  22.681   1.771
15356W        W80836   7.276  28.624   2.676
15357W        W80837  23.233  10.803  12.027
15358W        W80838  42.923  20.734   3.385
15359W        W80839  13.706  42.996  11.005
15360W        W80840   8.792   3.796   1.360
15361W        W80841  24.613   1.403  11.382
15362W        W80842   1.858  22.547   1.451
15363W        W80843  23.718  43.421  10.409
15364W        W80844  17.158   8.877  12.096
15365W        W80845  14.267  27.543  13.985
15366W        W80846  27.985  40.452   0.823
15367W        W80847   3.939   3.905   2.190
15368W        W80848  25.008  28.996   3.147
15369W        W80849  13.244   2.247   3.633
15370W        W80850  28.536  44.326   2.225
15371W        W80851   0.342  14.164  14.300
15372W        W80852  42.395  16.283   0.458
15373W        W80853  35.553  38.070  10.553
15374W        W80854  42.399   9.351  11.982
15375W        W80855   4.703  15.810  12.064
15376W        W80856  18.602  22.643   4.330
15377W        W80857   6.747   5.757  13.422
15378W        W80858  17.555  13.116  11.442
15379W        W80859  39.978  36.077  13.019
15380W        W80860  14.196   3.833  11.893
15381W        W80861   2.420  42.894   1.228
15382W        W80862  28.634  24.557   1.219
15383W        W80863   2.450   4.365  13.366
15384W        W80864   8.259  15.128  11.919
15385W        W80865  26.112  41.375   2.181
15386W        W80866   7.736  16.629  11.027
15387W        W80867  24.688   5.743  14.372
15388W        W80868  27.000  42.300  14.496
15389W        W80869  28.674  39.515   1.700
15390W        W80870  30.030   8.206   4.254
15391W        W80871  27.162  21.210  12.941
15392W        W80872  20.133  34.941  11.984
15393W        W80873  14.730  13.751  14.499
15394W        W80874  29.073   3.955   1.863
15395W        W80875  36.509   8.362  13.820
15396W        W80876  34.441  39.464  13.010
15397W        W80877  31.961  44.950  12.523
15398W        W80878   7.310   2.781   3.255
15399W        W80879  19.664   3.903   0.802
15400W        W80880  25.572  11.849   1.933
15401W        W80881  40.970   6.251  12.826
15402W        W80882  10.192  18.565   3.257
15403W        W80883  42.438  15.603  12.387
15404W        W80884  14.758  28.931   9.955
15405W        W80885  33.026  39.965  10.411
15406W        W80886  10.249  24.606   0.443
15407W        W80887  32.890  33.389  13.939
15408W        W80888  15.788  18.594  11.570
15409W        W80889   0.378  22.086  14.806
15410W        W80890  40.396  42.400   4.321
15411W        W80891  25.120  31.125   3.155
15412W        W80892  10.830  15.150  14.015
15413W        W80893  34.011  32.572   2.827
15414W        W80894  28.451   4.252  10.986
15415W        W80895  35.560  31.445  13.516
15416W        W80896  32.099  10.266  14.944
15417W        W80897  31.624  28.571   3.171
15418W        W80898  20.531  35.499  14.897
15419W        W80899   5.234   2.237   2.696
15420W        W80900   2.422  11.332   3.273
15421W        W80901  38.447  24.188   3.183
15422W        W80902  22.070  42.938  12.550
15423W        W80903  15.585   5.380   3.175
15424W        W80904  32.441  16.569  13.428
15425W        W80905   3.846  35.007   1.233
15426W        W80906  30.049   4.420   4.724
15427W        W80907  19.646  34.441  10.991
15428W        W80908  34.433  12.671   4.786
15429W        W80909  21.225  16.596   1.823
15430W        W80910   3.271  11.653   3.821
15431W        W80911  21.236  36.561  11.961
15432W        W80912   9.178  31.511  11.598
15433W        W80913  33.458  12.212   2.811
15434W        W80914  10.810  43.426   2.891
15435W        W80915  43.781  12.225   2.191
15436W        W80916   0.435  12.142   3.784
15437W        W80917   2.764  31.560   2.741
15438W        W80918  11.816  29.424   2.180
15439W        W80919   1.733  12.162   2.826
15440W        W80920   9.370  36.389   4.756
15441W        W80921  20.533  22.077   1.397
15442W        W80922  37.868   5.359   1.934
15443W        W80923   3.244  37.554   4.340
15444W        W80924  32.050  40.909   1.808
15445W        W80925  32.526  12.307  14.875
15446W        W80926  37.398  31.628  12.470
15447W        W80927   0.882  21.101   4.117
15448W        W80928  37.561  30.457   4.719
15449W        W80929  15.234  44.349   5.117
15450W        W80930  26.598  29.163   9.934
15451W        W80931   6.856   2.933  11.032
15452W        W80932  31.574  20.691  10.643
15453W        W80933  10.700  27.002  13.056
15454W        W80934  28.969   5.396   1.780
15455W        W80935  41.521   2.379   2.251
15456W        W80936   5.772  15.791   1.704
15457W        W80937  14.290  13.332  14.933
15458W        W80938  22.661   6.814  13.361
15459W        W80939  34.460   5.706  12.089
15460W        W80940  17.135  40.507  14.900
15461W        W80941  24.621  19.218   2.346
15462W        W80942  22.718  32.917   4.335
15463W        W80943   3.322  25.705  11.468
15464W        W80944   3.279  42.457   3.858
15465W        W80945   1.243   9.253   4.796
15466W        W80946  20.129  14.259  13.790
15467W        W80947   1.347  41.035   3.643
15468W        W80948  12.198   6.336  10.478
15469W        W80949  17.227  11.325   2.210
15470W        W80950   0.987  29.158   0.382
15471W        W80951   1.852  24.609   2.757
15472W        W80952  14.194  27.551  14.364
15473W        W80953  44.008  21.700  11.426
15474W        W80954  37.395  26.520  12.039
15475W        W80955  42.284  11.734   3.710
15476W        W80956  24.127  44.942   0.934
15477W        W80957  37.351   9.817   3.215
15478W        W80958  39.960  13.834  10.973
15479W        W80959  23.097  20.655   1.721
15480W        W80960   0.927   2.360  13.342
15481W        W80961  15.637  35.601   0.365
15482W        W80962  37.383  41.326  13.871
15483W        W80963  31.106  38.017  12.843
15484W        W80964  22.632   8.842  11.538
15485W        W80965  13.110  18.587   2.315
15486W        W80966   6.219   1.402  14.863
15487W        W80967  26.969  36.470  14.894
15488W        W80968  10.235  10.859  13.483
15489W        W80969  26.536  25.157   3.742
15490W        W80970  32.915  16.261   3.385
15491W        W80971   8.386  30.575   0.801
15492W        W80972  10.671  27.555  12.388
15493W        W80973   9.859  26.161   4.828
15494W        W80974   0.448  38.545   2.216
15495W        W80975   8.783   2.772  13.013
15496W        W80976   4.783  18.075   3.814
15497W        W80977  18.249  20.615   3.166
15498W        W80978  24.071  23.550   2.247
15499W        W80979  35.978  10.751  11.451
15500W        W80980  26.562  22.077  10.485
15501W        W80981  43.466  10.740  14.028
15502W        W80982  13.300   4.784   2.362
15503W        W80983  23.109  16.285   3.661
15504W        W80984  18.128  34.572  11.531
15505W        W80985  28.487  34.952  12.947
15506W        W80986  43.999  44.814   0.442
15507W        W80987  31.145  17.617  11.108
15508W        W80988  40.878   4.788   3.230
15509W        W80989   5.841  37.478  14.405
15510W        W80990  37.344  40.478   1.925
15511W        W80991  31.644  28.949  12.033
15512W        W80992  11.193  44.440  13.916
15513W        W80993  39.441  34.055   3.198
15514W        W80994  25.119  30.159   2.687
15515W        W80995   0.374  10.365  11.573
15516W        W80996  20.550   7.800   2.751
15517W        W80997  40.927   8.681   4.247
15518W        W80998  42.516  33.952  13.527
15519W        W80999  29.454  35.853   0.351
15520W        W81000  19.253  16.129   3.677
15521W        W81001   8.888   7.733   2.286
15522W        W81002  32.582   1.353   0.440
15523W        W81003  22.584  34.430  10.547
15524W        W81004  11.134  14.319   2.678
15525W        W81005   0.892  13.315  10.960
15526W        W81006  40.007  21.530  13.941
15527W        W81007  40.548  31.593   3.797
15528W        W81008  29.965  24.693  13.353
15529W        W81009   2.721  36.895  14.421
15530W        W81010  12.705  18.076  11.936
15531W        W81011  16.598  13.146  12.907
15532W        W81012  24.500   3.289   3.651
15533W        W81013  41.898  38.392   2.266
15534W        W81014  31.504  13.200  12.520
15535W        W81015  40.455  40.304   4.330
15536W        W81016  29.508  38.909   1.920
15537W        W81017  29.155  10.227   2.209
15538W        W81018  17.199  22.603   3.755
15539W        W81019  30.637  22.529   1.799
15540W        W81020  29.949  43.447  11.449
15541W        W81021  33.516  11.134   3.787
15542W        W81022  13.176  10.767  13.988
15543W        W81023  36.061  18.108  10.944
15544W        W81024  14.296  41.998   4.833
15545W        W81025  13.316  44.355   1.341
15546W        W81026   1.379   3.821  12.558
15547W        W81027  14.331   4.733   2.833
15548W        W81028  44.808  34.094   0.412
15549W        W81029  38.419   1.258  11.381
15550W        W81030   4.708  22.112   2.716
15551W        W81031  31.501  17.284   1.783
15552W        W81032  41.974   4.876  14.353
15553W        W81033  27.481  35.862   2.709
15554W        W81034   1.837  12.210   3.367
15555W        W81035  30.928   9.225  13.391
15556W        W81036  33.529  36.432   2.852
15557W        W81037  39.875  28.957   4.810
15558W        W81038  37.848  20.547  13.923
15559W        W81039  12.274   4.409   0.853
15560W        W81040  36.906  40.961   1.417
15561W        W81041  27.649   4.714  12.010
15562W        W81042  44.326  13.707  10.985
15563W        W81043  36.507  13.233   0.891
15564W        W81044  20.542   4.218  13.954
15565W        W81045  19.075  26.025   1.222
15566W        W81046  26.115  40.515  14.885
15567W        W81047  41.407  36.879   3.635
15568W        W81048  22.035  11.716   1.794
15569W        W81049  21.178  41.442   1.292
15570W        W81050  37.482  41.823  10.904
15571W        W81051   4.860  38.483  12.999
15572W        W81052  43.876  31.557   0.925
15573W        W81053   9.233  25.124  10.078
15574W        W81054  26.001  11.671  13.480
15575W        W81055  41.902  13.107  10.439
15576W        W81056   7.711  37.932   1.264
15577W        W81057  21.024   7.754  14.447
15578W        W81058  33.585   0.935  12.053
15579W        W81059  41.495  25.563   3.304
15580W        W81060  34.404  11.641  12.860
15581W        W81061  29.934  36.959   1.312
15582W        W81062  16.111   9.819  11.076
15583W        W81063  25.211  27.565   2.687
15584W        W81064  36.350   4.295   1.898
15585W        W81065   1.970  43.309   0.896
15586W        W81066  24.016  33.088   1.233
15587W        W81067   8.263   9.391  14.391
15588W        W81068  25.645  18.726   0.452
15589W        W81069   1.383  38.363  12.434
15590W        W81070  15.264  20.572   3.352
15591W        W81071   5.270  17.727   1.911
15592W        W81072  21.750  16.220   3.171
15593W        W81073  17.761  19.065   0.863
15594W        W81074  18.053   1.478  10.473
15595W        W81075  32.635  34.528   4.246
15596W        W81076  24.117  39.394   1.289
15597W        W81077  36.356  20.184   1.307
15598W        W81078  39.881  20.735  13.914
15599W        W81079  19.247  24.034   3.689
15600W        W81080  44.362  28.680  14.341
15601W        W81081  25.122   6.187   1.793
15602W        W81082  22.608  37.517  12.854
15603W        W81083  24.052   7.234   2.323
15604W        W81084  22.675  29.528   5.222
15605W        W81085  32.942  26.603  11.444
15606W        W81086  42.892  28.455  14.788
15607W        W81087  29.174   3.730   3.275
15608W        W81088   2.325  38.326  11.464
15609W        W81089  14.159  44.938   0.409
15610W        W81090  25.197  44.809   0.895
15611W        W81091  11.744  25.714   2.307
15612W        W81092  32.050  10.260  14.003
15613W        W81093  13.606   7.291  11.437
15614W        W81094  12.798  40.972  12.373
15615W        W81095  16.094  24.011   3.325
15616W        W81096  36.071  25.509   1.883
15617W        W81097  10.185  38.833  10.518
15618W        W81098   0.857  41.523   3.266
15619W        W81099  17.556  35.877   3.199
15620W        W81100  34.014  24.654   0.380
15621W        W81101  11.143  19.540  13.316
15622W        W81102  17.674   6.726   2.794
15623W        W81103  16.178   8.284  11.494
15624W        W81104  38.462  27.479  11.474
15625W        W81105  11.348  26.595   2.264
15626W        W81106  19.601  17.608   2.381
15627W        W81107  14.744  23.620   0.416
15628W        W81108  36.394  40.470   0.481
15629W        W81109  39.478  34.470   1.756
15630W        W81110  26.059  37.542  12.556
15631W        W81111  42.809  11.700  14.874
15632W        W81112   0.470  23.039   0.829
15633W        W81113  23.129  29.521   0.346
15634W        W81114   1.817  11.351   0.460
15635W        W81115  34.488  17.147  14.476
15636W        W81116  19.259  29.980  10.430
15637W        W81117  42.775  19.603   2.815
15638W        W81118  28.118   2.900   3.373
15639W        W81119   2.906  29.006   4.284
15640W        W81120  34.097   1.755  10.563
15641W        W81121  35.105  14.744  13.527
15642W        W81122  17.747  25.115  13.972
15643W        W81123   1.435   7.773  13.395
15644W        W81124   1.280  28.539   4.719
15645W        W81125  36.898  24.120  12.017
15646W        W81126  27.521  34.994   4.705
15647W        W81127   8.313  20.048   1.436
15648W        W81128  13.172   5.742  12.879
15649W        W81129  24.607  44.342   0.374
15650W        W81130  14.790   3.265   4.634
15651W        W81131  11.842  17.148  14.789
15652W        W81132  10.364  29.967   2.285
15653W        W81133  29.020   0.304   3.671
15654W        W81134  31.072  29.591   3.262
15655W        W81135  16.276  17.787  13.499
15656W        W81136  30.057   4.406  11.533
15657W        W81137  14.820  33.500  13.385
15658W        W81138  14.814  12.730   9.523
15659W        W81139   4.429  15.812  10.424
15660W        W81140  24.101  38.562  14.426
15661W        W81141   0.809  11.688   2.340
15662W        W81142  39.430  35.366  12.484
15663W        W81143  18.582   5.268  11.903
15664W        W81144   3.248  23.145  14.032
15665W        W81145  17.067  40.939  14.299
15666W        W81146  24.091  16.805   3.267
15667W        W81147   5.711  40.497   0.908
15668W        W81148  43.970   7.254   2.805
15669W        W81149  41.459   0.802  11.552
15670W        W81150  11.291  32.552   3.153
15671W        W81151  12.786   8.227  10.503
15672W        W81152  28.540  34.534  14.792
15673W        W81153   6.218  36.372  13.412
15674W        W81154  38.494  11.206  11.047
15675W        W81155  21.135  21.736   2.679
15676W        W81156  36.849  21.256  12.580
15677W        W81157  21.678  33.921  10.422
15678W        W81158  24.974  24.594  13.408
15679W        W81159  12.170  23.494  11.014
15680W        W81160  31.963  38.354  14.875
15681W        W81161  37.458  19.538  13.394
15682W        W81162   3.719   7.288   0.807
15683W        W81163  20.591   5.331  12.984
15684W        W81164  31.984  22.583  13.425
15685W        W81165   1.897  11.838   1.921
15686W        W81166   0.461  25.157   4.235
15687W        W81167   8.330  36.003  12.998
15688W        W81168  21.557  18.257  11.480
15689W        W81169   2.760  15.131   2.206
15690W        W81170   4.840  27.003   4.740
15691W        W81171  13.140   2.331  11.392
15692W        W81172  37.900  17.682   2.874
15693W        W81173   0.467  10.873   2.827
15694W        W81174  42.484  16.664  11.093
15695W        W81175  39.353  37.881   1.849
15696W        W81176   7.243   9.295  12.356
15697W        W81177  26.571  28.619   2.209
15698W        W81178   1.304  15.697  13.419
15699W        W81179  25.184   1.909   2.197
15700W        W81180  16.108  37.985  14.323
15701W        W81181  11.210   3.814  13.911
15702W        W81182   8.220  19.077  12.851
15703W        W81183   4.745  37.012  12.393
15704W        W81184  39.505   8.696  10.094
15705W        W81185  24.136   3.408  14.815
15706W        W81186   9.310  42.377   0.799
15707W        W81187  38.936   0.841   3.176
15708W        W81188  11.651  20.038   3.800
15709W        W81189  11.200  14.109  14.346
15710W        W81190  26.078   4.705  14.996
15711W        W81191  33.430  32.084  13.334
15712W        W81192  15.633  18.266  12.885
15713W        W81193   7.200  17.250   3.280
15714W        W81194   2.746  21.569  11.419
15715W        W81195  25.690   3.925  10.926
15716W        W81196   9.252  17.729  11.968
15717W        W81197  30.415  27.070  13.380
15718W        W81198  38.545   6.321   0.845
15719W        W81199  17.797  41.510   3.223
15720W        W81200   7.177  23.708  13.418
15721W        W81201  26.083  32.077   4.803
15722W        W81202  22.712  27.960  14.896
15723W        W81203   4.304  33.446   1.243
15724W        W81204  32.503  14.702  14.299
15725W        W81205  35.461  16.704   2.371
15726W        W81206  11.802  37.069  12.057
15727W        W81207   7.763  31.118   1.263
15728W        W81208  27.468  16.580   4.242
15729W        W81209   5.770  24.609   1.243
15730W        W81210   1.940  23.710  13.363
15731W        W81211  14.108  32.926  11.112
15732W        W81212  13.781  11.144   1.817
15733W        W81213  25.664  26.522   1.695
15734W        W81214  38.070  15.257   3.348
15735W        W81215   3.871  22.186  12.081
15736W        W81216  31.939   8.790  10.975
15737W        W81217   8.776   7.881  10.950
15738W        W81218  29.613  28.498   3.788
15739W        W81219  11.195  12.623  12.907
15740W        W81220  15.325  11.206  10.098
15741W        W81221  42.424  20.642  10.621
15742W        W81222  14.818   8.355  12.856
15743W        W81223  19.233  15.108   1.300
15744W        W81224  14.296  15.609   4.212
15745W        W81225  24.003   9.253   4.655
15746W        W81226  27.689  34.978  13.501
15747W        W81227   5.931  38.386  13.807
15748W        W81228  11.817   3.858  14.371
15749W        W81229  40.500  41.304   1.929
15750W        W81230  40.857  12.228   2.234
15751W        W81231  20.698  32.004   2.251
15752W        W81232  20.750  33.041   3.869
15753W        W81233   4.214  16.699   2.872
15754W        W81234  21.145  43.974  13.542
15755W        W81235  29.454  18.145  13.490
15756W        W81236  20.223  26.463   2.767
15757W        W81237  19.236   3.888   1.700
15758W        W81238  31.071  41.352   5.619
15759W        W81239   1.741  37.912   1.717
15760W        W81240  36.027  18.664  12.004
15761W        W81241  42.311  44.815   1.834
15762W        W81242  30.092   3.853  12.399
15763W        W81243  32.406   9.812  14.829
15764W        W81244  17.306  12.360  14.436
15765W        W81245  13.611  30.971   1.402
15766W        W81246  20.568  18.787  14.425
15767W        W81247  13.295  19.046   3.310
15768W        W81248  17.606   7.796  11.377
15769W        W81249  29.438  42.476   3.311
15770W        W81250   0.953  39.479   1.429
15771W        W81251  29.562  15.235  12.469
15772W        W81252  12.688  21.018  10.552
15773W        W81253  17.190  42.888  10.441
15774W        W81254  43.018  32.001   4.628
15775W        W81255  42.025   1.464   1.402
15776W        W81256  26.564   5.279  11.608
15777W        W81257  16.131  42.858  13.865
15778W        W81258   4.804   0.923   1.324
15779W        W81259  14.648  18.767  10.511
15780W        W81260  33.598  20.666   3.362
15781W        W81261  20.148   8.196  14.295
15782W        W81262  26.602  18.049   4.676
15783W        W81263  11.667   6.748  11.524
15784W        W81264  26.976  21.142  13.309
15785W        W81265  19.091   1.337   0.243
15786W        W81266  44.756   7.211  14.789
15787W        W81267   3.932  22.156  14.848
15788W        W81268  35.908  40.423   0.431
15789W        W81269  20.245  25.121  14.498
15790W        W81270  27.034  18.274   3.373
15791W        W81271   6.897  41.897   3.194
15792W        W81272  20.685  38.472   4.132
15793W        W81273  33.573  33.554   4.162
15794W        W81274  31.066  29.642   5.155
15795W        W81275   9.794  21.514  12.011
15796W        W81276  36.386  32.075   5.210
15797W        W81277  12.801  18.675  13.806
15798W        W81278  41.791  32.406  12.959
15799W        W81279  41.027  42.928  11.966
15800W        W81280   7.416   1.977  13.478
15801W        W81281   7.213  19.096  13.350
15802W        W81282  21.054  33.415   0.740
15803W        W81283  27.153  32.086   2.400
15804W        W81284   3.761  11.691  10.619
15805W        W81285  27.684  41.806  14.783
15806W        W81286  38.996  21.541   4.294
15807W        W81287  23.150  31.116  12.020
15808W        W81288   6.899  38.920  12.989
15809W        W81289  16.170   8.160   3.345
15810W        W81290  17.741  15.244   2.729
15811W        W81291  29.596   1.411   1.851
15812W        W81292  32.922   3.220  13.857
15813W        W81293  33.502  12.694   0.728
15814W        W81294  43.286  40.000   2.270
15815W        W81295   1.444   2.293   1.825
15816W        W81296   1.292  41.825   4.695
15817W        W81297  19.060  31.448   2.845
15818W        W81298  25.664   4.750  12.026
15819W        W81299  31.082  23.507  13.963
15820W        W81300  40.926   9.853   1.254
15821W        W81301  19.581  18.211  10.007
15822W        W81302  38.003  32.042  10.595
15823W        W81303   1.476  37.568   0.364
15824W        W81304  17.694  44.814   0.964
15825W        W81305  16.780  20.729  14.988
15826W        W81306   6.700  44.301  10.114
15827W        W81307  19.716   2.834   3.239
15828W        W81308   3.243  14.654   4.162
15829W        W81309   5.806  40.407  13.040
15830W        W81310  13.609  32.915   1.801
15831W        W81311  26.514  29.597   0.310
15832W        W81312   5.314  28.970   3.693
15833W        W81313  43.920  23.696  12.574
15834W        W81314  17.612  16.691  12.410
15835W        W81315  27.636  12.645   0.924
15836W        W81316  31.419   2.841   3.708
15837W        W81317  15.201  34.587  14.890
15838W        W81318  28.041  36.051  10.575
15839W        W81319   7.211   1.839   1.843
15840W        W81320  21.652  39.001   4.223
15841W        W81321   4.349   4.944  12.560
15842W        W81322  39.340  40.434   2.890
15843W        W81323  43.271  23.071  12.917
15844W        W81324   9.794  12.759  10.521
15845W        W81325   7.262  29.973  14.276
15846W        W81326  33.462  40.411   3.837
15847W        W81327  19.281  23.588  10.901
15848W        W81328  20.132  37.569   5.103
15849W        W81329   4.441  44.838  11.447
15850W        W81330   5.740  21.533  12.997
15851W        W81331   2.750  19.106   4.307
15852W        W81332  24.150  18.615  12.562
15853W        W81333  17.132   7.380   0.787
15854W        W81334   7.879   5.303  12.896
15855W        W81335  28.006  31.415   4.618
15856W        W81336  29.479  35.386  13.362
15857W        W81337  22.216  28.497  13.507
15858W        W81338   1.777  42.349   0.307
15859W        W81339  22.636  11.370   4.320
15860W        W81340  19.708  43.977   4.663
15861W        W81341  39.006   2.294   3.326
15862W        W81342  26.602  22.723   4.314
15863W        W81343  26.529   7.805   0.886
15864W        W81344  29.537  38.460   1.256
15865W        W81345  35.424  31.017   3.213
15866W        W81346  30.588  30.074   1.705
15867W        W81347  36.349  34.491   3.833
15868W        W81348  17.086  40.335  10.563
15869W        W81349  22.995   4.442  14.451
15870W        W81350   7.188  44.884   2.312
15871W        W81351  12.186  23.712   4.135
15872W        W81352  11.733  25.129   2.417
15873W        W81353   3.951  31.955  11.034
15874W        W81354   7.688  17.212  13.997
15875W        W81355   5.928   2.840  12.352
15876W        W81356  41.501  37.041   0.409
15877W        W81357  44.362  43.414  14.927
15878W        W81358  43.481  26.502   2.307
15879W        W81359  14.239  12.347   0.388
15880W        W81360   5.337  25.654  13.949
15881W        W81361  26.067  12.617   2.788
15882W        W81362  20.146  16.232  10.610
15883W        W81363  26.582  25.150   1.338
15884W        W81364  32.474  41.915   3.277
15885W        W81365  23.550  10.215   1.911
15886W        W81366   6.784  31.946   1.272
15887W        W81367  38.449   3.955   2.811
15888W        W81368   2.267  15.307  13.485
15889W        W81369   2.447  28.988  10.627
15890W        W81370   2.416   6.287  11.396
15891W        W81371  20.534  25.541  11.932
15892W        W81372  16.739   8.864  12.083
15893W        W81373  32.930   2.870  12.968
15894W        W81374  14.227  35.488   2.801
15895W        W81375  21.696   9.734   2.383
15896W        W81376  13.665  22.251   0.380
15897W        W81377  14.622  26.108   2.861
15898W        W81378  15.329   9.329  13.831
15899W        W81379  39.854  44.772  12.379
15900W        W81380  16.231  36.378   3.818
15901W        W81381   2.418   8.342   2.386
15902W        W81382  35.445  17.201   1.423
15903W        W81383   3.217  14.645   0.447
15904W        W81384  26.567   7.706  13.920
15905W        W81385  10.229   4.207  12.047
15906W        W81386  28.576  10.868  11.889
15907W        W81387  34.961  41.309   0.255
15908W        W81388  11.293  33.979   4.662
15909W        W81389  44.848  43.439  10.575
15910W        W81390  20.541  14.219   2.226
15911W        W81391  36.065  43.346  10.548
15912W        W81392  40.498  18.765  12.932
15913W        W81393  33.468   6.403  10.532
15914W        W81394   3.753  22.025   4.252
15915W        W81395  10.660   0.787  12.016
15916W        W81396  33.027  32.008   3.192
15917W        W81397  36.927   1.343  12.432
15918W        W81398  33.434  30.121  11.421
15919W        W81399  15.179   2.792  11.440
15920W        W81400   7.306  15.726  13.538
15921W        W81401  28.535  16.159   1.222
15922W        W81402  16.572  31.018   0.448
15923W        W81403  39.913  39.338   2.382
15924W        W81404  22.220  41.974  14.977
15925W        W81405  39.932  13.602  14.366
15926W        W81406  40.337  39.885  11.988
15927W        W81407  21.139   8.230   0.731
15928W        W81408  15.618  11.627  10.013
15929W        W81409  18.657  24.578  14.409
15930W        W81410  22.638  23.724  10.458
15931W        W81411  24.651  16.760  11.464
15932W        W81412  11.370  23.054   1.834
15933W        W81413  24.614  32.613   3.152
15934W        W81414  43.442  33.919  13.466
15935W        W81415   2.358  42.973  14.838
15936W        W81416  29.442  18.560   3.788
15937W        W81417  30.453   6.749  10.624
15938W        W81418  32.113  33.917   2.763
15939W        W81419  29.489  20.726  12.380
15940W        W81420  22.240  13.125   0.851
15941W        W81421   5.387  22.558   4.116
15942W        W81422  15.141   0.259   1.299
15943W        W81423  24.977  32.554   2.213
15944W        W81424   7.374  23.040  10.598
15945W        W81425  23.224   9.149   1.254
15946W        W81426  14.321  26.531  11.987
15947W        W81427  19.159  34.890   4.155
15948W        W81428  17.113  23.115  14.759
15949W        W81429  28.148  21.584   1.260
15950W        W81430  20.090  35.865   0.745
15951W        W81431  36.522  21.565   2.735
15952W        W81432  12.795  41.852   0.292
15953W        W81433  19.635  11.781  14.340
15954W        W81434  19.060  44.490  10.982
15955W        W81435   9.846  34.612   4.353
15956W        W81436  27.982  36.848  11.015
15957W        W81437  28.069   3.838  11.969
15958W        W81438   9.654  25.985   2.204
15959W        W81439  22.240  24.628  12.375
15960W        W81440  19.177  17.175  13.407
15961W        W81441  16.676  19.765  10.441
15962W        W81442  29.940  37.917   0.793
15963W        W81443  34.067  42.360   4.170
15964W        W81444  14.166   3.851  14.474
15965W        W81445  34.489  39.045  11.532
15966W        W81446  21.028  31.491   2.799
15967W        W81447  39.822  13.653   3.790
15968W        W81448  44.406  12.162  14.444
15969W        W81449  18.586  33.560   4.739
15970W        W81450  41.899   8.880   1.377
15971W        W81451  12.686   2.864  12.445
15972W        W81452  28.459  41.508   3.764
15973W        W81453  34.996  20.714   4.133
15974W        W81454  34.981  33.082  14.385
15975W        W81455  29.558  35.540   1.340
15976W        W81456  29.062  37.951   1.909
15977W        W81457  27.513  14.624   1.352
15978W        W81458   3.709  20.065   4.823
15979W        W81459  42.014  29.117  13.444
15980W        W81460  18.153  41.312   4.658
15981W        W81461  28.442  43.001   2.235
15982W        W81462  38.453  38.390  13.529
15983W        W81463  30.625  37.480   3.229
15984W        W81464  10.219  43.007   2.817
15985W        W81465  11.747  14.207   2.776
15986W        W81466  42.954   4.300   1.424
15987W        W81467  41.331  26.154  14.864
15988W        W81468  30.449   5.360   0.931
15989W        W81469  37.509  18.701   0.438
15990W        W81470  20.204  20.586   3.182
15991W        W81471   3.817  27.087  12.029
15992W        W81472   4.242  25.215  13.796
15993W        W81473   3.347   6.891  13.825
15994W        W81474  31.533  31.137   1.731
15995W        W81475  41.429  39.001  12.344
15996W        W81476   7.863  31.572   0.289
15997W        W81477  34.912  12.727   4.744
15998W        W81478  17.240  14.244  12.466
15999W        W81479   0.896   0.882  13.527
16000W        W81480  22.047   8.701  14.975
16001W        W81481  22.226  41.338   0.273
16002W        W81482  23.218   2.341   2.365
16003W        W81483  40.340  33.515   2.199
16004W        W81484  11.239   6.235  10.532
16005W        W81485  11.316  20.195  10.461
16006W        W81486  17.163  40.813   3.334
16007W        W81487  33.057   3.254  12.869
16008W        W81488  32.905  25.515   0.847
16009W        W81489  14.814  23.672  12.880
16010W        W81490  38.507  38.488   1.217
16011W        W81491  33.492  22.252   4.833
16012W        W81492   7.398  23.149  14.353
16013W        W81493  33.967  26.972   2.216
16014W        W81494  39.880  15.584  14.986
16015W        W81495  20.743  37.356  11.099
16016W        W81496  33.060  11.857  12.359
16017W        W81497  28.444  27.668   3.661
16018W        W81498  25.127  11.812  14.870
16019W        W81499  27.569   7.850  13.532
16020W        W81500  22.218  36.416  12.933
16021W        W81501  38.446  25.171  11.542
16022W        W81502  23.221  38.532   0.287
16023W        W81503  28.967  42.009  12.896
16024W        W81504  33.955  23.570   2.300
16025W        W81505  16.290   9.659   2.832
16026W        W81506  30.022  38.525  14.333
16027W        W81507  19.116  18.073  13.034
16028W        W81508   3.454  24.108   3.668
16029W        W81509  14.792  19.542   4.269
16030W        W81510   9.723   3.849  12.886
16031W        W81511  29.119  39.820   3.729
16032W        W81512  44.989   7.364  11.526
16033W        W81513  25.057  25.591   1.327
16034W        W81514  34.867   0.366   2.382
16035W        W81515  26.997  25.983   4.150
16036W        W81516  36.414   1.757   4.600
16037W        W81517  38.923  19.591   2.668
16038W        W81518  38.521  24.093   4.224
16039W        W81519  38.406  31.455  14.375
16040W        W81520  14.337   0.432  10.569
16041W        W81521  26.625   7.233   4.602
16042W        W81522  23.526  21.260   2.684
16043W        W81523   8.245  35.881   3.766
16044W        W81524  30.630  40.427   3.237
16045W        W81525  40.338  34.510  13.443
16046W        W81526  17.638  26.015   1.424
16047W        W81527   3.740   4.206   1.835
16048W        W81528  12.770  25.036   0.776
16049W        W81529  42.944   1.798  12.403
16050W        W81530  26.019  26.118   3.379
16051W        W81531  37.385   4.832  11.908
16052W        W81532  12.151  16.235  12.838
16053W        W81533  15.142  44.273  12.036
16054W        W81534  32.124  18.580   1.743
16055W        W81535  40.800  28.041   1.311
16056W        W81536  38.907  28.627   0.728
16057W        W81537  39.361   7.695  11.397
16058W        W81538   5.730  27.473   2.245
16059W        W81539  32.103  14.772   1.903
16060W        W81540  20.252  12.769  11.555
16061W        W81541  11.762  27.546   4.621
16062W        W81542  20.569  25.122   0.457
16063W        W81543   7.217  28.973  14.407
16064W        W81544   0.279   9.670  10.890
16065W        W81545  25.665  10.646  14.455
16066W        W81546  29.561  19.689   3.177
16067W        W81547  26.995  33.932   0.357
16068W        W81548  18.565  13.226  14.861
16069W        W81549  15.165   6.778   2.748
16070W        W81550  16.808  21.717  11.996
16071W        W81551  34.968   2.242  12.967
16072W        W81552  35.409   8.725   2.698
16073W        W81553  38.868  44.010  13.544
16074W        W81554   4.798  28.050  13.965
16075W        W81555  37.543  15.635   1.701
16076W        W81556  36.424  33.592  10.061
16077W        W81557  33.465  39.891   4.703
16078W        W81558  13.687  37.538   0.844
16079W        W81559   8.878  21.588   4.327
16080W        W81560  11.668  22.105  14.967
16081W        W81561  11.263   9.706  14.482
16082W        W81562   5.436  41.925   3.832
16083W        W81563  40.372   4.934  14.031
16084W        W81564   3.790  24.144  14.469
16085W        W81565  28.174   9.309  11.897
16086W        W81566  42.308  43.307  13.017
16087W        W81567  36.415  11.149  11.967
16088W        W81568  15.308   7.744   1.781
16089W        W81569  11.676  29.636   0.323
16090W        W81570  11.767   8.263   0.290
16091W        W81571   8.208  20.760   3.202
16092W        W81572  28.649  41.890  14.381
16093W        W81573  23.009  17.128   4.712
16094W        W81574  38.419  24.022   2.844
16095W        W81575  34.585   0.429   0.851
16096W        W81576  37.532   9.385  10.567
16097W        W81577  19.277  42.345   3.340
16098W        W81578  21.116   8.896  14.412
16099W        W81579  13.778  31.059  12.934
16100W        W81580  33.934  19.140   4.814
16101W        W81581  13.269  19.543  13.933
16102W        W81582  26.534  37.042   1.816
16103W        W81583  20.747  22.704  14.768
16104W        W81584  14.718  19.095   2.762
16105W        W81585  29.561  42.359  14.901
16106W        W81586  36.056   1.865   2.891
16107W        W81587  33.915  41.950   3.211
16108W        W81588   5.204   8.726  13.004
16109W        W81589  12.260  18.099   0.465
16110W        W81590  10.842  35.058  14.875
16111W        W81591   6.766  42.985   2.268
16112W        W81592  44.805   2.730   2.664
16113W        W81593   0.295   4.207  12.949
16114W        W81594  15.301  37.559  12.881
16115W        W81595  13.754   3.735  13.856
16116W        W81596  15.327  14.137   2.702
16117W        W81597  34.967  38.006  13.055
16118W        W81598  18.788   7.246   4.646
16119W        W81599  17.665   9.713  11.123
16120W        W81600   2.846  32.470  13.936
16121W        W81601  34.562  22.613  12.450
16122W        W81602  11.373   1.374   0.314
16123W        W81603   9.390  22.685  11.985
16124W        W81604  21.025  15.692   3.668
16125W        W81605  14.185  18.680  13.483
16126W        W81606  35.494  11.149   2.362
16127W        W81607  25.524  31.554  13.986
16128W        W81608  40.954  42.009   0.313
16129W        W81609  39.465  12.324  11.495
16130W        W81610  17.779  28.997   3.635
16131W        W81611  41.895   4.408  11.603
16132W        W81612  43.438  25.643   0.794
16133W        W81613  39.035  30.620   3.186
16134W        W81614  33.466  21.060   0.879
16135W        W81615  13.254  19.558  12.037
16136W        W81616  24.599  22.087  12.979
16137W        W81617  31.139  13.781   3.205
16138W        W81618  44.360  26.199   0.475
16139W        W81619  19.549   0.858   3.150
16140W        W81620  35.504   6.913   0.247
16141W        W81621  44.963  33.472   1.335
16142W        W81622   4.774  10.862  12.564
16143W        W81623   8.301  37.088   3.324
16144W        W81624  24.998   2.754   1.444
16145W        W81625  21.081  13.129   0.369
16146W        W81626  29.572  18.679  10.449
16147W        W81627  18.695  24.001  11.558
16148W        W81628  41.403  43.361  12.027
16149W        W81629  28.596  18.110  11.609
16150W        W81630  31.482  29.025  10.610
16151W        W81631   3.764  30.920  10.915
16152W        W81632   2.826  44.498  11.042
16153W        W81633   3.359  19.708   0.425
16154W        W81634  20.188  34.438   3.859
16155W        W81635   8.204  22.643   3.707
16156W        W81636   7.779  43.313   4.805
16157W        W81637  28.565  38.474   1.386
16158W        W81638  21.139   2.285  12.550
16159W        W81639  38.979  40.422   2.694
16160W        W81640   7.748  12.812   3.164
16161W        W81641  16.205  16.154  10.148
16162W        W81642  28.067  22.241  11.975
16163W        W81643  24.990  32.517   1.739
16164W        W81644  34.097  13.603  14.445
16165W        W81645  26.090  37.882   1.794
16166W        W81646  40.984  20.581   1.698
16167W        W81647  24.537   4.443   4.598
16168W        W81648  25.613  27.072  13.380
16169W        W81649  43.988   5.854   2.880
16170W        W81650  15.607  39.866   3.839
16171W        W81651   8.863  27.117  13.029
16172W        W81652  25.592  28.050   0.955
16173W        W81653  29.141  23.025   4.742
16174W        W81654  12.182  33.942   2.240
16175W        W81655  29.140   6.334  14.004
16176W        W81656  16.688   1.449   2.203
16177W        W81657  41.043   1.934  14.916
16178W        W81658  43.295   6.422   0.807
16179W        W81659  30.016  31.467  13.024
16180W        W81660  31.092   9.741   1.930
16181W        W81661   6.323  37.969  13.933
16182W        W81662  36.463   4.922   3.755
16183W        W81663   3.283  17.128  13.308
16184W        W81664  42.348   2.929   2.867
16185W        W81665  10.364  11.227   1.867
16186W        W81666  30.942  26.481   2.401
16187W        W81667   9.298  31.518  13.982
16188W        W81668   9.876  15.682   1.362
16189W        W81669   4.296  20.253  10.971
16190W        W81670  31.071  21.576   0.811
16191W        W81671  14.672  19.203  11.027
16192W        W81672  22.559  33.547   3.840
16193W        W81673  39.884  21.097   3.273
16194W        W81674  29.523  36.956   2.756
16195W        W81675   3.840   1.275  13.384
16196W        W81676  19.062  13.679   4.761
16197W        W81677   4.317  37.538   2.418
16198W        W81678  17.107  10.139  14.008
16199W        W81679   6.839  34.567  12.844
16200W        W81680  12.298   7.271  10.897
16201W        W81681  39.011  34.016  14.898
16202W        W81682  27.144   9.873   3.146
16203W        W81683  31.947  11.302  11.933
16204W        W81684  13.783   1.864  13.383
16205W        W81685  44.402  13.744  12.419
16206W        W81686  29.651   8.284  14.350
16207W        W81687  17.571   6.870  12.073
16208W        W81688   1.971  25.533  13.923
16209W        W81689  10.209  34.973  13.413
16210W        W81690   4.337  25.182  12.006
16211W        W81691  16.745  33.913   4.195
16212W        W81692  29.505  21.615   4.805
16213W        W81693  28.596  35.524  13.874
16214W        W81694  16.792  31.019  13.379
16215W        W81695  39.441  40.975   4.195
16216W        W81696  30.071   6.420  14.983
16217W        W81697  39.962  22.230  13.386
16218W        W81698  15.258  25.096  12.418
16219W        W81699   6.689  20.699   2.840
16220W        W81700  14.695  36.049  12.563
16221W        W81701  41.341   1.801   1.221
16222W        W81702  23.098  30.508   3.285
16223W        W81703  23.204   9.293   2.770
16224W        W81704  23.620  19.764   1.816
16225W        W81705  12.788  13.636  13.399
16226W        W81706  17.652  36.089   0.881
16227W        W81707   7.302  17.074   2.876
16228W        W81708  26.000  16.775  14.934
16229W        W81709   2.838  20.576   2.243
16230W        W81710  20.565  31.600  14.379
16231W        W81711  10.314  25.675   2.869
16232W        W81712  24.086   4.727  11.525
16233W        W81713   9.158  14.698  10.905
16234W        W81714  10.258  28.104  11.955
16235W        W81715  30.163   4.417   2.366
16236W        W81716   7.798  21.063   0.920
16237W        W81717   9.338  16.677   1.904
16238W        W81718  30.622  20.202   0.391
16239W        W81719  17.075  15.672  11.888
16240W        W81720   9.848   6.709  11.989
16241W        W81721  22.016   6.214  12.407
16242W        W81722  39.415  29.592  13.879
16243W        W81723  37.526  29.558   4.196
16244W        W81724  37.002  44.788   0.861
16245W        W81725  22.608  18.198  12.528
16246W        W81726  23.582  37.943   1.873
16247W        W81727  34.883  38.889  13.385
16248W        W81728   2.323  12.200   3.348
16249W        W81729   7.171  16.149  11.425
16250W        W81730  42.011  10.158  13.461
16251W        W81731  31.543  29.998   2.205
16252W        W81732  41.881  39.454   4.350
16253W        W81733   8.326  30.009   4.219
16254W        W81734  11.627  24.975   3.223
16255W        W81735  21.246  15.677  13.543
16256W        W81736  41.793  11.277  13.894
16257W        W81737  20.703  25.676   4.140
16258W        W81738   9.769  26.161  14.344
16259W        W81739  16.588  20.555   0.743
16260W        W81740  32.591  26.183  14.916
16261W        W81741   2.255  24.550  14.354
16262W        W81742  21.170  22.241  11.522
16263W        W81743  15.270  29.934  10.920
16264W        W81744  22.664  36.985  10.632
16265W        W81745   1.273  28.118  12.508
16266W        W81746  12.659  35.909   0.887
16267W        W81747  20.112  24.708   1.865
16268W        W81748  12.210   5.807   3.159
16269W        W81749  33.997   7.225   1.790
16270W        W81750  21.571  20.071  12.924
16271W        W81751  32.576  22.246   4.209
16272W        W81752   9.274   0.765  12.476
16273W        W81753  37.347  11.741   3.173
16274W        W81754  18.627  26.087  14.462
16275W        W81755  35.079  36.414  13.440
16276W        W81756  37.519   7.781  12.493
16277W        W81757  13.795   9.698  13.504
16278W        W81758  35.024  19.210  13.910
16279W        W81759  18.544  32.545  10.465
16280W        W81760  26.143  11.212  10.489
16281W        W81761  17.766  37.425   1.895
16282W        W81762  16.699  36.526  14.926
16283W        W81763  15.191  17.279   3.262
16284W        W81764  11.668  38.561  13.401
16285W        W81765  32.581  41.947   2.847
16286W        W81766  17.143   8.309  13.001
16287W        W81767  30.160  34.991  12.384
16288W        W81768   3.795   6.773  10.904
16289W        W81769   6.756  16.285  14.887
16290W        W81770  36.855  18.685  12.933
16291W        W81771   9.354  14.176  10.035
16292W        W81772   7.757  33.537  10.569
16293W        W81773  18.712  30.643   0.789
16294W        W81774  43.436  25.578  10.947
16295W        W81775  26.189  29.104   4.829
16296W        W81776   9.819  34.102   1.421
16297W        W81777  37.515  38.899   1.371
16298W        W81778  26.977  44.813  12.915
16299W        W81779  13.669  24.656   2.194
16300W        W81780  43.934  44.372   4.741
16301W        W81781  25.148  37.359  10.890
16302W        W81782  29.552   5.334  11.060
16303W        W81783  42.815  33.064   0.444
16304W        W81784  17.242  19.220  13.431
16305W        W81785  10.300  16.292   1.388
16306W        W81786  13.251  43.829   1.407
16307W        W81787  41.969  24.713   0.367
16308W        W81788  35.888  24.068   3.375
16309W        W81789  38.513  26.969  12.835
16310W        W81790   7.394  16.667   4.229
16311W        W81791  26.575  31.120   0.311
16312W        W81792   7.224  12.294   1.379
16313W        W81793  20.690  13.303   2.306
16314W        W81794   0.339  29.447  13.507
16315W        W81795  28.666  25.673   1.774
16316W        W81796   7.210   6.914   1.246
16317W        W81797   7.317  32.891  14.849
16318W        W81798  35.509  12.812  10.479
16319W        W81799   3.385   0.945   1.240
16320W        W81800  10.764  31.590   0.842
16321W        W81801   1.871  16.604  11.038
16322W        W81802  22.723   5.735  14.358
16323W        W81803  37.572  32.085  12.381
16324W        W81804  29.506   7.766  12.562
16325W        W81805   5.796  15.743   3.808
16326W        W81806  42.853  40.456   1.871
16327W        W81807   6.315  23.199  14.822
16328W        W81808   0.412  24.048   1.898
16329W        W81809  23.224   2.341  11.463
16330W        W81810  41.435  16.212  14.983
16331W        W81811   5.864  14.685   0.373
16332W        W81812  30.942  28.968   0.296
16333W        W81813  18.697   4.843  12.552
16334W        W81814  13.220  13.680  12.078
16335W        W81815  38.567  33.587  10.952
16336W        W81816  28.003  39.433   4.176
16337W        W81817  18.698  21.092   2.384
16338W        W81818  23.152   6.741   3.653
16339W        W81819   9.708  24.488   1.709
16340W        W81820  36.570  18.715   1.451
16341W        W81821   9.747  25.167  13.427
16342W        W81822  22.098  20.034   1.857
16343W        W81823  12.276  44.845  12.859
16344W        W81824  38.490  43.379   2.319
16345W        W81825  26.503  10.175  13.001
16346W        W81826   6.785  29.519  11.394
16347W        W81827  42.994   8.340   3.325
16348W        W81828   6.888  34.596  11.534
16349W        W81829   5.836  27.662  12.566
16350W        W81830  24.154  11.285   2.380
16351W        W81831  44.379  33.390   2.696
16352W        W81832  27.944  23.134   4.177
16353W        W81833  25.673   4.778   4.150
16354W        W81834  22.573   8.893   3.208
16355W        W81835  39.040  42.435   4.340
16356W        W81836  39.385  18.634  12.454
16357W        W81837   8.169  39.994  12.055
16358W        W81838  40.915  14.783   1.250
16359W        W81839  17.734   3.338  13.515
16360W        W81840  14.275   3.745  13.520
16361W        W81841  14.191   0.471  13.968
16362W        W81842  38.018  35.018   3.273
16363W        W81843  16.579   6.256  11.980
16364W        W81844   9.737  33.034  13.936
16365W        W81845  13.636  35.049   2.785
16366W        W81846   9.656  20.766   1.901
16367W        W81847   3.244  44.895  12.490
16368W        W81848  22.188  29.994  11.128
16369W        W81849  43.426   5.387   2.831
16370W        W81850  17.625  44.932   4.117
16371W        W81851  24.715   6.722   0.861
16372W        W81852  15.097  14.829  11.870
16373W        W81853  16.225  28.059  11.594
16374W        W81854  40.499  44.327   2.416
16375W        W81855   1.313  24.046  14.394
16376W        W81856  32.040  33.409  13.512
16377W        W81857  11.214  22.716   1.434
16378W        W81858   6.807  12.149  12.428
16379W        W81859  25.135  38.023  14.442
16380W        W81860  11.241  21.123  11.418
16381W        W81861  31.427   1.757   0.807
16382W        W81862  20.122  23.078   2.769
16383W        W81863  42.958  13.309   0.950
16384W        W81864  40.495   5.195   0.439
16385W        W81865  37.867  11.173  14.782
16386W        W81866  13.149  42.505  11.583
16387W        W81867  36.089  39.360   3.826
16388W        W81868  16.777  32.464   4.651
16389W        W81869  42.006  21.741  13.809
16390W        W81870  26.566   7.278   3.792
16391W        W81871  28.587  22.549  14.876
16392W        W81872  40.362  14.833  12.039
16393W        W81873   4.868  35.462   3.387
16394W        W81874  25.514  34.368  11.988
16395W        W81875  10.327  17.271  14.787
16396W        W81876  19.223  34.453   1.755
16397W        W81877  44.359   4.330  12.914
16398W        W81878  14.289   6.201   3.799
16399W        W81879   2.449  31.954  13.444
16400W        W81880  29.547  39.997  12.859
16401W        W81881   9.356   7.227   1.766
16402W        W81882  42.506  33.108   0.834
16403W        W81883  17.074  43.332   1.844
16404W        W81884  24.710  43.936  14.374
16405W        W81885   6.405  22.220   0.268
16406W        W81886  30.605   1.773  11.582
16407W        W81887   9.370  37.068   4.165
16408W        W81888  22.661  24.584  12.824
16409W        W81889  17.259   1.834  11.924
16410W        W81890  10.217  41.336   0.924
16411W        W81891  19.047  18.647  13.524
16412W        W81892   4.698   8.239  11.380
16413W        W81893  15.182   0.308  11.471
16414W        W81894  42.998  23.088  12.076
16415W        W81895  22.539  24.123  13.492
16416W        W81896  15.324  26.671   0.374
16417W        W81897  44.880  35.457   0.364
16418W        W81898  30.509  32.415   4.162
16419W        W81899  11.797  23.989   3.796
16420W        W81900  30.990  31.592   1.288
16421W        W81901   4.359   2.322   2.741
16422W        W81902  35.603  30.045  12.437
16423W        W81903  37.893  44.789   3.729
16424W        W81904  15.206   9.187   1.743
16425W        W81905  13.653  35.988  11.601
16426W        W81906  28.059  17.214   1.865
16427W        W81907  35.371  34.976   1.764
16428W        W81908  23.657  34.535   2.404
16429W        W81909  14.671  42.313   3.338
16430W        W81910  33.023  42.988   4.609
16431W        W81911  14.638  41.532   4.651
16432W        W81912  24.225  11.164   3.283
16433W        W81913   3.264  23.998  13.446
16434W        W81914  14.207  20.191   1.448
16435W        W81915  24.676  25.533  11.064
16436W        W81916  24.652  22.166   2.201
16437W        W81917  19.227  40.918  14.414
16438W        W81918  12.313  38.381   3.317
16439W        W81919  34.609  19.660   3.866
16440W        W81920  23.009  10.200   4.198
16441W        W81921  37.941   9.719  13.045
16442W        W81922   5.368  18.668   2.772
16443W        W81923  11.736   3.732   4.802
16444W        W81924  30.656   8.349   3.255
16445W        W81925  41.989  23.132  13.836
16446W        W81926  19.096  33.409  13.007
16447W        W81927   4.862   3.839  12.016
16448W        W81928  28.101  43.772  11.459
16449W        W81929   3.341   2.346   2.797
16450W        W81930  22.708  14.617   4.281
16451W        W81931  36.044  15.659  10.947
16452W        W81932  11.241  28.186   3.219
16453W        W81933  15.799  21.610   3.170
16454W        W81934  30.596  14.324  12.371
16455W        W81935  29.062  42.473  11.568
16456W        W81936  18.790   8.846   0.743
16457W        W81937  33.073   2.912   1.761
16458W        W81938  40.930  16.633  14.877
16459W        W81939  38.425  26.955   2.283
16460W        W81940  33.566  28.173  10.635
16461W        W81941  18.575   8.731  13.537
16462W        W81942  16.273  37.576  10.472
16463W        W81943  44.947  10.821   1.819
16464W        W81944  15.217  29.022  11.533
16465W        W81945  15.210  28.098   0.798
16466W        W81946  25.028  35.962  13.533
16467W        W81947  38.470  36.849   4.168
16468W        W81948  23.627  23.544  11.581
16469W        W81949  43.310   1.842   2.190
16470W        W81950   6.796   1.973   0.458
16471W        W81951  31.583  27.192  14.856
16472W        W81952  34.485  43.774   2.755
16473W        W81953  17.194  29.593   2.775
16474W        W81954  30.641   1.384   0.390
16475W        W81955   5.268  16.199  13.810
16476W        W81956  31.900  42.313   1.431
16477W        W81957  23.643  23.997   2.383
16478W        W81958  15.109  19.626  11.891
16479W        W81959   6.766  28.056   4.248
16480W        W81960   6.320  22.690  14.287
16481W        W81961  38.361   8.357   2.736
16482W        W81962  27.031   2.392   3.861
16483W        W81963  42.500  34.037  14.844
16484W        W81964  19.573  14.284   5.170
16485W        W81965  39.878   1.747  10.626
16486W        W81966  41.025  27.130   3.834
16487W        W81967   0.774  41.368  11.065
16488W        W81968  12.118  26.113  11.092
16489W        W81969   5.843   7.286   2.876
16490W        W81970  17.637  19.556   3.265
16491W        W81971  34.532  11.202   4.837
16492W        W81972   5.378   7.669   1.932
16493W        W81973  18.291  39.390  11.034
16494W        W81974  24.707  28.064  12.026
16495W        W81975  24.661  30.981   3.849
16496W        W81976  36.039  24.112  14.324
16497W        W81977   2.401  14.338   1.256
16498W        W81978  38.927   8.790   5.116
16499W        W81979  26.113  24.599   4.173
16500W        W81980   0.800  40.375  11.101
16501W        W81981  21.052  33.883   2.238
16502W        W81982   2.741  25.492  12.433
16503W        W81983  42.928   0.429   4.220
16504W        W81984   4.413  29.525  14.988
16505W        W81985   4.437  42.518   0.759
16506W        W81986  42.408  10.706  12.442
16507W        W81987   6.684  33.084   3.283
16508W        W81988  42.281  18.089  12.968
16509W        W81989  34.430  34.881   2.209
16510W        W81990   7.310  35.485   3.858
16511W        W81991  13.120   4.792   4.789
16512W        W81992  13.660  26.484  11.505
16513W        W81993  43.965  29.511  12.899
16514W        W81994  28.536   9.364   0.798
16515W        W81995  40.352  28.023  14.444
16516W        W81996  12.302  15.817   3.254
16517W        W81997  12.172  13.308   2.257
16518W        W81998  24.999  39.902  14.430
16519W        W81999  20.739  35.882   0.389
16520W        W82000  18.263  39.028   0.383
16521W        W82001   9.227  12.225   2.230
16522W        W82002  12.848  13.733  12.553
16523W        W82003   8.343  40.856  13.546
16524W        W82004  26.970  18.261  12.381
16525W        W82005   5.891  35.892  11.045
16526W        W82006  30.613  25.145  12.562
16527W        W82007   3.760   7.852   0.352
16528W        W82008  37.391  16.159   0.330
16529W        W82009   2.833  18.708  12.428
16530W        W82010   5.885   1.255   1.812
16531W        W82011  21.751  12.801  11.555
16532W        W82012   8.842  12.357  13.866
16533W        W82013  29.988   6.824  10.596
16534W        W82014  30.100  38.925   3.260
16535W        W82015  18.118   0.471  12.059
16536W        W82016   7.281  36.417   2.836
16537W        W82017  28.138  17.630  13.848
16538W        W82018   0.930   6.424   2.704
16539W        W82019  43.879  26.075   2.843
16540W        W82020  30.577  10.797   1.303
16541W        W82021   1.337   9.825  12.415
16542W        W82022  37.976  14.334  14.360
16543W        W82023  40.797  17.633   1.768
16544W        W82024  37.529  34.973   3.809
16545W        W82025   1.344   0.926  11.885
16546W        W82026  43.381   2.949   2.790
16547W        W82027  28.667  21.107  14.760
16548W        W82028  30.467  11.352  10.467
16549W        W82029  13.190  26.597  10.638
16550W        W82030  12.316  13.600   1.435
16551W        W82031  27.995   8.194   4.297
16552W        W82032  20.273  20.187   1.384
16553W        W82033  21.167  18.684   0.408
16554W        W82034  35.978   5.859  10.999
16555W        W82035  26.068  43.473   2.727
16556W        W82036  35.600  24.711   3.177
16557W        W82037   8.388  19.272  13.871
16558W        W82038   0.960  43.413   1.790
16559W        W82039  43.870  26.171  14.937
16560W        W82040  11.777  21.657   1.315
16561W        W82041  30.163   1.912  11.006
16562W        W82042  16.577   2.912   2.250
16563W        W82043  24.174  37.351   9.944
16564W        W82044  41.993  31.073  13.966
16565W        W82045   3.886  10.703  14.293
16566W        W82046  43.810  27.991  10.898
16567W        W82047  26.516  20.209   3.259
16568W        W82048  30.992  16.226  11.488
16569W        W82049  42.297  36.445   2.196
16570W        W82050   2.906   8.714   1.331
16571W        W82051  33.408   4.404  12.558
16572W        W82052  33.578  28.021  14.356
16573W        W82053  18.718  27.115   0.943
16574W        W82054  24.584  40.321   1.806
16575W        W82055  11.189  40.949  13.513
16576W        W82056  28.162  37.921   3.191
16577W        W82057   0.788  18.207  12.524
16578W        W82058   6.400  13.183  13.335
16579W        W82059  32.063  40.900  14.991
16580W        W82060  20.684  29.062  10.891
16581W        W82061   3.329  11.803   2.888
16582W        W82062  20.200   8.852  14.957
16583W        W82063  42.929   9.279  11.033
16584W        W82064  26.692  30.460  14.380
16585W        W82065   7.255  36.582  14.928
16586W        W82066  12.834  17.591  13.012
16587W        W82067  40.504   2.315   4.830
16588W        W82068  21.223   6.747   1.794
16589W        W82069  26.003  23.494   0.790
16590W        W82070  21.613  29.033   0.907
16591W        W82071   4.331  44.870  14.415
16592W        W82072   0.391  25.179   0.413
16593W        W82073   5.432  38.497   3.170
16594W        W82074  32.921  14.313   1.807
16595W        W82075  44.782  31.091  14.000
16596W        W82076  42.428  33.387   0.423
16597W        W82077  10.867   4.810   2.257
16598W        W82078  18.771  41.033   4.172
16599W        W82079  38.481  38.352   2.182
16600W        W82080  34.071  12.215  13.001
16601W        W82081  13.245  26.073  14.337
16602W        W82082  25.653  14.835   0.330
16603W        W82083  41.839  27.497   4.721
16604W        W82084  43.891  21.687  13.434
16605W        W82085   9.798   2.453   0.297
16606W        W82086  42.885   4.326   3.675
16607W        W82087  15.122  10.799   1.290
16608W        W82088  40.322  15.777  12.896
16609W        W82089  32.950   7.285  13.454
16610W        W82090  40.833   6.380   0.891
16611W        W82091  24.209  18.720  10.410
16612W        W82092  12.667  23.054   4.745
16613W        W82093   6.409  37.424  13.907
16614W        W82094  37.553  21.677   5.305
16615W        W82095  19.654  21.108   3.248
16616W        W82096  41.332  10.234  14.284
16617W        W82097  13.165  24.520  14.338
16618W        W82098  42.866  21.565   4.795
16619W        W82099  41.884  31.490   1.843
16620W        W82100  34.565   6.268   1.351
16621W        W82101  13.688  25.214  10.433
16622W        W82102  15.321  28.507  10.608
16623W        W82103  28.063  17.151   2.351
16624W        W82104  41.846  14.764   2.263
16625W        W82105  16.652  24.108  10.470
16626W        W82106   7.250  27.478  12.863
16627W        W82107  11.224  30.117   0.839
16628W        W82108  40.521  16.700  13.309
16629W        W82109   0.320   8.302   4.600
16630W        W82110   7.729   7.404   2.703
16631W        W82111  33.579  12.754  14.913
16632W        W82112  18.116   4.289   0.853
16633W        W82113  36.482  34.394  13.526
16634W        W82114   3.404  39.032   5.264
16635W        W82115  39.039  35.025   2.311
16636W        W82116  35.577   1.273  13.427
16637W        W82117  17.298   4.934   5.304
16638W        W82118  18.785   8.764   1.318
16639W        W82119  10.350  44.997   0.443
16640W        W82120  43.832  27.591   2.335
16641W        W82121   9.196  28.954   2.775
16642W        W82122  43.514  10.166   2.814
16643W        W82123   2.322  43.308   0.369
16644W        W82124   4.768   2.738  11.011
16645W        W82125   9.168   2.376  10.980
16646W        W82126  11.356  40.797   1.726
16647W        W82127  14.718  17.645   1.449
16648W        W82128   7.329  14.119  13.515
16649W        W82129  17.138  32.402  12.880
16650W        W82130   5.750  39.872   0.350
16651W        W82131  41.367  22.144  14.003
16652W        W82132   4.424   2.419   3.858
16653W        W82133  22.088  42.779   4.350
16654W        W82134  20.110  29.548  12.382
16655W        W82135  22.612   9.672   1.321
16656W        W82136  33.880  29.118  13.530
16657W        W82137  23.141  28.658  13.321
16658W        W82138  36.416  43.335  11.923
16659W        W82139   0.928  34.968   2.875
16660W        W82140  22.727  19.608  12.466
16661W        W82141  28.483   0.777  11.471
16662W        W82142  10.744  39.404  13.902
16663W        W82143  30.132  15.643   4.159
16664W        W82144  17.234  31.410  12.956
16665W        W82145  27.977   8.220  13.871
16666W        W82146  32.423  28.475   4.131
16667W        W82147  35.044  27.978   0.828
16668W        W82148  23.183  42.861   1.928
16669W        W82149  43.394  32.923   4.280
16670W        W82150   0.302  25.145  11.530
16671W        W82151  39.873  32.952  14.492
16672W        W82152   8.899   6.803   1.333
16673W        W82153  44.421   3.240   0.799
16674W        W82154  35.997  23.688   0.325
16675W        W82155   0.802  11.623   0.375
16676W        W82156   5.743  17.613   4.316
16677W        W82157  43.867  31.590   2.887
16678W        W82158  33.530  44.480   5.095
16679W        W82159   1.280  14.603   3.246
16680W        W82160  24.108  17.073   1.431
16681W        W82161  19.246   5.874   3.736
16682W        W82162  18.292  14.216  11.439
16683W        W82163  16.179  11.153  14.924
16684W        W82164  27.580  26.079   0.738
16685W        W82165  29.108   0.417   0.734
16686W        W82166  14.312  39.390  14.890
16687W        W82167  39.858  20.704   4.606
16688W        W82168  29.490  31.956   9.968
16689W        W82169  24.127  29.012   1.376
16690W        W82170  25.193  19.077  10.634
16691W        W82171  38.407   3.714  14.383
16692W        W82172  15.236  42.429   3.742
16693W        W82173  18.193  37.983   0.256
16694W        W82174  15.286  32.442  14.403
16695W        W82175   6.247   8.703  14.006
16696W        W82176  28.618   9.880  10.594
16697W        W82177  38.059  14.693  10.503
16698W        W82178  23.169  22.639   4.295
16699W        W82179  25.125  38.014   2.279
16700W        W82180  30.117  38.384   5.642
16701W        W82181  22.144  31.644   0.863
16702W        W82182  43.776  16.302   2.322
16703W        W82183  36.558  32.566   4.671
16704W        W82184  37.944  31.559  13.317
16705W        W82185  32.405  17.233  10.020
16706W        W82186  24.545  16.197  10.438
16707W        W82187  15.283   9.185  14.510
16708W        W82188   0.461  37.506  10.480
16709W        W82189   7.333  24.125   4.137
16710W        W82190  30.147  23.239   4.165
16711W        W82191  41.396  26.122  11.064
16712W        W82192  26.967   0.947  12.022
16713W        W82193  39.814  10.844   2.322
16714W        W82194   8.823  38.553  11.089
16715W        W82195  30.908  30.464  12.063
16716W        W82196   7.811  25.017   4.264
16717W        W82197  14.147  20.199   1.899
16718W        W82198  28.648  20.541   1.906
16719W        W82199   0.364   6.287  14.456
16720W        W82200  35.989  31.030  13.974
16721W        W82201  26.672  21.220  10.108
16722W        W82202  22.705  26.132  14.402
16723W        W82203  29.506  11.149  12.847
16724W        W82204  30.444  20.099  13.008
16725W        W82205  36.400  37.969   0.295
16726W        W82206  21.092  11.371  13.408
16727W        W82207  27.973  10.207   2.348
16728W        W82208  43.514  19.594  11.508
16729W        W82209   2.400  29.075  13.922
16730W        W82210  32.599  21.738  13.060
16731W        W82211  18.764   8.804   3.182
16732W        W82212  40.049   3.273  10.466
16733W        W82213  18.790  24.151   4.259
16734W        W82214  35.550  13.838   2.764
16735W        W82215  10.697  27.985   2.209
16736W        W82216   1.481  44.433  11.107
16737W        W82217   3.404  38.434   1.319
16738W        W82218  36.432  19.273  12.558
16739W        W82219  39.461  33.121  14.776
16740W        W82220  38.356  21.563  13.433
16741W        W82221  26.080  11.171   2.799
16742W        W82222  18.773  43.313   0.447
16743W        W82223   3.724  24.065   0.782
16744W        W82224  27.495  25.053  10.959
16745W        W82225  38.524  15.234  14.468
16746W        W82226  31.557  26.562  10.058
16747W        W82227   0.831  35.047   1.768
16748W        W82228   5.906   8.820   4.157
16749W        W82229  34.999  25.148  13.316
16750W        W82230   5.864  26.198  12.063
16751W        W82231   6.832  38.074   3.630
16752W        W82232  32.588  21.664   0.807
16753W        W82233  26.477   4.420   2.793
16754W        W82234  15.204  15.201  11.900
16755W        W82235  36.560  40.959   1.784
16756W        W82236  31.977  24.034   2.710
16757W        W82237   2.245  27.500  10.530
16758W        W82238  11.845  36.529  14.391
16759W        W82239  38.879  31.951   3.366
16760W        W82240   2.325   9.205   2.794
16761W        W82241  23.001   7.273  14.382
16762W        W82242  12.141   4.268   1.305
16763W        W82243  21.719  29.605  11.101
16764W        W82244  13.301   5.336  11.077
16765W        W82245   1.448  19.755   5.312
16766W        W82246  37.352  25.662   0.461
16767W        W82247  11.192  43.872   4.758
16768W        W82248  11.724   7.193  12.981
16769W        W82249  35.855   3.837   4.211
16770W        W82250   6.866  30.103   1.702
16771W        W82251   7.289  38.028   2.708
16772W        W82252  26.066   4.819  14.427
16773W        W82253  41.940  14.192   4.277
16774W        W82254  40.404  40.949  13.454
16775W        W82255   1.824   3.404   1.847
16776W        W82256  37.086   1.881  13.831
16777W        W82257  11.245   0.409   1.889
16778W        W82258   0.440   8.217  10.632
16779W        W82259  20.670  44.415   0.375
16780W        W82260  44.981   6.216   4.837
16781W        W82261  33.461  36.019  12.015
16782W        W82262  23.672  12.650   0.261
16783W        W82263  37.482  18.548   0.806
16784W        W82264  12.199  24.068  14.954
16785W        W82265  40.911  17.075  13.543
16786W        W82266   2.935   5.213  11.097
16787W        W82267  29.127  35.487  12.442
16788W        W82268  40.896  16.646   2.876
16789W        W82269  41.849  30.009  11.110
16790W        W82270   6.840   7.775  14.930
16791W        W82271  29.489   4.322   3.179
16792W        W82272  15.115  18.617  12.064
16793W        W82273   8.166  43.974   1.767
16794W        W82274  29.124  36.432   1.276
16795W        W82275  35.935  31.632  10.502
16796W        W82276   5.437  38.956   2.283
16797W        W82277  15.121  19.762   0.376
16798W        W82278  28.455   7.684   3.702
16799W        W82279  16.309   8.882   1.344
16800W        W82280  10.648  32.637   3.354
16801W        W82281  19.690   3.238  12.444
16802W        W82282  22.713  36.406  12.509
16803W        W82283  40.884  29.147   3.312
16804W        W82284  14.741  41.297  12.449
16805W        W82285  17.675   6.343   4.640
16806W        W82286  16.747  39.397  11.384
16807W        W82287   9.749  33.526   3.860
16808W        W82288  42.461  16.775  13.393
16809W        W82289  43.498   6.677   1.911
16810W        W82290  34.569  32.944  11.433
16811W        W82291  41.976   0.766   3.702
16812W        W82292   3.316  12.248   2.247
16813W        W82293  30.620   8.742   3.670
16814W        W82294  41.336  28.036  14.936
16815W        W82295  12.355   0.809  13.027
16816W        W82296  15.168  38.008   1.313
16817W        W82297  43.864  17.140   1.782
16818W        W82298   5.700  25.490   3.358
16819W        W82299   3.399  34.074  14.764
16820W        W82300  40.835  28.593  13.938
16821W        W82301  41.395  37.082  11.399
16822W        W82302  11.783   9.323  10.476
16823W        W82303  42.782   9.782  11.052
16824W        W82304  30.952   8.349  11.604
16825W        W82305  29.082  12.796   0.480
16826W        W82306   4.859  39.384   2.870
16827W        W82307   3.456  34.974   4.334
16828W        W82308  36.504  34.422   1.253
16829W        W82309  24.065  36.421  11.099
16830W        W82310  11.666   1.866  11.583
16831W        W82311  16.569  25.602   2.856
16832W        W82312  15.124  21.106   0.886
16833W        W82313  39.018  37.479   3.833
16834W        W82314  39.340  12.631  11.478
16835W        W82315   2.312  19.176   2.326
16836W        W82316  41.456   5.917   3.827
16837W        W82317   0.468  24.140   4.678
16838W        W82318   1.973  27.501   3.357
16839W        W82319  37.464   8.278   2.278
16840W        W82320  27.947   9.735   4.158
16841W        W82321  44.398  44.894  10.972
16842W        W82322  42.314  18.055  12.472
16843W        W82323   5.360  17.633   3.732
16844W        W82324  13.288   1.456   0.453
16845W        W82325   6.301  42.998  10.950
16846W        W82326   4.219  10.862  10.574
16847W        W82327  10.671  16.721   4.142
16848W        W82328  30.918  27.060  11.410
16849W        W82329   3.799  39.370  12.860
16850W        W82330  42.777  18.638   3.180
16851W        W82331  24.081  18.183  14.493
16852W        W82332  39.542  20.627  13.817
16853W        W82333  38.477  16.268  12.983
16854W        W82334  26.574  13.623   5.261
16855W        W82335   2.913  24.116  12.942
16856W        W82336  20.059   1.741  13.342
16857W        W82337  24.573   9.341  11.858
16858W        W82338  42.930  24.140  14.874
16859W        W82339  38.913   4.725   1.413
16860W        W82340   8.818  15.817   4.713
16861W        W82341  36.087  41.979   0.268
16862W        W82342   4.390  43.382   4.221
16863W        W82343  14.213  35.591  14.840
16864W        W82344  36.864  38.864  13.379
16865W        W82345  27.522   8.238  11.881
16866W        W82346  21.202   6.727  12.928
16867W        W82347  14.789  19.715  12.979
16868W        W82348  36.582  12.835   2.406
16869W        W82349  27.963   1.789  10.975
16870W        W82350  30.035   5.844  10.458
16871W        W82351  36.045  33.967   4.188
16872W        W82352  30.537  32.559  14.448
16873W        W82353  38.477  18.784  13.036
16874W        W82354  42.464   5.723  12.477
16875W        W82355  41.906   0.959  13.056
16876W        W82356  25.966  37.581   3.368
16877W        W82357  23.213  13.699   0.326
16878W        W82358  28.475   4.941   4.754
16879W        W82359   6.396  11.144   3.662
16880W        W82360   7.352  11.820  13.863
16881W        W82361   6.326   3.864   3.675
16882W        W82362  44.871  16.290   0.873
16883W        W82363  11.225  28.167  12.011
16884W        W82364   0.344  12.200  13.002
16885W        W82365  10.138  23.534   1.718
16886W        W82366  42.441  36.013   1.250
16887W        W82367  30.456  33.526  12.911
16888W        W82368  23.582   8.271   2.897
16889W        W82369  41.381  24.664  13.437
16890W        W82370  26.085   0.852   2.373
16891W        W82371  39.824  19.663  12.342
16892W        W82372  12.327   1.908   3.199
16893W        W82373  27.101  12.229   4.229
16894W        W82374  32.922  23.126  11.036
16895W        W82375  25.100   3.901   3.317
16896W        W82376   0.938  18.579   0.259
16897W        W82377   5.290  38.848   4.330
16898W        W82378  38.929  37.515  13.840
16899W        W82379  37.013  39.831   0.338
16900W        W82380  18.249  21.554   1.431
16901W        W82381  26.536   3.825  13.952
16902W        W82382  39.887  25.605   4.699
16903W        W82383  16.591   4.895   4.701
16904W        W82384  27.015  17.107   0.476
16905W        W82385  43.995  41.969  14.926
16906W        W82386  22.179   1.312  13.467
16907W        W82387   8.745   6.752  12.870
16908W        W82388  29.667  37.079   4.634
16909W        W82389  17.613   2.782  13.959
16910W        W82390  14.163   0.426   1.930
16911W        W82391  19.273  36.097   2.890
16912W        W82392  26.072  40.343  11.444
16913W        W82393  14.601  25.155  14.433
16914W        W82394  35.369   6.276  13.033
16915W        W82395  13.794   2.729  12.085
16916W        W82396  17.304  35.884   0.329
16917W        W82397  17.073  27.531  14.285
16918W        W82398   4.304  21.704   2.862
16919W        W82399  11.670  30.621   1.708
16920W        W82400  24.668   7.326  11.085
16921W        W82401   4.366  29.122  11.868
16922W        W82402   8.405  32.907  13.009
16923W        W82403  38.492   0.754  10.453
16924W        W82404  18.569  41.809  13.371
16925W        W82405  38.354   9.387   4.327
16926W        W82406  39.014   7.302   0.732
16927W        W82407  29.561  26.193  13.806
16928W        W82408  38.522  13.199  10.495
16929W        W82409   7.237  27.574  14.868
16930W        W82410  25.639  43.945  14.310
16931W        W82411  24.019  19.107  11.064
16932W        W82412  36.487  28.582  11.916
16933W        W82413  17.644   0.483  11.872
16934W        W82414  40.510  28.977   2.839
16935W        W82415  42.299  38.465  13.467
16936W        W82416   2.328  37.980  13.458
16937W        W82417   7.256  15.097  12.526
16938W        W82418   1.881  39.405  13.975
16939W        W82419   7.697  23.005  12.041
16940W        W82420  44.779  37.399  12.560
16941W        W82421  33.454  31.633  10.450
16942W        W82422  20.757  34.977  12.408
16943W        W82423  24.554   4.732   3.229
16944W        W82424  15.117  39.055   0.961
16945W        W82425  44.453  43.468  13.352
16946W        W82426   8.254  10.687   1.790
16947W        W82427  26.132  17.642  11.961
16948W        W82428  37.473  26.176  14.928
16949W        W82429  30.579  16.640   0.378
16950W        W82430  17.081  22.584   2.413
16951W        W82431  19.599   2.967  13.493
16952W        W82432  36.434  12.672   3.343
16953W        W82433   3.253  40.504   3.843
16954W        W82434  11.847  32.611  14.280
16955W        W82435  36.496   7.198  12.546
16956W        W82436  20.601   7.277  11.040
16957W        W82437  40.003  44.336   0.332
16958W        W82438  20.083  17.157  10.985
16959W        W82439  30.502  38.990  14.792
16960W        W82440  43.929  12.330  14.450
16961W        W82441  32.060  13.197  14.274
16962W        W82442   0.879  23.629   3.817
16963W        W82443  19.545  37.907   1.701
16964W        W82444  21.544  43.413  10.467
16965W        W82445  30.556  32.127   0.321
16966W        W82446   6.877  10.348  11.527
16967W        W82447  44.858  21.248   4.213
16968W        W82448  17.239  18.749  11.426
16969W        W82449  10.379  41.849   4.237
16970W        W82450  30.521  36.941   0.963
16971W        W82451  37.874  41.393   1.267
16972W        W82452  26.082   6.398  13.373
16973W        W82453   5.744  24.630   2.881
16974W        W82454  22.215  31.914  11.508
16975W        W82455   0.295   4.228  11.594
16976W        W82456  38.914   8.391   4.792
16977W        W82457  42.941  43.418   4.634
16978W        W82458   8.656  23.994   4.222
16979W        W82459  28.614  33.889  13.503
16980W        W82460   5.883  18.603  13.982
16981W        W82461  24.114   3.849  11.536
16982W        W82462  42.874  25.209  12.824
16983W        W82463  25.196  34.910   0.824
16984W        W82464  27.968  22.184  13.890
16985W        W82465  29.933  32.441  13.805
16986W        W82466  44.848  20.759   3.807
16987W        W82467  15.259  39.979  13.964
16988W        W82468  27.032  20.574  13.972
16989W        W82469  19.096  21.042   9.974
16990W        W82470   9.172  16.585   3.775
16991W        W82471   7.286  37.407  10.919
16992W        W82472  30.541  33.575  10.460
16993W        W82473  43.281  39.908  14.005
16994W        W82474   5.865  20.084   3.749
16995W        W82475  35.546  41.511   0.936
16996W        W82476  38.905  12.281  10.155
16997W        W82477  35.388  22.054   3.266
16998W        W82478  35.361   4.280  10.956
16999W        W82479  23.717  17.161  12.552
17000W        W82480  23.052   4.773   4.718
17001W        W82481  30.923  20.689   0.839
17002W        W82482  24.996  15.588   0.820
17003W        W82483  10.737   3.946   4.602
17004W        W82484  29.539  16.269  12.995
17005W        W82485  18.078   2.852   4.718
17006W        W82486  31.907  19.683  14.785
17007W        W82487  17.140  21.096  11.092
17008W        W82488  25.063  39.456  12.871
17009W        W82489  40.007  31.064   0.941
17010W        W82490  21.717  15.618  13.453
17011W        W82491   8.682   6.304  10.581
17012W        W82492  12.737  12.231  14.838
17013W        W82493   1.255  25.964  14.355
17014W        W82494  27.619  41.405  13.927
17015W        W82495  42.873   2.776  12.065
17016W        W82496  43.806  32.040  13.826
17017W        W82497  42.401  14.305  12.875
17018W        W82498   8.774  31.640   1.732
17019W        W82499   4.905  12.827  11.005
17020W        W82500  16.797  22.100  14.894
17021W        W82501  24.645  41.907  10.951
17022W        W82502   3.716  19.735  12.395
17023W        W82503  15.804   7.736   4.751
17024W        W82504  18.098  34.433  11.979
17025W        W82505   2.312  39.002  11.887
17026W        W82506  11.131  42.019   4.349
17027W        W82507  26.030  14.277  14.344
17028W        W82508  31.625  40.916   0.881
17029W        W82509   2.819   2.402  13.842
17030W        W82510   1.805  13.778   1.907
17031W        W82511  31.975  20.752   4.695
17032W        W82512  28.953  38.472  14.767
17033W        W82513  17.619  20.135  14.444
17034W        W82514  17.078  20.132  13.060
17035W        W82515  29.626  23.066  14.989
17036W        W82516   7.858  35.457  10.405
17037W        W82517  10.778  19.613   4.264
17038W        W82518  44.490  12.218  11.125
17039W        W82519   7.701   6.220   2.693
17040W        W82520  23.028  32.889   2.405
17041W        W82521  10.314   7.298   1.704
17042W        W82522  15.791  12.229   2.339
17043W        W82523   8.829  35.520  12.827
17044W        W82524  12.279  18.155  14.870
17045W        W82525  35.947  20.134   3.185
17046W        W82526   1.840  23.588  10.488
17047W        W82527  24.569  21.702  12.946
17048W        W82528   1.423  13.200  11.931
17049W        W82529  24.064  39.003   0.369
17050W        W82530   4.927  12.613   4.764
17051W        W82531  12.692  25.107  10.562
17052W        W82532  44.933   5.258   1.325
17053W        W82533  40.509  43.403  12.018
17054W        W82534  27.672   5.222   3.822
17055W        W82535   4.273  39.808  11.999
17056W        W82536   9.889  17.094   0.459
17057W        W82537  29.456  39.898  13.791
17058W        W82538  21.536  26.546   2.190
17059W        W82539  26.594   4.227   2.275
17060W        W82540  25.103   0.293  14.431
17061W        W82541  19.751  17.081  11.428
17062W        W82542  28.146  16.770   4.296
17063W        W82543   4.932   2.917  13.520
17064W        W82544  35.984  13.240  12.044
17065W        W82545   6.297  35.080   1.711
17066W        W82546   1.919   1.927  11.886
17067W        W82547  12.727   5.788  14.344
17068W        W82548  18.564   5.324   4.325
17069W        W82549  32.475  33.127  10.639
17070W        W82550  11.674  10.287  14.453
17071W        W82551  35.492  19.722  14.850
17072W        W82552  35.941  15.796  11.593
17073W        W82553  23.220  17.569  13.540
17074W        W82554   8.252  15.212   0.775
17075W        W82555  12.816  19.536   4.307
17076W        W82556  30.458   3.724  10.497
17077W        W82557  13.702  22.522   4.270
17078W        W82558  23.552   2.810  11.025
17079W        W82559   9.374  23.180  13.978
17080W        W82560  14.104  17.639  14.383
17081W        W82561  33.892  15.151  14.770
17082W        W82562  42.308   4.733  12.448
17083W        W82563  18.131  26.130   1.256
17084W        W82564   9.194  37.078   2.280
17085W        W82565  32.099  36.934   2.784
17086W        W82566  13.225  20.732  10.904
17087W        W82567  14.743   7.252   1.251
17088W        W82568  12.220  31.935   0.420
17089W        W82569  17.745  38.418  13.996
17090W        W82570  26.067  33.103  11.458
17091W        W82571  31.434  30.523   3.832
17092W        W82572   1.830   0.774   2.313
17093W        W82573   6.192  43.931   1.322
17094W        W82574  36.578  18.600   4.155
17095W        W82575  35.525   7.347   4.204
17096W        W82576  21.754  38.521  11.084
17097W        W82577   0.317  34.903   3.636
17098W        W82578  42.997  25.081  12.046
17099W        W82579  15.264  31.981   1.361
17100W        W82580  20.163  44.954   5.181
17101W        W82581  16.266  14.155  12.942
17102W        W82582  38.997  43.319  12.073
17103W        W82583  16.712  10.876   2.845
17104W        W82584  29.649  28.482   1.878
17105W        W82585  44.296  24.157  13.823
17106W        W82586   1.431  20.710   4.118
17107W        W82587  16.677  37.479  10.614
17108W        W82588   1.247  26.514   1.365
17109W        W82589   3.443  32.068  10.569
17110W        W82590  35.571  42.391   0.308
17111W        W82591   1.309  14.835  13.859
17112W        W82592   4.877  34.866   1.275
17113W        W82593  32.554  13.655   1.765
17114W        W82594   2.849  21.241  11.579
17115W        W82595  34.497   2.846  10.529
17116W        W82596  19.180  35.965  10.483
17117W        W82597  15.598   1.772  13.413
17118W        W82598  44.889  35.580  14.873
17119W        W82599  41.375  14.680   4.281
17120W        W82600  13.327   5.912  11.468
17121W        W82601   2.311   7.687  11.538
17122W        W82602  29.947  34.899  14.974
17123W        W82603   5.715  12.296  14.761
17124W        W82604  34.023  42.891   4.248
17125W        W82605  28.054  14.798  13.400
17126W        W82606  19.553  41.949   0.455
17127W        W82607   0.285  35.589   3.287
17128W        W82608  11.338  10.155   3.221
17129W        W82609  21.571   8.716  12.901
17130W        W82610  25.485  35.458   0.730
17131W        W82611   2.348  13.332  13.384
17132W        W82612   9.681  36.438   3.750
17133W        W82613   3.759  36.972   1.867
17134W        W82614  44.964  30.137  10.406
17135W        W82615  21.235  31.910  13.409
17136W        W82616   5.291  11.651  12.365
17137W        W82617  35.928  34.958   4.816
17138W        W82618  43.919  38.461  12.071
17139W        W82619  37.570   8.809  13.880
17140W        W82620  44.459   0.770   2.281
17141W        W82621  44.799  31.005   4.696
17142W        W82622  36.026  40.549   3.726
17143W        W82623  33.583  16.084   0.297
17144W        W82624  44.474  15.239   1.308
17145W        W82625  14.205  23.059   2.796
17146W        W82626  27.537   9.746  12.494
17147W        W82627  23.706  32.114  10.997
17148W        W82628  34.902  42.907   4.837
17149W        W82629   3.827  11.258  14.493
17150W        W82630  29.491  39.500  14.287
17151W        W82631  44.446  21.674   1.313
17152W        W82632  23.554  34.092   1.825
17153W        W82633  11.802  37.582  10.521
17154W        W82634  36.942  36.394   4.327
17155W        W82635  38.840  12.614   4.639
17156W        W82636   1.366  14.159  11.909
17157W        W82637  30.082  19.086  12.030
17158W        W82638  34.047  26.970  12.418
17159W        W82639  41.967  41.458  10.446
17160W        W82640  27.139   8.859  12.453
17161W        W82641  11.680   3.762  12.087
17162W        W82642  44.490  40.373  14.392
17163W        W82643  12.276  25.093  13.003
17164W        W82644   7.809  44.980   2.376
17165W        W82645   1.890  29.563  12.382
17166W        W82646  21.079  17.575  12.550
17167W        W82647  34.597  12.137   1.910
17168W        W82648  19.109   4.394  13.424
17169W        W82649  14.184  17.643  10.989
17170W        W82650  29.944  23.711  11.968
17171W        W82651   9.347  19.739  13.923
17172W        W82652   1.804  38.459   0.784
17173W        W82653   8.183  42.028   3.267
17174W        W82654  36.530  33.049   3.154
17175W        W82655   7.889  36.007  14.850
17176W        W82656  15.155  35.857   5.228
17177W        W82657  23.612  16.715  10.431
17178W        W82658  10.829  43.780  13.403
17179W        W82659  35.936   8.191   1.268
17180W        W82660   2.406   3.301  11.995
17181W        W82661  13.275  23.640  13.427
17182W        W82662  16.626   8.784  13.828
17183W        W82663  10.767  38.508   3.847
17184W        W82664   6.182   6.919   1.738
17185W        W82665  37.072  19.670   4.812
17186W        W82666   7.174  34.423  14.991
17187W        W82667  30.953  42.522   2.744
17188W        W82668  16.191  24.533   4.634
17189W        W82669  22.623  22.066  13.858
17190W        W82670  31.066  30.066   0.397
17191W        W82671  26.507  39.438   2.242
17192W        W82672  35.586  44.877   3.347
17193W        W82673   3.798  19.610  13.059
17194W        W82674  42.511  23.681  13.825
17195W        W82675  40.497  16.171  11.547
17196W        W82676  24.985  26.171   4.202
17197W        W82677  33.878  35.947   1.904
17198W        W82678  30.957  40.376  13.854
17199W        W82679  38.065  39.371   2.274
17200W        W82680  37.359  22.995   4.829
17201W        W82681  17.788  20.591  13.959
17202W        W82682  35.475  20.149  12.915
17203W        W82683  19.609   1.915  12.048
17204W        W82684  12.748  38.394   2.281
17205W        W82685  27.606   6.289   0.433
17206W        W82686   6.378  33.413  10.057
17207W        W82687  33.067  25.994  10.508
17208W        W82688  25.135  32.630  13.378
17209W        W82689  25.586  41.027  12.579
17210W        W82690  31.962  44.355  12.905
17211W        W82691  10.182   0.818   1.932
17212W        W82692   1.412  22.683   3.792
17213W        W82693   7.705  36.411   4.796
17214W        W82694   4.925  33.471   4.353
17215W        W82695  13.706   6.272   2.204
17216W        W82696  24.171   2.880  13.322
17217W        W82697  11.646  42.997   2.779
17218W        W82698  11.794  21.243  10.941
17219W        W82699   7.220  11.777   0.756
17220W        W82700  16.703  28.004  11.960
17221W        W82701  10.649  32.612  12.010
17222W        W82702  21.021  15.617   2.201
17223W        W82703  32.931  19.631  11.565
17224W        W82704  17.271  26.608  14.510
17225W        W82705   9.209  34.985   1.287
17226W        W82706  16.081  37.353   5.109
17227W        W82707  21.032   6.245   1.770
17228W        W82708  41.895  10.816   4.249
17229W        W82709  40.003  26.478   1.825
17230W        W82710  20.165  31.498   0.898
17231W        W82711  16.074  29.140   3.174
17232W        W82712  13.836   4.356   3.175
17233W        W82713  22.130  17.122   0.385
17234W        W82714   6.294  10.226   9.963
17235W        W82715   4.884  31.449  10.531
17236W        W82716   6.215  19.137   3.637
17237W        W82717   3.402  12.273   0.825
17238W        W82718  43.367  38.384  11.381
17239W        W82719   0.249  19.045  14.971
17240W        W82720  40.928  20.610   3.681
17241W        W82721   1.337  38.371  13.433
17242W        W82722  38.417  12.285   0.870
17243W        W82723  33.572  27.044   0.438
17244W        W82724   9.664  32.956  13.525
17245W        W82725  17.279  34.893  12.368
17246W        W82726   3.365   6.254   3.757
17247W        W82727  41.459   2.437  14.862
17248W        W82728   0.494  26.092   2.744
17249W        W82729  19.716  29.484  10.595
17250W        W82730  43.902  17.624  14.775
17251W        W82731  29.078  12.698  12.915
17252W        W82732  43.490  43.467   0.797
17253W        W82733   6.719  38.920   3.336
17254W        W82734  32.006   2.461  13.475
17255W        W82735   8.838   0.967   4.224
17256W        W82736   1.339   0.969  13.374
17257W        W82737  18.596  18.690  14.894
17258W        W82738  15.617   8.356   0.794
17259W        W82739  33.593  43.508  13.792
17260W        W82740  11.727  42.848   4.193
17261W        W82741  36.067  17.648  11.065
17262W        W82742  36.415  43.432   2.852
17263W        W82743  20.186  42.331  14.472
17264W        W82744  40.849  42.458   4.331
17265W        W82745   0.289  14.138   3.634
17266W        W82746  40.498  42.871  10.995
17267W        W82747  44.939  44.380  10.444
17268W        W82748  44.936  20.106  13.452
17269W        W82749  25.547  35.513  14.434
17270W        W82750   7.882  38.974  10.603
17271W        W82751  31.502  31.633   0.961
17272W        W82752  39.409   2.238  14.933
17273W        W82753  19.750   5.279  11.092
17274W        W82754  39.968  40.045  11.388
17275W        W82755  16.143  41.917  10.964
17276W        W82756  28.445  23.541   3.828
17277W        W82757  22.671  38.997  10.140
17278W        W82758  20.728  42.925   3.668
17279W        W82759  19.569  22.691  14.322
17280W        W82760   8.281   6.318   1.425
17281W        W82761   3.338  12.714   1.301
17282W        W82762  35.018  38.533  14.024
17283W        W82763  10.252   3.891   3.693
17284W        W82764  24.481  12.137   0.944
17285W        W82765  35.013  43.852   0.814
17286W        W82766   9.684  12.239  13.977
17287W        W82767  39.508  44.924   0.433
17288W        W82768   3.415  33.624   2.302
17289W        W82769  43.952  28.129   3.283
17290W        W82770  26.666  25.109  10.154
17291W        W82771  11.666   4.814   2.260
17292W        W82772   1.317  15.313   4.834
17293W        W82773  12.730  33.110   3.249
17294W        W82774  37.912  37.966  12.399
17295W        W82775  31.941   0.410  11.461
17296W        W82776  15.211   7.725   3.230
17297W        W82777  29.922  11.326   0.944
17298W        W82778  44.945  17.763  11.091
17299W        W82779   0.828  35.510  11.109
17300W        W82780  40.027  11.678   1.380
17301W        W82781  10.861   9.756   4.248
17302W        W82782   2.949  38.844   2.260
17303W        W82783   6.713   1.841   3.719
17304W        W82784  33.523   1.746  11.036
17305W        W82785   5.769   5.717  10.613
17306W        W82786  40.528  32.495   2.821
17307W        W82787  11.676   2.948   0.743
17308W        W82788  13.296  42.429  12.410
17309W        W82789  15.101   8.742   3.313
17310W        W82790  20.739  24.087   2.807
17311W        W82791  20.198  11.786  11.040
17312W        W82792  27.021  28.071   0.357
17313W        W82793  33.903  11.839  14.801
17314W        W82794  13.705   6.216  11.978
17315W        W82795   0.260  38.440  11.497
17316W        W82796  17.575  16.195  13.916
17317W        W82797  24.214  39.374  12.055
17318W        W82798  29.459  38.872   3.157
17319W        W82799  38.835  23.545   1.805
17320W        W82800  21.704  37.365  14.472
17321W        W82801  15.762   7.743   1.895
17322W        W82802  18.213  34.380  13.982
17323W        W82803   5.281  18.603  12.998
17324W        W82804   6.831  42.482  13.910
17325W        W82805  10.764  39.816  11.527
17326W        W82806   2.850  31.531   3.765
17327W        W82807   9.245  26.674   3.634
17328W        W82808  28.171  10.788  10.436
17329W        W82809  14.657   1.756  12.428
17330W        W82810  21.615  21.531   0.446
17331W        W82811  33.989  18.059  11.426
17332W        W82812  25.976  18.264  11.962
17333W        W82813  27.093   1.860  10.483
17334W        W82814   0.973  19.166  14.778
17335W        W82815  35.092   1.338   3.263
17336W        W82816  19.640  20.256   0.417
17337W        W82817  38.453   9.746  11.503
17338W        W82818  35.061   2.263   2.242
17339W        W82819  30.062  21.108   3.180
17340W        W82820   9.764  37.510  10.978
17341W        W82821  25.511  22.153  13.424
17342W        W82822  39.495  42.483   4.804
17343W        W82823   2.963  27.651  14.778
17344W        W82824  38.977  25.519   2.899
17345W        W82825   7.810  37.432   1.286
17346W        W82826  15.676  12.196   3.173
17347W        W82827  24.048  43.835  14.430
17348W        W82828   6.747  10.834   2.674
17349W        W82829  25.040  19.063   2.389
17350W        W82830   8.251   3.841  11.460
17351W        W82831  11.852  20.215  14.880
17352W        W82832  27.561  15.728   1.439
17353W        W82833  31.423  22.081   2.397
17354W        W82834  17.077   8.816   2.265
17355W        W82835  11.636  32.089  11.442
17356W        W82836   3.336  17.560   1.315
17357W        W82837  20.211  25.021  10.529
17358W        W82838   4.719  35.035  11.433
17359W        W82839   4.322  10.738   3.825
17360W        W82840  43.386  41.523  13.981
17361W        W82841  14.601   7.756  12.986
17362W        W82842  16.082  28.453   4.824
17363W        W82843  28.971   0.284  14.842
17364W        W82844  23.551  21.057   0.249
17365W        W82845  37.971  17.269   0.890
17366W        W82846  13.686  17.659  13.437
17367W        W82847  44.341   6.320   4.355
17368W        W82848  30.444  21.090  10.125
17369W        W82849   2.768   9.723   2.792
17370W        W82850   1.793  34.954  14.288
17371W        W82851  22.036  18.258   3.386
17372W        W82852   2.745  40.456  12.544
17373W        W82853  41.922  18.175  13.464
17374W        W82854  39.824  24.206   1.286
17375W        W82855  43.768   5.779  10.129
17376W        W82856  11.322   1.334  11.491
17377W        W82857  15.201  30.417   2.229
17378W        W82858   6.801  11.369  10.992
17379W        W82859  42.461   8.372   2.666
17380W        W82860   7.234   4.878   0.837
17381W        W82861  25.678   3.252   0.799
17382W        W82862  22.723  43.811  11.987
17383W        W82863  32.987  14.749  13.884
17384W        W82864  44.945  27.960  11.408
17385W        W82865  35.464   9.238  13.855
17386W        W82866  18.659  24.060  14.470
17387W        W82867  31.117  42.002   0.880
17388W        W82868  15.607  32.930   3.644
17389W        W82869  44.445  44.354   0.739
17390W        W82870  17.206  24.129  10.497
17391W        W82871  28.641  24.149  11.865
17392W        W82872  34.923  40.529  14.912
17393W        W82873  34.985   1.950  12.890
17394W        W82874  15.706  36.861  12.908
17395W        W82875  16.085  13.737  14.506
17396W        W82876  42.953  20.664   0.913
17397W        W82877  26.523  42.989  12.971
17398W        W82878  31.023   6.184   2.198
17399W        W82879  15.740  29.147  10.636
17400W        W82880   6.405  35.920   2.333
17401W        W82881   6.701   6.415  11.501
17402W        W82882  42.029  19.103   0.471
17403W        W82883  17.778  31.427  11.041
17404W        W82884  23.712   0.465  12.499
17405W        W82885  33.988  39.338   4.708
17406W        W82886  37.879  33.009   0.898
17407W        W82887  32.393  22.579  11.572
17408W        W82888  22.235  26.542  12.548
17409W        W82889  24.182  37.460   0.800
17410W        W82890  15.109  22.548  14.325
17411W        W82891  29.464  12.618  10.929
17412W        W82892  18.712  12.642   0.472
17413W        W82893   8.205  38.004  11.380
17414W        W82894  12.624   6.908  13.488
17415W        W82895  30.537  20.566   2.847
17416W        W82896  12.217  33.461   1.335
17417W        W82897  26.181  42.506  14.485
17418W        W82898  24.991  24.134  11.490
17419W        W82899  21.020  42.518   1.298
17420W        W82900   7.747  22.168   4.700
17421W        W82901  42.882  36.414   4.629
17422W        W82902  21.088  21.071   3.782
17423W        W82903  41.473  43.858   1.780
17424W        W82904  17.620   3.243  12.909
17425W        W82905  26.456   5.782   2.797
17426W        W82906  27.474  40.015  12.984
17427W        W82907  13.714  11.288   0.257
17428W        W82908   8.405   3.331   2.826
17429W        W82909  26.152  34.051  13.463
17430W        W82910  17.800  38.964   2.768
17431W        W82911  36.396  20.524   1.213
17432W        W82912  28.651  41.935   2.321
17433W        W82913  36.090  26.179   4.327
17434W        W82914  18.294  22.602   0.773
17435W        W82915  41.530  38.974  11.919
17436W        W82916  32.420  18.259   0.346
17437W        W82917  38.013  14.320   1.250
17438W        W82918   3.939   0.461  14.837
17439W        W82919   7.213  11.127  11.478
17440W        W82920  14.332  36.065  10.933
17441W        W82921  21.254  43.904  13.037
17442W        W82922  14.813  24.072   2.671
17443W        W82923  35.865  30.596   0.403
17444W        W82924   7.205  32.944  11.885
17445W        W82925   3.428  28.976   3.789
17446W        W82926  18.584  12.716   4.258
17447W        W82927  44.979  40.856   0.317
17448W        W82928  17.062   4.369  11.975
17449W        W82929   1.333  25.503   1.910
17450W        W82930  37.512  35.998   2.789
17451W        W82931  42.921  15.231   4.284
17452W        W82932  18.187  38.973   3.262
17453W        W82933   7.218  13.216  12.551
17454W        W82934  28.022  30.041   2.816
17455W        W82935   9.246   7.305  11.032
17456W        W82936  26.467   3.880  13.526
17457W        W82937  38.035  35.378   2.724
17458W        W82938  13.793  22.050  13.326
17459W        W82939  43.930  35.905   2.203
17460W        W82940   1.825  17.278  11.599
17461W        W82941   4.885  32.963   5.684
17462W        W82942  35.069  13.198   2.832
17463W        W82943   1.836  22.228  13.347
17464W        W82944   4.265  21.176   1.423
17465W        W82945  12.683  19.616  10.491
17466W        W82946  35.855  17.180  12.010
17467W        W82947  12.177  40.488  13.856
17468W        W82948  42.927  25.638   4.751
17469W        W82949  13.277  29.966   0.333
17470W        W82950  20.031   3.363   2.203
17471W        W82951  19.741  15.618  14.976
17472W        W82952  10.250   0.871  11.887
17473W        W82953  14.818  27.620   3.201
17474W        W82954  24.975  12.271  12.562
17475W        W82955  32.981  18.065  13.524
17476W        W82956  23.160  44.968  10.117
17477W        W82957  38.840  36.471  14.394
17478W        W82958  26.162  28.185  13.048
17479W        W82959   7.886  30.007   1.435
17480W        W82960  32.458  24.985   4.277
17481W        W82961  28.503  36.415   4.705
17482W        W82962  22.043   3.748   3.242
17483W        W82963  38.456  25.495  12.039
17484W        W82964  21.166  37.069  14.899
17485W        W82965  11.139   3.372  14.779
17486W        W82966  11.644  33.931   2.278
17487W        W82967   5.850   6.271   1.850
17488W        W82968  34.468  35.417   1.706
17489W        W82969  21.623   4.283   1.353
17490W        W82970  15.167  10.726  12.896
17491W        W82971  36.943  31.459   4.144
17492W        W82972  34.588  37.417   3.362
17493W        W82973  42.937  38.568  14.853
17494W        W82974  21.026  28.175   0.309
17495W        W82975  20.230   8.284   2.290
17496W        W82976   1.831  30.584   2.773
17497W        W82977  12.291  34.867  11.895
17498W        W82978  27.446  34.598  12.077
17499W        W82979  17.666  29.503  10.550
17500W        W82980  17.275  17.690   1.773
17501W        W82981  14.286   4.322   3.758
17502W        W82982  41.008   5.310   3.803
17503W        W82983  24.640   4.734   1.742
17504W        W82984  17.248  24.991   4.164
17505W        W82985  33.542  21.091   5.107
17506W        W82986  19.582  18.271  13.391
17507W        W82987  30.609  39.379   3.231
17508W        W82988  26.046  24.642  13.500
17509W        W82989  37.456  15.721  14.471
17510W        W82990   2.747   1.814  13.412
17511W        W82991  41.422  36.058  14.382
17512W        W82992  39.404  27.173  14.287
17513W        W82993  14.824  20.649  11.933
17514W        W82994   2.341   5.338   1.447
17515W        W82995  10.377  44.819  11.919
17516W        W82996  10.194   6.241   3.208
17517W        W82997   1.748   4.727   2.749
17518W        W82998  16.595   3.291  10.912
17519W        W82999   8.256   5.263   0.786
17520W        W83000  36.078  41.480   0.393
17521W        W83001  43.822  39.046   0.332
17522W        W83002  31.489  12.627  14.030
17523W        W83003  23.012  36.451   1.829
17524W        W83004   4.888   8.383   0.362
17525W        W83005  15.203  38.859  14.915
17526W        W83006  16.272  22.029  13.404
17527W        W83007  28.656  19.566   2.721
17528W        W83008  35.430  35.385  13.849
17529W        W83009  24.175  25.511  11.557
17530W        W83010  44.908  24.118  14.288
17531W        W83011   0.393  36.426   2.406
17532W        W83012  41.367  33.499   1.890
17533W        W83013  30.110  41.524  10.139
17534W        W83014  13.350  42.805   2.200
17535W        W83015  16.729  38.491  11.472
17536W        W83016  32.122   4.879  14.301
17537W        W83017  18.134  37.552   0.793
17538W        W83018  31.144  43.505   0.358
17539W        W83019  23.710  23.152  11.994
17540W        W83020  23.178  16.710  14.419
17541W        W83021  24.604  38.479   1.230
17542W        W83022  21.087   0.828   4.155
17543W        W83023  16.224  22.114   2.727
17544W        W83024  43.361  22.054  11.995
17545W        W83025  43.829  17.596   4.628
17546W        W83026   6.817  12.767   0.324
17547W        W83027  30.474  37.951   4.299
17548W        W83028  18.551  40.968   0.958
17549W        W83029  17.634   3.330   3.793
17550W        W83030  23.570  32.466  14.472
17551W        W83031  39.928  40.498   4.697
17552W        W83032   6.295  27.647   4.235
17553W        W83033  41.911  17.573  13.399
17554W        W83034  27.608  20.183  13.432
17555W        W83035   0.339  35.447  13.850
17556W        W83036  35.060  12.651   2.696
17557W        W83037  16.295  17.109   4.172
17558W        W83038  42.390  14.811   0.878
17559W        W83039   8.727  37.860   4.753
17560W        W83040  43.351   8.722   3.188
17561W        W83041  13.783  17.093   3.226
17562W        W83042  24.669  39.402  14.826
17563W        W83043   6.239  29.073  12.896
17564W        W83044  26.122   1.952   4.655
17565W        W83045  11.748  35.100   5.250
17566W        W83046  20.254  21.126  10.435
17567W        W83047  15.247   0.259  10.532
17568W        W83048  24.521  33.516  13.024
17569W        W83049   6.768   6.796  13.850
17570W        W83050  38.557  42.370  14.317
17571W        W83051  29.048   2.921   1.817
17572W        W83052  17.239  29.053   3.798
17573W        W83053  24.482   4.710  10.551
17574W        W83054  10.284  30.561   4.668
17575W        W83055  20.170  33.605  12.861
17576W        W83056  44.989  16.656   0.468
17577W        W83057  28.538  25.646  12.467
17578W        W83058  42.913  38.828   0.261
17579W        W83059  10.198  13.120  14.789
17580W        W83060  28.077   5.427   1.380
17581W        W83061  14.607  24.631   1.412
17582W        W83062   4.823  13.757   4.269
17583W        W83063  36.582  36.997  12.342
17584W        W83064  33.496  42.425   3.767
17585W        W83065   7.684  26.556  14.375
17586W        W83066   4.430  43.778  13.923
17587W        W83067  14.734  44.766  13.986
17588W        W83068  20.200  42.379  10.908
17589W        W83069   1.405   4.773  10.412
17590W        W83070  10.650   1.277   1.409
17591W        W83071  40.349  33.465   0.748
17592W        W83072   8.404  30.492  14.995
17593W        W83073  12.803   5.710   2.886
17594W        W83074  14.224  26.509  11.052
17595W        W83075  36.578   4.298  10.620
17596W        W83076  13.635  23.136   3.855
17597W        W83077  24.080  31.965  11.126
17598W        W83078   1.264   3.394  12.945
17599W        W83079  39.893   5.373   1.904
17600W        W83080   4.783   0.376   0.798
17601W        W83081   5.250  21.224  11.448
17602W        W83082  35.011  37.012  11.950
17603W        W83083  23.572  12.675   0.769
17604W        W83084  43.912   5.359  14.301
17605W        W83085  18.209  26.081  13.407
17606W        W83086   0.974  20.086   0.745
17607W        W83087  21.249   0.478  10.988
17608W        W83088  15.310  25.657   0.460
17609W        W83089   5.868  41.932  10.937
17610W        W83090   6.256  28.593  10.949
17611W        W83091  26.957  34.555   0.805
17612W        W83092  13.701  41.835   0.917
17613W        W83093  24.039   5.323  14.501
17614W        W83094   6.276  19.197   1.300
17615W        W83095   2.242  16.658   2.818
17616W        W83096  24.696  17.084  10.576
17617W        W83097   7.362  14.281   3.826
17618W        W83098  34.911   9.868  14.480
17619W        W83099   2.940  38.840  11.582
17620W        W83100  36.386  35.070   0.750
17621W        W83101  10.672  33.476   4.122
17622W        W83102  30.576  27.069  11.012
17623W        W83103   9.244   7.710  14.799
17624W        W83104  17.084   5.797   4.200
17625W        W83105  15.814  36.349   3.287
17626W        W83106   9.840  15.594   4.266
17627W        W83107  44.296  36.930  12.444
17628W        W83108  39.400  14.303  11.436
17629W        W83109  20.687   8.390   0.894
17630W        W83110   3.435  30.943  13.439
17631W        W83111   4.447   8.364   4.604
17632W        W83112  37.005  28.514   1.259
17633W        W83113  23.069  42.859  10.455
17634W        W83114  15.087  28.594   1.312
17635W        W83115  39.947  25.478   0.397
17636W        W83116  15.607   5.759  11.083
17637W        W83117   8.664   2.843   1.837
17638W        W83118  14.757   3.306  14.985
17639W        W83119  25.156  12.248   3.338
17640W        W83120  14.702   6.256   2.357
17641W        W83121  23.092  27.667   0.756
17642W        W83122  31.616   9.242   0.762
17643W        W83123  34.970  11.325  12.088
17644W        W83124  44.770  20.767  11.475
17645W        W83125  40.452  12.191   0.387
17646W        W83126   5.797  34.105   1.821
17647W        W83127  33.096  31.552  12.425
17648W        W83128  21.022  13.227   1.754
17649W        W83129   8.740  39.525  13.009
17650W        W83130  39.858  25.624  12.440
17651W        W83131  44.412   4.296  13.943
17652W        W83132   8.255  40.936   1.318
17653W        W83133  34.012   4.890   1.814
17654W        W83134   2.349  41.846   2.819
17655W        W83135   9.369   7.774  13.818
17656W        W83136  13.712   5.795  11.597
17657W        W83137  16.725  42.005  11.413
17658W        W83138  37.998  20.593   1.413
17659W        W83139  37.507  36.977  14.827
17660W        W83140   1.482  39.056  14.846
17661W        W83141  10.338  23.019   3.383
17662W        W83142   3.394  13.628   0.354
17663W        W83143  20.693   0.259   5.190
17664W        W83144  20.562   2.334   0.452
17665W        W83145  39.843  34.564   2.767
17666W        W83146  34.604  36.515   0.944
17667W        W83147  35.879  39.936  14.915
17668W        W83148  19.694  37.365  14.432
17669W        W83149  33.097   4.219   4.355
17670W        W83150  38.894   0.849   4.131
17671W        W83151  30.069  19.199   1.417
17672W        W83152  43.442  44.780  12.467
17673W        W83153   8.378  43.410  13.966
17674W        W83154  10.331  35.934   1.398
17675W        W83155  36.873  15.160  10.541
17676W        W83156  16.311   8.810   2.735
17677W        W83157   8.322  43.902  14.423
17678W        W83158  14.333  44.311   5.261
17679W        W83159  22.680   7.219  13.802
17680W        W83160  37.935  22.207   0.249
17681W        W83161  18.775  19.745  10.417
17682W        W83162  16.141  24.067   2.880
17683W        W83163   3.280  20.755   3.200
17684W        W83164  41.814  44.347  14.419
17685W        W83165  20.214  16.673  13.433
17686W        W83166   3.843  18.215  13.307
17687W        W83167   4.846   0.971   2.879
17688W        W83168   1.350  34.610  14.849
17689W        W83169  31.574  25.558  13.020
17690W        W83170   4.397  19.564   4.333
17691W        W83171  38.841   8.686   0.408
17692W        W83172  30.017   8.185   3.321
17693W        W83173  43.795   0.800   4.221
17694W        W83174   1.261  32.947   0.306
17695W        W83175  26.573   3.319   4.648
17696W        W83176  34.611  24.067  12.496
17697W        W83177  36.367  29.500  11.067
17698W        W83178  14.673  26.958  13.431
17699W        W83179  36.078  22.105  14.977
17700W        W83180  43.943  32.018   0.885
17701W        W83181  37.344  34.567   2.227
17702W        W83182   5.300  31.593   2.389
17703W        W83183   5.802  42.821   0.916
17704W        W83184  18.744  23.057   0.962
17705W        W83185  11.154  44.944   1.346
17706W        W83186  43.348  22.539   3.247
17707W        W83187  43.438  21.134  13.832
17708W        W83188  37.410  17.147  10.474
17709W        W83189  32.540  43.364  14.351
17710W        W83190  29.560  28.672   2.377
17711W        W83191  28.650  11.845   2.256
17712W        W83192   0.430  25.097  10.568
17713W        W83193  30.049  26.182  14.879
17714W        W83194  28.006   7.381  14.479
17715W        W83195  33.889  22.036   0.263
17716W        W83196  11.734  15.662   0.445
17717W        W83197  28.048  17.226  14.284
17718W        W83198  35.015  27.687  11.007
17719W        W83199  31.994  33.119  10.486
17720W        W83200  33.557  41.009  11.965
17721W        W83201  23.715   0.844  11.961
17722W        W83202  28.046   6.352  12.043
17723W        W83203   2.383  32.543   4.221
17724W        W83204   5.732  38.051  13.852
17725W        W83205  18.247   5.372   2.378
17726W        W83206  37.893   2.747   0.360
17727W        W83207  21.599  14.334  11.552
17728W        W83208   0.321  30.105  12.357
17729W        W83209   1.258  43.386   1.711
17730W        W83210  25.007   9.199   0.764
17731W        W83211   9.868   6.743  13.503
17732W        W83212   5.354  22.662  12.344
17733W        W83213  16.662  26.125  13.511
17734W        W83214  31.919   3.304   0.424
17735W        W83215   1.286   2.451  12.510
17736W        W83216  27.450  39.916  13.509
17737W        W83217   5.931   6.343   1.277
17738W        W83218  13.618  27.970  12.453
17739W        W83219  32.400  38.405  14.944
17740W        W83220  23.552  15.818  11.485
17741W        W83221  21.120  24.155  13.307
17742W        W83222  32.007  29.603  10.643
17743W        W83223  22.096   5.307  10.998
17744W        W83224   4.356  25.533   4.251
17745W        W83225   0.473  16.653   2.700
17746W        W83226  13.738   9.710   4.343
17747W        W83227   2.374  28.441   2.817
17748W        W83228  21.224  35.043  12.494
17749W        W83229  20.558  41.817   1.317
17750W        W83230  24.991  42.380   1.865
17751W        W83231   5.767  42.837   3.232
17752W        W83232   2.858   0.805   0.289
17753W        W83233  21.246   3.318  14.031
17754W        W83234   3.274  33.035  13.810
17755W        W83235  12.311  29.068   3.867
17756W        W83236  14.167  44.995   3.775
17757W        W83237  18.086  34.079   2.320
17758W        W83238  37.857  36.887   1.723
17759W        W83239  35.906   6.235   4.655
17760W        W83240  10.813  42.032   3.194
17761W        W83241  18.599  43.795  11.112
17762W        W83242   6.888   7.336   1.322
17763W        W83243  39.349  23.499   4.635
17764W        W83244  28.020  12.297  11.468
17765W        W83245  44.288  29.486   0.890
17766W        W83246   5.870  13.288   3.304
17767W        W83247  32.015  43.280  11.417
17768W        W83248  34.388  10.700  11.882
17769W        W83249  36.448  37.440   5.090
17770W        W83250  37.485  44.863  11.574
17771W        W83251   7.773  43.356  12.076
17772W        W83252   2.766  32.974  11.069
17773W        W83253  43.345  34.403   2.864
17774W        W83254  28.969  12.685  10.975
17775W        W83255   9.210   1.288   3.322
17776W        W83256  29.650  25.170   1.339
17777W        W83257  10.752  13.184   4.256
17778W        W83258  11.645  15.655   1.247
17779W        W83259  30.153  42.324   1.879
17780W        W83260  22.151   1.867  13.307
17781W        W83261  16.660  18.644   3.252
17782W        W83262  16.238  39.030   1.250
17783W        W83263  12.183  18.650   4.327
17784W        W83264  11.253   5.269  10.937
17785W        W83265  19.709  37.853   3.195
17786W        W83266  26.099  28.544  13.400
17787W        W83267  26.546   8.768  11.859
17788W        W83268  11.248   2.774  13.814
17789W        W83269  40.342  17.159  11.497
17790W        W83270  28.567   4.768   4.134
17791W        W83271  36.375   0.446   2.734
17792W        W83272  37.576  37.009   1.915
17793W        W83273  42.902  28.607   2.296
17794W        W83274   6.231  12.154  12.017
17795W        W83275  12.688   5.341  13.512
17796W        W83276  19.150   6.860   4.768
17797W        W83277   5.299  15.750  11.437
17798W        W83278  35.450   1.788   3.726
17799W        W83279  31.151  12.632  10.010
17800W        W83280  44.767   8.832   2.376
17801W        W83281  12.792  34.448  11.877
17802W        W83282   4.279  34.371   0.753
17803W        W83283   8.161  33.490  13.874
17804W        W83284   1.297  13.686  11.070
17805W        W83285  27.191  23.650  14.979
17806W        W83286  34.927  21.071   5.182
17807W        W83287  37.936  32.949  12.461
17808W        W83288  13.620  29.116  12.491
17809W        W83289   4.724  35.390  13.974
17810W        W83290  29.434  22.667   5.201
17811W        W83291  30.149  14.726  10.603
17812W        W83292  40.898  29.562  12.885
17813W        W83293  10.169  39.011  12.505
17814W        W83294  33.558   4.855   0.938
17815W        W83295  21.185  38.850   1.382
17816W        W83296  42.954  44.497   2.291
17817W        W83297  32.059   2.278  11.433
17818W        W83298  35.579  24.059  14.815
17819W        W83299   6.876  19.587   3.263
17820W        W83300  15.716  15.763   4.640
17821W        W83301  40.049   3.947  13.548
17822W        W83302  17.178   3.826  12.958
17823W        W83303  28.681   3.228  11.456
17824W        W83304  22.179  14.716   3.223
17825W        W83305  24.976  27.553  11.906
17826W        W83306   0.787   2.803   1.241
17827W        W83307   3.792   2.959   1.387
17828W        W83308  15.615  17.665   1.405
17829W        W83309  24.658  25.619   3.338
17830W        W83310  44.462  24.544   0.918
17831W        W83311  10.328   5.815  14.763
17832W        W83312  21.705  27.997  14.861
17833W        W83313  29.165  21.089  12.983
17834W        W83314  26.168   1.896  14.921
17835W        W83315  14.196  30.912   2.301
17836W        W83316  21.700  32.460   0.901
17837W        W83317  19.173  43.841   1.378
17838W        W83318  25.118  25.001  14.781
17839W        W83319  23.690  29.570  10.914
17840W        W83320   2.733  35.555  11.423
17841W        W83321  20.048  44.480   0.733
17842W        W83322  35.063  17.155   4.658
17843W        W83323  39.811  41.313  13.475
17844W        W83324  37.842  16.187  11.571
17845W        W83325  18.648   7.743   2.353
17846W        W83326  35.474  24.128   0.838
17847W        W83327  16.748   0.974  14.300
17848W        W83328   2.945   9.346   2.735
17849W        W83329   4.278  31.130  14.846
17850W        W83330  33.937  27.139  11.041
17851W        W83331  19.260  10.733   0.874
17852W        W83332   7.761  21.632   3.255
17853W        W83333  25.076  20.529   0.247
17854W        W83334  39.376  19.258  12.449
17855W        W83335  19.565  29.644   1.728
17856W        W83336  33.007  29.148   1.357
17857W        W83337  44.802  31.519   2.868
17858W        W83338   1.285  19.266   1.916
17859W        W83339  11.760  43.282   1.429
17860W        W83340  26.134  31.415  11.090
17861W        W83341   9.282  18.055  14.773
17862W        W83342  17.238   0.773  14.295
17863W        W83343   4.705  38.056  12.086
17864W        W83344  16.730  28.952  11.479
17865W        W83345   9.738  33.499  12.037
17866W        W83346   8.175   0.972  14.448
17867W        W83347  15.652  25.100   3.175
17868W        W83348  44.269  42.825   2.752
17869W        W83349  17.263  14.692   3.692
17870W        W83350  14.705  39.810   1.319
17871W        W83351   1.393  44.904  12.923
17872W        W83352  18.625  20.136  12.972
17873W        W83353   0.328  39.969   0.370
17874W        W83354  22.538  44.905  14.473
17875W        W83355  11.728   3.434  13.395
17876W        W83356   3.720  11.794  14.765
17877W        W83357  18.618  38.005   3.202
17878W        W83358  28.126   9.673  13.058
17879W        W83359  25.006   2.295  11.972
17880W        W83360  32.026  19.092   0.271
17881W        W83361  36.591  10.247  13.867
17882W        W83362  23.621   0.912  13.998
17883W        W83363   2.378  24.099   0.365
17884W        W83364   9.890  15.293   0.410
17885W        W83365  35.860  39.940  13.483
17886W        W83366  41.868   9.728  12.933
17887W        W83367  27.980  26.049   4.143
17888W        W83368  43.797   1.269   4.173
17889W        W83369  23.023   6.775  12.039
17890W        W83370  19.540   4.378   0.756
17891W        W83371  43.291   8.781   1.756
17892W        W83372  18.239  28.116  11.971
17893W        W83373   1.364  25.998  10.423
17894W        W83374   9.774  35.477  13.819
17895W        W83375  38.496   2.419   2.676
17896W        W83376  15.259  20.523  13.482
17897W        W83377   8.783  28.505   3.222
17898W        W83378  12.264  11.755   3.765
17899W        W83379   8.805  27.492   2.272
17900W        W83380  24.178  43.826  11.544
17901W        W83381   0.261  14.682  11.868
17902W        W83382  26.954  33.550   0.397
17903W        W83383   3.828   9.309   2.207
17904W        W83384  18.629  24.594   5.190
17905W        W83385  16.159  22.585   4.200
17906W        W83386  33.034  42.988  13.844
17907W        W83387  28.028  14.654   1.302
17908W        W83388   3.866   9.237  12.526
17909W        W83389  25.490   7.322   2.216
17910W        W83390  41.827  21.117  13.545
17911W        W83391   9.699  34.558   2.771
17912W        W83392  41.901  11.345   2.682
17913W        W83393  23.655  15.774   4.182
17914W        W83394  32.957  39.888  13.963
17915W        W83395   4.929   5.220  11.073
17916W        W83396  31.630  29.964  10.907
17917W        W83397  37.939  14.675  13.985
17918W        W83398  19.167  33.961   5.208
17919W        W83399  15.810  42.460   3.374
17920W        W83400   9.231  18.727  10.558
17921W        W83401  41.800  24.005   3.740
17922W        W83402  17.661   4.904   0.867
17923W        W83403  35.976  28.121  11.087
17924W        W83404  38.404   0.456   1.758
17925W        W83405  19.610  16.151   0.871
17926W        W83406  14.648  11.178   0.482
17927W        W83407  29.950  22.682   0.282
17928W        W83408  29.966  18.111   2.797
17929W        W83409  22.704  29.003  11.517
17930W        W83410  18.196  25.485   3.345
17931W        W83411  12.204   0.951   4.327
17932W        W83412  40.406  18.216  13.056
17933W        W83413   0.873  15.294  13.384
17934W        W83414  40.341  39.510  10.536
17935W        W83415   7.374   1.387  10.598
17936W        W83416  14.312   9.735  13.473
17937W        W83417  37.410  42.406   1.740
17938W        W83418  41.478  20.683  13.877
17939W        W83419  20.155  25.704  13.485
17940W        W83420  17.795  18.119   2.708
17941W        W83421   4.940  37.067  14.346
17942W        W83422   3.369  25.647   0.391
17943W        W83423  33.605   5.696   4.118
17944W        W83424  13.828  25.183   2.407
17945W        W83425   9.230  18.716  14.415
17946W        W83426   2.296  40.933   1.400
17947W        W83427  28.437  33.902  10.990
17948W        W83428  26.521   2.460   3.696
17949W        W83429  43.984  24.185  14.963
17950W        W83430  27.539   7.781   2.744
17951W        W83431   6.220  37.082   2.235
17952W        W83432   8.265  41.859  10.550
17953W        W83433  24.718  14.717   1.342
17954W        W83434  40.038  30.979   3.383
17955W        W83435  19.730  16.223  14.399
17956W        W83436  18.097  12.770   1.881
17957W        W83437  14.716  34.969  13.801
17958W        W83438  34.435  14.677   0.855
17959W        W83439  23.013  25.076   1.340
17960W        W83440  33.875  27.054   1.784
17961W        W83441  10.848  22.125   2.242
17962W        W83442  21.036  10.807  13.384
17963W        W83443  35.003  40.492  12.461
17964W        W83444  28.517  30.044   1.366
17965W        W83445  10.138  27.959   0.378
17966W        W83446  28.977   8.809  13.527
17967W        W83447  39.903  23.683  13.924
17968W        W83448  28.930  11.700  14.308
17969W        W83449  15.263  11.806   1.810
17970W        W83450  18.195  31.132  14.353
17971W        W83451  33.913  14.158  10.546
17972W        W83452  11.311  12.727   2.896
17973W        W83453  34.879   1.317   4.273
17974W        W83454  32.026  38.013  10.548
17975W        W83455  25.144  14.098   4.649
17976W        W83456  27.651   9.658   2.836
17977W        W83457   9.157   6.874   2.705
17978W        W83458   1.847   4.879   4.697
17979W        W83459  21.149  44.827  14.286
17980W        W83460  11.811  23.590  12.001
17981W        W83461  13.206   9.850  11.914
17982W        W83462  29.468  10.729   2.418
17983W        W83463  16.685  19.242   3.344
17984W        W83464   0.386  23.046  14.486
17985W        W83465  40.988   1.749   4.682
17986W        W83466  35.435  41.399  13.316
17987W        W83467   8.192  24.007   1.796
17988W        W83468   7.733  30.609   5.130
17989W        W83469  20.753  16.736  12.857
17990W        W83470  20.078   6.910  11.031
17991W        W83471   9.311  44.895   0.384
17992W        W83472  14.325  14.317   0.879
17993W        W83473  38.941  29.924   1.766
17994W        W83474  18.575  41.414   2.361
17995W        W83475  39.971  42.855  13.359
17996W        W83476   6.273  10.361   4.675
17997W        W83477   0.453  13.261   4.307
17998W        W83478  29.090  35.991  12.936
17999W        W83479  37.490  32.443  13.821
18000W        W83480   3.746  16.210   3.285
18001W        W83481   3.951  31.055  13.855
18002W        W83482  28.607   9.739  12.085
18003W        W83483  31.464  23.529  14.800
18004W        W83484   7.196   1.383  12.546
18005W        W83485  33.957  42.450   2.706
18006W        W83486   3.256  40.900  11.049
18007W        W83487  14.185  40.981   9.440
18008W        W83488   9.793  19.282   4.620
18009W        W83489  20.679   7.845  11.448
18010W        W83490  35.901  20.095  13.483
18011W        W83491   3.387  34.507   2.277
18012W        W83492  24.556  30.588   4.674
18013W        W83493  10.356  12.169   3.372
18014W        W83494  36.471   2.777   2.695
18015W        W83495  21.533  20.241  10.546
18016W        W83496  41.389  33.477  14.996
18017W        W83497  22.244  43.416  13.821
18018W        W83498   6.252  37.897  11.607
18019W        W83499  39.869   6.252  13.406
18020W        W83500  18.296  41.031   3.303
18021W        W83501   2.757  32.890  14.780
18022W        W83502   8.363  24.094   0.273
18023W        W83503   5.835  14.193   4.638
18024W        W83504  40.541  12.738  11.586
18025W        W83505   0.388  25.647  11.378
18026W        W83506  14.664   3.425   0.846
18027W        W83507  42.793  28.101  10.533
18028W        W83508  25.105   0.896  13.506
18029W        W83509  11.365  37.397   2.713
18030W        W83510   0.783  31.046   2.274
18031W        W83511  37.412  43.468   5.246
18032W        W83512  37.858  16.736   1.699
18033W        W83513  10.142  44.958  10.638
18034W        W83514  42.354  17.689   0.831
18035W        W83515  15.657  30.122  10.412
18036W        W83516  31.902  15.690  14.326
18037W        W83517   6.717  16.741  12.084
18038W        W83518   9.202  17.170  12.462
18039W        W83519   5.891   1.760   3.320
18040W        W83520  13.298  33.433  12.874
18041W        W83521  11.235  31.599  12.376
18042W        W83522  41.398  38.971  11.059
18043W        W83523   7.902  44.378   1.742
18044W        W83524  20.076   5.816  13.919
18045W        W83525   8.337  34.039  13.310
18046W        W83526  23.058  35.600   0.944
18047W        W83527  31.961  16.144  13.817
18048W        W83528   2.915   3.250  14.786
18049W        W83529  42.404  26.088   0.781
18050W        W83530  36.963  11.659  12.011
18051W        W83531   5.376  34.915   3.191
18052W        W83532  20.703   7.385   4.752
18053W        W83533  37.907   2.437   0.358
18054W        W83534  19.580  10.185  13.539
18055W        W83535  31.003   1.935   0.863
18056W        W83536  28.097   7.755  14.441
18057W        W83537   6.256   2.748   3.846
18058W        W83538  30.971  33.407   0.876
18059W        W83539  34.526  34.032  14.382
18060W        W83540  43.014  35.890  13.878
18061W        W83541  29.000   8.847  13.815
18062W        W83542  29.933  40.834   3.359
18063W        W83543   7.815  44.858   4.629
18064W        W83544  25.527  13.317   3.773
18065W        W83545   9.833   8.673  14.456
18066W        W83546  20.179  20.577  14.020
18067W        W83547  36.850  43.809  10.498
18068W        W83548  24.994  30.089  11.867
18069W        W83549  11.758  44.826   3.222
18070W        W83550  41.430   3.430  10.474
18071W        W83551   8.707  34.937  10.967
18072W        W83552  29.635  28.956   2.255
18073W        W83553  13.241  38.558   2.793
18074W        W83554  33.994  28.660  11.946
18075W        W83555  36.513  40.037   2.207
18076W        W83556   0.481  15.252  11.961
18077W        W83557  29.594  15.119  11.490
18078W        W83558  22.585  18.183   3.704
18079W        W83559  15.597  26.652   4.731
18080W        W83560  38.538  16.807  12.051
18081W        W83561  19.585  32.982  13.517
18082W        W83562  21.059  30.475  14.897
18083W        W83563  31.441  37.377   3.344
18084W        W83564  29.013  22.034  11.117
18085W        W83565  33.891  25.559   1.445
18086W        W83566  42.000  26.609   2.214
18087W        W83567  38.470   7.909   0.460
18088W        W83568  19.236  39.314  14.346
18089W        W83569  40.034  27.147   1.745
18090W        W83570  38.922  18.154  14.291
18091W        W83571   3.286  44.797   0.438
18092W        W83572   8.737  18.589   0.334
18093W        W83573  16.194  15.315   1.697
18094W        W83574  25.627  27.971  10.977
18095W        W83575  14.273  26.539   2.802
18096W        W83576  29.009  29.154   3.305
18097W        W83577  22.572  33.402  10.415
18098W        W83578   2.368  35.945  12.414
18099W        W83579  41.835   8.310   2.281
18100W        W83580  16.812  41.502   1.436
18101W        W83581   7.320  22.550  12.461
18102W        W83582  25.703  11.336  11.384
18103W        W83583  37.448  17.291   3.249
18104W        W83584  32.558  18.231   2.727
18105W        W83585   1.304  30.599   0.888
18106W        W83586  15.609  16.248   1.920
18107W        W83587  30.487  17.739   4.292
18108W        W83588  21.236  10.224  10.992
18109W        W83589   7.850   7.744   0.396
18110W        W83590  44.948  30.638   3.767
18111W        W83591   0.317  17.646   1.724
18112W        W83592  37.465   6.316   5.219
18113W        W83593  44.862  18.191  14.389
18114W        W83594  20.201  11.670  10.424
18115W        W83595   1.451  17.727   2.674
18116W        W83596  43.904  10.291   4.727
18117W        W83597  40.046  31.137  11.483
18118W        W83598   0.854  16.695   2.709
18119W        W83599  14.135  25.657  14.019
18120W        W83600  40.351  12.647   9.934
18121W        W83601  17.287  41.405   0.355
18122W        W83602  28.040  41.912   2.869
18123W        W83603   0.442  26.625   3.795
18124W        W83604  37.085  44.261  10.044
18125W        W83605  24.015  38.901   4.722
18126W        W83606  11.841  14.615  14.478
18127W        W83607  14.714  29.624  11.576
18128W        W83608   6.348   4.758   2.314
18129W        W83609  26.498  22.669   1.300
18130W        W83610   7.345  16.761  14.339
18131W        W83611  28.987  15.689  14.425
18132W        W83612  10.340  24.113   0.259
18133W        W83613  22.540  18.146   4.736
18134W        W83614   0.382   9.700  11.607
18135W        W83615  28.593  39.506   5.190
18136W        W83616  11.791  38.939  12.467
18137W        W83617  13.826  33.582  13.938
18138W        W83618  34.493  43.966  11.066
18139W        W83619  31.101   5.928  13.494
18140W        W83620  28.441   2.276   3.164
18141W        W83621  26.117  12.665  13.813
18142W        W83622  41.876  41.790   0.893
18143W        W83623  23.534   1.241   4.712
18144W        W83624  42.325   0.890  12.869
18145W        W83625  31.965  44.774   3.376
18146W        W83626  25.086  42.833  12.827
18147W        W83627  40.913  43.897  11.952
18148W        W83628  11.764  34.056   1.396
18149W        W83629  43.800  18.248   2.338
18150W        W83630  20.181  40.480  14.470
18151W        W83631   1.856   9.156   4.719
18152W        W83632  12.802   2.441  12.506
18153W        W83633  22.199  12.156   4.206
18154W        W83634   4.321  34.417  10.045
18155W        W83635   3.449  28.156   3.656
18156W        W83636  37.985  38.458  10.420
18157W        W83637  16.282  31.127   0.382
18158W        W83638  15.772   1.820   5.129
18159W        W83639   1.972  14.747  14.769
18160W        W83640  24.485  41.333   2.715
18161W        W83641  35.023   7.335  10.441
18162W        W83642  30.044  27.110  11.972
18163W        W83643  12.786  30.911  11.864
18164W        W83644  14.618   8.707  10.514
18165W        W83645  42.346  22.587   3.153
18166W        W83646  40.818   7.182   3.839
18167W        W83647  16.650   9.856   3.807
18168W        W83648  19.051  22.078   3.697
18169W        W83649   2.403  24.130   0.964
18170W        W83650  43.845  27.676   4.708
18171W        W83651   4.893  40.874  11.094
18172W        W83652  17.062  33.097   0.813
18173W        W83653  10.743   9.287  10.616
18174W        W83654   8.332  19.098  14.402
18175W        W83655  13.767   9.327   3.829
18176W        W83656  35.938   1.739   1.872
18177W        W83657  32.993  39.021  10.610
18178W        W83658  38.926  21.025   0.782
18179W        W83659  11.786  44.278   0.344
18180W        W83660  16.312   6.724   3.822
18181W        W83661  44.782  27.079  10.645
18182W        W83662  10.666  30.946  14.889
18183W        W83663  33.103  36.459  14.871
18184W        W83664  13.239  20.570  12.046
18185W        W83665  25.607  42.309  13.501
18186W        W83666   5.829  15.241  14.478
18187W        W83667  23.082  34.914  10.534
18188W        W83668  34.553  34.428  12.563
18189W        W83669  33.874   9.218  11.456
18190W        W83670  34.962  31.641  14.287
18191W        W83671   4.434   5.906   4.729
18192W        W83672  14.108  16.667  14.760
18193W        W83673  18.122   6.880  14.459
18194W        W83674  36.866  24.702  12.034
18195W        W83675  18.177   8.402   1.313
18196W        W83676  36.560   3.909   3.257
18197W        W83677  21.652  36.586  12.580
18198W        W83678  36.096   6.380  14.444
18199W        W83679  12.144   5.266  12.009
18200W        W83680  11.826   5.281   3.739
18201W        W83681  40.817  27.450   4.271
18202W        W83682  38.841  24.206   3.777
18203W        W83683   9.369  30.518  14.383
18204W        W83684  44.451   8.261   1.447
18205W        W83685  32.946  31.101   4.339
18206W        W83686  38.417  36.023   4.736
18207W        W83687  43.872  25.683  14.936
18208W        W83688  38.844  32.922   3.828
18209W        W83689  19.633  39.468  14.515
18210W        W83690   2.326  13.114  11.428
18211W        W83691  20.561  12.827  13.809
18212W        W83692  27.447  44.276   4.791
18213W        W83693   2.871  44.863   4.756
18214W        W83694  30.587  12.169  12.362
18215W        W83695  35.889  41.855  11.464
18216W        W83696   3.881  28.489   2.896
18217W        W83697  36.090  38.452   4.788
18218W        W83698  20.758  24.680  11.989
18219W        W83699  23.658  27.448  12.862
18220W        W83700  13.224  26.513   1.443
18221W        W83701  16.745   6.309  13.863
18222W        W83702  20.650  36.489  11.565
18223W        W83703  13.307  25.598   0.397
18224W        W83704  40.973  30.517  13.036
18225W        W83705  29.926  31.452  12.365
18226W        W83706  25.984  20.165  13.387
18227W        W83707   1.861   2.297   3.810
18228W        W83708  31.127   5.716   1.218
18229W        W83709  14.338   6.271  14.852
18230W        W83710   3.435   3.364  13.805
18231W        W83711  34.003  11.348   2.411
18232W        W83712  35.019   2.407   3.245
18233W        W83713  40.373  13.683   1.303
18234W        W83714  18.051  30.500   0.892
18235W        W83715  40.037  40.046  14.953
18236W        W83716  28.025  32.532   4.162
18237W        W83717  37.927  41.828   3.839
18238W        W83718  29.987   3.302   2.824
18239W        W83719  32.102   7.700   1.809
18240W        W83720   6.356  36.873   3.266
18241W        W83721  22.999  41.015   4.670
18242W        W83722  34.422  34.558   4.743
18243W        W83723  23.037  15.109  14.812
18244W        W83724  22.565  38.402  14.453
18245W        W83725  16.730  27.691   3.699
18246W        W83726   1.960   1.477   2.689
18247W        W83727   6.676  43.909  14.411
18248W        W83728  22.631  22.747   2.879
18249W        W83729   3.846  23.727   1.804
18250W        W83730  30.005  13.347   3.834
18251W        W83731  14.275   0.842   2.793
18252W        W83732  12.159  30.033   2.693
18253W        W83733  27.594  20.145  11.092
18254W        W83734  33.510  10.190  10.934
18255W        W83735  22.030  34.884   0.283
18256W        W83736  35.583  20.051  14.283
18257W        W83737  31.491  42.873  14.403
18258W        W83738  36.041  36.360  13.307
18259W        W83739  28.991  13.705   3.299
18260W        W83740  31.403  44.424   3.808
18261W        W83741  40.434   2.250  13.934
18262W        W83742  34.894  21.632   4.132
18263W        W83743  33.447  29.020   0.299
18264W        W83744  34.489  10.360  11.390
18265W        W83745  42.346  42.364   0.853
18266W        W83746  32.399   4.374  13.326
18267W        W83747  12.808  13.751   3.161
18268W        W83748  14.796  44.501   5.763
18269W        W83749  13.737  32.043  10.498
18270W        W83750  15.265   9.733  12.571
18271W        W83751   9.267  20.527   0.383
18272W        W83752  16.618  20.662   1.398
18273W        W83753   3.400  35.858   0.852
18274W        W83754  30.563  20.219   1.747
18275W        W83755  28.997   7.281   4.825
18276W        W83756   5.723   3.392  11.994
18277W        W83757   0.310  10.646  14.929
18278W        W83758  24.156  31.444   4.639
18279W        W83759   1.899   4.304   3.338
18280W        W83760  22.578  21.179   3.763
18281W        W83761  14.284  34.526   4.241
18282W        W83762  12.826  24.010  11.572
18283W        W83763  43.280  28.171  12.519
18284W        W83764   4.902   2.967   1.885
18285W        W83765  44.499  40.516  11.953
18286W        W83766  40.843  39.920   1.841
18287W        W83767  21.209   5.712   1.323
18288W        W83768  13.604  44.319   1.819
18289W        W83769  38.888   1.362   4.253
18290W        W83770  44.272  18.140   2.398
18291W        W83771   3.294  12.809  12.397
18292W        W83772  39.876  37.938   2.708
18293W        W83773   7.223  28.956  13.486
18294W        W83774  32.429  16.187   3.197
18295W        W83775  18.623  40.310   0.737
18296W        W83776  23.996   5.196   0.406
18297W        W83777  11.679  14.815  10.582
18298W        W83778  33.044  26.576  13.955
18299W        W83779  14.327  22.170   2.681
18300W        W83780  44.921  31.928   1.346
18301W        W83781  19.567   0.486   3.217
18302W        W83782  34.965   3.273  14.923
18303W        W83783   8.164  38.346   2.884
18304W        W83784   8.700  12.802  11.521
18305W        W83785  44.502   4.845  12.559
18306W        W83786   1.373   0.968  14.303
18307W        W83787   4.330  42.029   2.369
18308W        W83788   8.389  36.941  11.473
18309W        W83789  19.208  22.198   1.277
18310W        W83790  30.040   5.781   1.427
18311W        W83791   0.787   7.366   4.339
18312W        W83792   5.719  43.862  10.984
18313W        W83793   1.963  21.037  10.060
18314W        W83794  18.143  44.490   3.150
18315W        W83795  22.085  32.964   0.833
18316W        W83796  27.192  25.624  13.047
18317W        W83797  29.469  38.070   4.237
18318W        W83798  33.949  36.918   2.322
18319W        W83799   1.325  30.907   2.669
18320W        W83800   0.769  20.628  13.862
18321W        W83801  31.146   6.348   4.223
18322W        W83802   6.369  24.622  12.346
18323W        W83803  29.647  34.387  11.609
18324W        W83804  28.986  27.685   1.262
18325W        W83805  35.576  23.572   0.932
18326W        W83806  26.028  20.157  14.848
18327W        W83807  21.676  39.867  11.416
18328W        W83808  14.604  24.225  12.525
18329W        W83809  24.100  27.590  11.872
18330W        W83810   9.865   7.343   4.806
18331W        W83811  34.949  31.116   2.859
18332W        W83812  25.697  22.611   0.779
18333W        W83813  26.069  24.539   2.803
18334W        W83814  14.127   8.800  12.077
18335W        W83815  30.020  31.500   0.868
18336W        W83816  10.638  12.694   3.226
18337W        W83817  42.004  27.608  12.968
18338W        W83818  38.443   0.285   2.330
18339W        W83819  29.035  38.360   4.126
18340W        W83820  21.261  35.933   1.418
18341W        W83821  42.474  21.091  14.956
18342W        W83822   1.733  15.299   1.761
18343W        W83823  38.471  42.794   0.799
18344W        W83824  26.066   2.905  11.484
18345W        W83825  42.800  35.470   2.666
18346W        W83826  15.246   2.950  13.937
18347W        W83827   2.924  11.756   4.815
18348W        W83828  35.992  34.097   0.368
18349W        W83829   1.237  26.580  13.815
18350W        W83830  38.915  34.071   3.257
18351W        W83831  38.051  39.937  11.902
18352W        W83832  35.572  25.103  14.418
18353W        W83833  11.361  29.642  14.333
18354W        W83834  29.981   3.222   0.245
18355W        W83835   0.252  36.989  13.057
18356W        W83836  14.803  38.852   1.339
18357W        W83837  15.795  11.690   0.744
18358W        W83838  13.186  17.662  12.572
18359W        W83839  30.941  15.616   2.254
18360W        W83840  42.818  22.998   2.247
18361W        W83841  36.414  44.408  14.326
18362W        W83842   6.896  44.479   1.312
18363W        W83843  10.871  28.599  10.403
18364W        W83844  32.588  44.457  12.384
18365W        W83845  12.745  35.951   3.691
18366W        W83846  31.001  14.798   1.237
18367W        W83847  13.656   9.281  13.805
18368W        W83848   5.199  38.533   2.705
18369W        W83849  33.026   5.804  13.375
18370W        W83850   7.741  15.648  14.835
18371W        W83851  37.961   7.413  14.814
18372W        W83852  39.550   6.799   2.886
18373W        W83853  29.620  42.863  13.506
18374W        W83854   6.805  32.991  13.519
18375W        W83855  15.156  26.005  12.446
18376W        W83856  29.136   9.333  12.480
18377W        W83857  10.370   0.285  13.969
18378W        W83858  38.445  40.935  12.458
18379W        W83859  16.786   9.393  11.560
18380W        W83860  31.066  27.623  13.906
18381W        W83861  20.708  13.274  12.918
18382W        W83862  27.063   1.772  12.383
18383W        W83863  28.492   2.422  11.082
18384W        W83864  33.877   4.333   2.667
18385W        W83865  35.973  27.147  13.976
18386W        W83866  24.980  43.387  11.103
18387W        W83867  26.052  33.013  12.435
18388W        W83868  31.405  23.230  11.058
18389W        W83869   7.732  43.271   2.412
18390W        W83870  26.980  28.033   0.875
18391W        W83871  44.973   5.716  13.865
18392W        W83872  16.307  17.177   4.670
18393W        W83873  39.469  26.109   3.205
18394W        W83874  32.436   8.715  10.604
18395W        W83875  10.239   4.839   0.898
18396W        W83876  20.759  43.876   0.389
18397W        W83877  20.650  21.080  10.494
18398W        W83878  22.077  16.122  11.888
18399W        W83879  42.831  14.255   1.859
18400W        W83880  20.679  14.687  14.498
18401W        W83881  36.547   3.404   0.379
18402W        W83882  29.166   3.396   2.280
18403W        W83883   4.775  11.246   0.481
18404W        W83884  34.600  26.014   3.706
18405W        W83885   5.258   4.786  11.073
18406W        W83886  39.016  14.215  10.641
18407W        W83887  42.780  21.079   3.729
18408W        W83888  21.594  23.074   1.756
18409W        W83889  32.578  23.655  12.999
18410W        W83890  33.567  16.803   4.277
18411W        W83891  18.176  20.041   4.824
18412W        W83892   2.721  12.256  11.585
18413W        W83893  17.164  44.973   1.213
18414W        W83894  13.214  43.985  12.440
18415W        W83895  17.249  16.263  13.852
18416W        W83896  24.178   9.344  10.149
18417W        W83897   9.233   9.280  13.410
18418W        W83898  17.662  40.020   3.737
18419W        W83899   5.220   1.474   1.906
18420W        W83900  32.619  22.530   2.676
18421W        W83901  14.161  20.705  13.846
18422W        W83902  30.039  34.436  10.935
18423W        W83903   0.303   4.938  11.893
18424W        W83904  22.743  43.297   4.682
18425W        W83905  38.943  21.723   1.305
18426W        W83906   3.887  38.967  12.961
18427W        W83907  39.547  30.539  11.573
18428W        W83908  18.722   0.422   4.150
18429W        W83909   2.340   6.692  14.381
18430W        W83910  26.115  17.709   0.959
18431W        W83911   2.433  12.309  13.872
18432W        W83912  17.158  13.656   3.366
18433W        W83913  25.054  40.844   0.478
18434W        W83914   7.910   7.785  14.345
18435W        W83915  21.202  26.517   1.404
18436W        W83916   1.786  29.082  11.899
18437W        W83917  31.944  36.094  11.085
18438W        W83918  44.951  23.173   1.361
18439W        W83919   9.676  43.374  11.381
18440W        W83920  41.989  39.909  13.974
18441W        W83921  10.824  39.888   2.861
18442W        W83922  16.772  30.616   0.323
18443W        W83923  29.437   8.802  11.882
18444W        W83924  33.010  16.675   2.710
18445W        W83925  20.733  19.727  11.068
18446W        W83926  44.831  36.967  10.466
18447W        W83927  37.022  36.959  11.003
18448W        W83928   0.384  15.668  12.444
18449W        W83929  14.739  12.771  10.597
18450W        W83930   9.732  40.373  14.027
18451W        W83931  42.892  33.461  12.035
18452W        W83932  13.816  16.204   0.354
18453W        W83933  34.556   9.154  11.885
18454W        W83934  32.901  21.097   4.704
18455W        W83935  28.966  16.259   4.656
18456W        W83936  19.730  18.544   2.187
18457W        W83937   9.883  31.052  13.791
18458W        W83938  20.210  27.006  11.447
18459W        W83939  29.942  41.908  14.892
18460W        W83940  16.722  29.921   2.342
18461W        W83941  24.564  34.113   0.871
18462W        W83942  14.810  42.882  13.479
18463W        W83943  16.697  25.705   1.400
18464W        W83944  29.936  22.561  13.523
18465W        W83945  39.553  12.697  13.440
18466W        W83946  24.658  11.708   4.599
18467W        W83947  13.259  24.617  11.121
18468W        W83948  27.130  22.148   4.162
18469W        W83949   8.349   7.278   2.244
18470W        W83950  32.507  29.997  10.641
18471W        W83951  41.317  35.917   0.822
18472W        W83952  28.966  37.877  10.525
18473W        W83953  29.642   3.220  11.394
18474W        W83954  19.227  11.744   3.801
18475W        W83955   3.937  28.597  12.916
18476W        W83956  26.142  18.658  10.610
18477W        W83957  39.910  23.104   1.300
18478W        W83958  37.045   1.364  13.496
18479W        W83959   1.294  35.562  10.642
18480W        W83960  23.573   5.358  12.966
18481W        W83961   5.218  31.533   4.798
18482W        W83962  35.961  31.921   3.329
18483W        W83963  18.698  18.125  14.374
18484W        W83964  11.258  37.338   3.811
18485W        W83965  26.606   3.735  12.003
18486W        W83966  35.853   5.209  10.997
18487W        W83967  23.662  15.238   1.788
18488W        W83968  30.424  10.209  14.300
18489W        W83969  26.967  18.105  10.586
18490W        W83970  41.894  32.963   4.732
18491W        W83971  24.005  26.591  14.016
18492W        W83972  34.063   9.748   1.304
18493W        W83973  28.587  20.076   4.755
18494W        W83974   9.658  22.155   0.851
18495W        W83975  26.005  30.489   3.347
18496W        W83976   5.754   4.364   2.379
18497W        W83977   8.355  28.039   2.661
18498W        W83978  43.773   1.962  11.988
18499W        W83979  30.428  23.158   3.373
18500W        W83980  36.977  21.210  14.912
18501W        W83981  39.857  36.002   3.636
18502W        W83982   9.844  28.094   2.196
18503W        W83983  13.183  31.572  11.937
18504W        W83984   1.966  18.162  12.506
18505W        W83985  10.649  40.311   2.370
18506W        W83986  19.537  16.156   1.425
18507W        W83987   6.313  40.522  10.948
18508W        W83988  13.277  17.107   2.373
18509W        W83989  41.970  34.906  12.861
18510W        W83990   2.901  20.617   0.877
18511W        W83991   6.422   6.873   0.471
18512W        W83992  23.007  37.396   4.824
18513W        W83993  13.256  16.316  12.076
18514W        W83994  23.126  21.697  11.575
18515W        W83995  39.346  14.648  14.304
18516W        W83996  21.117  29.662  13.034
18517W        W83997  32.436  15.620   4.216
18518W        W83998  28.542  31.953   5.098
18519W        W83999  42.923  12.291  12.918
18520W        W84000  17.304  39.017   4.193
18521W        W84001  36.488  17.603  10.631
18522W        W84002  13.695  13.234   4.733
18523W        W84003   9.166  39.454  10.480
18524W        W84004  41.412  21.694  13.919
18525W        W84005   4.721  10.373   3.207
18526W        W84006  40.019  12.761  13.416
18527W        W84007  27.169  16.746   1.882
18528W        W84008  34.531   6.683  14.474
18529W        W84009  34.387   2.311  14.302
18530W        W84010  17.749  13.307   1.762
18531W        W84011  34.593  34.925   0.420
18532W        W84012  20.544   3.222   1.231
18533W        W84013  12.303  15.651  11.125
18534W        W84014   2.329  15.807   4.132
18535W        W84015  32.133  38.002  14.839
18536W        W84016  10.646  16.273   3.704
18537W        W84017  43.794  44.874  13.314
18538W        W84018  37.834  23.735  11.940
18539W        W84019   2.439   0.469  10.159
18540W        W84020  25.120   3.895  12.830
18541W        W84021   7.836  19.608   3.326
18542W        W84022  38.917  34.905   1.884
18543W        W84023  23.578   9.854  13.876
18544W        W84024  32.434  41.478  11.597
18545W        W84025  36.027  28.663  11.532
18546W        W84026  37.040  19.652   1.726
18547W        W84027   6.399  38.045   0.932
18548W        W84028  39.368  21.200  10.904
18549W        W84029  10.228  13.818   2.745
18550W        W84030  32.568   1.818   3.761
18551W        W84031  42.899  28.567  12.021
18552W        W84032  22.634   7.798   0.820
18553W        W84033  38.505  35.095  10.507
18554W        W84034   9.851  43.362  13.060
18555W        W84035  41.835  30.593  14.276
18556W        W84036  16.783  36.946  12.880
18557W        W84037  15.718  43.995  14.974
18558W        W84038   0.302  24.140  11.442
18559W        W84039  43.879   5.249   2.705
18560W        W84040  22.049  30.575  13.492
18561W        W84041  16.271  19.112  10.939
18562W        W84042  33.498  25.686   4.810
18563W        W84043  23.640  44.499   3.719
18564W        W84044   9.342   4.805  11.463
18565W        W84045  33.506  19.598  14.385
18566W        W84046   7.272  23.655   2.859
18567W        W84047  36.391  16.188  12.990
18568W        W84048   5.742  26.520   4.276
18569W        W84049  41.014  19.068  13.909
18570W        W84050  26.657  28.964  14.323
18571W        W84051   7.285  33.577  13.982
18572W        W84052  21.070  33.535  11.382
18573W        W84053   7.743   1.914  14.822
18574W        W84054  18.226  41.899   1.220
18575W        W84055   4.219  24.480  10.998
18576W        W84056  19.247  36.877   2.788
18577W        W84057  43.992  18.716  12.004
18578W        W84058  17.677  30.509   2.215
18579W        W84059   5.882   2.771  10.422
18580W        W84060  44.786   8.736  10.908
18581W        W84061  43.387  30.467  13.914
18582W        W84062   5.888   4.723  14.002
18583W        W84063   9.325  13.712   2.668
18584W        W84064  14.663  31.595   2.874
18585W        W84065  10.865  33.925  14.764
18586W        W84066  22.082  12.140  11.426
18587W        W84067   5.914  29.165  12.577
18588W        W84068  16.083   3.377   3.653
18589W        W84069  30.466  42.864   3.314
18590W        W84070  21.181  24.560   2.392
18591W        W84071  34.539  28.566   0.457
18592W        W84072  15.248   0.944  14.829
18593W        W84073  21.731  11.314   0.856
18594W        W84074  29.608  18.239   0.401
18595W        W84075  31.970  27.512  11.113
18596W        W84076  14.792   1.823  14.326
18597W        W84077   0.838  18.153   0.909
18598W        W84078  20.730   6.262  14.484
18599W        W84079  11.321  26.546   2.776
18600W        W84080  24.092  44.281   3.353
18601W        W84081   4.914   1.860   0.414
18602W        W84082  38.885   4.423   1.894
18603W        W84083  17.744  17.647   2.868
18604W        W84084   8.753  39.341   4.817
18605W        W84085  39.333   1.257   0.883
18606W        W84086  22.568  41.502   0.425
18607W        W84087  16.305  33.554   9.658
18608W        W84088  10.793  30.931  13.792
18609W        W84089  35.018   7.372   1.785
18610W        W84090   1.338  42.344  12.391
18611W        W84091  13.675  18.063  13.855
18612W        W84092  33.103   6.798   0.276
18613W        W84093  20.032  24.034  10.544
18614W        W84094  12.644   2.722   1.353
18615W        W84095  44.821  10.277   3.300
18616W        W84096  31.420  10.769   1.866
18617W        W84097  24.721  43.424   1.307
18618W        W84098   4.937  32.948   4.728
18619W        W84099   7.314  40.880  13.461
18620W        W84100  24.165  19.167   4.192
18621W        W84101  21.173  13.655   1.403
18622W        W84102  26.522  44.963  10.923
18623W        W84103  27.623  13.254  14.988
18624W        W84104  12.117  20.271   1.306
18625W        W84105  19.598  32.027  12.948
18626W        W84106  37.942   1.950  12.915
18627W        W84107  14.291  26.481  14.996
18628W        W84108  27.642  31.988  10.624
18629W        W84109  44.388  14.341   3.333
18630W        W84110  19.756   4.929  11.018
18631W        W84111  26.003  30.118  10.581
18632W        W84112   2.362  40.893   0.786
18633W        W84113  32.969  31.025  14.799
18634W        W84114   4.804  28.611  14.448
18635W        W84115   2.439   0.299  14.926
18636W        W84116  29.157  39.514   9.572
18637W        W84117   5.412  19.280   0.916
18638W        W84118  29.431  27.973  12.840
18639W        W84119  39.883   7.677   3.374
18640W        W84120  29.459  30.945  10.503
18641W        W84121  32.098   1.251   4.740
18642W        W84122  15.699   8.854   0.396
18643W        W84123  43.487  15.324   3.146
18644W        W84124  20.110  16.748  12.388
18645W        W84125  13.782  27.969   1.850
18646W        W84126  41.825  17.653   0.395
18647W        W84127  26.156  24.647   0.429
18648W        W84128  14.702  17.246  11.966
18649W        W84129  44.324  29.103   2.825
18650W        W84130  23.065  37.080   0.461
18651W        W84131  21.120  22.190   1.278
18652W        W84132  34.867  24.007   4.342
18653W        W84133  41.443   0.937   0.438
18654W        W84134  15.194  34.079  14.974
18655W        W84135  35.874   2.758  14.391
18656W        W84136   2.328  29.551  10.085
18657W        W84137  38.362  14.652  14.816
18658W        W84138   5.274   6.919   0.264
18659W        W84139  35.975   9.849  13.428
18660W        W84140  42.515  19.229  12.566
18661W        W84141  10.368  22.629  11.081
18662W        W84142  37.391   7.295   3.824
18663W        W84143  11.195  19.182  13.445
18664W        W84144  32.403  26.557   0.376
18665W        W84145  23.034   1.974   2.749
18666W        W84146  39.506  23.134   4.278
18667W        W84147  12.762   7.409   1.210
18668W        W84148  41.365   2.953   1.245
18669W        W84149  16.119  31.116   1.276
18670W        W84150   3.710   2.808   2.192
18671W        W84151  29.596  40.863   3.223
18672W        W84152  35.036  30.147   4.616
18673W        W84153  36.589  23.646  10.921
18674W        W84154   9.344  25.984  12.406
18675W        W84155  21.205  22.148  14.442
18676W        W84156   8.206  14.654   4.251
18677W        W84157   5.931  37.557   2.678
18678W        W84158  22.698   5.196   3.256
18679W        W84159  23.071  24.705  13.430
18680W        W84160   8.301  37.347   2.243
18681W        W84161  32.636  40.985  12.357
18682W        W84162   4.373  14.710   1.922
18683W        W84163  14.750  38.049  13.883
18684W        W84164  33.569  30.596  13.846
18685W        W84165  33.012  43.419   0.899
18686W        W84166  12.802  24.684   0.314
18687W        W84167  20.123  29.585  13.846
18688W        W84168  34.966  37.443  14.931
18689W        W84169  25.072  29.565   3.203
18690W        W84170   3.710  34.940  12.372
18691W        W84171  43.770  19.213  14.011
18692W        W84172  17.566   3.738  10.462
18693W        W84173  44.345  11.226  13.950
18694W        W84174  18.651  32.486   2.823
18695W        W84175  23.137   8.330   0.365
18696W        W84176   4.785  19.775  13.982
18697W        W84177  18.237  37.466  12.391
18698W        W84178  27.637  17.679  13.033
18699W        W84179  31.448  14.154   0.897
18700W        W84180  32.073  44.931  14.006
18701W        W84181  33.562  17.709  10.510
18702W        W84182  17.760  12.847  13.473
18703W        W84183   5.439  11.710   0.339
18704W        W84184  18.216  39.395   4.239
18705W        W84185  10.676  29.663   3.260
18706W        W84186  31.478  26.627   4.622
18707W        W84187  30.638  33.908   4.682
18708W        W84188  29.967  25.626  10.952
18709W        W84189   2.227   5.907  11.870
18710W        W84190  34.523  22.718  11.527
18711W        W84191  36.404   6.694  12.094
18712W        W84192  43.311  43.806   1.697
18713W        W84193  28.999  24.994   0.955
18714W        W84194  43.280   1.880   0.878
18715W        W84195  22.636  12.161   4.239
18716W        W84196  17.232  36.405   5.266
18717W        W84197  15.760   3.730  12.910
18718W        W84198  37.945  37.928   0.425
18719W        W84199  13.774  17.576  11.902
18720W        W84200  39.061  44.446  11.605
18721W        W84201   5.811  17.180   4.830
18722W        W84202   2.383   6.339   4.220
18723W        W84203  33.560  32.063   1.838
18724W        W84204  26.576  24.067  13.496
18725W        W84205  30.064   3.428  11.994
18726W        W84206  39.356  32.532  12.578
18727W        W84207  26.203   1.752   1.753
18728W        W84208  41.928  10.654   2.704
18729W        W84209  27.499  27.078   1.297
18730W        W84210  37.882   8.734  13.437
18731W        W84211  19.203  18.126   2.685
18732W        W84212  34.953   0.767  14.298
18733W        W84213  14.206  16.188   3.829
18734W        W84214   0.459  42.348   0.460
18735W        W84215  16.610  32.938  12.995
18736W        W84216  14.147  32.612  12.558
18737W        W84217  11.284  32.114  14.024
18738W        W84218  11.691  36.460  11.492
18739W        W84219  32.084  35.469   1.722
18740W        W84220  29.016  23.996   0.313
18741W        W84221  15.806  15.700   1.856
18742W        W84222  24.160  15.812  13.944
18743W        W84223  40.837  41.328  14.787
18744W        W84224   6.300  44.354   5.106
18745W        W84225  35.016  38.018   3.260
18746W        W84226  25.985   4.918  13.019
18747W        W84227  21.107  14.100  12.965
18748W        W84228  12.267  24.628   3.664
18749W        W84229  38.874  42.027  10.443
18750W        W84230  29.454  12.640  13.463
18751W        W84231  36.012  35.427   1.302
18752W        W84232  24.004   1.968   3.194
18753W        W84233  11.305  18.051   0.326
18754W        W84234  21.073  33.126   1.336
18755W        W84235  15.771   3.844  13.853
18756W        W84236  30.958  12.278   2.773
18757W        W84237  27.123  24.044  14.848
18758W        W84238  28.622   5.890   0.802
18759W        W84239  26.533  14.614   4.779
18760W        W84240  34.051   2.356  14.767
18761W        W84241  44.352  16.609   4.235
18762W        W84242  19.235  11.675  11.387
18763W        W84243   0.743  35.521  12.000
18764W        W84244  21.703  22.199  12.004
18765W        W84245  15.639  18.613  10.446
18766W        W84246  19.755   4.727   5.094
18767W        W84247   7.802  10.335   0.779
18768W        W84248  33.996  40.373  11.945
18769W        W84249  38.360  32.977  14.872
18770W        W84250   7.691  34.504   3.350
18771W        W84251  28.963  35.009   3.665
18772W        W84252  23.709  21.737   1.241
18773W        W84253  10.217  33.440  12.876
18774W        W84254   5.396  39.824   4.731
18775W        W84255  44.891  14.214   1.374
18776W        W84256  38.986  32.591   3.710
18777W        W84257  40.020   0.473   3.804
18778W        W84258  10.268  39.856  13.035
18779W        W84259  17.743  13.627   3.738
18780W        W84260   1.908  15.132   2.360
18781W        W84261  39.860  17.114  11.087
18782W        W84262  39.951  16.109   3.707
18783W        W84263  38.477  26.173  14.502
18784W        W84264  23.117   1.838  14.401
18785W        W84265  24.188  34.396  11.442
18786W        W84266  14.238   4.814   0.314
18787W        W84267  11.360  39.966   4.681
18788W        W84268  38.939  30.579   0.950
18789W        W84269  37.460   6.908   1.271
18790W        W84270  33.516  30.092  11.953
18791W        W84271  22.085  14.777   0.365
18792W        W84272   0.797  29.494  11.933
18793W        W84273  39.453  36.952  11.565
18794W        W84274   3.929  21.637   3.252
18795W        W84275  21.599  11.698   2.214
18796W        W84276  20.075  12.196   0.933
18797W        W84277   1.467  32.972   5.211
18798W        W84278  16.168  32.973  14.376
18799W        W84279  28.123   5.857   0.261
18800W        W84280   0.956  20.566   4.145
18801W        W84281   0.980   9.372  10.893
18802W        W84282  27.579   5.342   0.289
18803W        W84283  10.708  18.654  10.475
18804W        W84284  10.719  30.415  14.955
18805W        W84285   5.906  25.543  14.008
18806W        W84286   9.781  34.940  10.956
18807W        W84287  17.769  32.465   0.392
18808W        W84288  30.528  29.500   1.349
18809W        W84289  33.993  33.121   0.872
18810W        W84290  39.893  22.026   4.630
18811W        W84291  26.600   9.692   4.355
18812W        W84292  22.564  35.938  12.879
18813W        W84293  34.891  12.140  14.015
18814W        W84294  38.830  23.059   4.763
18815W        W84295   6.249  32.953   4.284
18816W        W84296   7.724  40.393  12.461
18817W        W84297  15.740  22.237  14.850
18818W        W84298  38.851  38.908   1.343
18819W        W84299  42.489   3.904   3.251
18820W        W84300  11.247  13.243   0.410
18821W        W84301  42.854  10.812  13.002
18822W        W84302  33.078   2.838   0.366
18823W        W84303  44.391  24.128  11.027
18824W        W84304  28.151  23.987   3.195
18825W        W84305  16.147  40.804   2.342
18826W        W84306  42.342  26.200   3.688
18827W        W84307  44.412   2.736   3.299
18828W        W84308  20.255  34.438  14.364
18829W        W84309   7.236  33.888  11.494
18830W        W84310  28.563  16.725   0.252
18831W        W84311  37.902  26.524  13.314
18832W        W84312  36.025  30.448   4.119
18833W        W84313  40.486  43.814   0.259
18834W        W84314  38.986  28.519  12.503
18835W        W84315  44.341  29.563  13.459
18836W        W84316   3.295  14.326  13.952
18837W        W84317  23.058  30.043   1.703
18838W        W84318  36.095   4.791   0.394
18839W        W84319  29.586   5.355   2.277
18840W        W84320  33.931  29.142   1.701
18841W        W84321   4.836  38.019  12.851
18842W        W84322  27.943  12.357  11.875
18843W        W84323  25.666  25.081   2.902
18844W        W84324  15.726  13.690  13.852
18845W        W84325  35.082  13.753  12.580
18846W        W84326   9.381  29.928   4.195
18847W        W84327  12.254   8.735  10.406
18848W        W84328  34.944  12.640   1.723
18849W        W84329  43.337  27.940  10.956
18850W        W84330   7.816  11.178   4.719
18851W        W84331  19.232   9.283   3.226
18852W        W84332   8.880   9.335   0.858
18853W        W84333  42.009  23.526   2.796
18854W        W84334  31.941  33.123  11.371
18855W        W84335  38.924  38.350  12.405
18856W        W84336   9.767   4.788   1.437
18857W        W84337  15.804   3.393  14.861
18858W        W84338  22.214  35.035   3.279
18859W        W84339  19.752  34.580   2.885
18860W        W84340  17.612  35.905  14.395
18861W        W84341  37.442  42.883   1.922
18862W        W84342  43.948  44.854   3.331
18863W        W84343  23.732   4.338   2.784
18864W        W84344  35.861  36.869   0.854
18865W        W84345  33.064   3.341   4.772
18866W        W84346  18.188  33.566  13.929
18867W        W84347   2.838  31.918  11.890
18868W        W84348   9.841  26.975   3.292
18869W        W84349   3.748  11.682   3.295
18870W        W84350  39.043  33.467  13.418
18871W        W84351  18.067  31.504  13.056
18872W        W84352  14.264  35.008   3.256
18873W        W84353  20.265   4.424   4.116
18874W        W84354   6.410  22.150   2.672
18875W        W84355   9.690  20.073  10.439
18876W        W84356   7.286  36.530   0.333
18877W        W84357  36.498   9.733  13.354
18878W        W84358  37.446  28.158  12.535
18879W        W84359  18.156  23.219  13.352
18880W        W84360  14.669   5.215   2.373
18881W        W84361  14.773  28.163  11.087
18882W        W84362   0.879  23.053   3.630
18883W        W84363  37.382  15.302   0.907
18884W        W84364  31.042  41.463  10.915
18885W        W84365  36.872  30.548  14.946
18886W        W84366   4.331  11.359   4.197
18887W        W84367  27.691  25.500  12.923
18888W        W84368  12.670  26.633  12.953
18889W        W84369   2.813  29.475   3.383
18890W        W84370  16.764  28.164   1.892
18891W        W84371  29.039  44.461  12.057
18892W        W84372   6.740  20.241   0.455
18893W        W84373  30.506  43.440  10.159
18894W        W84374  41.993   7.706   1.810
18895W        W84375  13.770   0.258   2.367
18896W        W84376  13.696  22.064   3.218
18897W        W84377   1.339   6.804   0.390
18898W        W84378   1.411  18.118  12.924
18899W        W84379  37.353   8.391   4.687
18900W        W84380   3.932  40.049  11.429
18901W        W84381  33.877  40.942  11.096
18902W        W84382  11.135  21.068  12.398
18903W        W84383  33.502  23.025   1.813
18904W        W84384  23.213  27.668  12.087
18905W        W84385   8.671  31.984   1.833
18906W        W84386  17.238  14.243   2.285
18907W        W84387  23.008  32.119   2.671
18908W        W84388  35.457  17.232  14.275
18909W        W84389  30.510   4.446  13.958
18910W        W84390   0.840   5.868  12.093
18911W        W84391  33.626  27.053   1.372
18912W        W84392  33.045  38.350  12.472
18913W        W84393  17.294  32.947  14.469
18914W        W84394  34.875  37.936  12.368
18915W        W84395  23.510  44.918  11.913
18916W        W84396   8.319  34.892   1.745
18917W        W84397  42.368  41.973  13.814
18918W        W84398   4.426  36.570  10.596
18919W        W84399   7.203  39.895   3.722
18920W        W84400  11.821  30.571  10.075
18921W        W84401   1.236  13.600  13.042
18922W        W84402  26.138  23.670  12.527
18923W        W84403  37.961  43.925   2.739
18924W        W84404  15.752  17.801  11.496
18925W        W84405  18.721  41.879   1.264
18926W        W84406  36.409  43.491  10.425
18927W        W84407  40.798  23.176   4.665
18928W        W84408   1.925  16.238  10.481
18929W        W84409  24.624  37.053   3.695
18930W        W84410  36.944   6.837   0.850
18931W        W84411  37.342  10.647  12.889
18932W        W84412   8.751  24.984  14.013
18933W        W84413   1.466   7.389  14.434
18934W        W84414  26.480  41.018  11.536
18935W        W84415   3.420  28.674   3.694
18936W        W84416   5.344  42.400   2.268
18937W        W84417   8.392  28.019  12.932
18938W        W84418   3.219   5.699   0.930
18939W        W84419  29.988  33.400   1.258
18940W        W84420   1.782  33.447  14.795
18941W        W84421  39.532  43.013  13.478
18942W        W84422   5.883   2.229  14.453
18943W        W84423   8.811  23.178   1.246
18944W        W84424   9.188  21.137   2.877
18945W        W84425   7.276  34.391   4.319
18946W        W84426  17.587  23.524  10.446
18947W        W84427  29.491  12.645   0.476
18948W        W84428   8.737  38.954  11.405
18949W        W84429  36.974  27.046   2.325
18950W        W84430  22.596  12.769  14.275
18951W        W84431  18.222  19.144   4.345
18952W        W84432  22.582  28.104   3.764
18953W        W84433  36.498  35.939   5.243
18954W        W84434  42.967  32.971  10.531
18955W        W84435  22.076  38.850  13.816
18956W        W84436  22.138  23.201  11.526
18957W        W84437  26.598  33.914  14.762
18958W        W84438  40.983  34.398   4.271
18959W        W84439   8.681  39.435  11.564
18960W        W84440  23.691  18.213  13.317
18961W        W84441   6.334  42.285  13.062
18962W        W84442   1.945  21.182   2.226
18963W        W84443  34.404  18.281  11.527
18964W        W84444  40.046  23.072   0.767
18965W        W84445   8.282  43.984   3.841
18966W        W84446  21.096  38.445  10.963
18967W        W84447  37.371  21.128  11.544
18968W        W84448  27.184   9.161   3.381
18969W        W84449  42.787  25.637   3.163
18970W        W84450  35.385  13.803   2.266
18971W        W84451  29.468   0.843   1.442
18972W        W84452   7.328  35.463  12.020
18973W        W84453  25.026   5.195  11.605
18974W        W84454  41.319   8.214  10.949
18975W        W84455  42.504  21.241  14.471
18976W        W84456  42.307  13.732  12.911
18977W        W84457   2.394  23.118   4.272
18978W        W84458   3.786  12.130  14.910
18979W        W84459  44.971  10.295   9.999
18980W        W84460  44.311  30.125   4.631
18981W        W84461  34.927  17.753  13.937
18982W        W84462   2.794   7.221   0.382
18983W        W84463  25.686  33.901  11.559
18984W        W84464  44.867  37.088  14.804
18985W        W84465  33.983  37.504  10.977
18986W        W84466   7.775  32.056   4.832
18987W        W84467   7.820  28.576   1.241
18988W        W84468  12.119  18.682  13.895
18989W        W84469   5.745  35.058   0.366
18990W        W84470   7.356  37.040   3.684
18991W        W84471  15.282  43.341  14.760
18992W        W84472  26.584   3.401   3.362
18993W        W84473  38.505  30.129  11.373
18994W        W84474  29.116  19.195  14.846
18995W        W84475  12.728  20.675   1.904
18996W        W84476   3.292   1.772   1.799
18997W        W84477  27.524  15.683  11.895
18998W        W84478   6.386  33.459   0.921
18999W        W84479  44.937  16.590  11.940
19000W        W84480  14.179   1.948  14.316
19001W        W84481  35.490   6.920  13.045
19002W        W84482  34.604  12.791   1.224
19003W        W84483  35.479  43.391   4.248
19004W        W84484  32.919  32.568   3.841
19005W        W84485  25.503  33.429  12.441
19006W        W84486  24.018   6.779  10.009
19007W        W84487   1.238   7.820  10.895
19008W        W84488  10.355  30.034   3.712
19009W        W84489   2.846  31.980   1.298
19010W        W84490  11.316   0.890   4.739
19011W        W84491  39.392  16.791   0.424
19012W        W84492  24.593  23.079   4.774
19013W        W84493  43.357  26.119   3.310
19014W        W84494  23.687  14.274  12.475
19015W        W84495   3.811   4.852  12.557
19016W        W84496   5.315  39.882  12.381
19017W        W84497  32.616  28.990   0.352
19018W        W84498  38.890   0.296  10.051
19019W        W84499  32.130  12.186   0.320
19020W        W84500  29.931  30.990   3.190
19021W        W84501  14.718  28.500  11.937
19022W        W84502  40.446  17.599  14.909
19023W        W84503  33.952  18.183   1.752
19024W        W84504  24.490  20.173  13.480
19025W        W84505   8.255  24.035   3.251
19026W        W84506  32.621  16.712  13.828
19027W        W84507  41.023   4.917  13.958
19028W        W84508  35.021  28.089   1.350
19029W        W84509  25.669   1.765  11.438
19030W        W84510   0.390   3.321  11.009
19031W        W84511  23.081  34.610   2.334
19032W        W84512   3.323   3.354   1.214
19033W        W84513  38.849  15.246  12.453
19034W        W84514   5.741  17.773   2.386
19035W        W84515  40.964  23.566   2.752
19036W        W84516  39.889  12.192   1.852
19037W        W84517  29.549  18.782  13.339
19038W        W84518  25.098  43.337   2.685
19039W        W84519  10.188  21.555   2.878
19040W        W84520  44.318  27.965  12.864
19041W        W84521  43.431  26.992   3.203
19042W        W84522  14.220   8.769  11.598
19043W        W84523   8.215   0.861  12.894
19044W        W84524   7.711   8.780   3.869
19045W        W84525  17.800  42.851  12.959
19046W        W84526  17.237  12.837  12.868
19047W        W84527   8.845  34.029  13.923
19048W        W84528  21.161  28.985  11.405
19049W        W84529  15.211   0.770  12.953
19050W        W84530  26.464  31.586   4.162
19051W        W84531  31.093  34.946  13.310
19052W        W84532  19.058  28.600   5.320
19053W        W84533  43.364   9.856  14.989
19054W        W84534  22.600  19.632   0.243
19055W        W84535  25.217  16.161  13.432
19056W        W84536  36.354  17.199  13.930
19057W        W84537  14.111  39.379   1.721
19058W        W84538  38.469  30.507   3.289
19059W        W84539  25.589  39.481   1.879
19060W        W84540   7.702  41.839  11.469
19061W        W84541  14.668  17.788  14.774
19062W        W84542  31.960  22.075   1.755
19063W        W84543  30.967   6.311  14.316
19064W        W84544  39.060  27.450   3.223
19065W        W84545   6.745  27.521   1.934
19066W        W84546  30.074   4.908   3.263
19067W        W84547  43.347   0.913  14.423
19068W        W84548  37.342  19.728  14.513
19069W        W84549  13.263  17.744   3.157
19070W        W84550   9.644  14.296   3.267
19071W        W84551  25.500  19.053   3.198
19072W        W84552  29.426   3.272   3.668
19073W        W84553  21.231  20.585   1.322
19074W        W84554  18.226  26.476  12.439
19075W        W84555  41.908  32.531  14.798
19076W        W84556  33.454   8.759  11.420
19077W        W84557  30.601  17.079  11.074
19078W        W84558  24.209   3.302  11.512
19079W        W84559  31.640   9.692  14.914
19080W        W84560   7.336  19.223  12.853
19081W        W84561  12.356  13.330  11.497
19082W        W84562  43.389  15.193  13.971
19083W        W84563  32.592  13.130   2.873
19084W        W84564  43.981  42.831  11.459
19085W        W84565  31.065  23.509  10.587
19086W        W84566  36.932  19.076  12.359
19087W        W84567  19.728  42.376  11.859
19088W        W84568   1.958  24.657   3.304
19089W        W84569  25.085  34.988   2.196
19090W        W84570  14.119   2.831   3.371
19091W        W84571  37.426  24.120   2.268
19092W        W84572  17.223  29.456  13.001
19093W        W84573  17.761  39.060  14.843
19094W        W84574  20.717   0.454   1.806
19095W        W84575  34.425  41.398  13.469
19096W        W84576  39.048  20.180   0.247
19097W        W84577  39.422  41.292  13.841
19098W        W84578  35.544   1.925   0.335
19099W        W84579   7.691  21.735  13.361
19100W        W84580  25.571  11.693   2.679
19101W        W84581   5.315  17.630  13.457
19102W        W84582   2.945  44.884  12.959
19103W        W84583  28.678  11.172   2.211
19104W        W84584  13.701  33.417  12.944
19105W        W84585   8.331  30.488  11.391
19106W        W84586  15.652   2.338   0.897
19107W        W84587  16.209  10.864  10.933
19108W        W84588  18.788  36.008  11.889
19109W        W84589  26.687  17.064   0.470
19110W        W84590  17.715  25.699  14.339
19111W        W84591  26.207  18.106  13.828
19112W        W84592  29.518  10.794  11.121
19113W        W84593  18.243  38.437   3.678
19114W        W84594  19.244  30.442   3.841
19115W        W84595  27.027  19.284   0.858
19116W        W84596  29.584  13.179  11.404
19117W        W84597  44.982  34.083   4.196
19118W        W84598  39.061  38.453  14.023
19119W        W84599   0.324  31.104  14.768
19120W        W84600  23.606  26.145  12.562
19121W        W84601  36.356  14.154  14.393
19122W        W84602   1.791  26.013  13.382
19123W        W84603  34.963   4.265  10.919
19124W        W84604  37.523  10.146  14.365
19125W        W84605  28.538  23.231   2.899
19126W        W84606  36.053   8.751   4.696
19127W        W84607  13.251  39.515  14.824
19128W        W84608   1.303   9.368   4.181
19129W        W84609  19.652   4.231  13.509
19130W        W84610  24.034  39.958   1.366
19131W        W84611  15.647  17.707   5.088
19132W        W84612  37.551  16.135  10.617
19133W        W84613  30.131   9.797  11.051
19134W        W84614  24.565   6.891   4.218
19135W        W84615  30.981  39.052   1.723
19136W        W84616  13.318  19.070   3.808
19137W        W84617  36.007  23.555  12.041
19138W        W84618  26.520  44.797  12.405
19139W        W84619  34.588  33.122   3.643
19140W        W84620  28.063  38.887  12.484
19141W        W84621   9.365  20.245  13.503
19142W        W84622  22.079  21.241  10.963
19143W        W84623   8.690  35.936  11.111
19144W        W84624   4.380  23.656   2.281
19145W        W84625  34.423  35.085   3.824
19146W        W84626   6.855  40.816  13.546
19147W        W84627  15.655  23.065  12.515
19148W        W84628   0.940  21.578  11.521
19149W        W84629  30.116  27.941  11.054
19150W        W84630  23.505  38.494   0.788
19151W        W84631   5.803  39.398  11.579
19152W        W84632  26.092   8.387  14.361
19153W        W84633  31.994  26.522  10.065
19154W        W84634   0.350  19.682   1.885
19155W        W84635  44.374  38.852   0.867
19156W        W84636  28.547  21.047   2.880
19157W        W84637   4.239  12.361  13.816
19158W        W84638  36.091   7.380   1.320
19159W        W84639  16.731  15.600  11.935
19160W        W84640  34.552  14.097  11.898
19161W        W84641  24.039  18.103   3.751
19162W        W84642  10.644  17.072   3.203
19163W        W84643  41.479   2.327  13.452
19164W        W84644  21.186  39.829  14.892
19165W        W84645  25.205  17.071  13.479
19166W        W84646   3.948  39.391   2.236
19167W        W84647  39.910  44.883  14.810
19168W        W84648  30.965  38.473  10.498
19169W        W84649  15.311  38.897   1.254
19170W        W84650  31.081  13.126  12.459
19171W        W84651   6.398  21.590   2.395
19172W        W84652  42.011  25.206  13.859
19173W        W84653   3.822   6.182  13.511
19174W        W84654  11.726  43.898   3.294
19175W        W84655  31.487   9.149  13.053
19176W        W84656  21.663  18.580  11.536
19177W        W84657  38.944  44.406  11.120
19178W        W84658  26.006  41.428  12.468
19179W        W84659  18.553  29.146  13.863
19180W        W84660  27.589  39.854  13.992
19181W        W84661  42.293  44.894   4.727
19182W        W84662  28.619  43.924   1.800
19183W        W84663  27.650   9.336  12.393
19184W        W84664  41.298   4.229   3.312
19185W        W84665  41.480  18.261   2.713
19186W        W84666  14.165  35.596  10.492
19187W        W84667  39.441  38.988   0.271
19188W        W84668  21.570  39.431  11.405
19189W        W84669  17.072  38.348   4.646
19190W        W84670  24.100  43.381  13.474
19191W        W84671  40.416  13.251   2.710
19192W        W84672  25.207  16.680  14.363
19193W        W84673  12.800   9.724  13.052
19194W        W84674  29.169  17.249   3.151
19195W        W84675  23.104  19.628   1.792
19196W        W84676  26.609  34.592  14.023
19197W        W84677  20.677  36.553   1.261
19198W        W84678  34.454  35.415   0.388
19199W        W84679  41.872  17.638  12.444
19200W        W84680  17.298   8.752  10.114
19201W        W84681   2.457   8.183  10.435
19202W        W84682  10.193   7.268  14.764
19203W        W84683  18.672  16.644   3.349
19204W        W84684  15.316  16.219  12.841
19205W        W84685  32.935   5.309   1.340
19206W        W84686  12.124   6.407  13.450
19207W        W84687  44.323  35.904  13.477
19208W        W84688  40.349   0.760   2.362
19209W        W84689   5.831   1.803  11.432
19210W        W84690  44.341  39.560   3.243
19211W        W84691  35.375  39.356  10.964
19212W        W84692  13.662  14.724  14.890
19213W        W84693  29.441  25.672  14.354
19214W        W84694  29.143  43.515  11.085
19215W        W84695  29.097  15.106  14.287
19216W        W84696  30.488  11.803  10.524
19217W        W84697  17.279  41.881  14.317
19218W        W84698  26.139  20.036   2.767
19219W        W84699  28.960  15.639  14.881
19220W        W84700   5.423   8.841  13.481
19221W        W84701   9.316   4.883   1.828
19222W        W84702   8.255  11.827   3.850
19223W        W84703   1.475  25.697  11.048
19224W        W84704  24.985  33.115   2.301
19225W        W84705   3.378  37.026  13.819
19226W        W84706  29.991  25.516   0.903
19227W        W84707  28.457  17.248  13.004
19228W        W84708   3.894  27.075   3.752
19229W        W84709   1.483  18.256   1.703
19230W        W84710  12.358   4.319   2.267
19231W        W84711   0.775  13.805   2.838
19232W        W84712  35.893   4.907   4.353
19233W        W84713  31.136  38.418   0.348
19234W        W84714   8.229  26.974  14.978
19235W        W84715   7.405  37.866  11.082
19236W        W84716   4.360  24.065   0.248
19237W        W84717  12.660  28.183  13.057
19238W        W84718  38.327   3.879   1.355
19239W        W84719  28.656  28.941  13.064
19240W        W84720  41.881  10.193  10.057
19241W        W84721  27.521  12.656  12.497
19242W        W84722  34.973  26.955   3.756
19243W        W84723  13.706  19.705   1.217
19244W        W84724  16.109  35.488  13.408
19245W        W84725  35.535  37.449  13.348
19246W        W84726  31.600  41.465   0.381
19247W        W84727  19.183  29.626  12.439
19248W        W84728   4.419  26.639  14.984
19249W        W84729  26.616  22.006  14.806
19250W        W84730  29.556  37.956   3.281
19251W        W84731   9.725  16.733  12.900
19252W        W84732   9.856   7.667   1.882
19253W        W84733  32.408  31.547  13.397
19254W        W84734  18.250  20.580   4.227
19255W        W84735   2.728  16.721  10.996
19256W        W84736  26.154  34.565  11.380
19257W        W84737  35.102  34.561  11.467
19258W        W84738  23.587  14.241   0.822
19259W        W84739  30.498   2.467  14.484
19260W        W84740  34.613  20.108   4.751
19261W        W84741  27.659  22.043  14.954
19262W        W84742   7.813  42.808   4.298
19263W        W84743  17.202  13.315   2.182
19264W        W84744  23.046  34.120   4.251
19265W        W84745  15.622  29.455   2.287
19266W        W84746  11.839  38.888   9.950
19267W        W84747  19.075  29.464  12.882
19268W        W84748   9.789   6.425   4.760
19269W        W84749  17.724  36.375  14.363
19270W        W84750   6.782  16.096   3.329
19271W        W84751  11.224  30.018   3.209
19272W        W84752   4.438  17.201   3.251
19273W        W84753  21.623  17.130   1.216
19274W        W84754  44.934  44.875  12.984
19275W        W84755  42.431  38.073   0.410
19276W        W84756  11.648   0.902   0.912
19277W        W84757   0.769  31.616  13.969
19278W        W84758  26.665   3.243   2.698
19279W        W84759  25.099  26.610  13.993
19280W        W84760  15.581   5.401   1.277
19281W        W84761   8.382   9.755   3.660
19282W        W84762  35.027  42.440  12.968
19283W        W84763  34.374  29.549   4.183
19284W        W84764  14.224  42.906  13.908
19285W        W84765  15.131  37.578  10.571
19286W        W84766   7.887  42.431   0.795
19287W        W84767  36.098  16.813  11.390
19288W        W84768   9.306  11.704   4.144
19289W        W84769  34.016  13.801   2.345
19290W        W84770   0.253   5.410   1.872
19291W        W84771  38.343   6.301  13.402
19292W        W84772   0.409  44.436   0.372
19293W        W84773  41.345   9.235  12.955
19294W        W84774  37.443  43.896  12.031
19295W        W84775  20.645  41.995   4.730
19296W        W84776  32.602  20.573  12.376
19297W        W84777   2.784  36.083  13.367
19298W        W84778   2.437  17.680  13.898
19299W        W84779  26.137  42.486   1.736
19300W        W84780   6.722  44.282  13.326
19301W        W84781  18.662  25.116   1.211
19302W        W84782  10.165  34.604   4.180
19303W        W84783  30.992  26.124   1.835
19304W        W84784   6.762  26.570  10.476
19305W        W84785  10.798  10.799  10.498
19306W        W84786  35.977  35.104   4.291
19307W        W84787  25.601  12.247   3.782
19308W        W84788  32.473  16.653  11.104
19309W        W84789  31.026  20.632   1.429
19310W        W84790  34.445  28.528   4.320
19311W        W84791  13.748  36.067   3.193
19312W        W84792  16.612  20.653   0.295
19313W        W84793   0.305  44.435  11.876
19314W        W84794  14.635   0.316  10.423
19315W        W84795  41.309   6.282  12.419
19316W        W84796  12.761  33.477   0.912
19317W        W84797  35.048  40.866  13.833
19318W        W84798  31.138  18.575   4.727
19319W        W84799  37.396   6.901   3.365
19320W        W84800  14.161  34.007   0.266
19321W        W84801  19.659  31.025  11.035
19322W        W84802  23.166   2.901  13.434
19323W        W84803  38.486  38.979   0.781
19324W        W84804  36.415  13.629  12.909
19325W        W84805  38.424  27.604   3.345
19326W        W84806  22.575  39.039  10.932
19327W        W84807  30.130  40.887  14.420
19328W        W84808   3.461  40.360  11.876
19329W        W84809  34.601  17.589   0.967
19330W        W84810   3.806  42.398   1.367
19331W        W84811  43.846  15.656   3.710
19332W        W84812  28.466  26.969  11.419
19333W        W84813  30.935  34.564  13.308
19334W        W84814  42.866  16.609   0.808
19335W        W84815   6.225  27.574   4.647
19336W        W84816  35.885  30.028   2.227
19337W        W84817  32.476   6.676  14.769
19338W        W84818  32.976  20.646   0.369
19339W        W84819  37.356  38.391   2.864
19340W        W84820   4.441  41.996  12.911
19341W        W84821  35.578  17.066  11.511
19342W        W84822  20.637  28.973   2.178
19343W        W84823   1.863  12.269   0.273
19344W        W84824  26.125  19.757   1.374
19345W        W84825  41.949  21.686  11.877
19346W        W84826  26.134   8.275   3.790
19347W        W84827   1.770  13.785   2.185
19348W        W84828  14.776  10.864  14.908
19349W        W84829  21.580  15.709   2.279
19350W        W84830  39.043  40.307  14.892
19351W        W84831   6.280  16.807   0.898
19352W        W84832  35.400  21.209  11.863
19353W        W84833  41.510  26.523   2.880
19354W        W84834  30.082   8.834   3.678
19355W        W84835  27.184   6.258  11.589
19356W        W84836  36.569  35.911  14.277
19357W        W84837  19.121  43.860  10.982
19358W        W84838  17.751  18.743  11.376
19359W        W84839   4.799  40.531   1.895
19360W        W84840   0.273  21.757   3.732
19361W        W84841  17.099  20.257  13.866
19362W        W84842  12.854  11.135   4.148
19363W        W84843  18.281  11.169   3.211
19364W        W84844   8.869  19.555  10.446
19365W        W84845  32.414  28.653  11.388
19366W        W84846  21.550  14.776  12.059
19367W        W84847   7.230   3.381   4.303
19368W        W84848  39.061   2.235  14.468
19369W        W84849  24.033  18.185   2.776
19370W        W84850  36.460   9.359   0.783
19371W        W84851  15.703   5.419   2.728
19372W        W84852   1.951  34.950  13.537
19373W        W84853  19.650   8.210  11.501
19374W        W84854  37.474  28.939  14.503
19375W        W84855   0.846   7.786   0.889
19376W        W84856  44.903  37.041   0.483
19377W        W84857  29.984  14.649  12.022
19378W        W84858  26.690   6.809  10.426
19379W        W84859  37.439  36.474   2.708
19380W        W84860  19.044  38.849  12.404
19381W        W84861  28.528  28.931  14.280
19382W        W84862  38.934  39.359  11.031
19383W        W84863   3.877  24.565  13.952
19384W        W84864  16.198  40.850  13.872
19385W        W84865  24.132  23.126  12.362
19386W        W84866  34.410  14.329   5.184
19387W        W84867   5.302  44.499   3.753
19388W        W84868  19.275  25.531   0.909
19389W        W84869  40.408  23.681  13.921
19390W        W84870   3.781  16.193   2.388
19391W        W84871   8.170  21.694  12.451
19392W        W84872  43.929  44.974   3.748
19393W        W84873  11.725  30.544   3.187
19394W        W84874  23.171  29.556  11.386
19395W        W84875  30.630  21.176   2.258
19396W        W84876  33.958  13.618  10.425
19397W        W84877  21.700   7.417   1.770
19398W        W84878   2.727  24.011  11.433
19399W        W84879   0.387   6.344   3.272
19400W        W84880   0.815  44.287   2.235
19401W        W84881  41.792  13.140   2.351
19402W        W84882   4.347  19.157  13.362
19403W        W84883  29.546  27.564  14.863
19404W        W84884  16.644  15.258   2.770
19405W        W84885  31.904  25.076   2.354
19406W        W84886   6.235  18.699   3.801
19407W        W84887  44.810  29.116  14.334
19408W        W84888   2.846  25.970   0.874
19409W        W84889   2.737  24.655   1.361
19410W        W84890  31.611   4.943   2.692
19411W        W84891   5.385  28.139  14.314
19412W        W84892  42.950  43.378  10.423
19413W        W84893  18.210  15.623   2.831
19414W        W84894   5.785  10.720   2.412
19415W        W84895  24.021  18.152  12.989
19416W        W84896  34.599  36.910  11.457
19417W        W84897  36.988   8.726   4.725
19418W        W84898  14.708   2.726  11.983
19419W        W84899  14.830  13.297  12.867
19420W        W84900  16.233  27.179   1.425
19421W        W84901  26.089  32.030  11.601
19422W        W84902  32.500  28.606  12.927
19423W        W84903  30.912  38.372  14.345
19424W        W84904  39.386  25.620   0.733
19425W        W84905  13.273  13.658  12.403
19426W        W84906   3.449  32.064  11.372
19427W        W84907  42.945  43.947  12.041
19428W        W84908  35.399  32.947  14.342
19429W        W84909  38.370   2.738  10.542
19430W        W84910   2.752  15.254  12.517
19431W        W84911  33.978  24.669  10.539
19432W        W84912  40.510  22.549  12.376
19433W        W84913  23.215  33.940   2.803
19434W        W84914  16.588  11.802   2.377
19435W        W84915  13.771  11.678  11.491
19436W        W84916  32.075  16.092   2.410
19437W        W84917   3.392  14.699  11.995
19438W        W84918  42.798  38.886   3.865
19439W        W84919   1.929   6.391   3.856
19440W        W84920  19.660  22.188  12.573
19441W        W84921  44.966   9.285  13.524
19442W        W84922  38.391   1.820  11.051
19443W        W84923   0.819   8.684   5.160
19444W        W84924   0.971   3.307   3.816
19445W        W84925   2.778  18.780  12.849
19446W        W84926  22.090  25.200   0.899
19447W        W84927  13.803  16.224  13.508
19448W        W84928  13.208  33.501  10.157
19449W        W84929   8.750  36.395  14.946
19450W        W84930   4.244  10.710  10.954
19451W        W84931  40.407   3.862  13.881
19452W        W84932  12.779  20.211   0.961
19453W        W84933  43.004   6.294  11.904
19454W        W84934  17.759   6.392   1.789
19455W        W84935  28.646  16.210   1.814
19456W        W84936   9.350  38.023  14.975
19457W        W84937  20.150   5.340  10.568
19458W        W84938  23.052  27.013  12.993
19459W        W84939  14.614  13.118   0.341
19460W        W84940  37.413  18.663   2.371
19461W        W84941  30.616   2.282   0.281
19462W        W84942  33.387  41.854  13.900
19463W        W84943   2.856  42.297  13.499
19464W        W84944  21.255  16.185   2.322
19465W        W84945  40.310  22.155  13.908
19466W        W84946  38.344  41.788   3.240
19467W        W84947   9.860  18.759   4.210
19468W        W84948  31.646  43.309  13.319
19469W        W84949  14.156  22.219  14.369
19470W        W84950  21.095  36.906   1.757
19471W        W84951  29.578  35.874  11.945
19472W        W84952  17.068   8.384  14.032
19473W        W84953  37.504  11.345   4.685
19474W        W84954  28.183  37.496   5.272
19475W        W84955   6.893   8.296  14.951
19476W        W84956  29.069  32.012   0.412
19477W        W84957  33.009  19.625   0.922
19478W        W84958   3.789  37.451   5.172
19479W        W84959  23.217  10.802   1.913
19480W        W84960  33.466  38.891   5.248
19481W        W84961  23.013  20.053  11.059
19482W        W84962  37.903  39.925   0.470
19483W        W84963   5.741  24.161   2.280
19484W        W84964  32.917   1.808   3.276
19485W        W84965   7.187  27.636   3.736
19486W        W84966  22.719  15.781  12.004
19487W        W84967  13.605  40.926   1.444
19488W        W84968  39.873  35.502  13.869
19489W        W84969  41.940  16.103   3.195
19490W        W84970  14.811  29.024   4.823
19491W        W84971   0.781  33.918   2.796
19492W        W84972  25.997   1.847  11.573
19493W        W84973   6.856  38.882   1.345
19494W        W84974  36.350  37.957   1.337
19495W        W84975  35.030  27.691  13.544
19496W        W84976  42.514  11.141  13.527
19497W        W84977  36.539  34.045   0.327
19498W        W84978  27.627  29.112   2.680
19499W        W84979   6.267   8.841  12.849
19500W        W84980  35.479  40.334   1.345
19501W        W84981  40.914  15.800  13.429
19502W        W84982  29.071   4.408   4.810
19503W        W84983   5.227  21.240   2.776
19504W        W84984  39.336  11.360   3.333
19505W        W84985  39.541  24.606   0.401
19506W        W84986  30.514   4.926  10.037
19507W        W84987  27.598  21.137  10.028
19508W        W84988  10.197   8.328   2.674
19509W        W84989  15.805  36.381  12.981
19510W        W84990  13.718  34.085   0.836
19511W        W84991  35.491   9.374  14.347
19512W        W84992  44.496  10.728  14.896
19513W        W84993  43.004  17.701   2.831
19514W        W84994  33.104  43.792   0.448
19515W        W84995  41.813  32.089   1.214
19516W        W84996  30.983  24.188  13.832
19517W        W84997  32.485  28.469   0.892
19518W        W84998  43.307   0.417  14.967
19519W        W84999  40.815  32.132  12.565
19520W        W85000   5.785   6.678   3.338
19521W        W85001   3.891  30.482  14.384
19522W        W85002  34.592   2.736  12.897
19523W        W85003  17.730   0.808   0.838
19524W        W85004  11.852  37.051   2.185
19525W        W85005  21.648   8.182   0.372
19526W        W85006  21.148  16.783  11.561
19527W        W85007  16.251  11.191   2.669
19528W        W85008  21.685  21.554  13.972
19529W        W85009  43.894   3.841   2.790
19530W        W85010  35.036  25.687  14.368
19531W        W85011  42.325  33.025  12.366
19532W        W85012   4.904  26.173  12.386
19533W        W85013  24.563  29.003  12.009
19534W        W85014   9.845  28.477  11.015
19535W        W85015  26.135   0.913   3.333
19536W        W85016   7.688  26.510  12.966
19537W        W85017  43.820  10.261   2.811
19538W        W85018  15.313  24.612   2.363
19539W        W85019   4.742   9.382  13.326
19540W        W85020  21.239  36.948  10.637
19541W        W85021  44.472  37.004   4.231
19542W        W85022  13.221  25.064  13.861
19543W        W85023   7.726  21.126  12.527
19544W        W85024  20.586  25.529   0.290
19545W        W85025  16.290  19.125  13.453
19546W        W85026   7.804  24.026  13.016
19547W        W85027  43.354  18.260   1.830
19548W        W85028  40.505  23.151   0.286
19549W        W85029  34.086  41.950  11.124
19550W        W85030  29.093   1.342   1.749
19551W        W85031  40.882  37.561  13.998
19552W        W85032  30.970   3.762  14.508
19553W        W85033   8.225  42.798  11.898
19554W        W85034  40.425  29.551  13.533
19555W        W85035  14.101  33.042   3.381
19556W        W85036   1.739  33.458   0.833
19557W        W85037  15.813   8.188   2.396
19558W        W85038  35.878  34.412   3.814
19559W        W85039  35.573  31.581   4.154
19560W        W85040  30.654   6.894   2.233
19561W        W85041  34.047  42.895   0.394
19562W        W85042  33.100   3.411   3.158
19563W        W85043  15.806  13.672   4.254
19564W        W85044   0.397  32.604   2.847
19565W        W85045  41.455   0.322   0.470
19566W        W85046  25.482  37.087  13.966
19567W        W85047  43.837  21.690   2.319
19568W        W85048   7.388  16.731  13.399
19569W        W85049  17.747   9.828   2.878
19570W        W85050  16.254  16.246   4.225
19571W        W85051   2.470  12.156   1.215
19572W        W85052  12.148  14.099  12.927
19573W        W85053   0.427  31.631   0.856
19574W        W85054  36.483  26.644  13.841
19575W        W85055  26.055  20.086  12.499
19576W        W85056  19.122  23.232   1.842
19577W        W85057  20.641  36.928  13.379
19578W        W85058   4.846  16.767  11.422
19579W        W85059  14.310  19.053   1.835
19580W        W85060  14.621  44.411  14.024
19581W        W85061  18.667   1.889   2.754
19582W        W85062   1.348  36.945  13.793
19583W        W85063  21.076   5.755  13.939
19584W        W85064   2.836  19.587  11.459
19585W        W85065  16.250   9.242  14.424
19586W        W85066  19.540  20.750  11.439
19587W        W85067   3.767  18.569  13.315
19588W        W85068  10.852   3.376  13.875
19589W        W85069  10.167  27.002  14.471
19590W        W85070   8.830  41.387  10.605
19591W        W85071  12.318  18.097  11.552
19592W        W85072   6.347  25.008   1.393
19593W        W85073   4.820  44.011   4.127
19594W        W85074  11.865   4.361   3.742
19595W        W85075  32.963  30.961   1.850
19596W        W85076  42.427  29.929   1.235
19597W        W85077   9.719  43.819  13.372
19598W        W85078  25.059  35.014   4.190
19599W        W85079  21.695  18.147  12.000
19600W        W85080   6.189  20.554  14.830
19601W        W85081   6.351   1.466   0.382
19602W        W85082  36.088  28.996   2.867
19603W        W85083  11.726  18.169  13.987
19604W        W85084  39.813  24.673   4.147
19605W        W85085  26.474   6.839  14.312
19606W        W85086  28.079  15.325  10.411
19607W        W85087  15.265  34.916  14.765
19608W        W85088  12.803  24.181   2.368
19609W        W85089  30.643  28.158  14.370
19610W        W85090  34.602  30.035   4.219
19611W        W85091  29.168  31.643  10.636
19612W        W85092  14.213  28.997   2.878
19613W        W85093  29.018  42.826   0.261
19614W        W85094   2.247  16.767  11.553
19615W        W85095   2.338  21.164   1.891
19616W        W85096  28.085  11.667   1.723
19617W        W85097  38.953  24.215  14.912
19618W        W85098  20.237   8.801   0.915
19619W        W85099  41.925  18.068   1.427
19620W        W85100  18.066  33.087  11.968
19621W        W85101  27.080  34.116  13.842
19622W        W85102  28.956  17.231  11.869
19623W        W85103  17.753  13.775  12.993
19624W        W85104  41.333  24.113  13.494
19625W        W85105  36.041  28.473   3.635
19626W        W85106  43.343  12.827   2.883
19627W        W85107  29.633  29.481   4.236
19628W        W85108  20.184  18.651  11.892
19629W        W85109   8.210   6.690  13.849
19630W        W85110   9.225   4.259   3.246
19631W        W85111  20.117  19.634  12.578
19632W        W85112   8.667  40.508   1.718
19633W        W85113  42.419   6.248  13.546
19634W        W85114  15.104  21.608  11.554
19635W        W85115  40.875  32.530  12.993
19636W        W85116  20.702  27.671  13.836
19637W        W85117  42.301   7.372   2.377
19638W        W85118  37.976  30.034   2.338
19639W        W85119  29.631  26.505  11.095
19640W        W85120  37.522  37.901  11.888
19641W        W85121  20.544  33.557  10.918
19642W        W85122  40.805  16.094  13.871
19643W        W85123  41.517  15.766  12.517
19644W        W85124  22.718  36.370  13.469
19645W        W85125  13.118  10.276   2.292
19646W        W85126   9.334  26.630   2.183
19647W        W85127  16.294  16.685   3.709
19648W        W85128  29.595  17.296  12.456
19649W        W85129  14.129   3.763   1.885
19650W        W85130   7.408   8.264   2.225
19651W        W85131  42.520  32.943   4.826
19652W        W85132   8.793  14.785   3.330
19653W        W85133  14.111  44.978   5.154
19654W        W85134   0.755  19.080   3.648
19655W        W85135   3.332   0.821   0.898
19656W        W85136  35.375  37.024  14.425
19657W        W85137  29.513   5.852   3.826
19658W        W85138  26.701  32.051  11.947
19659W        W85139  35.540   4.872   2.317
19660W        W85140  40.885   8.251  14.352
19661W        W85141  18.294  37.483  13.513
19662W        W85142  22.601  14.130  12.860
19663W        W85143  34.415  43.832  10.429
19664W        W85144  29.075  21.252  12.447
19665W        W85145  37.925   2.448  12.073
19666W        W85146  33.103  43.376  13.376
19667W        W85147  38.426  34.429  14.481
19668W        W85148   0.459   3.910  10.906
19669W        W85149  13.756  14.634   0.738
19670W        W85150  43.323  25.160  14.305
19671W        W85151  35.597  39.009  13.945
19672W        W85152  38.538   4.341  12.385
19673W        W85153  10.755  38.913  14.462
19674W        W85154  44.985  22.247  12.421
19675W        W85155  36.074  35.475  12.483
19676W        W85156  19.736  20.701  10.978
19677W        W85157  16.256  31.048  13.054
19678W        W85158   8.250  27.667  14.350
19679W        W85159  23.683  14.097  13.841
19680W        W85160  18.125  38.542  12.409
19681W        W85161  40.881  29.001   4.678
19682W        W85162  41.007  11.654   1.251
19683W        W85163  13.805  24.495  11.487
19684W        W85164  14.808  15.696   4.751
19685W        W85165  18.113  38.406  13.464
19686W        W85166  10.305  34.118  12.516
19687W        W85167   6.791  25.080   0.253
19688W        W85168   4.831  27.127   4.177
19689W        W85169  28.494   4.263  11.889
19690W        W85170  29.494  18.295  12.878
19691W        W85171  37.875   2.898   3.230
19692W        W85172  29.594   7.832   3.822
19693W        W85173  28.144  13.296   2.388
19694W        W85174  37.381   0.378   0.412
19695W        W85175  23.540  10.320   4.191
19696W        W85176  33.607   4.230  14.299
19697W        W85177  38.374  13.208   1.926
19698W        W85178  29.171   6.272  11.579
19699W        W85179  29.603  30.416  12.502
19700W        W85180   9.388  38.916  10.991
19701W        W85181  18.766  44.820  14.917
19702W        W85182   5.347  42.463   0.467
19703W        W85183  25.968  13.765   0.825
19704W        W85184  23.655  22.066  11.934
19705W        W85185  38.941  30.063  12.974
19706W        W85186  43.799   8.694  14.828
19707W        W85187  31.615  12.254  12.896
19708W        W85188  29.150  16.683   1.873
19709W        W85189   3.740  15.609  11.071
19710W        W85190   7.338  13.333  11.061
19711W        W85191  17.571  35.065  13.494
19712W        W85192  25.546  14.681  11.575
19713W        W85193  14.171  44.417  14.973
19714W        W85194   0.806   0.305  14.783
19715W        W85195  22.699  41.530   3.286
19716W        W85196  21.194  28.608  14.288
19717W        W85197  25.515  16.284  13.047
19718W        W85198  33.962  23.187   1.908
19719W        W85199  19.122   5.694  12.369
19720W        W85200  22.582  43.958  13.819
19721W        W85201  11.678   3.717   1.264
19722W        W85202   5.427   2.892  13.434
19723W        W85203  13.282   4.937   3.721
19724W        W85204  36.986  28.520  10.417
19725W        W85205   0.252  27.465  13.390
19726W        W85206  19.094  32.081   4.127
19727W        W85207  30.536   7.741   1.897
19728W        W85208   0.929  11.248  12.017
19729W        W85209  41.477   7.717   1.242
19730W        W85210  15.207   7.233   3.167
19731W        W85211  32.014   3.825  11.599
19732W        W85212  35.449  42.494   3.164
19733W        W85213   5.196  20.264  11.578
19734W        W85214  32.895  28.634   0.377
19735W        W85215  31.119  33.495   0.301
19736W        W85216  39.447   6.319   2.288
19737W        W85217  26.637  31.516  12.372
19738W        W85218  31.899  14.736  12.993
19739W        W85219  20.662  30.042  11.930
19740W        W85220  17.094  42.012   0.882
19741W        W85221  12.677   9.322   4.790
19742W        W85222  44.300  19.614  14.361
19743W        W85223  14.237  25.675   5.089
19744W        W85224  34.434  27.107   3.157
19745W        W85225  42.349   8.884   4.740
19746W        W85226  32.573   4.891  12.997
19747W        W85227  43.456  38.049   4.149
19748W        W85228  30.547   5.907  10.994
19749W        W85229   8.769  33.883   1.336
19750W        W85230  35.970   5.389  12.908
19751W        W85231  21.213  32.995   3.830
19752W        W85232   2.254   0.769   4.702
19753W        W85233  24.695   2.312   2.357
19754W        W85234  16.720  40.460  13.495
19755W        W85235  33.456  26.473   4.267
19756W        W85236  10.292  35.480   3.839
19757W        W85237   1.838  13.162   0.757
19758W        W85238  42.437  17.601  14.404
19759W        W85239   3.747  44.323   2.729
19760W        W85240  11.246  13.274  12.961
19761W        W85241  12.311  21.238  13.481
19762W        W85242  13.810  36.517  13.953
19763W        W85243   4.310  38.522  14.992
19764W        W85244  16.707   8.303   2.311
19765W        W85245  12.319  33.876   0.384
19766W        W85246   8.679   2.235   1.392
19767W        W85247  41.472  11.300  12.463
19768W        W85248  38.438  38.568   3.857
19769W        W85249  15.092  39.008  11.091
19770W        W85250  16.111  21.556   0.740
19771W        W85251  24.484  22.625  12.890
19772W        W85252   0.828  27.072  14.377
19773W        W85253  10.185  32.564   1.334
19774W        W85254   3.955  42.958  10.037
19775W        W85255   6.824  30.619   3.769
19776W        W85256   6.331  10.184  14.869
19777W        W85257  10.825  20.743  12.878
19778W        W85258  42.523  11.683  13.494
19779W        W85259  20.622  35.870  11.967
19780W        W85260  10.231  39.995  10.912
19781W        W85261  42.974  11.621   4.280
19782W        W85262  16.744  11.312  11.069
19783W        W85263  12.849  16.607  12.021
19784W        W85264  19.251   5.366  14.814
19785W        W85265  30.081  32.976   0.739
19786W        W85266  30.153  38.553   2.268
19787W        W85267  20.596  21.610   3.654
19788W        W85268  10.661  43.824  11.958
19789W        W85269  16.198  39.061  10.136
19790W        W85270  17.274  44.462  13.496
19791W        W85271  20.749  30.129  10.480
19792W        W85272  35.868  40.372   5.098
19793W        W85273   0.881  31.055  11.419
19794W        W85274  20.666  23.506  11.047
19795W        W85275  39.422   5.417   0.456
19796W        W85276  14.715   7.231   0.389
19797W        W85277  21.057   3.443  11.561
19798W        W85278  12.761  31.982  12.905
19799W        W85279  20.721   6.822  12.402
19800W        W85280   4.804   3.888   1.769
19801W        W85281  23.615  34.104   2.762
19802W        W85282  18.177   6.728   4.194
19803W        W85283  12.186  30.138  10.491
19804W        W85284  19.190  36.848  10.578
19805W        W85285   4.890  32.019   0.385
19806W        W85286  34.870  27.631  13.023
19807W        W85287  24.676   3.742   1.781
19808W        W85288  15.210  41.940  11.406
19809W        W85289   0.847  31.497   0.744
19810W        W85290  38.027  38.449   2.226
19811W        W85291   6.240   7.226   3.754
19812W        W85292   8.713  20.574  11.439
19813W        W85293  22.038   4.227  13.324
19814W        W85294   8.209  25.072   2.182
19815W        W85295  26.118  28.543  14.836
19816W        W85296  43.516  20.604  12.500
19817W        W85297  25.702  37.069  12.823
19818W        W85298  11.182  27.652   4.615
19819W        W85299  19.083  34.064   4.257
19820W        W85300  17.773  17.247   2.383
19821W        W85301  41.917  40.936   3.316
19822W        W85302  18.758  17.679  12.351
19823W        W85303  11.138  18.661  13.976
19824W        W85304  24.606  32.102   3.729
19825W        W85305  30.907  20.090  14.368
19826W        W85306  34.494  43.479  13.029
19827W        W85307  25.972   9.298   3.310
19828W        W85308  14.163  18.548  12.357
19829W        W85309  25.153  26.559  11.587
19830W        W85310   7.337  12.746   4.279
19831W        W85311  20.562  41.903   0.419
19832W        W85312  29.934   1.759  14.759
19833W        W85313  15.802  26.516  14.434
19834W        W85314  24.711  18.675   1.323
19835W        W85315  20.202   1.340   3.659
19836W        W85316   6.218  18.785   2.900
19837W        W85317  38.352  36.992   4.698
19838W        W85318  38.451  18.551   1.834
19839W        W85319  28.463  21.043   3.221
19840W        W85320   2.447  23.495   4.653
19841W        W85321  26.100  13.691   2.275
19842W        W85322   7.254  41.807  14.406
19843W        W85323  25.663  41.030  13.910
19844W        W85324   2.357  22.717  10.967
19845W        W85325  12.669  16.796   3.868
19846W        W85326  32.113  30.937  11.887
19847W        W85327   6.725  42.018   0.395
19848W        W85328   7.895   4.328   1.336
19849W        W85329   8.869  33.576  11.047
19850W        W85330   8.176  32.106  14.790
19851W        W85331  18.655  15.083   2.218
19852W        W85332  30.984  18.730  12.453
19853W        W85333   8.768  14.212   1.876
19854W        W85334  18.139  15.213  12.921
19855W        W85335  20.127  40.948   4.262
19856W        W85336  32.053  40.804  14.502
19857W        W85337  26.686  33.559  13.954
19858W        W85338  27.191  18.199   2.821
19859W        W85339  38.023   4.760  12.087
19860W        W85340  23.198  24.017  11.926
19861W        W85341  19.586  19.282  14.429
19862W        W85342  39.972   6.856   1.849
19863W        W85343  42.379  21.185   2.815
19864W        W85344  29.073  13.111  13.509
19865W        W85345  29.021  31.555   2.340
19866W        W85346  22.062  39.000   2.886
19867W        W85347  27.540  24.557  10.958
19868W        W85348  24.097  39.982   2.417
19869W        W85349  44.794  38.509   1.880
19870W        W85350   8.315  33.100   4.775
19871W        W85351  11.696  22.231   2.321
19872W        W85352  14.700  31.637   0.845
19873W        W85353   4.362  26.093  13.004
19874W        W85354  40.841  37.965  12.378
19875W        W85355   0.761  12.316  14.497
19876W        W85356  37.854  27.583   2.793
19877W        W85357  11.713  17.686  14.351
19878W        W85358  20.160  31.584  12.837
19879W        W85359  39.420  27.152  13.386
19880W        W85360  40.446  41.978   3.363
19881W        W85361  29.632   4.729  14.825
19882W        W85362  44.923   3.792   2.372
19883W        W85363  12.734  35.510   4.262
19884W        W85364   2.775  24.043  13.412
19885W        W85365  37.836   5.339  13.907
19886W        W85366  22.717  43.494  11.937
19887W        W85367  30.596   8.830   1.320
19888W        W85368  13.633  29.091   4.734
19889W        W85369   4.790  12.640   3.313
19890W        W85370   6.263   6.317   1.254
19891W        W85371  39.818  25.523   2.811
19892W        W85372  36.395  21.724  13.896
19893W        W85373  19.196  30.484  11.093
19894W        W85374  38.340  12.291   4.289
19895W        W85375  35.903  10.866   0.282
19896W        W85376  24.063  38.509   3.356
19897W        W85377  28.047  21.174   3.264
19898W        W85378  26.629  44.884   4.775
19899W        W85379  43.766  34.934   2.862
19900W        W85380   5.863  32.011   3.295
19901W        W85381  23.721  13.800   4.218
19902W        W85382  42.525  13.643   3.153
19903W        W85383  38.046  22.200  10.889
19904W        W85384  16.092  32.133  12.458
19905W        W85385   8.690  16.235   2.723
19906W        W85386  11.716  27.133  13.947
19907W        W85387   4.764   1.247  12.488
19908W        W85388  44.350   4.745   9.923
19909W        W85389  32.472  40.871   5.280
19910W        W85390  25.658  33.948   0.830
19911W        W85391   6.842  36.558  14.365
19912W        W85392   1.943  10.296  13.045
19913W        W85393  44.414  13.148   2.417
19914W        W85394  22.089   9.226   4.223
19915W        W85395  21.229  13.605   4.151
19916W        W85396  15.807  33.061  14.509
19917W        W85397   4.368  32.443  10.535
19918W        W85398  14.273  11.356   9.997
19919W        W85399   9.357  14.218  11.002
19920W        W85400  41.410  31.562   3.334
19921W        W85401  34.556   1.856  13.436
19922W        W85402   6.185  40.961   2.775
19923W        W85403  34.420   8.825  12.559
19924W        W85404  28.619  40.509  11.528
19925W        W85405   4.420  16.207   2.887
19926W        W85406  41.029   0.792   1.930
19927W        W85407   0.804  26.611   0.872
19928W        W85408  37.931  35.506  11.412
19929W        W85409  28.455  29.613  14.857
19930W        W85410  22.746  44.266   2.852
19931W        W85411   0.383   4.432   0.371
19932W        W85412  40.450  20.142   0.426
19933W        W85413  37.905  38.002   4.311
19934W        W85414   3.892  41.966  14.864
19935W        W85415  23.160  20.539  11.395
19936W        W85416   8.767   9.834  14.014
19937W        W85417  25.194  15.123  11.080
19938W        W85418  23.691  18.224   2.836
19939W        W85419  20.133  42.497   1.757
19940W        W85420  13.830   7.277   0.790
19941W        W85421   6.369  27.600  13.930
19942W        W85422  18.275  11.824  11.547
19943W        W85423  21.710  25.180   2.738
19944W        W85424  20.760  17.176  13.413
19945W        W85425   0.917  41.877   4.346
19946W        W85426  37.927  42.302   1.711
19947W        W85427  36.066  33.042  14.400
19948W        W85428   4.357  44.939   2.219
19949W        W85429  36.576  22.511  13.027
19950W        W85430  31.590   7.679   3.370
19951W        W85431  27.124   2.319  10.933
19952W        W85432  43.937  19.240  12.894
19953W        W85433  27.527  19.610  12.033
19954W        W85434  39.043  34.446  13.022
19955W        W85435  16.305  32.596  13.989
19956W        W85436  38.523   6.321   4.779
19957W        W85437  14.813   7.190   3.759
19958W        W85438   2.326  43.901   3.777
19959W        W85439   7.286  10.332   2.722
19960W        W85440   5.305  19.069  10.963
19961W        W85441  25.218  35.477  12.348
19962W        W85442  28.044  15.699   0.760
19963W        W85443  30.045  14.295   3.764
19964W        W85444  15.220  36.367  11.411
19965W        W85445   2.246   5.285   3.717
19966W        W85446  36.449  39.485  12.398
19967W        W85447  12.228  24.534  10.562
19968W        W85448  23.574  43.314  14.331
19969W        W85449   7.811  26.571  14.761
19970W        W85450  36.979  20.724  13.500
19971W        W85451   0.468  42.504   4.333
19972W        W85452  39.874  21.232   2.363
19973W        W85453  36.456  28.171   4.199
19974W        W85454  27.470  17.205   0.404
19975W        W85455  17.773  44.433  12.461
19976W        W85456  36.386  22.730   0.354
19977W        W85457  26.670  35.501  11.591
19978W        W85458  21.603  38.331   4.147
19979W        W85459  26.052  15.745  13.977
19980W        W85460  16.239  32.947   1.718
19981W        W85461  43.926  20.638   3.360
19982W        W85462   6.847  16.205  10.507
19983W        W85463   7.794  13.669  14.411
19984W        W85464  41.476  34.445   2.871
19985W        W85465   9.669  12.220  14.395
19986W        W85466  44.766  23.612   2.720
19987W        W85467  42.388  41.359  13.015
19988W        W85468  18.141   4.810  13.936
19989W        W85469  27.131  12.225  13.846
19990W        W85470  35.880  12.650   2.714
19991W        W85471  25.197   0.784   4.762
19992W        W85472  39.444  24.675  14.950
19993W        W85473  40.901  26.640  14.785
19994W        W85474  28.665   0.415  11.099
19995W        W85475  14.166  36.047  12.453
19996W        W85476  22.527  16.706  11.379
19997W        W85477  40.543   0.483  12.378
19998W        W85478  12.313  32.555  12.875
19999W        W85479   7.267  11.675   4.678
20000W        W85480  18.771   0.388   2.725
20001W        W85481  37.577   7.359  11.951
20002W        W85482   0.935   3.300   4.622
20003W        W85483  24.190  25.136   3.297
20004W        W85484  30.434   7.242   1.765
20005W        W85485  20.688  31.407  12.092
20006W        W85486   3.400  28.938  10.433
20007W        W85487  20.653   2.776   2.715
20008W        W85488  13.334  29.044   2.220
20009W        W85489   0.956  25.097  10.145
20010W        W85490   5.268  19.624  11.071
20011W        W85491  24.547  12.226   3.152
20012W        W85492  21.236  37.467  10.946
20013W        W85493  37.444  29.044   4.838
20014W        W85494   8.221  37.476  14.981
20015W        W85495  19.641  44.262   5.243
20016W        W85496  12.678  19.671   3.148
20017W        W85497  22.547  13.810  12.980
20018W        W85498   3.389  28.046  12.084
20019W        W85499  29.552   8.207  12.073
20020W        W85500  21.534  13.835   4.752
20021W        W85501  35.390  25.077  12.984
20022W        W85502  10.692   5.412  11.004
20023W        W85503   9.233  17.787  10.929
20024W        W85504  44.929   1.750   0.264
20025W        W85505  29.019  12.831  11.469
20026W        W85506  19.280  44.965  14.355
20027W        W85507  44.305   6.278   1.287
20028W        W85508  30.481  10.664   4.781
20029W        W85509  39.446  39.023  12.391
20030W        W85510   2.387   2.355  10.442
20031W        W85511  43.397  44.967   3.191
20032W        W85512  14.274  20.210   0.279
20033W        W85513   0.295   1.438  12.578
20034W        W85514  10.831  31.967   3.726
20035W        W85515  36.889  36.565   0.255
20036W        W85516  10.367  20.627  13.915
20037W        W85517  37.922  15.580  14.801
20038W        W85518  41.955   0.307   1.704
20039W        W85519   4.944  41.956  13.331
20040W        W85520   9.649  10.377  13.365
20041W        W85521  16.250  13.323   2.304
20042W        W85522  35.895  40.944  10.965
20043W        W85523  17.749  21.186   1.404
20044W        W85524  39.429   8.869   2.254
20045W        W85525   7.884  21.514  13.834
20046W        W85526   1.478  35.524   1.334
20047W        W85527  19.247  40.014   4.126
20048W        W85528   4.926  17.195   4.124
20049W        W85529  10.274  11.245  11.492
20050W        W85530  37.463  39.040  10.994
20051W        W85531  33.624  31.102   2.901
20052W        W85532  29.982  33.934   4.689
20053W        W85533  27.494  27.633  11.882
20054W        W85534  16.253  26.540  12.082
20055W        W85535   4.900  42.400  13.925
20056W        W85536  19.247  18.264  14.370
20057W        W85537   9.191  39.045  10.627
20058W        W85538  26.466   5.325   3.234
20059W        W85539   2.457  34.073  11.886
20060W        W85540  19.254  26.596  13.329
20061W        W85541   6.758   3.910   3.375
20062W        W85542  14.658   1.793   4.800
20063W        W85543  11.367   7.734  13.867
20064W        W85544   9.780  22.105   1.328
20065W        W85545  25.480  35.376   2.757
20066W        W85546  27.078   9.868  12.546
20067W        W85547  43.876  27.065  14.031
20068W        W85548  26.100   5.752  14.005
20069W        W85549  30.603   7.217   4.183
20070W        W85550  28.540  43.865   1.361
20071W        W85551   9.311   7.715  13.344
20072W        W85552   5.808  19.202  10.484
20073W        W85553   9.832  42.476  13.803
20074W        W85554  30.576  12.638  14.948
20075W        W85555  20.589  40.417   2.741
20076W        W85556  24.110  36.939   2.884
20077W        W85557  27.094  31.588   0.761
20078W        W85558  25.510   8.703   4.809
20079W        W85559  17.182   5.211   3.318
20080W        W85560  13.635   3.457  10.411
20081W        W85561   1.854  42.800  11.044
20082W        W85562  33.536  14.248  11.923
20083W        W85563  40.346  37.050  14.897
20084W        W85564  17.079  40.414   2.229
20085W        W85565  39.019  37.555  12.051
20086W        W85566  20.557  30.534  11.389
20087W        W85567  43.861  16.272  11.971
20088W        W85568  15.276  38.331   1.924
20089W        W85569   7.864  41.411   4.320
20090W        W85570  12.708  22.023  12.068
20091W        W85571  39.871   7.217  11.092
20092W        W85572  26.576  33.934   3.296
20093W        W85573   2.377  44.392   1.796
20094W        W85574  18.120  32.939   1.722
20095W        W85575   4.249  39.536  14.423
20096W        W85576  38.417   2.903   3.800
20097W        W85577  42.453  24.032   1.290
20098W        W85578  38.023  20.039  11.127
20099W        W85579  20.157  32.482   4.789
20100W        W85580   7.910  25.506  14.908
20101W        W85581  28.985  13.262  14.292
20102W        W85582  25.083   8.188   3.169
20103W        W85583  15.721   3.810   0.760
20104W        W85584   4.853  13.794  12.404
20105W        W85585  30.985  40.966  13.855
20106W        W85586  37.482  14.597   3.339
20107W        W85587  41.512  10.352  12.877
20108W        W85588  20.711  20.201   0.944
20109W        W85589  33.523  12.836   0.263
20110W        W85590   6.809   9.283  12.050
20111W        W85591  33.959   7.666  11.030
20112W        W85592  36.998   8.817   1.890
20113W        W85593   9.337  21.530  13.054
20114W        W85594  39.893   0.905  13.932
20115W        W85595  14.175   2.870   4.123
20116W        W85596  29.613  26.464   1.426
20117W        W85597  33.412  31.129   1.400
20118W        W85598   3.843  34.918   0.839
20119W        W85599   5.835  25.194  14.975
20120W        W85600  34.520  29.031   4.618
20121W        W85601  12.150  35.860   2.318
20122W        W85602   3.875   6.270   2.863
20123W        W85603   1.959   7.188   1.786
20124W        W85604  42.519  17.663   4.116
20125W        W85605  32.625  21.683   1.345
20126W        W85606  11.327  40.540  12.501
20127W        W85607  44.325  40.451   1.251
20128W        W85608  17.674  22.557   1.890
20129W        W85609  18.203  15.690  12.949
20130W        W85610   6.917  44.818   3.307
20131W        W85611   4.910  36.438   3.664
20132W        W85612  14.255  41.458   5.639
20133W        W85613  41.447  16.087   3.287
20134W        W85614   6.828   2.911  10.564
20135W        W85615  14.329  16.599   1.728
20136W        W85616  44.970  36.880   1.356
20137W        W85617  38.015  43.394  13.317
20138W        W85618  40.327   3.898  14.462
20139W        W85619  34.499  15.295  11.123
20140W        W85620  30.992  28.983  11.104
20141W        W85621  23.649  25.634  12.397
20142W        W85622  12.823  13.255   3.372
20143W        W85623  22.107  15.688   3.772
20144W        W85624  14.231  44.762  14.370
20145W        W85625  30.924  29.942   1.307
20146W        W85626  39.523  19.683  12.028
20147W        W85627  20.096  17.747  14.296
20148W        W85628  16.262  41.959  10.441
20149W        W85629  40.532  28.103  13.951
20150W        W85630  21.695  25.124  11.056
20151W        W85631  42.514  26.001  11.038
20152W        W85632  37.536   5.868  12.579
20153W        W85633  44.773  24.142   2.394
20154W        W85634  35.454  39.058   1.742
20155W        W85635  27.173  37.009   4.114
20156W        W85636  40.354  18.718  10.961
20157W        W85637   5.747  16.796  14.014
20158W        W85638   2.448   9.876  10.925
20159W        W85639  10.854  34.444  14.339
20160W        W85640  16.622   7.375  11.422
20161W        W85641  18.293   0.493   0.776
20162W        W85642  38.951  21.733   0.397
20163W        W85643  15.617   6.339  10.449
20164W        W85644  42.950  19.754  13.062
20165W        W85645  35.432  17.663  14.803
20166W        W85646   9.206  21.055   1.302
20167W        W85647  40.922  29.494  10.531
20168W        W85648  38.932  14.137  12.570
20169W        W85649  23.065  17.064  13.877
20170W        W85650  35.511   6.224   4.758
20171W        W85651   6.326  25.621   3.179
20172W        W85652   1.391   3.860  11.584
20173W        W85653  43.998   8.276   3.837
20174W        W85654   1.765  34.027  12.944
20175W        W85655   7.334  28.669  13.414
20176W        W85656   0.908  34.957   0.458
20177W        W85657   8.346  14.218   2.391
20178W        W85658  26.988   8.339  10.997
20179W        W85659  20.084   0.896   4.159
20180W        W85660   2.876  33.584  11.380
20181W        W85661  15.102  25.626   4.284
20182W        W85662   8.724  43.393  12.878
20183W        W85663  32.474  12.170   3.825
20184W        W85664  10.650   2.276  12.374
20185W        W85665  29.041   8.214  13.849
20186W        W85666  19.540  32.531  14.002
20187W        W85667   5.384   8.248  13.417
20188W        W85668  35.358  23.188  10.969
20189W        W85669  38.985  13.761  11.948
20190W        W85670   2.363  14.272  11.059
20191W        W85671  31.088  34.018  11.983
20192W        W85672  41.536  43.487   1.345
20193W        W85673   7.695  11.147  11.889
20194W        W85674   5.771  19.712  11.003
20195W        W85675  43.280  36.060   2.372
20196W        W85676  44.337  30.939   3.653
20197W        W85677  28.018  32.084  11.061
20198W        W85678   6.837  27.486   3.182
20199W        W85679   8.200  34.897   0.801
20200W        W85680  12.347  42.501  13.476
20201W        W85681  22.195  13.251  11.416
20202W        W85682  40.853  22.067  14.768
20203W        W85683   3.854  42.509  14.378
20204W        W85684  21.746   1.437  13.039
20205W        W85685  24.190  19.097   3.869
20206W        W85686  19.590   1.279   3.778
20207W        W85687  32.422  15.714  14.456
20208W        W85688  23.024  43.418   4.648
20209W        W85689  30.507  11.269  13.033
20210W        W85690  25.017   1.320  13.309
20211W        W85691  43.841   7.882   3.726
20212W        W85692  40.326  31.501   1.360
20213W        W85693  26.966  42.324   4.238
20214W        W85694  19.282  37.485   0.965
20215W        W85695  36.562  20.639  11.541
20216W        W85696  27.496   4.409   3.862
20217W        W85697  21.717   0.336   0.897
20218W        W85698  24.557  18.759   3.860
20219W        W85699  25.061  41.436   3.690
20220W        W85700  41.954  42.843  13.387
20221W        W85701   3.797  22.200   4.642
20222W        W85702  40.438  22.173  14.886
20223W        W85703   2.743   0.744  10.468
20224W        W85704   3.943   0.405  11.549
20225W        W85705   1.440  13.711   3.189
20226W        W85706  28.588  28.075   3.773
20227W        W85707  41.451   0.300  10.513
20228W        W85708  19.115  30.428   2.187
20229W        W85709   1.817  37.424  14.001
20230W        W85710  31.418  22.666   2.343
20231W        W85711  20.611  40.953  14.483
20232W        W85712  32.095  23.623  11.036
20233W        W85713   7.786  10.698   2.218
20234W        W85714  23.213  40.492  13.406
20235W        W85715  30.578   9.233   2.267
20236W        W85716  43.377  25.085  13.864
20237W        W85717  23.166  26.635  13.004
20238W        W85718   8.172  32.965  14.848
20239W        W85719  42.479  17.085  14.889
20240W        W85720   3.873  38.519   4.174
20241W        W85721  12.189  28.186  13.499
20242W        W85722   5.380   0.272   2.262
20243W        W85723  42.905  41.024  13.832
20244W        W85724   6.723  19.774   0.742
20245W        W85725  10.241   3.868  14.321
20246W        W85726   6.836  23.729   0.295
20247W        W85727  28.662  10.681  13.009
20248W        W85728  35.028   1.976  12.521
20249W        W85729  34.009  22.205   3.178
20250W        W85730  11.206   3.263  13.335
20251W        W85731   1.317  28.141   0.730
20252W        W85732  27.151  27.114  10.492
20253W        W85733  37.939  10.673  11.924
20254W        W85734   3.424  23.597   4.277
20255W        W85735  10.234   5.762  13.444
20256W        W85736  14.178  32.482  14.447
20257W        W85737  29.592  17.228   2.762
20258W        W85738   4.734  28.971  14.019
20259W        W85739  41.948  30.619   0.891
20260W        W85740   1.739   8.884  14.859
20261W        W85741  21.755   1.299   3.330
20262W        W85742   6.416  14.810  12.078
20263W        W85743  12.168  10.275  11.044
20264W        W85744  44.481  40.960  10.443
20265W        W85745  14.707  12.737  14.278
20266W        W85746  14.653   9.187   0.399
20267W        W85747  16.699  34.957  10.506
20268W        W85748  32.900  26.666   4.194
20269W        W85749   5.424  23.645   0.745
20270W        W85750  40.950   1.860  12.018
20271W        W85751   2.282  24.137   4.791
20272W        W85752  27.139   6.709   3.699
20273W        W85753   7.845   2.838  13.339
20274W        W85754  21.242  29.096   2.276
20275W        W85755  25.535  20.591  10.507
20276W        W85756  41.317  31.962   4.336
20277W        W85757  43.437  35.060   4.195
20278W        W85758  41.791  11.249   0.431
20279W        W85759  28.509   5.322  12.847
20280W        W85760  25.712  19.758  10.421
20281W        W85761   7.885  36.371   4.228
20282W        W85762  14.242   2.784   0.430
20283W        W85763   5.341  35.398  14.962
20284W        W85764   0.289   1.823  11.564
20285W        W85765  31.058  42.906   4.217
20286W        W85766   6.225  43.963  11.487
20287W        W85767  43.990  19.662   1.249
20288W        W85768  41.918  13.671   4.619
20289W        W85769  37.397  33.619  14.760
20290W        W85770   0.333  38.485   4.139
20291W        W85771  13.208  13.143   1.434
20292W        W85772  31.918   7.721  12.046
20293W        W85773   3.723   1.827  14.375
20294W        W85774  28.120  17.594  12.410
20295W        W85775  41.363  12.806   0.847
20296W        W85776  44.832   2.836  13.900
20297W        W85777  11.239  34.421   3.253
20298W        W85778  26.202  22.537   3.797
20299W        W85779  41.965   6.258   0.731
20300W        W85780   4.906  34.964   4.195
20301W        W85781  12.278  21.096   2.308
20302W        W85782  26.976  28.542  14.890
20303W        W85783  19.187   8.705  12.551
20304W        W85784  14.301   8.301   2.742
20305W        W85785  18.245  20.668   4.695
20306W        W85786   3.403   9.188  10.501
20307W        W85787  12.310  33.045  11.076
20308W        W85788   3.389  41.320   3.201
20309W        W85789  29.441  39.046  10.099
20310W        W85790  33.996   0.262   3.291
20311W        W85791  14.609  12.797  12.460
20312W        W85792  38.546  28.161   1.238
20313W        W85793  42.030   3.755   5.098
20314W        W85794  16.725   3.325   0.762
20315W        W85795   3.944  35.921   5.129
20316W        W85796   0.900  41.896  12.894
20317W        W85797   4.211  44.489  11.593
20318W        W85798  17.556  27.994  10.993
20319W        W85799  25.658  13.622   1.904
20320W        W85800  29.140  34.381   0.762
20321W        W85801  18.596  35.981   4.735
20322W        W85802  23.090   7.788  13.497
20323W        W85803  32.445  23.049   3.641
20324W        W85804  12.617  23.660   2.333
20325W        W85805  12.784  23.650   3.775
20326W        W85806  25.617   3.442   2.826
20327W        W85807   2.931   1.834   2.784
20328W        W85808   3.818  36.546  12.462
20329W        W85809  11.201   4.327  12.081
20330W        W85810  31.148  37.078  13.877
20331W        W85811  12.350  18.240  14.278
20332W        W85812  11.276  32.532   0.933
20333W        W85813  29.057  42.319  11.067
20334W        W85814  29.605  40.456  10.905
20335W        W85815  37.490  10.378   4.767
20336W        W85816   4.714   9.321   3.730
20337W        W85817  44.865  27.168  12.392
20338W        W85818  21.163   9.722  14.325
20339W        W85819  13.801  24.117  13.440
20340W        W85820  22.524  41.917   2.291
20341W        W85821  41.469  44.895  11.878
20342W        W85822   2.911  36.582   4.300
20343W        W85823  28.624   7.346   3.797
20344W        W85824  44.825  10.699   2.761
20345W        W85825  21.199  27.547   2.834
20346W        W85826   5.840  14.661   4.158
20347W        W85827  24.517   7.883   1.338
20348W        W85828  41.487  28.554  14.374
20349W        W85829   7.249  18.152   1.826
20350W        W85830  44.458   3.837  10.974
20351W        W85831   9.823  41.986   3.215
20352W        W85832  36.912  13.782  10.960
20353W        W85833  32.570  43.425   2.377
20354W        W85834  29.462  21.087  13.984
20355W        W85835  12.311  11.337   0.836
20356W        W85836   6.302  44.858   1.901
20357W        W85837   9.856   8.294   4.728
20358W        W85838  21.525  22.682  11.436
20359W        W85839   2.786  20.701   4.296
20360W        W85840  23.995  23.672   1.369
20361W        W85841   6.253  30.098  12.527
20362W        W85842  16.765  32.057  14.943
20363W        W85843  42.781  24.514   0.838
20364W        W85844  19.234  28.554  12.552
20365W        W85845  12.159  12.123  10.550
20366W        W85846  17.174   8.802   5.297
20367W        W85847  23.221  30.111  14.403
20368W        W85848   7.838   8.803   2.877
20369W        W85849  12.788  32.585  10.457
20370W        W85850  28.667  30.084   0.919
20371W        W85851  27.626  27.045   1.878
20372W        W85852   0.343  43.808  13.801
20373W        W85853  10.797  41.872  11.915
20374W        W85854  27.614  34.600  10.457
20375W        W85855  42.352  41.998   2.268
20376W        W85856   1.257  28.583  12.573
20377W        W85857   7.707  43.469  13.368
20378W        W85858  11.343   8.749   1.444
20379W        W85859  20.082  24.203   4.253
20380W        W85860  25.584   1.819   1.311
20381W        W85861   4.810  22.006   0.480
20382W        W85862   0.445  14.215  11.117
20383W        W85863  27.462  44.004   2.339
20384W        W85864  17.192  19.099  13.876
20385W        W85865  19.535  39.865   9.968
20386W        W85866   4.237  24.077   2.312
20387W        W85867  40.532  24.036  14.280
20388W        W85868  27.665  34.992   3.811
20389W        W85869  18.699  42.895  14.369
20390W        W85870  30.969  34.378  11.525
20391W        W85871  25.215  16.675   4.803
20392W        W85872  26.625  10.653  12.464
20393W        W85873   3.927  29.605  13.977
20394W        W85874  11.695   6.416  13.014
20395W        W85875   9.790  20.609  12.385
20396W        W85876  11.863   7.811   0.270
20397W        W85877  41.965  27.567  12.391
20398W        W85878  18.546  41.820   4.727
20399W        W85879  39.999   6.694   1.285
20400W        W85880  29.479  40.506  12.400
20401W        W85881  43.851  43.420  14.290
20402W        W85882  32.561   2.427  14.775
20403W        W85883  28.178  36.354  10.489
20404W        W85884  43.017  11.184   0.874
20405W        W85885  36.853  37.499  12.371
20406W        W85886  35.448  29.652   4.643
20407W        W85887  18.121   7.237   0.368
20408W        W85888   0.832   0.767   3.751
20409W        W85889  40.824  10.335  14.807
20410W        W85890  26.050  20.071   3.385
20411W        W85891   6.411   1.853  10.510
20412W        W85892  15.143  21.200  10.534
20413W        W85893  24.514  22.030   3.236
20414W        W85894   0.902  33.064   2.833
20415W        W85895  11.781  42.303  10.552
20416W        W85896  37.925  17.716  12.379
20417W        W85897  44.467  34.509  10.436
20418W        W85898   9.792  23.060  11.582
20419W        W85899  35.023   1.910   0.831
20420W        W85900  44.492  41.954   0.909
20421W        W85901   7.676  37.357   9.953
20422W        W85902  23.038  43.388   3.798
20423W        W85903  34.392  36.526   4.743
20424W        W85904  20.051  27.950  12.495
20425W        W85905  41.438   8.393   0.933
20426W        W85906  18.626  20.636   4.663
20427W        W85907   1.331  20.686  11.919
20428W        W85908  25.661   0.919   0.369
20429W        W85909  27.519  17.712  12.400
20430W        W85910  11.838  28.099   3.269
20431W        W85911  26.626  33.535  11.475
20432W        W85912   4.450   8.383  10.530
20433W        W85913   4.267   9.351  11.089
20434W        W85914  10.247  39.004  11.487
20435W        W85915  44.451  15.758   2.706
20436W        W85916  34.033  26.058  11.590
20437W        W85917  40.927  18.149  12.500
20438W        W85918   7.799  19.570  12.415
20439W        W85919   1.387  39.470   0.351
20440W        W85920  22.624  15.790   4.146
20441W        W85921  29.630  38.411  14.353
20442W        W85922   8.363  31.106   1.772
20443W        W85923  26.465  35.582  12.902
20444W        W85924  14.318  29.549  10.623
20445W        W85925  36.492  12.260  13.004
20446W        W85926   8.282  19.271  10.540
20447W        W85927  26.600  37.462  14.953
20448W        W85928  26.621  44.337   0.924
20449W        W85929  18.750  10.680  10.518
20450W        W85930  22.080   8.394  10.644
20451W        W85931  36.424  26.695  14.312
20452W        W85932  31.015  42.409   5.148
20453W        W85933  16.182  11.371   3.848
20454W        W85934  12.705  34.024  11.433
20455W        W85935  21.740   4.763  14.407
20456W        W85936   7.199  38.961  12.931
20457W        W85937  24.194  35.566  11.890
20458W        W85938  14.261   0.443  14.385
20459W        W85939  28.052   6.770  13.519
20460W        W85940  38.494  34.510   3.808
20461W        W85941  20.103  41.322   4.742
20462W        W85942  27.678  26.599   4.330
20463W        W85943  18.150  41.854  13.017
20464W        W85944  25.691   8.717   9.969
20465W        W85945  32.526  34.872  10.942
20466W        W85946  22.523  21.135   5.229
20467W        W85947  42.830  28.980  14.301
20468W        W85948  38.939  37.440   2.207
20469W        W85949  43.839   4.842   3.183
20470W        W85950  37.972  19.728   0.326
20471W        W85951   3.343  41.013   0.271
20472W        W85952  13.627  44.267  10.512
20473W        W85953  43.383  36.933  13.964
20474W        W85954  30.034  34.544  13.416
20475W        W85955  21.645   2.437  12.975
20476W        W85956  22.009   3.733   1.374
20477W        W85957  13.693  44.762   4.599
20478W        W85958  36.851  21.134   3.647
20479W        W85959  40.478  32.463  13.999
20480W        W85960  28.681   7.670   4.137
20481W        W85961  26.042  24.108   2.851
20482W        W85962  16.264  34.107  11.551
20483W        W85963  23.506  28.609   1.310
20484W        W85964  15.598   2.834   3.248
20485W        W85965  15.660  28.955   1.308
20486W        W85966  40.863  16.080   2.374
20487W        W85967  18.204   4.381   2.884
20488W        W85968  25.125  41.822   1.858
20489W        W85969  19.743  28.528   0.350
20490W        W85970  26.117   2.305   0.905
20491W        W85971  11.356   1.804   4.717
20492W        W85972   9.201  33.432  11.479
20493W        W85973  22.731  20.111  14.357
20494W        W85974  44.909  37.439   2.345
20495W        W85975   7.417  31.507  14.012
20496W        W85976  24.097  10.824   2.892
20497W        W85977  29.024  32.546  12.560
20498W        W85978  27.001  17.642  12.535
20499W        W85979  39.050  18.772  14.507
20500W        W85980  42.376  20.522   2.292
20501W        W85981  14.297  15.252  12.415
20502W        W85982  11.224  10.240  12.068
20503W        W85983  22.078   2.300   4.752
20504W        W85984  15.647  14.823   2.769
20505W        W85985  15.110  40.899  13.019
20506W        W85986  14.819  29.017   0.367
20507W        W85987   5.688  39.337   1.390
20508W        W85988  29.945  16.610   1.838
20509W        W85989  16.719  39.014  12.437
20510W        W85990  26.597  26.551   1.226
20511W        W85991  13.775  41.845   0.417
20512W        W85992  24.161  36.462   4.630
20513W        W85993  36.472  30.137   1.819
20514W        W85994  38.493  44.791  14.766
20515W        W85995  10.290  35.086   3.181
20516W        W85996  28.044  11.187  10.075
20517W        W85997  26.171  38.835  10.073
20518W        W85998  28.611  40.990   0.957
20519W        W85999  33.454  11.301   2.814
20520W        W86000   7.212  14.781  14.974
20521W        W86001   2.782   9.173  13.914
20522W        W86002  19.089   1.970  10.970
20523W        W86003  32.592  44.938   1.373
20524W        W86004  35.523  43.454   0.464
20525W        W86005  17.769   8.258   4.715
20526W        W86006  37.992  36.072  11.469
20527W        W86007  25.643  33.944   3.300
20528W        W86008  29.097  40.544   0.397
20529W        W86009   9.346  12.130  13.926
20530W        W86010  18.579   4.425   3.762
20531W        W86011  44.783  17.133   4.832
20532W        W86012   8.706  42.472   1.747
20533W        W86013   0.287   0.418   3.713
20534W        W86014  27.511   1.445   2.707
20535W        W86015   1.815   2.833   1.889
20536W        W86016  14.212   5.884   0.246
20537W        W86017  28.662   8.677   0.449
20538W        W86018  11.242  38.515  13.871
20539W        W86019  33.065  43.311  11.527
20540W        W86020  17.799  13.781  13.981
20541W        W86021  27.049  44.320  12.854
20542W        W86022  31.098  30.982  13.326
20543W        W86023  20.670  11.721   4.734
20544W        W86024  31.954  26.646  10.922
20545W        W86025   0.892  33.589  13.828
20546W        W86026  18.712  11.139   3.707
20547W        W86027  36.942   0.413  10.486
20548W        W86028  13.707  20.240   0.735
20549W        W86029   7.777  29.627  13.875
20550W        W86030  42.006  21.726  10.631
20551W        W86031  32.523  33.982   2.681
20552W        W86032  17.688  40.449  12.830
20553W        W86033  40.051  38.392  12.967
20554W        W86034  15.274   4.934  10.075
20555W        W86035  10.288  20.095  14.991
20556W        W86036  25.161  42.031  11.606
20557W        W86037  31.402  28.025   4.304
20558W        W86038  25.486   4.276  14.021
20559W        W86039  29.572  26.472   5.159
20560W        W86040  31.647  31.439  14.871
20561W        W86041  18.054   7.320  14.831
20562W        W86042  19.677  27.025   3.699
20563W        W86043   9.389   9.770   3.164
20564W        W86044  31.110  23.193  13.024
20565W        W86045   5.816   1.737  14.912
20566W        W86046  25.550  18.693  13.844
20567W        W86047  17.705  39.332   1.776
20568W        W86048  40.993   6.719   5.291
20569W        W86049  26.606  37.859   1.795
20570W        W86050   2.946  17.800  10.644
20571W        W86051  25.070  41.907  14.884
20572W        W86052  12.165   5.715   4.747
20573W        W86053  16.777  43.309  13.983
20574W        W86054   3.236  39.850   0.890
20575W        W86055  40.490  24.124   0.481
20576W        W86056  16.770  16.145   3.754
20577W        W86057   0.849  10.707  13.441
20578W        W86058  12.278  22.720  13.538
20579W        W86059  22.122  23.124   0.816
20580W        W86060  30.986  43.780  12.382
20581W        W86061  10.158  20.656  14.286
20582W        W86062  12.139   2.832  11.569
20583W        W86063  18.673  23.640   1.726
20584W        W86064  12.189  40.453   2.773
20585W        W86065  14.200   1.842  12.066
20586W        W86066   7.821  28.932   3.850
20587W        W86067  12.816  16.104  11.577
20588W        W86068  29.429  14.281  13.059
20589W        W86069  18.684  27.974  13.386
20590W        W86070  38.365  14.666   0.313
20591W        W86071  18.181   6.215  11.010
20592W        W86072  24.499   9.205   1.389
20593W        W86073   9.698  11.346   2.243
20594W        W86074  24.490  26.169   0.414
20595W        W86075  28.636   3.270   3.721
20596W        W86076   5.232  32.987  10.052
20597W        W86077  39.357   5.775  10.902
20598W        W86078  37.351   3.267  11.892
20599W        W86079  11.732  34.978   1.386
20600W        W86080  30.974   6.232  11.064
20601W        W86081  43.914  28.545  12.542
20602W        W86082  41.790  16.661   0.453
20603W        W86083  34.435  42.414   0.791
20604W        W86084  34.942  15.590   5.179
20605W        W86085  10.870  21.150   1.786
20606W        W86086  43.875   4.348   3.819
20607W        W86087  27.973  11.841   4.224
20608W        W86088  30.007  22.527   3.648
20609W        W86089  16.085  38.064  12.972
20610W        W86090  34.051  22.722  11.606
20611W        W86091  20.565  41.015  10.564
20612W        W86092  41.411  25.491   2.387
20613W        W86093   7.669  43.825   2.367
20614W        W86094  26.583  23.672   4.618
20615W        W86095  10.138  37.522   4.285
20616W        W86096  15.206   5.811   3.836
20617W        W86097  44.865   9.313  12.901
20618W        W86098  22.651  33.056  12.347
20619W        W86099  16.100  33.067  12.874
20620W        W86100  42.779  14.642   4.639
20621W        W86101  40.963  26.528   3.160
20622W        W86102  24.559  27.662  13.900
20623W        W86103   3.879  21.755   4.133
20624W        W86104   6.188  22.540   3.289
20625W        W86105  24.153  41.479   4.157
20626W        W86106  37.042  16.599   3.709
20627W        W86107  15.726  33.387   0.743
20628W        W86108  40.983  31.998   0.856
20629W        W86109  23.523  28.966  14.996
20630W        W86110  39.475  30.995  13.038
20631W        W86111  37.427  24.491  11.917
20632W        W86112  29.436   8.307  13.390
20633W        W86113  10.729  11.282   0.880
20634W        W86114  35.016   2.244  12.571
20635W        W86115   4.433   4.886  11.873
20636W        W86116  22.035  13.202   3.225
20637W        W86117  19.133   2.879  11.488
20638W        W86118  33.577   1.439   2.901
20639W        W86119  10.676  37.472   1.795
20640W        W86120   4.232  33.611   2.264
20641W        W86121  44.463   6.318   4.720
20642W        W86122  13.159  14.744   3.322
20643W        W86123  14.252  30.589   3.372
20644W        W86124  28.511  16.298  13.794
20645W        W86125  16.594  24.608  14.344
20646W        W86126  12.157  32.066   1.750
20647W        W86127  37.086  31.976   3.752
20648W        W86128  25.212  36.536   0.847
20649W        W86129   3.901  32.966   0.864
20650W        W86130  34.593  43.982   0.386
20651W        W86131  36.465  28.485   3.800
20652W        W86132   9.782  19.570  10.410
20653W        W86133  15.631  38.335   0.256
20654W        W86134  38.940  25.981  10.528
20655W        W86135  35.527  13.156   0.351
20656W        W86136  22.139  30.604   2.247
20657W        W86137  43.977   0.360   2.814
20658W        W86138  40.975  27.624  13.505
20659W        W86139  31.412  31.060  14.902
20660W        W86140  42.799   4.225  11.560
20661W        W86141  42.990  29.010   0.430
20662W        W86142   5.885  15.224   4.608
20663W        W86143  15.662  20.557   3.262
20664W        W86144   4.891  15.167  10.593
20665W        W86145  43.942  28.611   4.751
20666W        W86146  38.480  30.623  10.976
20667W        W86147   6.284   7.236   4.171
20668W        W86148   6.347   4.336  13.424
20669W        W86149  28.569  14.613   2.662
20670W        W86150  10.861  37.402  11.454
20671W        W86151  28.581   9.733  13.003
20672W        W86152  43.948  25.112   1.728
20673W        W86153  11.214   4.443  13.417
20674W        W86154  27.152   1.885   3.768
20675W        W86155  40.352   1.483   1.329
20676W        W86156  38.337  44.937  11.493
20677W        W86157  40.817   3.718  11.571
20678W        W86158  43.935   6.284  14.308
20679W        W86159  43.311  39.329   3.789
20680W        W86160  35.463   5.330  13.363
20681W        W86161  40.016  22.049  10.937
20682W        W86162  37.050  32.408   1.327
20683W        W86163  10.343  43.490  13.911
20684W        W86164  20.616  34.946  10.604
20685W        W86165  43.417   4.742  14.428
20686W        W86166  20.167  33.493   4.286
20687W        W86167  11.805  13.257  11.550
20688W        W86168  22.181  44.421  14.886
20689W        W86169  28.007  11.207  11.008
20690W        W86170   8.699  33.582  11.491
20691W        W86171   3.928  31.085  14.458
20692W        W86172  28.986  14.148   2.825
20693W        W86173   8.359  15.230   4.328
20694W        W86174  28.951  39.339  14.328
20695W        W86175   4.829  35.911  11.095
20696W        W86176   9.761   0.751  13.506
20697W        W86177  21.591  42.303   4.335
20698W        W86178  24.675  30.570   1.767
20699W        W86179  22.187  40.340   0.923
20700W        W86180  35.074  37.455   5.180
20701W        W86181  19.538   5.706   1.301
20702W        W86182  11.683  21.685   0.310
20703W        W86183  44.323  25.503  12.876
20704W        W86184   7.870  20.100   0.476
20705W        W86185  41.995  32.486  13.815
20706W        W86186  20.630  27.004  14.871
20707W        W86187  33.443  35.053  12.433
20708W        W86188   1.325  36.395   1.862
20709W        W86189  44.302  20.186   0.388
20710W        W86190  44.837  36.034   2.194
20711W        W86191   3.924   0.784  11.411
20712W        W86192  10.784  39.448   2.724
20713W        W86193  25.219  32.002   2.898
20714W        W86194  11.358  10.839  12.341
20715W        W86195  18.566  36.022  12.929
20716W        W86196  19.737  17.774  12.095
20717W        W86197  38.485  18.081   2.700
20718W        W86198  14.703  27.088  14.317
20719W        W86199   1.304   9.783  10.928
20720W        W86200  21.091  19.082  12.375
20721W        W86201   4.860  26.590   2.191
20722W        W86202  26.660   6.790   0.936
20723W        W86203  40.024  42.469  13.014
20724W        W86204  40.911   8.730  10.029
20725W        W86205  20.542   4.288   4.832
20726W        W86206  27.548  23.130   0.416
20727W        W86207  35.941   5.284  11.504
20728W        W86208  28.530  34.917  10.888
20729W        W86209  11.357  15.818   5.166
20730W        W86210  13.769  30.586   1.438
20731W        W86211   8.319  32.979  10.984
20732W        W86212  23.994   8.387   3.738
20733W        W86213  11.723  11.217   0.912
20734W        W86214  30.054  36.045  13.890
20735W        W86215  11.703  33.501  12.019
20736W        W86216  20.069  18.680  14.992
20737W        W86217  34.402  14.269   1.356
20738W        W86218  19.262  19.055   1.371
20739W        W86219  25.628  33.999  12.037
20740W        W86220  14.328   0.871   3.671
20741W        W86221   8.763  24.991  10.584
20742W        W86222  13.256  12.652  12.829
20743W        W86223  35.925   0.891  14.347
20744W        W86224  14.804   3.218  12.366
20745W        W86225   6.314  17.797  11.049
20746W        W86226  26.478   0.796   1.413
20747W        W86227  11.787  12.829  14.455
20748W        W86228   8.171  33.939   0.466
20749W        W86229   9.157  28.089   0.422
20750W        W86230  24.117  37.932  11.871
20751W        W86231   0.816  32.411  12.030
20752W        W86232  37.505  13.110   0.445
20753W        W86233   9.391  41.861  13.936
20754W        W86234  23.676   5.215  13.533
20755W        W86235  32.566  44.938  14.500
20756W        W86236   1.929   8.776   1.415
20757W        W86237  35.415  20.223  11.904
20758W        W86238  19.551  24.158   3.688
20759W        W86239  17.066  11.371  11.068
20760W        W86240  13.667  27.150   0.339
20761W        W86241  22.226   5.254   4.337
20762W        W86242  10.789  37.041  11.007
20763W        W86243  42.830  42.866  13.991
20764W        W86244   5.385  25.629  11.014
20765W        W86245  13.806  38.904  11.101
20766W        W86246   5.767  15.318   2.215
20767W        W86247  27.507   3.834   3.702
20768W        W86248  10.257  33.555  13.999
20769W        W86249  10.208   3.809  12.566
20770W        W86250  22.024  43.020   1.244
20771W        W86251  33.497  10.192   0.369
20772W        W86252   1.809  13.299   2.362
20773W        W86253  20.063  24.486   2.225
20774W        W86254   2.964  24.701  14.761
20775W        W86255  30.136  17.643  14.760
20776W        W86256  34.103  19.643   5.090
20777W        W86257   6.219   0.335  12.491
20778W        W86258   6.696  32.546  12.027
20779W        W86259   3.252  25.598   2.234
20780W        W86260  39.509   7.263   1.842
20781W        W86261  15.312  20.686  11.893
20782W        W86262  16.121  31.127  10.641
20783W        W86263  12.333  28.024  10.903
20784W        W86264  28.634  15.143   2.189
20785W        W86265  39.464  24.975   2.415
20786W        W86266   9.714  25.041  10.899
20787W        W86267   2.959  26.126  12.999
20788W        W86268  37.429  37.371   4.775
20789W        W86269   4.857  44.969   2.685
20790W        W86270  11.218  25.175  14.794
20791W        W86271  18.775  11.708   5.316
20792W        W86272  34.092  29.442   4.349
20793W        W86273  17.680  12.210   2.733
20794W        W86274  36.056  16.215   2.727
20795W        W86275  17.706  30.603   4.233
20796W        W86276  36.850  17.149   2.300
20797W        W86277  26.010  38.001   3.744
20798W        W86278  14.739  44.864  11.078
20799W        W86279  37.876  12.303  12.524
20800W        W86280  28.607   0.269   2.856
20801W        W86281  19.699   8.311   0.292
20802W        W86282   2.803   3.392  10.934
20803W        W86283  30.614  31.115   2.410
20804W        W86284  41.991  29.014  11.978
20805W        W86285  17.652  20.637  11.440
20806W        W86286  28.095  33.400   3.789
20807W        W86287  41.309  21.635  10.158
20808W        W86288  34.427  32.977   4.826
20809W        W86289   4.426  37.435   0.787
20810W        W86290  34.569  34.606  12.849
20811W        W86291   8.286  37.952  13.460
20812W        W86292  43.962  31.630  14.895
20813W        W86293   8.661  14.307  11.030
20814W        W86294  36.484  15.086  13.927
20815W        W86295  37.035   7.312   1.430
20816W        W86296  35.998   2.297   0.941
20817W        W86297  37.452  16.215  11.537
20818W        W86298  34.013  28.028   2.667
20819W        W86299  30.099   8.406  12.932
20820W        W86300  34.392   6.917   4.607
20821W        W86301   3.381  15.636  10.157
20822W        W86302   7.283  18.628   2.231
20823W        W86303  39.457  29.940   1.386
20824W        W86304   5.193  35.958   3.704
20825W        W86305  10.180   1.875  11.016
20826W        W86306   4.269   0.357  11.867
20827W        W86307  30.983   2.859  13.433
20828W        W86308   3.868  19.710   2.821
20829W        W86309  33.998   2.878   4.183
20830W        W86310  26.165  19.650  12.989
20831W        W86311  44.489  12.132   4.319
20832W        W86312  17.273  35.872   2.307
20833W        W86313  27.045  29.552  10.465
20834W        W86314  39.044   6.360   0.471
20835W        W86315   1.272  17.110  14.448
20836W        W86316  15.107  12.205   2.894
20837W        W86317  29.453  17.761  12.408
20838W        W86318  37.931  16.236   1.349
20839W        W86319   4.296  17.589  11.554
20840W        W86320   8.789   0.353  12.833
20841W        W86321   8.834  26.069  12.419
20842W        W86322  44.446  11.719  13.858
20843W        W86323  35.983  16.622   1.807
20844W        W86324  38.887  25.083   0.838
20845W        W86325  15.761  33.568  13.356
20846W        W86326  30.539  31.609   3.851
20847W        W86327  17.257  37.552  10.134
20848W        W86328   5.427  10.654   4.207
20849W        W86329  31.938  17.771   2.678
20850W        W86330  41.870  19.178   3.271
20851W        W86331  27.952  39.930  11.457
20852W        W86332   8.738  29.922  13.991
20853W        W86333   7.286  17.228   4.736
20854W        W86334  38.066  30.048   0.311
20855W        W86335  17.610  23.020   1.790
20856W        W86336   9.166  19.111   4.304
20857W        W86337  39.866   2.448  14.856
20858W        W86338   0.841  31.535  14.908
20859W        W86339  16.249  37.395   2.708
20860W        W86340  43.484  16.750  12.485
20861W        W86341   8.677  40.832  13.538
20862W        W86342  29.652  16.283  11.988
20863W        W86343  14.754   5.332  14.397
20864W        W86344  10.847   5.812   4.116
20865W        W86345  22.686   5.884  11.930
20866W        W86346  15.108  32.473  14.824
20867W        W86347  26.553  42.827  12.070
20868W        W86348   1.419   3.796   0.807
20869W        W86349  14.662  10.263  13.050
20870W        W86350   0.786   1.804   3.792
20871W        W86351   2.401  30.125  12.445
20872W        W86352  36.960  38.925   0.356
20873W        W86353  32.602  28.163  13.969
20874W        W86354   3.252  21.721   1.868
20875W        W86355  28.970   5.418  13.396
20876W        W86356   9.742  12.217   0.750
20877W        W86357  33.005   4.340   1.366
20878W        W86358   1.256  12.649   3.208
20879W        W86359  29.054   3.408  12.379
20880W        W86360  16.158  15.229   5.115
20881W        W86361  11.802   2.304   1.765
20882W        W86362  34.606  36.490   1.232
20883W        W86363   9.178  23.586  14.849
20884W        W86364  20.090  32.932  14.464
20885W        W86365  26.621  15.147  14.332
20886W        W86366   6.390  26.065  13.431
20887W        W86367   2.430  42.486  11.550
20888W        W86368   9.176  17.251  10.003
20889W        W86369  22.240  33.932   1.847
20890W        W86370  36.913  27.461   0.324
20891W        W86371  12.619  24.999  11.482
20892W        W86372  22.565   2.924   0.406
20893W        W86373  27.526  12.131   4.340
20894W        W86374  25.613  36.545   4.306
20895W        W86375  36.956  19.089  14.863
20896W        W86376  16.099  25.558  12.882
20897W        W86377  43.454  29.644  10.418
20898W        W86378  35.049   2.364   3.833
20899W        W86379  19.780  12.264  13.462
20900W        W86380  34.371  14.322   2.179
20901W        W86381   4.821  20.123  13.812
20902W        W86382   5.251  38.955  11.397
20903W        W86383  13.638  36.459   0.357
20904W        W86384  27.172  12.118  12.900
20905W        W86385  38.502  23.042   0.453
20906W        W86386  37.882   4.447  10.544
20907W        W86387  22.011  20.576   2.236
20908W        W86388  37.914  22.730   2.691
20909W        W86389  21.713  26.608  11.897
20910W        W86390  35.995  37.965  12.891
20911W        W86391  19.059  26.997   0.738
20912W        W86392   5.863   6.207   0.775
20913W        W86393  32.102  24.093   1.769
20914W        W86394  38.998  40.843  13.886
20915W        W86395   6.326  39.817   4.190
20916W        W86396  32.072  22.639  13.881
20917W        W86397   1.345  14.272   0.887
20918W        W86398   4.810  36.023   3.356
20919W        W86399  17.640   1.312  12.969
20920W        W86400  30.909  17.198  12.569
20921W        W86401  10.298  23.143   4.320
20922W        W86402   8.701  21.091   3.244
20923W        W86403  26.620  36.458   3.859
20924W        W86404  32.111   6.774   4.778
20925W        W86405  39.870  36.409  10.493
20926W        W86406  35.069  21.141   0.761
20927W        W86407  19.536  31.050   1.875
20928W        W86408  16.149  13.733   0.305
20929W        W86409  17.136  31.405  13.906
20930W        W86410  34.523  38.907  12.477
20931W        W86411  40.948  23.110  10.495
20932W        W86412  12.236  34.476   3.269
20933W        W86413  11.360  36.893  12.505
20934W        W86414  14.280  34.612   0.967
20935W        W86415  15.679  32.425   3.230
20936W        W86416  40.398   8.660  10.460
20937W        W86417  31.598  36.039  14.846
20938W        W86418   4.724  19.207   4.122
20939W        W86419  19.764   4.856   4.294
20940W        W86420  16.135  23.674  14.444
20941W        W86421  15.783  38.003  14.349
20942W        W86422  31.008  44.758   1.779
20943W        W86423   9.684   9.394  13.323
20944W        W86424   4.401   5.794  11.489
20945W        W86425  28.649  18.151   2.300
20946W        W86426   5.852  28.614  12.411
20947W        W86427  27.548  35.095  11.909
20948W        W86428  21.583  42.386   0.789
20949W        W86429  18.158  44.886  14.844
20950W        W86430  38.416  35.407   4.716
20951W        W86431  34.585  41.805  11.986
20952W        W86432   9.243  27.083  11.063
20953W        W86433  30.972  39.433   4.172
20954W        W86434   8.356  24.620   2.894
20955W        W86435   5.838  44.327   3.318
20956W        W86436  36.010  38.945   4.624
20957W        W86437  35.074  17.586  12.344
20958W        W86438  39.944  13.753   2.186
20959W        W86439  41.788  14.602   3.172
20960W        W86440  17.182  18.719   0.843
20961W        W86441   6.847   4.392  14.956
20962W        W86442  18.109  19.100  11.108
20963W        W86443   7.810  20.624   3.236
20964W        W86444  37.481  16.081   1.730
20965W        W86445  23.034  26.036  11.479
20966W        W86446  11.301  18.556  12.455
20967W        W86447  39.943   8.208   4.245
20968W        W86448   3.955  44.494  11.602
20969W        W86449  28.147  41.956   3.234
20970W        W86450   4.376   8.333   0.313
20971W        W86451  44.987  20.052   4.312
20972W        W86452  21.255  31.042   0.933
20973W        W86453  22.582  42.900   2.274
20974W        W86454  33.393  44.264   3.210
20975W        W86455  32.466  15.686  12.091
20976W        W86456  12.688   0.300  14.786
20977W        W86457   2.400  12.278   4.190
20978W        W86458  34.091  18.681  14.821
20979W        W86459  19.621  14.709   0.396
20980W        W86460   6.731  17.143  13.999
20981W        W86461  38.563  19.102   1.267
20982W        W86462  23.148  39.857  12.852
20983W        W86463  44.374  23.205   0.377
20984W        W86464  31.140  23.633   1.351
20985W        W86465  28.014  25.626   0.416
20986W        W86466  22.240  37.938  14.836
20987W        W86467  27.677  25.528   1.366
20988W        W86468   3.430  42.335  11.899
20989W        W86469  16.138  36.890   3.174
20990W        W86470  27.176  24.530   0.385
20991W        W86471   5.306  10.823  11.018
20992W        W86472  32.140  43.764  14.465
20993W        W86473   5.822  14.670   0.909
20994W        W86474   2.954  32.565   5.716
20995W        W86475  20.579  17.739  12.539
20996W        W86476  18.109  40.882  14.871
20997W        W86477  30.017  33.577  10.483
20998W        W86478   3.276  40.989  13.887
20999W        W86479   4.859  40.957  10.050
21000W        W86480  21.030  10.654  13.060
21001W        W86481  23.538  14.673  10.524
21002W        W86482  24.643   5.283  11.580
21003W        W86483   3.331  27.525   2.778
21004W        W86484  42.426  41.435   2.671
21005W        W86485   0.263  14.710  12.517
21006W        W86486  15.664  15.093  12.553
21007W        W86487  10.860  17.291  12.953
21008W        W86488  40.515  10.204  11.053
21009W        W86489  29.159  37.528  14.904
21010W        W86490  18.595  35.966   2.261
21011W        W86491   8.325   2.723   1.351
21012W        W86492  43.438  18.277  12.023
21013W        W86493   4.275   7.214  14.962
21014W        W86494  11.779  32.138   0.875
21015W        W86495  11.667  25.484  11.606
21016W        W86496  29.491  43.776   0.940
21017W        W86497   2.923  37.567   1.260
21018W        W86498   0.858   1.735  11.558
21019W        W86499   1.803  42.882   1.853
21020W        W86500  15.116  28.156  12.577
21021W        W86501  15.765  28.932  11.048
21022W        W86502  42.468  35.864  14.858
21023W        W86503   3.943  44.893   1.293
21024W        W86504  12.709  41.019  10.530
21025W        W86505  20.712   8.897   3.717
21026W        W86506   9.720  44.457  14.866
21027W        W86507  22.570  20.244   0.787
21028W        W86508   3.712  42.794  11.960
21029W        W86509  31.077  31.613  11.996
21030W        W86510  17.774  11.256   0.914
21031W        W86511  10.693  41.337  14.847
21032W        W86512   3.328  18.641   3.171
21033W        W86513  30.978   5.216   0.738
21034W        W86514   5.239  25.661  13.375
21035W        W86515  11.170  23.585  11.574
21036W        W86516   1.860  44.366   0.293
21037W        W86517  25.712  29.570  14.300
21038W        W86518  27.520  18.565  11.872
21039W        W86519  13.157  22.670   0.761
21040W        W86520  43.828   6.729   1.841
21041W        W86521  31.149  33.084   1.762
21042W        W86522  26.591   1.934  10.102
21043W        W86523  37.914  14.252   2.200
21044W        W86524   0.915  18.735  14.427
21045W        W86525  12.189  23.049   0.468
21046W        W86526  17.066  28.167   2.665
21047W        W86527  26.683  39.057   4.176
21048W        W86528   3.231  41.477   1.826
21049W        W86529   5.695  15.776   2.210
21050W        W86530  35.575  23.142   2.695
21051W        W86531  43.326   8.773   3.781
21052W        W86532  11.180  34.564  14.917
21053W        W86533  30.910  13.321  11.862
21054W        W86534  41.409   9.358   0.950
21055W        W86535  19.253  21.565   4.668
21056W        W86536   1.938  16.589  13.872
21057W        W86537  22.695  25.650   2.340
21058W        W86538  13.842  27.950   2.859
21059W        W86539  22.085  34.558   0.332
21060W        W86540  34.413  30.530   3.290
21061W        W86541  36.511  30.547   1.810
21062W        W86542  22.138  31.974  11.879
21063W        W86543  24.985   1.939  13.014
21064W        W86544   1.480   3.379   1.262
21065W        W86545  32.434  20.219  14.316
21066W        W86546  42.021  42.944  14.315
21067W        W86547  10.726  32.454  13.829
21068W        W86548  32.518  20.261   0.954
21069W        W86549  34.564  30.625   2.833
21070W        W86550  11.753  38.371  12.974
21071W        W86551  23.105  22.075  12.411
21072W        W86552  26.581  14.280  13.380
21073W        W86553  16.724  23.491   2.705
21074W        W86554   6.261  37.989  12.996
21075W        W86555  24.076  31.900  14.376
21076W        W86556  25.209  31.585  13.879
21077W        W86557  39.928  24.165   2.294
21078W        W86558  24.989  41.414   0.423
21079W        W86559  12.749  41.871  12.491
21080W        W86560  10.714  22.730  14.309
21081W        W86561  29.172  44.949  13.973
21082W        W86562  33.993  37.437  11.536
21083W        W86563  27.048   9.387  14.864
21084W        W86564   9.782  28.625  14.991
21085W        W86565  28.955  21.129  13.991
21086W        W86566   6.263  13.326  12.433
21087W        W86567  24.006  16.646  11.868
21088W        W86568  24.128  35.463  12.503
21089W        W86569  44.501  23.221  10.119
21090W        W86570  15.652  31.129  13.910
21091W        W86571  34.112  21.577  11.572
21092W        W86572  38.017  21.099   2.342
21093W        W86573  10.189  32.464  11.988
21094W        W86574  31.056   1.751  14.295
21095W        W86575   0.383  35.368   0.932
21096W        W86576  25.972  26.604   4.634
21097W        W86577  10.730   1.783   2.373
21098W        W86578  38.931  37.446  14.802
21099W        W86579  18.700  25.692   2.669
21100W        W86580  28.006   9.224  14.429
21101W        W86581  17.104  36.425  13.845
21102W        W86582  36.903  10.174  14.962
21103W        W86583   2.372   9.364  12.378
21104W        W86584  22.524   4.267   2.804
21105W        W86585  33.603   1.918  13.848
21106W        W86586  28.490  23.532   3.256
21107W        W86587  40.513   0.487  12.054
21108W        W86588  24.181   4.877   4.687
21109W        W86589  28.145  22.563  11.886
21110W        W86590  12.837   6.359  11.945
21111W        W86591   2.299   3.278   4.138
21112W        W86592  18.605  10.168  10.973
21113W        W86593  43.838   9.723  11.516
21114W        W86594  41.472  16.576  10.610
21115W        W86595   7.818  40.505  14.897
21116W        W86596   5.885  12.616  12.363
21117W        W86597  26.540  21.033  13.013
21118W        W86598   8.664   6.911   1.843
21119W        W86599  32.496  39.869   0.278
21120W        W86600  17.713  42.017   1.244
21121W        W86601   9.383  21.081   4.120
21122W        W86602  39.997  21.666   3.842
21123W        W86603  20.618  44.964   2.304
21124W        W86604  33.434  28.528   0.268
21125W        W86605  11.739  28.159  14.026
21126W        W86606   5.813  32.978  13.480
21127W        W86607  34.509  20.724  11.507
21128W        W86608  44.477   1.971   4.795
21129W        W86609  27.978  33.098  10.499
21130W        W86610   3.818   7.751  11.378
21131W        W86611   0.254  12.329  11.083
21132W        W86612  33.048  24.596   3.310
21133W        W86613  21.103  17.649   3.295
21134W        W86614  35.983  23.634  14.351
21135W        W86615  15.579  16.072   3.684
21136W        W86616  22.669  22.203  10.078
21137W        W86617  44.321  35.951  10.000
21138W        W86618  27.538  27.995  14.996
21139W        W86619  19.094   0.412  14.320
21140W        W86620   0.891  35.429  14.812
21141W        W86621  15.728  30.445   1.925
21142W        W86622  28.479   8.676  13.831
21143W        W86623  18.105  42.417  11.460
21144W        W86624  17.786   3.325  10.960
21145W        W86625   2.773   4.353  14.465
21146W        W86626  16.663  15.294   4.781
21147W        W86627  38.361   0.949   2.223
21148W        W86628  29.611   7.893  14.894
21149W        W86629  18.164  39.511   3.284
21150W        W86630  41.314  32.975  13.025
21151W        W86631  24.054  31.550   3.293
21152W        W86632  39.386  34.569  14.477
21153W        W86633  25.012  16.072  13.795
21154W        W86634  22.581  18.773  11.856
21155W        W86635  20.247   2.443  14.929
21156W        W86636  43.405  31.055   1.433
21157W        W86637  40.312  11.265  11.455
21158W        W86638  26.126  36.465   2.365
21159W        W86639  32.057  42.990   1.249
21160W        W86640   9.240  44.400   1.238
21161W        W86641   4.904  10.193   5.086
21162W        W86642  12.244  24.497  14.810
21163W        W86643   1.306  25.088   1.892
21164W        W86644  38.570  35.382   0.815
21165W        W86645  17.750  30.120   0.394
21166W        W86646   0.329  34.078   4.830
21167W        W86647   1.435  30.127   0.430
21168W        W86648  33.990  16.207  10.976
21169W        W86649  10.195  34.048  12.925
21170W        W86650  28.166  28.136   3.862
21171W        W86651   0.370  13.697  12.347
21172W        W86652  27.961  37.341   4.268
21173W        W86653  36.973  26.494  13.489
21174W        W86654  15.138  18.681   0.819
21175W        W86655  36.970  21.224  10.999
21176W        W86656   7.682  23.498   1.234
21177W        W86657  43.998  29.453   1.424
21178W        W86658   7.836  38.518  13.014
21179W        W86659  12.740  19.754   1.744
21180W        W86660  18.178  38.925  14.286
21181W        W86661  35.069  16.262  13.396
21182W        W86662   8.389  31.017   0.781
21183W        W86663  15.790  12.791  11.387
21184W        W86664  38.517   2.796  10.894
21185W        W86665  44.809   6.844  14.017
21186W        W86666  37.557  41.887   0.853
21187W        W86667  42.914  27.638  14.879
21188W        W86668  39.361   7.829  12.420
21189W        W86669  25.523  35.881   3.294
21190W        W86670  39.004  33.497   4.286
21191W        W86671  41.414  12.682   4.306
21192W        W86672  43.857  13.758  11.118
21193W        W86673  13.834   6.848   3.741
21194W        W86674  26.534   6.208   2.257
21195W        W86675   9.812  19.226  11.586
21196W        W86676   2.368  33.876  14.823
21197W        W86677  33.408  37.058   0.457
21198W        W86678  32.042  21.644   4.758
21199W        W86679  21.110  40.802   0.259
21200W        W86680  41.830  13.727   2.194
21201W        W86681  13.772  13.794  11.872
21202W        W86682  10.256  14.809  14.829
21203W        W86683  21.627  35.576  11.432
21204W        W86684  43.383  12.132  12.844
21205W        W86685  12.252  40.419  10.512
21206W        W86686  34.057  34.097  13.529
21207W        W86687  23.733  19.775  10.465
21208W        W86688   7.849  19.155   1.896
21209W        W86689  21.684  30.119   0.417
21210W        W86690  34.372   0.880   4.186
21211W        W86691  20.615  18.733  12.556
21212W        W86692   7.381  21.690   3.218
21213W        W86693   4.928  21.095   1.822
21214W        W86694   4.445  12.813  10.467
21215W        W86695   7.375  42.029  11.033
21216W        W86696  44.340  38.063   3.320
21217W        W86697  18.568  44.776  12.465
21218W        W86698   5.289  33.118  14.862
21219W        W86699   9.252  11.854   4.690
21220W        W86700  29.634  26.146  13.347
21221W        W86701  28.443  21.568  14.347
21222W        W86702  10.137  14.118  13.320
21223W        W86703  19.590  20.037  12.841
21224W        W86704  11.858  26.006   2.736
21225W        W86705  20.043  32.081  13.822
21226W        W86706  33.112  19.186  10.949
21227W        W86707  20.559  42.305  12.951
21228W        W86708  42.467  34.453   1.349
21229W        W86709   2.768  33.936  11.108
21230W        W86710   3.351  29.999  13.390
21231W        W86711  44.787  15.698  10.610
21232W        W86712  35.108  43.765   1.447
21233W        W86713  38.834  17.106   1.838
21234W        W86714   6.838  35.532   0.281
21235W        W86715   3.777  44.301  12.469
21236W        W86716  30.623  15.327  11.416
21237W        W86717  12.124  42.908   2.196
21238W        W86718   1.922  12.817   3.709
21239W        W86719  19.613  27.602   1.724
21240W        W86720  32.540  30.108   1.351
21241W        W86721   6.232  28.078  14.945
21242W        W86722   6.714  17.577  11.983
21243W        W86723  41.449   1.736  14.361
21244W        W86724  39.413  39.009   2.746
21245W        W86725  33.617   8.372   4.252
21246W        W86726   1.918  37.491  11.003
21247W        W86727   6.338  25.704  11.116
21248W        W86728  20.137  13.297  11.023
21249W        W86729   0.349   3.457  13.521
21250W        W86730  23.046  28.099   4.666
21251W        W86731  14.133   6.820  13.509
21252W        W86732   4.207   4.745  13.510
21253W        W86733  42.420  14.244   4.666
21254W        W86734  25.110  36.009  10.412
21255W        W86735  40.813  12.725  11.928
21256W        W86736  25.542  19.578   5.214
21257W        W86737  14.166   4.861   3.236
21258W        W86738  37.529  34.943   2.343
21259W        W86739  21.545  30.485  12.517
21260W        W86740  28.655  25.173  13.417
21261W        W86741  41.798  40.427   0.963
21262W        W86742  35.860  24.183   4.637
21263W        W86743  36.995  36.929  14.816
21264W        W86744  39.925   5.758  12.383
21265W        W86745   1.418  16.139   2.704
21266W        W86746  27.649  39.832   5.765
21267W        W86747   8.744  11.823   4.140
21268W        W86748   8.805  28.185   4.125
21269W        W86749  29.670   6.283  12.056
21270W        W86750  19.241  22.715  13.470
21271W        W86751   4.915   6.910  13.805
21272W        W86752  26.105  20.531   3.794
21273W        W86753   2.323  35.921   4.315
21274W        W86754  32.598  40.450  11.954
21275W        W86755   1.319  25.619  11.511
21276W        W86756   1.481  36.430   4.696
21277W        W86757  28.142   9.889  10.461
21278W        W86758  32.998   7.827   3.792
21279W        W86759  16.711  29.621   2.179
21280W        W86760  12.203   1.472   0.816
21281W        W86761   5.428  30.572   3.381
21282W        W86762  10.860  25.563   3.713
21283W        W86763   5.727  34.873   2.780
21284W        W86764  35.576   7.786  14.032
21285W        W86765  25.001  38.382   2.284
21286W        W86766  19.221   0.855  14.904
21287W        W86767  27.645  27.540   4.159
21288W        W86768  44.471  33.978  11.883
21289W        W86769  12.304  12.707  14.788
21290W        W86770  42.975  41.007   1.431
21291W        W86771  20.062  33.595   4.802
21292W        W86772  32.534  20.107  12.996
21293W        W86773  11.808  38.459  11.552
21294W        W86774   0.342   2.416  13.931
21295W        W86775  21.607  42.286   2.320
21296W        W86776  40.935  39.880  14.396
21297W        W86777  29.979  34.609   3.836
21298W        W86778  22.723  24.506   1.446
21299W        W86779  21.101   3.262   1.442
21300W        W86780  34.437  22.710   0.422
21301W        W86781  11.636  28.109   3.716
21302W        W86782  40.340  13.268  12.890
21303W        W86783  13.324  35.408   3.237
21304W        W86784   7.346  19.209   4.827
21305W        W86785  24.208   8.818   1.758
21306W        W86786  29.433   8.771   0.926
21307W        W86787  23.511  15.301  14.781
21308W        W86788  33.132  11.269  12.962
21309W        W86789  32.513   1.302   4.658
21310W        W86790  35.892  29.998  11.985
21311W        W86791   1.789   0.865  11.587
21312W        W86792   3.765  44.355  14.854
21313W        W86793   3.344   8.766   1.271
21314W        W86794  14.158  29.176  11.061
21315W        W86795  20.587  32.955  13.365
21316W        W86796   0.265  44.771   3.742
21317W        W86797   7.769  40.352   4.812
21318W        W86798  26.491  15.202  11.070
21319W        W86799   4.702   7.402   1.252
21320W        W86800  33.528  30.143   1.919
21321W        W86801  10.833  37.442  13.504
21322W        W86802  39.054  28.069  14.995
21323W        W86803   2.864  15.146   2.868
21324W        W86804   7.322  39.858  14.424
21325W        W86805  12.281  41.419  10.503
21326W        W86806  32.569  10.320   4.740
21327W        W86807  11.690  37.385  12.400
21328W        W86808  18.692  36.967  11.994
21329W        W86809  15.755   9.819   1.883
21330W        W86810  28.673  15.252  11.524
21331W        W86811  32.012  43.300   0.957
21332W        W86812  29.670   3.811  11.076
21333W        W86813  25.179  40.047  13.797
21334W        W86814  30.513  41.918  12.974
21335W        W86815  10.745  40.974   0.884
21336W        W86816  32.117   8.703  14.939
21337W        W86817  12.259  29.634   0.402
21338W        W86818   2.725  30.912  13.359
21339W        W86819  11.207  19.567  11.424
21340W        W86820  26.014  29.085   4.337
21341W        W86821  21.082   5.330   2.251
21342W        W86822  29.652  39.015   1.237
21343W        W86823  34.977  34.040  10.889
21344W        W86824  15.651  43.830   1.798
21345W        W86825  36.524   4.809   2.253
21346W        W86826  24.520  39.411  13.525
21347W        W86827  39.465  31.096  13.354
21348W        W86828  31.126  25.200  12.048
21349W        W86829  12.677  38.904  10.907
21350W        W86830  44.838  27.555   1.451
21351W        W86831  16.175  22.165   4.726
21352W        W86832  24.714   9.686  13.041
21353W        W86833   4.282  16.248  12.886
21354W        W86834  13.262  14.756  11.104
21355W        W86835  22.247   8.178   3.783
21356W        W86836   2.872  27.195   0.871
21357W        W86837   4.757  14.598  12.006
21358W        W86838   7.791   8.197  13.945
21359W        W86839  27.045  27.464   0.937
21360W        W86840  40.884   3.259   3.349
21361W        W86841   4.307  32.116   1.837
21362W        W86842  19.746  38.843  10.495
21363W        W86843  26.568  17.229   5.141
21364W        W86844  30.419   2.429  12.916
21365W        W86845  28.946   0.347   2.203
21366W        W86846   2.820  26.154   1.839
21367W        W86847  14.311   2.406  14.006
21368W        W86848  13.773  14.756   3.632
21369W        W86849   7.205  20.035   2.679
21370W        W86850  33.956   4.801  12.544
21371W        W86851  39.892  41.466  10.552
21372W        W86852  27.127  42.363   3.209
21373W        W86853  44.802  24.066   4.812
21374W        W86854  36.408  12.653   3.652
21375W        W86855   7.308  31.476  11.401
21376W        W86856  43.806  16.195  14.515
21377W        W86857  10.749  22.174   3.678
21378W        W86858   3.801   9.746   3.199
21379W        W86859  24.216  43.952  14.914
21380W        W86860   9.264  37.560   2.257
21381W        W86861  28.546  28.674   1.815
21382W        W86862  35.574   6.747  12.026
21383W        W86863  39.039  32.011  11.088
21384W        W86864  11.201  25.060  12.405
21385W        W86865   9.710  33.986   1.832
21386W        W86866  35.865  36.574   2.242
21387W        W86867  26.686   6.832   1.741
21388W        W86868  24.176  44.959   3.699
21389W        W86869  23.013  20.035   2.302
21390W        W86870  42.897  28.480  11.129
21391W        W86871   5.812  25.678  14.965
21392W        W86872   2.435  40.469  10.109
21393W        W86873   0.899  23.592   0.960
21394W        W86874  37.579  43.839  10.034
21395W        W86875  38.345  16.701   3.297
21396W        W86876   7.311  39.963   1.917
21397W        W86877  32.431  38.848   3.349
21398W        W86878  38.867  21.694   3.246
21399W        W86879  24.062   4.214   0.296
21400W        W86880   2.436   0.265  10.578
21401W        W86881   1.827  38.916   3.751
21402W        W86882  35.944   7.223  13.923
21403W        W86883  19.231   4.943  12.000
21404W        W86884  36.021  19.754  11.465
21405W        W86885  20.730   0.450   3.197
21406W        W86886  40.919  28.485  12.096
21407W        W86887   7.671  11.240  11.611
21408W        W86888  38.404  35.466  12.872
21409W        W86889  43.355  11.853  12.947
21410W        W86890   1.763   0.317  14.026
21411W        W86891  16.790  28.049   2.419
21412W        W86892   9.266  42.853  12.342
21413W        W86893  32.604  19.535  14.934
21414W        W86894   9.222  12.800   3.248
21415W        W86895   7.752   0.358   1.696
21416W        W86896  34.043  43.782   1.712
21417W        W86897  29.573  19.648   2.273
21418W        W86898  24.043  39.544  11.562
21419W        W86899  20.554  42.951  11.901
21420W        W86900  23.610  18.698  12.446
21421W        W86901  25.529  19.218  13.369
21422W        W86902  23.077   3.731   2.830
21423W        W86903  36.920   4.763   0.898
21424W        W86904  20.219  16.704   2.281
21425W        W86905   8.705  23.141  13.939
21426W        W86906  15.620  44.915   3.699
21427W        W86907   7.790  10.372   3.745
21428W        W86908  29.555  20.686   1.785
21429W        W86909  39.934  10.142  14.506
21430W        W86910  34.026   2.349  10.434
21431W        W86911  27.012  39.524  10.468
21432W        W86912  29.123   7.872  13.005
21433W        W86913  26.053   1.358   4.642
21434W        W86914  23.151  11.265  11.068
21435W        W86915  30.981  44.976  14.924
21436W        W86916  19.198   5.868  13.336
21437W        W86917  21.561  42.024   3.676
21438W        W86918  43.291  22.112  14.768
21439W        W86919   0.885  33.492   3.296
21440W        W86920  19.078   9.679  14.376
21441W        W86921   7.849  32.003   2.774
21442W        W86922  34.902  22.044   1.874
21443W        W86923  10.296  38.330   0.875
21444W        W86924  10.361   8.671   1.709
21445W        W86925  10.874  42.480   2.880
21446W        W86926  11.253   9.299  12.512
21447W        W86927  42.475  33.599  12.002
21448W        W86928   6.318  21.682   1.801
21449W        W86929  15.656  29.602  11.478
21450W        W86930   8.803  37.509   3.305
21451W        W86931  12.124  10.777  12.874
21452W        W86932  40.336  22.012  11.976
21453W        W86933  37.475  20.756  12.071
21454W        W86934   8.346  35.969  10.933
21455W        W86935  25.657  40.956   3.195
21456W        W86936  21.635  36.500  11.978
21457W        W86937  31.575   2.468  10.973
21458W        W86938  28.625   6.733  14.908
21459W        W86939  21.693  14.104   5.215
21460W        W86940  38.396   6.918   4.246
21461W        W86941  38.933  12.633  12.438
21462W        W86942  16.680   0.361  14.992
21463W        W86943  25.131  14.706  14.802
21464W        W86944   9.270  32.535  11.016
21465W        W86945  28.582  34.608  11.003
21466W        W86946  35.019  43.356   1.745
21467W        W86947  22.646  42.928   3.334
21468W        W86948  28.546  28.963   0.382
21469W        W86949  12.258  43.772  14.935
21470W        W86950  13.223  20.224  10.406
21471W        W86951  27.946  30.482   2.740
21472W        W86952   9.272   1.469  10.513
21473W        W86953  20.028   6.244  14.340
21474W        W86954  35.449   8.194  13.957
21475W        W86955   4.222  17.110   1.359
21476W        W86956  24.116   0.976   2.747
21477W        W86957  20.273  43.318  11.865
21478W        W86958  17.679  34.940   3.683
21479W        W86959  20.127   5.747  14.416
21480W        W86960  42.465  39.926   4.836
21481W        W86961  33.501   2.906  10.580
21482W        W86962  34.096  43.323   2.783
21483W        W86963   6.693  37.428   1.341
21484W        W86964   0.838  18.582   3.377
21485W        W86965  23.611  34.443   4.614
21486W        W86966  35.992  40.907  11.598
21487W        W86967  34.421  18.288   1.411
21488W        W86968  28.936   2.402  12.023
21489W        W86969  34.032   0.304   4.728
21490W        W86970   4.762  21.102  14.493
21491W        W86971  29.640   3.903   3.728
21492W        W86972   4.759  25.468   4.217
21493W        W86973  24.631   4.861   2.382
21494W        W86974  22.646   6.330  13.040
21495W        W86975  12.653   0.957   1.418
21496W        W86976  16.267  42.282   4.297
21497W        W86977  33.601  23.163   2.270
21498W        W86978  10.813  24.175  11.604
21499W        W86979   0.450  40.913   2.404
21500W        W86980  30.488  19.222  11.076
21501W        W86981  18.698   5.248  13.837
21502W        W86982  33.008   1.843   1.833
21503W        W86983  44.784  43.430   1.913
21504W        W86984  11.323  44.406   4.189
21505W        W86985  36.573  33.426   3.777
21506W        W86986  26.508   2.845  11.884
21507W        W86987   6.260   3.313  10.999
21508W        W86988   8.684  31.517  11.908
21509W        W86989  21.532  12.795  12.478
21510W        W86990  26.636   8.389   3.222
21511W        W86991  44.820  13.177   1.761
21512W        W86992  11.232  25.584  12.912
21513W        W86993  32.101   2.298  13.856
21514W        W86994  31.544  33.585  13.037
21515W        W86995  12.726  29.976   0.737
21516W        W86996  35.860  15.261   4.732
21517W        W86997  24.091   6.833   2.790
21518W        W86998  13.822   6.688  14.976
21519W        W86999  12.156   4.860  12.570
21520W        W87000  31.996  29.524   3.646
21521W        W87001  41.994  28.160  12.457
21522W        W87002   6.371  19.771   2.419
21523W        W87003  32.019  23.072   2.689
21524W        W87004  42.428  32.962  10.930
21525W        W87005  27.955  32.995   0.395
21526W        W87006  39.896  40.401   3.706
21527W        W87007   6.801   2.385   1.703
21528W        W87008  43.859  17.217  13.007
21529W        W87009  19.713  28.457  11.926
21530W        W87010   5.353  36.865  13.063
21531W        W87011  15.154   0.951   3.176
21532W        W87012  36.548   5.408  12.375
21533W        W87013  23.508  39.511   3.277
21534W        W87014  11.805  10.261  14.947
21535W        W87015  44.286  11.632  14.872
21536W        W87016  12.638  27.590   2.384
21537W        W87017   5.890  15.728  13.030
21538W        W87018   4.916  27.586  10.532
21539W        W87019  17.068  44.503   5.302
21540W        W87020  21.234  32.464   3.157
21541W        W87021  23.151   2.317  10.896
21542W        W87022  13.237  37.015   2.849
21543W        W87023  34.538  30.134   3.723
21544W        W87024   9.796  23.052  12.366
21545W        W87025  30.416  37.349   4.213
21546W        W87026  13.607  36.954  10.994
21547W        W87027  28.452  11.254   4.814
21548W        W87028  11.815   1.247  12.348
21549W        W87029  19.151  13.758  10.974
21550W        W87030  19.642  27.981   2.385
21551W        W87031   6.381  16.169  12.900
21552W        W87032  23.713  31.438  13.519
21553W        W87033   4.446  28.591   0.414
21554W        W87034   8.685  15.199   2.247
21555W        W87035  35.377   6.228   2.884
21556W        W87036  27.457  24.714   0.376
21557W        W87037  18.574  21.585  12.556
21558W        W87038  31.017  26.545  13.957
21559W        W87039  40.321   1.971  12.347
21560W        W87040  26.677  37.052  14.361
21561W        W87041  28.022  24.485  13.541
21562W        W87042   6.884  34.967   1.444
21563W        W87043   9.789  21.034  10.012
21564W        W87044   3.265  39.497   3.784
21565W        W87045  13.754  18.576  14.915
21566W        W87046  18.688   1.363  12.884
21567W        W87047  25.650   4.781   3.193
21568W        W87048  33.029  18.187   4.788
21569W        W87049  26.989  35.905  13.513
21570W        W87050  26.148   5.861   1.226
21571W        W87051   7.350  20.050  14.472
21572W        W87052  34.014  18.562   4.321
21573W        W87053  38.564   4.707   1.406
21574W        W87054   2.767  42.868   4.338
21575W        W87055   4.444   2.237   4.660
21576W        W87056  36.467  36.912  10.967
21577W        W87057  41.016  18.659   0.314
21578W        W87058  28.602  35.365  14.975
21579W        W87059  14.607   2.298   1.796
21580W        W87060  39.559  25.008  12.488
21581W        W87061   7.241  25.002  14.864
21582W        W87062  33.896  25.003  12.539
21583W        W87063  19.674  39.542   0.776
21584W        W87064  14.780  11.848  13.400
21585W        W87065  15.811  17.062   3.778
21586W        W87066  25.597  37.411   1.427
21587W        W87067  31.063   8.244  12.531
21588W        W87068  27.570  19.062  12.843
21589W        W87069   6.762   5.317  12.084
21590W        W87070  33.604  43.906   4.816
21591W        W87071   4.420  23.662   1.245
21592W        W87072  36.370   0.470  11.941
21593W        W87073  21.680  30.591   2.811
21594W        W87074  22.573  29.112  12.549
21595W        W87075   3.866   0.485   2.703
21596W        W87076  30.129  21.641   2.670
21597W        W87077  38.967  33.053  12.441
21598W        W87078  36.493  32.115  11.936
21599W        W87079  40.840  37.427   3.679
21600W        W87080  25.702  41.367   3.257
21601W        W87081  16.217  25.023   1.869
21602W        W87082   4.785  25.534   3.255
21603W        W87083  26.693  12.301  12.941
21604W        W87084  28.626   6.697  13.535
21605W        W87085  27.042  37.503  12.964
21606W        W87086  37.884  36.060   5.294
21607W        W87087  15.757  44.371   2.343
21608W        W87088  41.327  14.769  13.946
21609W        W87089  35.092  35.423  14.450
21610W        W87090   2.931  27.557   4.723
21611W        W87091  20.032   4.919  10.016
21612W        W87092   0.420  31.547  11.543
21613W        W87093  23.558   2.923  14.364
21614W        W87094  41.510  32.079  10.903
21615W        W87095  23.080   3.739   1.292
21616W        W87096   7.405  35.909   1.326
21617W        W87097  35.566  35.594   2.783
21618W        W87098  36.886  23.022   0.755
21619W        W87099  21.240  30.938   4.738
21620W        W87100  41.806  28.002   4.666
21621W        W87101  14.278  22.708  14.492
21622W        W87102  26.118   5.269   1.803
21623W        W87103  42.387  29.528   3.709
21624W        W87104  16.097   6.327  11.430
21625W        W87105  44.778   2.345  14.342
21626W        W87106  44.864  43.966  11.088
21627W        W87107  37.421  22.153   4.287
21628W        W87108   0.442  29.922  12.845
21629W        W87109  40.830  35.053  12.911
21630W        W87110   4.212  35.028  12.094
21631W        W87111   9.877  25.481   0.327
21632W        W87112  20.105  27.544   2.838
21633W        W87113   8.181  29.934   1.814
21634W        W87114  27.979  26.635   5.220
21635W        W87115  41.823  42.365  13.395
21636W        W87116  41.885  33.579   9.980
21637W        W87117   0.413  29.429  14.422
21638W        W87118  35.060  28.522  11.541
21639W        W87119  40.354  44.881  13.913
21640W        W87120  22.554   4.342  10.099
21641W        W87121   9.284   7.387   5.106
21642W        W87122  23.111   7.814  11.539
21643W        W87123  36.361  34.977  13.326
21644W        W87124   7.240  33.065  12.937
21645W        W87125  37.568   8.197  14.967
21646W        W87126   2.781  16.808  11.988
21647W        W87127  28.074   7.383   4.599
21648W        W87128  20.709   6.915   1.824
21649W        W87129  28.950  42.488  10.465
21650W        W87130   9.238   8.812   3.235
21651W        W87131  29.171   3.769   0.746
21652W        W87132   4.885  13.288   1.284
21653W        W87133  43.302  13.829  10.487
21654W        W87134  32.587  20.565  14.901
21655W        W87135  25.695  13.678  14.313
21656W        W87136  40.400  43.006  14.384
21657W        W87137  44.890   7.839   1.273
21658W        W87138  39.044  37.971   0.435
21659W        W87139  10.157  18.070   0.396
21660W        W87140  34.911  43.844  10.934
21661W        W87141  28.128  38.898  11.871
21662W        W87142  11.837  23.033   4.178
21663W        W87143   6.236  29.043  10.111
21664W        W87144  32.467   8.313   0.760
21665W        W87145  40.863   8.261  12.478
21666W        W87146  23.537  14.612  14.850
21667W        W87147  18.223  32.084   9.957
21668W        W87148  28.442  14.334  14.901
21669W        W87149  12.304  24.530  11.986
21670W        W87150  16.318  44.872  10.546
21671W        W87151  33.392  14.767   0.445
21672W        W87152  35.928  23.154   0.889
21673W        W87153  41.826   0.404   0.925
21674W        W87154  37.934   2.806  12.040
21675W        W87155  26.104  11.801   2.726
21676W        W87156  21.613  38.439  11.531
21677W        W87157  40.332  38.877  11.009
21678W        W87158  17.167   4.916   3.287
21679W        W87159  26.597  15.112  12.939
21680W        W87160   0.387  29.518  12.914
21681W        W87161  43.771  14.206   1.273
21682W        W87162  39.993  24.037   4.163
21683W        W87163  44.455  38.330   4.678
21684W        W87164   4.419  34.976   5.205
21685W        W87165   5.718  19.726   3.382
21686W        W87166  20.214  34.579   2.895
21687W        W87167  17.740  42.801   1.389
21688W        W87168   1.898   1.883  14.026
21689W        W87169  33.590  40.044  14.496
21690W        W87170  38.999  19.779   5.285
21691W        W87171  16.670   5.266   1.923
21692W        W87172  35.917  30.989  14.418
21693W        W87173  21.023  44.483   3.296
21694W        W87174  29.533  10.640  13.488
21695W        W87175  15.682  25.630  14.779
21696W        W87176   7.351  27.997  14.023
21697W        W87177  42.308  32.123   3.701
21698W        W87178  10.326  36.458  13.808
21699W        W87179  15.694  10.228   4.307
21700W        W87180   4.759  36.098  13.033
21701W        W87181  10.673  11.810  12.529
21702W        W87182  25.119  35.362  13.398
21703W        W87183  38.930  15.623  13.961
21704W        W87184   0.883  43.338   0.401
21705W        W87185  26.676  17.177   4.333
21706W        W87186  42.949   8.365  12.506
21707W        W87187  27.050   3.440   2.408
21708W        W87188  23.129  44.991  10.616
21709W        W87189  30.964  14.764   3.171
21710W        W87190   8.262  21.032  14.354
21711W        W87191  41.489  20.610   4.721
21712W        W87192  30.952  44.865  10.890
21713W        W87193  20.616  37.541   2.390
21714W        W87194  24.651  35.894   3.797
21715W        W87195  18.722  20.525   3.384
21716W        W87196  11.151  30.083   1.815
21717W        W87197   1.934  37.568  14.785
21718W        W87198  13.128  15.235   2.756
21719W        W87199  12.661  29.432  14.960
21720W        W87200  27.170  41.021  13.883
21721W        W87201   4.906  17.224  11.086
21722W        W87202   6.330   2.469  14.794
21723W        W87203  31.047  35.058   4.221
21724W        W87204   4.720   1.348   1.329
21725W        W87205   8.852   3.369   3.265
21726W        W87206  23.566  21.198  10.926
21727W        W87207   7.373  12.611  11.878
21728W        W87208  42.423  13.243  10.967
21729W        W87209  41.411  18.585   0.251
21730W        W87210  29.669  17.064  14.793
21731W        W87211  31.567   8.349   3.793
21732W        W87212  43.821   8.705  13.472
21733W        W87213  36.063  31.064   0.775
21734W        W87214  10.716  26.680  11.051
21735W        W87215   4.367   4.311   4.225
21736W        W87216  44.374  26.092  10.921
21737W        W87217  43.483  29.430   4.115
21738W        W87218  29.449  17.151  10.632
21739W        W87219  38.050  31.073  12.926
21740W        W87220   5.774  25.681  11.033
21741W        W87221   6.342  19.598   4.158
21742W        W87222   8.857   5.919   3.649
21743W        W87223  32.445   4.927  10.603
21744W        W87224  37.054  37.836   3.294
21745W        W87225  17.791  12.341  10.977
21746W        W87226   4.311  30.572  10.520
21747W        W87227  32.448  37.834   3.245
21748W        W87228   3.950  24.573  11.603
21749W        W87229  19.709   0.393   4.303
21750W        W87230  34.601  33.423   1.415
21751W        W87231  35.387  31.402  10.537
21752W        W87232   5.254  15.087   3.853
21753W        W87233  14.606  11.247  12.360
21754W        W87234  23.729  24.121  12.914
21755W        W87235  29.999  19.209   1.708
21756W        W87236   2.930  31.530   2.316
21757W        W87237  17.736   3.339   2.235
21758W        W87238  42.806  26.602   3.783
21759W        W87239  25.059  16.136  11.406
21760W        W87240   6.829  20.559  14.416
21761W        W87241  41.361   4.243  13.507
21762W        W87242   3.876  37.550  14.025
21763W        W87243  34.551   7.290  11.438
21764W        W87244  31.081  32.033   0.958
21765W        W87245  22.021  43.434  10.962
21766W        W87246  15.627  34.116  11.451
21767W        W87247  15.092  17.306  14.919
21768W        W87248  12.752  27.452   4.657
21769W        W87249  23.722  37.942  10.582
21770W        W87250  34.566  31.131   0.785
21771W        W87251   0.381   6.879   3.303
21772W        W87252   6.320  15.774   9.924
21773W        W87253   1.462  34.408   5.596
21774W        W87254  33.114   5.245   3.697
21775W        W87255  36.080  18.124   3.356
21776W        W87256   3.419   1.913   2.179
21777W        W87257   7.680  18.737  14.857
21778W        W87258   4.400  42.806  11.427
21779W        W87259  15.225  14.238  10.959
21780W        W87260  17.093  38.954  14.029
21781W        W87261   3.277  29.539   1.285
21782W        W87262   5.358   6.729   1.397
21783W        W87263  18.127  39.850   1.907
21784W        W87264   6.187  33.011  10.977
21785W        W87265  20.035   6.230  12.545
21786W        W87266  41.928  13.721  14.803
21787W        W87267   0.981  12.242  13.861
21788W        W87268   0.429  37.936   1.362
21789W        W87269  15.301  30.063   2.708
21790W        W87270  28.050  19.678   2.721
21791W        W87271  39.891  26.614  14.959
21792W        W87272  30.653  42.438  14.485
21793W        W87273  39.514  18.558  12.927
21794W        W87274  43.800  10.165  10.594
21795W        W87275  17.584  38.331  14.764
21796W        W87276  27.142  25.577   3.796
21797W        W87277  25.553  30.542   1.351
21798W        W87278  19.703   6.295   4.260
21799W        W87279  21.145  39.046   2.831
21800W        W87280  11.748  26.958   3.684
21801W        W87281  12.612  41.516  13.464
21802W        W87282  32.069  28.993   0.825
21803W        W87283  35.003  24.112   1.386
21804W        W87284  12.214  39.487   2.723
21805W        W87285  40.877  38.947   2.806
21806W        W87286  37.387  39.951  12.076
21807W        W87287  15.170  43.010  12.004
21808W        W87288  40.825  23.118   1.363
21809W        W87289  40.894  43.951  13.411
21810W        W87290  30.521  20.089   4.288
21811W        W87291  44.950   1.903   2.359
21812W        W87292  23.072  34.412  11.588
21813W        W87293  41.326  33.901   2.399
21814W        W87294  38.367   2.251   1.438
21815W        W87295   1.874  15.132  14.434
21816W        W87296   6.186  19.759   5.173
21817W        W87297  44.317  25.500   3.256
21818W        W87298  43.987  28.049   0.836
21819W        W87299  44.868   8.206  10.975
21820W        W87300  15.310  13.310  10.021
21821W        W87301  21.612  15.179  14.009
21822W        W87302  26.544  36.964   4.834
21823W        W87303  32.968  33.961   3.660
21824W        W87304  23.490   9.789   4.798
21825W        W87305  26.673  22.740  14.853
21826W        W87306  12.796   5.271   2.842
21827W        W87307   6.771  44.388   3.331
21828W        W87308  39.013  41.422   0.455
21829W        W87309  14.182  10.292   3.778
21830W        W87310  34.880  34.514  13.895
21831W        W87311  29.573  35.852   2.715
21832W        W87312   9.376  16.673  12.065
21833W        W87313  18.190  32.468   3.219
21834W        W87314  21.250  21.173  11.950
21835W        W87315  34.526  31.937   2.731
21836W        W87316  19.587  39.025  12.496
21837W        W87317  31.998  21.246   4.722
21838W        W87318  18.615   5.877  13.888
21839W        W87319  34.431  29.103  11.517
21840W        W87320  31.625  14.186   1.354
21841W        W87321  38.841  14.191  11.938
21842W        W87322  38.937  44.319  14.940
21843W        W87323  28.463  38.946   0.958
21844W        W87324   9.225  34.492  12.382
21845W        W87325  40.456  42.978  10.147
21846W        W87326  19.648  10.682   2.183
21847W        W87327   7.695  41.393   4.654
21848W        W87328   2.366  20.134  14.856
21849W        W87329   1.745  42.502   3.771
21850W        W87330  40.822  30.579  14.862
21851W        W87331  12.148   6.792   1.699
21852W        W87332   7.822  23.126  14.843
21853W        W87333   3.898  44.902  12.017
21854W        W87334  18.057  15.748   1.253
21855W        W87335  21.558  21.735   2.727
21856W        W87336  16.172  28.035  11.928
21857W        W87337   5.756  19.057   3.202
21858W        W87338  24.542  44.432   2.342
21859W        W87339  22.202  42.826   0.864
21860W        W87340  25.024  14.621   4.284
21861W        W87341  30.571  19.123  10.476
21862W        W87342  27.628   0.403  10.514
21863W        W87343  31.437  25.558  14.836
21864W        W87344  13.158  41.521  12.017
21865W        W87345  23.580  13.825  11.884
21866W        W87346   7.725  44.890  10.483
21867W        W87347  39.406  25.569  12.432
21868W        W87348  26.613  23.609  14.990
21869W        W87349  37.960  33.972   4.666
21870W        W87350  23.582  42.914  12.472
21871W        W87351  19.652  41.922   0.827
21872W        W87352  17.090   5.263   4.661
21873W        W87353   3.860   6.319   0.897
21874W        W87354   1.378  33.502   0.266
21875W        W87355  38.831  16.137   4.739
21876W        W87356  30.135   4.298   1.388
21877W        W87357  17.248  12.232   4.266
21878W        W87358  24.147  18.728   0.801
21879W        W87359   7.675  39.521  14.478
21880W        W87360   1.851  42.802  14.297
21881W        W87361  17.617   3.845   4.791
21882W        W87362   4.386  26.097   1.440
21883W        W87363   2.437  12.170  12.489
21884W        W87364  39.421  11.371   2.345
21885W        W87365  36.093  44.429  13.876
21886W        W87366  40.876  40.049   2.742
21887W        W87367  43.016  39.384  12.477
21888W        W87368  33.437  26.649   0.959
21889W        W87369   9.389  44.777   3.237
21890W        W87370   3.343   9.806  13.351
21891W        W87371  14.681  32.504   4.133
21892W        W87372  37.439   8.177  14.340
21893W        W87373  16.654  10.685   3.707
21894W        W87374  16.809  42.876  13.382
21895W        W87375  40.886  16.182  13.361
21896W        W87376  15.684  14.218   3.692
21897W        W87377  22.637  38.474  10.013
21898W        W87378  22.621  35.481  14.027
21899W        W87379  22.741  22.085  14.331
21900W        W87380  27.142   3.864  14.433
21901W        W87381  33.047  11.757  14.764
21902W        W87382   8.847  13.650  10.963
21903W        W87383  22.611  31.419  12.937
21904W        W87384  31.552  40.476   4.248
21905W        W87385  29.450  39.555  11.458
21906W        W87386  25.479   6.918  12.877
21907W        W87387  18.248   2.437   2.737
21908W        W87388  20.258  32.084   1.929
21909W        W87389  38.369  37.973   0.921
21910W        W87390   6.914  36.953   3.638
21911W        W87391  31.535  32.008   3.309
21912W        W87392  35.561   8.748  14.788
21913W        W87393  42.906  29.115   2.256
21914W        W87394  26.999  21.197  11.406
21915W        W87395  44.893  10.210  14.382
21916W        W87396  24.711   9.257  10.122
21917W        W87397  18.676  29.947   1.229
21918W        W87398  44.877  30.116   3.744
21919W        W87399  26.576  20.592  12.858
21920W        W87400  42.783   0.980  14.807
21921W        W87401  26.552  12.822   1.707
21922W        W87402  29.928  43.821  11.920
21923W        W87403  19.193  35.991  12.825
21924W        W87404  34.589  15.316   0.399
21925W        W87405  13.341  30.615  10.457
21926W        W87406  19.216  33.102   4.257
21927W        W87407  26.578  22.200   5.131
21928W        W87408  19.223  11.317   1.436
21929W        W87409  43.494  14.667  11.098
21930W        W87410  36.882   7.315   2.277
21931W        W87411   1.293  34.964   1.233
21932W        W87412  19.774  32.517  13.409
21933W        W87413   2.413  27.633  13.007
21934W        W87414   3.861  42.517  10.587
21935W        W87415  31.046  26.208  13.309
21936W        W87416  19.727  13.756   0.469
21937W        W87417   6.790  12.335   3.831
21938W        W87418  34.047  11.300   0.963
21939W        W87419  18.674  33.064   4.151
21940W        W87420  17.791  33.405  14.486
21941W        W87421  31.056   4.266   4.343
21942W        W87422   4.377   0.897   0.801
21943W        W87423  35.051  44.832   0.873
21944W        W87424  22.585  26.202   4.718
21945W        W87425  40.838  20.246   4.686
21946W        W87426  34.413  23.036  11.974
21947W        W87427  42.980  31.427   1.370
21948W        W87428  23.037  14.808  10.974
21949W        W87429  44.343  22.665  13.854
21950W        W87430  23.611   6.347   1.760
21951W        W87431   7.888   5.279  11.484
21952W        W87432  37.442  33.015  13.038
21953W        W87433  39.835   0.840   1.725
21954W        W87434  39.524   0.862  11.855
21955W        W87435  42.967  26.088  14.767
21956W        W87436  26.670  37.383   0.900
21957W        W87437  38.362  31.027   3.179
21958W        W87438   7.872  25.571  11.522
21959W        W87439  32.607  24.669   4.702
21960W        W87440   7.269   2.361   1.243
21961W        W87441  14.110  17.791   4.336
21962W        W87442  39.024  29.653  11.610
21963W        W87443  31.469  35.093   4.736
21964W        W87444  34.985  21.594  13.046
21965W        W87445  18.161  41.504   0.861
21966W        W87446  38.523  22.007  12.944
21967W        W87447  39.065  19.608  11.440
21968W        W87448   3.759  40.507  11.406
21969W        W87449  27.152  30.002  11.091
21970W        W87450  24.566  17.686   1.740
21971W        W87451   0.353  42.915   3.248
21972W        W87452  20.753  44.480   0.736
21973W        W87453  29.123  12.636  14.339
21974W        W87454  27.550  30.948  13.821
21975W        W87455  34.120  29.949  10.906
21976W        W87456  43.440  38.519   3.707
21977W        W87457  31.573  11.625  13.031
21978W        W87458  44.334  10.259  14.809
21979W        W87459   5.278  43.442   0.387
21980W        W87460   4.824  18.176  12.015
21981W        W87461  33.619  12.826   1.787
21982W        W87462  39.942  28.973  11.977
21983W        W87463  16.162   5.230   3.332
21984W        W87464  19.637  31.061  14.350
21985W        W87465  36.366  33.030  12.474
21986W        W87466  43.356  42.927  14.969
21987W        W87467  41.304  24.014   4.623
21988W        W87468  43.943  14.673  11.870
21989W        W87469  41.879  17.097   4.826
21990W        W87470  13.246   9.150  12.352
21991W        W87471  36.055  13.824  13.390
21992W        W87472  20.577  35.094  12.023
21993W        W87473  37.502   9.373   1.769
21994W        W87474   8.694   8.728   3.176
21995W        W87475   4.879  43.479  12.833
21996W        W87476  21.251  44.881  13.883
21997W        W87477  28.621   8.812  11.473
21998W        W87478   7.696  26.646   1.766
21999W        W87479   5.834  37.941   3.230
22000W        W87480  24.149  33.990  10.510
22001W        W87481  30.918  19.694  14.760
22002W        W87482  16.165   2.429   1.915
22003W        W87483  12.783  14.728   4.691
22004W        W87484  25.570  22.218  14.024
22005W        W87485  20.665  32.481   4.190
22006W        W87486   2.898  32.520   4.191
22007W        W87487   9.317  35.964   1.301
22008W        W87488  21.584   3.774   4.321
22009W        W87489  13.225  17.115   0.729
22010W        W87490   4.775  10.677   3.359
22011W        W87491  44.442  35.434  13.033
22012W        W87492  14.217   3.752   1.308
22013W        W87493  11.629   0.320  13.884
22014W        W87494  40.000  34.009  12.009
22015W        W87495   5.731   1.422  12.422
22016W        W87496   5.408  32.028   2.255
22017W        W87497   8.396   1.288   1.281
22018W        W87498  10.213  31.630   4.147
22019W        W87499  32.614  16.639  12.553
22020W        W87500  17.250   7.203  11.930
22021W        W87501  22.542  13.609   1.762
22022W        W87502  43.449   7.735   3.380
22023W        W87503  34.449  33.032  14.818
22024W        W87504  31.591  10.155   4.769
22025W        W87505   5.760   3.747  12.411
22026W        W87506  39.445  17.800  13.997
22027W        W87507  25.688  39.824  14.857
22028W        W87508  17.786   9.260   2.720
22029W        W87509  17.269  40.843   0.850
22030W        W87510  34.930  34.957   4.811
22031W        W87511   4.245  21.170   2.768
22032W        W87512  37.447  31.063   2.197
22033W        W87513  33.904  35.033  14.493
22034W        W87514   2.743  27.018   2.408
22035W        W87515  29.948  43.008   2.793
22036W        W87516   1.892   5.349   3.222
22037W        W87517  14.618  29.922  12.365
22038W        W87518  43.828  36.936  14.354
22039W        W87519  29.531  27.565  11.605
22040W        W87520  18.771  10.790  12.344
22041W        W87521  13.742   3.438  14.318
22042W        W87522   0.407  30.053   2.813
22043W        W87523  36.565  29.037   0.949
22044W        W87524  30.439  10.237   1.821
22045W        W87525   8.210   4.365  10.431
22046W        W87526   8.682   3.384   2.210
22047W        W87527  20.064  32.129  13.446
22048W        W87528  25.496  36.944   3.341
22049W        W87529  29.456  14.333  11.088
22050W        W87530  31.950  24.558   4.742
22051W        W87531   7.899  22.142   1.910
22052W        W87532  31.018  17.571  14.870
22053W        W87533  15.313  33.498   2.370
22054W        W87534  28.091  36.097   1.824
22055W        W87535  29.661  39.419   2.386
22056W        W87536  15.821  35.369   0.873
22057W        W87537  17.673  10.244  10.945
22058W        W87538  13.336  31.046  12.403
22059W        W87539  43.807   3.817  10.616
22060W        W87540  44.389  42.519  10.991
22061W        W87541  35.367   6.678  14.760
22062W        W87542  29.465  14.238  10.033
22063W        W87543  41.906  34.869  12.356
22064W        W87544  41.813  21.109   4.735
22065W        W87545  17.656  25.064  12.936
22066W        W87546  28.464  32.977  13.895
22067W        W87547   8.698  25.066   0.391
22068W        W87548   6.355  32.937   0.379
22069W        W87549  37.082  30.102   0.912
22070W        W87550   6.825  40.444   0.870
22071W        W87551  29.953   4.861   0.925
22072W        W87552  37.937  30.538  14.944
22073W        W87553  44.388   6.907  10.921
22074W        W87554  21.646   3.388  11.607
22075W        W87555   2.423  24.196   2.718
22076W        W87556   6.239  15.226   4.335
22077W        W87557  37.347  17.203  14.312
22078W        W87558  37.423  44.334  14.991
22079W        W87559  29.109   0.984   1.723
22080W        W87560   5.748  13.752  13.415
22081W        W87561  29.615   0.422   1.392
22082W        W87562  28.158  10.305   4.714
22083W        W87563  20.172  18.160  14.508
22084W        W87564  31.099  36.914   0.422
22085W        W87565  23.506  17.685   1.379
22086W        W87566  21.039   8.887  13.414
22087W        W87567  21.543  12.684  11.072
22088W        W87568  41.537  11.184   1.875
22089W        W87569  39.022   4.375   0.951
22090W        W87570  15.701  39.911   4.759
22091W        W87571  38.346   8.165   4.718
22092W        W87572   2.270  21.100  13.363
22093W        W87573  10.815  28.520  13.333
22094W        W87574  10.641  17.134   1.422
22095W        W87575  43.405  31.448   4.611
22096W        W87576  20.173  38.352   4.176
22097W        W87577   5.823  29.017  14.948
22098W        W87578  18.609  12.302  11.381
22099W        W87579   0.467  36.028  13.007
22100W        W87580   0.894   5.858  12.843
22101W        W87581  27.117  36.575   0.913
22102W        W87582   7.722   8.871  12.038
22103W        W87583  29.631  25.063   5.173
22104W        W87584  30.565   7.220  10.533
22105W        W87585  27.673  12.855   0.466
22106W        W87586  44.365  37.011   2.345
22107W        W87587  38.331  14.619   2.392
22108W        W87588   7.217  26.496  12.371
22109W        W87589  11.660  13.650  11.392
22110W        W87590  12.263  42.785   0.468
22111W        W87591  25.134   0.297   0.923
22112W        W87592  25.966  44.848  10.496
22113W        W87593  36.545  17.692   4.301
22114W        W87594   5.795  38.330  14.941
22115W        W87595  25.125   7.908  12.447
22116W        W87596   4.924   4.705   5.179
22117W        W87597  17.683  36.576  13.385
22118W        W87598  43.923  10.859   3.255
22119W        W87599  26.620  30.018   1.741
22120W        W87600  26.591  21.624   4.246
22121W        W87601  44.973  24.121   1.891
22122W        W87602  24.033  25.171  12.580
22123W        W87603  20.573  11.732   2.213
22124W        W87604   8.699  38.405   4.632
22125W        W87605  11.695  31.028  13.913
22126W        W87606  32.043  30.499  13.933
22127W        W87607  16.673  29.948  12.841
22128W        W87608   1.947   7.893  11.048
22129W        W87609  18.136  37.400   4.322
22130W        W87610  34.963  39.981   1.312
22131W        W87611  14.327  35.874   4.649
22132W        W87612  15.698  19.567   4.708
22133W        W87613  15.644  27.991  10.410
22134W        W87614  33.064  20.262   3.372
22135W        W87615   7.416  38.934   1.924
22136W        W87616  37.843  18.751   1.257
22137W        W87617  29.130  44.789   3.206
22138W        W87618  10.801   6.706   3.761
22139W        W87619  35.930  27.153  14.316
22140W        W87620   9.173  16.606   2.687
22141W        W87621  21.668   6.802   2.318
22142W        W87622   4.699   7.415  11.885
22143W        W87623  42.778   4.718   1.293
22144W        W87624  41.487  26.187  13.330
22145W        W87625  39.398  32.429   4.634
22146W        W87626  36.009  14.710  10.524
22147W        W87627  26.507  32.106  10.571
22148W        W87628  42.960  16.627  10.418
22149W        W87629  39.838  37.342   0.410
22150W        W87630   5.345  37.966   1.709
22151W        W87631   8.282   1.909   4.824
22152W        W87632  36.063  28.086  11.573
22153W        W87633  31.122  23.731  11.981
22154W        W87634   8.370  21.167  12.508
22155W        W87635  18.553  44.407  13.059
22156W        W87636  23.624  11.369   1.776
22157W        W87637  39.933  15.275   3.834
22158W        W87638  43.287   7.392  11.515
22159W        W87639  42.807  42.797   4.309
22160W        W87640  24.701   8.203   0.332
22161W        W87641   0.953  34.118  11.487
22162W        W87642  22.113   2.878  13.455
22163W        W87643   5.900  39.455   0.335
22164W        W87644  25.490  39.954   3.340
22165W        W87645   2.826  38.955   2.868
22166W        W87646  38.557   2.324  12.070
22167W        W87647  39.920  13.146  10.434
22168W        W87648  32.039  36.087   0.832
22169W        W87649  44.467  39.006   0.432
22170W        W87650  25.052  21.525   2.198
22171W        W87651  38.069  42.793  13.014
22172W        W87652  33.954  12.778   4.776
22173W        W87653  30.109  43.770  12.823
22174W        W87654  36.574  38.338   1.420
22175W        W87655  36.080   0.757   1.351
22176W        W87656   1.299  35.944   0.313
22177W        W87657  26.459  29.518  12.011
22178W        W87658  32.949  10.362  12.549
22179W        W87659  38.971  35.983   3.735
22180W        W87660  11.246  32.118  11.907
22181W        W87661  22.619  37.543   1.295
22182W        W87662   7.739   7.353   0.895
22183W        W87663  31.954  20.713   2.801
22184W        W87664  14.271  34.019  12.053
22185W        W87665  13.731  35.936  11.892
22186W        W87666   4.810  16.186   1.715
22187W        W87667  41.025  20.704  11.933
22188W        W87668  29.500  29.668  11.887
22189W        W87669  12.624  17.690  12.546
22190W        W87670  11.716   7.753   1.720
22191W        W87671  27.602  13.107   3.781
22192W        W87672  16.274  36.446  14.922
22193W        W87673  34.472   3.893  10.487
22194W        W87674  35.425  35.856   3.310
22195W        W87675  40.904  23.551   3.789
22196W        W87676  44.344  24.673  14.881
22197W        W87677  21.165  22.151  10.974
22198W        W87678  11.373  44.883   3.383
22199W        W87679  26.994  35.080  13.344
22200W        W87680  20.664  43.794  10.475
22201W        W87681  43.932   7.291   4.329
22202W        W87682  39.364  23.019  14.882
22203W        W87683   7.239   6.371  11.859
22204W        W87684  20.678  25.627   1.861
22205W        W87685  12.218  36.953  12.032
22206W        W87686  38.940  35.452  10.481
22207W        W87687   4.837   8.332  13.494
22208W        W87688  32.462  41.477   4.342
22209W        W87689   0.270  40.855  14.905
22210W        W87690  35.950   5.884  11.412
22211W        W87691  12.810  43.324   3.678
22212W        W87692   6.206  32.995   1.748
22213W        W87693  12.130  41.878   5.130
22214W        W87694   1.835  12.733  14.815
22215W        W87695  41.037  41.803   3.232
22216W        W87696  25.127  37.389  14.984
22217W        W87697  19.133  22.563  11.922
22218W        W87698  41.797  22.062   4.129
22219W        W87699  10.263  40.362   5.200
22220W        W87700  37.540  13.288  10.593
22221W        W87701  31.617   4.336   2.788
22222W        W87702  23.660   1.801  11.860
22223W        W87703  40.911  21.562  12.434
22224W        W87704  40.828  25.662   2.250
22225W        W87705   4.318   4.739   4.270
22226W        W87706  29.046  28.082  14.772
22227W        W87707  19.640  23.623  11.080
22228W        W87708  31.953  13.675   4.151
22229W        W87709  20.244   5.846   0.318
22230W        W87710  33.412  31.007   4.341
22231W        W87711  35.541   0.874   2.350
22232W        W87712   7.341  24.632  12.545
22233W        W87713  30.638  24.620   1.847
22234W        W87714  43.905  43.878  11.384
22235W        W87715  29.147  20.741   0.285
22236W        W87716  15.241   2.827   4.721
22237W        W87717  35.568  11.629   3.161
22238W        W87718  25.650  13.124   2.892
22239W        W87719  19.191  42.996   2.262
22240W        W87720  13.281  27.573  11.446
22241W        W87721   9.346  26.700  14.319
22242W        W87722  10.153  28.552  13.877
22243W        W87723  25.621  33.924   0.404
22244W        W87724  12.282  19.202  12.423
22245W        W87725   7.345  23.725   2.366
22246W        W87726  14.112  41.316   1.450
22247W        W87727  42.001   0.751   4.121
22248W        W87728  44.358  31.595  12.078
22249W        W87729  26.093  34.024   3.280
22250W        W87730  29.433   5.229  10.488
22251W        W87731  34.987  14.243  11.058
22252W        W87732  21.176   9.356   3.799
22253W        W87733  27.639   8.861   2.870
22254W        W87734  23.095  35.445  13.020
22255W        W87735  38.863  42.939   0.881
22256W        W87736   9.660   5.268  11.600
22257W        W87737   6.720  41.329   1.228
22258W        W87738  22.665  17.148   4.313
22259W        W87739   6.846  44.828   4.334
22260W        W87740  40.022  34.871  10.431
22261W        W87741  42.882   7.710  11.533
22262W        W87742  16.788  29.135  12.459
22263W        W87743  32.094  10.704  11.478
22264W        W87744  22.109  33.514  11.996
22265W        W87745  28.587  41.987   1.818
22266W        W87746   4.709  34.101  12.356
22267W        W87747  11.264  27.481   3.242
22268W        W87748  23.108  28.500   2.339
22269W        W87749   5.249  40.923   2.341
22270W        W87750  10.675  36.585   4.744
22271W        W87751  24.092  42.939   2.370
22272W        W87752   7.264  27.106  12.843
22273W        W87753  42.419  35.031   3.644
22274W        W87754  32.095   9.237  13.852
22275W        W87755  21.549  11.738  10.543
22276W        W87756  18.785  13.312  10.029
22277W        W87757  26.575  22.717   0.466
22278W        W87758  36.570  35.874  14.784
22279W        W87759  37.508   0.868  12.018
22280W        W87760  20.665   9.785   1.707
22281W        W87761  35.451  26.195   4.271
22282W        W87762  31.005  36.474  10.431
22283W        W87763  30.593   8.773  11.564
22284W        W87764  31.432  16.601  10.910
22285W        W87765  38.008  16.632  11.483
22286W        W87766   9.717  43.855   4.123
22287W        W87767  17.276   3.370  12.385
22288W        W87768  44.385  20.200   3.291
22289W        W87769  25.008   8.330   0.953
22290W        W87770  30.087  24.052   4.818
22291W        W87771   6.827   5.898  12.075
22292W        W87772  38.824  26.062  13.818
22293W        W87773  30.525  12.769   0.398
22294W        W87774  15.252  31.054  11.879
22295W        W87775  30.071  32.488   2.889
22296W        W87776  20.224  37.924   2.774
22297W        W87777   5.345  10.157  10.405
22298W        W87778  33.892   7.810   2.727
22299W        W87779   7.179  30.138  10.593
22300W        W87780   1.373  18.290  10.985
22301W        W87781  15.219   0.937  14.412
22302W        W87782  27.147  14.134   3.382
22303W        W87783  14.206  37.549  14.989
22304W        W87784   7.837  34.400  14.790
22305W        W87785  38.036  43.958  12.076
22306W        W87786   1.923  20.134   2.890
22307W        W87787  32.428  25.611   3.845
22308W        W87788  22.109  12.659   0.258
22309W        W87789   9.342  27.958   2.703
22310W        W87790  16.725  39.987  11.020
22311W        W87791   9.321  29.090   4.690
22312W        W87792   3.445  26.582   2.740
22313W        W87793  19.261  31.558   0.351
22314W        W87794  42.405  16.589  14.359
22315W        W87795  37.866  14.282  13.018
22316W        W87796   3.825  40.543   2.213
22317W        W87797   3.273   3.794  10.612
22318W        W87798  43.895  33.026  11.415
22319W        W87799  24.052   1.406   1.230
22320W        W87800  25.666  19.567   4.791
22321W        W87801  33.447  20.146  14.794
22322W        W87802  14.309  10.635  13.490
22323W        W87803  27.636   8.739   3.152
22324W        W87804   8.290  42.903   5.123
22325W        W87805  33.046  23.580  14.299
22326W        W87806   2.820  35.995  11.605
22327W        W87807   7.408  26.611   1.433
22328W        W87808   7.731  23.098  12.911
22329W        W87809  44.264  23.160  11.574
22330W        W87810  38.526  31.578   3.829
22331W        W87811  34.479   1.791   4.267
22332W        W87812  38.537  26.694  10.461
22333W        W87813  11.321  23.031  10.455
22334W        W87814  29.988  39.837   1.438
22335W        W87815  40.826  44.009  10.463
22336W        W87816   5.394  35.513  13.413
22337W        W87817  38.851  19.053   2.724
22338W        W87818  29.662  44.754   0.347
22339W        W87819  13.696  28.540   0.271
22340W        W87820  31.923  38.358  12.561
22341W        W87821  17.749  30.462   1.785
22342W        W87822  16.236  29.649  12.891
22343W        W87823  30.077   5.789   3.184
22344W        W87824  43.865  10.252  11.388
22345W        W87825  36.461   6.259  10.433
22346W        W87826  24.221  22.029  13.365
22347W        W87827  26.031  39.506  12.886
22348W        W87828  43.885  13.617  13.355
22349W        W87829  12.299  40.804   4.168
22350W        W87830  44.403  33.419  12.371
22351W        W87831  30.489  12.275  14.969
22352W        W87832  39.390  13.251  12.394
22353W        W87833  11.797   1.483  14.337
22354W        W87834  28.440   5.719  14.759
22355W        W87835   1.383   5.356   3.194
22356W        W87836  31.615  25.652  13.814
22357W        W87837  23.176  31.041   4.151
22358W        W87838  44.376  40.508  13.394
22359W        W87839  33.535  24.506   4.703
22360W        W87840   9.651  13.616  10.924
22361W        W87841  42.493  21.087  13.407
22362W        W87842   9.688   1.765  10.639
22363W        W87843   0.956   9.837  13.802
22364W        W87844   0.301  42.916  11.901
22365W        W87845  30.448  23.223   0.420
22366W        W87846  33.615  25.505   0.429
22367W        W87847  24.015  31.048   4.180
22368W        W87848  18.219  21.673  13.427
22369W        W87849  29.594  26.132   4.134
22370W        W87850   7.806  39.347   3.869
22371W        W87851  21.214  15.096  13.317
22372W        W87852  19.094  34.080   2.247
22373W        W87853  41.884  44.817  11.974
22374W        W87854   4.843   8.380  13.054
22375W        W87855  21.650  38.909  13.358
22376W        W87856  42.453  24.065  12.397
22377W        W87857  36.553   7.757   1.827
22378W        W87858  21.023  42.835  13.007
22379W        W87859  14.676   8.880   2.706
22380W        W87860  36.928  38.840  10.021
22381W        W87861  31.060  27.093   1.361
22382W        W87862  25.104  39.547  14.274
22383W        W87863  30.596  18.764  11.594
22384W        W87864  22.136  26.659   1.287
22385W        W87865  13.646   3.309  14.763
22386W        W87866  16.637   2.398   4.695
22387W        W87867  23.672  39.488  13.414
22388W        W87868  17.105   1.944   2.731
22389W        W87869  27.660  17.277  12.978
22390W        W87870  27.692  44.352  13.828
22391W        W87871  42.017  33.104  14.967
22392W        W87872   8.223  36.467  14.849
22393W        W87873  15.260  33.017   2.866
22394W        W87874  36.932  11.777   1.329
22395W        W87875  35.057  31.986   3.366
22396W        W87876  12.197  19.090  12.924
22397W        W87877  10.158   6.310  13.420
22398W        W87878  21.112  12.717  10.617
22399W        W87879  11.720  35.456   3.811
22400W        W87880  21.718   9.220   2.240
22401W        W87881  17.700  37.878   4.635
22402W        W87882  31.480  10.799  12.825
22403W        W87883   2.906  14.108  13.912
22404W        W87884   6.205  17.799  14.902
22405W        W87885  31.955   8.300  12.943
22406W        W87886  42.848  26.592   0.927
22407W        W87887  16.706   4.350   0.841
22408W        W87888  31.111  24.992   0.466
22409W        W87889   0.485  27.576   1.897
22410W        W87890  25.672  12.616  10.152
22411W        W87891  29.101   4.243   1.334
22412W        W87892  21.645  38.043   3.298
22413W        W87893   6.413   9.776   1.387
22414W        W87894   3.428  23.220   2.705
22415W        W87895  16.575  29.941  14.941
22416W        W87896   2.825  42.906   0.960
22417W        W87897  29.995   0.879   2.708
22418W        W87898   0.771  34.987   2.367
22419W        W87899  13.686  13.172   0.837
22420W        W87900   5.340  18.120   3.833
22421W        W87901  27.996  44.417   1.802
22422W        W87902  17.736   4.349   0.399
22423W        W87903  28.089  10.792  10.921
22424W        W87904  28.569  36.997   0.932
22425W        W87905  19.052   4.322   2.822
22426W        W87906  44.924  19.150  12.527
22427W        W87907  30.082   1.324  14.925
22428W        W87908  19.242  17.689   4.600
22429W        W87909  39.356  20.139   3.184
22430W        W87910  28.086  28.674   1.268
22431W        W87911  42.998  33.455   0.356
22432W        W87912   2.859  10.282  13.799
22433W        W87913  31.498  19.650  12.368
22434W        W87914  38.445   0.844   0.839
22435W        W87915   9.789  15.746   2.228
22436W        W87916  25.536   0.462   1.236
22437W        W87917  15.615  15.721  12.521
22438W        W87918  13.258  12.748  11.471
22439W        W87919   5.209   3.393  10.529
22440W        W87920  23.646  33.103   4.621
22441W        W87921  44.404  23.088  11.988
22442W        W87922  26.572  11.141  12.478
22443W        W87923   4.910  38.428   1.834
22444W        W87924  42.775  13.327   1.758
22445W        W87925  19.582  14.194  13.436
22446W        W87926  41.456  40.456  12.095
22447W        W87927  30.577  23.119  13.831
22448W        W87928  19.247   1.933  12.060
22449W        W87929  32.558  14.317   3.714
22450W        W87930   4.282  27.573  12.053
22451W        W87931  14.823  12.818   5.117
22452W        W87932  42.524  24.099  12.957
22453W        W87933  20.623  28.085   4.288
22454W        W87934   1.372  36.533  12.093
22455W        W87935  25.124  25.663  12.032
22456W        W87936   7.835  23.201   4.678
22457W        W87937  36.871  39.446   4.619
22458W        W87938  41.390  17.131   0.772
22459W        W87939   6.678  26.649   2.837
22460W        W87940  12.696  36.397   1.254
22461W        W87941  17.201  21.622   3.819
22462W        W87942  37.012   0.801   3.697
22463W        W87943   2.897  10.709  14.342
22464W        W87944   8.176  12.245   1.839
22465W        W87945   7.834  13.255  12.493
22466W        W87946  40.324  18.724  14.324
22467W        W87947  35.593   0.894   1.743
22468W        W87948   1.968  32.496  14.428
22469W        W87949   6.872  40.927  11.603
22470W        W87950  17.201  12.134   0.917
22471W        W87951  24.660  37.440   0.950
22472W        W87952  16.784  41.803   5.141
22473W        W87953  15.672  23.535  13.043
22474W        W87954  41.019  16.206   1.881
22475W        W87955  37.005  43.429  13.907
22476W        W87956  17.194  33.964  14.793
22477W        W87957  36.899   9.785   2.266
22478W        W87958  25.523  16.806   3.809
22479W        W87959  35.070   5.739  11.903
22480W        W87960   6.846  16.237   2.880
22481W        W87961  29.999  22.026  10.897
22482W        W87962  41.815  30.135   2.702
22483W        W87963  16.696  14.833  12.976
22484W        W87964   4.707  17.218   0.886
22485W        W87965  15.766  12.744  11.123
22486W        W87966  27.094   0.482   4.302
22487W        W87967  35.015  12.155   4.143
22488W        W87968  25.981   4.836   1.256
22489W        W87969   6.694   2.288  12.549
22490W        W87970   8.242   1.758   0.925
22491W        W87971  18.552  19.739   0.878
22492W        W87972  32.129  35.922   9.950
22493W        W87973  44.301  10.182   2.681
22494W        W87974   2.265  43.966   3.313
22495W        W87975  30.628   6.372  12.495
22496W        W87976  33.120  31.548  10.523
22497W        W87977  22.242  38.844   3.733
22498W        W87978  30.115  15.702   3.770
22499W        W87979  15.707   2.905  13.934
22500W        W87980   0.801  14.236  13.424
22501W        W87981  43.424  16.265   3.383
22502W        W87982  44.821  13.846   0.829
22503W        W87983  17.238   0.959   4.757
22504W        W87984  22.604  13.205   4.733
22505W        W87985  14.166  38.425   2.417
22506W        W87986   8.893   0.915   3.673
22507W        W87987  42.030   4.832   0.369
22508W        W87988  20.606  38.059   3.666
22509W        W87989  26.487   6.199   0.962
22510W        W87990   4.754  38.887  11.099
22511W        W87991  15.328  40.324   4.333
22512W        W87992  32.061   7.833   2.387
22513W        W87993  35.538  13.627  11.905
22514W        W87994  43.315   6.777  14.287
22515W        W87995  34.094   6.895   4.822
22516W        W87996   1.789   1.970   0.769
22517W        W87997   6.420  32.411  11.037
22518W        W87998  32.104  32.589   4.211
22519W        W87999  22.050  17.139  13.046
22520W        W88000   7.304   1.312  11.551
22521W        W88001  30.103   1.902   3.179
22522W        W88002  39.928  12.203  12.513
22523W        W88003  32.508   1.248  14.419
22524W        W88004  17.650  34.006   0.736
22525W        W88005   8.244  26.197   1.359
22526W        W88006   5.843  17.222   1.318
22527W        W88007  20.687  41.792  13.948
22528W        W88008  13.290  27.954   2.339
22529W        W88009   9.372  36.385  10.626
22530W        W88010  29.976  15.115  11.569
22531W        W88011  15.606   8.348  11.949
22532W        W88012  33.874  33.393  13.893
22533W        W88013  28.107  39.537   2.866
22534W        W88014  44.424  18.214   1.412
22535W        W88015  36.481   9.854   2.781
22536W        W88016  15.214  27.191   2.884
22537W        W88017  16.278  33.533  12.343
22538W        W88018  28.939  34.545  14.920
22539W        W88019   2.357  31.984  10.459
22540W        W88020  28.119  18.711  12.871
22541W        W88021  38.564  36.384  11.861
22542W        W88022   8.378  34.500  13.002
22543W        W88023  25.047  25.584   3.815
22544W        W88024  29.461  13.347   3.291
22545W        W88025  18.050  27.175   3.268
22546W        W88026   7.289  26.951   0.833
22547W        W88027  41.381  39.012  13.980
22548W        W88028  29.141  37.876   0.781
22549W        W88029  21.557  44.465   2.182
22550W        W88030  12.707  44.936  13.004
22551W        W88031  13.211   7.881  10.470
22552W        W88032   4.266   6.248   1.268
22553W        W88033  22.665  22.022   4.184
22554W        W88034  32.989   1.297  11.007
22555W        W88035  35.097  36.028  12.549
22556W        W88036  33.381  24.514   2.717
22557W        W88037  41.891  37.350   3.175
22558W        W88038  37.475  19.204   4.206
22559W        W88039  42.996  22.698  12.980
22560W        W88040  35.418   1.756   2.185
22561W        W88041   7.820  25.562  14.496
22562W        W88042  24.086  28.990   4.167
22563W        W88043  12.338  26.511  14.910
22564W        W88044  40.026  20.679  13.380
22565W        W88045  33.586   8.662   2.334
22566W        W88046  35.493   2.277  10.435
22567W        W88047  44.804  29.961   4.793
22568W        W88048   0.345  43.910   0.769
22569W        W88049  25.695  34.869  11.372
22570W        W88050   6.716  26.538  14.825
22571W        W88051  21.190  34.873  10.420
22572W        W88052  18.129  33.042  11.120
22573W        W88053   1.884  17.700   2.667
22574W        W88054  40.842  15.327  10.455
22575W        W88055   4.812  22.599   4.655
22576W        W88056  20.540  40.825  13.958
22577W        W88057  33.396  29.502   1.917
22578W        W88058  41.027  28.056  13.403
22579W        W88059  37.035   1.762  14.770
22580W        W88060  10.663  29.091   1.707
22581W        W88061  26.627  27.452   4.751
22582W        W88062  34.392  37.482  10.408
22583W        W88063  42.419  37.054  13.030
22584W        W88064  11.182  14.221  11.896
22585W        W88065  17.785  13.300  12.851
22586W        W88066  27.650  26.983   2.817
22587W        W88067   3.894   2.805  12.476
22588W        W88068  25.482  31.500   2.335
22589W        W88069  28.976  20.135  13.952
22590W        W88070   8.356   0.458   0.472
22591W        W88071  25.079   8.722  10.431
22592W        W88072   5.402  36.526  13.790
22593W        W88073  39.372  36.346  14.836
22594W        W88074  23.586  39.872  14.857
22595W        W88075  26.150  35.004  14.502
22596W        W88076   3.901  17.121   1.323
22597W        W88077  14.664  32.534  12.027
22598W        W88078  18.737  31.999   2.868
22599W        W88079  12.811  11.830  12.059
22600W        W88080   5.263  30.552  14.514
22601W        W88081  40.539  43.337  11.026
22602W        W88082  29.077  38.388   2.706
22603W        W88083   6.920  36.458   0.764
22604W        W88084  42.489   1.908  11.886
22605W        W88085  21.615   6.700  12.823
22606W        W88086   9.377  25.632  11.486
22607W        W88087  12.347  13.737   2.244
22608W        W88088  30.130  28.052   2.192
22609W        W88089  27.954  10.347   5.221
22610W        W88090  12.823   6.363  12.933
22611W        W88091   4.365  26.103   2.670
22612W        W88092  18.285  44.894  11.597
22613W        W88093  29.577  39.885   2.875
22614W        W88094  16.779  31.541   5.115
22615W        W88095  34.418  16.670   0.874
22616W        W88096  32.949  27.604   3.249
22617W        W88097   6.214  13.804   4.250
22618W        W88098  30.598  41.831   4.320
22619W        W88099   9.722   9.222   2.692
22620W        W88100  26.684  24.054   0.246
22621W        W88101  32.547  28.023  10.911
22622W        W88102  12.745  15.726  14.867
22623W        W88103  36.549  21.695  14.791
22624W        W88104  30.987  15.160  14.293
22625W        W88105   1.750  38.899  14.990
22626W        W88106  18.158   6.892  13.402
22627W        W88107  41.406  37.915   4.117
22628W        W88108  40.424   9.219  12.004
22629W        W88109  28.544   0.860   1.756
22630W        W88110  15.162  32.575   1.337
22631W        W88111   9.856  32.971  10.564
22632W        W88112  33.474  15.777   1.338
22633W        W88113   6.898   0.381  14.991
22634W        W88114  24.153  33.121   0.259
22635W        W88115  27.506  24.687   3.716
22636W        W88116  41.889   7.797  10.587
22637W        W88117  24.512  32.580   0.752
22638W        W88118  39.392  12.611   3.243
22639W        W88119  11.252  28.592  10.912
22640W        W88120  14.653  36.902  11.416
22641W        W88121  33.485  38.447  11.552
22642W        W88122  36.026  12.754  14.853
22643W        W88123  21.082  15.324   3.256
22644W        W88124   9.649  20.056   0.768
22645W        W88125  39.047  17.170  10.610
22646W        W88126  38.469  28.032   0.848
22647W        W88127  34.931  35.923  13.832
22648W        W88128  39.967   2.796   2.825
22649W        W88129   4.819  38.518   0.289
22650W        W88130  34.108   2.873  13.985
22651W        W88131   8.802   7.392   0.297
22652W        W88132  15.810  40.458   2.272
22653W        W88133   4.804  39.047  13.487
22654W        W88134   3.905  36.073   0.361
22655W        W88135  23.124  40.880  12.441
22656W        W88136  42.785  41.894   1.859
22657W        W88137   2.821  26.655  12.836
22658W        W88138  12.317  42.969  12.907
22659W        W88139   6.414  35.961   1.784
22660W        W88140  14.247  17.140  11.441
22661W        W88141  32.970   8.831  12.344
22662W        W88142   7.369  43.877  10.528
22663W        W88143  15.322  27.537  13.415
22664W        W88144  30.163   2.779   0.316
22665W        W88145  30.516  37.930  10.425
22666W        W88146  33.504  28.560  13.009
22667W        W88147  13.179   4.813   0.752
22668W        W88148  43.400  30.415  14.377
22669W        W88149  40.038   4.883   0.382
22670W        W88150  27.983  35.384  13.382
22671W        W88151  41.453  32.893   4.636
22672W        W88152  20.207  15.631   1.300
22673W        W88153   3.877  44.351  10.490
22674W        W88154   8.870  11.638  10.560
22675W        W88155  21.669  16.610   0.343
22676W        W88156   4.902  44.365   2.831
22677W        W88157  43.931  36.933  14.830
22678W        W88158  41.513  12.852   1.337
22679W        W88159   1.758   3.739  10.609
22680W        W88160  41.019  14.161  14.026
22681W        W88161   9.165  41.835  10.561
22682W        W88162  16.708  39.433   3.351
22683W        W88163   8.736   1.978   1.366
22684W        W88164  13.302  41.444   1.775
22685W        W88165  43.283  23.200  13.357
22686W        W88166   3.885   0.326  14.464
22687W        W88167  23.122  38.387  13.433
22688W        W88168  42.995  43.297  11.373
22689W        W88169  14.831   0.252  14.513
22690W        W88170   7.383  16.776  11.945
22691W        W88171  38.914   1.817   3.196
22692W        W88172  36.869  14.719  14.912
22693W        W88173  22.046  40.427  12.053
22694W        W88174  10.319  21.645   4.807
22695W        W88175  15.195   8.798   2.319
22696W        W88176  19.271  38.040   3.793
22697W        W88177  42.299   9.222  13.043
22698W        W88178  12.180   4.407  10.446
22699W        W88179  14.773   5.747  13.515
22700W        W88180  38.485  40.418  14.440
22701W        W88181  10.838  16.121   1.248
22702W        W88182  22.156  16.076   3.758
22703W        W88183  28.000  19.245  11.882
22704W        W88184  39.015  15.738  14.930
22705W        W88185   2.377  44.473  13.871
22706W        W88186  41.295  42.866   3.670
22707W        W88187  28.057  23.627  11.472
22708W        W88188   5.320  37.426  11.949
22709W        W88189  37.996  28.481   4.827
22710W        W88190   7.903  25.547   1.711
22711W        W88191  23.193   3.449   3.847
22712W        W88192  38.543  32.078   1.873
22713W        W88193  43.287  21.128  12.878
22714W        W88194  33.040   2.431   3.864
22715W        W88195  39.460  34.985   2.821
22716W        W88196  24.652  17.641  12.929
22717W        W88197  18.166  40.034  14.785
22718W        W88198  15.183   5.215  13.408
22719W        W88199   5.337  10.793   1.789
22720W        W88200  42.913   9.761  12.378
22721W        W88201  13.701   6.346   1.828
22722W        W88202  41.471   4.440   2.683
22723W        W88203   1.811  28.487   1.932
22724W        W88204   5.921  39.013   4.171
22725W        W88205  39.932  12.650   0.777
22726W        W88206  11.159  20.082  13.038
22727W        W88207  37.537  22.061  12.064
22728W        W88208  21.726  37.043  10.558
22729W        W88209  32.539  23.680  11.441
22730W        W88210   3.746  44.814   4.706
22731W        W88211   5.202  37.536   3.342
22732W        W88212  36.851  23.662  10.948
22733W        W88213  31.413  18.725  12.023
22734W        W88214  30.002  27.957   3.778
22735W        W88215  23.679   9.856   0.734
22736W        W88216  25.133  38.533  13.030
22737W        W88217  24.100  28.552   4.242
22738W        W88218  13.696  18.194  10.579
22739W        W88219  17.661   2.368  13.058
22740W        W88220  31.422   3.279   0.772
22741W        W88221  24.149  15.716  11.454
22742W        W88222  24.089   3.237   2.333
22743W        W88223   3.873  33.567  13.510
22744W        W88224  31.495  25.025   0.384
22745W        W88225  44.953  41.506  10.443
22746W        W88226   9.696  28.073   4.815
22747W        W88227  21.753  11.677  14.352
22748W        W88228  11.257  22.019  11.953
22749W        W88229  16.659  26.974   0.910
22750W        W88230   3.782  18.194   0.449
22751W        W88231  44.802   0.462   1.258
22752W        W88232  37.525  22.030  14.991
22753W        W88233  36.960  14.662   3.351
22754W        W88234   3.924  28.619  13.950
22755W        W88235  44.267  40.534   0.880
22756W        W88236  41.482   8.657  10.990
22757W        W88237  38.363   0.331  12.498
22758W        W88238  11.851   1.403  10.466
22759W        W88239  14.768   3.780   4.178
22760W        W88240  42.883  44.947  12.390
22761W        W88241  35.590  18.728  12.917
22762W        W88242  19.253  35.403   0.846
22763W        W88243   0.433   5.408  14.339
22764W        W88244  26.575  22.148   0.362
22765W        W88245  14.733  34.090   4.223
22766W        W88246  13.782  21.249  11.483
22767W        W88247  35.028  37.358   2.412
22768W        W88248  15.742  41.037   4.654
22769W        W88249  36.574  13.133  13.435
22770W        W88250   9.164  21.242  13.430
22771W        W88251  23.211  21.635  11.048
22772W        W88252  42.362  13.757   1.451
22773W        W88253  29.085  37.879  11.042
22774W        W88254   6.807  20.744   2.183
22775W        W88255  32.519  21.707   0.427
22776W        W88256  29.086   9.223  14.371
22777W        W88257  38.455  41.527   0.402
22778W        W88258  20.068   9.317  11.944
22779W        W88259  13.166  31.925   4.735
22780W        W88260  43.350  30.517   0.929
22781W        W88261  30.588  30.107   1.320
22782W        W88262  18.059  44.835  14.449
22783W        W88263   6.775  38.892   4.635
22784W        W88264   4.450  41.858   1.325
22785W        W88265  32.903   7.824   0.250
22786W        W88266  42.983  37.578   0.395
22787W        W88267   8.752  39.966   1.730
22788W        W88268   9.650  10.738  12.962
22789W        W88269  30.574  38.532   3.792
22790W        W88270  32.459  35.488   0.731
22791W        W88271   1.905   6.918   0.246
22792W        W88272  20.108  30.554  10.574
22793W        W88273  43.426  11.370  10.461
22794W        W88274  29.068  27.962  12.540
22795W        W88275   3.280  44.308   1.358
22796W        W88276  22.186  11.184  10.508
22797W        W88277  39.427  27.112   1.452
22798W        W88278  24.579  34.528  13.055
22799W        W88279   2.416  14.793   3.794
22800W        W88280   0.386  12.726  14.839
22801W        W88281  12.292  38.421   0.312
22802W        W88282  13.245   5.242  12.429
22803W        W88283  16.262  13.269   2.762
22804W        W88284  32.138  34.530   0.270
22805W        W88285  35.927  39.480  10.542
22806W        W88286  40.475  21.054  10.492
22807W        W88287  20.757  10.217   0.766
22808W        W88288  10.857  42.336  11.594
22809W        W88289  33.384   9.798  10.447
22810W        W88290  35.363  20.719  13.835
22811W        W88291   2.326  29.082   2.742
22812W        W88292  23.552   1.915   1.259
22813W        W88293   8.279  14.640   4.604
22814W        W88294  37.938  43.330  11.539
22815W        W88295   1.764   1.307   3.201
22816W        W88296  33.563   9.687  11.871
22817W        W88297  43.861  44.784  12.859
22818W        W88298  26.054  41.350  12.873
22819W        W88299  28.675  33.026  13.457
22820W        W88300   3.295  40.970  12.965
22821W        W88301   7.862  16.742  14.301
22822W        W88302  43.335  28.112  12.897
22823W        W88303   8.867   4.886   5.263
22824W        W88304  22.101   5.427   0.478
22825W        W88305   8.324  44.831   2.795
22826W        W88306  28.635  35.564   0.346
22827W        W88307  41.905  20.156   2.267
22828W        W88308   9.165  23.503   3.349
22829W        W88309  36.996  42.867  10.992
22830W        W88310  40.923  32.924  14.465
22831W        W88311   0.459   2.283  10.942
22832W        W88312   0.260  10.675   1.264
22833W        W88313  43.399   4.720  13.401
22834W        W88314  38.329   8.773  11.996
22835W        W88315  10.830  23.202   0.373
22836W        W88316  24.503   2.417   3.181
22837W        W88317  19.100   0.292  11.529
22838W        W88318   4.271  20.183  13.544
22839W        W88319  11.322   4.907   2.694
22840W        W88320   7.693  39.940   3.237
22841W        W88321  39.448  13.137  12.062
22842W        W88322  31.419  16.689  14.300
22843W        W88323   2.921  18.733  11.554
22844W        W88324   4.205  25.574   0.818
22845W        W88325  36.962  24.011   1.789
22846W        W88326  19.274  19.252   2.362
22847W        W88327  35.028  20.220  11.007
22848W        W88328  40.029  14.294   0.941
22849W        W88329  12.353  19.197   4.830
22850W        W88330  43.882  10.877  10.588
22851W        W88331  14.628  43.876   0.336
22852W        W88332   0.860   7.758  11.023
22853W        W88333  21.672  18.053   3.288
22854W        W88334  22.235   2.394  11.942
22855W        W88335  25.506  41.357  12.497
22856W        W88336  39.369  35.022   3.843
22857W        W88337   6.282  37.498   2.349
22858W        W88338  14.309  15.742  10.447
22859W        W88339  18.597   7.808  11.414
22860W        W88340  17.608  35.483   3.841
22861W        W88341  20.584  41.009   4.159
22862W        W88342  36.369   0.950  13.838
22863W        W88343  15.699  31.100   5.230
22864W        W88344   6.315  24.071  11.112
22865W        W88345  30.129  13.240   4.723
22866W        W88346  30.423  40.831   4.258
22867W        W88347  13.653   3.914   3.229
22868W        W88348  44.916   5.931   4.168
22869W        W88349  25.471   0.377   5.698
22870W        W88350  39.979  29.587   3.281
22871W        W88351  13.314   7.278  10.455
22872W        W88352   3.355   7.261   1.780
22873W        W88353  15.249   8.818   1.223
22874W        W88354  29.503  44.412  14.876
22875W        W88355   1.760  38.386  13.966
22876W        W88356   0.448  28.975  12.447
22877W        W88357  40.517  11.748  13.412
22878W        W88358  42.409   0.396   0.336
22879W        W88359   9.793  33.922   2.301
22880W        W88360  43.809  32.610  14.889
22881W        W88361  15.669  23.509   3.860
22882W        W88362   4.842  11.269   2.219
22883W        W88363  42.025  41.502   4.235
22884W        W88364   4.859  39.487   3.375
22885W        W88365  11.789  19.671  13.027
22886W        W88366  41.427  16.712  13.354
22887W        W88367  43.429  43.423  13.866
22888W        W88368   7.690  15.176  14.451
22889W        W88369  18.638   3.279   0.810
22890W        W88370  12.815  16.665   4.743
22891W        W88371  33.555  16.267  13.030
22892W        W88372   5.805   0.307  13.483
22893W        W88373  44.830  25.661  11.858
22894W        W88374   7.683  15.174   1.429
22895W        W88375  29.025  10.817   0.365
22896W        W88376   4.379  19.175  10.904
22897W        W88377  37.966  21.073  13.019
22898W        W88378  40.497  42.890   3.158
22899W        W88379  12.671  40.855  14.385
22900W        W88380  13.801   1.241   0.313
22901W        W88381  16.749   4.405   4.786
22902W        W88382  10.861  12.819  10.621
22903W        W88383  25.138  33.547   1.217
22904W        W88384  23.054   7.388  14.759
22905W        W88385  17.642   4.319   2.252
22906W        W88386  30.004  22.065   4.218
22907W        W88387  32.048  37.071  11.884
22908W        W88388   1.751  32.537   0.283
22909W        W88389  36.468   5.304   4.146
22910W        W88390  42.970  38.848   4.656
22911W        W88391  27.008  39.911   0.479
22912W        W88392  42.011  10.282   3.223
22913W        W88393  42.479  24.484  11.883
22914W        W88394  24.191  26.699   1.835
22915W        W88395  17.801  39.366  11.011
22916W        W88396  18.727  25.648  14.981
22917W        W88397  11.261  21.139   4.622
22918W        W88398  27.998  23.736  12.559
22919W        W88399   4.411  25.969  12.560
22920W        W88400  38.920   7.683   5.167
22921W        W88401  39.034  30.926  12.068
22922W        W88402  24.579  13.106  14.461
22923W        W88403   6.381  38.376  11.027
22924W        W88404  22.627  23.672  10.991
22925W        W88405  29.513  34.471   3.336
22926W        W88406   5.893  36.465  11.866
22927W        W88407  31.530  38.394   0.957
22928W        W88408  13.296   6.411   3.346
22929W        W88409   4.380  32.597  12.999
22930W        W88410  21.255  19.231  13.414
22931W        W88411   8.210  43.391   3.206
22932W        W88412   5.315  37.879   2.407
22933W        W88413   8.872  32.606  10.612
22934W        W88414   2.278  38.018  11.022
22935W        W88415   3.728  28.149  11.432
22936W        W88416  32.588  13.169  13.012
22937W        W88417  18.755  40.525   2.199
22938W        W88418   7.747  40.899  14.470
22939W        W88419  38.557  10.210  14.493
22940W        W88420  21.745   5.722  12.045
22941W        W88421  25.170  43.430   3.362
22942W        W88422  14.784   6.809   0.405
22943W        W88423  20.556  13.325  13.823
22944W        W88424  30.071  41.911   4.286
22945W        W88425  38.998   2.405  10.515
22946W        W88426  16.600   1.793  12.464
22947W        W88427  29.141  32.442   2.709
22948W        W88428   1.807   3.388  13.901
22949W        W88429  20.648   1.238   3.752
22950W        W88430  16.233  33.037   4.606
22951W        W88431  42.966  30.563   9.949
22952W        W88432  44.869   9.318  10.975
22953W        W88433  38.841  14.666   3.717
22954W        W88434  23.033  14.276   1.737
22955W        W88435  34.511   0.857  14.779
22956W        W88436   1.954  14.682   3.380
22957W        W88437   9.395   9.373   1.830
22958W        W88438   6.222  36.551   1.862
22959W        W88439  16.780  44.932  12.958
22960W        W88440  20.263  25.537   0.370
22961W        W88441   1.308  40.358   3.349
22962W        W88442  22.676  42.386   2.219
22963W        W88443  26.671  13.710  13.528
22964W        W88444  39.320  27.473   0.479
22965W        W88445  44.970  17.712   1.247
22966W        W88446  29.170  15.672   3.848
22967W        W88447  21.565  42.305  12.401
22968W        W88448  25.214  15.631   1.717
22969W        W88449  28.006  43.395   0.785
22970W        W88450  20.736  44.473  12.365
22971W        W88451  42.936  19.777  11.423
22972W        W88452  25.203  28.946   0.368
22973W        W88453  26.105   3.448   2.306
22974W        W88454   5.884  15.097  10.465
22975W        W88455   5.695   4.274   0.774
22976W        W88456  23.552  24.055  14.917
22977W        W88457  22.596  10.736  12.364
22978W        W88458  22.152  37.861  13.325
22979W        W88459  44.901   0.390   1.702
22980W        W88460  41.888  18.134  10.077
22981W        W88461  10.864  11.640   0.408
22982W        W88462  33.076   9.652  14.323
22983W        W88463  19.191   3.363  14.846
22984W        W88464  41.901  35.464   0.799
22985W        W88465  30.122   7.685  12.966
22986W        W88466  10.851  11.257  12.348
22987W        W88467   0.330   2.822   4.751
22988W        W88468  34.468  14.830  14.365
22989W        W88469  11.867  39.021   5.212
22990W        W88470  26.097   4.206  14.325
22991W        W88471  40.828   2.881  10.999
22992W        W88472   6.683  30.135   3.801
22993W        W88473   1.846  30.037  13.430
22994W        W88474   9.768  42.796  14.916
22995W        W88475  21.622  23.560  13.316
22996W        W88476  24.543  44.333   3.273
22997W        W88477  37.912   3.358  14.918
22998W        W88478  37.009  40.863   2.415
22999W        W88479  17.152  35.899   3.737
23000W        W88480  36.991  30.653   4.225
23001W        W88481  19.721  13.632   0.858
23002W        W88482   3.259  44.981   1.288
23003W        W88483  10.657  23.490   4.242
23004W        W88484   1.422  24.540  12.093
23005W        W88485  22.132  30.985   3.242
23006W        W88486  10.360  35.566  11.008
23007W        W88487  44.437  41.873  12.849
23008W        W88488  37.536   3.236   2.816
23009W        W88489   1.959  17.118   1.731
23010W        W88490  16.110  15.272   0.866
23011W        W88491  14.764  19.678   3.228
23012W        W88492  41.893  38.069  14.908
23013W        W88493  37.406  28.082   2.872
23014W        W88494   3.739   5.821   3.185
23015W        W88495  43.836  31.925  14.765
23016W        W88496   8.768  36.091  14.452
23017W        W88497  39.364  27.600  12.403
23018W        W88498  41.804  11.322   0.858
23019W        W88499   6.306  13.813  12.412
23020W        W88500  37.542  44.932   0.296
23021W        W88501  37.974  31.431   4.751
23022W        W88502  40.494  35.854   4.611
23023W        W88503  25.703  12.245  11.020
23024W        W88504   9.839  26.673  12.558
23025W        W88505  37.902  20.591   0.355
23026W        W88506   4.256  23.670  14.833
23027W        W88507  14.133  16.137   0.262
23028W        W88508  29.602  23.497   2.203
23029W        W88509  11.217  13.233   4.708
23030W        W88510  16.183   8.837  11.418
23031W        W88511  14.595  38.029  12.951
23032W        W88512  20.622  28.518  12.351
23033W        W88513  11.867  42.895   0.439
23034W        W88514   9.888  32.584   2.259
23035W        W88515  28.639  21.651   1.739
23036W        W88516  10.672   6.259  14.949
23037W        W88517  27.662  13.794  13.848
23038W        W88518   2.832  41.927  10.571
23039W        W88519  34.906  21.205   4.177
23040W        W88520  43.297  35.045  10.587
23041W        W88521  34.404  27.529  11.432
23042W        W88522  35.367   8.728  12.937
23043W        W88523  35.522  27.674   0.346
23044W        W88524  15.698  23.518  10.102
23045W        W88525  29.510  13.264   2.405
23046W        W88526  20.535  42.960   3.381
23047W        W88527  24.158  31.558  14.945
23048W        W88528  21.213  29.459   2.680
23049W        W88529  40.896  16.178   1.274
23050W        W88530  11.847  22.056   1.849
23051W        W88531  19.121  31.474   4.700
23052W        W88532  11.352  19.073   1.374
23053W        W88533  12.288  20.672   0.778
23054W        W88534  30.509  16.235  14.914
23055W        W88535   4.816  23.637  12.011
23056W        W88536  11.704   5.878  11.014
23057W        W88537  40.913  30.417  11.092
23058W        W88538   8.879  29.569   0.762
23059W        W88539  37.455  10.276   2.314
23060W        W88540  23.544  20.679  13.897
23061W        W88541  12.201  38.888   4.784
23062W        W88542  21.725   1.881  12.477
23063W        W88543   7.894  28.451   4.607
23064W        W88544  20.701  16.162  13.353
23065W        W88545  33.918  24.158  14.453
23066W        W88546  37.467  24.501  14.429
23067W        W88547  14.186  40.420   0.320
23068W        W88548  22.556  31.428   0.372
23069W        W88549  11.232  39.523  14.950
23070W        W88550  33.430  12.213  14.335
23071W        W88551  26.184  41.964   1.717
23072W        W88552  26.462  24.554   3.292
23073W        W88553  36.457   1.331   4.137
23074W        W88554  33.092  12.201   3.854
23075W        W88555  34.490  28.583  12.824
23076W        W88556  31.642   0.976   3.711
23077W        W88557  33.474  39.377  12.092
23078W        W88558  16.293   2.364  13.910
23079W        W88559  30.507  12.647  13.022
23080W        W88560  19.544  36.423   4.332
23081W        W88561   1.285  23.657   0.748
23082W        W88562  15.591  37.477  12.353
23083W        W88563  13.141  22.542  10.986
23084W        W88564  40.992  40.881  12.909
23085W        W88565  25.681  30.100   2.396
23086W        W88566   3.818   8.860  10.564
23087W        W88567  30.927  23.592   2.330
23088W        W88568  11.203  21.106  13.955
23089W        W88569  24.096  43.976   5.698
23090W        W88570  21.724  24.078  10.613
23091W        W88571  18.188  28.101   2.711
23092W        W88572  42.881  26.146   2.723
23093W        W88573   4.720  20.649  13.509
23094W        W88574  25.493  31.028   3.646
23095W        W88575   2.896  16.792   4.717
23096W        W88576  41.500  29.468   0.359
23097W        W88577  43.857  17.142  13.384
23098W        W88578  44.459  34.390   3.714
23099W        W88579  16.120  23.518   1.395
23100W        W88580  33.049   3.385  14.446
23101W        W88581   8.359  44.449  12.843
23102W        W88582  32.927  31.421   2.309
23103W        W88583  36.481  10.661  12.054
23104W        W88584   6.255  14.104  12.380
23105W        W88585  21.651  29.614   4.675
23106W        W88586   2.951  43.349  12.498
23107W        W88587  26.613  31.504  11.499
23108W        W88588  17.174  18.592   3.331
23109W        W88589   2.849  36.914  11.563
23110W        W88590  42.521  22.007  13.996
23111W        W88591   2.731  21.089  14.356
23112W        W88592  40.387   7.273  14.323
23113W        W88593  32.056   9.686  13.457
23114W        W88594  16.199  27.118   4.186
23115W        W88595  37.838  42.884   4.639
23116W        W88596  13.662  13.788  14.759
23117W        W88597  17.581   8.894  10.438
23118W        W88598  36.567  15.206  14.371
23119W        W88599  42.959  33.456  13.842
23120W        W88600  27.503  35.101   2.874
23121W        W88601  40.950  40.307  13.981
23122W        W88602  27.052  20.675  10.990
23123W        W88603  10.648   8.742  10.598
23124W        W88604  38.021   1.772  13.908
23125W        W88605  21.632  28.122  11.118
23126W        W88606  25.991  11.145  13.818
23127W        W88607  41.502  22.080   0.356
23128W        W88608  11.144  43.996   3.681
23129W        W88609  39.387  19.721   5.308
23130W        W88610  28.048   5.708  14.509
23131W        W88611   5.401  10.311  14.288
23132W        W88612  41.029  31.953   3.866
23133W        W88613  15.646  37.959   4.150
23134W        W88614  15.772  30.594  14.928
23135W        W88615  14.310  22.601  13.837
23136W        W88616  44.764  32.449  13.420
23137W        W88617  42.357  12.744   1.812
23138W        W88618   4.409  42.975   1.797
23139W        W88619  19.582   1.760  12.449
23140W        W88620  11.308  24.221   4.750
23141W        W88621  20.620   7.397  14.956
23142W        W88622  19.135  13.765  14.845
23143W        W88623  43.857  23.508  13.836
23144W        W88624  16.726  42.856  11.474
23145W        W88625  11.635  40.446  13.326
23146W        W88626  28.130  43.813   1.882
23147W        W88627  24.208  18.756  13.407
23148W        W88628  28.067  42.321  14.479
23149W        W88629   0.860  41.910  12.364
23150W        W88630  40.901  44.886   4.118
23151W        W88631   7.760  17.693  13.865
23152W        W88632  11.292  35.020  14.899
23153W        W88633  13.214  15.810   3.286
23154W        W88634  14.811   0.294  10.081
23155W        W88635  16.660  37.032   4.293
23156W        W88636  20.757  11.845   4.150
23157W        W88637  37.419  24.186   1.265
23158W        W88638  41.410  43.357   2.226
23159W        W88639  13.130   6.310  14.425
23160W        W88640  11.864  18.554   3.797
23161W        W88641  20.706   9.161   3.819
23162W        W88642  16.080   7.703   3.239
23163W        W88643   8.192  42.938   1.899
23164W        W88644  38.825  33.935   0.944
23165W        W88645  20.204  32.607  14.413
23166W        W88646  16.685  29.118  11.079
23167W        W88647  35.394   1.889  11.052
23168W        W88648   7.289  31.416   1.751
23169W        W88649   9.784  40.847   3.383
23170W        W88650  11.646  17.751  12.062
23171W        W88651  43.836  12.348  11.063
23172W        W88652  14.719  39.860  13.986
23173W        W88653  17.108   6.374  14.492
23174W        W88654  10.341  32.122  13.845
23175W        W88655  40.508   2.317   1.386
23176W        W88656  37.528  25.011  12.496
23177W        W88657   5.896  43.959   1.881
23178W        W88658  38.408  43.449  14.913
23179W        W88659  16.249  30.981   1.768
23180W        W88660  42.828   7.354  10.973
23181W        W88661  30.054  18.142   4.257
23182W        W88662  42.789  25.154  13.953
23183W        W88663  34.896  11.270   2.339
23184W        W88664  32.487  24.162  13.413
23185W        W88665  16.207  13.152  12.044
23186W        W88666  11.231  17.714  11.060
23187W        W88667  10.662  17.231   0.793
23188W        W88668  22.084  12.814   4.636
23189W        W88669  37.379  24.211  10.943
23190W        W88670  44.974   6.254  13.885
23191W        W88671   8.817  42.304  13.979
23192W        W88672  30.503  18.200   3.208
23193W        W88673  44.474  25.166  13.396
23194W        W88674  28.969  22.684   0.953
23195W        W88675   8.337  43.295  14.433
23196W        W88676  29.652  21.640  11.931
23197W        W88677  24.635   8.184  14.444
23198W        W88678  39.479  35.107  14.785
23199W        W88679  41.480   2.841  13.464
23200W        W88680  25.061  13.788  13.880
23201W        W88681  27.097  34.929  12.903
23202W        W88682  43.372  39.343   4.786
23203W        W88683  42.280  36.524  13.022
23204W        W88684  28.139  32.033   3.199
23205W        W88685   7.271   3.724  11.899
23206W        W88686  16.696  43.452  13.486
23207W        W88687  19.250  42.841   0.264
23208W        W88688  23.025  11.143  13.882
23209W        W88689  27.676   1.392  10.950
23210W        W88690  16.669  19.166  14.861
23211W        W88691  10.827   3.258   3.247
23212W        W88692   2.925  10.680   1.817
23213W        W88693  40.332  37.409  13.836
23214W        W88694  23.241  43.494   3.366
23215W        W88695   2.794   5.259   4.154
23216W        W88696   6.801  30.439  12.861
23217W        W88697  28.018   1.910   4.229
23218W        W88698  21.201  26.181   4.178
23219W        W88699  19.695  20.566  13.520
23220W        W88700  28.016  15.229  13.495
23221W        W88701  28.086  10.640   1.797
23222W        W88702  30.041  43.331  14.964
23223W        W88703  34.001  12.631  11.122
23224W        W88704  30.629  19.770  10.414
23225W        W88705  30.565  21.714   0.398
23226W        W88706   6.799  16.692  11.004
23227W        W88707  28.632  37.382   3.750
23228W        W88708   5.842  34.009   4.334
23229W        W88709  21.751  16.773  10.614
23230W        W88710  17.239  33.997   1.403
23231W        W88711  18.578  44.395   2.893
23232W        W88712  14.140   2.257   1.344
23233W        W88713  14.285  14.307   1.358
23234W        W88714  40.469   5.912   2.777
23235W        W88715  43.922  13.307  10.937
23236W        W88716  28.109  34.550  14.962
23237W        W88717  13.688  17.236   0.377
23238W        W88718  18.658  15.713   5.134
23239W        W88719  20.227  36.986   4.178
23240W        W88720  33.601   2.356   3.761
23241W        W88721   6.708  39.358  11.045
23242W        W88722   5.263  15.609  14.813
23243W        W88723   0.931   5.224   2.797
23244W        W88724  37.986   8.843  13.014
23245W        W88725   4.392  15.690  11.412
23246W        W88726  26.513   5.398   4.671
23247W        W88727  43.895  27.607  14.895
23248W        W88728  17.204  26.996   2.252
23249W        W88729  15.094   8.320   3.233
23250W        W88730  33.402   1.348   3.684
23251W        W88731  18.592  26.591   0.355
23252W        W88732   6.202   3.391  11.445
23253W        W88733   9.378   7.282   3.658
23254W        W88734  27.192  32.995   2.286
23255W        W88735  38.451  34.941  14.388
23256W        W88736  28.582  42.308  10.497
23257W        W88737  34.953  25.693  11.014
23258W        W88738  19.541  25.569   9.657
23259W        W88739  35.601   7.174   2.377
23260W        W88740  16.144  21.075   2.222
23261W        W88741  40.545  22.717  11.460
23262W        W88742  28.069  16.581   4.724
23263W        W88743  16.809  44.479   2.769
23264W        W88744   7.873  21.553   0.865
23265W        W88745  34.406  11.253   2.254
23266W        W88746   0.311   1.255   2.690
23267W        W88747  31.015   0.809   4.170
23268W        W88748  40.040  26.068  13.339
23269W        W88749   1.356   5.433   2.852
23270W        W88750  32.114  30.462   2.376
23271W        W88751  14.780  22.170   4.685
23272W        W88752  23.515  35.534  10.501
23273W        W88753  31.979  19.726   0.374
23274W        W88754  15.300   8.307  10.594
23275W        W88755   6.824   0.768  14.898
23276W        W88756  36.077  21.728  13.407
23277W        W88757  10.378  25.654   0.381
23278W        W88758  23.512  30.614  11.086
23279W        W88759  41.890  40.036   1.759
23280W        W88760   2.774  21.597  12.875
23281W        W88761  35.589  18.702  14.287
23282W        W88762   0.319  44.970   2.707
23283W        W88763   0.802  21.146  14.781
23284W        W88764  28.603  41.479  14.330
23285W        W88765  30.595   4.390   0.884
23286W        W88766  29.003  20.114   4.750
23287W        W88767  25.571  10.314   3.231
23288W        W88768  41.033  34.929  11.928
23289W        W88769  32.595  44.275   4.204
23290W        W88770  40.861  38.346  13.800
23291W        W88771  44.340  26.992  13.431
23292W        W88772  42.934  18.600  14.770
23293W        W88773  13.327   9.192   0.907
23294W        W88774   7.908  10.378  13.009
23295W        W88775  43.327   9.281   3.863
23296W        W88776  35.861  26.473   4.759
23297W        W88777   3.885  36.026   3.241
23298W        W88778  38.050  16.576  10.432
23299W        W88779  15.089  23.154  13.039
23300W        W88780  27.491  36.051  12.934
23301W        W88781  24.119  17.725   1.360
23302W        W88782  22.576   2.961  12.875
23303W        W88783  26.611  10.179   3.335
23304W        W88784  31.143  31.606   0.425
23305W        W88785   0.912  11.232   2.231
23306W        W88786  11.757  19.730  11.505
23307W        W88787  27.101  40.407   3.302
23308W        W88788  19.680   2.752  13.827
23309W        W88789  20.126   2.922   3.270
23310W        W88790  35.521   4.789  12.467
23311W        W88791  31.621   0.485  11.929
23312W        W88792  37.517   7.731   4.339
23313W        W88793  19.766  15.137  13.491
23314W        W88794  31.957  27.967   2.838
23315W        W88795  16.308  19.706   1.367
23316W        W88796  36.048  17.637  13.964
23317W        W88797  38.057  37.530  14.772
23318W        W88798  37.862   8.215  13.016
23319W        W88799  41.369  12.318   1.784
23320W        W88800  16.150   3.855  10.497
23321W        W88801  33.079   0.761   2.396
23322W        W88802  36.984   3.229   0.776
23323W        W88803  18.747  25.074  10.970
23324W        W88804  34.464  39.494  14.786
23325W        W88805  23.573  25.059  14.369
23326W        W88806   4.698  18.720   3.155
23327W        W88807   1.782  30.125  12.937
23328W        W88808  34.112  32.560  13.872
23329W        W88809  12.827  39.928  14.427
23330W        W88810  16.236   5.725  14.489
23331W        W88811   9.881  10.275   4.338
23332W        W88812   9.253  10.320  10.433
23333W        W88813  25.965  33.050   0.388
23334W        W88814  28.442  19.534   1.320
23335W        W88815  38.066  37.085   0.742
23336W        W88816  32.442  22.586   0.938
23337W        W88817  10.853  26.504  12.497
23338W        W88818   3.344  13.744   3.366
23339W        W88819  34.865   9.692  10.984
23340W        W88820  23.491   0.435   0.899
23341W        W88821   3.365  23.719  11.522
23342W        W88822  23.127   4.783  10.633
23343W        W88823   0.299  29.004  10.970
23344W        W88824   5.302  40.343  10.501
23345W        W88825  12.160  30.912   0.787
23346W        W88826  21.551   9.275  13.837
23347W        W88827  42.327  16.286  11.079
23348W        W88828  43.979  30.626   3.367
23349W        W88829   9.163  38.931  13.493
23350W        W88830  12.129  23.163   4.223
23351W        W88831  10.660   9.219   0.403
23352W        W88832  21.541   0.978  13.978
23353W        W88833  39.512  30.508   0.257
23354W        W88834  39.439  39.339   2.791
23355W        W88835  24.702  29.950   4.754
23356W        W88836   6.757  36.535  13.538
23357W        W88837  39.495   4.208  12.081
23358W        W88838  19.039  37.464   4.211
23359W        W88839  38.432  43.942  13.504
23360W        W88840  18.705  23.223  13.484
23361W        W88841   3.940   3.936  13.383
23362W        W88842  11.717  44.491   1.822
23363W        W88843   7.200  25.216   1.735
23364W        W88844  11.803  13.787   0.843
23365W        W88845  31.921  36.382  10.562
23366W        W88846  33.987  16.171   4.704
23367W        W88847   1.875  14.151  10.890
23368W        W88848  43.462  20.616  11.055
23369W        W88849  29.594  41.409  12.854
23370W        W88850  36.907  18.148   3.746
23371W        W88851   4.782  38.352   0.882
23372W        W88852  18.173  18.225   2.262
23373W        W88853  44.973  42.369  10.450
23374W        W88854   6.698   3.340  11.109
23375W        W88855  18.205  11.334   1.312
23376W        W88856   8.783  38.842   2.735
23377W        W88857   7.266   9.803  14.349
23378W        W88858   9.331  26.603  10.908
23379W        W88859  37.386   1.417  10.433
23380W        W88860  41.924  44.487  10.962
23381W        W88861  20.539  28.564  14.769
23382W        W88862  32.992  29.577   4.748
23383W        W88863  33.055  23.639  12.487
23384W        W88864  23.057  37.542   2.894
23385W        W88865  38.990  15.270  11.099
23386W        W88866  43.995  43.372   4.762
23387W        W88867  25.179   9.291  10.556
23388W        W88868   9.172   2.822  10.496
23389W        W88869   3.875  39.826   0.793
23390W        W88870  32.091  36.897  14.360
23391W        W88871   6.923  33.456  13.918
23392W        W88872  43.288  21.742  13.461
23393W        W88873  11.261  25.701  10.503
23394W        W88874  27.621  22.509   4.717
23395W        W88875   7.358  33.582  13.372
23396W        W88876  11.305  32.506  13.811
23397W        W88877  40.534   1.903   4.343
23398W        W88878  32.413  10.162  10.583
23399W        W88879   5.273  28.123   1.720
23400W        W88880  39.026  22.536  14.326
23401W        W88881  15.649  43.792   2.215
23402W        W88882  31.648  21.239   3.719
23403W        W88883  34.404   7.299   3.758
23404W        W88884  18.712  39.025  13.547
23405W        W88885  15.585   5.724  11.578
23406W        W88886  26.993  20.050   1.717
23407W        W88887   8.715  43.873   0.866
23408W        W88888   5.916  18.227  14.505
23409W        W88889  40.927  13.694  12.967
23410W        W88890  28.457   6.403  11.372
23411W        W88891  40.888  26.590   4.145
23412W        W88892  12.792   0.464   4.350
23413W        W88893  21.037   4.715  10.952
23414W        W88894  16.173  28.497   0.755
23415W        W88895  14.776  29.559   4.281
23416W        W88896  23.628  21.216  11.864
23417W        W88897   2.377  26.581  11.380
23418W        W88898  35.391   8.690  11.103
23419W        W88899  16.146  40.995  10.081
23420W        W88900  12.796  12.666   1.761
23421W        W88901  13.756  29.522  12.375
23422W        W88902  15.796   4.391  12.511
23423W        W88903  19.691  44.808   2.317
23424W        W88904  42.502  33.096   0.265
23425W        W88905  42.848  24.104   0.817
23426W        W88906  20.694  21.087   4.207
23427W        W88907  41.449  14.746  12.010
23428W        W88908  18.625  13.625   4.136
23429W        W88909  11.336  33.544  13.488
23430W        W88910  39.496  25.076  10.584
23431W        W88911  29.479  10.143   5.145
23432W        W88912  36.962  14.738  13.868
23433W        W88913  11.674   9.280  12.849
23434W        W88914  23.031  29.950   1.338
23435W        W88915  41.359  43.493   1.738
23436W        W88916  25.188   9.279   5.176
23437W        W88917  34.412  20.532   2.864
23438W        W88918  20.089  33.111   2.722
23439W        W88919  14.330  44.382   4.190
23440W        W88920  11.738  20.173  12.494
23441W        W88921  20.251  16.145   1.726
23442W        W88922   0.802  32.496   4.310
23443W        W88923  27.962  33.512   0.967
23444W        W88924   2.393  15.748  13.954
23445W        W88925  28.654  17.577  13.458
23446W        W88926  30.492  43.830   1.402
23447W        W88927  39.466   7.780   0.460
23448W        W88928  31.928  10.639  10.460
23449W        W88929  35.489   0.951   2.777
23450W        W88930  23.649   0.863  12.978
23451W        W88931  22.650   2.926   3.650
23452W        W88932  25.683  38.923   0.773
23453W        W88933  32.571  10.859   4.646
23454W        W88934   7.870  12.287  10.465
23455W        W88935  12.854  29.579   1.741
23456W        W88936  39.042  26.168   1.769
23457W        W88937  11.194   7.339   1.787
23458W        W88938  35.378   0.796   3.840
23459W        W88939  21.516  11.638   1.339
23460W        W88940  31.409  22.532  10.608
23461W        W88941  18.276   1.364   2.371
23462W        W88942  21.681  11.171   2.188
23463W        W88943  33.415  42.329   4.275
23464W        W88944  12.329  39.339   3.794
23465W        W88945  43.338  20.195   4.181
23466W        W88946   0.775   3.428  11.092
23467W        W88947  30.035  44.453  12.842
23468W        W88948  36.864  31.117  13.013
23469W        W88949  12.142  14.613  10.920
23470W        W88950  22.068  27.054   1.850
23471W        W88951  43.966  30.028  12.918
23472W        W88952   6.330   2.795   2.247
23473W        W88953  13.198  23.984   2.362
23474W        W88954  25.201  14.651   1.253
23475W        W88955  39.837  14.650  11.918
23476W        W88956   2.351  31.128   3.784
23477W        W88957   3.310  25.108   4.172
23478W        W88958  27.611  44.846  11.455
23479W        W88959  19.727  29.502  11.933
23480W        W88960   8.329   3.304  14.453
23481W        W88961  25.702   5.885  12.444
23482W        W88962   1.336  29.037   3.184
23483W        W88963   9.780  34.519   0.427
23484W        W88964  41.420  20.559   0.948
23485W        W88965  35.517  11.127  11.070
23486W        W88966  10.277  25.648  12.971
23487W        W88967  36.867  28.047  10.529
23488W        W88968  29.922  11.827   3.315
23489W        W88969  36.504  16.171   3.281
23490W        W88970  25.673  42.006   3.382
23491W        W88971  41.818  25.589   0.370
23492W        W88972  13.769  22.073  11.923
23493W        W88973   7.762  22.717   2.375
23494W        W88974   0.833  33.480  13.538
23495W        W88975   6.314   8.670  12.508
23496W        W88976  35.965  27.081  14.950
23497W        W88977  15.138  34.994  13.381
23498W        W88978  34.421  14.220  14.434
23499W        W88979  30.500   7.244  14.870
23500W        W88980  33.104  33.448   3.839
23501W        W88981  24.481   9.176   5.261
23502W        W88982  41.877  34.609  11.535
23503W        W88983   9.736  14.718   1.734
23504W        W88984  34.574  18.261   4.638
23505W        W88985   9.192  41.028   2.181
23506W        W88986  13.643  17.089  11.372
23507W        W88987  39.343  21.075   2.292
23508W        W88988  32.416   8.320  10.582
23509W        W88989   3.303   1.237   1.330
23510W        W88990  30.487   5.301  11.001
23511W        W88991  35.533   5.364   1.355
23512W        W88992  43.954  20.183   0.944
23513W        W88993  21.181  10.792  12.488
23514W        W88994  40.031  15.586   1.913
23515W        W88995  37.425  43.343   2.829
23516W        W88996  38.941  18.675  13.457
23517W        W88997   6.375  35.872  13.374
23518W        W88998  19.083  29.046  14.393
23519W        W88999  19.111  37.450   2.215
23520W        W89000   4.843  18.149   1.789
23521W        W89001  23.035  37.887  11.077
23522W        W89002  11.628  22.156  12.859
23523W        W89003  28.517  38.038   4.684
23524W        W89004  26.659  36.511  10.552
23525W        W89005   7.281  27.142  13.882
23526W        W89006  22.554  12.640  11.515
23527W        W89007  39.994  42.791  11.514
23528W        W89008  20.697  13.318   3.697
23529W        W89009   5.428  29.447   0.355
23530W        W89010  29.446  15.306   0.412
23531W        W89011  25.666  44.380   1.335
23532W        W89012   0.863  16.698   3.694
23533W        W89013   0.476   3.848  14.841
23534W        W89014  25.067   4.396  11.458
23535W        W89015  41.026  16.232   9.988
23536W        W89016  24.663  12.183   3.681
23537W        W89017  23.547  31.506  14.950
23538W        W89018   6.785  10.369  12.420
23539W        W89019  24.612  22.743  11.446
23540W        W89020  13.612   2.308  14.445
23541W        W89021   7.677  34.559  12.876
23542W        W89022  13.169  12.762  14.018
23543W        W89023  14.296  16.581   0.746
23544W        W89024  22.053  25.632  13.463
23545W        W89025  31.455   9.275  11.574
23546W        W89026  35.568  28.655  12.866
23547W        W89027  25.516  12.770  11.404
23548W        W89028  13.675  27.984  11.936
23549W        W89029  15.237  26.983  13.490
23550W        W89030  28.029  20.523   1.826
23551W        W89031  13.304  31.404  13.932
23552W        W89032   7.857  32.124  11.490
23553W        W89033  23.587   6.787  11.413
23554W        W89034  29.516  39.954  13.453
23555W        W89035   5.199   4.749   1.710
23556W        W89036   8.181  29.433   2.339
23557W        W89037   6.332  10.177  14.425
23558W        W89038  23.121  24.201  12.899
23559W        W89039  34.610  16.165  10.905
23560W        W89040  40.316  41.000  14.295
23561W        W89041  40.954   0.753   1.346
23562W        W89042  44.366  41.385   2.807
23563W        W89043  14.748   4.289  14.508
23564W        W89044  40.499  35.987  14.771
23565W        W89045  13.225   6.770   4.831
23566W        W89046  27.677  10.726   0.341
23567W        W89047  11.683  35.063  11.857
23568W        W89048   8.686  12.185  14.991
23569W        W89049  36.978  22.556  13.002
23570W        W89050   3.709  34.378   3.858
23571W        W89051  34.371  14.593  10.408
23572W        W89052   8.737  25.694   4.738
23573W        W89053  44.939   9.698   4.214
23574W        W89054  35.875  23.555   3.646
23575W        W89055  40.443  18.055   2.234
23576W        W89056   8.358  14.275   4.275
23577W        W89057  12.201  41.859  10.157
23578W        W89058  30.490  40.516  11.115
23579W        W89059  34.524  18.576   0.928
23580W        W89060  35.892  23.135   3.335
23581W        W89061  25.710   1.848   4.250
23582W        W89062  28.664  13.702   2.307
23583W        W89063   7.679   0.808  14.385
23584W        W89064  13.184  37.431   3.343
23585W        W89065  10.660  36.068  10.928
23586W        W89066  25.516  44.501   1.935
23587W        W89067  10.285  37.523  14.468
23588W        W89068  41.928  37.436   0.952
23589W        W89069   6.345   0.763   3.762
23590W        W89070  12.199  37.404   2.184
23591W        W89071  25.705  37.831   0.911
23592W        W89072  29.965  37.356  12.512
23593W        W89073  13.155  35.063   3.693
23594W        W89074  22.193  26.666  13.487
23595W        W89075   3.842  15.105  10.562
23596W        W89076  38.062  16.146   4.211
23597W        W89077   6.250  20.267   0.746
23598W        W89078  21.544  29.612  11.861
23599W        W89079  18.256  33.610  10.459
23600W        W89080  21.069   2.824   2.807
23601W        W89081  14.166   7.312  12.448
23602W        W89082  11.639  18.724  12.076
23603W        W89083  27.045   0.430  11.883
23604W        W89084  32.577   3.296  11.474
23605W        W89085  15.669  29.669  13.840
23606W        W89086  41.482  39.846   4.722
23607W        W89087  16.201   6.767   1.401
23608W        W89088   5.750  38.347   3.644
23609W        W89089  41.373  24.693  12.036
23610W        W89090  36.929  28.674  11.541
23611W        W89091  19.147  13.198  13.918
23612W        W89092  21.076   5.845  11.402
23613W        W89093  37.408  21.694  11.580
23614W        W89094  35.857  39.488   0.399
23615W        W89095  26.556  29.662  10.643
23616W        W89096  28.549  17.705  12.460
23617W        W89097  37.383  38.027   4.162
23618W        W89098  19.128  29.002   0.402
23619W        W89099   9.682  40.037  14.780
23620W        W89100  15.612   8.746  11.437
23621W        W89101  31.000  18.691   2.359
23622W        W89102  13.809  18.661  14.359
23623W        W89103  17.096  44.405   3.800
23624W        W89104  22.642  30.942  11.126
23625W        W89105   8.755   1.388   2.702
23626W        W89106  33.973  25.147   0.781
23627W        W89107  19.185  36.427  14.486
23628W        W89108  24.553  36.525   2.256
23629W        W89109  32.986  34.112  14.926
23630W        W89110  29.602   6.783   4.332
23631W        W89111  14.119  27.514   1.322
23632W        W89112  30.629  27.163  14.927
23633W        W89113   4.400  16.671  14.358
23634W        W89114  40.388   2.877   0.287
23635W        W89115  22.628  33.468   2.300
23636W        W89116  17.770   3.956  11.128
23637W        W89117  31.086  12.253  14.382
23638W        W89118  28.132  23.221   2.381
23639W        W89119  39.540  29.451   0.888
23640W        W89120  10.145  11.813   4.693
23641W        W89121   9.701  28.122   0.386
23642W        W89122   4.767   5.716  14.030
23643W        W89123   2.907  23.610  12.562
23644W        W89124  31.401  19.125  12.071
23645W        W89125  29.982  31.531   1.810
23646W        W89126  43.821  33.447  12.855
23647W        W89127  31.923  28.659  11.099
23648W        W89128   1.346  12.258   1.382
23649W        W89129  24.701  17.641   4.191
23650W        W89130  33.116  15.788  14.485
23651W        W89131   3.941  25.981  10.987
23652W        W89132  27.082   7.237   4.750
23653W        W89133  41.309   3.373   1.256
23654W        W89134  40.507  14.693  13.970
23655W        W89135  25.095   3.937   4.613
23656W        W89136  26.648  12.789   2.396
23657W        W89137   6.876   3.438  11.447
23658W        W89138   4.212  36.483   1.363
23659W        W89139  14.154  29.442  14.876
23660W        W89140  42.327  34.399  11.483
23661W        W89141   0.310  11.867  13.053
23662W        W89142   0.260  15.084   2.844
23663W        W89143  13.176  34.483  11.582
23664W        W89144   6.271  16.669  10.567
23665W        W89145  44.779  30.944  11.966
23666W        W89146  34.469  22.033   0.919
23667W        W89147   9.237  44.295  13.954
23668W        W89148  40.904  40.987  10.503
23669W        W89149   4.927  10.832  14.956
23670W        W89150  18.191  25.056   0.958
23671W        W89151  39.494  21.215  12.353
23672W        W89152  10.380   9.885  11.127
23673W        W89153  25.187  38.412  14.982
23674W        W89154   3.849  16.764   3.277
23675W        W89155  37.560  35.538  13.439
23676W        W89156   7.313  41.335   1.904
23677W        W89157   5.766  24.131  12.997
23678W        W89158  25.029  27.024  10.643
23679W        W89159  28.576   1.933   4.826
23680W        W89160  35.443  10.868   1.363
23681W        W89161  22.727  40.496   2.875
23682W        W89162  23.085  12.752   3.161
23683W        W89163  41.861  34.414   1.259
23684W        W89164  10.867  36.580  12.543
23685W        W89165  37.899  27.458  11.549
23686W        W89166  20.044  29.648  13.396
23687W        W89167  13.269  22.073   1.235
23688W        W89168  41.491  17.620  13.058
23689W        W89169  30.122  17.235   3.328
23690W        W89170  10.229  19.728  13.046
23691W        W89171  22.606  16.114  10.622
23692W        W89172  43.921  40.414  13.823
23693W        W89173   4.745  17.582  13.405
23694W        W89174  21.190  27.504  11.991
23695W        W89175   9.698   6.216  13.026
23696W        W89176  40.361  30.558   1.229
23697W        W89177  28.451   5.697   2.755
23698W        W89178  33.487  17.608   0.820
23699W        W89179  25.697  13.154  14.963
23700W        W89180  44.402  23.510  13.047
23701W        W89181  18.682   4.450   1.833
23702W        W89182  37.413  32.413  13.374
23703W        W89183  32.901  19.134  10.562
23704W        W89184   8.321  13.732  14.322
23705W        W89185   5.835  38.416  13.008
23706W        W89186  33.970  30.517  11.067
23707W        W89187  40.503  43.309  13.984
23708W        W89188  32.604  28.171  11.911
23709W        W89189   1.442  32.420  13.523
23710W        W89190  35.864  40.415  10.471
23711W        W89191  37.858  20.185   4.154
23712W        W89192  34.512  37.390  11.010
23713W        W89193  38.951  18.106   3.750
23714W        W89194  21.649   5.226   2.667
23715W        W89195  11.669  37.947   0.322
23716W        W89196  19.705  19.705  13.870
23717W        W89197  32.011  25.637   3.853
23718W        W89198  42.975  17.693   1.777
23719W        W89199   1.276  24.064   0.882
23720W        W89200  13.351   0.855  11.933
23721W        W89201  38.401   7.336  14.503
23722W        W89202   3.941  37.454  12.442
23723W        W89203   9.192  25.565  13.535
23724W        W89204   8.795  39.934  14.367
23725W        W89205  20.642  37.394   4.758
23726W        W89206  19.084  17.744  12.556
23727W        W89207  10.652  26.656  13.318
23728W        W89208   9.247  21.198  12.872
23729W        W89209  20.574  16.658  14.810
23730W        W89210  14.253  43.275  14.501
23731W        W89211   6.738  19.169  14.969
23732W        W89212   8.336  26.548   2.730
23733W        W89213  37.504  12.287  13.796
23734W        W89214  10.809  42.815   5.282
23735W        W89215  41.899  35.951   4.681
23736W        W89216  24.572  37.495   1.849
23737W        W89217  34.569   5.264   4.214
23738W        W89218  34.869  22.630  10.571
23739W        W89219  19.714   1.237   2.247
23740W        W89220  44.338  10.187   5.192
23741W        W89221  40.394  28.949  12.855
23742W        W89222   2.386  41.818   3.147
23743W        W89223  10.758  14.301  12.463
23744W        W89224  33.949   2.747  14.414
23745W        W89225  36.387  30.465  11.935
23746W        W89226  36.380  17.740   3.671
23747W        W89227  24.002  16.225   1.758
23748W        W89228  21.120   3.810  11.577
23749W        W89229  32.996  41.014   3.758
23750W        W89230  28.587  29.086   3.192
23751W        W89231  13.187   7.717  13.920
23752W        W89232  43.446  10.750   2.266
23753W        W89233  28.979  38.898   4.282
23754W        W89234  42.927   5.749  10.434
23755W        W89235  44.769  44.762   1.696
23756W        W89236  21.707   6.196   2.220
23757W        W89237   3.444  17.798   0.459
23758W        W89238  24.079  23.084   2.800
23759W        W89239   5.765  26.023   1.848
23760W        W89240  36.007  22.235   2.371
23761W        W89241  26.595   2.924  13.062
23762W        W89242  32.452  44.809   0.304
23763W        W89243  28.006   0.429   2.818
23764W        W89244   4.723   8.342  10.949
23765W        W89245  43.790  18.094   4.743
23766W        W89246  21.716  20.706   4.736
23767W        W89247  33.112  31.899   2.813
23768W        W89248  26.041  25.183  10.500
23769W        W89249  35.599   0.415   3.243
23770W        W89250  22.502   1.766   4.713
23771W        W89251  12.830  38.516  13.043
23772W        W89252  14.813  21.644  13.873
23773W        W89253  28.092  41.886   3.651
23774W        W89254  13.215  15.183   0.899
23775W        W89255  37.035   0.913  14.810
23776W        W89256   3.405  18.267  10.448
23777W        W89257  19.257   2.742   2.187
23778W        W89258  32.592  17.156   2.315
23779W        W89259   9.288  26.030   1.796
23780W        W89260  20.087  25.694  14.793
23781W        W89261  14.110  14.592  12.902
23782W        W89262  24.211  28.178   5.108
23783W        W89263  44.804  39.011   3.334
23784W        W89264  35.001  22.716  11.411
23785W        W89265  35.030  26.616  13.313
23786W        W89266  32.068  41.331   5.277
23787W        W89267  22.548  26.472  13.322
23788W        W89268  28.621  20.181   2.735
23789W        W89269  16.616  43.478   9.604
23790W        W89270  20.091  15.588   0.869
23791W        W89271  32.577  25.483   0.361
23792W        W89272  33.440  20.113  13.025
23793W        W89273  26.586  37.578   0.460
23794W        W89274  42.843  44.385   0.255
23795W        W89275  31.933   3.272   2.186
23796W        W89276   5.763  11.621  14.808
23797W        W89277  19.656  23.139  14.499
23798W        W89278  21.734  41.377  12.482
23799W        W89279   8.669   4.287  12.504
23800W        W89280  26.608   5.903   1.213
23801W        W89281  30.007  34.938   0.884
23802W        W89282  14.828  17.068   4.225
23803W        W89283  17.207  31.929   2.199
23804W        W89284  24.710  25.543  14.408
23805W        W89285  17.199  40.947  14.890
23806W        W89286  27.021  39.895   3.741
23807W        W89287  26.542  23.176   3.694
23808W        W89288  19.114  42.784  11.043
23809W        W89289   5.256  28.523  12.477
23810W        W89290  19.682   7.264  10.567
23811W        W89291  32.471  21.616   3.670
23812W        W89292   7.716   8.216  12.068
23813W        W89293  26.692   6.344  10.595
23814W        W89294  16.156   0.749  14.379
23815W        W89295   5.822  11.162   0.456
23816W        W89296   7.364  27.623  11.524
23817W        W89297  20.541  18.706  10.921
23818W        W89298  38.043  16.240   0.960
23819W        W89299  44.755  43.920   1.377
23820W        W89300  25.555  25.654  14.499
23821W        W89301  20.055  43.427   3.862
23822W        W89302  39.372   1.364  14.846
23823W        W89303   1.845  30.143  11.031
23824W        W89304  17.674   6.755   0.757
23825W        W89305  30.103  37.946   3.678
23826W        W89306  33.466   8.827   5.122
23827W        W89307  13.108  35.892  13.355
23828W        W89308  31.020   8.884  10.408
23829W        W89309  24.478   4.323   0.841
23830W        W89310  22.551  30.092   0.759
23831W        W89311  29.999  42.948   3.762
23832W        W89312   3.373  40.419  14.377
23833W        W89313  38.967  27.139  13.384
23834W        W89314  12.124  36.959   2.899
23835W        W89315   4.386  35.517   0.306
23836W        W89316  44.844  14.793   0.329
23837W        W89317  38.535   3.336   9.981
23838W        W89318  22.249  41.381  13.850
23839W        W89319   1.337  27.523   3.694
23840W        W89320  43.451   7.223  13.491
23841W        W89321  19.206  39.822  14.969
23842W        W89322  41.794  12.693  12.898
23843W        W89323  38.873   3.291   3.638
23844W        W89324  31.004  27.974  14.829
23845W        W89325  16.208   8.765  12.875
23846W        W89326  21.650  41.966   1.790
23847W        W89327  20.044  24.185  13.463
23848W        W89328   2.934   5.396   1.211
23849W        W89329  18.187  19.741   2.347
23850W        W89330   8.890  33.609   1.227
23851W        W89331  41.509  44.400   2.811
23852W        W89332  30.081  29.531  12.457
23853W        W89333  21.034  41.421  14.491
23854W        W89334  26.557  20.735   1.833
23855W        W89335  35.589   1.960  13.969
23856W        W89336   3.293  43.938   0.945
23857W        W89337   3.956  39.496  13.472
23858W        W89338  10.224   2.859  10.899
23859W        W89339   9.269  42.349   1.426
23860W        W89340  27.181  40.842   0.909
23861W        W89341   0.405  10.749   2.222
23862W        W89342  14.110   7.851  14.900
23863W        W89343  14.810  12.185   0.413
23864W        W89344  35.012  42.975  11.073
23865W        W89345  38.857   2.435   1.913
23866W        W89346  31.922  32.487   3.186
23867W        W89347  13.308  25.473  14.347
23868W        W89348  27.994  21.717  13.801
23869W        W89349  27.543  34.085  13.423
23870W        W89350  44.370  11.845   0.779
23871W        W89351  30.999  36.008  14.943
23872W        W89352  23.182  17.708   1.706
23873W        W89353  42.964  29.565  13.844
23874W        W89354   4.218  36.411  14.966
23875W        W89355  44.997  20.046  14.795
23876W        W89356   6.355  37.886  14.423
23877W        W89357  27.075  32.026  10.553
23878W        W89358  30.163  33.893  14.800
23879W        W89359  44.944  35.108  10.643
23880W        W89360  28.151  19.562   5.321
23881W        W89361  28.487  32.408  11.941
23882W        W89362   7.672  32.072   1.832
23883W        W89363  44.933  15.702  11.889
23884W        W89364  29.088  17.794   0.880
23885W        W89365  37.432  20.660  10.561
23886W        W89366  30.938  38.460   3.285
23887W        W89367  27.475   5.833   0.266
23888W        W89368  42.368   8.843  11.881
23889W        W89369   6.840  44.309  14.450
23890W        W89370  43.773   8.374  12.089
23891W        W89371  39.510  20.151   5.195
23892W        W89372  26.598  28.017   1.887
23893W        W89373  10.214  19.148   2.669
23894W        W89374  42.339  32.937  11.999
23895W        W89375  20.101  23.615   0.335
23896W        W89376  37.930  35.935   2.751
23897W        W89377   7.268   6.379  13.005
23898W        W89378   7.696   2.936  10.482
23899W        W89379   6.900  18.727  11.536
23900W        W89380   9.703  15.767  14.475
23901W        W89381  25.617  32.534  14.853
23902W        W89382  14.819  35.087  12.938
23903W        W89383  13.624  14.682  10.948
23904W        W89384  29.017  33.423  14.908
23905W        W89385  44.472  43.994   0.474
23906W        W89386  10.668  17.084   3.782
23907W        W89387   6.410  18.062  12.056
23908W        W89388   8.772  32.129   1.297
23909W        W89389   8.826  16.740   1.858
23910W        W89390   4.702  21.758   1.407
23911W        W89391   8.751   7.234   1.927
23912W        W89392  39.892   3.424  13.465
23913W        W89393   6.792  23.006   1.714
23914W        W89394  29.541  41.408  11.857
23915W        W89395   4.925   6.912   1.301
23916W        W89396  39.895  17.729  11.089
23917W        W89397  11.213  44.772   2.311
23918W        W89398  38.374  11.697   2.220
23919W        W89399   5.915  28.939   1.419
23920W        W89400  18.081  44.415  12.462
23921W        W89401  15.190  19.247  13.942
23922W        W89402   9.716   2.295   2.372
23923W        W89403   3.355  28.592  13.380
23924W        W89404   9.656  42.948   1.741
23925W        W89405  10.645  11.730   1.724
23926W        W89406  33.064  30.558  13.333
23927W        W89407  33.611  12.635   4.803
23928W        W89408  12.829  10.326  10.582
23929W        W89409  28.178  25.638   0.907
23930W        W89410  19.228  16.206   3.343
23931W        W89411  10.139  24.620  11.931
23932W        W89412  41.825  17.260  13.431
23933W        W89413   9.879  22.633  13.314
23934W        W89414   4.876  11.319  12.904
23935W        W89415   4.342  15.795   3.219
23936W        W89416  32.545  39.557   3.864
23937W        W89417  12.151  13.136   3.249
23938W        W89418  27.068  10.801  10.442
23939W        W89419   8.826   0.780   0.381
23940W        W89420  18.753  35.470  12.426
23941W        W89421   9.655  30.629  13.489
23942W        W89422   4.880  25.104   2.810
23943W        W89423  17.284  17.167   3.344
23944W        W89424  40.039  14.231   1.893
23945W        W89425  41.905   0.795  10.020
23946W        W89426  31.405  13.736   0.792
23947W        W89427   9.681  42.825  11.037
23948W        W89428  39.432   2.920  11.123
23949W        W89429  15.288  21.191   9.956
23950W        W89430   3.781  39.526   0.797
23951W        W89431  25.972  30.987  13.334
23952W        W89432  33.599  26.602   5.213
23953W        W89433  23.735  24.695   2.254
23954W        W89434  41.932  23.159  12.029
23955W        W89435   8.221  31.465   3.669
23956W        W89436  35.501  21.536   4.128
23957W        W89437  36.405  30.106  14.907
23958W        W89438   6.918   6.314  12.569
23959W        W89439  38.497   5.250  11.604
23960W        W89440  18.579  26.622  14.776
23961W        W89441  15.193  34.442  12.012
23962W        W89442  38.502  24.689   3.155
23963W        W89443  13.603  10.336  14.863
23964W        W89444  11.669   7.404   4.325
23965W        W89445  18.110   7.889  14.279
23966W        W89446   3.244  36.029  14.361
23967W        W89447  30.417   5.900   3.159
23968W        W89448  31.985   6.786   0.933
23969W        W89449  11.700  13.841   0.414
23970W        W89450  43.356  31.045   3.737
23971W        W89451  21.112  14.750   3.171
23972W        W89452   7.407  39.319   2.188
23973W        W89453   6.752  41.876   3.793
23974W        W89454   6.386  21.168  12.515
23975W        W89455  39.400  39.860  12.011
23976W        W89456  35.929  29.919  14.392
23977W        W89457  15.816   8.741   3.825
23978W        W89458  30.158  17.636  11.063
23979W        W89459  43.288  32.628  11.894
23980W        W89460   1.436   8.673  10.588
23981W        W89461  19.559  24.187  12.990
23982W        W89462  40.044  22.164  14.001
23983W        W89463  25.629  34.454   3.358
23984W        W89464  33.596   4.833   4.275
23985W        W89465  23.583   2.830  11.874
23986W        W89466  29.509  34.407  13.962
23987W        W89467   4.290  15.137   4.705
23988W        W89468  19.211  32.005   2.802
23989W        W89469  25.555  13.813  14.766
23990W        W89470  33.602  18.278  11.529
23991W        W89471  39.420   6.419   0.354
23992W        W89472  38.850  12.646   1.331
23993W        W89473  27.008   2.915  13.064
23994W        W89474  24.648   5.236   4.238
23995W        W89475   3.440   0.357   1.812
23996W        W89476  32.472   9.803   1.826
23997W        W89477  21.091  32.417  14.921
23998W        W89478   0.983  30.932   4.247
23999W        W89479  41.492  36.043   4.670
24000W        W89480   8.803  24.583  13.364
24001W        W89481  29.605  44.966   1.396
24002W        W89482  10.755  22.722  10.895
24003W        W89483  36.901  28.606  12.875
24004W        W89484   5.391  28.157  13.481
24005W        W89485  14.689  11.194   2.883
24006W        W89486   2.842  35.416  14.931
24007W        W89487   7.326  31.096  13.845
24008W        W89488  11.731   9.883   0.428
24009W        W89489  11.202  34.593   1.355
24010W        W89490  42.507  32.517  12.416
24011W        W89491  17.608  19.557   1.713
24012W        W89492   3.953  38.837  11.394
24013W        W89493  39.909   9.165  13.541
24014W        W89494  19.108  21.577  11.408
24015W        W89495  41.030  15.612  10.503
24016W        W89496  23.596  35.460   0.875
24017W        W89497  32.941  41.816  14.481
24018W        W89498  44.876   1.861  13.839
24019W        W89499  20.073  27.187  11.924
24020W        W89500  14.293  20.525   2.413
24021W        W89501  13.646  29.613   0.275
24022W        W89502  20.662  31.593   0.320
24023W        W89503  24.124  34.033   0.895
24024W        W89504  38.932  20.192   0.778
24025W        W89505  44.327  21.076  13.884
24026W        W89506  12.831   8.325  13.522
24027W        W89507  21.096  37.484   1.878
24028W        W89508   6.288  31.914   0.478
24029W        W89509  44.316  35.020   3.777
24030W        W89510  19.096  18.724   0.917
24031W        W89511  14.279  21.224   1.388
24032W        W89512   3.847  29.952  11.934
24033W        W89513  10.726  24.486  14.506
24034W        W89514  27.077   8.729   4.721
24035W        W89515  22.029  33.383  14.417
24036W        W89516  23.494  38.367  13.381
24037W        W89517  17.108  19.270  10.574
24038W        W89518  28.081  41.963  11.480
24039W        W89519  41.943  23.547   4.665
24040W        W89520  20.142   8.194   2.693
24041W        W89521   7.852  24.983  14.388
24042W        W89522  44.441  16.144  12.035
24043W        W89523  20.030  27.664   3.722
24044W        W89524  17.196  17.772   0.839
24045W        W89525  28.022  35.360  10.439
24046W        W89526  13.255  30.962   0.439
24047W        W89527   7.185  36.043  13.322
24048W        W89528  28.085  22.731  11.494
24049W        W89529  39.435  17.740   3.684
24050W        W89530  21.017   1.939   0.275
24051W        W89531  15.598  43.359  12.054
24052W        W89532  43.935  20.060   3.372
24053W        W89533   4.327  27.601  14.949
24054W        W89534   0.311  18.741  14.927
24055W        W89535  26.694   3.437  13.308
24056W        W89536  21.168  32.885   0.829
24057W        W89537  17.792  37.882   1.748
24058W        W89538   9.805  41.367  11.075
24059W        W89539  21.601  12.290   4.353
24060W        W89540  29.631  41.935  10.544
24061W        W89541  37.029  30.974  12.564
24062W        W89542  17.135  29.594   4.124
24063W        W89543   6.238  32.901  12.562
24064W        W89544  34.012  10.363   0.246
24065W        W89545  18.113  35.487  11.991
24066W        W89546  10.266  41.895  13.477
24067W        W89547  30.909  31.026   1.225
24068W        W89548  32.138  23.543   9.992
24069W        W89549   5.725   6.713   1.777
24070W        W89550  30.414   4.227  10.994
24071W        W89551  36.029  14.306  12.847
24072W        W89552   3.261  13.835   4.174
24073W        W89553  26.642  13.110   4.610
24074W        W89554  16.741  33.090   1.279
24075W        W89555  40.901  27.108  10.560
24076W        W89556  44.009  31.606  12.001
24077W        W89557  25.489  23.560  10.473
24078W        W89558  23.661  23.589  12.012
24079W        W89559  38.333  39.845  13.063
24080W        W89560  16.800  18.636   0.342
24081W        W89561  43.347  19.044   0.296
24082W        W89562  41.834  37.352  10.624
24083W        W89563  26.504  14.811   0.479
24084W        W89564  24.013  30.911   3.153
24085W        W89565  42.845   7.183  13.032
24086W        W89566  18.751   5.201  11.417
24087W        W89567  32.508  13.818   4.209
24088W        W89568   2.947  24.011  12.379
24089W        W89569  25.048   0.803   2.756
24090W        W89570  38.990  42.347   1.888
24091W        W89571  12.638  10.774  11.441
24092W        W89572  29.922  35.883   2.283
24093W        W89573  12.709   9.667  12.446
24094W        W89574  35.976  17.150   4.627
24095W        W89575  18.252  35.498   5.112
24096W        W89576  32.953  28.533  12.467
24097W        W89577  34.427   5.325  13.995
24098W        W89578   1.827  10.856   3.737
24099W        W89579  34.065  37.351   4.826
24100W        W89580  35.533   8.816   3.233
24101W        W89581  35.017  19.206   3.287
24102W        W89582  40.833   6.221   4.236
24103W        W89583   1.866  15.676   3.861
24104W        W89584  36.963   9.840  11.919
24105W        W89585  22.694  42.295   3.702
24106W        W89586  33.562  21.176  13.433
24107W        W89587  21.206   8.806   1.371
24108W        W89588   1.385  16.607  11.028
24109W        W89589  30.466  43.515   0.344
24110W        W89590  29.923  21.079   0.855
24111W        W89591   4.339   2.727  10.585
24112W        W89592  43.976  37.481  13.511
24113W        W89593  28.036   6.187  13.337
24114W        W89594   3.275   4.838  14.372
24115W        W89595   4.248  15.224   0.726
24116W        W89596  18.565  40.877  12.873
24117W        W89597   8.880  37.463   2.744
24118W        W89598  17.571  11.798   3.740
24119W        W89599  17.603  33.974   3.239
24120W        W89600   1.411  38.479   2.751
24121W        W89601  19.041  35.467  14.790
24122W        W89602  23.548  35.037  11.987
24123W        W89603   3.828   9.653   4.243
24124W        W89604   8.882  16.593  10.996
24125W        W89605  36.941  16.099   3.245
24126W        W89606  26.513  15.783   2.792
24127W        W89607  15.235   7.278   3.799
24128W        W89608  18.102  30.122  10.625
24129W        W89609  12.322  12.294  12.895
24130W        W89610   9.794   6.209   0.282
24131W        W89611  23.700   2.945   5.294
24132W        W89612  38.367   1.247  14.308
24133W        W89613  12.832  42.320   3.248
24134W        W89614  15.137  40.513   1.240
24135W        W89615  29.078  25.571  11.857
24136W        W89616  11.154   5.264   4.304
24137W        W89617  39.464  40.429   3.866
24138W        W89618  24.002  23.682   9.986
24139W        W89619  26.019   9.346  11.857
24140W        W89620  31.644  21.749   1.855
24141W        W89621   0.338  24.517   3.383
24142W        W89622  24.712   5.352  10.467
24143W        W89623  34.412  27.642   0.812
24144W        W89624   5.213   2.836   4.633
24145W        W89625  22.081   1.972   4.139
24146W        W89626  15.085   7.415   2.848
24147W        W89627  30.054   9.346  13.486
24148W        W89628  25.533  42.340  11.109
24149W        W89629  16.198  42.434   1.359
24150W        W89630  10.270  30.648  10.904
24151W        W89631   0.832  26.479  13.801
24152W        W89632  19.731  32.525  11.922
24153W        W89633   6.869  29.070   0.397
24154W        W89634  26.578  35.478   2.830
24155W        W89635  37.581  32.898  10.945
24156W        W89636  28.940  30.949   4.709
24157W        W89637  33.982  24.070   1.390
24158W        W89638  15.325  26.061  13.336
24159W        W89639  11.243  16.293   3.664
24160W        W89640  22.111  35.083  11.035
24161W        W89641  38.824  36.553  12.085
24162W        W89642  23.490  34.917   4.726
24163W        W89643  18.233  28.667   4.220
24164W        W89644  30.642  24.658   1.323
24165W        W89645  27.171  15.603   0.322
24166W        W89646  43.430  36.988  14.513
24167W        W89647  41.331   4.281  11.040
24168W        W89648  15.652   5.758  14.847
24169W        W89649  19.635  30.143   1.353
24170W        W89650  34.917  37.972  11.071
24171W        W89651  15.218  25.067   1.926
24172W        W89652  44.856   5.302  14.776
24173W        W89653  34.544  24.055  10.474
24174W        W89654  10.866  36.368  14.822
24175W        W89655  38.486  26.623   1.793
24176W        W89656  16.744  24.551  10.592
24177W        W89657  16.262  29.122   4.272
24178W        W89658   3.755  24.083  13.862
24179W        W89659  15.328   7.775   2.309
24180W        W89660   3.414  25.164  14.369
24181W        W89661  42.435   3.218  11.477
24182W        W89662  21.031  38.482  11.421
24183W        W89663  44.959  18.670   2.408
24184W        W89664  24.023  21.203  11.586
24185W        W89665  20.628  41.837   2.307
24186W        W89666  39.052  22.197   4.806
24187W        W89667  37.067  22.116   0.957
24188W        W89668  37.907  11.820  12.043
24189W        W89669  41.334  43.271  14.363
24190W        W89670  26.523  43.940  12.432
24191W        W89671  40.375  27.089   2.829
24192W        W89672   1.820  40.461  11.922
24193W        W89673  21.118  35.073  10.911
24194W        W89674  22.560  32.507   4.601
24195W        W89675  28.038  41.531   3.795
24196W        W89676   7.787  29.941  13.886
24197W        W89677  44.349  28.536  10.422
24198W        W89678  27.532  16.288   1.745
24199W        W89679  30.134   3.291  13.795
24200W        W89680   0.884  34.425  12.861
24201W        W89681   7.338  17.290  11.460
24202W        W89682  15.150  27.133   0.479
24203W        W89683  14.177  40.050  14.281
24204W        W89684  28.632   5.774   1.338
24205W        W89685  18.632   9.698   2.896
24206W        W89686  38.979  10.783  14.304
24207W        W89687  22.642  31.079   4.670
24208W        W89688  26.471  31.108   3.236
24209W        W89689   9.699  35.369  13.478
24210W        W89690  38.451   0.850   1.824
24211W        W89691  10.261  35.402   4.686
24212W        W89692  15.811  18.695  11.105
24213W        W89693  27.062  20.704  12.350
24214W        W89694  14.162  40.479   3.336
24215W        W89695  14.717  37.865   3.182
24216W        W89696  39.850  24.659  11.089
24217W        W89697  26.555  35.524  13.898
24218W        W89698  30.102  10.693  14.290
24219W        W89699  37.023  43.825   2.834
24220W        W89700  25.512  17.567  11.993
24221W        W89701  16.768  34.522  13.369
24222W        W89702  37.557  39.517  10.934
24223W        W89703   2.858   0.760   3.188
24224W        W89704  18.597  27.463   0.474
24225W        W89705   5.431  41.401  12.041
24226W        W89706  40.315  34.502  14.296
24227W        W89707  28.559   8.279   1.724
24228W        W89708   0.751  21.260   2.714
24229W        W89709  41.983  21.114  11.099
24230W        W89710  35.870  29.984   0.308
24231W        W89711  28.630  41.332  13.935
24232W        W89712  27.614  39.877   0.377
24233W        W89713  43.450  37.456   2.841
24234W        W89714   4.821  44.498  10.408
24235W        W89715  43.917  24.526  14.280
24236W        W89716  23.620  34.530  13.965
24237W        W89717   1.878   8.681   0.938
24238W        W89718  16.633   5.374   0.929
24239W        W89719  44.950  15.813   4.283
24240W        W89720  44.369  16.142  10.447
24241W        W89721  10.806  11.865  12.960
24242W        W89722  41.311  19.692   1.857
24243W        W89723  36.981  12.242  14.449
24244W        W89724  25.651   4.712   0.872
24245W        W89725  32.101  15.824  11.603
24246W        W89726  30.088  14.686   0.809
24247W        W89727  31.937  11.265   3.203
24248W        W89728  37.048   4.904  11.011
24249W        W89729  27.538  23.197  11.501
24250W        W89730  31.961  37.079  13.001
24251W        W89731  31.085  21.041   9.950
24252W        W89732  42.957  31.961  13.064
24253W        W89733  19.564  31.567   4.197
24254W        W89734  41.325  36.093   3.634
24255W        W89735   4.369  40.959   3.364
24256W        W89736  26.642  24.547   3.747
24257W        W89737  16.302   9.864  11.539
24258W        W89738  37.425  31.986  13.024
24259W        W89739  22.666  33.020  14.780
24260W        W89740  19.171  20.540   0.359
24261W        W89741   5.236   1.250   3.654
24262W        W89742  41.843  22.505  11.423
24263W        W89743   7.842  43.820   1.699
24264W        W89744  38.884   1.770  11.971
24265W        W89745  35.393  35.080  10.462
24266W        W89746  29.468  23.013   4.172
24267W        W89747  18.602   6.886   3.638
24268W        W89748  11.212  20.632   0.387
24269W        W89749  38.039  44.450   3.757
24270W        W89750   9.829  15.698  12.514
24271W        W89751  23.220  35.531   2.843
24272W        W89752   5.825  19.220   2.784
24273W        W89753   4.338   7.860  13.444
24274W        W89754  16.706  18.079   0.728
24275W        W89755  19.122  43.950   0.882
24276W        W89756   0.875   2.461  10.907
24277W        W89757  25.543   5.270  12.888
24278W        W89758   3.224  42.382  10.971
24279W        W89759  27.944   9.256  13.310
24280W        W89760  36.378  42.446  11.565
24281W        W89761   2.288   4.335   0.793
24282W        W89762  25.496  32.133  13.392
24283W        W89763   0.953  31.501   1.427
24284W        W89764  35.483  33.969  11.051
24285W        W89765  29.589   6.699   3.719
24286W        W89766  10.228  25.989  10.967
24287W        W89767  39.980  37.925  12.997
24288W        W89768  22.210  22.721  12.896
24289W        W89769  26.681  30.065  14.354
24290W        W89770  35.357  11.727   0.860
24291W        W89771  13.761  37.570  12.510
24292W        W89772  19.116  19.625   3.842
24293W        W89773  13.218  21.575   1.915
24294W        W89774  13.125  28.445   1.774
24295W        W89775  17.738   6.801   4.741
24296W        W89776  31.412  33.974  11.573
24297W        W89777  43.377  22.639   4.832
24298W        W89778  15.795   1.321   1.703
24299W        W89779  21.116  11.633  13.469
24300W        W89780  10.179   5.759  12.951
24301W        W89781  11.747  19.580   2.884
24302W        W89782   5.799  10.879   1.266
24303W        W89783  23.719   6.914   2.373
24304W        W89784  10.370  36.509   0.960
24305W        W89785  16.640   9.229  12.919
24306W        W89786  28.007  37.855   4.709
24307W        W89787   4.326  28.643  10.594
24308W        W89788  23.561  25.517   4.221
24309W        W89789  33.967  14.600  11.001
24310W        W89790   9.344  35.512   4.168
24311W        W89791  30.146   5.430   3.210
24312W        W89792  22.079  11.697   5.102
24313W        W89793  41.301  22.687  14.018
24314W        W89794  21.160  31.570  14.975
24315W        W89795  15.316   3.834   1.294
24316W        W89796  30.155  28.676   2.901
24317W        W89797  41.889  26.517  13.338
24318W        W89798  35.917  27.658   0.410
24319W        W89799  11.278  32.601  12.418
24320W        W89800  44.810  26.025  11.527
24321W        W89801  29.071  24.716  12.934
24322W        W89802  38.043  35.009  11.496
24323W        W89803  37.574  32.062   0.323
24324W        W89804   8.663  28.535   4.804
24325W        W89805   2.785  11.691   3.164
24326W        W89806  26.123  16.224   3.746
24327W        W89807  10.172  37.924  12.897
24328W        W89808  41.422  17.297   5.320
24329W        W89809  26.180  42.990   3.317
24330W        W89810   1.905  11.786   1.363
24331W        W89811  31.573  37.520  13.506
24332W        W89812  44.306  10.190  10.460
24333W        W89813  16.626  28.649   0.914
24334W        W89814  30.128  36.989  11.570
24335W        W89815  13.111   4.205  11.994
24336W        W89816  19.209   1.856   3.346
24337W        W89817  38.824  11.357  14.471
24338W        W89818  18.547   4.869   1.325
24339W        W89819  29.557  34.405   3.702
24340W        W89820  27.540  10.664  12.966
24341W        W89821  42.490  27.022  10.447
24342W        W89822  31.918  10.205   4.672
24343W        W89823  26.549  10.331   1.449
24344W        W89824  43.796  44.915  12.344
24345W        W89825   9.844   3.443   2.285
24346W        W89826  33.509   1.845   0.960
24347W        W89827   5.747   4.764   0.919
24348W        W89828  44.940  24.664  11.452
24349W        W89829  18.267  11.855  12.868
24350W        W89830   9.645   4.334   4.145
24351W        W89831  16.597   0.755   1.838
24352W        W89832  38.066  40.934  14.446
24353W        W89833  32.514  29.119   3.327
24354W        W89834  18.720   5.229   3.213
24355W        W89835  25.554  44.301   3.252
24356W        W89836  21.235  44.502   0.424
24357W        W89837   6.759  44.328   4.635
24358W        W89838  23.717   2.438   3.295
24359W        W89839  44.340  40.499  12.828
24360W        W89840  13.842  34.006  10.438
24361W        W89841  30.951  13.225  14.851
24362W        W89842  34.570  12.816   0.429
24363W        W89843   2.264  28.535   4.798
24364W        W89844  41.867  43.401   3.271
24365W        W89845   0.865   4.852   5.180
24366W        W89846  36.480  10.861   0.260
24367W        W89847   4.431  37.017   0.481
24368W        W89848  28.057  31.975   1.303
24369W        W89849   6.254   6.287  12.506
24370W        W89850   7.892  31.071  13.435
24371W        W89851  42.392  15.718   2.277
24372W        W89852  34.037  23.493  12.991
24373W        W89853  19.679  31.578   4.709
24374W        W89854  30.963   0.780  13.999
24375W        W89855  18.237  42.494  14.391
24376W        W89856   3.748  24.173  12.448
24377W        W89857   5.741  13.159   2.719
24378W        W89858  14.290   7.415  10.435
24379W        W89859   8.865  14.114   3.767
24380W        W89860  24.484  29.950   2.289
24381W        W89861  37.373   0.979   4.137
24382W        W89862  21.527  12.232  14.427
24383W        W89863  24.686  18.244  13.858
24384W        W89864   6.730  39.928   3.660
24385W        W89865  25.706   7.410  14.891
24386W        W89866  11.778  44.983   4.205
24387W        W89867  19.631  25.220  13.933
24388W        W89868   1.253   8.181  12.068
24389W        W89869  27.454  15.650   4.610
24390W        W89870   8.742  11.170   1.735
24391W        W89871  43.288   6.345  10.553
24392W        W89872  27.486  32.485  12.921
24393W        W89873  31.600  25.582  13.339
24394W        W89874  37.025  17.061  10.580
24395W        W89875  35.529  24.611  11.085
24396W        W89876  26.498   3.383   1.882
24397W        W89877  43.922   9.835  12.348
24398W        W89878  21.057  24.094   3.697
24399W        W89879  10.378  24.092   4.128
24400W        W89880   5.852   6.407  10.623
24401W        W89881  32.012  40.424  12.998
24402W        W89882  42.438  21.023   2.394
24403W        W89883   7.313   1.964   2.677
24404W        W89884   8.252  29.126  14.780
24405W        W89885  11.309  20.167   1.245
24406W        W89886  15.793   1.781  11.509
24407W        W89887  18.238   0.941  10.559
24408W        W89888  41.929  19.629  11.996
24409W        W89889  19.263  14.720  11.967
24410W        W89890  32.975  14.622   2.704
24411W        W89891  32.398  13.663  10.488
24412W        W89892  17.295   0.338  11.956
24413W        W89893  14.174  20.128  12.079
24414W        W89894  21.732  42.860  11.582
24415W        W89895  36.433  12.129  14.983
24416W        W89896   1.967  26.583   4.805
24417W        W89897   8.740  16.193  12.396
24418W        W89898  18.259   5.207  12.354
24419W        W89899  32.554   2.959  12.345
24420W        W89900  44.366  30.573   4.755
24421W        W89901  12.637   1.261  14.892
24422W        W89902   4.269   2.742   2.282
24423W        W89903  32.468  27.573   1.723
24424W        W89904  10.810  37.858   1.726
24425W        W89905  11.708  37.406   4.340
24426W        W89906  14.728  25.596  11.462
24427W        W89907  31.041  37.442  11.387
24428W        W89908  14.734  22.176   2.718
24429W        W89909  15.803  20.032   2.885
24430W        W89910   4.846  38.029   4.747
24431W        W89911  17.744  15.803   4.803
24432W        W89912  18.147  19.266  11.952
24433W        W89913  12.704  20.672   4.783
24434W        W89914  39.393  13.655  12.986
24435W        W89915  10.640  33.388  14.001
24436W        W89916  34.396  20.129   4.207
24437W        W89917  16.179  14.115  12.392
24438W        W89918  21.723   3.285  11.944
24439W        W89919  37.883  29.174  13.938
24440W        W89920  30.445  28.971   1.378
24441W        W89921  26.012   0.438  12.436
24442W        W89922   0.966  42.013  10.948
24443W        W89923   6.420  36.953  14.853
24444W        W89924  25.040  28.038   3.382
24445W        W89925   8.668  26.953  13.871
24446W        W89926  33.426   8.762  11.878
24447W        W89927  10.656  10.655  14.866
24448W        W89928  29.004  19.248   1.451
24449W        W89929  34.439  44.327  12.831
24450W        W89930  37.540  25.079  12.006
24451W        W89931  13.766  29.957   4.677
24452W        W89932  14.666  37.501  10.480
24453W        W89933  37.340  42.851   3.735
24454W        W89934  32.536  17.764   4.216
24455W        W89935   3.423  20.609   1.384
24456W        W89936  11.303  29.989   4.183
24457W        W89937   9.724  11.242   4.670
24458W        W89938  29.962  39.439   2.210
24459W        W89939  17.090  30.440  10.069
24460W        W89940  32.115  36.007   1.744
24461W        W89941  12.761  20.200  14.479
24462W        W89942  38.523  27.118  12.049
24463W        W89943  42.525  32.053  11.063
24464W        W89944   8.882  38.360  11.517
24465W        W89945  23.015   1.449  11.978
24466W        W89946  20.578   1.286  10.557
24467W        W89947  31.056  34.939  13.004
24468W        W89948  14.746  11.306  14.389
24469W        W89949  41.823  33.996  14.311
24470W        W89950  38.072  29.086   0.944
24471W        W89951  14.149  33.468   4.204
24472W        W89952  43.422   8.293  12.457
24473W        W89953  17.657   9.759  14.287
24474W        W89954  32.549  14.705   3.871
24475W        W89955  29.493  16.606   3.337
24476W        W89956  24.089  27.022  14.898
24477W        W89957   5.437  20.657  11.424
24478W        W89958  21.145  24.000   4.118
24479W        W89959  20.743  11.134   0.752
24480W        W89960  34.908  31.114  10.450
24481W        W89961  14.224   2.387   2.733
24482W        W89962  36.856   8.876   2.240
24483W        W89963  21.077  13.164   3.846
24484W        W89964  40.346   0.295   1.419
24485W        W89965  20.584  15.668   0.249
24486W        W89966  12.152   1.818  14.957
24487W        W89967  41.335   1.370  12.076
24488W        W89968  43.391  37.076   4.280
24489W        W89969  26.465  40.443   1.411
24490W        W89970  40.823   7.776   4.328
24491W        W89971   0.409   9.389  14.427
24492W        W89972  20.665   3.413  11.544
24493W        W89973  20.124  20.743   1.392
24494W        W89974  41.918  40.880  11.383
24495W        W89975  21.586   8.348  11.952
24496W        W89976  25.071  43.429  14.791
24497W        W89977   7.208  18.285  13.954
24498W        W89978   5.211  43.336  11.898
24499W        W89979  17.576  44.993   4.706
24500W        W89980   8.277  22.071  11.481
24501W        W89981  38.327  14.332  12.081
24502W        W89982   1.459  20.187  11.567
24503W        W89983   0.802   5.709   0.310
24504W        W89984  11.325   3.894  12.478
24505W        W89985  11.353  22.607  13.920
24506W        W89986   8.323  40.393  13.063
24507W        W89987  19.264  29.501   3.279
24508W        W89988   9.318  12.754   0.751
24509W        W89989  40.034   1.957  11.376
24510W        W89990  29.515   4.763  11.404
24511W        W89991  17.239  43.804  12.551
24512W        W89992  28.567  12.636   2.234
24513W        W89993  24.662   2.359  12.944
24514W        W89994  30.012  12.203   1.278
24515W        W89995  27.677  23.189   2.836
24516W        W89996   9.852   0.967   1.805
24517W        W89997  11.178   4.747   3.757
24518W        W89998  13.623  21.167   0.464
24519W        W89999  23.641  14.324   2.753
24520W        W90000  42.332  23.067   2.274
24521W        W90001   2.374  17.272   0.790
24522W        W90002  15.239  43.021   2.202
24523W        W90003   2.794  13.781  12.046
24524W        W90004  29.106   8.738   2.866
24525W        W90005  16.751   9.774   1.837
24526W        W90006  38.893   7.737   1.906
24527W        W90007  21.067  27.666   5.086
24528W        W90008  24.157  27.982  13.542
24529W        W90009  22.011  18.615   4.224
24530W        W90010  35.575  22.661   0.871
24531W        W90011  32.540  15.165   3.813
24532W        W90012  28.471  25.066  13.800
24533W        W90013  41.011  34.949  14.310
24534W        W90014  12.679  28.060  10.929
24535W        W90015   6.199  31.447  14.935
24536W        W90016  15.608   8.364  14.947
24537W        W90017  29.599   6.865   0.834
24538W        W90018  43.368  40.457   1.325
24539W        W90019   9.887   0.433   2.290
24540W        W90020  35.987  18.195  10.450
24541W        W90021  11.202   7.759  13.481
24542W        W90022   5.216  36.367  14.442
24543W        W90023  28.490  18.634   3.180
24544W        W90024   4.430  17.771   4.603
24545W        W90025   1.332  39.057   0.435
24546W        W90026   1.793  28.134  10.631
24547W        W90027  37.086  12.305  11.431
24548W        W90028  26.620  28.652  14.923
24549W        W90029  42.383   6.709  10.564
24550W        W90030   9.828  40.318   4.654
24551W        W90031   2.309  14.301  12.350
24552W        W90032  24.687  17.223   1.709
24553W        W90033   9.226   9.660   0.338
24554W        W90034   2.451  43.968  13.438
24555W        W90035  40.892  35.439  14.824
24556W        W90036  10.819  39.921  13.857
24557W        W90037   9.651  18.109   0.769
24558W        W90038  35.531  13.153  10.497
24559W        W90039   6.278   2.857   4.301
24560W        W90040  15.810  13.801   3.204
24561W        W90041  33.408  13.195  14.312
24562W        W90042  17.733  31.019   1.705
24563W        W90043  31.544  42.489  14.462
24564W        W90044  14.312  42.397   2.335
24565W        W90045  15.121  35.955   0.355
24566W        W90046  10.667   0.858  14.880
24567W        W90047  19.598  18.137   3.648
24568W        W90048  13.721  26.166   2.239
24569W        W90049  27.452   8.669   4.622
24570W        W90050  30.975  18.267   1.729
24571W        W90051  38.052  34.932  13.318
24572W        W90052  10.232   5.817   1.332
24573W        W90053  14.594  26.055  14.421
24574W        W90054  26.002   7.764  10.631
24575W        W90055  23.686  12.831  14.846
24576W        W90056  14.611  34.099  12.577
24577W        W90057  28.605  32.484   4.810
24578W        W90058   5.210  11.258   0.463
24579W        W90059  37.976  31.118   1.398
24580W        W90060  31.411  18.704   2.186
24581W        W90061  37.067   1.363  12.936
24582W        W90062  39.004   3.424  10.567
24583W        W90063  37.070   3.774   4.189
24584W        W90064   2.445  23.647  14.449
24585W        W90065  44.310  21.212   2.263
24586W        W90066  42.976  40.323   3.642
24587W        W90067  39.882  41.998  13.956
24588W        W90068   5.248  17.267   1.891
24589W        W90069  17.781   5.708   2.860
24590W        W90070  21.064  37.877  10.893
24591W        W90071  33.514  43.516  11.909
24592W        W90072   6.393   2.917  13.460
24593W        W90073   1.857  42.390  13.971
24594W        W90074  12.735  28.128   0.822
24595W        W90075  33.509   6.683   9.949
24596W        W90076  42.427  13.193   3.161
24597W        W90077  42.484  29.630  14.918
24598W        W90078  19.729   2.279   5.222
24599W        W90079  11.697  14.671  13.830
24600W        W90080  29.576   1.397  13.924
24601W        W90081  38.848  20.174   2.759
24602W        W90082  30.092  26.968  10.632
24603W        W90083   1.396  10.640   1.393
24604W        W90084  34.554  32.535  10.597
24605W        W90085  25.687  20.740  13.317
24606W        W90086  42.985   2.860   4.329
24607W        W90087  23.148   2.325   1.416
24608W        W90088  44.459   1.761  12.556
24609W        W90089  10.312   1.436  12.963
24610W        W90090  11.361  15.801   2.890
24611W        W90091  24.127  28.592  11.903
24612W        W90092   3.921  30.475   4.206
24613W        W90093  23.146  32.509   1.875
24614W        W90094  10.761  21.206   2.837
24615W        W90095  31.906   8.809  14.019
24616W        W90096  30.153  41.876  13.463
24617W        W90097  27.018   7.884  11.591
24618W        W90098   2.427  23.004  14.886
24619W        W90099   5.312  30.937  13.340
24620W        W90100  39.357  43.800   3.386
24621W        W90101  25.667  15.760  11.442
24622W        W90102  10.715  34.371   2.301
24623W        W90103  18.097  40.353   3.726
24624W        W90104  21.231  23.094  13.858
24625W        W90105  26.693  15.605   4.294
24626W        W90106  17.732  34.598  13.354
24627W        W90107  24.174  33.576   0.386
24628W        W90108  16.188   6.393   2.332
24629W        W90109   9.372  20.695   1.790
24630W        W90110  39.024  33.010  12.885
24631W        W90111   6.682  26.065  12.377
24632W        W90112  42.526  28.993  11.019
24633W        W90113  27.600  34.097  12.402
24634W        W90114  38.417  19.710   0.288
24635W        W90115  26.553  39.415  12.872
24636W        W90116  20.634   3.359   1.718
24637W        W90117  32.064  28.526  13.928
24638W        W90118  39.898  36.998  14.802
24639W        W90119  44.278  30.427  13.887
24640W        W90120   1.338  42.352   2.379
24641W        W90121  30.024   3.445  12.859
24642W        W90122  33.473  23.582   0.476
24643W        W90123  44.313  23.542  10.494
24644W        W90124  31.915  14.689  11.447
24645W        W90125  28.935  22.030  11.469
24646W        W90126  10.738  30.948   1.371
24647W        W90127  40.339  36.376   4.246
24648W        W90128  12.789  34.454   2.775
24649W        W90129  23.015  23.201   4.287
24650W        W90130  21.161  20.751   3.817
24651W        W90131  26.142   5.716  12.489
24652W        W90132  40.442   0.883   0.730
24653W        W90133  20.232   0.424  10.484
24654W        W90134   0.855  36.590  14.322
24655W        W90135   6.359  24.479   3.178
24656W        W90136  17.260   1.953  13.440
24657W        W90137  30.990  14.336  11.070
24658W        W90138  23.046  41.883   4.169
24659W        W90139  14.201  32.043  14.430
24660W        W90140   6.403  43.475   4.800
24661W        W90141  11.191  18.054   3.743
24662W        W90142  29.609  26.470   4.717
24663W        W90143  29.561  10.792  12.974
24664W        W90144  37.929  39.460  13.960
24665W        W90145  43.826  17.282   2.811
24666W        W90146  28.149  12.266  10.587
24667W        W90147  17.560  16.187   3.358
24668W        W90148  15.587   7.753  11.877
24669W        W90149  30.472  38.890  13.884
24670W        W90150  43.465  31.131   0.269
24671W        W90151  35.507  42.881  13.982
24672W        W90152  43.773   4.439  12.088
24673W        W90153  35.512   7.233  11.567
24674W        W90154  16.242  18.652  11.114
24675W        W90155  23.118  41.472  13.441
24676W        W90156  17.306  12.802  13.337
24677W        W90157  10.698  13.724   4.289
24678W        W90158  11.816  40.029  10.548
24679W        W90159  25.612  30.590  14.937
24680W        W90160   0.442  33.955   0.455
24681W        W90161   7.343  31.553  12.545
24682W        W90162  40.029  21.080  10.487
24683W        W90163  14.644  40.939  14.820
24684W        W90164   8.894  23.563   1.214
24685W        W90165  39.952   9.328   0.733
24686W        W90166  25.666  32.028   4.657
24687W        W90167   5.389  11.636  12.016
24688W        W90168  10.345  16.606  12.446
24689W        W90169  22.715  44.848  10.916
24690W        W90170  32.955  29.090   0.811
24691W        W90171  44.819  35.080   3.825
24692W        W90172  20.710  33.892  13.923
24693W        W90173  41.884  35.438   2.403
24694W        W90174  32.583  19.111  11.009
24695W        W90175  18.211  44.855  11.966
24696W        W90176  13.639  43.452   2.801
24697W        W90177   3.946   1.831  12.066
24698W        W90178  35.553  40.040   4.325
24699W        W90179   6.252  42.847   1.298
24700W        W90180  21.040  15.717   0.768
24701W        W90181  12.320  27.021  10.601
24702W        W90182  13.151  37.013  12.845
24703W        W90183  36.924  42.285  12.979
24704W        W90184  40.014  26.637   4.712
24705W        W90185  19.091  24.609  13.385
24706W        W90186   5.876  42.903  12.015
24707W        W90187   6.299  29.994   2.419
24708W        W90188   1.263  39.459  10.420
24709W        W90189  23.510  12.648  13.928
24710W        W90190  35.580   1.341  12.926
24711W        W90191  41.332   7.317   3.221
24712W        W90192  19.179  16.754   3.826
24713W        W90193  42.936  12.844  14.402
24714W        W90194  29.625  22.594   0.733
24715W        W90195  30.483  13.156  10.640
24716W        W90196  16.187  19.649  11.974
24717W        W90197  10.340   4.207   4.681
24718W        W90198   3.323  19.712   2.181
24719W        W90199  37.865  13.697  11.436
24720W        W90200  37.435  12.781  11.599
24721W        W90201  24.680   9.886   2.219
24722W        W90202   1.417  25.027   3.259
24723W        W90203  26.602  42.022   1.815
24724W        W90204  23.041   1.887   2.244
24725W        W90205   4.395  42.509  13.506
24726W        W90206  31.409  30.488  11.505
24727W        W90207  17.295  32.014   0.769
24728W        W90208  39.549  39.878  11.450
24729W        W90209  15.301   5.877  13.991
24730W        W90210  21.092  25.992   2.812
24731W        W90211  33.030   0.805  13.866
24732W        W90212  33.428  25.983   3.729
24733W        W90213  10.312  20.686  11.887
24734W        W90214  41.976  40.398  12.383
24735W        W90215  15.630   3.932  12.454
24736W        W90216  34.545   1.800  11.089
24737W        W90217   9.180   1.280   4.608
24738W        W90218  25.055  31.462   3.633
24739W        W90219  29.168  16.284   3.818
24740W        W90220   4.840  43.413  13.499
24741W        W90221   6.907  14.788  14.322
24742W        W90222  34.615  40.383  13.886
24743W        W90223  26.146  37.369  11.012
24744W        W90224  36.989  40.825   4.185
24745W        W90225  31.556  21.084   4.612
24746W        W90226  36.919  26.511   4.657
24747W        W90227  31.533   9.851   2.392
24748W        W90228  17.791  37.530  14.004
24749W        W90229  41.902  43.965   4.638
24750W        W90230  12.176  15.129   4.636
24751W        W90231  42.433  43.816   2.728
24752W        W90232  32.103  18.579   2.385
24753W        W90233  17.295   2.432   0.932
24754W        W90234  20.056  21.093   1.830
24755W        W90235   7.748  14.125   0.911
24756W        W90236  14.663  14.621   2.233
24757W        W90237   6.403  21.076   0.453
24758W        W90238  25.570  11.186   1.797
24759W        W90239  29.093  41.795  10.430
24760W        W90240  31.110  12.266   1.695
24761W        W90241   1.795   7.838  11.918
24762W        W90242  12.804   5.851   2.246
24763W        W90243  36.538  20.227   0.352
24764W        W90244  15.598  27.194  11.903
24765W        W90245  24.512  14.659  12.844
24766W        W90246   2.885  43.365   3.360
24767W        W90247  23.732  35.852  10.946
24768W        W90248  30.934   0.886   1.290
24769W        W90249  34.873  13.294   4.252
24770W        W90250  19.080  34.581  13.504
24771W        W90251  12.148   0.403   0.397
24772W        W90252  16.075  41.853   1.798
24773W        W90253   6.677  11.289  11.517
24774W        W90254  14.606   7.807  14.919
24775W        W90255  10.196   2.869   4.253
24776W        W90256  38.328  35.602  11.088
24777W        W90257  34.051  25.597  12.910
24778W        W90258  30.458   1.958   3.679
24779W        W90259   1.885  10.757   0.478
24780W        W90260  18.661  16.085   4.632
24781W        W90261  21.650  39.444   2.303
24782W        W90262  41.794  41.957  14.341
24783W        W90263  33.130  24.658  14.506
24784W        W90264  30.055  36.470   4.239
24785W        W90265  34.614  31.499   3.215
24786W        W90266  19.247  24.013   2.338
24787W        W90267   1.806  18.604  12.073
24788W        W90268  23.079   4.278   3.199
24789W        W90269  44.831  22.037   4.718
24790W        W90270  29.961  25.666   2.829
24791W        W90271  34.003  36.970   4.122
24792W        W90272  16.295  16.094   1.824
24793W        W90273  44.308   5.269  11.983
24794W        W90274  11.685  16.293   1.861
24795W        W90275  28.957  25.511  12.991
24796W        W90276  24.030  37.453  12.883
24797W        W90277   4.944   7.384   3.690
24798W        W90278   4.278  22.125   4.163
24799W        W90279  23.123  41.896  14.032
24800W        W90280  24.999  34.064   2.200
24801W        W90281  10.701   8.200   0.316
24802W        W90282  31.131  32.537  11.980
24803W        W90283  27.175  29.084   2.762
24804W        W90284  13.824  25.467   1.346
24805W        W90285  42.795  37.446   3.789
24806W        W90286   0.961  11.632   4.308
24807W        W90287  18.716  40.798  13.923
24808W        W90288   5.418  13.127  11.449
24809W        W90289   1.869   5.219   0.317
24810W        W90290  20.635  32.984  10.503
24811W        W90291  11.183  37.926   2.777
24812W        W90292  14.243  43.929   5.256
24813W        W90293   7.413  35.597  14.827
24814W        W90294  16.714  36.901   2.340
24815W        W90295  16.113  31.493   2.858
24816W        W90296  17.566  25.490   9.584
24817W        W90297  11.187  27.183   4.114
24818W        W90298  25.185  13.243  12.094
24819W        W90299  40.500  24.566  10.574
24820W        W90300  36.977  39.858   2.299
24821W        W90301  21.054  44.293  12.897
24822W        W90302  11.225  33.541  13.043
24823W        W90303  37.550  42.349  12.856
24824W        W90304  10.790  24.214  12.572
24825W        W90305   1.900  41.471  13.454
24826W        W90306   0.441  27.180  12.911
24827W        W90307   9.881  23.175  14.487
24828W        W90308   1.439  36.855   0.322
24829W        W90309  10.696  12.187   2.813
24830W        W90310  32.134  18.238   2.277
24831W        W90311   4.793  40.519  10.547
24832W        W90312  32.050  10.351  11.501
24833W        W90313   3.357   6.904   1.848
24834W        W90314  15.221  33.912  13.354
24835W        W90315  43.283  29.146   1.324
24836W        W90316   6.737  17.778   3.332
24837W        W90317  33.386  28.435   2.893
24838W        W90318  17.744  22.230   1.329
24839W        W90319   3.323  41.005   2.681
24840W        W90320  29.562  37.469   3.279
24841W        W90321  37.951  34.036  11.493
24842W        W90322   0.284   1.370   3.322
24843W        W90323  30.456  41.824   0.781
24844W        W90324  36.430  15.742  13.392
24845W        W90325  31.502  44.793  11.491
24846W        W90326  18.725  18.759  13.839
24847W        W90327   8.655  34.919   1.709
24848W        W90328  34.016  29.099   1.284
24849W        W90329  15.711   1.322  13.822
24850W        W90330  27.030  30.111  11.893
24851W        W90331  43.819   0.915  14.829
24852W        W90332  14.605  15.587   0.371
24853W        W90333  32.480  36.463  12.952
24854W        W90334  28.563  34.093   0.802
24855W        W90335  14.263   5.308  11.598
24856W        W90336  18.592  14.119   2.270
24857W        W90337   8.747  44.964  10.554
24858W        W90338   8.801  27.478  13.035
24859W        W90339  29.057   0.946  10.584
24860W        W90340  37.985  18.100   4.141
24861W        W90341   4.215  10.763  12.495
24862W        W90342  29.013  33.524   3.151
24863W        W90343  41.528   6.186   0.315
24864W        W90344  11.359  14.248   1.291
24865W        W90345  18.691  42.861   2.276
24866W        W90346   8.261  10.678   4.208
24867W        W90347  31.955   4.345  14.294
24868W        W90348   4.210   7.838   2.882
24869W        W90349  10.320  39.965   3.739
24870W        W90350  14.198  26.158   1.439
24871W        W90351  16.639  31.913   1.386
24872W        W90352   4.828  20.649   1.898
24873W        W90353  29.663  12.204  12.906
24874W        W90354  15.750  34.558  14.769
24875W        W90355  20.625  42.831   2.848
24876W        W90356  24.143   9.783   3.167
24877W        W90357  10.672  18.142  11.023
24878W        W90358  41.798  22.604   2.891
24879W        W90359  15.242  18.584  13.889
24880W        W90360  23.996  20.244  10.569
24881W        W90361  43.773  30.919  12.411
24882W        W90362  25.667   0.479   9.574
24883W        W90363  17.164  38.387  12.859
24884W        W90364  39.433  41.803   0.733
24885W        W90365   3.869  38.419   3.211
24886W        W90366   0.382  17.281  13.005
24887W        W90367  32.620   5.797  14.356
24888W        W90368  40.931  44.912   1.726
24889W        W90369  16.078  35.477   3.726
24890W        W90370  11.854  40.894   1.863
24891W        W90371  22.683  38.361   2.712
24892W        W90372   3.234  25.187  11.508
24893W        W90373  11.654  26.536   9.951
24894W        W90374  20.170  14.132  10.581
24895W        W90375  22.689  25.150  11.612
24896W        W90376   6.901  40.910  14.892
24897W        W90377  18.259  23.622   2.718
24898W        W90378  11.284   4.900  13.434
24899W        W90379  26.180  17.176  12.995
24900W        W90380  29.998  13.237   1.907
24901W        W90381  36.495  37.964  14.504
24902W        W90382  40.472  41.328  14.810
24903W        W90383  28.663  26.601  14.329
24904W        W90384  42.019   9.836  13.525
24905W        W90385  22.690  25.013  11.929
24906W        W90386  35.905  21.111  13.474
24907W        W90387  23.606  16.642   4.823
24908W        W90388  37.984  29.444  11.594
24909W        W90389  38.822  35.532   4.725
24910W        W90390  39.320  11.778  14.306
24911W        W90391  10.339  11.359   2.219
24912W        W90392  36.403  37.387   1.217
24913W        W90393  33.997  23.093   3.724
24914W        W90394  41.001  21.697   2.822
24915W        W90395   9.690  39.382   2.675
24916W        W90396   6.741  30.419  14.426
24917W        W90397  30.988  29.011  10.498
24918W        W90398  42.807   5.226   0.894
24919W        W90399  43.779  12.284  13.039
24920W        W90400  42.333   5.401   0.956
24921W        W90401   0.379  35.547  12.969
24922W        W90402  32.086   7.675  14.861
24923W        W90403  44.862  34.505  14.371
24924W        W90404  21.108  41.451  11.120
24925W        W90405  31.926   8.242   1.778
24926W        W90406  28.624   6.767  11.506
24927W        W90407  32.993   1.864   0.921
24928W        W90408  10.643  26.634  10.406
24929W        W90409  21.607  30.490   2.273
24930W        W90410  28.506   7.311   1.361
24931W        W90411  31.010  32.455  13.845
24932W        W90412   2.916  31.009   1.861
24933W        W90413   5.807  26.027  11.464
24934W        W90414   2.472  24.208   3.322
24935W        W90415  17.618  22.695   4.736
24936W        W90416  19.158  37.007  14.933
24937W        W90417  32.041  10.711   0.376
24938W        W90418  26.507   6.318   1.921
24939W        W90419  29.481   0.484  12.472
24940W        W90420  31.150  14.812   3.687
24941W        W90421  29.460  19.111   3.725
24942W        W90422   1.928  34.495   2.262
24943W        W90423  10.755  10.662   4.644
24944W        W90424  42.991  30.583   4.738
24945W        W90425   1.886  22.162  12.088
24946W        W90426  32.570  36.859  10.996
24947W        W90427  38.952  32.134   0.739
24948W        W90428   4.360   4.268  14.361
24949W        W90429  29.071  29.631  11.459
24950W        W90430  21.218  13.333  10.908
24951W        W90431  27.590  12.354  14.494
24952W        W90432  23.085  14.231   0.466
24953W        W90433  17.692   5.776  14.946
24954W        W90434   0.438  22.124  11.457
24955W        W90435  39.866  36.936  12.956
24956W        W90436  16.074  25.545   4.795
24957W        W90437  35.469  29.445  11.068
24958W        W90438  21.637  33.495   4.157
24959W        W90439  42.871   3.823   3.666
24960W        W90440  11.725  25.650   3.269
24961W        W90441   5.699   9.880  10.960
24962W        W90442  38.996   6.391  12.038
24963W        W90443  10.723  10.278   4.288
24964W        W90444  11.709  33.520   1.371
24965W        W90445  18.187  32.447  13.443
24966W        W90446  42.319  38.064   1.342
24967W        W90447  23.213  37.877   1.765
24968W        W90448  11.168  22.082  10.482
24969W        W90449  20.168  41.326   1.213
24970W        W90450  36.932  34.466  14.899
24971W        W90451  24.038   6.717   4.117
24972W        W90452  23.704  12.338   4.203
24973W        W90453  44.869  23.001  11.539
24974W        W90454  38.004  36.057  13.372
24975W        W90455   9.347  24.154   1.814
24976W        W90456  27.969  22.082  14.330
24977W        W90457  12.663  22.571  11.956
24978W        W90458   0.973  32.141   0.365
24979W        W90459  23.036  28.956  14.494
24980W        W90460  14.145  41.461   5.131
24981W        W90461  19.118  21.240   2.718
24982W        W90462  10.383  16.670  10.563
24983W        W90463  20.065  43.828  14.383
24984W        W90464  16.212  36.482   9.464
24985W        W90465   2.892   7.400   1.426
24986W        W90466   8.712   7.763  13.980
24987W        W90467   2.866   7.212   2.418
24988W        W90468  10.273  23.523   3.700
24989W        W90469  24.168  26.143   0.809
24990W        W90470  35.416  34.453   4.290
24991W        W90471   6.377   9.223  13.061
24992W        W90472  30.607  34.924  12.888
24993W        W90473  43.872  23.575   1.888
24994W        W90474  14.184  28.070  13.014
24995W        W90475  28.603  27.548   2.713
24996W        W90476  12.735  35.384  14.320
24997W        W90477  12.831  14.330  11.053
24998W        W90478  15.153   8.795  14.447
24999W        W90479  13.750  14.751   4.718
25000W        W90480  44.754   2.332   1.423
25001W        W90481  17.566  44.984  12.096
25002W        W90482   4.413  39.885   2.226
25003W        W90483  42.978   8.742   0.282
25004W        W90484  23.505  27.080   2.809
25005W        W90485   9.648  20.038  12.339
25006W        W90486   7.174   2.838  12.051
25007W        W90487   5.303  23.607  12.056
25008W        W90488  37.431  10.281  14.902
25009W        W90489   3.232   9.825   3.634
25010W        W90490  44.766  19.710   3.866
25011W        W90491  10.169  15.321  11.459
25012W        W90492  15.766  19.711  11.001
25013W        W90493  37.512  10.842  11.377
25014W        W90494  28.620   1.331  14.993
25015W        W90495   5.909  38.325   2.766
25016W        W90496  33.557  10.179  13.927
25017W        W90497  23.003  37.497   9.996
25018W        W90498  30.623  21.654   3.212
25019W        W90499  30.594  40.480   0.284
25020W        W90500  16.658  25.571  12.846
25021W        W90501   9.678  21.607  12.908
25022W        W90502  23.123   6.372   4.239
25023W        W90503  30.470  17.077  11.921
25024W        W90504  16.240   9.834  14.285
25025W        W90505  23.530  19.235  12.830
25026W        W90506  41.504  34.963   5.116
25027W        W90507  26.537  16.601   4.288
25028W        W90508  39.876  10.253   4.291
25029W        W90509  10.198  15.579  11.536
25030W        W90510  28.669   3.229   2.844
25031W        W90511  26.574  32.594  13.314
25032W        W90512  33.004  28.950   3.198
25033W        W90513   2.921  24.691   2.357
25034W        W90514  13.235  15.745  13.538
25035W        W90515  26.663  25.628   4.697
25036W        W90516  31.493  11.135   0.915
25037W        W90517  27.490  22.015   0.909
25038W        W90518  11.294  12.332  14.301
25039W        W90519  39.369  16.300  11.465
25040W        W90520  31.480  15.770  10.579
25041W        W90521  13.628  11.856  13.455
25042W        W90522   3.774  43.941  10.582
25043W        W90523  20.111   9.185  11.086
25044W        W90524  18.133  26.046  14.328
25045W        W90525  18.064  16.250   2.818
25046W        W90526   1.773  38.501   2.685
25047W        W90527  33.983  19.085   1.838
25048W        W90528   0.487  29.148   2.301
25049W        W90529  20.684  40.410  10.621
25050W        W90530   7.360  18.646   2.721
25051W        W90531  35.534   3.895   3.828
25052W        W90532  37.937  14.728   3.155
25053W        W90533  21.555  42.811   0.891
25054W        W90534   7.346  13.275   3.155
25055W        W90535  24.098  29.566   1.424
25056W        W90536  39.537  15.136  10.581
25057W        W90537   1.817  27.166  13.026
25058W        W90538  42.362   7.678  10.898
25059W        W90539   1.842  31.100   1.879
25060W        W90540  26.637   1.251   0.434
25061W        W90541  12.339  23.156  14.832
25062W        W90542  27.134  19.757  11.927
25063W        W90543  34.954  20.166   1.857
25064W        W90544  27.627  17.788  13.316
25065W        W90545   1.744  18.175  11.572
25066W        W90546  25.030  28.022  10.930
25067W        W90547  27.662  40.999  13.044
25068W        W90548  24.220  39.843  12.564
25069W        W90549   1.837  12.814   2.179
25070W        W90550  32.956  32.901  13.059
25071W        W90551   9.243  40.836   3.287
25072W        W90552  13.730   2.885  14.773
25073W        W90553  26.689  22.059   3.256
25074W        W90554  13.105  22.630  10.152
25075W        W90555  26.496  43.280   5.210
25076W        W90556  30.020  22.566  14.318
25077W        W90557  31.074  27.685  12.830
25078W        W90558   9.650  19.047  14.311
25079W        W90559  26.009  35.961   3.864
25080W        W90560  28.113   9.276   1.739
25081W        W90561  25.635   1.787   2.357
25082W        W90562  32.407  25.107   0.909
25083W        W90563  16.585  13.838   2.712
25084W        W90564  25.063  16.723  12.360
25085W        W90565  42.008  29.930  11.545
25086W        W90566  29.168  31.461  13.943
25087W        W90567  40.834  17.123   5.772
25088W        W90568   5.693  44.420   2.276
25089W        W90569  13.779   1.350   3.274
25090W        W90570  18.600   2.963  12.901
25091W        W90571   6.250  37.462   1.770
25092W        W90572  30.966   3.402  13.403
25093W        W90573  42.503   2.342   3.848
25094W        W90574  21.210  25.662  14.947
25095W        W90575  25.171  28.157  13.019
25096W        W90576  19.211  27.562  11.606
25097W        W90577   7.828  12.353  14.848
25098W        W90578  40.890  36.454   4.617
25099W        W90579  38.508  17.756   2.813
25100W        W90580  15.139   9.831   0.380
25101W        W90581  21.623  33.507  14.428
25102W        W90582  37.550  44.788  11.074
25103W        W90583   7.766   9.172   0.323
25104W        W90584   8.287  24.668   1.747
25105W        W90585  29.529   7.717  10.438
25106W        W90586  23.027  36.383   2.377
25107W        W90587  35.547  14.120  12.000
25108W        W90588  10.342   6.331  14.864
25109W        W90589  30.006  43.463  14.437
25110W        W90590  38.900   1.262  12.950
25111W        W90591  18.545   3.918  12.476
25112W        W90592  42.798  40.542   2.870
25113W        W90593  26.998  21.555  10.498
25114W        W90594  11.191  24.013  14.449
25115W        W90595  20.581  18.183   1.243
25116W        W90596  16.173  25.174  14.018
25117W        W90597   2.393   8.848   0.477
25118W        W90598  34.024   9.373  12.966
25119W        W90599   0.492  32.393   3.254
25120W        W90600  33.881  38.895  11.388
25121W        W90601  37.065  16.260   0.730
25122W        W90602   0.814  26.618  11.011
25123W        W90603  10.167  34.037  14.019
25124W        W90604  29.579  34.483  14.966
25125W        W90605  41.861   6.186   2.349
25126W        W90606  23.716  24.592  13.861
25127W        W90607   4.894  40.381   1.377
25128W        W90608  44.280  34.426  10.120
25129W        W90609   8.739  27.543  10.029
25130W        W90610  33.927  33.403   1.424
25131W        W90611  20.142   2.829  13.448
25132W        W90612  26.156  22.597  14.396
25133W        W90613  19.690  19.265  12.996
25134W        W90614  18.160  41.459  12.026
25135W        W90615  43.894  35.437  13.361
25136W        W90616  11.285  24.505   4.177
25137W        W90617  38.438  44.953   4.203
25138W        W90618   9.756  41.950  12.050
25139W        W90619  12.851  22.747  13.419
25140W        W90620  14.288  12.293   0.870
25141W        W90621   3.881  15.719   2.764
25142W        W90622   7.348  29.558   1.924
25143W        W90623   3.347   0.464   4.255
25144W        W90624  11.842  30.494  11.060
25145W        W90625  19.566  32.590  10.992
25146W        W90626  26.173  33.893  10.987
25147W        W90627  31.016  44.442  11.431
25148W        W90628   4.307   9.248   0.411
25149W        W90629  33.012   7.352   3.858
25150W        W90630  12.282  20.161  14.388
25151W        W90631  27.512  27.552  14.996
25152W        W90632  20.723   2.453   1.410
25153W        W90633  39.018  20.126   1.888
25154W        W90634  34.604   8.280  13.923
25155W        W90635  28.643   6.271   1.302
25156W        W90636  18.727  36.427   2.695
25157W        W90637  15.192  15.309  12.842
25158W        W90638  34.029  26.195  13.816
25159W        W90639   4.449  34.555  14.996
25160W        W90640  23.712   5.429  12.579
25161W        W90641  28.455   2.242  13.456
25162W        W90642  29.651  36.400  14.479
25163W        W90643  33.029  38.327   2.868
25164W        W90644  24.187  40.537  10.977
25165W        W90645  11.812   3.231   1.841
25166W        W90646   7.718  41.534   3.676
25167W        W90647  43.309  24.520   3.380
25168W        W90648  18.603  23.131  11.948
25169W        W90649  27.617  34.969   0.928
25170W        W90650  18.101  11.795  10.563
25171W        W90651  34.088  28.031   3.727
25172W        W90652  17.560  21.653  12.999
25173W        W90653   8.766  12.261   2.407
25174W        W90654  24.108  36.992   3.673
25175W        W90655  12.269  20.618  10.587
25176W        W90656  37.893  40.392   2.199
25177W        W90657  10.158  34.566   3.156
25178W        W90658  17.595  17.206   3.238
25179W        W90659  33.589  20.108  13.320
25180W        W90660   9.358  38.983  12.476
25181W        W90661   9.832  15.711  11.477
25182W        W90662  25.999  31.513   2.265
25183W        W90663  15.220  43.900   1.448
25184W        W90664  24.688  44.815   1.818
25185W        W90665  34.004  13.741  13.842
25186W        W90666  39.875  20.696   1.228
25187W        W90667  25.149  10.294  12.341
25188W        W90668  42.339  27.137   2.349
25189W        W90669   7.885  18.650  12.094
25190W        W90670  42.341   5.389  13.914
25191W        W90671   0.421  15.130   1.859
25192W        W90672   7.285  35.413  10.454
25193W        W90673   1.801  30.912  14.982
25194W        W90674  12.643  21.731  14.512
25195W        W90675   1.885  42.313  14.771
25196W        W90676  21.593  31.498  10.497
25197W        W90677  18.743  40.020   4.300
25198W        W90678  21.154  12.743  14.313
25199W        W90679  21.752  37.495   3.674
25200W        W90680  28.132  30.025  11.110
25201W        W90681  28.469  25.152   2.895
25202W        W90682  30.920  44.351  11.910
25203W        W90683   1.475  32.937  14.935
25204W        W90684   9.341   8.731   5.160
25205W        W90685  11.169  34.370   0.886
25206W        W90686  39.374  37.015   2.266
25207W        W90687  31.014   6.420   3.326
25208W        W90688  32.519   2.772   4.299
25209W        W90689   2.884  20.243   1.753
25210W        W90690   1.962  22.641  10.406
25211W        W90691  13.125  18.668  11.071
25212W        W90692  13.670  31.503   1.932
25213W        W90693  38.845  22.672   0.416
25214W        W90694   6.358  11.792  13.435
25215W        W90695  28.587  22.161  11.022
25216W        W90696  16.211  23.683  14.840
25217W        W90697  14.799  24.222   1.371
25218W        W90698  38.918  18.081   2.305
25219W        W90699   5.203  44.930   0.787
25220W        W90700   9.848   2.766   4.694
25221W        W90701  29.995  29.064  11.567
25222W        W90702  16.087  22.517  11.950
25223W        W90703  13.293  34.421  13.830
25224W        W90704  26.601  11.343   1.817
25225W        W90705  25.189  40.314   4.354
25226W        W90706  18.111  42.942   4.345
25227W        W90707  12.622  11.790   3.289
25228W        W90708  29.559  10.375   2.418
25229W        W90709  15.296  32.442  13.019
25230W        W90710  12.238  16.085  11.868
25231W        W90711  21.212  28.633   4.193
25232W        W90712  17.584   8.258   1.278
25233W        W90713  41.294  35.980  10.501
25234W        W90714   8.862  35.919  13.409
25235W        W90715  39.010  16.306  11.030
25236W        W90716  38.902   2.824   4.221
25237W        W90717  38.527  29.083  13.963
25238W        W90718  28.941  26.139  10.962
25239W        W90719  23.126  27.049  10.603
25240W        W90720  36.531   7.753  12.831
25241W        W90721  14.323   8.737   0.243
25242W        W90722  23.518  15.670  12.575
25243W        W90723   1.462  20.142   2.674
25244W        W90724  20.271  34.605   1.264
25245W        W90725  32.938  44.934   1.414
25246W        W90726  43.290  41.936   3.742
25247W        W90727  42.820  39.490  13.328
25248W        W90728  21.130  17.282   3.189
25249W        W90729  17.290  15.200   1.772
25250W        W90730  10.163  12.123  11.859
25251W        W90731  13.667  31.423  13.985
25252W        W90732  36.514  29.084  11.895
25253W        W90733   6.903   6.874   4.727
25254W        W90734  31.632  17.601   1.238
25255W        W90735  20.702  11.797   3.333
25256W        W90736  24.990  32.413   1.290
25257W        W90737   3.932  43.297   3.386
25258W        W90738  28.942  44.292   1.908
25259W        W90739  38.944  32.563   4.199
25260W        W90740  30.492   4.372   4.714
25261W        W90741  36.943  12.332   2.354
25262W        W90742   1.478  38.853   4.719
25263W        W90743  38.837  42.019   3.743
25264W        W90744  21.238  35.924  13.525
25265W        W90745  35.089   4.704  11.560
25266W        W90746   5.353  41.291   4.696
25267W        W90747  34.892  32.405  11.452
25268W        W90748   0.811  19.123   2.275
25269W        W90749  10.745  38.468  11.957
25270W        W90750  40.804  28.055  10.481
25271W        W90751  40.308   6.322  12.919
25272W        W90752  38.859  26.665   3.793
25273W        W90753   5.799  19.615   1.908
25274W        W90754  15.585  38.872   1.900
25275W        W90755  42.804  40.052   4.642
25276W        W90756   3.250  43.866   2.800
25277W        W90757  14.756  15.654  11.543
25278W        W90758  23.530   0.897  14.771
25279W        W90759  24.150  43.767   0.424
25280W        W90760  32.981   8.686  14.968
25281W        W90761  44.311   4.746  13.500
25282W        W90762  22.015  16.758  12.539
25283W        W90763  44.453  20.743   1.439
25284W        W90764  18.287   2.848   3.823
25285W        W90765  22.032  38.389  13.398
25286W        W90766   5.369  40.828  12.938
25287W        W90767   3.367  25.034   1.747
25288W        W90768   2.730   4.212   3.784
25289W        W90769  39.863  41.027   3.673
25290W        W90770  14.639   2.268   3.697
25291W        W90771   2.936  25.682   2.404
25292W        W90772  17.616  23.600   0.251
25293W        W90773  32.941  33.876   1.376
25294W        W90774  34.995  38.965   2.226
25295W        W90775  20.121  41.017  10.913
25296W        W90776  26.590   4.906  14.345
25297W        W90777  15.207  14.684  12.997
25298W        W90778  10.347  13.835  10.591
25299W        W90779  23.525  28.542  14.824
25300W        W90780   3.357  42.509   3.282
25301W        W90781  13.282  35.480   0.450
25302W        W90782   3.461  11.846  10.893
25303W        W90783  44.908  20.734   2.328
25304W        W90784  43.906   1.954   3.291
25305W        W90785   7.841  29.428  12.501
25306W        W90786  28.092  29.105  14.359
25307W        W90787  38.827   2.400   3.666
25308W        W90788  16.317  11.628   4.285
25309W        W90789  14.730   6.904   1.897
25310W        W90790  30.065  23.708   0.372
25311W        W90791   1.963  11.725  13.961
25312W        W90792  12.315  38.878   1.710
25313W        W90793   4.818  25.697  12.056
25314W        W90794  10.702  13.722  13.950
25315W        W90795   5.882  11.157   2.774
25316W        W90796  33.440  19.562  14.794
25317W        W90797  36.989  19.672   4.163
25318W        W90798  21.723   5.734   3.755
25319W        W90799   3.246  40.993   1.916
25320W        W90800   9.352  18.609  13.520
25321W        W90801   2.248  41.520   3.716
25322W        W90802  13.789   1.743  13.025
25323W        W90803  36.493   6.377  10.065
25324W        W90804  14.798   0.373  11.028
25325W        W90805  35.539  30.035  13.324
25326W        W90806   0.935  12.306  13.535
25327W        W90807  29.027  14.234  13.869
25328W        W90808  26.519  17.302  13.433
25329W        W90809   0.762  16.628  11.078
25330W        W90810  28.980  35.074  14.923
25331W        W90811  35.569  38.968   0.383
25332W        W90812  43.956   2.756  13.417
25333W        W90813  40.461  33.952  12.443
25334W        W90814  39.842  17.229   3.743
25335W        W90815  14.628  34.408   0.460
25336W        W90816  35.014   7.885   3.695
25337W        W90817  18.751  20.050   2.317
25338W        W90818  42.298  19.105  13.008
25339W        W90819  16.622  35.374  12.084
25340W        W90820   0.448  37.859   0.275
25341W        W90821  25.050  27.968   1.725
25342W        W90822   2.766  18.731   1.865
25343W        W90823  34.076  40.817   3.807
25344W        W90824   5.930  15.200   0.343
25345W        W90825  10.142  40.889   4.175
25346W        W90826  37.478  43.933   0.737
25347W        W90827   6.861  12.276   1.859
25348W        W90828  10.731  16.212   4.625
25349W        W90829  30.536  24.708  14.481
25350W        W90830   1.795  22.622  10.960
25351W        W90831  15.248  11.234   5.318
25352W        W90832  32.563  15.298  12.074
25353W        W90833  25.662  24.522   3.206
25354W        W90834  16.599  13.124  12.481
25355W        W90835   9.358  29.051  13.311
25356W        W90836   8.286  18.268   2.341
25357W        W90837  13.350  10.162   2.854
25358W        W90838  13.670   0.791  12.866
25359W        W90839  38.429  43.979  11.858
25360W        W90840  43.351  26.997  14.505
25361W        W90841  16.801  13.649   1.898
25362W        W90842   3.940  12.155  12.349
25363W        W90843  15.734   1.395   4.237
25364W        W90844  33.983  21.608   4.769
25365W        W90845  44.767  39.426  12.460
25366W        W90846   4.868  26.530   5.244
25367W        W90847   3.305  14.677   2.786
25368W        W90848  19.553  11.273  12.903
25369W        W90849  31.472  43.770   2.759
25370W        W90850   3.827  40.366  13.542
25371W        W90851   9.828   8.171  14.299
25372W        W90852  39.907  16.193  13.345
25373W        W90853  36.350   4.369   4.607
25374W        W90854  34.467   7.416  11.958
25375W        W90855  34.876  27.030   0.964
25376W        W90856  14.740  11.174  12.905
25377W        W90857   3.894   1.935  12.481
25378W        W90858  26.022  23.660   3.791
25379W        W90859  30.099   9.151   3.162
25380W        W90860  20.672  43.285   0.840
25381W        W90861   1.746  16.295   4.668
25382W        W90862  11.851   8.354  14.317
25383W        W90863  10.245   7.753   0.810
25384W        W90864  19.740  21.107   2.903
25385W        W90865  24.602  23.702   0.424
25386W        W90866  20.149  10.224   0.278
25387W        W90867  34.546  14.277   2.868
25388W        W90868   5.312  43.957  13.455
25389W        W90869  10.679  32.048   2.747
25390W        W90870  10.249  35.396  10.509
25391W        W90871  43.453  26.568   1.755
25392W        W90872  31.937  10.774   1.391
25393W        W90873  44.413   8.900  13.016
25394W        W90874  24.661  34.083  13.343
25395W        W90875  34.014  12.754   3.256
25396W        W90876  15.802  30.643   4.774
25397W        W90877  11.225  31.030   4.808
25398W        W90878   9.690   4.851  11.564
25399W        W90879   5.798  10.770  14.780
25400W        W90880  34.938   5.740  12.526
25401W        W90881   4.266   7.223  13.864
25402W        W90882  31.073  37.967  14.308
25403W        W90883  19.725   4.284  14.322
25404W        W90884   7.396  37.959   3.654
25405W        W90885  23.154  17.800  10.488
25406W        W90886  13.337   7.283  14.448
25407W        W90887  33.942  24.580  12.558
25408W        W90888  10.267  40.495  14.390
25409W        W90889   6.831  43.385   0.359
25410W        W90890  35.924  40.321   2.772
25411W        W90891  30.526  32.951   0.942
25412W        W90892  24.153   1.327  13.012
25413W        W90893  11.358  28.465   0.284
25414W        W90894  33.567   0.845  11.123
25415W        W90895  41.475   5.787  12.478
25416W        W90896  12.708  13.693   2.267
25417W        W90897  27.973  40.942  12.497
25418W        W90898  15.702   3.842  13.410
25419W        W90899   3.318  28.601  13.814
25420W        W90900  27.994  42.959  12.935
25421W        W90901  13.779  39.533   0.783
25422W        W90902   1.740  27.454  13.509
25423W        W90903  11.848  12.140   2.276
25424W        W90904  28.013  14.800   2.880
25425W        W90905  35.072   0.904   2.883
25426W        W90906  14.786  25.657  14.928
25427W        W90907  39.883   1.337   1.330
25428W        W90908  41.424  35.410  14.437
25429W        W90909  38.495  42.389  11.019
25430W        W90910   1.809  22.524  14.942
25431W        W90911  19.173  24.537  10.988
25432W        W90912   9.316  42.862   2.327
25433W        W90913  37.464  11.773   3.644
25434W        W90914  25.156  23.589  10.445
25435W        W90915  29.567  27.942   5.225
25436W        W90916   6.760  28.157  11.119
25437W        W90917  32.593  14.136  12.960
25438W        W90918  21.216  36.403   3.269
25439W        W90919  30.010  16.233   1.245
25440W        W90920  26.495  13.811  14.762
25441W        W90921  22.031   3.362  13.939
25442W        W90922  13.348   4.354   3.382
25443W        W90923  33.026  15.674  12.534
25444W        W90924  33.553  18.720   3.860
25445W        W90925  23.147  40.317   1.342
25446W        W90926  30.020  27.945   0.395
25447W        W90927  43.816   2.279  12.095
25448W        W90928  14.280  32.976  13.063
25449W        W90929  43.391  33.437   3.729
25450W        W90930  17.621  21.028  14.318
25451W        W90931  17.778  35.358   1.254
25452W        W90932   0.895  23.557  11.074
25453W        W90933  11.227  30.138   1.268
25454W        W90934  41.353   4.242  13.898
25455W        W90935  15.782  16.150   1.367
25456W        W90936  39.835  40.816  14.944
25457W        W90937  19.725   7.708   4.182
25458W        W90938  11.184  11.832   0.371
25459W        W90939  37.455   4.781  14.802
25460W        W90940  30.475   1.258   2.714
25461W        W90941  24.603  35.554   1.699
25462W        W90942  16.743   8.363   1.332
25463W        W90943  40.330  43.808  14.843
25464W        W90944  42.413  30.136  13.357
25465W        W90945   7.677  15.775  11.555
25466W        W90946  17.682  21.573   2.902
25467W        W90947  28.113  21.103  11.587
25468W        W90948  37.973  11.846   0.966
25469W        W90949   0.487   1.973   0.276
25470W        W90950  24.651  26.080   1.706
25471W        W90951  15.715  12.825  14.514
25472W        W90952  39.015   4.908   2.274
25473W        W90953  29.978  25.555   4.828
25474W        W90954   9.295  16.774  13.546
25475W        W90955  42.462   1.395  12.494
25476W        W90956  19.726   3.814   2.223
25477W        W90957   0.898  22.237   3.640
25478W        W90958  23.552  20.575   2.333
25479W        W90959  24.153  14.629   3.245
25480W        W90960  12.669  43.891  11.923
25481W        W90961  25.112  25.472  15.000
25482W        W90962  33.993  25.475  12.023
25483W        W90963  42.464  24.521   0.291
25484W        W90964  22.247  38.949  13.017
25485W        W90965  28.647  34.442   4.731
25486W        W90966  21.579  22.503   2.667
25487W        W90967  30.567  19.700  12.942
25488W        W90968  18.144  44.852  10.927
25489W        W90969   6.717  28.126   4.788
25490W        W90970  26.187   8.894   1.339
25491W        W90971  42.391  14.301  11.109
25492W        W90972  29.004  23.607  12.058
25493W        W90973  42.967  28.952   3.867
25494W        W90974  44.953  13.818   3.729
25495W        W90975   2.251  10.744  12.528
25496W        W90976  35.400  17.088   2.706
25497W        W90977  30.069  37.565  13.975
25498W        W90978   6.280  38.369  13.434
25499W        W90979  25.991  15.754  13.341
25500W        W90980   9.215  44.869  10.441
25501W        W90981   0.439  16.656   2.198
25502W        W90982   0.882  19.767   0.448
25503W        W90983  29.570   6.780  11.579
25504W        W90984  25.470  11.685  12.541
25505W        W90985  31.464  28.447   4.261
25506W        W90986  20.694  43.903  11.575
25507W        W90987   4.938  38.429  11.531
25508W        W90988   8.703  22.521   3.264
25509W        W90989  34.997  32.064  14.952
25510W        W90990  18.294  40.959   0.834
25511W        W90991  22.034  14.134  13.915
25512W        W90992  38.565  34.049   0.422
25513W        W90993  11.189  12.257  12.448
25514W        W90994  35.434   0.825   0.473
25515W        W90995  36.506  43.869   4.320
25516W        W90996  17.243   5.378   1.862
25517W        W90997  30.536   2.410  13.388
25518W        W90998  21.157   2.952  14.007
25519W        W90999   5.359  41.994  12.364
25520W        W91000  42.791  10.689   1.420
25521W        W91001  34.586  33.458   3.200
25522W        W91002  34.902   8.392  14.465
25523W        W91003  44.858  38.564   1.324
25524W        W91004  11.197  39.046  10.640
25525W        W91005  41.412  10.366   0.287
25526W        W91006   7.887  26.056  12.381
25527W        W91007   5.373   3.826   3.206
25528W        W91008  44.788  16.221  12.070
25529W        W91009   3.783  34.478  11.489
25530W        W91010  26.020  19.770   0.430
25531W        W91011  32.912  37.344  14.438
25532W        W91012  36.866  24.066   3.340
25533W        W91013  10.203  31.019  12.060
25534W        W91014   6.328  39.954  14.354
25535W        W91015  27.463  17.661  10.586
25536W        W91016  24.021   8.362   0.258
25537W        W91017  17.063   0.330   4.734
25538W        W91018  15.239   3.771  13.507
25539W        W91019  27.450  23.541   4.342
25540W        W91020  44.768  28.001  13.852
25541W        W91021   0.757  17.218   9.934
25542W        W91022  13.731   8.268  13.376
25543W        W91023  30.002   0.985   0.744
25544W        W91024   2.466   8.876  10.555
25545W        W91025  11.654  13.746  11.936
25546W        W91026  19.551  44.967  12.545
25547W        W91027  42.003  27.965  13.837
25548W        W91028  18.579  26.131   4.211
25549W        W91029  26.515  14.201   2.885
25550W        W91030  38.532  14.701  11.093
25551W        W91031  39.317  12.122   2.320
25552W        W91032  10.279  18.704   2.737
25553W        W91033   4.737   0.788  14.913
25554W        W91034   3.234  37.942   1.853
25555W        W91035  21.629  26.525  11.547
25556W        W91036  36.036  37.546  13.812
25557W        W91037  28.955  22.208  12.503
25558W        W91038  12.204  30.501  14.969
25559W        W91039  43.326  13.188  11.957
25560W        W91040   8.190  23.143   4.138
25561W        W91041  21.590  31.613  11.933
25562W        W91042  19.680  15.154  14.807
25563W        W91043  18.735  37.857  12.571
25564W        W91044  26.069   5.882   3.150
25565W        W91045  36.443  42.417   3.225
25566W        W91046  30.531  21.042  13.496
25567W        W91047  30.045   3.829   1.699
25568W        W91048  22.028  34.458  10.999
25569W        W91049   9.676  43.928   0.384
25570W        W91050  24.626  17.753  10.407
25571W        W91051   1.309  33.982  12.487
25572W        W91052  43.004  28.559  14.461
25573W        W91053  25.966  23.205   0.478
25574W        W91054  41.537  38.438   1.900
25575W        W91055  17.666  42.911  10.970
25576W        W91056  25.596  12.145  13.510
25577W        W91057   3.381  36.356  11.532
25578W        W91058  29.013  23.566  11.466
25579W        W91059  20.086  14.733   1.847
25580W        W91060  40.495  14.308   0.441
25581W        W91061  26.624  25.125   0.945
25582W        W91062  34.113  10.731  14.809
25583W        W91063  20.145  22.561  13.033
25584W        W91064  30.961   1.793  13.953
25585W        W91065  44.277  40.427  13.814
25586W        W91066  20.575   1.848   3.299
25587W        W91067  42.383   0.770   3.324
25588W        W91068  30.644  21.022  10.944
25589W        W91069  30.417  17.762   1.830
25590W        W91070  41.437  40.529   1.449
25591W        W91071  32.936  30.607  11.436
25592W        W91072  24.218   4.801  11.116
25593W        W91073  27.669  42.953  13.992
25594W        W91074  29.649  19.632  12.918
25595W        W91075   1.334  28.513   3.683
25596W        W91076   0.343   9.174  12.063
25597W        W91077   9.372  27.046   0.958
25598W        W91078  34.553  35.486   1.372
25599W        W91079  15.108  26.118  13.061
25600W        W91080  25.659  10.836  13.823
25601W        W91081  39.379  24.561   1.779
25602W        W91082   8.780  13.343  12.972
25603W        W91083   5.344  19.740  14.377
25604W        W91084   1.897  26.502   1.383
25605W        W91085  25.673  29.632  14.835
25606W        W91086  27.529  23.696   4.692
25607W        W91087  18.116  20.200   2.877
25608W        W91088  18.232  17.619  11.008
25609W        W91089  38.981  10.183  11.525
25610W        W91090  11.313   9.218   0.299
25611W        W91091  22.142  41.427   4.809
25612W        W91092  31.446  36.448   2.821
25613W        W91093  27.683  35.079  13.798
25614W        W91094  34.372  13.252  11.092
25615W        W91095  21.170  40.037   3.691
25616W        W91096  12.687  28.441   2.833
25617W        W91097  38.958  42.941  14.403
25618W        W91098   6.751  19.175  12.393
25619W        W91099  11.747  19.705   4.659
25620W        W91100  43.291  20.746   0.878
25621W        W91101   7.736  15.752   2.685
25622W        W91102  20.265   4.373   1.231
25623W        W91103  18.217  42.519  13.432
25624W        W91104  40.485  16.076  11.979
25625W        W91105  11.276  22.699   2.354
25626W        W91106  15.637  39.326  11.421
25627W        W91107  43.928  16.693   2.721
25628W        W91108  25.710  37.477   2.348
25629W        W91109  15.651  41.340   3.731
25630W        W91110  19.740  11.221   0.765
25631W        W91111  21.084   5.381   1.923
25632W        W91112   6.199  36.416  14.461
25633W        W91113  11.142  24.011  13.444
25634W        W91114  21.650  15.193  14.485
25635W        W91115  31.097  22.188   4.668
25636W        W91116  19.590  44.283   2.880
25637W        W91117  29.498  44.309  13.030
25638W        W91118   1.807  12.622   3.270
25639W        W91119   6.315  30.925   2.722
25640W        W91120  25.202   9.262  12.354
25641W        W91121  14.294   9.308   1.263
25642W        W91122  28.586  38.850  14.461
25643W        W91123   2.436  24.499  13.881
25644W        W91124   2.952   2.837   2.761
25645W        W91125  42.440  42.427   2.777
25646W        W91126  33.096  33.439  11.467
25647W        W91127  44.804   1.893  11.859
25648W        W91128   0.939   7.834  11.543
25649W        W91129  16.603  37.915  11.076
25650W        W91130  21.622  34.917  11.438
25651W        W91131  37.439   8.799  10.431
25652W        W91132  25.543  29.116  11.084
25653W        W91133  37.880  37.387  13.872
25654W        W91134  20.258  12.640   1.724
25655W        W91135  41.813  41.001  10.998
25656W        W91136   1.955  32.066  14.844
25657W        W91137  21.673  12.821   4.681
25658W        W91138  31.593  36.360   0.906
25659W        W91139  27.161  36.946  14.885
25660W        W91140  40.010  12.308   3.751
25661W        W91141  39.539   3.845   4.181
25662W        W91142   0.874  11.710  12.953
25663W        W91143  33.470   4.231  10.437
25664W        W91144  31.407  22.617   0.246
25665W        W91145   3.258  25.681   4.305
25666W        W91146   9.255  38.834  10.050
25667W        W91147  10.374  18.574  10.961
25668W        W91148  39.400   5.710   3.161
25669W        W91149  22.230  30.599   3.792
25670W        W91150  43.390  19.069  11.986
25671W        W91151   0.869  16.202  13.440
25672W        W91152   9.255   6.207  14.867
25673W        W91153  14.713   2.963  13.033
25674W        W91154  13.607  24.522  14.797
25675W        W91155   9.734  11.621  12.030
25676W        W91156  18.233  27.553  10.028
25677W        W91157   3.266  41.904   4.796
25678W        W91158  11.731   4.936   2.800
25679W        W91159  28.458  25.555  11.971
25680W        W91160  31.574  17.075  11.058
25681W        W91161  27.642  14.269   0.910
25682W        W91162  17.695  23.730   5.169
25683W        W91163  41.952   3.365   4.653
25684W        W91164  16.668  12.664  11.855
25685W        W91165  19.600  36.942   4.335
25686W        W91166  40.829  38.484   2.392
25687W        W91167  44.928   4.894  13.993
25688W        W91168  35.939  34.609  14.492
25689W        W91169   3.416  40.797  13.422
25690W        W91170  16.570  12.655   0.737
25691W        W91171  18.089  30.965  11.873
25692W        W91172  43.317  26.078  11.012
25693W        W91173  21.638  22.192  11.578
25694W        W91174  32.516  28.067   3.301
25695W        W91175  11.725  33.995  12.427
25696W        W91176  24.532  39.462  12.360
25697W        W91177  14.714  42.424  13.919
25698W        W91178  14.833  16.185  12.994
25699W        W91179  41.379   2.925   2.693
25700W        W91180  20.750   5.903  11.124
25701W        W91181   6.242  23.537   3.383
25702W        W91182   0.780  37.493   3.201
25703W        W91183   4.380  16.318   2.303
25704W        W91184   1.288  10.698  12.403
25705W        W91185  43.805  20.234  14.027
25706W        W91186   8.771  22.024   2.203
25707W        W91187  21.698  30.107   4.299
25708W        W91188  40.962   9.346   2.187
25709W        W91189  23.565  16.105   3.204
25710W        W91190  17.192  32.076  11.602
25711W        W91191  15.820   0.256  13.036
25712W        W91192   3.455  11.715   5.318
25713W        W91193  27.183  29.026  14.479
25714W        W91194  42.418  44.285  12.483
25715W        W91195  28.069  30.551  13.379
25716W        W91196  29.098  24.021   1.256
25717W        W91197  12.292  17.236   1.726
25718W        W91198  35.959  29.530  11.535
25719W        W91199  20.081   8.727  11.015
25720W        W91200  36.395  15.807  11.880
25721W        W91201   0.792  24.061   4.737
25722W        W91202  44.997  24.590   2.414
25723W        W91203  40.944  41.530   1.317
25724W        W91204   5.827  23.221  13.944
25725W        W91205   4.332   8.876  10.553
25726W        W91206  38.944  26.514   4.718
25727W        W91207  13.349  14.821   0.878
25728W        W91208  23.065  23.573  10.505
25729W        W91209  14.789   8.859   0.766
25730W        W91210   3.301   3.725   3.716
25731W        W91211  29.968   6.263   2.266
25732W        W91212  26.588  26.650   2.873
25733W        W91213  17.786  16.569   0.775
25734W        W91214   0.386  24.485  14.324
25735W        W91215  40.042   7.352  14.454
25736W        W91216  41.919   3.376   1.444
25737W        W91217  38.371  24.149  14.441
25738W        W91218  42.318  21.527  11.489
25739W        W91219  23.530  20.095  13.034
25740W        W91220  31.554  16.778   3.652
25741W        W91221  41.508  26.078   4.775
25742W        W91222   5.795  35.529   4.231
25743W        W91223  25.975  44.765   2.292
25744W        W91224  41.980  43.864  12.580
25745W        W91225  21.563  37.523  10.970
25746W        W91226   7.906  26.618  11.066
25747W        W91227  28.046  38.012  14.970
25748W        W91228  17.105  15.700  13.855
25749W        W91229  17.204  21.678   0.779
25750W        W91230  36.096   9.711   1.848
25751W        W91231   5.732  42.500  12.478
25752W        W91232  24.185  24.171   4.773
25753W        W91233  43.482  16.655  14.789
25754W        W91234  16.776  42.437   0.410
25755W        W91235  35.578  41.958   4.829
25756W        W91236  21.600  27.033  11.441
25757W        W91237  13.702   7.830  12.530
25758W        W91238  38.421  42.859  11.446
25759W        W91239  43.461   6.211  12.016
25760W        W91240  30.418  43.439  12.940
25761W        W91241  28.597  19.081   0.860
25762W        W91242  33.398  39.373  11.405
25763W        W91243   2.285  36.460  10.945
25764W        W91244  14.223  31.958  12.003
25765W        W91245  35.377  10.816   2.712
25766W        W91246  23.665   2.809   2.804
25767W        W91247  38.458  10.665   0.764
25768W        W91248  42.473  21.641  14.502
25769W        W91249   1.946   7.909   3.687
25770W        W91250  37.500   4.297  10.066
25771W        W91251   9.866  10.697  12.546
25772W        W91252  34.075  28.012   4.693
25773W        W91253  18.705  10.837   4.134
25774W        W91254  44.353  27.102   0.798
25775W        W91255  41.463  34.043   3.811
25776W        W91256  19.573   8.867  13.884
25777W        W91257  19.131  22.234  10.988
25778W        W91258   2.726  43.314   2.295
25779W        W91259  37.935   8.809  12.459
25780W        W91260  13.759  42.925   3.261
25781W        W91261  41.356  19.682   2.705
25782W        W91262   7.235   8.200   0.406
25783W        W91263  25.189  11.347   1.436
25784W        W91264  26.974   1.785   3.354
25785W        W91265   7.192  34.985  13.887
25786W        W91266  33.896  26.107  11.995
25787W        W91267  31.109  41.878  12.533
25788W        W91268  11.361  39.411  10.407
25789W        W91269   9.795  37.893   4.737
25790W        W91270  34.966   9.363   2.779
25791W        W91271   2.313  19.731   4.627
25792W        W91272  31.582  44.891  13.983
25793W        W91273  43.290  25.162  13.459
25794W        W91274   4.323  13.619  12.070
25795W        W91275   3.277  23.582  10.918
25796W        W91276  12.852  33.596  14.378
25797W        W91277  11.817  15.681   1.745
25798W        W91278  24.096  25.041  14.333
25799W        W91279  21.633  39.555   3.678
25800W        W91280  10.727  38.856  12.916
25801W        W91281  22.505   8.170  13.995
25802W        W91282  18.659  11.694   2.382
25803W        W91283  34.091   7.296   2.383
25804W        W91284   3.906  18.087  13.998
25805W        W91285  16.586  27.106  12.903
25806W        W91286  40.424  24.165   2.795
25807W        W91287   5.372  17.706  10.505
25808W        W91288  13.320  44.468  11.074
25809W        W91289   3.256   4.736   5.151
25810W        W91290   4.924  23.236   3.384
25811W        W91291  35.545  35.419  14.490
25812W        W91292  23.228  12.679  14.332
25813W        W91293  43.846  17.593   0.244
25814W        W91294  13.208  23.505   0.901
25815W        W91295  44.822  41.809   2.331
25816W        W91296  18.576  42.458   1.798
25817W        W91297  40.426  29.071   3.346
25818W        W91298  33.876  12.740  10.546
25819W        W91299   8.276  41.472  14.490
25820W        W91300  13.660  24.211   0.333
25821W        W91301  32.562  23.103  10.970
25822W        W91302  38.407  25.471  14.507
25823W        W91303  43.861   6.921   4.130
25824W        W91304  42.018   3.727  10.117
25825W        W91305   7.820  42.872   0.791
25826W        W91306  30.089  17.742   1.892
25827W        W91307   4.265  19.087  11.508
25828W        W91308  17.676  11.287  10.582
25829W        W91309  35.527  41.316   3.858
25830W        W91310   5.274  15.313  13.490
25831W        W91311   2.355  32.030   2.874
25832W        W91312  20.660  26.035   0.871
25833W        W91313  29.529  42.460   2.876
25834W        W91314  13.240  11.235   0.329
25835W        W91315   6.387   5.829   2.732
25836W        W91316  38.052  44.918   0.966
25837W        W91317  20.679  16.577   3.347
25838W        W91318  16.766  21.241   3.352
25839W        W91319  15.134  44.315  14.972
25840W        W91320  13.613   1.472  10.487
25841W        W91321  22.672  35.999   2.758
25842W        W91322   7.885  43.910  14.375
25843W        W91323  31.435  31.932   4.684
25844W        W91324  35.475  42.781   4.238
25845W        W91325  10.369  13.175   3.692
25846W        W91326  17.601  15.581  10.611
25847W        W91327  15.157  16.770   1.237
25848W        W91328  35.946  43.930   3.836
25849W        W91329  13.134  33.537   1.309
25850W        W91330  25.581  17.632   0.387
25851W        W91331  29.034  42.322   4.349
25852W        W91332  10.138   4.368   5.293
25853W        W91333  24.027  28.444  13.527
25854W        W91334  24.667  36.360   4.254
25855W        W91335  10.383   3.932   2.396
25856W        W91336   5.852  23.629   0.871
25857W        W91337  16.097  36.908  10.890
25858W        W91338  13.720  27.603   2.866
25859W        W91339   4.922  27.096  13.003
25860W        W91340  26.623  29.626  14.395
25861W        W91341   9.808   0.929   3.155
25862W        W91342  15.232  30.504  12.416
25863W        W91343  13.656  25.146   4.802
25864W        W91344  37.489  34.543  13.064
25865W        W91345  36.892   1.462   1.302
25866W        W91346  31.570  40.406  10.535
25867W        W91347  12.247  33.522  14.385
25868W        W91348  18.271  44.932  13.954
25869W        W91349  16.630  26.192   1.746
25870W        W91350  40.965  18.699  13.522
25871W        W91351  20.047  29.086  14.452
25872W        W91352   5.927  12.353  13.334
25873W        W91353  24.705  23.133  11.431
25874W        W91354  44.327  11.203   0.399
25875W        W91355   4.293  40.517   0.915
25876W        W91356   6.307  41.014   0.740
25877W        W91357  20.063  18.648  12.503
25878W        W91358   7.282  17.650   4.139
25879W        W91359  19.278  13.615   2.871
25880W        W91360  18.769  20.080   1.269
25881W        W91361  27.679   5.704   2.317
25882W        W91362  40.516  17.709  12.042
25883W        W91363   3.792  23.711  10.462
25884W        W91364  28.530  31.968   3.739
25885W        W91365  28.947  41.954   0.755
25886W        W91366   9.200   2.366   4.247
25887W        W91367  12.654   0.457   0.834
25888W        W91368  29.475  12.165  14.331
25889W        W91369  37.387  24.710   1.431
25890W        W91370  36.468  19.184   4.267
25891W        W91371  37.420  44.502   0.852
25892W        W91372  26.127   6.317   3.180
25893W        W91373  12.342  25.004   3.265
25894W        W91374   8.747  42.870  13.321
25895W        W91375   4.347  24.646  11.963
25896W        W91376  15.269   4.223   3.777
25897W        W91377   9.800  19.120   0.317
25898W        W91378  11.300   1.977  13.855
25899W        W91379  32.961  18.748   2.855
25900W        W91380  18.062  19.193   1.849
25901W        W91381  15.817  11.147   3.309
25902W        W91382  40.433  36.535  10.557
25903W        W91383  37.834  13.722   0.841
25904W        W91384  24.083   3.768  12.916
25905W        W91385  29.583   0.743  11.607
25906W        W91386  16.096  42.447  12.028
25907W        W91387  41.034  36.851  11.389
25908W        W91388   1.896  26.511   4.315
25909W        W91389  43.488  17.265  13.056
25910W        W91390  29.101   1.901   1.233
25911W        W91391  21.110  14.275  11.857
25912W        W91392  20.717   2.349   0.886
25913W        W91393   2.439  23.044  10.996
25914W        W91394   9.374  17.090  11.035
25915W        W91395  16.601  40.923   4.749
25916W        W91396  25.631  25.141  12.485
25917W        W91397  37.004   7.230   2.715
25918W        W91398  38.853  43.419  11.121
25919W        W91399  38.025  12.787  11.861
25920W        W91400  41.525  19.537  11.877
25921W        W91401   4.246  35.906   2.692
25922W        W91402   9.253  12.824  14.763
25923W        W91403  39.809  37.428  12.556
25924W        W91404  29.503  30.012   2.743
25925W        W91405  25.072  23.231  12.526
25926W        W91406   1.966  42.520  12.521
25927W        W91407   3.827  26.486   3.741
25928W        W91408  24.566   3.315   4.600
25929W        W91409  36.855  13.132   3.382
25930W        W91410  18.663  23.008  10.625
25931W        W91411   7.840   2.446   4.172
25932W        W91412  14.757  10.674   0.457
25933W        W91413  30.096  32.038  13.392
25934W        W91414  15.155  40.982  14.804
25935W        W91415  15.743  26.056   3.212
25936W        W91416  35.380  41.378  11.006
25937W        W91417   7.386  44.341  12.873
25938W        W91418  22.166  17.101  13.962
25939W        W91419  17.074  42.362  12.855
25940W        W91420  11.842   9.268   3.650
25941W        W91421  29.538  17.767  10.943
25942W        W91422  17.224  39.361  14.863
25943W        W91423  22.519  27.987  11.052
25944W        W91424  26.164  15.318   2.273
25945W        W91425  24.657  27.083   1.324
25946W        W91426   6.219  18.164  11.583
25947W        W91427  34.420  40.933   3.338
25948W        W91428   6.281  14.262   0.329
25949W        W91429  42.012  25.112  14.464
25950W        W91430  24.578  22.138   0.267
25951W        W91431  31.022  30.035   4.818
25952W        W91432  39.432  11.790   1.696
25953W        W91433   5.262   6.876   4.799
25954W        W91434  37.504  41.017  14.284
25955W        W91435  32.543  30.438   4.187
25956W        W91436  38.989  27.495  14.976
25957W        W91437   6.404  41.456  10.143
25958W        W91438   9.290  34.982   4.707
25959W        W91439  29.470  26.628   3.824
25960W        W91440  18.082  34.865   0.411
25961W        W91441  26.112  38.411  14.795
25962W        W91442  20.208  13.172  14.886
25963W        W91443   8.238  32.395  14.913
25964W        W91444   3.854  38.067   4.198
25965W        W91445  16.134  12.705   2.278
25966W        W91446  11.361  18.579   4.743
25967W        W91447  39.464  18.243  14.895
25968W        W91448  38.475   5.297  14.313
25969W        W91449  25.690  44.008  11.007
25970W        W91450  21.116  15.309  11.585
25971W        W91451  31.428  41.303  12.094
25972W        W91452   5.358  27.518   4.266
25973W        W91453  19.772  10.272   4.678
25974W        W91454  23.135  16.195   2.357
25975W        W91455  28.577   4.307  14.500
25976W        W91456  13.346  33.936   1.706
25977W        W91457  37.439   9.388   2.788
25978W        W91458  35.385  24.977   4.786
25979W        W91459  42.502  44.472   9.936
25980W        W91460  26.981  26.161  11.080
25981W        W91461  38.434  26.143   4.688
25982W        W91462  43.340  21.662   3.709
25983W        W91463  28.481   4.855  13.548
25984W        W91464  32.500  14.745   4.788
25985W        W91465   1.835  40.008  14.484
25986W        W91466  16.110  38.844  11.061
25987W        W91467  35.598  16.566   0.398
25988W        W91468  38.927  29.992  12.483
25989W        W91469   5.744   4.364   1.808
25990W        W91470  10.380  34.870   0.945
25991W        W91471   0.477   6.194  12.908
25992W        W91472   2.767  37.994  12.498
25993W        W91473   6.887  22.143   4.149
25994W        W91474  34.038  39.384  13.842
25995W        W91475  18.062  42.825  13.325
25996W        W91476   5.349  42.484  14.299
25997W        W91477  14.310   5.789  14.871
25998W        W91478  22.600  22.208  13.328
25999W        W91479  34.537  21.126  14.808
26000W        W91480  31.536  15.097   0.895
26001W        W91481  20.606  23.660   0.359
26002W        W91482  36.954  14.226  11.426
26003W        W91483  40.303   7.897   2.728
26004W        W91484  30.015  16.297   1.753
26005W        W91485  30.564  27.473  11.446
26006W        W91486  10.727  40.901   3.357
26007W        W91487  32.051  20.683   1.861
26008W        W91488  12.327   2.404  12.533
26009W        W91489  27.981   2.856  12.033
26010W        W91490  13.625  27.192   2.303
26011W        W91491  20.183  13.711   2.202
26012W        W91492  18.558  27.447  13.008
26013W        W91493  11.841  19.123  10.561
26014W        W91494  21.222  19.086   2.343
26015W        W91495  10.683  21.174  14.995
26016W        W91496  12.150  27.975   1.841
26017W        W91497  19.047  20.605  14.797
26018W        W91498   0.942   5.739   0.881
26019W        W91499  31.019  32.556   1.739
26020W        W91500  18.780   4.891  10.435
26021W        W91501  43.858  43.408   1.305
26022W        W91502   2.403  24.126   1.221
26023W        W91503  38.973  32.518  13.057
26024W        W91504  42.337  13.803  14.305
26025W        W91505  14.682  12.820   0.882
26026W        W91506   4.278  33.535   3.368
26027W        W91507  16.143   8.199  12.927
26028W        W91508   9.259  10.205  11.571
26029W        W91509   4.420   8.815   2.814
26030W        W91510  22.230  40.379  10.555
26031W        W91511  11.315  17.682   1.395
26032W        W91512  34.056  40.484   0.795
26033W        W91513  10.741  32.026   1.771
26034W        W91514  31.602  11.187  14.957
26035W        W91515  28.967  41.481  11.606
26036W        W91516   8.351   7.899  12.374
26037W        W91517  21.757  24.155   4.345
26038W        W91518  30.524   8.385  14.829
26039W        W91519  22.087  16.798  12.072
26040W        W91520  28.453   9.160   4.653
26041W        W91521  32.482  32.630   2.286
26042W        W91522   2.227   3.351  14.830
26043W        W91523  16.239   4.875   0.482
26044W        W91524  41.901  28.610   2.215
26045W        W91525  44.870  43.907  12.871
26046W        W91526   3.340  31.464  12.833
26047W        W91527   3.243   1.382   4.266
26048W        W91528   3.927  36.531   0.761
26049W        W91529   7.341  38.367   3.863
26050W        W91530  31.034   7.835  13.397
26051W        W91531  18.182   2.858  11.091
26052W        W91532  36.890   4.781  14.005
26053W        W91533  21.699  23.600   1.878
26054W        W91534  17.612  33.987   0.283
26055W        W91535  34.975  23.556  11.419
26056W        W91536   9.168  25.211   0.875
26057W        W91537   0.897  37.374   1.821
26058W        W91538  41.913  43.798   4.261
26059W        W91539   5.933   4.910   2.246
26060W        W91540  28.522  23.044  10.546
26061W        W91541  13.156  21.042  13.439
26062W        W91542  16.290  29.134   2.326
26063W        W91543  15.292  41.327   3.241
26064W        W91544  25.473  38.955   1.369
26065W        W91545  17.215   3.938   4.792
26066W        W91546  42.007  30.640   0.418
26067W        W91547  41.316   8.291   1.211
26068W        W91548  38.350  17.295   3.295
26069W        W91549  26.081  43.963   0.879
26070W        W91550  21.216  18.754   4.833
26071W        W91551  12.314  35.960   0.891
26072W        W91552  40.526  10.324  10.446
26073W        W91553  18.683  27.671   2.738
26074W        W91554   7.741   7.691  14.005
26075W        W91555  40.453  15.208  12.981
26076W        W91556  10.358  36.935   0.407
26077W        W91557   7.841   9.160  14.790
26078W        W91558  11.792  34.530   2.797
26079W        W91559  25.114  19.198  12.978
26080W        W91560  34.006  26.090  14.316
26081W        W91561  26.690  14.157  13.980
26082W        W91562  34.074   3.309  14.359
26083W        W91563  41.807  21.126   0.735
26084W        W91564  24.568  40.006   4.791
26085W        W91565   5.850   2.904  13.827
26086W        W91566  20.579  40.347   4.659
26087W        W91567  24.614  18.567  13.529
26088W        W91568  35.892   1.878   4.740
26089W        W91569  18.587   3.897  11.389
26090W        W91570  27.196  20.567  12.844
26091W        W91571  28.655  43.899   3.694
26092W        W91572  18.086   8.719  11.983
26093W        W91573  23.137  34.487   0.907
26094W        W91574  30.530  26.115   4.809
26095W        W91575  27.159   0.250   2.394
26096W        W91576   2.226  16.725   2.247
26097W        W91577  14.759  18.721  10.150
26098W        W91578  39.448   4.848  13.992
26099W        W91579   4.871  18.673   4.701
26100W        W91580  18.547   1.250  14.368
26101W        W91581  21.124  28.023   3.350
26102W        W91582  16.188   1.916  14.993
26103W        W91583  37.961  27.192   2.826
26104W        W91584  21.118  17.217  14.942
26105W        W91585  14.750  31.507   1.411
26106W        W91586  39.334  20.104   1.227
26107W        W91587   2.821  27.148   1.802
26108W        W91588  25.199   6.742   0.840
26109W        W91589  22.125  29.574  12.532
26110W        W91590  43.818   7.255  13.819
26111W        W91591  28.077  28.074  14.422
26112W        W91592  18.788   9.167  12.369
26113W        W91593  41.313  20.529  11.518
26114W        W91594  20.033  26.952   2.351
26115W        W91595  26.144  26.507   1.356
26116W        W91596   1.482   1.812   4.301
26117W        W91597  27.951  36.433  12.830
26118W        W91598   3.785   5.299   2.842
26119W        W91599  25.693  15.654  12.079
26120W        W91600  32.504  30.087   1.848
26121W        W91601   8.256  12.692   3.209
26122W        W91602  30.962   8.184  12.047
26123W        W91603  32.989  32.632  11.578
26124W        W91604  11.754  22.662   2.311
26125W        W91605  19.158  44.899   0.869
26126W        W91606  13.292  29.624  14.410
26127W        W91607  23.686  12.342   0.949
26128W        W91608  19.210  18.081   3.822
26129W        W91609  14.701  35.887   1.811
26130W        W91610   5.322  41.338  11.487
26131W        W91611   3.408   0.806   4.182
26132W        W91612   3.409  34.863   2.897
26133W        W91613   5.701  35.923   0.454
26134W        W91614   7.363   3.721   4.201
26135W        W91615  24.056  13.208  12.976
26136W        W91616   5.262  15.212   4.298
26137W        W91617   3.408  31.566   2.344
26138W        W91618   7.840  36.416  14.945
26139W        W91619  12.759  12.705  14.030
26140W        W91620   3.895  44.417   2.301
26141W        W91621   4.866  20.169   5.099
26142W        W91622   4.755   3.232  12.409
26143W        W91623  27.117  31.021  13.888
26144W        W91624  28.931  37.046  14.313
26145W        W91625  10.750  40.806  12.446
26146W        W91626  41.470   6.343   0.784
26147W        W91627  25.616  34.880   0.269
26148W        W91628   7.696  11.644   1.272
26149W        W91629   7.903  20.566   1.371
26150W        W91630  19.046  23.179   1.299
26151W        W91631  36.901  42.782   3.180
26152W        W91632  15.124  13.621   4.280
26153W        W91633   6.241  10.841  10.072
26154W        W91634  20.216  43.354   2.691
26155W        W91635  31.078   7.794   3.330
26156W        W91636   6.876   5.815   4.775
26157W        W91637  25.677  29.561  11.869
26158W        W91638  23.614  13.142  11.970
26159W        W91639  17.577   8.782   2.675
26160W        W91640  16.301  19.653  10.439
26161W        W91641  29.609  34.043   2.703
26162W        W91642   2.908  16.674   2.365
26163W        W91643  16.580  21.733   1.308
26164W        W91644  12.701  37.954  13.858
26165W        W91645  10.376  40.955   1.382
26166W        W91646  33.015  36.971  12.547
26167W        W91647  24.598  37.914  12.916
26168W        W91648  41.305  26.596   1.233
26169W        W91649  28.669  27.100   3.765
26170W        W91650  32.903  16.280   1.873
26171W        W91651   1.889  13.779  12.427
26172W        W91652   0.874  32.085  12.890
26173W        W91653  41.981  12.848  13.440
26174W        W91654  43.961  14.787  13.001
26175W        W91655  34.394  17.569   1.848
26176W        W91656  30.654  25.689  12.042
26177W        W91657  26.573   5.908   0.446
26178W        W91658   9.850  22.222   4.199
26179W        W91659  30.434  26.541   0.959
26180W        W91660  34.083  18.154   2.802
26181W        W91661  40.831  32.946   0.413
26182W        W91662  24.555  14.097  13.993
26183W        W91663  29.998  26.690  12.967
26184W        W91664  27.607  24.698  11.605
26185W        W91665  32.427   0.824  13.348
26186W        W91666   4.843   9.378   4.273
26187W        W91667  38.837   8.199  10.156
26188W        W91668   7.412  34.387  11.090
26189W        W91669  35.537  20.257   1.411
26190W        W91670  18.738  19.091   2.674
26191W        W91671  28.566   0.881   9.970
26192W        W91672  13.271  23.681   4.247
26193W        W91673   4.318  19.753  12.449
26194W        W91674  22.024  16.802  11.400
26195W        W91675  40.455  14.731   1.302
26196W        W91676  40.037  38.068  13.470
26197W        W91677  25.681  36.952   2.852
26198W        W91678  30.577  19.636  14.371
26199W        W91679  27.615  36.035   0.947
26200W        W91680  14.816  25.167   2.182
26201W        W91681  42.281  12.657   0.412
26202W        W91682  18.066  23.619  12.090
26203W        W91683   8.259  40.004   4.660
26204W        W91684   5.242  40.326  11.984
26205W        W91685  22.687  44.493  10.981
26206W        W91686  23.165  31.575   0.459
26207W        W91687  41.899  30.139  14.332
26208W        W91688  39.486  28.999  14.295
26209W        W91689   4.934  33.961   3.704
26210W        W91690  36.891  13.726  14.977
26211W        W91691  24.530  15.218   1.801
26212W        W91692   9.845  11.752   0.325
26213W        W91693  32.429  16.677   3.314
26214W        W91694   8.315  26.088  14.971
26215W        W91695  33.421  29.571  13.519
26216W        W91696  38.857   3.370  12.020
26217W        W91697  22.591  43.934   4.335
26218W        W91698  44.940   1.299   1.268
26219W        W91699  15.242  43.453   1.731
26220W        W91700  36.996   1.788   1.282
26221W        W91701  13.658  44.408   1.400
26222W        W91702  29.079  29.665   1.905
26223W        W91703  31.422  23.105   0.796
26224W        W91704  29.446   9.213   0.886
26225W        W91705  31.569   0.444   1.753
26226W        W91706   9.213  31.959   1.211
26227W        W91707  19.138  23.989   1.918
26228W        W91708   3.796  38.494   4.799
26229W        W91709  44.970  15.587  10.106
26230W        W91710  39.978  27.120  13.436
26231W        W91711  36.351  30.106  11.589
26232W        W91712   0.291  18.687   2.717
26233W        W91713  38.553  19.634   5.203
26234W        W91714  31.408  14.659   4.174
26235W        W91715  20.750   6.333   2.379
26236W        W91716   4.216  44.272   2.853
26237W        W91717  21.560  23.567  10.912
26238W        W91718   2.764  20.200  10.485
26239W        W91719  25.081  22.231   4.195
26240W        W91720  14.801   5.424  13.810
26241W        W91721  40.992  21.081   0.284
26242W        W91722  21.749  40.846  11.911
26243W        W91723   2.795  23.720   3.200
26244W        W91724  38.529  41.378   2.367
26245W        W91725  18.614  16.276   2.332
26246W        W91726  19.042  34.046  12.901
26247W        W91727  40.412  32.484   1.282
26248W        W91728  32.937   0.302   4.782
26249W        W91729  24.489   3.390  10.959
26250W        W91730  36.497  42.506  13.403
26251W        W91731  18.167  34.588   3.335
26252W        W91732  25.106   0.370  13.887
26253W        W91733  30.016  31.458  10.645
26254W        W91734  18.097  42.951  14.323
26255W        W91735  17.187   5.704  11.505
26256W        W91736   5.282   9.340   1.831
26257W        W91737  35.085  23.203  10.925
26258W        W91738  27.494   5.260  13.412
26259W        W91739  38.072  16.581   4.719
26260W        W91740  39.323  33.036  12.568
26261W        W91741  43.974  37.002   0.284
26262W        W91742  23.603  33.534   0.454
26263W        W91743  36.036  44.300   4.726
26264W        W91744  37.897   8.174  14.510
26265W        W91745  25.203  25.089  11.855
26266W        W91746   7.283   1.908  12.987
26267W        W91747  37.969  41.814   4.214
26268W        W91748   2.465  16.142   4.717
26269W        W91749  23.995  36.383   3.851
26270W        W91750   2.869   3.846  13.542
26271W        W91751  19.766  43.930   3.703
26272W        W91752  22.604  20.688   2.711
26273W        W91753  22.049  39.408  12.573
26274W        W91754  28.603  18.284  13.974
26275W        W91755  34.977   3.280   4.730
26276W        W91756  35.407   4.827   4.247
26277W        W91757  16.572   3.252  14.346
26278W        W91758  32.493  31.089  12.573
26279W        W91759   0.885  43.782  14.361
26280W        W91760   4.903  43.979  11.511
26281W        W91761  29.017   5.317  12.523
26282W        W91762  42.784  26.206  11.399
26283W        W91763   0.303  40.996  13.434
26284W        W91764  21.173  35.914  14.987
26285W        W91765   0.852  34.899   4.601
26286W        W91766  13.625  30.442   4.317
26287W        W91767  15.241   2.363  12.025
26288W        W91768   3.326  14.300   3.850
26289W        W91769   8.222  31.002  14.284
26290W        W91770  33.438  21.178   3.177
26291W        W91771  17.634  29.952  13.890
26292W        W91772  11.150  29.541  12.906
26293W        W91773   9.800  35.947   3.694
26294W        W91774  28.631  32.983  14.771
26295W        W91775  24.589  13.303  14.005
26296W        W91776   0.799   3.440   1.302
26297W        W91777  31.064   9.645  10.580
26298W        W91778   7.789   3.261   3.668
26299W        W91779  30.055  14.761   4.157
26300W        W91780   7.377   0.808   1.715
26301W        W91781   0.950  20.548   1.806
26302W        W91782  25.188  20.076  14.469
26303W        W91783   3.348  44.872   3.374
26304W        W91784  26.527  26.980   4.770
26305W        W91785   9.754   2.825  13.912
26306W        W91786  36.846  18.753   1.270
26307W        W91787   2.766   2.727  14.017
26308W        W91788  26.087  39.034   4.195
26309W        W91789  34.002  37.410  12.406
26310W        W91790  39.540  26.144   2.704
26311W        W91791  31.493  23.202  14.974
26312W        W91792  17.767  40.337   2.734
26313W        W91793  30.046   3.401  10.495
26314W        W91794  44.866  24.156  11.057
26315W        W91795  11.280  37.848  14.324
26316W        W91796   5.898   4.711  11.086
26317W        W91797  36.491  38.466   4.289
26318W        W91798  37.897  40.872  14.905
26319W        W91799  24.147  10.785   3.344
26320W        W91800  18.702  16.575   1.366
26321W        W91801  19.236   2.922   4.773
26322W        W91802  32.460  34.906  10.626
26323W        W91803  18.264  25.550   2.247
26324W        W91804   2.918   5.233   2.857
26325W        W91805   1.873  20.629  13.348
26326W        W91806  17.216  25.677   5.292
26327W        W91807  27.587   1.761  13.920
26328W        W91808  37.909  20.201  12.523
26329W        W91809  44.863   9.696   1.847
26330W        W91810   5.921   6.422  12.461
26331W        W91811  15.109   8.335   0.328
26332W        W91812  11.203   2.447  14.335
26333W        W91813  24.997  21.033  11.404
26334W        W91814  40.313  26.070   2.383
26335W        W91815   9.839  29.426  10.532
26336W        W91816   5.784   8.199  11.549
26337W        W91817   3.259  34.500  12.419
26338W        W91818   4.312  38.012  13.973
26339W        W91819  28.959  17.128   3.772
26340W        W91820  40.016   1.760  12.977
26341W        W91821   8.771  29.514  11.896
26342W        W91822  31.049  35.937   4.715
26343W        W91823  44.869  24.652   1.749
26344W        W91824  19.647  34.096  13.941
26345W        W91825  44.377  36.392   4.353
26346W        W91826  41.382  44.311   0.456
26347W        W91827   6.783  37.042  10.464
26348W        W91828  26.205  26.473   1.901
26349W        W91829  18.274   1.733   0.914
26350W        W91830   0.742  33.131  13.917
26351W        W91831  30.604  23.104  12.995
26352W        W91832  13.305  15.156   3.655
26353W        W91833   5.875  25.553   2.238
26354W        W91834  43.921  36.947  10.468
26355W        W91835  23.219  15.605  10.528
26356W        W91836  40.834   7.387  11.100
26357W        W91837  24.213   2.722  14.939
26358W        W91838  25.026  21.734  14.420
26359W        W91839  19.552  34.988   0.421
26360W        W91840   8.181  20.219  12.383
26361W        W91841  27.960  17.202  13.873
26362W        W91842   5.911  21.082  14.797
26363W        W91843  33.920  18.727   3.150
26364W        W91844  21.061   7.401   4.600
26365W        W91845  30.605   6.785  13.378
26366W        W91846   6.811  18.550  12.413
26367W        W91847  24.499   0.807  13.870
26368W        W91848  24.227  24.095  10.438
26369W        W91849  22.646   7.202   1.701
26370W        W91850  20.556  14.337  11.410
26371W        W91851   7.194  26.084  14.486
26372W        W91852  20.264   3.873   0.248
26373W        W91853   5.375  37.388  11.453
26374W        W91854  42.843   9.371  12.967
26375W        W91855  18.602  16.267  13.546
26376W        W91856   1.798  20.665  14.856
26377W        W91857  43.432  18.064  12.496
26378W        W91858   1.431  42.350   1.395
26379W        W91859  27.615  36.081   4.276
26380W        W91860  35.859  41.938  12.999
26381W        W91861   0.472  32.618   4.602
26382W        W91862  17.298   4.365   3.172
26383W        W91863  32.086   5.284   0.423
26384W        W91864  27.583  21.532   4.695
26385W        W91865  23.189   1.330   3.273
26386W        W91866  10.380  32.406   1.790
26387W        W91867  44.338  26.679   2.699
26388W        W91868  32.585  19.533  14.464
26389W        W91869  33.464  18.719   0.902
26390W        W91870  26.205  11.358  10.968
26391W        W91871  18.706  31.596  10.592
26392W        W91872  22.224  22.201  12.495
26393W        W91873   1.373  32.993   4.597
26394W        W91874  35.594   1.432  10.612
26395W        W91875  32.031  38.914  10.418
26396W        W91876  30.617  34.916  12.369
26397W        W91877   4.259  37.953  14.380
26398W        W91878  11.635   8.726  12.904
26399W        W91879  18.712  43.960  13.011
26400W        W91880  16.108   5.880  11.583
26401W        W91881  28.117   2.319   2.259
26402W        W91882   9.885  42.294  10.460
26403W        W91883  20.769  29.460  12.857
26404W        W91884  10.712  13.348   3.800
26405W        W91885   8.849  43.906   1.933
26406W        W91886  22.008  36.582   3.781
26407W        W91887  18.736  38.897  14.428
26408W        W91888  36.553  39.488   3.258
26409W        W91889  13.120  36.368   1.810
26410W        W91890  41.809  30.569   4.287
26411W        W91891   0.979   9.358   2.310
26412W        W91892  23.529  22.128  14.387
26413W        W91893  36.529   5.290   4.652
26414W        W91894  44.432  23.053  11.054
26415W        W91895   4.261  26.143  13.949
26416W        W91896  40.965  20.541  13.985
26417W        W91897  21.091   8.806   5.608
26418W        W91898  22.600  40.501   1.438
26419W        W91899   1.901  29.548  13.448
26420W        W91900  11.236  29.062   4.627
26421W        W91901  27.692  22.141   4.216
26422W        W91902   8.836   2.304   3.817
26423W        W91903  28.434  16.738   2.702
26424W        W91904   7.284  16.793   0.474
26425W        W91905  12.184  12.785   3.640
26426W        W91906   3.838  24.656   2.728
26427W        W91907  28.990  28.176   1.297
26428W        W91908  42.472  23.039   4.239
26429W        W91909  12.276   3.349   3.652
26430W        W91910  41.344  44.965  14.436
26431W        W91911  37.451   4.244  11.899
26432W        W91912   8.765  17.190  12.849
26433W        W91913  25.560  34.946   1.734
26434W        W91914  19.575   5.274   2.826
26435W        W91915  22.236  33.999   3.218
26436W        W91916  42.990   7.845   2.276
26437W        W91917  26.196  17.793  12.437
26438W        W91918  19.651  10.179  11.574
26439W        W91919   6.244  41.922   1.322
26440W        W91920  23.616   4.316   4.125
26441W        W91921  16.246  13.238  12.871
26442W        W91922   4.753  42.786  12.553
26443W        W91923   8.889  22.176  14.801
26444W        W91924  34.466  39.430   0.914
26445W        W91925   9.264   0.950  14.841
26446W        W91926  26.164  33.918   3.773
26447W        W91927  19.094  28.104   0.770
26448W        W91928  29.150  14.753   2.898
26449W        W91929  19.161  32.092  12.470
26450W        W91930  17.706  43.997   4.132
26451W        W91931  21.653  27.492  10.570
26452W        W91932  44.899  36.484   3.700
26453W        W91933  12.614   3.879  10.587
26454W        W91934  43.885  24.570   4.162
26455W        W91935  43.477  22.521  11.055
26456W        W91936  13.149  29.165  14.808
26457W        W91937  22.594  33.539   2.684
26458W        W91938  42.382  39.822   3.237
26459W        W91939  32.027  21.253  14.794
26460W        W91940  41.026  24.171   1.370
26461W        W91941  19.204  26.653   1.814
26462W        W91942  16.657  41.299   3.720
26463W        W91943  15.807  44.449  12.933
26464W        W91944  18.287  21.532   3.372
26465W        W91945  36.851  12.713  14.864
26466W        W91946   8.657  38.928  10.428
26467W        W91947  26.565  34.445  11.113
26468W        W91948  21.045  42.964   3.263
26469W        W91949  14.309  17.254   4.252
26470W        W91950  15.675  11.636   4.262
26471W        W91951  36.386  13.656  13.905
26472W        W91952  15.210   4.434   1.394
26473W        W91953  22.160  17.799   0.926
26474W        W91954  39.421  40.879   1.253
26475W        W91955  36.581  29.148   1.407
26476W        W91956  13.626  34.481   1.345
26477W        W91957   8.324  38.019  13.025
26478W        W91958  16.139  17.190   2.281
26479W        W91959  38.547  39.514   0.875
26480W        W91960  12.636  36.525  14.020
26481W        W91961  30.946  36.413  14.429
26482W        W91962  34.948  14.231  10.416
26483W        W91963   5.768  22.086   3.188
26484W        W91964  37.079  19.597   3.853
26485W        W91965  15.586  37.498   1.423
26486W        W91966  14.795  37.889  14.437
26487W        W91967   5.896  21.674  11.058
26488W        W91968   1.258  14.230   3.699
26489W        W91969  14.697  33.126  14.957
26490W        W91970  20.642  44.990  14.487
26491W        W91971  39.480  10.821  14.968
26492W        W91972   8.330  35.395   1.805
26493W        W91973  12.621  11.260   3.858
26494W        W91974  20.726  16.140   0.770
26495W        W91975  15.630  21.721   0.854
26496W        W91976   8.743  10.668  14.293
26497W        W91977   1.369  21.549   1.849
26498W        W91978  13.704   7.275   3.694
26499W        W91979   9.883  11.640  13.379
26500W        W91980  39.028   8.345   1.438
26501W        W91981  43.327  42.907  10.569
26502W        W91982  14.184  29.174  13.827
26503W        W91983  43.829  15.165  11.078
26504W        W91984  32.985   3.744   0.785
26505W        W91985   4.211  43.016   2.187
26506W        W91986  26.010  24.162   2.385
26507W        W91987   3.762  22.553  14.388
26508W        W91988  40.883   6.894   1.382
26509W        W91989  18.606   3.452   0.254
26510W        W91990   5.424  33.912  11.611
26511W        W91991  18.153  19.560  13.897
26512W        W91992  30.914  28.145  11.046
26513W        W91993   2.825  39.940   4.833
26514W        W91994  30.575  31.960   2.862
26515W        W91995  41.428  13.768  11.586
26516W        W91996  32.945  44.892   2.893
26517W        W91997  29.166   2.766  14.498
26518W        W91998  11.768  37.875  10.404
26519W        W91999  32.112  33.404   0.367
26520W        W92000   7.811  30.429  10.135
26521W        W92001  18.148  43.984   3.209
26522W        W92002  13.664  42.918   0.397
26523W        W92003  28.003  33.000   3.694
26524W        W92004  19.166  29.643   3.714
26525W        W92005  40.921  36.006  13.509
26526W        W92006  17.627  35.561  12.030
26527W        W92007  14.110  11.220  14.772
26528W        W92008  37.873  16.747  11.950
26529W        W92009  37.384   7.907  11.585
26530W        W92010  22.037  19.631  12.084
26531W        W92011  27.087   5.794  12.498
26532W        W92012  39.541  18.129   0.940
26533W        W92013  23.222  36.350  14.500
26534W        W92014  41.534  38.897   0.962
26535W        W92015  43.987   8.761  10.542
26536W        W92016   9.362  43.499  11.892
26537W        W92017   0.960  39.535  12.378
26538W        W92018  42.488  44.374   3.752
26539W        W92019  40.927  16.773   1.802
26540W        W92020   3.266   2.944  12.529
26541W        W92021   8.895  44.430   0.473
26542W        W92022   4.249  15.159   0.307
26543W        W92023   6.804  34.055   0.870
26544W        W92024   2.923  11.232  14.030
26545W        W92025   2.395   3.224  11.474
26546W        W92026  10.181  26.197  12.499
26547W        W92027  37.501  32.433   3.222
26548W        W92028  18.251   7.708   0.385
26549W        W92029  41.810  38.562   2.712
26550W        W92030  30.910  12.296  13.982
26551W        W92031   9.379  41.480   0.414
26552W        W92032  21.244   4.235  12.347
26553W        W92033  30.955  22.169   2.725
26554W        W92034   2.388  14.215   0.296
26555W        W92035  20.736  30.560  14.478
26556W        W92036   1.302   2.452  11.515
26557W        W92037  42.955  44.979   3.286
26558W        W92038  21.629  10.699   3.200
26559W        W92039  11.621  42.855  13.861
26560W        W92040   5.718  17.184  11.426
26561W        W92041   6.687   4.342   1.233
26562W        W92042  35.532  31.474   2.325
26563W        W92043  17.600   8.214  13.888
26564W        W92044  15.653   3.949   1.299
26565W        W92045   0.874   8.687   1.908
26566W        W92046  21.585  29.153   2.201
26567W        W92047  34.546  13.216   4.257
26568W        W92048   0.791  33.926   1.902
26569W        W92049  13.828  11.148   0.926
26570W        W92050   2.452  33.116  14.029
26571W        W92051  44.776  12.244  13.543
26572W        W92052  18.228  11.270  12.072
26573W        W92053  44.932  33.559  13.395
26574W        W92054  36.494  44.407  13.863
26575W        W92055  12.251  32.589  14.473
26576W        W92056   9.710  37.946   3.817
26577W        W92057  18.057  32.044  12.404
26578W        W92058   4.391   0.259  12.873
26579W        W92059  25.963  18.142  12.546
26580W        W92060  43.887  32.526  14.508
26581W        W92061   6.188   0.298   4.322
26582W        W92062  25.521  25.116  13.356
26583W        W92063  33.626  29.482   2.764
26584W        W92064  19.132  44.813   3.230
26585W        W92065  23.146  30.019  10.940
26586W        W92066  29.474  31.132   0.816
26587W        W92067   0.385  23.683  11.400
26588W        W92068  12.769  39.440  14.869
26589W        W92069  13.844  33.072  13.541
26590W        W92070  23.595  18.601  14.776
26591W        W92071  26.604  35.368   3.785
26592W        W92072  21.237  43.959   4.768
26593W        W92073  37.529  19.533   0.752
26594W        W92074  11.753  14.692   2.252
26595W        W92075  26.157  39.966  11.122
26596W        W92076  30.434   2.966   0.319
26597W        W92077   4.325  31.424  12.086
26598W        W92078  15.324  25.630   3.632
26599W        W92079  33.431  42.898   3.294
26600W        W92080  19.571   9.271  14.902
26601W        W92081  31.910  12.776  12.452
26602W        W92082  31.957   0.959  11.057
26603W        W92083  32.114   9.776   3.185
26604W        W92084  38.402  16.219   1.387
26605W        W92085  39.025  29.448   5.287
26606W        W92086   7.692  18.256  12.549
26607W        W92087  31.012  14.199  14.493
26608W        W92088  32.967  43.824  14.770
26609W        W92089  12.359  23.508   3.214
26610W        W92090  31.024  38.410   9.556
26611W        W92091  26.459   2.723  13.874
26612W        W92092  14.261  23.144   1.367
26613W        W92093   1.914  21.651  11.048
26614W        W92094  15.230  37.943   0.964
26615W        W92095   5.800  18.163   0.432
26616W        W92096  28.135  13.753  11.930
26617W        W92097  42.402  23.120  10.947
26618W        W92098  35.997   1.464  10.425
26619W        W92099   0.356  38.995   4.631
26620W        W92100  34.871  36.025  11.926
26621W        W92101  23.020  10.329   2.254
26622W        W92102  18.613   9.820   2.273
26623W        W92103  14.327  15.245  14.285
26624W        W92104  20.106  17.292   1.392
26625W        W92105  27.605   0.817   3.362
26626W        W92106  37.416  29.140   3.712
26627W        W92107  41.931   9.303  12.895
26628W        W92108   9.727  37.492  14.861
26629W        W92109  26.954   6.739   1.878
26630W        W92110  37.547  39.332  14.484
26631W        W92111   6.278  23.133  11.068
26632W        W92112  13.801  27.042  11.111
26633W        W92113  22.106  40.466  13.885
26634W        W92114  43.306  40.543   2.394
26635W        W92115  41.328  11.264   2.380
26636W        W92116  30.159  11.737  13.016
26637W        W92117  37.450  28.634  10.431
26638W        W92118  26.062  40.867  12.428
26639W        W92119  40.903  38.374  10.549
26640W        W92120  39.429   9.263  13.344
26641W        W92121  33.596  23.207   3.352
26642W        W92122   2.247  20.048  13.368
26643W        W92123  35.454  32.130   2.706
26644W        W92124  42.400  13.802   4.731
26645W        W92125   0.985   6.392   3.356
26646W        W92126  31.898  38.541   1.297
26647W        W92127  40.844  16.312  12.086
26648W        W92128  34.933   0.476   1.217
26649W        W92129  30.602  41.520  14.804
26650W        W92130  42.375  41.991  14.329
26651W        W92131   5.295  26.089   1.288
26652W        W92132  12.239   3.806  14.921
26653W        W92133  22.252  21.113   3.360
26654W        W92134  18.160  25.040   9.473
26655W        W92135   7.882  41.962  12.342
26656W        W92136  12.310   9.722  12.462
26657W        W92137  13.139   3.745  12.918
26658W        W92138  23.059  23.503   3.376
26659W        W92139  44.993  14.589  12.084
26660W        W92140  11.205  28.108   1.387
26661W        W92141  27.136  17.657  11.476
26662W        W92142  18.651  13.685   0.451
26663W        W92143   0.886  17.279   0.322
26664W        W92144  10.813  19.082   2.316
26665W        W92145   8.251  36.564   3.248
26666W        W92146   9.343  28.072  12.852
26667W        W92147  27.182  16.163   4.675
26668W        W92148  43.901   1.870   1.256
26669W        W92149   6.232   5.870  10.405
26670W        W92150   1.977   8.219  14.289
26671W        W92151  40.013   8.396  14.989
26672W        W92152   3.331   4.387  12.918
26673W        W92153  36.353  26.545  12.556
26674W        W92154  19.624  13.291   1.806
26675W        W92155  35.419  27.685   2.356
26676W        W92156  27.009  33.516   3.220
26677W        W92157  36.875  38.518  12.022
26678W        W92158   9.294  36.437  13.419
26679W        W92159  37.437  26.976   1.756
26680W        W92160  35.869  13.107   0.855
26681W        W92161  15.647  12.642  14.995
26682W        W92162  21.572  19.624   5.210
26683W        W92163  42.833   4.241  13.020
26684W        W92164  42.784  42.322   2.349
26685W        W92165  17.583   7.320  12.379
26686W        W92166  15.637  28.510  13.386
26687W        W92167  36.848  20.618   0.303
26688W        W92168   7.184   2.960   0.932
26689W        W92169  39.011  12.852  11.452
26690W        W92170   5.824  37.881  14.448
26691W        W92171  17.778   3.295   4.328
26692W        W92172  27.190   4.769   0.362
26693W        W92173   2.381  43.924  10.517
26694W        W92174  16.775  40.991   2.231
26695W        W92175  17.226  28.142  13.814
26696W        W92176  42.918  38.565  13.057
26697W        W92177  41.306  42.405  14.488
26698W        W92178  15.693  28.130  14.400
26699W        W92179  19.107  36.453  10.468
26700W        W92180  29.611  33.107   4.332
26701W        W92181   0.375   2.880   1.330
26702W        W92182  19.584  33.421  13.382
26703W        W92183   9.377   4.311  13.064
26704W        W92184  19.258  16.648  14.334
26705W        W92185  19.611  36.918  12.456
26706W        W92186  11.199  31.987  12.488
26707W        W92187  18.136  32.468   3.754
26708W        W92188  13.833   3.451  13.456
26709W        W92189   3.260  17.774   3.180
26710W        W92190  35.993  43.815  10.930
26711W        W92191  34.004   7.372   3.336
26712W        W92192  29.167   8.278   2.408
26713W        W92193  27.670  35.912  13.385
26714W        W92194   3.766  19.169  13.838
26715W        W92195  33.013   6.201   3.825
26716W        W92196  32.459  20.130   1.426
26717W        W92197  26.480  42.448  14.828
26718W        W92198  21.061  22.724  12.052
26719W        W92199   3.421  19.674   3.801
26720W        W92200  35.374   9.358   4.760
26721W        W92201  37.926   5.797   3.839
26722W        W92202  13.333   0.882  10.602
26723W        W92203  41.836  16.572   0.777
26724W        W92204   1.387  35.463   4.695
26725W        W92205   9.739  19.594   3.193
26726W        W92206  19.712  21.680   3.324
26727W        W92207  29.519  40.302  11.544
26728W        W92208  35.076  11.303  10.031
26729W        W92209  34.995   5.419   2.717
26730W        W92210  26.188  36.056   1.295
26731W        W92211  44.800  32.614  13.829
26732W        W92212  25.674   3.754   2.403
26733W        W92213   0.426   8.765  12.438
26734W        W92214   3.313   0.358   3.240
26735W        W92215  24.146  23.534   0.465
26736W        W92216  39.371  38.863  11.021
26737W        W92217  24.162  32.125   0.858
26738W        W92218  32.624  42.893  11.921
26739W        W92219  23.718  17.794  11.044
26740W        W92220  12.250  20.052  12.953
26741W        W92221   2.936   5.838   4.320
26742W        W92222  18.631  29.157  11.950
26743W        W92223  22.585  34.484  13.001
26744W        W92224  27.067  16.251   3.292
26745W        W92225  16.196   5.330   4.119
26746W        W92226   7.665   0.800  14.942
26747W        W92227  33.877   3.280   2.310
26748W        W92228   8.237  29.949   3.150
26749W        W92229  26.034  13.843  14.464
26750W        W92230   4.239  11.691  10.415
26751W        W92231  44.900   4.204   1.218
26752W        W92232  26.482  31.638   3.248
26753W        W92233  41.900  44.372   1.303
26754W        W92234   5.748   5.762  14.875
26755W        W92235  39.546   9.763   2.376
26756W        W92236   4.230  23.005  12.466
26757W        W92237  44.913  21.616  10.615
26758W        W92238  12.220   9.836  13.849
26759W        W92239  25.171  28.134   3.647
26760W        W92240  27.010  30.496   2.744
26761W        W92241  38.500  26.483   0.269
26762W        W92242   8.818   2.800  14.998
26763W        W92243  18.790  18.600   2.867
26764W        W92244   2.362  43.457  11.975
26765W        W92245   1.389  37.355  11.426
26766W        W92246  30.624   9.827  13.334
26767W        W92247  35.587  27.196  14.315
26768W        W92248  10.333  28.004   1.251
26769W        W92249  21.722  33.897   0.403
26770W        W92250   0.252   7.906   0.325
26771W        W92251  39.934  10.810   1.853
26772W        W92252  42.905   4.214  13.953
26773W        W92253  41.838   6.805   4.788
26774W        W92254  12.651  31.050  13.844
26775W        W92255  36.432  14.648   3.313
26776W        W92256  16.311  16.805   2.384
26777W        W92257  25.123  32.016  12.571
26778W        W92258  22.066  13.604  12.861
26779W        W92259  12.658  31.042   4.708
26780W        W92260  38.412  43.967   0.745
26781W        W92261  43.289   7.299   1.301
26782W        W92262  18.732  39.544  10.515
26783W        W92263   4.424   4.927   0.736
26784W        W92264  37.371  36.043   3.742
26785W        W92265  26.652  34.407   0.918
26786W        W92266   2.272  23.538   0.429
26787W        W92267  36.005  15.596   5.243
26788W        W92268   5.825  39.352   2.407
26789W        W92269  31.411  32.456   4.685
26790W        W92270  39.939  17.078  11.492
26791W        W92271  41.959   9.181  12.560
26792W        W92272  43.899  42.349   0.269
26793W        W92273  37.918  24.230   3.763
26794W        W92274   2.471  30.078   1.260
26795W        W92275  43.305   1.292  10.522
26796W        W92276  22.544  37.840  11.395
26797W        W92277   2.954  25.165  13.898
26798W        W92278   1.897  44.419   1.919
26799W        W92279  21.702  30.414   0.744
26800W        W92280  31.931  38.472   4.333
26801W        W92281  18.675  17.157  10.005
26802W        W92282  44.277   9.272  12.915
26803W        W92283  33.614  29.992  12.873
26804W        W92284  28.560  40.819   4.173
26805W        W92285   0.277  15.182  12.823
26806W        W92286   9.226  25.131   4.730
26807W        W92287  42.931  13.735   3.348
26808W        W92288  36.046  43.479   1.741
26809W        W92289  33.556  13.808  13.933
26810W        W92290  39.446  37.888   3.850
26811W        W92291  42.492   8.214   0.363
26812W        W92292  22.095  21.217   3.682
26813W        W92293   3.778   4.374   3.692
26814W        W92294  28.181  26.530   2.780
26815W        W92295  14.151  43.280   2.246
26816W        W92296  12.676  38.545   0.757
26817W        W92297   3.954  26.491  13.427
26818W        W92298  33.945  29.965   1.234
26819W        W92299  40.912  39.518   3.253
26820W        W92300  22.543  32.106   4.138
26821W        W92301  13.755  27.055  11.973
26822W        W92302  27.096  17.307   2.725
26823W        W92303  29.492  22.252   4.253
26824W        W92304  17.133   5.896  13.941
26825W        W92305   5.209  44.760  10.463
26826W        W92306   6.273  30.964  13.404
26827W        W92307  33.973  43.297  13.952
26828W        W92308  14.333   1.898   1.279
26829W        W92309  36.957  43.831   1.815
26830W        W92310  36.014   6.277   3.166
26831W        W92311  35.949  27.975  14.872
26832W        W92312   4.703  24.157  12.048
26833W        W92313  35.927  42.511  10.579
26834W        W92314  42.024  33.561   0.446
26835W        W92315   5.930  32.406   3.242
26836W        W92316   5.697  23.197  12.984
26837W        W92317  30.047  40.933  12.093
26838W        W92318   1.746  42.294   1.821
26839W        W92319  31.051  15.600   1.389
26840W        W92320  22.550  18.230  11.952
26841W        W92321  41.822  37.406  12.951
26842W        W92322  16.167  27.115  12.382
26843W        W92323  31.600   7.260  13.976
26844W        W92324  24.692  12.214   2.786
26845W        W92325  27.977   4.860   4.249
26846W        W92326  31.922  22.238  14.809
26847W        W92327  10.647  27.542   1.345
26848W        W92328   0.441  28.150   0.352
26849W        W92329  43.339  19.580  10.119
26850W        W92330  35.000   8.846  12.534
26851W        W92331   6.719   1.273   0.362
26852W        W92332  32.432   8.880  14.997
26853W        W92333  29.472  28.072  10.042
26854W        W92334   7.339  38.011   1.364
26855W        W92335  26.044  30.512   2.796
26856W        W92336  30.964  14.268  11.571
26857W        W92337  28.623   2.894  14.406
26858W        W92338  28.637  24.052   2.272
26859W        W92339  11.295  37.974   3.269
26860W        W92340   9.743  33.570  12.457
26861W        W92341  13.295  12.285  13.323
26862W        W92342  31.109  25.714   0.432
26863W        W92343  12.216   9.764   0.411
26864W        W92344  19.728  21.567   0.903
26865W        W92345  39.828  34.903  14.920
26866W        W92346  44.368  42.893   1.848
26867W        W92347  35.904  18.249   2.715
26868W        W92348  44.456  40.424   3.185
26869W        W92349   8.733  27.167  12.072
26870W        W92350  29.559  13.658  13.326
26871W        W92351  13.342  29.454  10.641
26872W        W92352  28.111   6.276  14.805
26873W        W92353  26.040  15.085  14.351
26874W        W92354  25.688  37.894  11.866
26875W        W92355   1.958  10.754   4.230
26876W        W92356  12.126  12.850   4.623
26877W        W92357  44.795  22.233   3.817
26878W        W92358   7.268   3.896  10.457
26879W        W92359   1.959  40.541   1.334
26880W        W92360   6.713  30.506  10.497
26881W        W92361   9.736  25.503  12.464
26882W        W92362  22.602  18.224  10.935
26883W        W92363  40.047  30.163   0.809
26884W        W92364  13.681  23.701   0.794
26885W        W92365  42.937  43.842  12.833
26886W        W92366  31.985  27.448   2.227
26887W        W92367   0.768  10.720  14.891
26888W        W92368  18.683  22.060   3.282
26889W        W92369  16.285  12.361  10.990
26890W        W92370  10.305  31.476   2.287
26891W        W92371  23.016  16.807  12.019
26892W        W92372  32.604  17.078  11.063
26893W        W92373  10.845  24.573  13.314
26894W        W92374  17.639  35.108  10.496
26895W        W92375   7.291   7.848   0.368
26896W        W92376   0.459  15.585  10.482
26897W        W92377  33.042   3.407  12.530
26898W        W92378   3.237  31.965   1.911
26899W        W92379  40.827  29.048  12.520
26900W        W92380  11.326  24.495   2.332
26901W        W92381   4.753   8.405  12.478
26902W        W92382   0.857  23.001   2.811
26903W        W92383  40.871  14.800  12.348
26904W        W92384  34.055  39.903  10.425
26905W        W92385   9.660  23.523   2.353
26906W        W92386  39.808  13.706   1.914
26907W        W92387  27.462  38.388  14.465
26908W        W92388   2.865  18.696  12.028
26909W        W92389  23.106  37.416   4.292
26910W        W92390  15.622  32.608  14.375
26911W        W92391  12.723   1.279  10.934
26912W        W92392  31.025   4.379   1.915
26913W        W92393  10.311  42.432  11.557
26914W        W92394  37.917   1.852   2.702
26915W        W92395  41.947  12.720  12.080
26916W        W92396  11.856  23.165  13.987
26917W        W92397  16.749  12.827  14.849
26918W        W92398  33.126  33.517  12.405
26919W        W92399   8.362   2.822   3.814
26920W        W92400  15.327  36.935   4.273
26921W        W92401  44.273  10.218  13.356
26922W        W92402  23.054  22.645   0.311
26923W        W92403  22.590  30.001  12.905
26924W        W92404  33.090  19.166  12.007
26925W        W92405  26.030  41.035   1.803
26926W        W92406  39.396  27.101   3.306
26927W        W92407  33.891  15.203   0.467
26928W        W92408  29.005  43.987  10.473
26929W        W92409   2.805  21.109   2.794
26930W        W92410  41.928  29.542  12.364
26931W        W92411  26.661   1.248  13.495
26932W        W92412  32.393  43.964   4.641
26933W        W92413   8.201   6.847   2.882
26934W        W92414   9.790  24.989   3.785
26935W        W92415  20.713  15.712  11.376
26936W        W92416   9.799   0.896  12.885
26937W        W92417   9.377  21.525   3.280
26938W        W92418  22.170  24.082  10.950
26939W        W92419   5.210  37.084   3.804
26940W        W92420   0.839  26.177  12.941
26941W        W92421  19.660  23.716  13.967
26942W        W92422  20.128  33.895   3.828
26943W        W92423  36.553  24.690   3.374
26944W        W92424   4.341  18.102  14.007
26945W        W92425  43.794  11.320  12.042
26946W        W92426  16.192   7.363  10.511
26947W        W92427  39.007  37.078   1.324
26948W        W92428  32.436  37.454   1.401
26949W        W92429  12.826   5.336  11.385
26950W        W92430   7.376   0.858   5.118
26951W        W92431  21.258  27.011   1.868
26952W        W92432  17.589  25.164  13.359
26953W        W92433  27.493  39.432   2.730
26954W        W92434   7.765  33.874  14.920
26955W        W92435  16.614  27.045   1.928
26956W        W92436  16.773   7.896  11.064
26957W        W92437   9.209   0.384  12.978
26958W        W92438  32.128  40.992  12.472
26959W        W92439  17.767  25.502  11.470
26960W        W92440  19.097  21.601  12.400
26961W        W92441  22.182  41.348   2.821
26962W        W92442  36.093   0.484   2.824
26963W        W92443  26.956   0.265   3.652
26964W        W92444   6.346  44.963  11.531
26965W        W92445   3.823  34.094  14.442
26966W        W92446  36.521  33.454  11.573
26967W        W92447  29.486  25.661   2.306
26968W        W92448  42.469  39.402  10.608
26969W        W92449  19.083  14.795  14.354
26970W        W92450  35.537  34.975  10.897
26971W        W92451  31.593  32.542   0.824
26972W        W92452  24.498  14.725  13.474
26973W        W92453   8.786  18.219   0.426
26974W        W92454  16.677  12.148   1.411
26975W        W92455   4.753   4.868  12.893
26976W        W92456  29.493  18.734  13.856
26977W        W92457  26.690  12.119   0.305
26978W        W92458  21.096  32.636   2.690
26979W        W92459  13.830  37.488  12.948
26980W        W92460  28.466  44.836   2.694
26981W        W92461  39.485  26.964  13.029
26982W        W92462  20.636  31.150   1.247
26983W        W92463  34.573  29.483   1.890
26984W        W92464  15.285  42.482   2.772
26985W        W92465  20.706  12.260  10.578
26986W        W92466  31.520  26.087   0.348
26987W        W92467   4.398  32.139   4.306
26988W        W92468   8.373  18.589   2.329
26989W        W92469  35.876  44.006  13.505
26990W        W92470  25.632  44.371  12.833
26991W        W92471  27.057  44.890  11.124
26992W        W92472   1.368  26.134   0.255
26993W        W92473  12.703   6.834   3.182
26994W        W92474   0.773  43.917   1.704
26995W        W92475   6.864  15.616   1.448
26996W        W92476  27.611   6.716   3.693
26997W        W92477  14.094  33.968   3.237
26998W        W92478  17.631  23.589   2.254
26999W        W92479  33.416  37.037   4.343
27000W        W92480  21.595  23.107  13.403
27001W        W92481  30.515  37.491  14.338
27002W        W92482  29.096  21.181  10.933
27003W        W92483  20.200   6.406   5.306
27004W        W92484  13.741  20.707  11.076
27005W        W92485  34.879  13.319   0.844
27006W        W92486  30.614   0.883  13.973
27007W        W92487  33.434  35.474  11.442
27008W        W92488  12.734  10.827  13.978
27009W        W92489  42.513  41.378  14.334
27010W        W92490  11.855   5.194  14.439
27011W        W92491  43.765  31.114   1.882
27012W        W92492  35.905  41.825  10.917
27013W        W92493  16.689  35.917   4.621
27014W        W92494   8.370  43.355  10.961
27015W        W92495  31.409  21.659   0.352
27016W        W92496  43.806  28.459  14.274
27017W        W92497  12.290  16.585  13.959
27018W        W92498   7.897   7.375  12.366
27019W        W92499  36.456   6.197   1.738
27020W        W92500  13.736  10.245   0.396
27021W        W92501  13.117  17.161  14.817
27022W        W92502  11.793   4.720  14.355
27023W        W92503  16.294  10.334  14.961
27024W        W92504   9.825   2.932  14.293
27025W        W92505  26.690  16.655   0.811
27026W        W92506  30.950  14.705   1.934
27027W        W92507   6.922  41.959   4.660
27028W        W92508  22.225  33.947  10.596
27029W        W92509  14.194  32.429  10.499
27030W        W92510  42.282  15.735   1.804
27031W        W92511  39.415   2.283  13.410
27032W        W92512   9.365   5.392   3.823
27033W        W92513  24.053  30.571   0.873
27034W        W92514  21.207  26.614  13.400
27035W        W92515  31.995  34.449   9.967
27036W        W92516   4.346  42.917  14.280
27037W        W92517   2.840  11.222   0.890
27038W        W92518  10.792  12.154  12.398
27039W        W92519   8.820  32.988  10.490
27040W        W92520  17.696  10.240  10.107
27041W        W92521   0.899  38.014   0.729
27042W        W92522  44.803  31.557  13.058
27043W        W92523  38.460  23.009  12.834
27044W        W92524  27.987  18.748  14.458
27045W        W92525  28.033  19.624  12.975
27046W        W92526   5.771  10.227  12.088
27047W        W92527   5.786  19.083  13.016
27048W        W92528  27.641  30.940   2.253
27049W        W92529  40.849  21.670  14.384
27050W        W92530  37.995  29.587   4.179
27051W        W92531  39.547  29.485  11.481
27052W        W92532  36.866   0.403   3.207
27053W        W92533   2.340  27.538  13.871
27054W        W92534   8.658   9.804  13.347
27055W        W92535  29.133  36.537  11.901
27056W        W92536  39.061  24.699  14.404
27057W        W92537  39.321  35.497  11.536
27058W        W92538  14.825  18.119   2.688
27059W        W92539   8.749  25.707  14.970
27060W        W92540   5.205   8.314  13.007
27061W        W92541  44.818  33.561  14.899
27062W        W92542  39.340  15.141  10.889
27063W        W92543  43.892  35.366   2.723
27064W        W92544  35.891  19.061   2.188
27065W        W92545  19.078  11.695  11.907
27066W        W92546  30.611  28.051  12.876
27067W        W92547  24.064  18.281   2.214
27068W        W92548  28.979  20.146   2.197
27069W        W92549  23.985  37.859  10.558
27070W        W92550  19.125   6.398  10.905
27071W        W92551  44.337  35.481  14.783
27072W        W92552  42.433  22.140   3.377
27073W        W92553  10.270   1.363  10.582
27074W        W92554   9.170   0.806   4.173
27075W        W92555  31.916   3.339  10.945
27076W        W92556  40.435  30.442   2.354
27077W        W92557   7.215  34.470  10.519
27078W        W92558   2.758  24.666   0.912
27079W        W92559   2.891  41.837  11.865
27080W        W92560  35.385  15.746  11.599
27081W        W92561  36.029  22.208   4.195
27082W        W92562  43.937  34.946  10.612
27083W        W92563  33.101  22.592   0.915
27084W        W92564  25.207   8.871   5.308
27085W        W92565  27.642  30.497  11.103
27086W        W92566   8.217   9.675  13.924
27087W        W92567  34.018  17.065  14.416
27088W        W92568  30.575  11.270   1.377
27089W        W92569  24.111  33.042   0.967
27090W        W92570  32.937  10.710  12.511
27091W        W92571   5.693  38.836  10.577
27092W        W92572   2.350  40.426  12.500
27093W        W92573  17.627  32.001  14.869
27094W        W92574   2.934  33.399  14.371
27095W        W92575  12.610  35.917  13.472
27096W        W92576  20.663  12.856  13.345
27097W        W92577  40.848   1.774   1.287
27098W        W92578  33.459  24.178   1.215
27099W        W92579  32.467  15.707   3.326
27100W        W92580  18.155  13.807  12.929
27101W        W92581  29.600   4.823   0.736
27102W        W92582  38.044  30.594   1.216
27103W        W92583  16.765  19.626   0.436
27104W        W92584   2.452  37.408  14.516
27105W        W92585  29.984  32.569  11.965
27106W        W92586  28.979  15.253   0.386
27107W        W92587   6.772   8.881   4.240
27108W        W92588   9.689  44.797   4.338
27109W        W92589  21.213  35.437  10.902
27110W        W92590   6.318  26.530  12.550
27111W        W92591   7.192  24.005   0.454
27112W        W92592  34.467  22.211   4.808
27113W        W92593   0.783  34.382  13.954
27114W        W92594  31.516  23.001  11.414
27115W        W92595  33.537  28.576  11.857
27116W        W92596  22.686  42.372   4.818
27117W        W92597  28.645  11.143   3.212
27118W        W92598  36.406  37.562   4.335
27119W        W92599   3.377  13.695   1.785
27120W        W92600  23.103  11.783  14.291
27121W        W92601  18.583  32.391  10.083
27122W        W92602  39.063  16.736   0.936
27123W        W92603  22.732  15.697   1.867
27124W        W92604  31.492  43.950  10.640
27125W        W92605  29.971  21.043  12.039
27126W        W92606  27.082   0.277  14.344
27127W        W92607  44.301  33.602   1.224
27128W        W92608  17.284  27.022   0.255
27129W        W92609  25.674  32.017  11.503
27130W        W92610  32.956  20.050   0.885
27131W        W92611  21.075  31.433  12.421
27132W        W92612  43.444  29.136   3.669
27133W        W92613  20.226  40.970   2.404
27134W        W92614  31.107   1.759  11.411
27135W        W92615  27.986  27.004  11.489
27136W        W92616  22.129  35.898   2.190
27137W        W92617  36.014  12.736   3.800
27138W        W92618  35.480  18.194   3.318
27139W        W92619  43.375  43.355   2.201
27140W        W92620  42.475  26.151   3.382
27141W        W92621  11.322  34.487   3.817
27142W        W92622  22.723   1.758  13.831
27143W        W92623   3.409  15.139  10.942
27144W        W92624  40.394  26.586   1.775
27145W        W92625  11.284  36.064   3.842
27146W        W92626  39.931  24.002  10.892
27147W        W92627  10.251  17.779  11.127
27148W        W92628   0.796  16.801  12.905
27149W        W92629  43.925  22.157   0.368
27150W        W92630  28.516  22.705   1.323
27151W        W92631  16.795  25.183   1.919
27152W        W92632  33.028   2.834  14.762
27153W        W92633  29.510   0.431   0.851
27154W        W92634   3.762   7.756   2.680
27155W        W92635  40.999  18.554  11.498
27156W        W92636  33.963  44.432   1.758
27157W        W92637  23.656   1.307   0.810
27158W        W92638   5.741  33.941  14.016
27159W        W92639  42.918   6.348   3.791
27160W        W92640   8.695   2.849   4.225
27161W        W92641  17.214  10.878  10.459
27162W        W92642  28.001   7.790  12.037
27163W        W92643  33.424  38.073  11.121
27164W        W92644   8.693  15.809   5.121
27165W        W92645  30.117  10.184  13.464
27166W        W92646  31.956   5.760  11.109
27167W        W92647  42.402   9.316  12.467
27168W        W92648  16.225  29.943   2.881
27169W        W92649  35.529  32.521   3.303
27170W        W92650  32.927  29.989   0.862
27171W        W92651  11.740  36.587  10.986
27172W        W92652  30.495  43.505   3.373
27173W        W92653   0.323  13.270  14.957
27174W        W92654  20.214  37.479  10.157
27175W        W92655  31.976   6.795  12.447
27176W        W92656  27.663  34.984   0.439
27177W        W92657  17.770   7.833   1.448
27178W        W92658  33.422   6.737  13.465
27179W        W92659  42.856  13.630  14.346
27180W        W92660  29.130  24.683   4.337
27181W        W92661  40.916  19.215  13.042
27182W        W92662  21.198  19.534  10.636
27183W        W92663  43.392  21.179  12.063
27184W        W92664  13.218  23.621  12.488
27185W        W92665  38.027   1.930  12.561
27186W        W92666   5.351  16.174   4.311
27187W        W92667  30.551  15.817  13.488
27188W        W92668   4.862  18.216   3.162
27189W        W92669   7.339   4.893  10.561
27190W        W92670  22.103  11.306  12.848
27191W        W92671  26.009   6.905  13.461
27192W        W92672  33.609  39.953  11.864
27193W        W92673  34.973  19.163  13.420
27194W        W92674  40.855  37.582  14.951
27195W        W92675   0.901   4.236  12.984
27196W        W92676  15.622  14.769   4.159
27197W        W92677   5.243  28.143  10.942
27198W        W92678  31.460  33.410   2.205
27199W        W92679  38.018  34.502   1.707
27200W        W92680  28.169  13.723   3.197
27201W        W92681  15.664  38.968   2.336
27202W        W92682   5.362  36.955   2.353
27203W        W92683  19.577  35.015  12.407
27204W        W92684  35.005   3.222   0.477
27205W        W92685   0.917  19.666  14.870
27206W        W92686  17.100  11.630   4.236
27207W        W92687   7.188  32.428   2.398
27208W        W92688  42.302  18.173  14.339
27209W        W92689  44.382  14.667  13.017
27210W        W92690  19.209  28.601   9.949
27211W        W92691  12.782   3.458   2.850
27212W        W92692  13.133  33.618  14.961
27213W        W92693  11.663  24.534  13.467
27214W        W92694   9.829  12.126  11.034
27215W        W92695  39.435  29.424   1.865
27216W        W92696  20.543  36.494  11.046
27217W        W92697  24.650  15.694   3.835
27218W        W92698  18.097  38.848  10.993
27219W        W92699   3.723   3.307  10.493
27220W        W92700  16.798  26.464  13.808
27221W        W92701  31.482   6.235  11.946
27222W        W92702  33.562  23.492  12.959
27223W        W92703  14.265  24.205   1.905
27224W        W92704  33.946   5.247  12.002
27225W        W92705  36.446  33.038  12.046
27226W        W92706   2.724  30.133   4.803
27227W        W92707  37.932  10.140  14.893
27228W        W92708  18.722  15.790  14.991
27229W        W92709  43.410   8.164  14.322
27230W        W92710  18.187  42.502  12.922
27231W        W92711   7.789  23.194  13.392
27232W        W92712   1.270  43.019   4.289
27233W        W92713  35.997  41.985   2.205
27234W        W92714   1.373  29.067  12.076
27235W        W92715   8.340  36.544   2.807
27236W        W92716  24.146  24.711   3.332
27237W        W92717  38.955  18.776  11.516
27238W        W92718  32.467  24.633  14.003
27239W        W92719  18.734  11.340  13.466
27240W        W92720   6.774   9.674  10.983
27241W        W92721  44.456  34.953  14.877
27242W        W92722   7.845  31.905  13.904
27243W        W92723  35.571  34.448   1.822
27244W        W92724  35.931  41.886   2.739
27245W        W92725  28.009   4.702   4.720
27246W        W92726   0.940  32.018   3.708
27247W        W92727  37.465   7.781  14.505
27248W        W92728   7.280  26.642  11.035
27249W        W92729  36.528  22.683  11.096
27250W        W92730  22.583  13.751  14.870
27251W        W92731  31.956   2.935   0.811
27252W        W92732  26.092   6.883   4.766
27253W        W92733  10.274  17.627   2.376
27254W        W92734  27.006  19.173   2.690
27255W        W92735   6.226  15.699  14.920
27256W        W92736  29.054  29.090  14.797
27257W        W92737  28.664  43.494   4.829
27258W        W92738  44.959  41.907  13.397
27259W        W92739   2.444  23.558  12.453
27260W        W92740  30.049  44.815  14.969
27261W        W92741  18.709  38.414   1.797
27262W        W92742   6.819  25.027   1.278
27263W        W92743  23.732   5.858  12.951
27264W        W92744  42.013  16.210  14.292
27265W        W92745  34.104  15.808  14.823
27266W        W92746  20.128   8.349   0.742
27267W        W92747   0.901  33.469  12.979
27268W        W92748  36.888  31.458   2.346
27269W        W92749  36.506  25.598  11.000
27270W        W92750   0.356  17.763  11.464
27271W        W92751  19.767  22.251  13.444
27272W        W92752  23.677  12.328  14.861
27273W        W92753  31.064  41.921  11.511
27274W        W92754  37.493   2.802   2.797
27275W        W92755   3.217  19.127   4.825
27276W        W92756   6.216   5.216   2.190
27277W        W92757  17.574  32.587  14.293
27278W        W92758   2.357  13.743   0.780
27279W        W92759  42.019  44.487   3.184
27280W        W92760  44.763  19.657  14.022
27281W        W92761  43.803  14.204   4.826
27282W        W92762   5.901  42.011   1.430
27283W        W92763  12.180  14.816   0.911
27284W        W92764  35.553   6.708   2.191
27285W        W92765  36.553  17.130   3.749
27286W        W92766  42.802  22.694  12.515
27287W        W92767   7.752  39.357  13.499
27288W        W92768  40.331  19.197   0.732
27289W        W92769  32.108  17.103   2.669
27290W        W92770  14.805  37.968   1.882
27291W        W92771  32.996  14.121  13.887
27292W        W92772  18.208  39.455  14.918
27293W        W92773   2.746   2.849  10.577
27294W        W92774   9.736  27.063   0.390
27295W        W92775  14.248  12.845  10.476
27296W        W92776  18.254  15.814   4.623
27297W        W92777  33.046  12.287  13.835
27298W        W92778  24.629   7.774   4.701
27299W        W92779  16.745   4.378  14.919
27300W        W92780  39.386  38.501   2.265
27301W        W92781  24.536  34.473   2.681
27302W        W92782  42.482  24.705   2.292
27303W        W92783  43.772  42.969   2.293
27304W        W92784  36.428  18.091   2.837
27305W        W92785  38.348  39.530  13.908
27306W        W92786  10.285  39.970   0.756
27307W        W92787  23.585  28.678   4.282
27308W        W92788   8.811  40.047   3.161
27309W        W92789  25.063  15.614  10.966
27310W        W92790  33.538  16.100   0.826
27311W        W92791  20.102  34.108  11.408
27312W        W92792   1.745  16.736   0.816
27313W        W92793  38.071  14.289  10.014
27314W        W92794  39.395  32.914  14.019
27315W        W92795  39.919  33.097  13.957
27316W        W92796  15.320   6.854  11.541
27317W        W92797  34.399  12.191  12.057
27318W        W92798  22.157  20.167  14.441
27319W        W92799  26.150   7.787  10.988
27320W        W92800   4.745  27.522  13.388
27321W        W92801  39.064  16.712   4.684
27322W        W92802  32.550  33.624  12.077
27323W        W92803  11.853  15.237  12.847
27324W        W92804  38.522  24.685   0.815
27325W        W92805  35.531  27.039  12.941
27326W        W92806  27.153  36.371  12.421
27327W        W92807  20.242  12.198  14.989
27328W        W92808  34.493  34.501   0.797
27329W        W92809  23.657  11.314   2.278
27330W        W92810   4.896  14.825  12.371
27331W        W92811  36.904  20.718  11.117
27332W        W92812  24.017   3.801  10.404
27333W        W92813   9.720  18.113   2.261
27334W        W92814  42.921   4.248  13.314
27335W        W92815   7.803  41.907   4.781
27336W        W92816  44.429   2.307  10.435
27337W        W92817   0.761   8.368   4.211
27338W        W92818  33.101  21.193   5.241
27339W        W92819   3.810  44.754  14.302
27340W        W92820  23.695  26.594  11.553
27341W        W92821  11.140  26.168  10.918
27342W        W92822  36.357  24.195  12.088
27343W        W92823   9.268  16.165   0.243
27344W        W92824   5.374  13.662  13.376
27345W        W92825  16.796  28.545  13.466
27346W        W92826   9.335  12.757   3.711
27347W        W92827   8.316   4.852   2.359
27348W        W92828  28.181  15.813  12.871
27349W        W92829  17.296  35.482  13.886
27350W        W92830  37.429  41.435   3.317
27351W        W92831  40.892  43.318  11.485
27352W        W92832   3.835  33.889  14.994
27353W        W92833  15.327  37.996  10.562
27354W        W92834   6.876   9.741  13.431
27355W        W92835  20.614   7.863  11.026
27356W        W92836  15.680   8.722  10.921
27357W        W92837  18.665  15.135  14.786
27358W        W92838  35.008  25.622   2.827
27359W        W92839  10.668  20.699  11.950
27360W        W92840  37.883  44.397  11.465
27361W        W92841  25.986  11.719  10.501
27362W        W92842  25.637   8.183   0.950
27363W        W92843  37.532   1.378  12.916
27364W        W92844  30.080  23.076  12.388
27365W        W92845   3.830  40.383   4.194
27366W        W92846  39.891  18.218  13.877
27367W        W92847  41.027  34.987   2.342
27368W        W92848  28.158  23.644   3.262
27369W        W92849  10.681  35.484   3.187
27370W        W92850  44.761  32.014   2.294
27371W        W92851  19.181  38.543  11.001
27372W        W92852  39.334  44.917   4.130
27373W        W92853  40.527  44.843   1.217
27374W        W92854  26.575  21.257   1.766
27375W        W92855  13.776  31.503   3.684
27376W        W92856  30.055  42.375   0.924
27377W        W92857  36.386  42.897  12.357
27378W        W92858  20.710  43.868  12.038
27379W        W92859  31.148  44.818  14.481
27380W        W92860  30.499  36.961   4.710
27381W        W92861   0.415  34.985  13.428
27382W        W92862   4.779  23.519   0.927
27383W        W92863   3.758  29.987   1.433
27384W        W92864   2.411  40.537  14.499
27385W        W92865  44.305  18.679   0.787
27386W        W92866  12.256  14.199  11.005
27387W        W92867  24.652  33.130  12.018
27388W        W92868  34.525   4.440  13.522
27389W        W92869  27.659  26.203   2.844
27390W        W92870  18.567  38.052   2.292
27391W        W92871  24.658  36.901  11.417
27392W        W92872  39.931   5.750   4.670
27393W        W92873  40.402  27.574  14.801
27394W        W92874  34.061   4.384  14.421
27395W        W92875  14.779  16.680   4.756
27396W        W92876  26.638  15.660   2.235
27397W        W92877  32.401   0.758   2.710
27398W        W92878  28.655  23.010   3.345
27399W        W92879   0.928   6.194   0.304
27400W        W92880   9.692   6.291   1.279
27401W        W92881  31.111   8.842   4.764
27402W        W92882  40.438  21.683  14.861
27403W        W92883  18.590   5.216  14.282
27404W        W92884  23.223  34.872   2.897
27405W        W92885  27.967  12.150   2.337
27406W        W92886  31.500  42.934   0.337
27407W        W92887  41.920   8.896  14.931
27408W        W92888  40.836  30.619  14.361
27409W        W92889  20.614  25.005  11.084
27410W        W92890  21.697  27.145  13.864
27411W        W92891  21.047   4.723   3.831
27412W        W92892   9.277  16.119   2.748
27413W        W92893  26.004   0.957   4.730
27414W        W92894  20.093  25.998   1.919
27415W        W92895  22.505  31.016  11.993
27416W        W92896  13.650   4.844  12.939
27417W        W92897   3.808  43.001   2.277
27418W        W92898  40.036  15.177  14.836
27419W        W92899   2.787  16.711   2.715
27420W        W92900  41.324   8.785  14.506
27421W        W92901  10.265  10.709   2.254
27422W        W92902  22.538  40.021   3.830
27423W        W92903  19.583  43.494  12.395
27424W        W92904  31.021   8.881  10.975
27425W        W92905  42.852   9.879   1.830
27426W        W92906  28.168  18.679   3.203
27427W        W92907  39.927  26.116   0.440
27428W        W92908   5.788  15.304  14.773
27429W        W92909   3.898   4.402  12.467
27430W        W92910   8.852   6.735   4.822
27431W        W92911  18.108  38.933  13.413
27432W        W92912  42.307  42.477   0.317
27433W        W92913  40.422  38.986   2.827
27434W        W92914  25.527  42.429  13.907
27435W        W92915  11.796   9.342  10.999
27436W        W92916  22.134  24.544   4.243
27437W        W92917  10.305   0.290   0.271
27438W        W92918  23.591  29.438   3.152
27439W        W92919   9.366   0.821  13.362
27440W        W92920  22.571  17.760   2.300
27441W        W92921   2.427  14.335  11.409
27442W        W92922  22.091  11.217   3.741
27443W        W92923  39.947  19.250   2.334
27444W        W92924  13.706  25.485  14.498
27445W        W92925  12.744   4.912   3.374
27446W        W92926  22.132  36.555   4.613
27447W        W92927  26.029   4.445  12.956
27448W        W92928  27.678  30.022   4.134
27449W        W92929  23.705   8.816   3.631
27450W        W92930  44.505  26.485  10.416
27451W        W92931  29.434   0.861   2.881
27452W        W92932   7.850   8.164   4.268
27453W        W92933  20.144   6.703  13.359
27454W        W92934  32.478  42.453   4.231
27455W        W92935  20.098  27.192  12.846
27456W        W92936  11.649  20.572  10.962
27457W        W92937  34.941  30.433   3.681
27458W        W92938  36.378  10.319  10.987
27459W        W92939  28.621  39.386   2.333
27460W        W92940  10.255  22.565  14.466
27461W        W92941  21.694   3.748  11.943
27462W        W92942  35.035  10.704  11.523
27463W        W92943  12.761  33.518   2.296
27464W        W92944   3.439  29.450  11.939
27465W        W92945  34.981  11.800   1.863
27466W        W92946  30.585  44.758  10.585
27467W        W92947   3.836  17.301   3.311
27468W        W92948  16.127  39.482   1.321
27469W        W92949  40.348  25.492   4.778
27470W        W92950  36.917  23.643   0.945
27471W        W92951  26.689  23.130  13.497
27472W        W92952  18.198  22.624  14.365
27473W        W92953   6.751  38.037   2.328
27474W        W92954  15.577  36.486  14.291
27475W        W92955  26.632  36.517   5.151
27476W        W92956  12.255  33.583  13.993
27477W        W92957  32.096  32.964  14.423
27478W        W92958   3.329  30.525  11.608
27479W        W92959  42.816   0.385  13.459
27480W        W92960   4.326  28.963   3.274
27481W        W92961  25.493  10.287   2.780
27482W        W92962  35.874  22.006   3.358
27483W        W92963   1.769  40.976   1.922
27484W        W92964  29.629  22.574  11.082
27485W        W92965  11.758  22.211  10.908
27486W        W92966  32.905  39.056   4.636
27487W        W92967   0.790  34.421   1.247
27488W        W92968  43.444  22.024   4.129
27489W        W92969  39.824   6.364  10.061
27490W        W92970  14.643  20.745   3.187
27491W        W92971   1.826  32.106  13.850
27492W        W92972  13.630  29.141  13.516
27493W        W92973  16.711  33.124  10.055
27494W        W92974   0.972  14.304   5.164
27495W        W92975  32.895  40.487  13.407
27496W        W92976  26.570  36.934   2.858
27497W        W92977   9.253  33.479   2.888
27498W        W92978  28.569  42.815   0.358
27499W        W92979   2.804  36.903   0.310
27500W        W92980  26.462   6.210  13.371
27501W        W92981  32.013   8.900   2.277
27502W        W92982   0.382   1.339  10.900
27503W        W92983  11.140  43.331  10.496
27504W        W92984  40.049  14.184  12.048
27505W        W92985  26.540  10.675  11.026
27506W        W92986   9.274  12.299  14.318
27507W        W92987   9.759  19.691   2.722
27508W        W92988   4.747  34.415   5.114
27509W        W92989  41.816  29.067   4.626
27510W        W92990  36.887  23.222   4.809
27511W        W92991   2.826  16.227  14.792
27512W        W92992  33.533  31.478   2.195
27513W        W92993   2.937   4.419   2.822
27514W        W92994  33.874  41.307   0.789
27515W        W92995   9.224  40.377  13.855
27516W        W92996   9.741  18.124   4.632
27517W        W92997  37.982  41.523  10.492
27518W        W92998  22.118  11.227   1.451
27519W        W92999  27.035  37.047   2.873
27520W        W93000  42.459  38.000  11.889
27521W        W93001  31.902   4.832   1.303
27522W        W93002   2.808  40.390  12.999
27523W        W93003   3.871  36.346   3.223
27524W        W93004  14.205  27.085   3.659
27525W        W93005  22.670  30.453  10.460
27526W        W93006  15.263   1.852  10.554
27527W        W93007   8.276  28.951   3.747
27528W        W93008  38.344  25.208  14.408
27529W        W93009   9.359  39.924   3.233
27530W        W93010  33.929  13.178   4.187
27531W        W93011  40.387  27.625   4.228
27532W        W93012  10.378  43.865   4.330
27533W        W93013  17.683  42.454   1.356
27534W        W93014  43.013   1.402   3.321
27535W        W93015  34.495   9.797  12.444
27536W        W93016  11.707  25.702   4.793
27537W        W93017  21.752  28.040   0.833
27538W        W93018   2.731  36.393   0.294
27539W        W93019  25.670  17.117  10.531
27540W        W93020  41.847  31.023   0.291
27541W        W93021   4.784  23.612   3.642
27542W        W93022   2.789  37.516  11.413
27543W        W93023  39.919  13.281  12.851
27544W        W93024  22.586  32.104   2.872
27545W        W93025  20.205  17.799  12.856
27546W        W93026  19.119  18.744   3.323
27547W        W93027  41.520  22.564   0.287
27548W        W93028  12.831  10.281   1.264
27549W        W93029  31.134  39.007  14.937
27550W        W93030  16.309  20.105  14.030
27551W        W93031  24.095  20.105  13.060
27552W        W93032  13.268  25.650  12.095
27553W        W93033  25.205   1.904   1.370
27554W        W93034  35.052  14.747   4.718
27555W        W93035  33.952  29.167   2.848
27556W        W93036  15.326   7.202  13.064
27557W        W93037  31.087  22.176  13.518
27558W        W93038  18.091  43.827  12.835
27559W        W93039   1.267  32.403   3.793
27560W        W93040   2.312  37.512   2.236
27561W        W93041   2.238   3.755  13.054
27562W        W93042  37.909  19.076  12.345
27563W        W93043  12.356  25.154   2.752
27564W        W93044   5.797  30.627   0.893
27565W        W93045  17.166  38.328  12.041
27566W        W93046   4.406  37.341   1.414
27567W        W93047  31.518  21.153   2.339
27568W        W93048  18.653  25.051  13.872
27569W        W93049   8.268  38.900   1.388
27570W        W93050  35.557  24.000   0.282
27571W        W93051  42.938  18.197  13.903
27572W        W93052   9.155  27.020  10.636
27573W        W93053  21.737  14.611  12.356
27574W        W93054  41.317  39.969  14.998
27575W        W93055   3.751  18.605  14.317
27576W        W93056  39.507   5.420   3.677
27577W        W93057  34.883  38.555  11.080
27578W        W93058  39.842  29.970  13.532
27579W        W93059  30.460  10.163  11.581
27580W        W93060  26.690  26.698   3.664
27581W        W93061  21.571   7.387   2.677
27582W        W93062  26.984  29.520  13.019
27583W        W93063  28.972  36.403   4.345
27584W        W93064   1.280  10.754   2.225
27585W        W93065  12.116  38.332  14.469
27586W        W93066  38.899  40.470   5.143
27587W        W93067  15.208  43.338   1.244
27588W        W93068   7.402  42.028   3.299
27589W        W93069   0.824  28.676  13.798
27590W        W93070   9.260  18.074  10.465
27591W        W93071  14.726  40.481   1.713
27592W        W93072   3.380  33.112  10.091
27593W        W93073   9.792  33.626  11.037
27594W        W93074  22.600  10.775  11.540
27595W        W93075  31.620  33.392  12.405
27596W        W93076  42.412   6.903   4.228
27597W        W93077  37.368   5.860  11.012
27598W        W93078  44.010   5.803   9.633
27599W        W93079  26.123  19.141   4.781
27600W        W93080  43.836  31.084  10.913
27601W        W93081   6.277  40.543   5.238
27602W        W93082  25.017  18.232  10.643
27603W        W93083   1.779   9.744  14.780
27604W        W93084  28.527   7.173  10.546
27605W        W93085   9.360   0.449  12.359
27606W        W93086  36.525  39.912   1.229
27607W        W93087  24.617  41.454   0.295
27608W        W93088  13.121  42.510  13.415
27609W        W93089  27.048  24.526  13.415
27610W        W93090  27.983   0.288  14.896
27611W        W93091   5.394  20.096   3.368
27612W        W93092  24.164  13.705  11.031
27613W        W93093  12.230  10.760  14.395
27614W        W93094  26.471  11.349   2.874
27615W        W93095  44.487   3.375  11.971
27616W        W93096  17.277  41.369   4.165
27617W        W93097  22.203  21.171  12.342
27618W        W93098   5.252  28.488  11.000
27619W        W93099  41.453   6.212   5.706
27620W        W93100  37.857  23.020  10.615
27621W        W93101  22.134   4.907  10.894
27622W        W93102   7.366  29.430   4.661
27623W        W93103  12.320  37.853  10.613
27624W        W93104   7.789  22.518  10.427
27625W        W93105  35.552  38.047  11.523
27626W        W93106  33.608  12.283  13.533
27627W        W93107  39.839  44.296  11.992
27628W        W93108  42.980  29.496  14.370
27629W        W93109  31.111   2.273   1.915
27630W        W93110  26.087  28.027   4.303
27631W        W93111  26.649  31.043   4.645
27632W        W93112  22.186  42.350   1.279
27633W        W93113  25.646  39.369   1.412
27634W        W93114  26.961  18.209  11.565
27635W        W93115  44.421  19.253  14.924
27636W        W93116  28.141   3.859   1.352
27637W        W93117  23.206  12.692   1.712
27638W        W93118  40.865  14.796   4.188
27639W        W93119   8.293  43.918  12.569
27640W        W93120  34.505   0.873   2.718
27641W        W93121  16.142  30.447  14.761
27642W        W93122  14.759   1.277  10.636
27643W        W93123   5.222  12.618   1.218
27644W        W93124  15.309  29.078   3.187
27645W        W93125  37.558   8.817  11.859
27646W        W93126  25.207  30.912   2.845
27647W        W93127  31.096  10.697   0.737
27648W        W93128  19.601  43.516   4.241
27649W        W93129  38.883  30.494   2.781
27650W        W93130  34.481  33.058  13.544
27651W        W93131  13.754  29.138   3.169
27652W        W93132  18.249  18.735   3.147
27653W        W93133  32.497  33.551  10.464
27654W        W93134  20.255  23.585  14.884
27655W        W93135  30.427  19.534  14.948
27656W        W93136  37.506  33.103  11.920
27657W        W93137  13.685  22.744  13.922
27658W        W93138   3.233  29.017   3.310
27659W        W93139  30.432   3.770   5.270
27660W        W93140   4.777  32.625   1.368
27661W        W93141  30.484  36.001   2.849
27662W        W93142  41.515  36.397  13.799
27663W        W93143  36.970   6.701  11.577
27664W        W93144  43.374  19.631   3.777
27665W        W93145  14.723  36.005   3.284
27666W        W93146   8.733  33.481  12.360
27667W        W93147  42.904  14.625   4.221
27668W        W93148  30.450  27.550   3.332
27669W        W93149   0.781  31.108   3.220
27670W        W93150   5.818  19.059  14.767
27671W        W93151  20.553   4.435   1.363
27672W        W93152  11.130  26.690  11.980
27673W        W93153   6.397  26.184  11.374
27674W        W93154  32.544  23.532  14.981
27675W        W93155  35.870  20.703   3.284
27676W        W93156  31.071  25.639  10.955
27677W        W93157  21.261  20.272   5.319
27678W        W93158   7.332  41.022   1.343
27679W        W93159  24.664  27.484  10.626
27680W        W93160  19.724   7.685   1.710
27681W        W93161  41.383  29.063  13.030
27682W        W93162  19.727  26.077  14.292
27683W        W93163  27.689  18.069  14.965
27684W        W93164  20.215  10.830   2.337
27685W        W93165  24.686   1.874  12.559
27686W        W93166  20.238  29.074  13.854
27687W        W93167   1.851  25.696  13.403
27688W        W93168   6.777   3.357  10.455
27689W        W93169   0.837  43.417   0.853
27690W        W93170  40.333  10.359   4.646
27691W        W93171  40.518  23.669  14.978
27692W        W93172  37.570   1.388   2.229
27693W        W93173  25.017  44.840   9.564
27694W        W93174  39.335  11.228   1.831
27695W        W93175  27.561  15.234  13.876
27696W        W93176  29.941   9.837   3.347
27697W        W93177  36.395  26.489   5.093
27698W        W93178   2.444  16.134  13.998
27699W        W93179  11.768  36.022  11.427
27700W        W93180   7.777   8.664  14.353
27701W        W93181   9.203  30.551   4.185
27702W        W93182  37.431  16.727  10.032
27703W        W93183  28.034   8.738   4.262
27704W        W93184   6.291  27.134   2.279
27705W        W93185  36.382   6.752  13.998
27706W        W93186  39.883  36.413  14.901
27707W        W93187  11.790  30.508  13.057
27708W        W93188  38.934  44.342   2.185
27709W        W93189  29.475  42.970  12.494
27710W        W93190  42.413  28.596   2.383
27711W        W93191   3.907  27.540   2.772
27712W        W93192   6.315   3.896  14.889
27713W        W93193  16.611  39.525   0.245
27714W        W93194  29.108   6.824  13.001
27715W        W93195  27.548  35.028  11.491
27716W        W93196  31.035   5.721  10.899
27717W        W93197  13.316  28.681  11.886
27718W        W93198  23.566  42.328   1.271
27719W        W93199  16.183  18.290   0.467
27720W        W93200  40.370  27.085   3.360
27721W        W93201  25.499  19.093   0.456
27722W        W93202  29.607  14.267  11.511
27723W        W93203  24.038  31.059   0.941
27724W        W93204   4.295   9.782   3.207
27725W        W93205  34.564   6.244  13.320
27726W        W93206  24.557  22.716  13.805
27727W        W93207  14.800  23.533   5.142
27728W        W93208  30.521   2.245   5.247
27729W        W93209  42.832   1.285   2.812
27730W        W93210  19.200  15.206  13.791
27731W        W93211   0.783  32.955  13.422
27732W        W93212  30.626  43.834  14.878
27733W        W93213   7.866   2.287   3.167
27734W        W93214   8.293  15.260  13.415
27735W        W93215   5.895  26.196  12.909
27736W        W93216  21.024   3.280   0.730
27737W        W93217  44.918  19.598  10.937
27738W        W93218  28.142  21.687  13.026
27739W        W93219  38.529  17.699   1.423
27740W        W93220   3.730  16.190   1.331
27741W        W93221   2.315  37.009  14.852
27742W        W93222  30.106  35.929  13.407
27743W        W93223   0.852  43.919   1.233
27744W        W93224  12.830  15.124  13.025
27745W        W93225  34.047  24.665   0.849
27746W        W93226  41.863  34.599   2.220
27747W        W93227  30.494  32.481   0.781
27748W        W93228  31.456  22.042  13.408
27749W        W93229  37.522  16.145   2.392
27750W        W93230  26.101  18.652  14.933
27751W        W93231  10.808  18.243   2.384
27752W        W93232  12.304   7.370   3.854
27753W        W93233  11.835  29.023  12.360
27754W        W93234  11.301  13.177   0.769
27755W        W93235  33.548  16.286   3.630
27756W        W93236  10.657  37.981   4.271
27757W        W93237  20.593   2.235  12.833
27758W        W93238  34.885  29.489  13.310
27759W        W93239   3.280  44.858  14.391
27760W        W93240  15.291  32.437  11.485
27761W        W93241  28.511   7.346  14.410
27762W        W93242  37.933  25.965  12.072
27763W        W93243   9.319  16.185  13.363
27764W        W93244   6.239  35.448   2.226
27765W        W93245  11.193  33.923   1.381
27766W        W93246   9.648   4.854  14.360
27767W        W93247  13.233  22.562  13.884
27768W        W93248  44.905  34.099  10.963
27769W        W93249  33.443  36.558   4.754
27770W        W93250  28.667   2.307  10.504
27771W        W93251  33.957  37.088   1.707
27772W        W93252  22.043  10.292   0.960
27773W        W93253  14.189  34.903  14.948
27774W        W93254  11.316  23.991  10.431
27775W        W93255  30.485  30.581   4.702
27776W        W93256  43.333   6.701  14.875
27777W        W93257  34.574  44.794   3.835
27778W        W93258  39.001  42.788   0.334
27779W        W93259   4.420  42.449  11.112
27780W        W93260  14.712   7.849   0.859
27781W        W93261  23.529  44.273  13.503
27782W        W93262  16.685  37.014   1.308
27783W        W93263  37.904  39.346   4.156
27784W        W93264  18.286  43.371  14.425
27785W        W93265  37.985  18.599   4.183
27786W        W93266  34.076  20.609   3.660
27787W        W93267  33.990  29.054  10.447
27788W        W93268  42.470  25.627   3.279
27789W        W93269  36.459   4.743   4.620
27790W        W93270  12.198  17.072   4.742
27791W        W93271  38.502   8.200   1.288
27792W        W93272  31.932   2.893  12.477
27793W        W93273  38.066   5.929   1.732
27794W        W93274  32.136  15.167   2.357
27795W        W93275  18.118  42.467   2.842
27796W        W93276  42.032  38.380   4.672
27797W        W93277  36.880  17.617  11.512
27798W        W93278   0.447   3.819  12.961
27799W        W93279  30.971  10.782  13.397
27800W        W93280  23.655  20.606  12.904
27801W        W93281  14.153  40.798   1.889
27802W        W93282   7.204  18.579  10.473
27803W        W93283  39.401  44.398  13.427
27804W        W93284  31.949  31.614   4.646
27805W        W93285  19.721   5.294  11.416
27806W        W93286  37.492   0.768   0.429
27807W        W93287  37.574  15.684   4.769
27808W        W93288  17.284  35.366  14.840
27809W        W93289  28.947  12.145  14.807
27810W        W93290  36.927   3.412   3.358
27811W        W93291  36.906   3.436  12.009
27812W        W93292  25.649  35.950  12.868
27813W        W93293   0.756  21.555   3.866
27814W        W93294  31.015   6.700  11.923
27815W        W93295  15.760   2.720  10.522
27816W        W93296  17.103   0.356  11.558
27817W        W93297   6.392   1.303   4.212
27818W        W93298  26.156  27.137  10.454
27819W        W93299  30.030   5.246   1.279
27820W        W93300   2.784  11.231  11.876
27821W        W93301  31.151   0.960  14.407
27822W        W93302  10.666  26.516   2.247
27823W        W93303   4.782  41.432  14.457
27824W        W93304  39.542  21.623   1.932
27825W        W93305  42.411  27.523  11.426
27826W        W93306   1.385  37.935   4.176
27827W        W93307  18.618   3.938   1.883
27828W        W93308  24.204  39.470  14.494
27829W        W93309  33.080  22.623   3.864
27830W        W93310  40.536  35.590   0.922
27831W        W93311   8.212  42.495  11.919
27832W        W93312  25.065   6.909   1.751
27833W        W93313   8.164  39.340   3.703
27834W        W93314  16.586  15.673   2.883
27835W        W93315  26.552  28.656  11.409
27836W        W93316  13.312   3.457   0.921
27837W        W93317  22.090  25.963  11.449
27838W        W93318   4.373  40.320   1.755
27839W        W93319  26.519   0.988   2.281
27840W        W93320   2.286  34.955  13.502
27841W        W93321   0.853  13.621  10.469
27842W        W93322  36.010  35.896  12.380
27843W        W93323  26.206   4.287   1.748
27844W        W93324  30.479  36.096  13.920
27845W        W93325  41.330  36.066   2.700
27846W        W93326  12.700  19.742  13.500
27847W        W93327  18.743  33.025   2.852
27848W        W93328  27.682   3.360  12.468
27849W        W93329   4.247  36.059   3.160
27850W        W93330   2.762   6.844   2.679
27851W        W93331   3.365  20.194  11.054
27852W        W93332  41.803   8.693   4.766
27853W        W93333  10.296   9.346  14.951
27854W        W93334  40.455  11.729   4.688
27855W        W93335  16.628   3.902   2.867
27856W        W93336   5.390   5.775   2.301
27857W        W93337  44.412   0.434  10.563
27858W        W93338   6.231  33.430  12.055
27859W        W93339   2.899  26.471  13.440
27860W        W93340  32.457  12.244   0.758
27861W        W93341  14.116  44.465   0.249
27862W        W93342  21.081  20.523   3.336
27863W        W93343   9.879  34.949  14.337
27864W        W93344   8.889  30.080   2.415
27865W        W93345  29.509  44.938   2.729
27866W        W93346   1.893  36.006   0.340
27867W        W93347  15.724  28.947  12.842
27868W        W93348  22.032  24.123  10.534
27869W        W93349  11.327  29.002   3.302
27870W        W93350  42.372  21.027  12.568
27871W        W93351   3.797   2.329   1.839
27872W        W93352   1.263   1.809  12.469
27873W        W93353  41.309   9.246  10.465
27874W        W93354  26.671  18.063   2.362
27875W        W93355  30.152  31.002  11.910
27876W        W93356  13.267  25.035  14.838
27877W        W93357  38.941  12.816  12.937
27878W        W93358  18.074  30.911  13.986
27879W        W93359  36.350  35.377  13.048
27880W        W93360  22.209   9.850   9.450
27881W        W93361  13.235  11.675  11.502
27882W        W93362   6.786  34.924  12.855
27883W        W93363  14.267  27.166  13.500
27884W        W93364  22.501  24.021  14.477
27885W        W93365   8.873  14.701   4.662
27886W        W93366  28.604  30.992   4.750
27887W        W93367  40.353  17.162   2.319
27888W        W93368   2.765  20.637  12.457
27889W        W93369  43.002  23.208   1.371
27890W        W93370  10.694  30.008  12.971
27891W        W93371  36.481   3.350  14.371
27892W        W93372  33.039  39.844   3.352
27893W        W93373  37.075   5.864  14.881
27894W        W93374   4.915   6.260   1.818
27895W        W93375  14.613  14.652   1.376
27896W        W93376  15.138  29.994   1.316
27897W        W93377  44.418  13.219   3.149
27898W        W93378  40.969  10.328   3.235
27899W        W93379  10.705  43.322  11.874
27900W        W93380  34.943  29.968   2.820
27901W        W93381  22.154  27.175  11.922
27902W        W93382  32.530  32.057  11.038
27903W        W93383   7.743   8.271   0.332
27904W        W93384  29.545  43.472   1.364
27905W        W93385   0.428   7.173  11.589
27906W        W93386  17.583  31.909  12.537
27907W        W93387  16.248   5.687  12.903
27908W        W93388   7.246  28.485   2.324
27909W        W93389   7.867  23.035   2.290
27910W        W93390  17.084  19.753   2.230
27911W        W93391  20.219  19.217  12.518
27912W        W93392  27.143  44.406   1.923
27913W        W93393  40.473   0.280  12.856
27914W        W93394  13.777  43.832  12.877
27915W        W93395  38.913  39.016   4.235
27916W        W93396  32.060   7.288  12.855
27917W        W93397  39.394  43.875  12.865
27918W        W93398  10.252  28.969   0.784
27919W        W93399  18.784  34.592  14.850
27920W        W93400  26.595  17.636   3.648
27921W        W93401  34.393  42.942   4.131
27922W        W93402   7.858  16.725  14.813
27923W        W93403  13.818  43.303   3.821
27924W        W93404  25.689   4.440   1.860
27925W        W93405  22.218   8.395   4.603
27926W        W93406  24.696  24.152   2.253
27927W        W93407  12.322  13.829   3.776
27928W        W93408   2.894  37.993   0.279
27929W        W93409  41.885  10.373   3.791
27930W        W93410  33.036   0.882  11.975
27931W        W93411  33.506  42.926  14.429
27932W        W93412  19.591  37.431  13.793
27933W        W93413  36.386  41.897   2.800
27934W        W93414  38.945  20.630  12.054
27935W        W93415  39.066  24.999   3.799
27936W        W93416  40.989  15.237  13.474
27937W        W93417  43.962  16.577  11.413
27938W        W93418  13.255  37.429  10.409
27939W        W93419  34.000  37.471   2.196
27940W        W93420  10.808   2.339   3.840
27941W        W93421  38.026  34.982  10.438
27942W        W93422  43.007   6.313  13.372
27943W        W93423  10.283  40.967  14.472
27944W        W93424   4.368  37.404   2.879
27945W        W93425   0.255  27.663   4.134
27946W        W93426  32.582  27.116  12.463
27947W        W93427   6.734  11.280   2.833
27948W        W93428  20.207  21.553  14.011
27949W        W93429  14.793  27.544   0.885
27950W        W93430  23.021  17.078  13.311
27951W        W93431  37.347  42.408  12.053
27952W        W93432  21.710  19.563  14.304
27953W        W93433  26.137  13.253  13.044
27954W        W93434  23.719  32.402  14.930
27955W        W93435  30.428   1.947  10.457
27956W        W93436  21.058  36.095  12.970
27957W        W93437  32.634  37.421   4.306
27958W        W93438  37.948   6.737   1.814
27959W        W93439   2.282   1.961  14.401
27960W        W93440  27.655  37.501   4.768
27961W        W93441   0.343  35.451   2.798
27962W        W93442  32.133  19.742  13.962
27963W        W93443   7.314  30.112   1.324
27964W        W93444  35.455  20.199  13.512
27965W        W93445  26.106   2.278  14.009
27966W        W93446  23.616  35.447  11.016
27967W        W93447  34.498  31.454  14.333
27968W        W93448  12.717  27.449  12.846
27969W        W93449  20.154  44.905   0.911
27970W        W93450   8.870  14.833  13.365
27971W        W93451  17.239  16.206  14.789
27972W        W93452  14.639  26.132  12.049
27973W        W93453  18.255  18.732  11.599
27974W        W93454  29.957  43.443   2.713
27975W        W93455  12.677  11.693  13.807
27976W        W93456  39.002  38.940   0.319
27977W        W93457  20.555  35.475  12.850
27978W        W93458   1.843  33.526   3.183
27979W        W93459  36.864  20.748  12.048
27980W        W93460   6.369  28.475   4.202
27981W        W93461  35.597  20.261  11.545
27982W        W93462   8.846  14.609  14.945
27983W        W93463  17.191  14.134  12.848
27984W        W93464   6.715  23.066  14.421
27985W        W93465  12.641  29.134  14.439
27986W        W93466   6.720  20.653  14.880
27987W        W93467  24.005  11.142   4.214
27988W        W93468  24.165  28.177  12.922
27989W        W93469  13.156  22.197  11.506
27990W        W93470  23.538  18.775  14.397
27991W        W93471   5.325  17.750   2.744
27992W        W93472  41.513   9.848  13.309
27993W        W93473  20.149   1.239   4.692
27994W        W93474  44.308   4.413  10.056
27995W        W93475  14.693  11.297  14.932
27996W        W93476  35.071  34.379   1.856
27997W        W93477   6.783  43.902   0.852
27998W        W93478  14.621   7.217   3.282
27999W        W93479  29.448  43.878  10.900
28000W        W93480  26.166  32.055   1.916
28001W        W93481   7.338   3.295  12.016
28002W        W93482  29.463  38.918  11.991
28003W        W93483  24.058   7.401   5.113
28004W        W93484   3.859  28.167  10.031
28005W        W93485  29.922  23.215  13.928
28006W        W93486  32.889  38.373   4.237
28007W        W93487  22.641  38.053   2.875
28008W        W93488  37.550  35.099   5.268
28009W        W93489  36.556  17.291   3.304
28010W        W93490  31.521  42.382   0.350
28011W        W93491  36.428  24.156  10.611
28012W        W93492   3.215  13.778   0.943
28013W        W93493   1.888  11.338   2.899
28014W        W93494  17.065   5.839  11.075
28015W        W93495  38.970  16.631  14.514
28016W        W93496   2.744  44.297   2.787
28017W        W93497  43.343   7.310  12.944
28018W        W93498  35.589  18.552  11.397
28019W        W93499  42.017  43.915  13.963
28020W        W93500   1.959  12.241   2.229
28021W        W93501  33.927  32.065  13.994
28022W        W93502  33.457  24.660   1.304
28023W        W93503  22.100  37.454   4.312
28024W        W93504   8.849  43.321  14.329
28025W        W93505   3.292   2.918   2.349
28026W        W93506   4.322  25.696  11.457
28027W        W93507  37.994  26.683   2.271
28028W        W93508  42.344  26.464  14.882
28029W        W93509  31.591  27.961  10.512
28030W        W93510  41.514   8.224  12.494
28031W        W93511   4.348  26.685  14.342
28032W        W93512  30.586  13.656  12.919
28033W        W93513  41.534  37.952   2.258
28034W        W93514   0.340  37.839   4.692
28035W        W93515  27.073  44.912   0.399
28036W        W93516   3.935  36.548  11.010
28037W        W93517  41.019  29.610   2.895
28038W        W93518  39.810  38.536   1.258
28039W        W93519  19.661  35.581  14.442
28040W        W93520  23.999  29.096  11.960
28041W        W93521   2.927  25.599  13.307
28042W        W93522   8.170  18.756  10.414
28043W        W93523  22.711  20.265  13.487
28044W        W93524  39.845  13.322  13.816
28045W        W93525  22.089  11.293  12.483
28046W        W93526   7.902  25.604   0.780
28047W        W93527  15.659  13.631  14.925
28048W        W93528  42.401   0.976  14.348
28049W        W93529  37.553   6.252  11.445
28050W        W93530  29.631  24.499  10.455
28051W        W93531  13.165  18.189  14.390
28052W        W93532  15.607  21.143  10.004
28053W        W93533  21.128  39.003  14.811
28054W        W93534  22.149   0.417  12.536
28055W        W93535  44.781   3.379   1.381
28056W        W93536   0.270  16.090   2.217
28057W        W93537   7.360  11.657   1.696
28058W        W93538   8.277  41.791  14.475
28059W        W93539   9.238  34.980   2.723
28060W        W93540  42.472  14.626  11.545
28061W        W93541  26.984   7.348   3.656
28062W        W93542  19.135  12.672  12.381
28063W        W93543  39.044  37.561  10.483
28064W        W93544  31.494  31.091   4.114
28065W        W93545  36.883  40.949  13.317
28066W        W93546   1.869  23.214  12.448
28067W        W93547  36.905  19.187   3.753
28068W        W93548  21.228  38.061   1.402
28069W        W93549  23.133  36.909   2.700
28070W        W93550   7.239   4.835   4.255
28071W        W93551   8.254   0.281  14.367
28072W        W93552  34.070  40.985  11.536
28073W        W93553  21.083  17.255   4.157
28074W        W93554  38.907  13.696   4.789
28075W        W93555   6.279  38.976  14.420
28076W        W93556   0.441  22.037  11.872
28077W        W93557  15.104  42.828  14.350
28078W        W93558  18.569  21.626  12.871
28079W        W93559  37.561  15.294  10.977
28080W        W93560  41.310  15.584  11.395
28081W        W93561  18.703   8.230  11.070
28082W        W93562  33.588   4.840   1.444
28083W        W93563  25.706   6.680   1.278
28084W        W93564  18.626  30.944  12.070
28085W        W93565  25.580  21.685  13.515
28086W        W93566  14.804  30.997  13.990
28087W        W93567  44.852  30.507  12.866
28088W        W93568   4.764  23.727   4.197
28089W        W93569  21.147  11.188  13.891
28090W        W93570   0.320   9.214   2.856
28091W        W93571  21.615   1.310   4.311
28092W        W93572  36.954   0.789   4.347
28093W        W93573   3.366  32.534   3.757
28094W        W93574  17.133  25.491   2.242
28095W        W93575  17.170   7.810  11.912
28096W        W93576  18.195  22.664  11.601
28097W        W93577  33.903   7.288  10.461
28098W        W93578  32.538   9.212   3.818
28099W        W93579  38.567  19.103   2.341
28100W        W93580  19.701  17.114  12.953
28101W        W93581  17.671   1.871   0.246
28102W        W93582  41.848  25.156  12.359
28103W        W93583  21.206   4.937   4.210
28104W        W93584   5.285  16.267  11.876
28105W        W93585  38.371  34.908  11.904
28106W        W93586  16.796   0.455   3.231
28107W        W93587  15.299   4.738  13.511
28108W        W93588  39.823  19.268  12.027
28109W        W93589  27.532  11.727   0.338
28110W        W93590  24.724  32.061   3.228
28111W        W93591  19.584  39.416   3.192
28112W        W93592  30.422  10.726  12.362
28113W        W93593  33.477  42.387  14.016
28114W        W93594  24.704  11.196  14.853
28115W        W93595  29.149   1.795   4.658
28116W        W93596  34.120  14.697   1.750
28117W        W93597  18.295  16.774   3.327
28118W        W93598  14.164  35.364   0.271
28119W        W93599   2.723   1.242   0.759
28120W        W93600   5.759  16.618   0.401
28121W        W93601   1.468  15.141   1.921
28122W        W93602  15.315   5.783   3.211
28123W        W93603  24.085   7.372   4.597
28124W        W93604   5.377  18.647   3.175
28125W        W93605  28.931  10.691  13.546
28126W        W93606  39.485  27.529  11.868
28127W        W93607  18.663  28.560  11.415
28128W        W93608  39.464   6.742  11.019
28129W        W93609  28.183  13.806  10.510
28130W        W93610  33.517  39.495   1.367
28131W        W93611  17.264   3.793  14.484
28132W        W93612  43.474  35.862   0.289
28133W        W93613   5.375   6.424  12.361
28134W        W93614  17.123  44.461   3.348
28135W        W93615  42.823   8.857  13.986
28136W        W93616  36.089   1.910   3.840
28137W        W93617   2.953  41.919  14.790
28138W        W93618  28.465  23.032   0.253
28139W        W93619  42.945  36.909   3.280
28140W        W93620  21.549  18.670  13.920
28141W        W93621   3.892  41.995   3.681
28142W        W93622  28.471  25.121   3.279
28143W        W93623  24.581  42.412  12.989
28144W        W93624  13.701  39.005  14.768
28145W        W93625   7.367  32.997   2.259
28146W        W93626  27.464   5.850  14.349
28147W        W93627  44.937  11.647   3.268
28148W        W93628  44.934   3.921  10.935
28149W        W93629  27.465  11.229   2.883
28150W        W93630   7.710   9.295   1.283
28151W        W93631  28.669   9.321   2.365
28152W        W93632  36.583   6.380  12.540
28153W        W93633  21.059  37.990   2.688
28154W        W93634  29.929  15.670  11.424
28155W        W93635  14.733  21.564   4.777
28156W        W93636  23.493  28.520   2.690
28157W        W93637  17.109  29.977   4.837
28158W        W93638   8.361  44.445   2.815
28159W        W93639  34.975  27.447  13.794
28160W        W93640  15.091  31.088   0.740
28161W        W93641  27.959  18.084   4.186
28162W        W93642  35.109  29.105  10.616
28163W        W93643  16.577  22.680   4.128
28164W        W93644  19.682   3.329  13.047
28165W        W93645   8.294  29.613   3.697
28166W        W93646  28.524  15.704  13.335
28167W        W93647   3.930  21.734  10.508
28168W        W93648  16.588  10.818   4.767
28169W        W93649   5.433  28.550   2.837
28170W        W93650  20.617  23.574   1.707
28171W        W93651  43.874  37.011   3.366
28172W        W93652  17.603  14.633  12.381
28173W        W93653   5.264   6.886   4.131
28174W        W93654  32.947  15.317  14.441
28175W        W93655  17.675  30.455   4.786
28176W        W93656  22.088   2.917   4.284
28177W        W93657   9.191  24.501   1.906
28178W        W93658  21.105  29.069   4.244
28179W        W93659  33.973  19.627  13.913
28180W        W93660   9.644  27.663   0.260
28181W        W93661  19.650  37.366  10.527
28182W        W93662   3.719  23.047  10.966
28183W        W93663   8.389  35.489  13.908
28184W        W93664   1.747  10.649  10.600
28185W        W93665  44.278  27.037  12.425
28186W        W93666  11.306  19.615   1.277
28187W        W93667  14.673  10.768  14.384
28188W        W93668  41.002   8.865   2.773
28189W        W93669  43.336  36.017  12.526
28190W        W93670  13.815  40.539  14.399
28191W        W93671  20.651  19.191   4.838
28192W        W93672  25.992  20.055  10.903
28193W        W93673  15.316  11.815  10.044
28194W        W93674  36.060   4.219  14.451
28195W        W93675  32.570  29.984   2.802
28196W        W93676  24.593  43.928  14.889
28197W        W93677  22.569  19.753   5.175
28198W        W93678  15.180  27.959  13.870
28199W        W93679  12.685  31.611   4.598
28200W        W93680   0.268  30.428  10.431
28201W        W93681  21.665  38.565   2.853
28202W        W93682  42.884  31.125   1.439
28203W        W93683  34.487  18.232   3.679
28204W        W93684   6.266  22.611   2.738
28205W        W93685  18.552  31.597   1.451
28206W        W93686  37.520  19.098   0.248
28207W        W93687   6.801  37.070  12.053
28208W        W93688  18.253  15.189  14.368
28209W        W93689   5.848  15.723  12.560
28210W        W93690  28.679  24.489  12.367
28211W        W93691  17.203   5.742  13.344
28212W        W93692  26.178  43.419  12.418
28213W        W93693  27.653  22.705   0.869
28214W        W93694  24.632  19.604  14.329
28215W        W93695  11.278  13.661  13.821
28216W        W93696  27.530  18.200   0.835
28217W        W93697  33.073  24.213  14.028
28218W        W93698  28.126  20.137  13.393
28219W        W93699  17.206  10.681  13.414
28220W        W93700  28.944  37.892   4.173
28221W        W93701  37.013  14.828  12.508
28222W        W93702  14.139  28.646   3.811
28223W        W93703   7.693  37.917  10.468
28224W        W93704   1.274  25.214  11.433
28225W        W93705  23.680  37.473  13.470
28226W        W93706  39.530  27.556   2.887
28227W        W93707  33.103   4.241  11.061
28228W        W93708  14.798  37.918   4.253
28229W        W93709  18.091  29.484   1.449
28230W        W93710  33.508  38.926   3.757
28231W        W93711  32.467  40.447   2.380
28232W        W93712   1.877  31.550  12.527
28233W        W93713  35.535  39.912   2.847
28234W        W93714   5.354  41.795   0.915
28235W        W93715  12.817  40.325   1.812
28236W        W93716  31.502  18.194   4.774
28237W        W93717   4.869  15.307  13.850
28238W        W93718  23.077  33.041  12.868
28239W        W93719   8.885  26.587   3.780
28240W        W93720   6.324  43.970  14.280
28241W        W93721  28.174  35.912   4.283
28242W        W93722  33.948  22.592   4.261
28243W        W93723  32.113  10.287  14.429
28244W        W93724   2.312  44.365   0.254
28245W        W93725  36.480  37.935  10.895
28246W        W93726  42.419  10.866   2.374
28247W        W93727  38.062  26.988  14.813
28248W        W93728  31.613  38.027   1.857
28249W        W93729  19.057  19.190  14.782
28250W        W93730  36.437  42.834  12.048
28251W        W93731  36.471  42.432   4.277
28252W        W93732  12.274   8.660  12.350
28253W        W93733  19.147  27.088   3.280
28254W        W93734  25.044  19.130   3.853
28255W        W93735   2.274   6.694   2.735
28256W        W93736  16.265   6.311   0.311
28257W        W93737  34.491  39.011   3.648
28258W        W93738   3.414  37.456   1.332
28259W        W93739  43.851  33.053   4.243
28260W        W93740  18.277   1.435  11.979
28261W        W93741  28.487  25.971   2.260
28262W        W93742  16.797  18.160   4.696
28263W        W93743  20.634  21.110  11.934
28264W        W93744  30.619  33.946   2.324
28265W        W93745  40.326   2.255  10.414
28266W        W93746  23.651  31.445   1.923
28267W        W93747   0.767  22.610   3.630
28268W        W93748  41.898  42.496  12.412
28269W        W93749  32.901  15.326  12.061
28270W        W93750  38.899   0.485  13.508
28271W        W93751  41.799  16.764  13.483
28272W        W93752   4.723  13.655  14.483
28273W        W93753  11.338  23.494   3.830
28274W        W93754  19.688  16.572   3.195
28275W        W93755  41.880  14.149   0.483
28276W        W93756  33.382  15.680  12.549
28277W        W93757  43.795  10.376   3.793
28278W        W93758  12.237   4.749   1.834
28279W        W93759  23.101   7.789  14.411
28280W        W93760  18.663  42.013  14.031
28281W        W93761  36.955  44.476   4.333
28282W        W93762  35.897  30.641  12.923
28283W        W93763  33.926  27.111  10.597
28284W        W93764  33.972  29.452  12.921
28285W        W93765   7.871  34.461   1.878
28286W        W93766  43.801  14.822  12.528
28287W        W93767  32.980  16.210   4.622
28288W        W93768  34.496  28.461  12.440
28289W        W93769  27.615  40.831   4.823
28290W        W93770  29.499  41.388  10.568
28291W        W93771  25.647  33.035  10.491
28292W        W93772  10.869   7.401  11.928
28293W        W93773  19.249  25.701   3.640
28294W        W93774  13.809  11.625   1.715
28295W        W93775  43.951  31.533  13.883
28296W        W93776  39.949  44.480   4.237
28297W        W93777  43.352  27.578  14.765
28298W        W93778  37.980   8.761  11.971
28299W        W93779  28.970  38.007   4.674
28300W        W93780   2.469  32.390   3.189
28301W        W93781  19.734  33.116   2.230
28302W        W93782   9.354  13.633  13.367
28303W        W93783  29.099   9.660   2.843
28304W        W93784  18.079  39.475   4.754
28305W        W93785  25.018  24.023  12.404
28306W        W93786  38.045  29.529  13.507
28307W        W93787   6.290  24.051  14.312
28308W        W93788  16.747  25.543  10.110
28309W        W93789  12.194  10.800   1.297
28310W        W93790  44.425  16.292  11.499
28311W        W93791  10.744  14.246   0.809
28312W        W93792   5.741  23.534  14.875
28313W        W93793   7.243   9.752  13.427
28314W        W93794  44.848  29.167   1.744
28315W        W93795   0.467  42.003   2.290
28316W        W93796  16.126  43.021   3.220
28317W        W93797   6.921  17.128  12.401
28318W        W93798  23.114  28.065  14.404
28319W        W93799  23.102  15.719   1.437
28320W        W93800  11.143  34.429  13.336
28321W        W93801  39.873  40.993   2.260
28322W        W93802  25.054  39.538   2.279
28323W        W93803  44.433  25.626  10.988
28324W        W93804   6.865  44.332   1.828
28325W        W93805  16.096   3.835  10.959
28326W        W93806  39.824  16.174   4.164
28327W        W93807  35.970  22.696   2.731
28328W        W93808  23.684  36.511  14.425
28329W        W93809  28.677   6.215   1.773
28330W        W93810   2.339  27.041   1.417
28331W        W93811   3.885  13.715  14.866
28332W        W93812  29.020  12.651   3.700
28333W        W93813  18.630  12.324   0.461
28334W        W93814  40.340  30.135  14.925
28335W        W93815  39.990  29.549   0.476
28336W        W93816   6.857   6.254  12.094
28337W        W93817   2.761  30.617  13.429
28338W        W93818  38.854  17.233  11.463
28339W        W93819  38.346  15.699   3.315
28340W        W93820  15.703  34.499   1.357
28341W        W93821  40.899  15.241   2.337
28342W        W93822   7.266  31.022   1.720
28343W        W93823   9.783  34.549  11.928
28344W        W93824  29.056  16.665  14.361
28345W        W93825   9.299  35.938  13.427
28346W        W93826   7.791  28.638   2.327
28347W        W93827  33.599  16.651   2.387
28348W        W93828  11.850  37.394   1.775
28349W        W93829  31.985  31.952   1.774
28350W        W93830  15.113  41.835   5.673
28351W        W93831  18.701  28.180   2.286
28352W        W93832  29.037  29.941  11.532
28353W        W93833  29.045  43.894  11.541
28354W        W93834  26.536  32.050   3.697
28355W        W93835  13.763  12.795  10.487
28356W        W93836  12.691   4.747   1.703
28357W        W93837  31.451   9.774  11.947
28358W        W93838  41.831  39.529  12.399
28359W        W93839  36.368  22.529  10.108
28360W        W93840  43.338  11.801  14.914
28361W        W93841  11.158  34.087  11.465
28362W        W93842  33.413   7.379   2.185
28363W        W93843  35.390   9.193   2.860
28364W        W93844   9.162  32.491  13.502
28365W        W93845  36.025   1.892   0.953
28366W        W93846  35.560  22.174  12.519
28367W        W93847   4.721  20.154   4.825
28368W        W93848   2.391  24.512   2.742
28369W        W93849  35.883  40.837   2.214
28370W        W93850  26.550  33.911  11.104
28371W        W93851  33.494  36.475   0.842
28372W        W93852   4.721   6.384  10.009
28373W        W93853  18.246  40.937   1.769
28374W        W93854  27.472  38.068  10.617
28375W        W93855  23.571  36.589  14.793
28376W        W93856  38.828   9.395  13.521
28377W        W93857   3.902  35.584  14.319
28378W        W93858   1.770  23.666   2.753
28379W        W93859   4.301   2.287   0.284
28380W        W93860  38.444  34.997  13.819
28381W        W93861  12.306  30.074  14.307
28382W        W93862  25.023  17.569   3.374
28383W        W93863   7.801  38.853  11.477
28384W        W93864  24.692  24.549   3.315
28385W        W93865  37.033  13.229  13.462
28386W        W93866  12.325  10.280   0.334
28387W        W93867   6.841   2.260  10.490
28388W        W93868  29.566   7.338   2.352
28389W        W93869  14.106  41.462  14.032
28390W        W93870  19.598  37.341   1.326
28391W        W93871  30.013   8.302  14.277
28392W        W93872  37.068  31.436  12.879
28393W        W93873  29.006   1.800   0.365
28394W        W93874  36.862  37.877   4.120
28395W        W93875  41.455   7.686   4.665
28396W        W93876   6.340  34.404   5.284
28397W        W93877  30.918  37.998  14.937
28398W        W93878  17.612  43.360   1.278
28399W        W93879  40.987  19.569  12.932
28400W        W93880  19.545  40.341  14.419
28401W        W93881  26.573  31.092  13.062
28402W        W93882  10.797  34.067   3.302
28403W        W93883  31.080  19.577  12.061
28404W        W93884  38.927  33.043  11.454
28405W        W93885  27.169  18.653   0.854
28406W        W93886  30.617   9.834  12.488
28407W        W93887  31.904  22.525   1.744
28408W        W93888  17.622  41.878   3.691
28409W        W93889  40.344   4.372   3.328
28410W        W93890   5.427   7.210  12.389
28411W        W93891  28.129   2.895   0.781
28412W        W93892   9.288  26.535   0.415
28413W        W93893   4.715  22.563  14.031
28414W        W93894   0.927  26.135   2.674
28415W        W93895  15.717  30.588  10.156
28416W        W93896  13.209  29.540  11.890
28417W        W93897   8.783  43.482  14.989
28418W        W93898   5.828  43.768  14.765
28419W        W93899  25.112  10.845  10.518
28420W        W93900   2.311  42.824  10.432
28421W        W93901  17.665  40.485  11.458
28422W        W93902   7.332  13.641  11.109
28423W        W93903  38.993  29.045   2.397
28424W        W93904  14.260  17.226   1.341
28425W        W93905  32.138  39.012   3.329
28426W        W93906  24.572   3.862   4.807
28427W        W93907  40.864  38.546  13.062
28428W        W93908  26.464   4.442   1.403
28429W        W93909  42.451  22.115   4.248
28430W        W93910  43.926   9.784   4.727
28431W        W93911   1.760   7.382  10.448
28432W        W93912  44.800  25.677  12.419
28433W        W93913   8.724  10.783  11.010
28434W        W93914   3.914  27.964  13.904
28435W        W93915  26.559   2.346  14.866
28436W        W93916  34.119   9.671   2.771
28437W        W93917  10.726   9.757  11.454
28438W        W93918  24.645  11.838  11.602
28439W        W93919  30.065  18.640   4.698
28440W        W93920  30.968  15.775   1.724
28441W        W93921  11.818  29.553   1.239
28442W        W93922  14.319  27.096   1.847
28443W        W93923  42.845   3.946  12.031
28444W        W93924  20.137  20.258  12.846
28445W        W93925   4.338   6.857  13.499
28446W        W93926  37.481   0.816  11.428
28447W        W93927  32.950  39.906  13.498
28448W        W93928  30.432  36.437  14.474
28449W        W93929  24.566   8.248  11.933
28450W        W93930   3.449   4.720  12.986
28451W        W93931  19.216  22.042   2.252
28452W        W93932  39.426  36.544   3.731
28453W        W93933   1.414  36.445  10.564
28454W        W93934  32.419  39.501   4.687
28455W        W93935  38.825  21.527   2.695
28456W        W93936  32.142   0.265   4.129
28457W        W93937  26.005  11.317   4.771
28458W        W93938  23.996  44.991   3.262
28459W        W93939  27.069  43.806  13.329
28460W        W93940  32.528  13.300   0.306
28461W        W93941  28.960  33.427  13.059
28462W        W93942  22.728  25.097   3.373
28463W        W93943  36.419  37.858  12.890
28464W        W93944  31.595   9.795  13.818
28465W        W93945  15.683  39.434   1.312
28466W        W93946  34.053  39.942   0.782
28467W        W93947  30.430  11.228   2.293
28468W        W93948  42.894  22.708   2.316
28469W        W93949   1.336  24.580  12.477
28470W        W93950   0.283  15.769   4.291
28471W        W93951  28.959  16.167  14.980
28472W        W93952   5.883  25.042   2.760
28473W        W93953  42.938  11.150  11.872
28474W        W93954  33.489  22.633   1.307
28475W        W93955  21.554  29.036   5.083
28476W        W93956   2.906  27.601  13.499
28477W        W93957  38.454   7.350  10.439
28478W        W93958  17.570  23.099   4.602
28479W        W93959  35.063   2.226   4.320
28480W        W93960  29.171  42.777   1.870
28481W        W93961  34.989  39.849  11.517
28482W        W93962  29.134  16.693  13.833
28483W        W93963  42.350  39.916   1.809
28484W        W93964  25.657  15.717  14.845
28485W        W93965  14.682  36.567  13.514
28486W        W93966   0.292  38.045  13.881
28487W        W93967  17.120  42.871  14.763
28488W        W93968   6.851  18.281   4.332
28489W        W93969  42.016  30.147  13.308
28490W        W93970  37.960  30.079   3.827
28491W        W93971   8.256   8.741   1.238
28492W        W93972  21.205   5.900  13.011
28493W        W93973  31.117  42.453   0.369
28494W        W93974  13.658  29.102   0.345
28495W        W93975  32.442  25.139  10.956
28496W        W93976  25.587  21.024   2.853
28497W        W93977   2.393  13.639  11.593
28498W        W93978   9.181  21.697   2.663
28499W        W93979  37.519  36.567   1.226
28500W        W93980   9.782   8.797   1.697
28501W        W93981  43.821  30.563   0.376
28502W        W93982   0.900  36.371  11.546
28503W        W93983  17.270   8.238  11.890
28504W        W93984  35.393  13.227  12.901
28505W        W93985   0.832  25.208  14.024
28506W        W93986  28.096  30.986   4.310
28507W        W93987  40.528  36.445   3.225
28508W        W93988  25.078   7.384  12.902
28509W        W93989  19.661  33.043   0.962
28510W        W93990  10.147   6.271   2.700
28511W        W93991  29.562  36.547   1.354
28512W        W93992   5.733  26.020  10.604
28513W        W93993  10.711  29.937   0.800
28514W        W93994  22.573  23.065  10.565
28515W        W93995  41.411  18.728  13.059
28516W        W93996  40.963   9.375   0.415
28517W        W93997  23.132  13.683  14.404
28518W        W93998  14.817   2.810   0.911
28519W        W93999  23.211  41.356   2.294
28520W        W94000  30.444  30.576   3.313
28521W        W94001  35.102   3.899  12.385
28522W        W94002  29.600   4.702   1.391
28523W        W94003  14.692   4.818  11.563
28524W        W94004  29.530  35.453  14.410
28525W        W94005   6.709   2.956  11.518
28526W        W94006   1.773  27.089   4.681
28527W        W94007  17.237  27.130  14.312
28528W        W94008  41.447  44.962  10.472
28529W        W94009  31.642   0.830   2.867
28530W        W94010  39.055  38.372  12.897
28531W        W94011  20.125  29.605   1.854
28532W        W94012  38.956  44.377   5.135
28533W        W94013  16.687   7.350   0.923
28534W        W94014   5.829  39.849   3.225
28535W        W94015   4.330  22.104  12.842
28536W        W94016  16.147  31.606   3.291
28537W        W94017   2.920  23.118   0.261
28538W        W94018   5.805  12.774   3.294
28539W        W94019  15.128   5.328  12.400
28540W        W94020   5.805  30.498   2.410
28541W        W94021   7.669  33.584   2.317
28542W        W94022  25.110  43.968  12.353
28543W        W94023  41.368  30.133  11.449
28544W        W94024  36.976   7.373  14.869
28545W        W94025   9.864  28.470  14.405
28546W        W94026   7.268   8.762  11.576
28547W        W94027  34.587  35.071  12.999
28548W        W94028   4.221  10.817   0.808
28549W        W94029  26.065  13.724   1.349
28550W        W94030  37.465  29.548  14.416
28551W        W94031  34.031  17.247  10.432
28552W        W94032  33.126   7.741   1.342
28553W        W94033  26.089   7.724   4.803
28554W        W94034  42.994  30.629  11.547
28555W        W94035   6.912  39.948   4.250
28556W        W94036  43.952  41.429   3.681
28557W        W94037  13.113   6.372   0.875
28558W        W94038   9.195  41.866   1.322
28559W        W94039  35.101  42.851   3.822
28560W        W94040   5.868  13.325  12.991
28561W        W94041  13.248  38.913  12.344
28562W        W94042  43.449  38.912  11.597
28563W        W94043   2.447  37.037   2.376
28564W        W94044  23.056   0.284   0.340
28565W        W94045  35.957  26.044   1.758
28566W        W94046  40.982  43.978  14.872
28567W        W94047  21.080  12.264   4.330
28568W        W94048  36.432  40.544  14.311
28569W        W94049  40.927   8.849   3.264
28570W        W94050  10.271  42.819  13.365
28571W        W94051  34.593  23.022   1.747
28572W        W94052  29.531  43.859  10.540
28573W        W94053  35.942   3.895   4.598
28574W        W94054  22.699  38.887   2.774
28575W        W94055  23.120  19.274  11.514
28576W        W94056  30.419  25.188   0.358
28577W        W94057  44.786  15.583  11.513
28578W        W94058   5.909  39.887  10.935
28579W        W94059  22.589  31.911  10.446
28580W        W94060  44.818  31.990  12.556
28581W        W94061  25.989  43.422   3.853
28582W        W94062   5.371  23.995   4.819
28583W        W94063  19.167  16.225   0.925
28584W        W94064   3.456  27.107   2.846
28585W        W94065   7.871  15.637  11.064
28586W        W94066  11.184  35.918   1.929
28587W        W94067  29.172  23.025  11.488
28588W        W94068  28.978   1.925  13.825
28589W        W94069  34.542  22.503   2.899
28590W        W94070  25.104  25.183  11.129
28591W        W94071   4.763  30.027   0.302
28592W        W94072  18.205  43.916   1.412
28593W        W94073  34.961  36.068   0.746
28594W        W94074  21.182   5.264  12.397
28595W        W94075  24.015  28.492  12.941
28596W        W94076  17.604  38.844  11.372
28597W        W94077  10.382  14.173   3.683
28598W        W94078  44.272  41.294   0.387
28599W        W94079  41.334  31.939   2.719
28600W        W94080  13.110  35.514  14.501
28601W        W94081  11.166   7.761  11.932
28602W        W94082  39.435   9.362  14.029
28603W        W94083  28.987  10.831  13.941
28604W        W94084  31.616  25.163  12.547
28605W        W94085  35.108  14.164   3.795
28606W        W94086  44.290  23.658  11.901
28607W        W94087  14.268  12.651   3.799
28608W        W94088   7.677  20.059   3.790
28609W        W94089  19.617  22.527   0.350
28610W        W94090  25.489  43.443  12.899
28611W        W94091  26.629  25.966  14.012
28612W        W94092  44.351   7.200  10.599
28613W        W94093   6.899  25.698  13.920
28614W        W94094  13.288  15.199  12.961
28615W        W94095  11.323  31.139  11.053
28616W        W94096   4.921   2.841  14.975
28617W        W94097  33.944  14.309  11.546
28618W        W94098  44.004  24.007   0.841
28619W        W94099  38.873  40.018   2.760
28620W        W94100  33.041  10.804  11.029
28621W        W94101  40.992  19.682  12.461
28622W        W94102  11.773  23.043  12.842
28623W        W94103  12.808  23.729  13.874
28624W        W94104  30.586  41.520  12.856
28625W        W94105  15.219  15.756   0.768
28626W        W94106   9.329  17.160   5.137
28627W        W94107  14.133   3.923  14.926
28628W        W94108  30.541   1.370  10.464
28629W        W94109  29.000  25.045  13.307
28630W        W94110  11.259  22.626   0.901
28631W        W94111   1.761  41.327  14.366
28632W        W94112  19.658  34.897  12.865
28633W        W94113   6.746  34.960  10.432
28634W        W94114  20.260  41.918  11.411
28635W        W94115  42.961  23.514   1.377
28636W        W94116  18.678  15.195   3.634
28637W        W94117  35.579   6.327   3.784
28638W        W94118   3.426  35.026  12.385
28639W        W94119  18.636   4.790   4.740
28640W        W94120  27.642  25.645  13.808
28641W        W94121  18.097  35.907  10.947
28642W        W94122  23.729  24.148   3.748
28643W        W94123  25.170  11.859  10.406
28644W        W94124  15.155  29.636  11.860
28645W        W94125   3.356  35.021   1.802
28646W        W94126   2.823   1.315   3.816
28647W        W94127  19.752  33.517  14.311
28648W        W94128   2.858  35.543   4.746
28649W        W94129  32.015   4.336   2.212
28650W        W94130   0.931  44.273   0.954
28651W        W94131  31.121  41.838  13.900
28652W        W94132  38.521  33.395   4.698
28653W        W94133  27.531   5.311   2.842
28654W        W94134  42.420  36.093  11.439
28655W        W94135   0.937   0.266   1.782
28656W        W94136  11.328   0.357   0.871
28657W        W94137   6.225   8.821  11.993
28658W        W94138  44.770   1.246  14.293
28659W        W94139  22.131  34.963   2.288
28660W        W94140  26.702  23.509  12.931
28661W        W94141  31.637  20.273   1.352
28662W        W94142  32.114  24.578  10.570
28663W        W94143  10.139  39.372  12.828
28664W        W94144  40.402  12.737   4.226
28665W        W94145  30.470   2.346   1.865
28666W        W94146  10.768  37.953   1.405
28667W        W94147  25.038  15.625   0.395
28668W        W94148  23.020  20.596  14.764
28669W        W94149  22.671  36.023   0.810
28670W        W94150   6.723   2.321  11.888
28671W        W94151   7.312  24.697  12.031
28672W        W94152  18.131  30.135  12.350
28673W        W94153  41.490  42.477  13.527
28674W        W94154  36.567  22.680  13.897
28675W        W94155  22.620  37.454  11.121
28676W        W94156  28.999   6.367   2.365
28677W        W94157  30.931  41.938  10.439
28678W        W94158  28.535  21.026  13.493
28679W        W94159  18.625  17.086  14.421
28680W        W94160  33.477  18.094   3.266
28681W        W94161   8.711  13.639   3.208
28682W        W94162  35.436  33.966   2.343
28683W        W94163  17.090  26.137   2.348
28684W        W94164   1.283   2.850  13.048
28685W        W94165  39.042  26.025   0.775
28686W        W94166  30.610   8.710  13.829
28687W        W94167   0.901  18.771  14.801
28688W        W94168  35.991  24.643   0.442
28689W        W94169  29.057  20.214  10.531
28690W        W94170   9.336  40.889  13.856
28691W        W94171  44.993  13.147   4.155
28692W        W94172  12.118  32.496  11.585
28693W        W94173  20.651   7.808   2.227
28694W        W94174   8.206  34.099  14.505
28695W        W94175  15.091  19.729  13.818
28696W        W94176  44.430  10.695   4.234
28697W        W94177  21.107  21.523  10.982
28698W        W94178  44.805   2.463   3.709
28699W        W94179  34.885   0.410   4.173
28700W        W94180   5.922  27.977  11.899
28701W        W94181  43.408  18.735   0.404
28702W        W94182  25.695  32.137   0.374
28703W        W94183  23.118  31.940   4.309
28704W        W94184  24.130   6.859   4.668
28705W        W94185  23.594  28.649  10.406
28706W        W94186  18.087  33.944  11.120
28707W        W94187  36.517  35.982  11.532
28708W        W94188  42.944   5.867   3.653
28709W        W94189  27.537  28.098   0.477
28710W        W94190   2.906  20.663   3.277
28711W        W94191  38.947   0.255   3.768
28712W        W94192   8.796  34.925  14.935
28713W        W94193   2.437  25.066   1.384
28714W        W94194   1.308   9.220  12.345
28715W        W94195   6.918  29.040  11.974
28716W        W94196  20.718  40.366   3.866
28717W        W94197  24.512   7.388   2.666
28718W        W94198  42.029  10.260  11.590
28719W        W94199  14.302  10.639  14.017
28720W        W94200  25.583   9.172  10.458
28721W        W94201  44.285  34.448   4.218
28722W        W94202  43.924  26.574  14.390
28723W        W94203  40.458  22.049  11.472
28724W        W94204  10.693  13.731   3.734
28725W        W94205  13.743   7.749  14.398
28726W        W94206  41.981  43.499  12.401
28727W        W94207  33.977   0.406  13.992
28728W        W94208  32.902   2.846   3.200
28729W        W94209  41.806  36.940   4.197
28730W        W94210   5.926  12.301   1.320
28731W        W94211   3.260   7.808  13.064
28732W        W94212  32.893  36.413  11.518
28733W        W94213  14.612  15.210  12.356
28734W        W94214   1.862  37.338   0.779
28735W        W94215   7.185  14.099   2.712
28736W        W94216  33.891   9.810   0.391
28737W        W94217   6.349  23.731   4.752
28738W        W94218  12.817   0.894   0.313
28739W        W94219  31.586  40.803   1.805
28740W        W94220  15.747   3.925  14.512
28741W        W94221  30.996  11.801   4.139
28742W        W94222   7.240  38.063  13.429
28743W        W94223   8.339  38.566  13.902
28744W        W94224  16.161  17.113  10.907
28745W        W94225   6.219  27.982   1.748
28746W        W94226  41.855   7.683  13.052
28747W        W94227  12.263  42.006   4.689
28748W        W94228  39.066  31.536  14.783
28749W        W94229  37.466   6.840   0.258
28750W        W94230  18.675  35.571  10.008
28751W        W94231  26.503   0.425  10.530
28752W        W94232  15.733  41.492  13.021
28753W        W94233  13.782  34.021  13.907
28754W        W94234  16.762   9.306   0.954
28755W        W94235  23.051  23.067  12.401
28756W        W94236  11.665  11.717   4.340
28757W        W94237  11.347  17.066  14.798
28758W        W94238  13.726   9.759  12.536
28759W        W94239   0.934  35.869  14.829
28760W        W94240  16.304  42.391  12.574
28761W        W94241   8.701  35.076   2.234
28762W        W94242  17.218   0.979  10.431
28763W        W94243  24.206  28.973   5.316
28764W        W94244  33.976  42.459  11.007
28765W        W94245  15.256  44.787  11.893
28766W        W94246  25.058   6.351   0.900
28767W        W94247  14.644  21.247  14.376
28768W        W94248  41.431  23.620  12.897
28769W        W94249   4.390   2.934  13.897
28770W        W94250  33.425  35.421   2.277
28771W        W94251  35.995  40.837  14.381
28772W        W94252  35.097   5.222  10.942
28773W        W94253  17.781  44.389  13.917
28774W        W94254  22.070  26.515  11.471
28775W        W94255  40.024   0.862  11.873
28776W        W94256   7.173  27.628  14.306
28777W        W94257  37.423  33.889   2.294
28778W        W94258  20.040  36.457   0.738
28779W        W94259  34.994   8.825   1.730
28780W        W94260   5.248  29.050  13.803
28781W        W94261  34.066  24.712  11.928
28782W        W94262  38.066  34.612  11.549
28783W        W94263  28.644   7.265   3.224
28784W        W94264  17.671   3.403   1.854
28785W        W94265  26.988  28.496   3.744
28786W        W94266  40.034  22.627  13.370
28787W        W94267  12.118  43.387  13.449
28788W        W94268   8.266  22.557  14.372
28789W        W94269   5.709  39.547  14.497
28790W        W94270   5.814  13.682  11.035
28791W        W94271   3.233   7.226   9.987
28792W        W94272  10.278  31.570   1.892
28793W        W94273  43.411  25.210   4.289
28794W        W94274  28.553   1.462   3.639
28795W        W94275  37.008  40.046  14.387
28796W        W94276  35.956   3.316  13.488
28797W        W94277   7.855  41.843  14.790
28798W        W94278  19.691   1.877  13.943
28799W        W94279  33.912  22.166  14.014
28800W        W94280   4.396   7.736  13.837
28801W        W94281  36.520  24.511   1.898
28802W        W94282  18.287  11.246   3.707
28803W        W94283  11.145   7.178   2.264
28804W        W94284   8.392   3.723  12.368
28805W        W94285  10.872  14.617   2.769
28806W        W94286  20.719  37.993  12.962
28807W        W94287  23.137  33.543  13.383
28808W        W94288  29.944  14.751   4.782
28809W        W94289  32.420  15.747   0.355
28810W        W94290  29.425  35.877   1.407
28811W        W94291  23.017  32.572  14.812
28812W        W94292  40.349   0.434  14.925
28813W        W94293  28.442  11.760  14.495
28814W        W94294   7.895  40.913   0.922
28815W        W94295  32.572   7.297  14.392
28816W        W94296  23.695  38.856   4.221
28817W        W94297  24.115  32.091  13.498
28818W        W94298   5.709  25.063   4.672
28819W        W94299  24.122  25.124  11.928
28820W        W94300  33.511  24.137   2.782
28821W        W94301  10.803  29.602   1.900
28822W        W94302   0.941  43.982   3.791
28823W        W94303  39.061   0.415   3.201
28824W        W94304  32.090  35.399   3.262
28825W        W94305  39.965  37.542   2.820
28826W        W94306  27.152  31.134  14.924
28827W        W94307  16.280  20.045   0.265
28828W        W94308  20.739  35.483   1.746
28829W        W94309   6.379  36.919   0.297
28830W        W94310  43.406  20.150  10.893
28831W        W94311   9.728   2.762   2.242
28832W        W94312  44.010  24.107   1.880
28833W        W94313  22.056  12.619   3.206
28834W        W94314  39.003  10.640   2.325
28835W        W94315  25.591   2.438  10.938
28836W        W94316  44.332  15.302   0.474
28837W        W94317  24.613  41.332   0.883
28838W        W94318  15.677   3.264   9.928
28839W        W94319   9.225  18.082   1.697
28840W        W94320  40.490  11.147  14.280
28841W        W94321   2.435  30.980  10.890
28842W        W94322   6.809  31.930  11.941
28843W        W94323  29.118  13.248   3.308
28844W        W94324  15.261  39.998  10.532
28845W        W94325  22.675  35.395  10.416
28846W        W94326  42.809  40.457   4.706
28847W        W94327   2.797  18.695   1.228
28848W        W94328  34.047  28.051  11.091
28849W        W94329  23.149   6.241   2.879
28850W        W94330  35.940   5.226   4.755
28851W        W94331  38.929  14.665  10.893
28852W        W94332  20.754  42.483  10.435
28853W        W94333  20.556  42.520  11.029
28854W        W94334   2.226  29.927  13.049
28855W        W94335   4.798  38.379  13.485
28856W        W94336  22.709  33.536  12.423
28857W        W94337  37.968  14.611  13.405
28858W        W94338   8.656   5.823   2.883
28859W        W94339   1.402  14.219   2.801
28860W        W94340  28.439  12.713  12.841
28861W        W94341  27.564   1.440  12.925
28862W        W94342  44.505  15.593  12.979
28863W        W94343  11.250  39.432   3.707
28864W        W94344  16.132  22.996   3.861
28865W        W94345  44.906  23.225   1.723
28866W        W94346  23.093   0.444   1.867
28867W        W94347   7.731  41.411   0.954
28868W        W94348  10.166  43.363   1.721
28869W        W94349  40.507  35.490   1.719
28870W        W94350  21.727  44.300   1.756
28871W        W94351  30.154   8.681   0.367
28872W        W94352  37.904   7.668   1.804
28873W        W94353  11.358  27.179  14.307
28874W        W94354  35.427   5.321  10.586
28875W        W94355  37.453  15.253   4.305
28876W        W94356  31.462   7.737   3.753
28877W        W94357  11.321  11.644   2.860
28878W        W94358  11.666  42.947  14.811
28879W        W94359  39.473   3.767   2.219
28880W        W94360  34.065  35.562  14.299
28881W        W94361  38.500  33.887  12.571
28882W        W94362  33.123  24.215  11.411
28883W        W94363  42.515  38.401  11.069
28884W        W94364  40.977  43.020  13.038
28885W        W94365  44.381  22.104  14.330
28886W        W94366   9.314   3.863   3.853
28887W        W94367   0.275   7.284   3.687
28888W        W94368  42.511   7.281  13.805
28889W        W94369  39.910   2.845   3.766
28890W        W94370  11.204  10.248  14.293
28891W        W94371  20.657  41.322  11.530
28892W        W94372  24.573  16.652   1.924
28893W        W94373  37.491  30.931  12.953
28894W        W94374  22.035   6.782   4.301
28895W        W94375  37.076  34.107   0.733
28896W        W94376  42.442  11.217   0.895
28897W        W94377   3.906  26.538   5.137
28898W        W94378  16.231  36.418  14.346
28899W        W94379  42.975   9.331  14.850
28900W        W94380  42.016  27.670  13.374
28901W        W94381  17.190  42.435   0.264
28902W        W94382  44.831  25.151  10.491
28903W        W94383   5.368  34.986   4.648
28904W        W94384  43.338   4.375   4.687
28905W        W94385   3.738  23.185   3.231
28906W        W94386  40.317  14.275   4.349
28907W        W94387   1.755  18.569   1.302
28908W        W94388   5.913   5.425   3.334
28909W        W94389  41.515   3.829  14.442
28910W        W94390  14.128  25.170   2.234
28911W        W94391   1.969  26.063  13.050
28912W        W94392  24.007   8.759  12.503
28913W        W94393   2.781  13.113   4.654
28914W        W94394  32.407   3.327  10.618
28915W        W94395  28.053   6.814   4.680
28916W        W94396  30.607  25.044  13.851
28917W        W94397  23.533  32.545   2.317
28918W        W94398  22.233  24.611  10.430
28919W        W94399  44.258   2.819   0.903
28920W        W94400  30.628  34.951  10.548
28921W        W94401   1.253   7.228  10.991
28922W        W94402  39.903  29.652   2.819
28923W        W94403  19.165  16.160  13.493
28924W        W94404  23.056  14.244  14.926
28925W        W94405  25.618  15.627   2.774
28926W        W94406  28.667  20.594   3.675
28927W        W94407  10.277  44.904   2.316
28928W        W94408  37.571  37.375  11.937
28929W        W94409  14.286   8.383  11.898
28930W        W94410   9.665   8.733  12.438
28931W        W94411  23.663  31.906   0.857
28932W        W94412  26.202   4.730  11.384
28933W        W94413  30.134  18.111  13.382
28934W        W94414   2.826  25.556   0.462
28935W        W94415  38.037   8.703   3.231
28936W        W94416  39.343   9.875   3.722
28937W        W94417  17.184   1.905  12.505
28938W        W94418  41.477  14.718  14.878
28939W        W94419  40.850  27.174  12.963
28940W        W94420  38.059  39.867  13.525
28941W        W94421  34.578   3.794   2.791
28942W        W94422  43.931  16.074  13.521
28943W        W94423   2.925  21.214  10.502
28944W        W94424  28.652  19.205   3.180
28945W        W94425  19.071  35.578  12.018
28946W        W94426  14.618  42.987   1.329
28947W        W94427  13.144  43.452   9.464
28948W        W94428  24.569   0.396  13.848
28949W        W94429  44.816   0.851  14.493
28950W        W94430  43.884  14.322   3.381
28951W        W94431  33.964  22.534  10.930
28952W        W94432  24.639   9.190   4.335
28953W        W94433  22.111  32.428   0.306
28954W        W94434  20.684   4.240  11.914
28955W        W94435   5.923   8.400  12.879
28956W        W94436  33.049  24.501  13.481
28957W        W94437  25.600  22.536  13.949
28958W        W94438   5.898  36.403  13.959
28959W        W94439  32.570   8.385   3.234
28960W        W94440  13.766   1.783   4.597
28961W        W94441  16.142  21.184  13.498
28962W        W94442   9.267  30.511  12.575
28963W        W94443  17.299  17.617  11.883
28964W        W94444  19.624  26.970  12.825
28965W        W94445  28.025  40.416   5.132
28966W        W94446  27.112  33.550  14.392
28967W        W94447   3.368   4.703   3.215
28968W        W94448  44.373   1.243  12.444
28969W        W94449  34.424  25.032  14.378
28970W        W94450  22.570  16.711  11.109
28971W        W94451  40.870  23.493  12.850
28972W        W94452  28.987  35.451  11.071
28973W        W94453  39.964   8.782  14.387
28974W        W94454  16.316  30.150   3.371
28975W        W94455  32.600  24.024  10.436
28976W        W94456   7.276  21.054  12.978
28977W        W94457  11.659  40.446   3.805
28978W        W94458  44.289  41.977  11.909
28979W        W94459   5.717  13.756   2.702
28980W        W94460   7.742  11.321  13.418
28981W        W94461   6.243  44.398  12.458
28982W        W94462  37.407  33.087  14.840
28983W        W94463  35.495   0.485   1.858
28984W        W94464  10.201   8.222   2.381
28985W        W94465   9.263   2.433   4.641
28986W        W94466  22.555  24.557   3.761
28987W        W94467  22.730  10.839   4.262
28988W        W94468  31.118  18.286   2.264
28989W        W94469  10.634   9.844   0.290
28990W        W94470   6.423   9.840  11.030
28991W        W94471   3.399  15.150  13.047
28992W        W94472  24.538   2.280  11.903
28993W        W94473  38.439   6.895   2.218
28994W        W94474  15.741  26.170   0.278
28995W        W94475  28.089  14.777   9.987
28996W        W94476  19.045   9.674   1.288
28997W        W94477  12.201  25.145  14.766
28998W        W94478  44.982  18.782  11.064
28999W        W94479  18.702   3.255  14.282
29000W        W94480  44.298   9.767  10.098
29001W        W94481  15.111  23.716  11.950
29002W        W94482  14.772  28.177  12.991
29003W        W94483  20.136   1.429   3.381
29004W        W94484  20.254  13.280   3.859
29005W        W94485   2.338  22.061  11.074
29006W        W94486  10.660  39.850  14.480
29007W        W94487  40.375   1.344   2.788
29008W        W94488  30.961  15.114   0.336
29009W        W94489  13.264   4.423   2.237
29010W        W94490  42.290   3.384  12.965
29011W        W94491  42.400  39.984  12.926
29012W        W94492  41.363   8.843   2.769
29013W        W94493  33.961  10.218  11.587
29014W        W94494  25.525   1.258  13.925
29015W        W94495  41.924   4.205   3.254
29016W        W94496   8.273   6.193  10.977
29017W        W94497   4.913   4.786  14.477
29018W        W94498  12.284  36.954   4.834
29019W        W94499  28.169  32.482   1.882
29020W        W94500  10.369  10.862  14.873
29021W        W94501  24.063  15.248   2.342
29022W        W94502  27.027  28.114  13.909
29023W        W94503   1.269  10.797   2.811
29024W        W94504  32.066   7.783  12.417
29025W        W94505  37.575   3.825  11.516
29026W        W94506  14.094  10.866  14.357
29027W        W94507  32.039  19.611  12.451
29028W        W94508  16.636  17.083  10.618
29029W        W94509  10.788  18.547  14.427
29030W        W94510  36.383  36.586  11.566
29031W        W94511  27.652  36.372  14.902
29032W        W94512   7.911  42.846  11.462
29033W        W94513  26.175  10.828   1.891
29034W        W94514   9.383  22.067  14.313
29035W        W94515   2.259  43.995  12.364
29036W        W94516  11.624   6.739  14.514
29037W        W94517  27.456   6.192  13.516
29038W        W94518   3.252   8.749  10.425
29039W        W94519   5.225  22.654  13.928
29040W        W94520  34.975  42.946   1.840
29041W        W94521   6.831   3.408  14.428
29042W        W94522  28.165   0.368  10.642
29043W        W94523  27.093   8.866   2.180
29044W        W94524   1.368  13.716  11.480
29045W        W94525   2.794  18.276  12.065
29046W        W94526  34.005  10.753   3.277
29047W        W94527  15.289   0.463  13.886
29048W        W94528  15.813  12.740   1.380
29049W        W94529  37.955  22.577   1.355
29050W        W94530  30.480  33.072   2.295
29051W        W94531   9.872  27.025  14.429
29052W        W94532  33.413  27.093  13.490
29053W        W94533   9.237   6.719   2.368
29054W        W94534  20.138  16.245   4.344
29055W        W94535   3.923  28.547   1.321
29056W        W94536  40.365  40.542  13.015
29057W        W94537  37.470  32.634   2.688
29058W        W94538  16.125   0.810  11.548
29059W        W94539  28.613  18.632   1.234
29060W        W94540   7.381  23.057   1.911
29061W        W94541  29.471  30.101  14.791
29062W        W94542  37.363  13.629  14.855
29063W        W94543  37.844  18.572  10.945
29064W        W94544   0.965  21.047  10.066
29065W        W94545   8.691   5.800  14.485
29066W        W94546  12.324  38.360   2.750
29067W        W94547  44.985  10.211   4.724
29068W        W94548  36.537  38.992   4.248
29069W        W94549  15.705  42.979   1.889
29070W        W94550  39.048   9.664  13.312
29071W        W94551   5.325  36.094   0.375
29072W        W94552   9.762  30.031   2.268
29073W        W94553   5.699  34.042  14.362
29074W        W94554  12.679  12.691  10.502
29075W        W94555  33.952  11.810  14.000
29076W        W94556  28.640  43.941   0.836
29077W        W94557  14.318   5.239  10.459
29078W        W94558  15.800  43.383  13.995
29079W        W94559  20.579   4.822  11.437
29080W        W94560  42.979  17.260  14.893
29081W        W94561   2.456  37.518   5.236
29082W        W94562  19.161  14.251   4.220
29083W        W94563  32.118  13.131   5.120
29084W        W94564   7.762  40.980  11.882
29085W        W94565  37.839  37.470  11.439
29086W        W94566  26.079  18.133   0.302
29087W        W94567  21.628  10.760   0.341
29088W        W94568   9.644  14.275  11.505
29089W        W94569  36.079  20.558  14.884
29090W        W94570  32.433   3.862  12.547
29091W        W94571  36.924  15.099  11.864
29092W        W94572   4.788   1.901  12.064
29093W        W94573  37.869  27.493  10.897
29094W        W94574  20.738   2.855  12.089
29095W        W94575  29.481   2.252  10.610
29096W        W94576  43.309  38.899   4.703
29097W        W94577   2.858  16.812  14.390
29098W        W94578  44.346  39.836   2.787
29099W        W94579  40.351  41.455  12.421
29100W        W94580  16.182  10.864   2.245
29101W        W94581   4.784  15.729   0.937
29102W        W94582  11.771  38.026  11.557
29103W        W94583  16.134  16.253  10.477
29104W        W94584  38.057  40.303   2.730
29105W        W94585  33.540  38.041  11.469
29106W        W94586  21.230  34.028  14.926
29107W        W94587  40.502  36.980  12.850
29108W        W94588  31.145  25.712  12.902
29109W        W94589  39.379  15.216  12.045
29110W        W94590  36.973  30.003   3.825
29111W        W94591   7.391  36.915  11.384
29112W        W94592  34.476  35.100   4.345
29113W        W94593  32.479   4.287   0.736
29114W        W94594  32.920  15.635  13.050
29115W        W94595  16.606  15.771   4.654
29116W        W94596  27.099   4.752  14.456
29117W        W94597  32.619  18.638  12.554
29118W        W94598   9.240   1.476   0.345
29119W        W94599  25.502  34.985  12.399
29120W        W94600   0.912  27.079  14.853
29121W        W94601  34.952   0.919   4.120
29122W        W94602  43.851   7.278   1.914
29123W        W94603  15.280   3.379  12.417
29124W        W94604  13.337   5.297   2.334
29125W        W94605  29.151  41.461  11.876
29126W        W94606   9.318   5.377   4.707
29127W        W94607  18.771  13.843   0.859
29128W        W94608   6.224  22.630  14.031
29129W        W94609  21.238  30.589   4.632
29130W        W94610   4.709  31.606  12.864
29131W        W94611   5.789  20.227   2.336
29132W        W94612  27.478  26.458   3.821
29133W        W94613   9.346  23.094  12.441
29134W        W94614  26.189   5.742  12.832
29135W        W94615  12.306  39.521   4.827
29136W        W94616   4.419  27.686   1.283
29137W        W94617   8.857  28.100  13.535
29138W        W94618   9.748  24.514  13.064
29139W        W94619  36.968  25.517  14.775
29140W        W94620  13.165  12.695   1.388
29141W        W94621   5.844  33.412   4.804
29142W        W94622  25.513   7.184  10.443
29143W        W94623  42.800   2.790  14.940
29144W        W94624   4.233  15.757  13.868
29145W        W94625  35.463  19.172  12.957
29146W        W94626  25.547  13.202   5.129
29147W        W94627  29.932  12.698   2.380
29148W        W94628  11.319  23.103  14.490
29149W        W94629  34.428  36.462  13.474
29150W        W94630   0.885  24.557  12.051
29151W        W94631  11.634  29.930   0.316
29152W        W94632   4.877  10.656  12.895
29153W        W94633   4.364  41.386   1.392
29154W        W94634  40.892  29.560  11.454
29155W        W94635   2.827  44.498  10.613
29156W        W94636  12.358   4.274   4.186
29157W        W94637  29.446   7.262  11.977
29158W        W94638  34.428  13.691  11.047
29159W        W94639  19.675  23.588   2.885
29160W        W94640  22.144  42.464   1.905
29161W        W94641  39.383   7.398  10.447
29162W        W94642  15.767   5.810   3.730
29163W        W94643  24.485   5.385  12.939
29164W        W94644  10.184  16.784  13.991
29165W        W94645  18.586  38.401  12.043
29166W        W94646  42.022   8.370   4.791
29167W        W94647  32.390  18.654   1.287
29168W        W94648  38.524  31.935   2.877
29169W        W94649  15.774   6.224  14.850
29170W        W94650  15.741  21.134   3.252
29171W        W94651  12.136  22.158   3.673
29172W        W94652   5.722  24.644  12.908
29173W        W94653  10.843   4.828   9.954
29174W        W94654   6.214   7.697   3.170
29175W        W94655  34.960   1.381  14.398
29176W        W94656   8.328   7.183   1.428
29177W        W94657  32.968  15.271  11.396
29178W        W94658  37.961   3.418   5.284
29179W        W94659  35.395  34.026   0.376
29180W        W94660  20.116  15.299   2.894
29181W        W94661   2.895  25.173  10.635
29182W        W94662  30.910  32.620   0.744
29183W        W94663  41.811  32.933  11.125
29184W        W94664  33.455  16.753   4.821
29185W        W94665   2.767   6.427   2.251
29186W        W94666  10.282  27.069   1.245
29187W        W94667   7.285  43.953   3.721
29188W        W94668  30.448  15.129  14.355
29189W        W94669  33.065  27.185   2.882
29190W        W94670  30.029   4.905   1.275
29191W        W94671  22.114  39.423   4.618
29192W        W94672  36.933   2.338   1.372
29193W        W94673  24.144  31.413   0.744
29194W        W94674  17.752  32.121  12.938
29195W        W94675  15.765  12.251  13.457
29196W        W94676  20.742  25.636   2.825
29197W        W94677  32.999  28.187  11.533
29198W        W94678  36.953  18.097  12.511
29199W        W94679  43.769  14.229   1.934
29200W        W94680  42.925  16.238   2.388
29201W        W94681  32.001  35.434  10.935
29202W        W94682  41.857  16.243   2.901
29203W        W94683  36.075  26.600  10.639
29204W        W94684   2.864  43.477  13.427
29205W        W94685   8.234  13.240   3.153
29206W        W94686  39.918  29.081   3.667
29207W        W94687  19.636  22.010  12.880
29208W        W94688   3.423   6.307  14.932
29209W        W94689   9.214  33.120   4.800
29210W        W94690  41.299  19.279   4.335
29211W        W94691   3.400  44.906   2.330
29212W        W94692  34.570   8.705  14.763
29213W        W94693  44.963  28.449   3.710
29214W        W94694   7.845  12.170  11.994
29215W        W94695  40.495  38.545   0.474
29216W        W94696  10.238  14.768   1.913
29217W        W94697   3.330  20.095   1.238
29218W        W94698  20.195   6.182  11.062
29219W        W94699  32.508   2.406   2.700
29220W        W94700  14.300  38.903  12.885
29221W        W94701   0.913  15.298  11.077
29222W        W94702  34.498  35.602  14.859
29223W        W94703  21.117   3.415  12.419
29224W        W94704  12.763   7.210   3.237
29225W        W94705  31.106   1.245  11.605
29226W        W94706  17.766  12.163  14.782
29227W        W94707  39.517  26.056  14.986
29228W        W94708   5.703   1.325  10.450
29229W        W94709  31.013   2.949  10.994
29230W        W94710  35.600  24.509   0.427
29231W        W94711   7.295   8.826   5.238
29232W        W94712  41.003  15.759   1.447
29233W        W94713  25.206  12.325   0.944
29234W        W94714  18.659  21.666   2.750
29235W        W94715  15.136  35.573  12.495
29236W        W94716   8.203  16.229   2.681
29237W        W94717  36.884  32.522   2.765
29238W        W94718  13.258  11.185   3.322
29239W        W94719   8.697   8.319   1.229
29240W        W94720  26.523  20.610   3.643
29241W        W94721  39.347   9.345   3.698
29242W        W94722   7.691  27.627   2.752
29243W        W94723  20.066  43.486   1.889
29244W        W94724  24.137  30.486   3.357
29245W        W94725  17.672  17.767   0.879
29246W        W94726  37.556  34.094  11.933
29247W        W94727  27.468  24.125  12.899
29248W        W94728  19.039  13.327   4.256
29249W        W94729  17.737  17.603   4.113
29250W        W94730  39.454  38.859  12.834
29251W        W94731  16.194  42.950  14.837
29252W        W94732   6.270   1.433  12.482
29253W        W94733  20.606  31.024  10.942
29254W        W94734  12.150  19.770  14.475
29255W        W94735  18.086   1.939  14.938
29256W        W94736  10.277  15.328   0.823
29257W        W94737  32.024  41.483   2.730
29258W        W94738  33.927  30.983  12.905
29259W        W94739  14.618   7.397   0.829
29260W        W94740   2.765  25.180   3.715
29261W        W94741  23.631   6.811   3.730
29262W        W94742  38.968  39.469   2.229
29263W        W94743  26.089  24.050  13.886
29264W        W94744  22.249   7.756  12.458
29265W        W94745  15.665  21.560  10.504
29266W        W94746   6.765  23.215   2.411
29267W        W94747   5.819  13.823   3.317
29268W        W94748  26.075  44.008   4.670
29269W        W94749   0.777   8.751   2.878
29270W        W94750  29.445   0.795   5.103
29271W        W94751   7.707  34.044  11.607
29272W        W94752  17.573  24.138  11.417
29273W        W94753  43.955  12.261   4.286
29274W        W94754  11.686  17.680   2.793
29275W        W94755  32.570   8.757  12.854
29276W        W94756   5.412  15.278   2.692
29277W        W94757  35.871   4.316  11.584
29278W        W94758  24.665  18.252   4.679
29279W        W94759  24.621  36.452   1.372
29280W        W94760  38.393  41.031  12.921
29281W        W94761  17.291  30.469  10.567
29282W        W94762  28.454  27.079   2.410
29283W        W94763  16.242  44.487   3.312
29284W        W94764  25.633  12.235   4.333
29285W        W94765  26.036  12.185  11.973
29286W        W94766  31.898  42.003   3.780
29287W        W94767  13.608  41.410  13.906
29288W        W94768   2.447  15.681   2.182
29289W        W94769  18.581  34.866  11.029
29290W        W94770  14.738   7.404  14.344
29291W        W94771  11.842  30.530  11.565
29292W        W94772  10.170   3.715   4.159
29293W        W94773  35.877  26.590   4.174
29294W        W94774  39.909  20.567  11.001
29295W        W94775  32.472  24.976   2.853
29296W        W94776  33.020  10.140   3.146
29297W        W94777  13.275  24.571   3.354
29298W        W94778  24.711  17.308  14.372
29299W        W94779  42.824  14.717   0.277
29300W        W94780  19.136  29.640   4.783
29301W        W94781   9.693  11.244   1.360
29302W        W94782   4.930  26.664  13.929
29303W        W94783   5.252  17.725  11.941
29304W        W94784  44.471  15.122  14.352
29305W        W94785  20.585  33.026   1.877
29306W        W94786  42.391  38.853  12.569
29307W        W94787  18.050  27.966  10.626
29308W        W94788  27.467  35.870   3.306
29309W        W94789  22.501  12.716  12.943
29310W        W94790   4.440  18.632  10.939
29311W        W94791  24.622  19.178   3.658
29312W        W94792  26.530  38.533   1.752
29313W        W94793  21.650  28.011   3.813
29314W        W94794  21.198  41.322  12.976
29315W        W94795  24.031  43.776   5.111
29316W        W94796  39.490   7.410  13.033
29317W        W94797   2.275  11.208   2.789
29318W        W94798  13.158   4.928   1.733
29319W        W94799  10.292   4.715  12.410
29320W        W94800  15.721  35.576  11.991
29321W        W94801  24.186  20.561   4.701
29322W        W94802  16.748  44.795   4.268
29323W        W94803  11.822  29.528   3.364
29324W        W94804  18.556  31.486  11.873
29325W        W94805  23.516  33.131  11.401
29326W        W94806  32.894  17.215  12.554
29327W        W94807  20.039   2.748  14.983
29328W        W94808   4.226  30.466   1.802
29329W        W94809  28.588  27.958  10.932
29330W        W94810   6.423  43.948  12.885
29331W        W94811  21.090   8.301   1.705
29332W        W94812  24.028  35.967   4.195
29333W        W94813  31.498  14.654   2.717
29334W        W94814  43.442  25.183  12.460
29335W        W94815  38.892  26.148   0.414
29336W        W94816  35.522  28.640  10.568
29337W        W94817  39.884   0.336   1.326
29338W        W94818   5.329  31.470  14.892
29339W        W94819   7.194   7.712   4.718
29340W        W94820   6.728   2.779  13.398
29341W        W94821  26.482  33.478  14.788
29342W        W94822  26.180  22.525  14.918
29343W        W94823  10.837  42.851   0.362
29344W        W94824  41.864  34.000  12.835
29345W        W94825  24.988   3.241   4.598
29346W        W94826  42.944  14.609   0.958
29347W        W94827  13.250   1.384  14.789
29348W        W94828  34.453   5.297   3.237
29349W        W94829  28.108  14.258  10.553
29350W        W94830  24.155  33.887   3.265
29351W        W94831  32.455  26.193   1.824
29352W        W94832  23.721  18.170   0.851
29353W        W94833   4.885  18.646   1.880
29354W        W94834  15.658  30.626  12.069
29355W        W94835  36.365  15.222   0.739
29356W        W94836   8.194   7.684   1.920
29357W        W94837  40.827   4.786  11.857
29358W        W94838  12.361   0.303   2.330
29359W        W94839  29.983  22.196   3.331
29360W        W94840   5.731   3.785  14.824
29361W        W94841  38.032   7.896   3.666
29362W        W94842  38.441   7.391   0.730
29363W        W94843  14.676  43.393  11.594
29364W        W94844  43.495   3.461  12.359
29365W        W94845  26.611  38.012   0.420
29366W        W94846  32.115  35.061  13.951
29367W        W94847  14.276  15.707   1.331
29368W        W94848  26.118  23.547   3.224
29369W        W94849  18.116   7.260  10.419
29370W        W94850  16.154  22.734  14.849
29371W        W94851  17.169  37.565   4.839
29372W        W94852  39.858  42.948  14.285
29373W        W94853  15.190   3.782   1.821
29374W        W94854   8.254  27.081  12.089
29375W        W94855   3.850  29.613  13.386
29376W        W94856  25.035  10.250  13.394
29377W        W94857  25.097  31.964   1.310
29378W        W94858   9.287  30.625   3.158
29379W        W94859  15.107  18.123   4.279
29380W        W94860  14.705   2.834  11.496
29381W        W94861  43.853  24.173   3.686
29382W        W94862  20.264  44.451   4.692
29383W        W94863  32.058  34.886   2.786
29384W        W94864  18.242  13.110  14.440
29385W        W94865  26.007  40.928   0.394
29386W        W94866  28.963  43.504   2.680
29387W        W94867  42.013  38.560  13.875
29388W        W94868  35.899  43.773   2.804
29389W        W94869  11.806  24.112   5.160
29390W        W94870   7.190  26.582   3.772
29391W        W94871   2.308   5.850   3.812
29392W        W94872  22.093  38.332   0.349
29393W        W94873  38.995   8.810  13.365
29394W        W94874  25.668  31.617   3.669
29395W        W94875  32.543   8.737   4.834
29396W        W94876  11.153  36.581  14.937
29397W        W94877  12.733  30.524  14.444
29398W        W94878  36.369   3.271  12.919
29399W        W94879  43.786   3.305  13.391
29400W        W94880  27.015  22.030  14.305
29401W        W94881   4.436   3.807   3.221
29402W        W94882  40.510  30.980  11.932
29403W        W94883  12.664  24.526  12.919
29404W        W94884  30.046  42.360  10.637
29405W        W94885  18.256  34.036   4.280
29406W        W94886  41.863  14.816  12.526
29407W        W94887  38.872  41.445   1.859
29408W        W94888  37.450  36.897  12.094
29409W        W94889   8.794  44.402   3.689
29410W        W94890  25.677  36.564  14.304
29411W        W94891  35.593  31.144  13.398
29412W        W94892   6.733  33.981   4.289
29413W        W94893  15.717  30.090  10.943
29414W        W94894  34.877  23.716  10.951
29415W        W94895  42.030  44.952  14.781
29416W        W94896  18.558  39.486   0.451
29417W        W94897  40.038  38.456   0.277
29418W        W94898  14.257  43.289   0.258
29419W        W94899  34.403  26.579  10.642
29420W        W94900  44.915  28.974  14.031
29421W        W94901  22.557  35.900   5.179
29422W        W94902   8.345  33.491   1.292
29423W        W94903  13.320   7.900  14.993
29424W        W94904  21.658  34.500   4.778
29425W        W94905  22.196   9.694  14.764
29426W        W94906  24.678  12.319  11.425
29427W        W94907  28.170  17.768   2.852
29428W        W94908  23.609  36.407  10.640
29429W        W94909  42.365  35.880  10.413
29430W        W94910  44.868  33.424  12.927
29431W        W94911  31.906  30.415  13.307
29432W        W94912   5.291  27.573  11.076
29433W        W94913  18.058  20.716  13.870
29434W        W94914  18.127   8.820  10.043
29435W        W94915  40.353  16.263   4.191
29436W        W94916  43.408  30.532  13.349
29437W        W94917  37.479  26.121  11.508
29438W        W94918  39.048  41.500  10.573
29439W        W94919  28.026  14.330   5.235
29440W        W94920  39.386  36.356  12.480
29441W        W94921  23.147  10.877   0.254
29442W        W94922  37.069  30.937   4.228
29443W        W94923   0.978  18.689   1.409
29444W        W94924   8.886  30.437  14.331
29445W        W94925  30.125  40.453   1.824
29446W        W94926   4.301  33.007  14.448
29447W        W94927  40.431  39.451   2.261
29448W        W94928   6.912  16.281   2.198
29449W        W94929  19.237  30.567  13.992
29450W        W94930  14.216   4.273  11.032
29451W        W94931  34.951  22.129  14.968
29452W        W94932  34.004  14.148   0.795
29453W        W94933  43.985  30.456  13.315
29454W        W94934   1.748   4.798   3.633
29455W        W94935  30.083  29.081   3.178
29456W        W94936   2.735  24.700   3.655
29457W        W94937  38.545   7.898  13.041
29458W        W94938   3.276   8.163   4.238
29459W        W94939   0.889  30.515   4.664
29460W        W94940  44.371  14.251   2.699
29461W        W94941  28.457  40.826   1.363
29462W        W94942  41.848  11.707  13.958
29463W        W94943  37.872   6.705   0.812
29464W        W94944  31.475  15.806  12.394
29465W        W94945   5.690  10.211   0.738
29466W        W94946  21.062  16.162  11.503
29467W        W94947   3.938  14.698   3.772
29468W        W94948  17.099  30.093   1.286
29469W        W94949  21.132  27.494   4.679
29470W        W94950  28.629  22.151  11.474
29471W        W94951  10.651  23.650   3.283
29472W        W94952  19.694   8.669   3.265
29473W        W94953   8.746   3.324  14.818
29474W        W94954  14.152  22.102  12.979
29475W        W94955   2.232  22.677  13.004
29476W        W94956   5.914  32.060  13.465
29477W        W94957   4.795  21.084   2.336
29478W        W94958  11.673   0.410   4.184
29479W        W94959  11.685  27.003   1.795
29480W        W94960  20.230  43.270   4.248
29481W        W94961  36.475   4.944   0.767
29482W        W94962  21.247  29.997   2.358
29483W        W94963   0.384  13.837  12.071
29484W        W94964  16.240  15.803   2.191
29485W        W94965  36.394  19.239  13.460
29486W        W94966  32.115  12.849  10.005
29487W        W94967   8.819   8.283  13.057
29488W        W94968  32.487   9.380  10.642
29489W        W94969  43.015  19.238   2.221
29490W        W94970  44.754  18.749  11.997
29491W        W94971  10.706  21.690   2.765
29492W        W94972  21.245   6.897  11.374
29493W        W94973  18.645  21.662   3.275
29494W        W94974  11.233  25.670  14.833
29495W        W94975  41.855  10.144  10.510
29496W        W94976  25.072   4.797   3.296
29497W        W94977  44.950  34.593   4.310
29498W        W94978  44.292  43.422   5.250
29499W        W94979   5.338  31.532   1.422
29500W        W94980  12.303  24.673   2.372
29501W        W94981  36.059  42.895  13.310
29502W        W94982  37.984  20.536   3.698
29503W        W94983  17.125  26.050  14.900
29504W        W94984  14.819   4.814  12.989
29505W        W94985  26.166   2.276   2.874
29506W        W94986  13.220  24.527   3.692
29507W        W94987  22.579   0.859   5.152
29508W        W94988  18.641   3.421   9.974
29509W        W94989  36.932  43.491   2.694
29510W        W94990  20.701  14.690  10.532
29511W        W94991  44.316  11.157  13.358
29512W        W94992  21.594  18.599   4.608
29513W        W94993  33.964   5.211   2.700
29514W        W94994   5.235   5.341  13.062
29515W        W94995  16.192  19.638   2.706
29516W        W94996  41.019  27.154  10.948
29517W        W94997  34.967  18.622  12.426
29518W        W94998  36.356  37.394   2.312
29519W        W94999  37.409  13.331   0.854
29520W        W95000  27.646  36.426   2.386
29521W        W95001  13.225   8.283  12.968
29522W        W95002  24.022  21.601  12.992
29523W        W95003   6.286  30.425  12.899
29524W        W95004  25.624  17.250  13.852
29525W        W95005  28.597  12.692  13.494
29526W        W95006  35.103  18.070  14.402
29527W        W95007  35.039  19.174  11.604
29528W        W95008  18.051  27.681  14.300
29529W        W95009  34.522  13.134  11.949
29530W        W95010  18.559   2.877  12.517
29531W        W95011   5.783  43.477   3.820
29532W        W95012  30.001  31.462  13.529
29533W        W95013  22.692  24.094  11.605
29534W        W95014   7.682  35.064  12.979
29535W        W95015  40.320  10.359   1.346
29536W        W95016   2.738  20.678  14.404
29537W        W95017  12.259   7.210   2.801
29538W        W95018  35.050  15.277  10.503
29539W        W95019  30.504  24.517  13.795
29540W        W95020  37.395  11.149   4.124
29541W        W95021  19.669  15.578  12.559
29542W        W95022  20.577  43.407  12.837
29543W        W95023  40.480  42.985   0.883
29544W        W95024  39.435   8.381   1.420
29545W        W95025  35.947   5.818   0.372
29546W        W95026  35.502  32.893  13.352
29547W        W95027  36.907   5.810  11.458
29548W        W95028  34.888   2.731   4.738
29549W        W95029  38.880   9.312  14.814
29550W        W95030  44.414  34.063  10.937
29551W        W95031  31.059  38.872  12.348
29552W        W95032   3.793  17.555  12.996
29553W        W95033  42.775  43.937   4.162
29554W        W95034   1.947  18.604  10.957
29555W        W95035  25.668  38.029  12.516
29556W        W95036   9.778  24.616  13.369
29557W        W95037   1.955  32.391   2.234
29558W        W95038  26.135  14.698  14.934
29559W        W95039  26.122  34.392   3.666
29560W        W95040  20.611  42.425   3.756
29561W        W95041  12.741  36.395   0.429
29562W        W95042  37.983  42.526  13.467
29563W        W95043  15.211  36.079   3.689
29564W        W95044  34.579  28.029  11.517
29565W        W95045  31.488  29.017   2.242
29566W        W95046  42.887  27.144  14.338
29567W        W95047  35.478  36.939  12.057
29568W        W95048  37.957  31.634  11.119
29569W        W95049   1.381  42.901  13.908
29570W        W95050  10.807   9.216   2.345
29571W        W95051  21.538   0.822   5.101
29572W        W95052  30.426  32.894   1.368
29573W        W95053  13.349  32.944   4.231
29574W        W95054  15.223  17.177   5.201
29575W        W95055  14.190  37.493   2.198
29576W        W95056  31.044  26.572   0.471
29577W        W95057  40.333   6.732  11.897
29578W        W95058   9.746  38.477  11.551
29579W        W95059  40.043  37.484  13.014
29580W        W95060  25.147   8.674  12.380
29581W        W95061  34.575  24.980  13.322
29582W        W95062   7.193  43.466   2.286
29583W        W95063  31.497  24.646   1.299
29584W        W95064  22.053  23.607  11.938
29585W        W95065  19.773  39.861   3.220
29586W        W95066  14.666  16.141  14.461
29587W        W95067  13.633  19.653   4.745
29588W        W95068   2.378  35.925  10.958
29589W        W95069  42.873   0.915   0.737
29590W        W95070  28.517  34.377   1.882
29591W        W95071   3.215  10.141   2.198
29592W        W95072   3.453  19.627  13.959
29593W        W95073  16.649  21.753  13.918
29594W        W95074  25.576  31.445  11.405
29595W        W95075  42.980  42.396  14.940
29596W        W95076   9.155  11.315   2.791
29597W        W95077   8.774  22.601  10.527
29598W        W95078   8.837  38.356  14.905
29599W        W95079   4.448  33.502  13.804
29600W        W95080  23.498   6.724  13.037
29601W        W95081  40.540   3.371  12.943
29602W        W95082  16.178  17.782   1.772
29603W        W95083  30.069  12.614   1.787
29604W        W95084  38.344  23.503  13.486
29605W        W95085  13.616   9.310  11.075
29606W        W95086  20.665  17.738  11.900
29607W        W95087  11.142  15.701   2.295
29608W        W95088  38.853  43.501   2.722
29609W        W95089  28.580  13.239  11.080
29610W        W95090   9.352  34.394  11.061
29611W        W95091  25.661  24.577  10.894
29612W        W95092  35.595  36.524   2.877
29613W        W95093  32.929  31.041   3.374
29614W        W95094   0.955  17.070  14.415
29615W        W95095  16.768  10.282   3.767
29616W        W95096  35.028  13.645   3.738
29617W        W95097  37.884   0.274   1.903
29618W        W95098  30.645  22.501  14.304
29619W        W95099  31.546  42.452  12.982
29620W        W95100  20.524   8.801  12.359
29621W        W95101  36.035  18.694   5.082
29622W        W95102  31.120  12.704   4.348
29623W        W95103   3.861  14.104   4.672
29624W        W95104  12.140  30.488  11.063
29625W        W95105  11.660  38.829  11.484
29626W        W95106  20.243  28.646  11.991
29627W        W95107   2.848   7.322  12.069
29628W        W95108  26.471   5.851  12.402
29629W        W95109  41.529  10.676   2.685
29630W        W95110  15.693  27.519  12.471
29631W        W95111   0.840  28.150   0.313
29632W        W95112  41.358  34.927  11.062
29633W        W95113  13.621   6.823   4.648
29634W        W95114   1.381  18.089  11.393
29635W        W95115   1.890  37.558   2.896
29636W        W95116  35.540  19.066   4.747
29637W        W95117   8.169  15.202  11.375
29638W        W95118   1.776  30.936  14.392
29639W        W95119   6.908   0.492   1.234
29640W        W95120  40.915   5.255   3.160
29641W        W95121   8.348  37.383   0.773
29642W        W95122   1.905  27.191   1.284
29643W        W95123  36.969  13.661  13.829
29644W        W95124  13.141  36.361  13.915
29645W        W95125  37.917  36.865  14.809
29646W        W95126  22.199  29.477   4.296
29647W        W95127   2.280  44.781   3.222
29648W        W95128  42.795  39.321  13.791
29649W        W95129   4.876   3.800   2.899
29650W        W95130  11.146  15.756   4.173
29651W        W95131  41.354  35.426  13.031
29652W        W95132  21.081  23.985  11.124
29653W        W95133  27.661  32.599   4.694
29654W        W95134  43.769  20.190   5.665
29655W        W95135  39.813  36.414  11.496
29656W        W95136  17.737  27.127  13.988
29657W        W95137   6.301  40.547   0.339
29658W        W95138  37.964  29.670  11.950
29659W        W95139  36.908  25.484  10.913
29660W        W95140  13.628  40.886   2.758
29661W        W95141  17.137  13.196  13.902
29662W        W95142  44.881  37.544   1.448
29663W        W95143  13.320   9.373  14.921
29664W        W95144  43.425  22.578   1.443
29665W        W95145  19.180  25.515  11.605
29666W        W95146   5.329  29.968  13.334
29667W        W95147  18.063   1.366   2.722
29668W        W95148  29.058  20.605  14.951
29669W        W95149   8.376  40.439   0.796
29670W        W95150  38.013  16.751   3.204
29671W        W95151  31.959  11.678   3.285
29672W        W95152  25.507  38.973  12.554
29673W        W95153  40.045  40.322   2.749
29674W        W95154   3.395  10.242  13.434
29675W        W95155  15.098  28.939  10.518
29676W        W95156  19.718  27.571   4.627
29677W        W95157  42.357  13.701  11.891
29678W        W95158  26.474  22.110  13.925
29679W        W95159  42.865  42.964   1.395
29680W        W95160  43.006  33.481  11.501
29681W        W95161   0.305  38.520   0.363
29682W        W95162  17.132  34.517   0.355
29683W        W95163  15.709  42.338  14.483
29684W        W95164  24.020  28.466  10.942
29685W        W95165  22.214  29.094   3.785
29686W        W95166  13.227  23.175   1.736
29687W        W95167   1.405  12.326  14.333
29688W        W95168  41.930  41.301   3.333
29689W        W95169  31.528  20.648   1.263
29690W        W95170  13.607  23.103   2.745
29691W        W95171  38.849  18.577  12.073
29692W        W95172   2.962  26.061  14.976
29693W        W95173  19.208  34.500   2.687
29694W        W95174  18.285   6.709   2.275
29695W        W95175   0.303   4.920  14.907
29696W        W95176  21.566  39.480  10.952
29697W        W95177  20.214  21.132   0.812
29698W        W95178  28.454  33.523  14.412
29699W        W95179  25.537   6.254   1.719
29700W        W95180  17.723   4.907   4.824
29701W        W95181  23.582  36.483  12.006
29702W        W95182   8.804   7.316  13.354
29703W        W95183  25.662  30.468  11.935
29704W        W95184  13.137  35.476   3.784
29705W        W95185  24.991  42.415  11.525
29706W        W95186   7.795  28.581   2.771
29707W        W95187  44.446  23.096  10.581
29708W        W95188   8.727   8.814  14.422
29709W        W95189  19.106  39.537  14.883
29710W        W95190  25.033  34.970  11.986
29711W        W95191  10.821  15.614  10.448
29712W        W95192  13.605  35.942  12.555
29713W        W95193  39.948   3.897  12.940
29714W        W95194  17.784  33.929  11.485
29715W        W95195   6.276  11.673   2.727
29716W        W95196   7.233  42.940   4.133
29717W        W95197  37.002  35.917   4.131
29718W        W95198  22.527  29.098  12.047
29719W        W95199  21.165   7.369  13.985
29720W        W95200   8.259  23.072  14.978
29721W        W95201  20.617  38.495   3.685
29722W        W95202  11.756  14.805   2.741
29723W        W95203  41.823   1.942  12.826
29724W        W95204  38.905   9.395   3.658
29725W        W95205  23.137  25.695  10.992
29726W        W95206  38.542  18.090  10.977
29727W        W95207  13.652  30.645   0.871
29728W        W95208   7.192  22.619  14.358
29729W        W95209  35.931  16.668   1.300
29730W        W95210  24.665  32.459   3.674
29731W        W95211   8.294  11.224  13.829
29732W        W95212  36.482  10.381   3.755
29733W        W95213  29.164  28.440   2.336
29734W        W95214  10.817  29.573   4.166
29735W        W95215  28.439  13.264   2.720
29736W        W95216  14.804  21.676  12.394
29737W        W95217   2.287  37.978   3.228
29738W        W95218  27.196  23.711   2.238
29739W        W95219  38.533  22.536  14.027
29740W        W95220  35.419  34.487  14.995
29741W        W95221  18.207  41.302  10.600
29742W        W95222  27.170  22.034   0.923
29743W        W95223   7.343   4.252  12.940
29744W        W95224  22.051   6.416  11.941
29745W        W95225   5.814  16.307  10.539
29746W        W95226  17.595  12.788  12.031
29747W        W95227  31.404  34.425   1.846
29748W        W95228  39.555  18.081   4.166
29749W        W95229   3.860  43.330  10.593
29750W        W95230  24.016  22.091  10.445
29751W        W95231   8.230  23.662  14.397
29752W        W95232  15.611  17.625   4.691
29753W        W95233  19.713  34.893   3.825
29754W        W95234  37.958  27.625  13.371
29755W        W95235  24.501  21.171   4.170
29756W        W95236  42.302  14.830  11.119
29757W        W95237  20.238  38.405  10.433
29758W        W95238   0.908  42.475   0.466
29759W        W95239  32.916   6.372   4.826
29760W        W95240  14.744   2.249   4.733
29761W        W95241  12.330  14.193   2.317
29762W        W95242  18.253   3.732  12.001
29763W        W95243  21.164  18.219  11.011
29764W        W95244  12.729  30.649   4.243
29765W        W95245   1.294   5.400   0.424
29766W        W95246  13.802  32.944   3.676
29767W        W95247  26.528  34.386  10.629
29768W        W95248   3.399  21.544  14.919
29769W        W95249  35.368  17.637  10.949
29770W        W95250  39.914   2.417  13.050
29771W        W95251  38.513  33.512  14.409
29772W        W95252  22.069  19.193  11.512
29773W        W95253  24.017  15.579   2.887
29774W        W95254  44.814  32.600   0.936
29775W        W95255  12.852   3.373   3.381
29776W        W95256  30.144   2.764   4.170
29777W        W95257  36.457  23.137  14.011
29778W        W95258  35.477   6.799   3.650
29779W        W95259  32.965  18.628   2.293
29780W        W95260  19.618   3.860   3.764
29781W        W95261  25.694  14.129   3.146
29782W        W95262  10.820  26.159  14.905
29783W        W95263  38.970   0.270  11.472
29784W        W95264  14.333  37.046  13.896
29785W        W95265   6.678  30.413   3.315
29786W        W95266  29.152   0.896  13.058
29787W        W95267   7.755   9.690   3.330
29788W        W95268   6.327  36.040  10.071
29789W        W95269  42.923  44.005   3.699
29790W        W95270  42.782  10.778   4.300
29791W        W95271   4.848  20.267   0.767
29792W        W95272  17.648  36.057   0.286
29793W        W95273  20.736  35.969   0.925
29794W        W95274  28.100  11.820  14.833
29795W        W95275  39.988  20.248   1.312
29796W        W95276  20.233   2.280   1.935
29797W        W95277   0.322  23.657   4.766
29798W        W95278  44.921  30.618   0.816
29799W        W95279  33.046  17.270  13.452
29800W        W95280  20.158  20.555  14.290
29801W        W95281   6.241  38.058   3.150
29802W        W95282  44.986   9.785  11.123
29803W        W95283  36.473   0.779   2.692
29804W        W95284  39.381   9.649  13.867
29805W        W95285  30.097  43.431   1.731
29806W        W95286  35.992  27.087  11.861
29807W        W95287  17.604  30.583  11.075
29808W        W95288  41.526  40.839   0.833
29809W        W95289   8.778   7.816  14.340
29810W        W95290  42.816  42.357   2.761
29811W        W95291   7.211  25.560   1.934
29812W        W95292  27.117  25.031  10.456
29813W        W95293  19.108  18.557   1.420
29814W        W95294   6.412  37.482  12.890
29815W        W95295  24.614   6.718   0.335
29816W        W95296  30.164  36.972   3.696
29817W        W95297  11.191  17.076   4.151
29818W        W95298   7.761  22.637   1.866
29819W        W95299  21.222  38.505   1.389
29820W        W95300  14.196  40.824  10.540
29821W        W95301  21.542  38.420  12.901
29822W        W95302  27.145  15.700   2.889
29823W        W95303  32.532  22.207  13.005
29824W        W95304  40.440  29.979  13.495
29825W        W95305  19.151  35.869  11.860
29826W        W95306  29.061  34.393  12.416
29827W        W95307  15.135  44.890   0.874
29828W        W95308  34.886  30.659   4.812
29829W        W95309  22.150  13.758   1.387
29830W        W95310   3.725  28.546  14.819
29831W        W95311   1.404  25.505  13.315
29832W        W95312  40.871  39.319  14.293
29833W        W95313  44.810  20.568   0.288
29834W        W95314  16.780   7.746   0.858
29835W        W95315  24.977   9.323   5.665
29836W        W95316  22.534  28.094  14.464
29837W        W95317   7.325  37.457  11.516
29838W        W95318  32.430  22.129   2.818
29839W        W95319  18.138  42.844   0.879
29840W        W95320  29.524   4.768   2.786
29841W        W95321   9.864  24.651  11.872
29842W        W95322  37.831  42.936  11.047
29843W        W95323  12.853  36.407   3.353
29844W        W95324  38.491  17.070  14.337
29845W        W95325   7.365   0.769  14.793
29846W        W95326  31.490  42.501  11.942
29847W        W95327  13.606   9.168  13.442
29848W        W95328  43.335  17.583   4.235
29849W        W95329  41.909  34.922   1.277
29850W        W95330  37.956  38.970  12.002
29851W        W95331   9.172  12.218  12.936
29852W        W95332  34.430  36.043   0.363
29853W        W95333  32.487  41.979   1.252
29854W        W95334  39.361  31.115  11.860
29855W        W95335   1.850   8.253   4.170
29856W        W95336  28.107   3.362   3.814
29857W        W95337  17.067  21.221  14.955
29858W        W95338  38.943  35.397   1.250
29859W        W95339  41.873  41.804   2.818
29860W        W95340  14.170  42.398  12.011
29861W        W95341  43.425   1.477   2.667
29862W        W95342   2.292  19.672  11.874
29863W        W95343  15.722  40.863   3.185
29864W        W95344  42.505  27.072  13.028
29865W        W95345  34.895  40.481   0.907
29866W        W95346  39.045  23.120  12.954
29867W        W95347  44.967  37.041   1.729
29868W        W95348  35.529  27.557  11.112
29869W        W95349  42.023  40.437  11.444
29870W        W95350  43.322  10.323  13.853
29871W        W95351  33.496   5.914   2.329
29872W        W95352  28.443  42.785   1.790
29873W        W95353  16.084   8.693  12.035
29874W        W95354  41.403   7.385   0.732
29875W        W95355  41.448  20.100   2.257
29876W        W95356   2.312  14.211  13.794
29877W        W95357   7.391  10.339  11.516
29878W        W95358  32.976  36.470  12.933
29879W        W95359  16.712  11.723   1.375
29880W        W95360  12.305   8.731   0.313
29881W        W95361  27.561  32.453  11.500
29882W        W95362   1.817  25.545   1.270
29883W        W95363   9.317  27.543   1.762
29884W        W95364  31.153  10.664   4.205
29885W        W95365  12.211   3.809   0.251
29886W        W95366  21.118  13.813   4.828
29887W        W95367  43.875   7.290   3.229
29888W        W95368  24.977  12.334  10.493
29889W        W95369  39.907  28.515   3.851
29890W        W95370  38.932  31.406  11.103
29891W        W95371  30.510  35.972   4.701
29892W        W95372  33.492   8.232  11.972
29893W        W95373  41.845  25.639  12.070
29894W        W95374  26.499  18.731   0.821
29895W        W95375  37.858  41.490  14.322
29896W        W95376  17.156  41.303   3.681
29897W        W95377   0.387  11.180   0.449
29898W        W95378  32.062   6.195   0.781
29899W        W95379   2.875  17.234  12.415
29900W        W95380  43.878  36.849   1.224
29901W        W95381   8.314  23.237  14.452
29902W        W95382  22.138   6.408  10.934
29903W        W95383   0.915  35.023  14.775
29904W        W95384  36.881  20.100  12.473
29905W        W95385  30.967  28.080  12.921
29906W        W95386  40.365  14.095   3.662
29907W        W95387  22.625  22.605  12.041
29908W        W95388  12.297  40.490  14.848
29909W        W95389  21.755  14.616  12.848
29910W        W95390  43.892  38.398   3.695
29911W        W95391  12.331  20.740   4.199
29912W        W95392  20.584  36.990   2.367
29913W        W95393  41.894  22.676  10.601
29914W        W95394  39.552  43.306  10.474
29915W        W95395  31.410  43.977  12.964
29916W        W95396  39.052  20.214  14.894
29917W        W95397  27.000   7.858  12.973
29918W        W95398   7.383  36.021   2.334
29919W        W95399   1.248  13.319   0.315
29920W        W95400  31.596  36.952   4.330
29921W        W95401  23.046  27.977   0.396
29922W        W95402  14.213  19.255   4.273
29923W        W95403  13.182   8.875  11.453
29924W        W95404  39.493   0.331  13.394
29925W        W95405  15.213  15.633  10.117
29926W        W95406  20.222  10.284   1.758
29927W        W95407  43.473  41.805   2.805
29928W        W95408  25.528   3.946  12.559
29929W        W95409   3.867   1.371   3.315
29930W        W95410  18.149   9.799  13.867
29931W        W95411  19.210  17.131   3.723
29932W        W95412  31.136  29.426  10.910
29933W        W95413  18.101  28.947   4.749
29934W        W95414  12.708  36.924   3.698
29935W        W95415   6.286   9.793   3.277
29936W        W95416  12.782  31.481  11.029
29937W        W95417  19.590  17.784  14.838
29938W        W95418  16.286  40.043   2.884
29939W        W95419  31.502  41.015   3.212
29940W        W95420  38.001  29.502  13.810
29941W        W95421   8.665  39.476   1.930
29942W        W95422  32.402  40.017   3.332
29943W        W95423  38.006  12.855   1.364
29944W        W95424   1.742   2.422  12.095
29945W        W95425  13.335  24.034  13.473
29946W        W95426  19.253  22.651   0.439
29947W        W95427  39.515   8.405   0.966
29948W        W95428  44.924   8.336  10.437
29949W        W95429  29.485  29.157   2.804
29950W        W95430  24.186  14.158   0.313
29951W        W95431  22.631   6.276   2.802
29952W        W95432   8.350   3.714   0.447
29953W        W95433  23.038  30.542  11.421
29954W        W95434  31.475  12.679   1.426
29955W        W95435  10.275  21.238  13.401
29956W        W95436  25.100   4.759   4.805
29957W        W95437  15.327  16.090  10.418
29958W        W95438   3.793  14.695  12.500
29959W        W95439  15.731  14.613  11.460
29960W        W95440  32.900  25.570   4.797
29961W        W95441   2.418  19.128  11.123
29962W        W95442   2.936  32.540  11.977
29963W        W95443  27.516   3.781  14.012
29964W        W95444   1.899  28.440  13.920
29965W        W95445   4.854  25.568  13.939
29966W        W95446   5.720  20.235  13.354
29967W        W95447  38.036   2.791  14.337
29968W        W95448   7.718  21.237   2.303
29969W        W95449   0.449   5.840  12.352
29970W        W95450  28.658  27.054   0.766
29971W        W95451   4.306   3.444  14.995
29972W        W95452  30.421  17.292   3.847
29973W        W95453  30.031  34.918   3.218
29974W        W95454  26.032  41.799   2.231
29975W        W95455  18.554  24.167  12.957
29976W        W95456   7.299   4.732   4.667
29977W        W95457   4.802   1.381   2.745
29978W        W95458  37.056  27.041   4.735
29979W        W95459  16.663   0.948   4.730
29980W        W95460   1.262  24.698  13.862
29981W        W95461  27.019  37.923   2.196
29982W        W95462  31.960   7.338   0.958
29983W        W95463  34.921   9.299  11.440
29984W        W95464  29.497  11.281  14.478
29985W        W95465  28.550  23.990   0.840
29986W        W95466   1.304  37.016  13.364
29987W        W95467  23.036  41.972  10.629
29988W        W95468  28.122  20.760  11.399
29989W        W95469  14.702  15.728  14.484
29990W        W95470  19.075   3.846   0.254
29991W        W95471  17.303  14.830  14.768
29992W        W95472   5.352  29.537  11.106
29993W        W95473  36.539  44.503  10.897
29994W        W95474  37.430  32.620  12.568
29995W        W95475  32.942  10.209  14.850
29996W        W95476  19.632  41.518  12.380
29997W        W95477  11.713  13.257  12.929
29998W        W95478  21.736  44.759  13.347
29999W        W95479   4.291   7.686  14.402
30000W        W95480  19.658  42.430   3.227
30001W        W95481  11.346  42.456   9.966
30002W        W95482  32.492   0.382   2.690
30003W        W95483   6.351  37.486   2.758
30004W        W95484   5.703  42.006   2.229
30005W        W95485  36.857   7.838  10.512
30006W        W95486   0.349  12.817  10.902
30007W        W95487   6.815  21.253   3.212
30008W        W95488  35.935  29.626   4.691
30009W        W95489   5.879  15.646   9.963
30010W        W95490  43.456  28.103  13.901
30011W        W95491  31.521  41.428   1.774
30012W        W95492  30.013   8.792   1.418
30013W        W95493   1.878   8.391   2.729
30014W        W95494  25.166  12.327   2.299
30015W        W95495  10.334  37.551   3.333
30016W        W95496  39.868  39.912  12.894
30017W        W95497  24.191  34.412  10.604
30018W        W95498  30.106  32.072   4.254
30019W        W95499  20.107  37.542  11.115
30020W        W95500  40.855  42.845  12.518
30021W        W95501  44.966   2.441   3.342
30022W        W95502   7.747  40.800   4.811
30023W        W95503  38.923  22.029  13.398
30024W        W95504   6.757   1.961   4.323
30025W        W95505  25.120  12.845  12.014
30026W        W95506  42.930  12.747  10.482
30027W        W95507  16.164  26.149  13.357
30028W        W95508  41.508  42.383   3.289
30029W        W95509  13.340  26.617   2.764
30030W        W95510   8.760  36.941  13.391
30031W        W95511   3.723  17.597   4.837
30032W        W95512  33.908  21.551  12.874
30033W        W95513  33.993  27.661   2.699
30034W        W95514   6.315   4.375   4.832
30035W        W95515  17.660   6.424  12.826
30036W        W95516  27.592   4.308  13.465
30037W        W95517  40.467  41.978   1.240
30038W        W95518  23.590  25.580  12.090
30039W        W95519  23.593   8.329  11.868
30040W        W95520  15.794  36.527   4.742
30041W        W95521  41.517  30.647   3.660
30042W        W95522  25.602   0.419   2.237
30043W        W95523  40.957  21.549   2.358
30044W        W95524  16.178  24.635  14.276
30045W        W95525  31.528  13.225  13.541
30046W        W95526  34.038  37.370   1.724
30047W        W95527  12.825  37.435   0.253
30048W        W95528  36.373  44.856   2.670
30049W        W95529  20.527  36.912   1.368
30050W        W95530  28.438  41.425   4.712
30051W        W95531  24.575   6.308  14.376
30052W        W95532  26.698  10.826  12.864
30053W        W95533  24.007  13.208   4.741
30054W        W95534   9.375  24.483  12.560
30055W        W95535  15.592  43.794   4.653
30056W        W95536   0.394  19.553   2.335
30057W        W95537   5.748  14.216  14.870
30058W        W95538  21.725  33.602  13.531
30059W        W95539  44.461  38.469  12.369
30060W        W95540  33.546  10.674  12.959
30061W        W95541  36.499   7.888  11.594
30062W        W95542  34.440  19.160  14.981
30063W        W95543   4.704  18.753   0.352
30064W        W95544  12.803  25.622  10.626
30065W        W95545  39.487  28.105  11.063
30066W        W95546   2.434   7.862   0.474
30067W        W95547  17.291  30.413  14.339
30068W        W95548  18.750  44.500  14.408
30069W        W95549  17.147  29.620   4.808
30070W        W95550  39.827  43.428   0.306
30071W        W95551  12.208  27.676   0.755
30072W        W95552  11.339   1.752   2.865
30073W        W95553  33.028  16.684   1.425
30074W        W95554  37.987  34.872  10.970
30075W        W95555  30.925  29.465   0.883
30076W        W95556   8.274  28.565  14.766
30077W        W95557  13.209  21.191  12.001
30078W        W95558  11.263  23.624  13.876
30079W        W95559  30.156  12.811  10.613
30080W        W95560  17.569  18.281   4.784
30081W        W95561   6.290  40.536   0.876
30082W        W95562  28.029   8.721   9.983
30083W        W95563  33.892  10.796   0.254
30084W        W95564  17.108  41.534  14.512
30085W        W95565  25.579   7.865   3.303
30086W        W95566  17.273  24.160  12.833
30087W        W95567   9.272  23.693   2.670
30088W        W95568   5.230  35.013  12.038
30089W        W95569  24.700   3.238  12.934
30090W        W95570   8.395   2.785   4.326
30091W        W95571  16.217  23.712   3.829
30092W        W95572  16.620  43.927  10.965
30093W        W95573  23.037  33.554  12.063
30094W        W95574  12.765  31.144   3.151
30095W        W95575  10.724   0.267  10.600
30096W        W95576   6.199  35.471   0.288
30097W        W95577  36.530  15.697  14.358
30098W        W95578  42.314  29.480  11.500
30099W        W95579  28.961  26.515  13.965
30100W        W95580  35.375  34.369   0.338
30101W        W95581  16.214  22.007  14.499
30102W        W95582   9.837  25.125   1.259
30103W        W95583   2.955  18.741   3.657
30104W        W95584  41.975   5.197  13.899
30105W        W95585   5.766   0.836   4.121
30106W        W95586   2.772   8.740  12.563
30107W        W95587  24.034  15.224  12.904
30108W        W95588  27.543   6.792   3.210
30109W        W95589   8.235  18.141  11.581
30110W        W95590  33.575  41.853   4.757
30111W        W95591  11.254  28.122  12.948
30112W        W95592  15.662  22.617   3.174
30113W        W95593   8.323   9.699   4.700
30114W        W95594  35.360  10.786   4.799
30115W        W95595  26.122   2.289   3.717
30116W        W95596   1.447  26.033  13.513
30117W        W95597  19.047  22.104  12.397
30118W        W95598  31.445  14.614  10.988
30119W        W95599  28.095  24.127   3.805
30120W        W95600  28.504  39.993   1.226
30121W        W95601  23.990  39.372   1.718
30122W        W95602   9.850  12.127   1.406
30123W        W95603  31.924   6.231   5.251
30124W        W95604  40.374   4.327  11.983
30125W        W95605  15.779   7.267   4.644
30126W        W95606   6.848  17.733   4.641
30127W        W95607  43.492  14.189   1.883
30128W        W95608  19.621  26.003  12.520
30129W        W95609   3.936  41.895  14.434
30130W        W95610  11.195  35.094   2.383
30131W        W95611  38.990   1.841   1.896
30132W        W95612  29.930  20.738  13.450
30133W        W95613   4.289  19.183   2.397
30134W        W95614  20.224  34.025  13.546
30135W        W95615  32.964  26.543   2.348
30136W        W95616  26.621   1.759  14.829
30137W        W95617  21.621  43.913   3.772
30138W        W95618  24.512  37.405   0.399
30139W        W95619  26.079  25.158   3.151
30140W        W95620   5.896  16.285  14.365
30141W        W95621  33.600   0.441  13.003
30142W        W95622  30.431  39.410  12.843
30143W        W95623  21.607  27.094  12.386
30144W        W95624  19.637  21.072   5.245
30145W        W95625  41.363   7.408   4.614
30146W        W95626   7.750  14.276  14.959
30147W        W95627  43.404  12.856   2.237
30148W        W95628   1.761  20.605   2.313
30149W        W95629  32.412  31.432  14.894
30150W        W95630  30.007  24.999  13.816
30151W        W95631  36.960   2.919   3.760
30152W        W95632  39.339  11.652  11.059
30153W        W95633  26.184  19.626   3.221
30154W        W95634  40.882  21.136  12.036
30155W        W95635   1.460   4.899  13.908
30156W        W95636  35.542  13.789   0.885
30157W        W95637  16.300  42.433  14.804
30158W        W95638  27.959  10.288   0.937
30159W        W95639   8.253  41.470   4.691
30160W        W95640  44.384  36.549  14.804
30161W        W95641  37.975  10.170  13.423
30162W        W95642  29.519  10.704  13.926
30163W        W95643  31.949   6.680  13.330
30164W        W95644  15.712  29.544   3.789
30165W        W95645  28.138  21.189   2.408
30166W        W95646  29.603  38.428   0.477
30167W        W95647  35.568  22.704   1.418
30168W        W95648   8.227  23.204  10.445
30169W        W95649  10.208   3.843   2.890
30170W        W95650   2.312  44.427  13.444
30171W        W95651  15.234   0.471   2.844
30172W        W95652  43.340   8.873  10.558
30173W        W95653  15.707  42.791   0.940
30174W        W95654  26.477  14.786  12.836
30175W        W95655  23.592  38.822   3.694
30176W        W95656   1.934  26.178  14.817
30177W        W95657  44.923  34.966  11.027
30178W        W95658  16.189   6.862   0.896
30179W        W95659  32.085  38.550   3.799
30180W        W95660  20.707  33.457   2.745
30181W        W95661   4.215   3.413  14.492
30182W        W95662   8.222  11.768  13.857
30183W        W95663  14.122  14.254   3.336
30184W        W95664   2.889   5.744   2.351
30185W        W95665   9.255  21.655  13.538
30186W        W95666  21.076   7.360  13.421
30187W        W95667  11.305  18.167   0.848
30188W        W95668   2.373  40.470   0.939
30189W        W95669  13.108  33.407   4.146
30190W        W95670   1.317  27.676  14.512
30191W        W95671  40.522  10.380  12.826
30192W        W95672  14.142  17.685   1.711
30193W        W95673  42.818  23.198  13.901
30194W        W95674  12.790   5.285   0.309
30195W        W95675   5.861  38.458  12.027
30196W        W95676  41.807  34.869   0.375
30197W        W95677   8.816   0.275   2.695
30198W        W95678   8.338  13.121   1.265
30199W        W95679  10.806   2.737   2.255
30200W        W95680  29.160  38.352   4.607
30201W        W95681  33.113  13.156   0.330
30202W        W95682  29.526  21.172   0.968
30203W        W95683  31.949   8.268  14.902
30204W        W95684   6.420  25.619   0.249
30205W        W95685   1.766  15.642   2.194
30206W        W95686  11.736  37.533   2.236
30207W        W95687  34.549  28.037   3.753
30208W        W95688  25.983  23.037   3.679
30209W        W95689  43.297  28.118   9.980
30210W        W95690  36.097  18.054  13.943
30211W        W95691  12.350  36.873  13.333
30212W        W95692  42.343  15.197   1.351
30213W        W95693  23.179   0.757  11.021
30214W        W95694  27.977  14.203  10.094
30215W        W95695  44.899  24.046  11.515
30216W        W95696  25.516  41.428  12.963
30217W        W95697  14.676  28.150  14.777
30218W        W95698  44.351  20.258  10.633
30219W        W95699  17.669  25.146   1.758
30220W        W95700  25.492  21.024   3.774
30221W        W95701  18.731  35.999   0.414
30222W        W95702  32.125   9.313  10.888
30223W        W95703   6.375  39.947   2.843
30224W        W95704  19.639   2.890   0.727
30225W        W95705  37.518  18.132   4.773
30226W        W95706  13.216  39.851   3.783
30227W        W95707  19.066  27.137   2.351
30228W        W95708  15.715  24.179   0.773
30229W        W95709  42.849  43.846  11.516
30230W        W95710   8.820   4.405   2.838
30231W        W95711  27.032  41.322   0.307
30232W        W95712  36.520  41.938   0.477
30233W        W95713  37.561  39.434   4.738
30234W        W95714  33.069  29.545   3.199
30235W        W95715   4.788  19.671  12.088
30236W        W95716  32.577  17.625  10.636
30237W        W95717  17.176  30.010  12.430
30238W        W95718  34.933  30.620   2.184
30239W        W95719  38.843   8.776  11.981
30240W        W95720  26.995  37.518   3.762
30241W        W95721   6.188  11.320   0.320
30242W        W95722   3.216  23.206  10.933
30243W        W95723  32.620  22.196  11.105
30244W        W95724  34.936  20.598   0.824
30245W        W95725  38.976  41.822   3.373
30246W        W95726  16.809  32.945   9.479
30247W        W95727   0.799  19.609  10.479
30248W        W95728   5.342  24.026  13.006
30249W        W95729  12.685  26.568  14.448
30250W        W95730  15.768  28.678   4.203
30251W        W95731   7.397  25.621   4.598
30252W        W95732  27.090  12.745   3.156
30253W        W95733  25.513  20.042   3.677
30254W        W95734  40.005  22.688  12.508
30255W        W95735   6.223  26.123  12.056
30256W        W95736   2.469   7.833   1.916
30257W        W95737  21.080  15.208   1.228
30258W        W95738  13.307   8.353   2.297
30259W        W95739  18.135   4.747  12.454
30260W        W95740  42.388  23.110   4.782
30261W        W95741  43.272   1.257  12.990
30262W        W95742  32.986  24.587  12.391
30263W        W95743  18.770  11.185  13.833
30264W        W95744  10.769  18.761   1.274
30265W        W95745  43.438  19.665   2.272
30266W        W95746   6.767  32.930  14.369
30267W        W95747  32.453   2.226  12.501
30268W        W95748  10.876  19.158  13.830
30269W        W95749   6.842  18.607  12.057
30270W        W95750   1.800  20.098  14.024
30271W        W95751   8.386   3.437  10.510
30272W        W95752   0.912   2.909  14.315
30273W        W95753  12.687   3.729   2.256
30274W        W95754  27.517  38.355  11.916
30275W        W95755  22.053  38.547   1.396
30276W        W95756  23.041   5.351   0.466
30277W        W95757  43.005  26.634  14.877
30278W        W95758   4.362  12.729   2.193
30279W        W95759  20.675  43.455  14.766
30280W        W95760   6.690  11.353   1.444
30281W        W95761  18.686  29.136  12.422
30282W        W95762  18.545  37.545   1.723
30283W        W95763  21.107  34.384  12.949
30284W        W95764  12.693  19.779   4.685
30285W        W95765  20.188  41.379  12.854
30286W        W95766  44.308  15.186  11.044
30287W        W95767  35.405  10.852  13.503
30288W        W95768   9.231  32.137  10.135
30289W        W95769  36.999  12.722   0.339
30290W        W95770   2.901  17.784   2.372
30291W        W95771  23.728   7.670  13.376
30292W        W95772   1.862   4.903  14.760
30293W        W95773  31.072  41.454  13.822
30294W        W95774  43.501  18.561  10.936
30295W        W95775  13.277   4.707  14.004
30296W        W95776  39.413  42.826  10.611
30297W        W95777  17.592  29.079   0.864
30298W        W95778   9.321  29.635  13.526
30299W        W95779  10.755  30.518   1.818
30300W        W95780  43.384  11.697   1.417
30301W        W95781  14.270  39.820  11.482
30302W        W95782  41.354  34.389   1.834
30303W        W95783  31.057  41.319  14.893
30304W        W95784  41.014  16.746  14.317
30305W        W95785   3.927  22.617  10.945
30306W        W95786  30.096   0.286  10.937
30307W        W95787  34.942  12.721   1.313
30308W        W95788  10.175   9.693   4.334
30309W        W95789   8.674   8.730  11.066
30310W        W95790  39.385  29.530   0.368
30311W        W95791  44.883  14.197  14.970
30312W        W95792   0.322  39.986  11.439
30313W        W95793  30.578  42.369  13.509
30314W        W95794  39.361  14.165   1.222
30315W        W95795  40.548   7.229   4.741
30316W        W95796  26.528  22.687  13.873
30317W        W95797   6.759   6.765   0.397
30318W        W95798  15.085  23.154   2.305
30319W        W95799   1.947  41.479  11.581
30320W        W95800  40.039  31.961  13.449
30321W        W95801   9.266  37.994  10.965
30322W        W95802  20.081  34.532  12.058
30323W        W95803  35.585  19.583   0.344
30324W        W95804   6.205  14.623   2.398
30325W        W95805  38.918  20.544   4.832
30326W        W95806  42.494  38.916   0.766
30327W        W95807  10.210   5.302   1.220
30328W        W95808  23.525  30.160  13.397
30329W        W95809  30.608   5.218  12.017
30330W        W95810  15.221  12.711   0.904
30331W        W95811   5.383  10.332   0.352
30332W        W95812  17.561  43.845   1.796
30333W        W95813  17.200  19.766   4.330
30334W        W95814  43.476   3.300   3.265
30335W        W95815  36.356  11.709   2.761
30336W        W95816   6.209  13.619   0.381
30337W        W95817   0.983   0.449  11.868
30338W        W95818  28.171  32.992  11.588
30339W        W95819  43.402  22.704  13.351
30340W        W95820   1.947  40.798  13.388
30341W        W95821  39.521   3.229   3.269
30342W        W95822   1.299  38.564  11.438
30343W        W95823  44.355   4.344  14.923
30344W        W95824   5.246   2.352  12.858
30345W        W95825  44.788  21.046  10.134
30346W        W95826  32.125  20.128  14.940
30347W        W95827  28.536  36.976  12.902
30348W        W95828  33.885  40.343  12.952
30349W        W95829  39.877  22.175  11.408
30350W        W95830  38.467   7.417  12.077
30351W        W95831  17.262  13.795   1.277
30352W        W95832  33.100   4.772  13.020
30353W        W95833  15.721  30.953   3.837
30354W        W95834  13.651  25.046  14.931
30355W        W95835  28.466  26.062   2.678
30356W        W95836  10.306  15.177   1.859
30357W        W95837  37.962  22.063  12.409
30358W        W95838  31.484  21.517   3.830
30359W        W95839  42.882  32.566   1.762
30360W        W95840  42.957  29.925  11.876
30361W        W95841  38.067  34.517  14.868
30362W        W95842  26.529   7.252  10.443
30363W        W95843  30.156  21.543  13.813
30364W        W95844   2.309  18.151  10.153
30365W        W95845  26.059  43.840  11.064
30366W        W95846  10.634  16.714   4.804
30367W        W95847  36.361   3.840  13.346
30368W        W95848  21.648  18.579  13.460
30369W        W95849  21.077  26.980  11.866
30370W        W95850  41.492  40.048   4.317
30371W        W95851  25.607   4.433  14.350
30372W        W95852  40.450   9.784  14.777
30373W        W95853  18.600  18.606   3.785
30374W        W95854  28.513  18.110  12.976
30375W        W95855  42.389  39.434  10.982
30376W        W95856   5.332  43.443  13.427
30377W        W95857   4.920  30.018  14.914
30378W        W95858   6.262  17.139   3.205
30379W        W95859  30.621  17.756   2.689
30380W        W95860   8.333  30.924   2.192
30381W        W95861  25.180  14.206   3.832
30382W        W95862  24.210  15.751   4.210
30383W        W95863  42.842  27.148  11.901
30384W        W95864  34.587  17.297  11.058
30385W        W95865  30.578   0.361   0.427
30386W        W95866   0.898  16.703   0.354
30387W        W95867   0.422  36.433  11.027
30388W        W95868  34.921  41.347   2.293
30389W        W95869  18.124  40.882   3.732
30390W        W95870  25.045  35.453  14.874
30391W        W95871  19.099  22.167   3.219
30392W        W95872  34.029  32.935  12.841
30393W        W95873   4.922  28.630   4.134
30394W        W95874  40.024   9.250   1.285
30395W        W95875  18.181  30.418   3.323
30396W        W95876  32.102  27.586  10.632
30397W        W95877   1.289   2.900  13.544
30398W        W95878  42.485  22.175  10.524
30399W        W95879  28.939  14.184  11.106
30400W        W95880  20.206  32.092  10.144
30401W        W95881  27.638  29.105  13.010
30402W        W95882   9.352  44.464   4.243
30403W        W95883  43.942  27.940  10.599
30404W        W95884  40.536  34.565  10.129
30405W        W95885  13.701  11.694   0.947
30406W        W95886  38.390  31.942   1.396
30407W        W95887  15.175  15.724   2.197
30408W        W95888  23.607  19.151  13.947
30409W        W95889  12.244  19.705  11.445
30410W        W95890  10.148  32.634   4.258
30411W        W95891  10.876  27.483   0.439
30412W        W95892   0.421  24.103  10.439
30413W        W95893  43.908   4.329   1.907
30414W        W95894  44.762   3.257   2.675
30415W        W95895  17.092  10.636  11.470
30416W        W95896  17.644  17.606  11.940
30417W        W95897  33.591  25.987  11.467
30418W        W95898  38.057  35.396   3.638
30419W        W95899   1.243  37.581  14.938
30420W        W95900   4.824  14.326  10.588
30421W        W95901  40.382  26.151   1.902
30422W        W95902  30.554  10.167   0.368
30423W        W95903  27.473  24.034  13.878
30424W        W95904  26.992   9.852   3.725
30425W        W95905  38.539  36.937  10.528
30426W        W95906   2.336  41.028   1.752
30427W        W95907   3.805  28.017   4.142
30428W        W95908  40.422  33.024  10.541
30429W        W95909  42.455  11.214   3.323
30430W        W95910  16.752   5.412   2.409
30431W        W95911  17.184  18.575  13.330
30432W        W95912  18.739  41.415  10.642
30433W        W95913  37.413  16.267   0.920
30434W        W95914   4.760   6.781   0.405
30435W        W95915  20.692  27.616   3.670
30436W        W95916  22.689  11.698   1.694
30437W        W95917   9.797  40.383   4.331
30438W        W95918   1.857  44.440   2.354
30439W        W95919  36.417   4.284   3.659
30440W        W95920   6.255  24.667   1.233
30441W        W95921   8.800  26.190   1.800
30442W        W95922  24.710  20.677  11.460
30443W        W95923  15.103  38.837   0.279
30444W        W95924  36.980  30.090   1.327
30445W        W95925  44.934  18.767   3.803
30446W        W95926  26.625  24.674  13.434
30447W        W95927  30.423  25.177  14.479
30448W        W95928  39.974  16.697   2.261
30449W        W95929  38.496  39.056   2.697
30450W        W95930  25.980  24.038  12.946
30451W        W95931  41.509  26.615  13.450
30452W        W95932  37.556  40.835  11.864
30453W        W95933  17.603  17.756   4.703
30454W        W95934  11.734  27.504  13.468
30455W        W95935  25.065  10.791   0.787
30456W        W95936  20.646  37.410   0.816
30457W        W95937  23.671  43.443   3.760
30458W        W95938   4.918  25.968   2.755
30459W        W95939   4.371  39.554   0.827
30460W        W95940   9.157  43.310   2.353
30461W        W95941  39.950  40.541   3.367
30462W        W95942  31.496  26.036   3.660
30463W        W95943  11.674  40.376   2.735
30464W        W95944  12.783  19.774   2.280
30465W        W95945  12.772  32.494   0.727
30466W        W95946  43.823  14.192  14.366
30467W        W95947  14.263   4.918  11.970
30468W        W95948   3.300  32.444  11.508
30469W        W95949  35.056  41.970  13.899
30470W        W95950  36.908  37.551  10.512
30471W        W95951   6.792  39.825  10.461
30472W        W95952  13.778  21.538  13.811
30473W        W95953  32.047   0.867   0.811
30474W        W95954  26.505  33.490  10.973
30475W        W95955  18.232  16.277   4.354
30476W        W95956  27.973  15.151   9.922
30477W        W95957  19.119   6.217   1.424
30478W        W95958  11.288  40.869   3.685
30479W        W95959  37.376  11.704  12.904
30480W        W95960  22.013   7.372  13.401
30481W        W95961  28.971  21.212   0.779
30482W        W95962  24.047  17.798   2.356
30483W        W95963  25.097   7.259   3.363
30484W        W95964  23.123  23.152   1.241
30485W        W95965  14.753  41.868   2.314
30486W        W95966  38.946  25.632  13.963
30487W        W95967  18.275  29.139  11.056
30488W        W95968  33.054   6.747  13.528
30489W        W95969  37.390   7.697  11.080
30490W        W95970   5.689  39.032   3.370
30491W        W95971   4.248  29.952  13.319
30492W        W95972  27.466  31.901  11.925
30493W        W95973   0.911  32.547  11.002
30494W        W95974  21.530   4.886   3.326
30495W        W95975  31.010   2.793   0.847
30496W        W95976  13.758  24.708  13.542
30497W        W95977  44.424  38.353  13.815
30498W        W95978  23.610  35.602  11.412
30499W        W95979  10.769  28.187  12.996
30500W        W95980  23.044  29.632   1.801
30501W        W95981  28.629  26.064   1.844
30502W        W95982   2.917  12.316   3.836
30503W        W95983  30.472  27.027  10.543
30504W        W95984  25.576  28.654  11.437
30505W        W95985  12.795   2.447   2.397
30506W        W95986  42.447  14.333   0.953
30507W        W95987  13.145  16.112   1.244
30508W        W95988  35.857   7.249  12.528
30509W        W95989  40.311   6.859  11.471
30510W        W95990  26.021  37.837   4.167
30511W        W95991  43.465  44.385  10.127
30512W        W95992  34.526  33.114   1.299
30513W        W95993  44.959   3.805  12.457
30514W        W95994  25.629  18.131   3.277
30515W        W95995   5.825  17.646  14.386
30516W        W95996  16.659   2.808   2.880
30517W        W95997  30.040  30.612  10.413
30518W        W95998  25.532  20.059  14.771
30519W        W95999  25.153  38.379   1.758
30520W        W96000  30.122  29.592   3.250
30521W        W96001  39.875  25.043  10.898
30522W        W96002   4.243  27.079  14.419
30523W        W96003  15.635   3.229   3.369
30524W        W96004  32.885   4.319  13.545
30525W        W96005  35.504  38.833   3.707
30526W        W96006  12.644  19.565   0.328
30527W        W96007   2.917  11.691  12.562
30528W        W96008  36.910  27.558   2.180
30529W        W96009  24.977  11.200  14.356
30530W        W96010  33.974  33.919  12.355
30531W        W96011  19.717  15.182  11.576
30532W        W96012   2.348  40.986   0.263
30533W        W96013  11.249  43.793   1.861
30534W        W96014  34.965  32.903  10.949
30535W        W96015  32.069  35.969  12.856
30536W        W96016  41.850  34.935   3.367
30537W        W96017  33.410  20.120   3.325
30538W        W96018  11.701  24.193   0.812
30539W        W96019  36.394  28.178  14.836
30540W        W96020  20.751  29.102   1.367
30541W        W96021  12.642  22.535  14.391
30542W        W96022  20.247  20.196   2.700
30543W        W96023  11.135  37.881  11.991
30544W        W96024   9.266  39.944   4.131
30545W        W96025   1.963  23.105  13.437
30546W        W96026  19.676  14.241   3.229
30547W        W96027  11.795  28.153  14.306
30548W        W96028   3.231  33.557   3.197
30549W        W96029   6.315  23.534   3.817
30550W        W96030  35.956  13.293   3.310
30551W        W96031   5.911  23.155   1.797
30552W        W96032  26.517   6.743  13.462
30553W        W96033  27.137   9.246  11.503
30554W        W96034  22.702  10.358   3.770
30555W        W96035  25.475  11.369  12.017
30556W        W96036  43.434  14.181  10.547
30557W        W96037   0.866  15.692  10.594
30558W        W96038   0.475   3.353   4.780
30559W        W96039   6.821  37.451  10.557
30560W        W96040  23.106  42.829   2.860
30561W        W96041  42.448   4.927   1.262
30562W        W96042   9.799   8.328  13.791
30563W        W96043   2.262  24.202   1.878
30564W        W96044  15.692  14.299   2.335
30565W        W96045  18.598  27.075  14.845
30566W        W96046  11.350   4.288   3.347
30567W        W96047   6.193  13.626  14.785
30568W        W96048  33.572  42.953   1.758
30569W        W96049  42.022  22.168  11.513
30570W        W96050  41.349  31.567  11.077
30571W        W96051  22.070  30.039  13.030
30572W        W96052  11.808   7.250   1.435
30573W        W96053  40.443   7.262   4.317
30574W        W96054  35.442   6.278   2.187
30575W        W96055  21.726  30.530  13.538
30576W        W96056  19.541  32.062  14.303
30577W        W96057   8.871  11.186  14.015
30578W        W96058   9.269  16.262   1.810
30579W        W96059   5.300  43.020   2.892
30580W        W96060  20.101  19.108  14.951
30581W        W96061  33.018  27.454   2.690
30582W        W96062  11.233  30.477   3.661
30583W        W96063  36.031   1.394  12.545
30584W        W96064  10.385   2.965  13.315
30585W        W96065  25.504  16.803  13.331
30586W        W96066  31.567  35.966   1.239
30587W        W96067   9.850  22.053   3.302
30588W        W96068  21.158   6.765   3.846
30589W        W96069   1.804  44.828   3.853
30590W        W96070  10.724   7.794  12.957
30591W        W96071  10.327  33.878  13.485
30592W        W96072   8.757  10.866  13.945
30593W        W96073  43.300  15.754  13.513
30594W        W96074  15.281  39.445   4.780
30595W        W96075  20.239   8.354  13.901
30596W        W96076  22.579  24.634  14.839
30597W        W96077  13.172  38.923   4.622
30598W        W96078  24.529  23.229   2.747
30599W        W96079  14.683  30.944  12.912
30600W        W96080  14.169  36.437  14.482
30601W        W96081   6.881  27.628   2.362
30602W        W96082  27.079  16.619   4.242
30603W        W96083  31.996  42.915   2.746
30604W        W96084  20.720  13.669   0.410
30605W        W96085  31.554  34.964   2.754
30606W        W96086   4.322  19.543  12.076
30607W        W96087  13.676  16.237   4.120
30608W        W96088  10.147  13.827   0.768
30609W        W96089  37.065  14.180  14.780
30610W        W96090   3.821  36.051  13.388
30611W        W96091  18.675  15.205  13.968
30612W        W96092  24.144  18.162  13.897
30613W        W96093  18.748  14.638   3.288
30614W        W96094  12.618  39.536  13.984
30615W        W96095  12.642  11.731  13.412
30616W        W96096  42.400  42.432  12.938
30617W        W96097  35.912   5.905   0.899
30618W        W96098   1.308  20.667  10.464
30619W        W96099  16.777  31.484   3.850
30620W        W96100  39.892  27.064   1.283
30621W        W96101  22.015  30.472  10.929
30622W        W96102   2.896  30.102  11.530
30623W        W96103  27.944  13.683  12.907
30624W        W96104  37.565  22.559   2.731
30625W        W96105  32.489  31.928   0.354
30626W        W96106  37.533  39.836  12.418
30627W        W96107   0.970  30.419  14.499
30628W        W96108  16.160  26.012  12.343
30629W        W96109  13.309  44.411  11.525
30630W        W96110   8.782  32.012  11.576
30631W        W96111  16.591  32.936  10.618
30632W        W96112   0.763  14.619  13.461
30633W        W96113  20.684  43.850  13.546
30634W        W96114  37.576  32.540  10.973
30635W        W96115   4.247   8.291  12.562
30636W        W96116  23.107  19.637  11.860
30637W        W96117  12.233   7.281   2.196
30638W        W96118  12.667  35.589  14.847
30639W        W96119   3.768  42.427   4.717
30640W        W96120  16.114  17.098   5.141
30641W        W96121  29.040  40.032   1.839
30642W        W96122  26.075  39.551  14.278
30643W        W96123   8.273   0.757  13.829
30644W        W96124  38.865  13.681  10.120
30645W        W96125  23.506  24.081   1.730
30646W        W96126  26.022  16.121  11.461
30647W        W96127  12.176   1.273  10.998
30648W        W96128   4.302  16.712   4.751
30649W        W96129  32.055  27.021   5.093
30650W        W96130  20.716  37.497   3.815
30651W        W96131   0.358  35.905   0.780
30652W        W96132   4.909  19.643   1.860
30653W        W96133  27.684  38.972   3.832
30654W        W96134   5.803  41.911   3.348
30655W        W96135  33.540  17.090   0.460
30656W        W96136  20.665  32.102  12.531
30657W        W96137  32.558  18.265  14.798
30658W        W96138   3.313  32.937   1.393
30659W        W96139   0.413  12.703  12.347
30660W        W96140  12.623  14.796  14.315
30661W        W96141  32.901  31.944  11.398
30662W        W96142  12.300  10.251  13.886
30663W        W96143  18.670  23.212   2.882
30664W        W96144  19.582  25.196  13.491
30665W        W96145  33.114  34.892  13.489
30666W        W96146  29.971  18.159  14.001
30667W        W96147  42.870  27.600   4.345
30668W        W96148  25.611  13.692  14.008
30669W        W96149   0.467  34.589  11.569
30670W        W96150  41.360   6.345  11.884
30671W        W96151  38.517   6.377   1.266
30672W        W96152  13.160  27.114   1.701
30673W        W96153   3.953  22.122   3.235
30674W        W96154  18.184  13.723  14.968
30675W        W96155  42.300   0.337  11.497
30676W        W96156   5.253  24.161  12.032
30677W        W96157  31.403  14.316   3.630
30678W        W96158   7.408   0.782   4.827
30679W        W96159  15.158  16.770   3.752
30680W        W96160  31.959  32.527   2.247
30681W        W96161  13.321  23.694   1.697
30682W        W96162  28.069  14.832  14.029
30683W        W96163   2.228  14.130   2.180
30684W        W96164  27.608   5.345  13.812
30685W        W96165   7.328  39.994   0.312
30686W        W96166  34.944  14.285   5.198
30687W        W96167   3.812  12.278   1.397
30688W        W96168  30.107  39.449   1.696
30689W        W96169  29.570  33.988  12.055
30690W        W96170  40.357  44.835   3.152
30691W        W96171  12.612  21.067  13.955
30692W        W96172   9.196  15.582   4.692
30693W        W96173  20.754  15.603  13.808
30694W        W96174  29.485  10.200   4.119
30695W        W96175  38.567  40.047  14.276
30696W        W96176  18.129   1.341  12.898
30697W        W96177  27.112  39.039  14.807
30698W        W96178  16.613  16.788   4.638
30699W        W96179   6.699   4.332   4.780
30700W        W96180   3.938  44.962   2.356
30701W        W96181   8.876  25.655   4.354
30702W        W96182  42.405   2.465  14.418
30703W        W96183  27.954   7.803  12.374
30704W        W96184  41.414  13.190  13.921
30705W        W96185  14.326  42.817  12.838
30706W        W96186  23.085  14.642  13.432
30707W        W96187  21.520   3.246   1.327
30708W        W96188   7.388  19.562   1.447
30709W        W96189   4.846  33.082   4.134
30710W        W96190   7.256  34.896   1.802
30711W        W96191   3.366  18.598  14.867
30712W        W96192  12.630  26.033   4.239
30713W        W96193  41.292  28.578   4.344
30714W        W96194  28.644  22.735   2.775
30715W        W96195  16.683  18.060   4.169
30716W        W96196  19.166  35.449  12.911
30717W        W96197  42.925  11.210  14.955
30718W        W96198  15.254  16.670  10.468
30719W        W96199  13.602  25.711   3.820
30720W        W96200  38.007   4.335  13.947
30721W        W96201  27.671  14.215  12.928
30722W        W96202  11.242  15.653  14.474
30723W        W96203  33.431   8.319   1.379
30724W        W96204   2.783   1.261  11.926
30725W        W96205   0.926   4.822  12.856
30726W        W96206  33.097  43.015   4.300
30727W        W96207  14.599  10.360   2.821
30728W        W96208  22.636  29.016  13.006
30729W        W96209  21.700  15.247  13.378
30730W        W96210  28.167   2.800  10.529
30731W        W96211  30.054  36.410  14.406
30732W        W96212  24.052  21.659   3.731
30733W        W96213   3.247  42.461  14.402
30734W        W96214   9.268  11.684  14.004
30735W        W96215  23.688  21.090   4.242
30736W        W96216  44.290  28.447  12.978
30737W        W96217  16.090  25.148  14.870
30738W        W96218  40.823  12.797   2.732
30739W        W96219  31.006   1.827   2.834
30740W        W96220  42.032  34.049  10.499
30741W        W96221  27.153  11.635  11.612
30742W        W96222  23.119  21.048   3.849
30743W        W96223  14.270  21.643  11.502
30744W        W96224   5.401  20.226  14.941
30745W        W96225  16.258  30.532   1.241
30746W        W96226   9.247  29.670   2.716
30747W        W96227  15.638  33.080   9.582
30748W        W96228  40.808   3.330   4.325
30749W        W96229  26.457   5.295   2.870
30750W        W96230  21.732  28.956  14.479
30751W        W96231  38.936  44.453  10.487
30752W        W96232  13.111  43.775   0.733
30753W        W96233  43.855  21.190  14.864
30754W        W96234  38.542  12.232  13.526
30755W        W96235  38.442  16.780   2.776
30756W        W96236   4.265  14.711  11.928
30757W        W96237  39.062  42.987   4.687
30758W        W96238  29.937   1.279   4.714
30759W        W96239  13.226  20.149  14.987
30760W        W96240  20.718  22.580   2.383
30761W        W96241  15.203  26.187   0.750
30762W        W96242  37.941  14.264  12.053
30763W        W96243  29.925  24.531  13.818
30764W        W96244  21.238  34.550  11.423
30765W        W96245  23.559   5.228  10.982
30766W        W96246  40.307  43.453  14.350
30767W        W96247   7.842  16.747  11.927
30768W        W96248  38.327  26.984  10.629
30769W        W96249  27.125   9.370  10.512
30770W        W96250  42.337   3.817  12.368
30771W        W96251   1.732  24.010   1.809
30772W        W96252   0.276  19.601  11.953
30773W        W96253  20.107  41.033  11.515
30774W        W96254   1.437   1.400  11.855
30775W        W96255   8.869  26.629   0.862
30776W        W96256  20.616  38.386  14.955
30777W        W96257  30.031  34.063  12.346
30778W        W96258  15.308  31.134   2.236
30779W        W96259  35.106  31.448  11.122
30780W        W96260   0.336  24.217   2.260
30781W        W96261  41.799  12.228  14.402
30782W        W96262  40.868  24.128   0.429
30783W        W96263   8.228  14.229  13.030
30784W        W96264  26.179   8.313   4.761
30785W        W96265  41.028   6.693   1.858
30786W        W96266   7.852  43.984   3.204
30787W        W96267   5.846  16.170   0.905
30788W        W96268  22.593  23.544   2.218
30789W        W96269  34.883  39.412   3.818
30790W        W96270  22.653   9.875   5.104
30791W        W96271  23.507  23.644   0.444
30792W        W96272   2.933  27.144  11.521
30793W        W96273  35.874  36.369   1.848
30794W        W96274   4.734  31.454  11.469
30795W        W96275  17.155  18.735  12.083
30796W        W96276  43.493  37.475   1.294
30797W        W96277  36.514   3.258  10.898
30798W        W96278  22.567  43.998  14.854
30799W        W96279  44.865  30.567   1.886
30800W        W96280   5.269   8.367   4.151
30801W        W96281  19.128  14.236  12.991
30802W        W96282  10.708  10.373  13.415
30803W        W96283  40.014  24.519   4.678
30804W        W96284  13.692  16.737   0.948
30805W        W96285  35.357  15.206  11.966
30806W        W96286  23.586  26.594   3.173
30807W        W96287   5.697   5.851  12.907
30808W        W96288  39.490  17.226  14.864
30809W        W96289  38.859  10.646   4.792
30810W        W96290   5.729  35.105   3.267
30811W        W96291  21.122  14.169   4.676
30812W        W96292  44.010  44.832   4.698
30813W        W96293  32.088  19.638   2.817
30814W        W96294   9.183  37.083   3.676
30815W        W96295   5.265   2.880  11.420
30816W        W96296  37.019  31.559  13.870
30817W        W96297  14.705  38.485   1.423
30818W        W96298  14.805  31.142  10.504
30819W        W96299  41.345  44.323  10.142
30820W        W96300   4.861   6.239   1.241
30821W        W96301  26.107  32.415   1.899
30822W        W96302  26.159  11.152   4.297
30823W        W96303  36.990  13.210   4.114
30824W        W96304  32.958  34.991   1.747
30825W        W96305  30.129  25.218  12.014
30826W        W96306  39.314  38.384  14.799
30827W        W96307   3.282  42.786  14.993
30828W        W96308   3.940  35.588  12.412
30829W        W96309   8.712   5.818   1.722
30830W        W96310  19.713  10.142   1.722
30831W        W96311  27.475  26.193   4.189
30832W        W96312  31.897  33.457   1.302
30833W        W96313  10.233   7.391   2.798
30834W        W96314  28.648  13.725  10.534
30835W        W96315  25.627  29.137  13.538
30836W        W96316  10.153  43.932  13.418
30837W        W96317  19.057  11.132  14.777
30838W        W96318  23.002  35.879   0.409
30839W        W96319   5.860   3.871  13.938
30840W        W96320   3.876  15.313  13.837
30841W        W96321  32.413  10.258  13.537
30842W        W96322  33.386  41.313  12.041
30843W        W96323  37.843  31.977  11.549
30844W        W96324   1.325  44.919   4.114
30845W        W96325  16.800  39.864  10.566
30846W        W96326  16.678  34.383  11.887
30847W        W96327  28.121  33.429   1.367
30848W        W96328  37.383   6.828   2.840
30849W        W96329  20.663  43.863  10.953
30850W        W96330  42.357  28.082   1.751
30851W        W96331  30.491   7.264  14.288
30852W        W96332  24.550  44.279  13.945
30853W        W96333   6.249  42.877  12.079
30854W        W96334  24.146  26.486  12.982
30855W        W96335  43.285  26.484  13.330
30856W        W96336  16.095   6.400   4.225
30857W        W96337  22.741  24.119   9.945
30858W        W96338   9.186  19.672  14.829
30859W        W96339  11.810  29.967  11.428
30860W        W96340  41.941   4.359   0.432
30861W        W96341   8.707  19.076  13.972
30862W        W96342  23.151  21.103   1.827
30863W        W96343  14.318  44.501   0.903
30864W        W96344   1.863  39.993   0.795
30865W        W96345  38.547  18.740  10.444
30866W        W96346   7.219   9.392  14.316
30867W        W96347  25.651   7.378   1.700
30868W        W96348  11.641  12.818   2.806
30869W        W96349   3.923  12.205   2.226
30870W        W96350  19.105  21.703  10.635
30871W        W96351  35.023  30.916  10.993
30872W        W96352  40.053   8.177   2.303
30873W        W96353   4.884  19.148   0.879
30874W        W96354  33.986   1.800  13.869
30875W        W96355  21.085  18.603  14.982
30876W        W96356  24.120   0.310   1.849
30877W        W96357  36.404  32.122  13.473
30878W        W96358  18.173  22.227  12.834
30879W        W96359   9.778  32.912   3.246
30880W        W96360  35.430  44.836   1.778
30881W        W96361  38.439  31.639   4.803
30882W        W96362   7.326  26.531   2.864
30883W        W96363  22.595  30.935   0.259
30884W        W96364   1.296  38.821  14.478
30885W        W96365  19.249  16.772   2.833
30886W        W96366  40.338  41.305   3.250
30887W        W96367  38.489  37.450   2.833
30888W        W96368   0.494  23.494   0.909
30889W        W96369  32.934  41.857  13.944
30890W        W96370  44.403   7.711   4.761
30891W        W96371  31.082  25.620  11.952
30892W        W96372  43.976  20.560  10.579
30893W        W96373  38.919  20.191   1.404
30894W        W96374  42.424  16.143   4.614
30895W        W96375  38.929  21.071  12.981
30896W        W96376  13.766  20.189  11.489
30897W        W96377  26.129  40.819   2.761
30898W        W96378  41.344   1.737   1.914
30899W        W96379   7.377  12.176   0.795
30900W        W96380   5.289   9.695  14.337
30901W        W96381  22.541  10.642   1.290
30902W        W96382  20.621  28.516  11.381
30903W        W96383  33.036  41.468  14.882
30904W        W96384   2.886   8.318  11.115
30905W        W96385  33.042  24.988   0.447
30906W        W96386  29.531  36.873   3.653
30907W        W96387  33.945  31.972   2.873
30908W        W96388   5.352  19.580  12.533
30909W        W96389  41.789  24.030  14.440
30910W        W96390  11.363  16.677  11.904
30911W        W96391  13.674  17.154   1.276
30912W        W96392  42.776  24.563  13.043
30913W        W96393  37.559   8.895  13.352
30914W        W96394  37.835  26.678   3.694
30915W        W96395   8.283  34.917   0.397
30916W        W96396  26.689  37.041  12.018
30917W        W96397  13.793  19.625   0.962
30918W        W96398  22.018  16.642  14.802
30919W        W96399   2.893  15.719  14.327
30920W        W96400   9.198  42.288  12.939
30921W        W96401  18.712   6.207   3.719
30922W        W96402  35.054  11.366  12.548
30923W        W96403  23.593  34.069   0.880
30924W        W96404  31.130  44.947  12.046
30925W        W96405   9.838  18.621   1.261
30926W        W96406  10.185  36.591  10.933
30927W        W96407  20.547  40.519  11.894
30928W        W96408  15.144  14.656   3.692
30929W        W96409  36.373   8.730   2.884
30930W        W96410   5.238  20.724   4.120
30931W        W96411   4.423   6.834  12.398
30932W        W96412  24.172  15.295  14.780
30933W        W96413   0.385  31.584  11.972
30934W        W96414  30.467  38.953  14.360
30935W        W96415  43.816  26.059  12.086
30936W        W96416  24.198  15.641   4.828
30937W        W96417  39.341  39.967   4.740
30938W        W96418   2.349  24.582  12.863
30939W        W96419   2.453  24.216  11.107
30940W        W96420  37.087  43.483   1.344
30941W        W96421  29.035  14.790   4.303
30942W        W96422  12.823  10.680  14.798
30943W        W96423   2.238   4.777  14.476
30944W        W96424   6.425   0.286  11.051
30945W        W96425   6.776  21.531  12.944
30946W        W96426  37.441   4.735   0.409
30947W        W96427  36.895  17.240   3.246
30948W        W96428  36.093   3.924   0.761
30949W        W96429   1.913  16.173  13.478
30950W        W96430  30.067   6.822   2.780
30951W        W96431  26.072  38.353  12.555
30952W        W96432  36.842  23.719   1.269
30953W        W96433   4.412  31.443  11.554
30954W        W96434  34.495  11.621  12.029
30955W        W96435  28.554   0.422   1.449
30956W        W96436  10.793  14.713   0.245
30957W        W96437  13.660  19.678   2.747
30958W        W96438  44.482  13.753  12.951
30959W        W96439  42.780  31.012   5.245
30960W        W96440   0.268  18.127  14.882
30961W        W96441  36.352   5.866  12.339
30962W        W96442  43.277  25.663   4.351
30963W        W96443  28.127  41.004   3.230
30964W        W96444   8.756  21.585  12.057
30965W        W96445  14.132  40.903  14.941
30966W        W96446  40.878  24.111  11.905
30967W        W96447  37.081  16.212   1.371
30968W        W96448  16.193  27.601   5.649
30969W        W96449   7.174  24.121   2.271
30970W        W96450  15.651  35.497   2.846
30971W        W96451  10.791  41.430  11.911
30972W        W96452  40.489  41.389   4.255
30973W        W96453  25.669  11.774   0.256
30974W        W96454   4.773  12.636  14.937
30975W        W96455  28.962  43.844   3.761
30976W        W96456  10.266   6.894   0.384
30977W        W96457  18.132   2.379  10.578
30978W        W96458   5.798   8.881   2.289
30979W        W96459  24.116  13.200  13.954
30980W        W96460  34.054  29.055  11.089
30981W        W96461  34.898   5.787   3.354
30982W        W96462   4.278  27.115   2.883
30983W        W96463  38.350  43.805   1.779
30984W        W96464  14.822  40.521  11.466
30985W        W96465   5.792  40.800   4.207
30986W        W96466  38.853  27.975   4.716
30987W        W96467   6.772   0.287   0.953
30988W        W96468   1.251   6.769   0.872
30989W        W96469  43.936  19.043  10.546
30990W        W96470   4.308  21.580  11.031
30991W        W96471  20.594  18.224  12.045
30992W        W96472  42.941  38.330   4.783
30993W        W96473  36.902  17.138   0.795
30994W        W96474  40.531  14.650   0.792
30995W        W96475   8.775  25.049   2.193
30996W        W96476  37.407  31.913  14.355
30997W        W96477  32.033  21.187  12.501
30998W        W96478  33.082  39.357   0.478
30999W        W96479  40.403  13.720  12.406
31000W        W96480   4.242  40.941   2.187
31001W        W96481   0.364   8.308  12.983
31002W        W96482   5.793  27.021   1.367
31003W        W96483  42.015  28.574   4.647
31004W        W96484   1.340   6.245   0.300
31005W        W96485  27.136  24.638  12.369
31006W        W96486  17.609  12.232  11.505
31007W        W96487   4.280   8.355   3.661
31008W        W96488  22.601  36.853   3.153
31009W        W96489  37.479  36.458  11.537
31010W        W96490  21.166  27.066   3.639
31011W        W96491  41.340  18.213   3.316
31012W        W96492  27.182  38.453  10.583
31013W        W96493  24.006  23.153  14.514
31014W        W96494  30.467  15.274   3.164
31015W        W96495  20.138   8.352   0.467
31016W        W96496  17.133  13.782  12.496
31017W        W96497  27.680  36.898   1.339
31018W        W96498  23.171  35.046  13.936
31019W        W96499  20.601  11.224   3.260
31020W        W96500  12.805   8.261  14.480
31021W        W96501  27.003   4.319   0.255
31022W        W96502  30.996  35.514   1.270
31023W        W96503  21.563  40.494   4.225
31024W        W96504  21.674  25.086   4.720
31025W        W96505  31.552  19.761  13.469
31026W        W96506   0.297  22.204   0.751
31027W        W96507  26.650   4.786   9.977
31028W        W96508  30.570  36.993  10.409
31029W        W96509   1.814  23.721  12.931
31030W        W96510   9.258   6.183  12.827
31031W        W96511   7.793  13.234  13.857
31032W        W96512   3.819  43.786   3.303
31033W        W96513  16.646  21.094   1.215
31034W        W96514   4.710   9.388   1.807
31035W        W96515   5.218  40.942   2.874
31036W        W96516  26.964  29.038   0.751
31037W        W96517  41.501  43.961  10.602
31038W        W96518  34.882  43.326  13.328
31039W        W96519   9.835  14.095   4.654
31040W        W96520  36.089   6.274  13.358
31041W        W96521   2.339  42.976   5.203
31042W        W96522  34.926  44.456   2.190
31043W        W96523  17.570  10.320   3.825
31044W        W96524  30.105  17.106  12.033
31045W        W96525   8.796  40.514   3.779
31046W        W96526  21.689  42.325  14.415
31047W        W96527  20.571   4.754   3.809
31048W        W96528   5.304  21.251  14.374
31049W        W96529  21.166  39.995  10.403
31050W        W96530  30.534   9.664   1.298
31051W        W96531  35.487  21.086   2.787
31052W        W96532  28.933  11.357   0.816
31053W        W96533  11.181  28.626   1.875
31054W        W96534  17.653  10.684   4.302
31055W        W96535  13.339  30.001  13.887
31056W        W96536   3.454  43.417  12.576
31057W        W96537  41.842  36.062  11.032
31058W        W96538  29.502  14.617   1.916
31059W        W96539  28.435  19.087   4.182
31060W        W96540  32.398  22.662  14.975
31061W        W96541  25.667   3.438   9.961
31062W        W96542  38.048  37.943  14.917
31063W        W96543  33.888   2.425  11.427
31064W        W96544   0.427  30.486   2.820
31065W        W96545   5.905   3.929   1.786
31066W        W96546  34.480  10.767   0.249
31067W        W96547  43.423  21.049   1.309
31068W        W96548  12.646   8.767   3.253
31069W        W96549  14.611  24.563   1.781
31070W        W96550   5.324  38.015  13.872
31071W        W96551  39.019  15.173  14.394
31072W        W96552  42.996  36.078  10.579
31073W        W96553   6.858  29.127   3.805
31074W        W96554   7.232  16.265  13.332
31075W        W96555   1.240  38.840   2.689
31076W        W96556  18.172  33.591  12.940
31077W        W96557  29.599  15.324  14.924
31078W        W96558  20.078  17.591   0.793
31079W        W96559  44.321  42.781   3.818
31080W        W96560  13.601  24.153  12.353
31081W        W96561  40.388  29.099  11.470
31082W        W96562  33.879  38.874  13.360
31083W        W96563  21.056  16.191  14.910
31084W        W96564  42.427  23.998   3.835
31085W        W96565  19.085  33.070   4.622
31086W        W96566  43.796  36.590   3.310
31087W        W96567  22.503   1.465   3.349
31088W        W96568  40.939   3.844   4.773
31089W        W96569  36.546  13.232   4.627
31090W        W96570  27.951  23.591  12.957
31091W        W96571  19.705  44.906   2.794
31092W        W96572  43.846  31.979  13.357
31093W        W96573   2.870  20.577   1.354
31094W        W96574  42.286  33.504  12.826
31095W        W96575  25.071  15.298   3.326
31096W        W96576  37.011  15.682  10.507
31097W        W96577  14.278  19.743  11.926
31098W        W96578  29.505  30.485   1.746
31099W        W96579  12.707  30.143   2.862
31100W        W96580  17.306  37.019  14.997
31101W        W96581  27.541  38.905  11.986
31102W        W96582  38.994  10.297  12.027
31103W        W96583  33.454  43.773   0.474
31104W        W96584  28.949   4.357  13.964
31105W        W96585   6.260  27.455  10.158
31106W        W96586  37.443  39.880  11.046
31107W        W96587   7.322  37.573   0.330
31108W        W96588  23.052   1.383   1.711
31109W        W96589  27.008  12.246  14.475
31110W        W96590  41.505  21.531   3.322
31111W        W96591  24.135  40.929   4.268
31112W        W96592  24.224  34.994   1.739
31113W        W96593  13.814  17.556   0.731
31114W        W96594  12.253  23.230  11.946
31115W        W96595  17.079  34.077   0.384
31116W        W96596  27.147  31.979  11.475
31117W        W96597   7.254  42.864  14.000
31118W        W96598  39.422  28.091   0.961
31119W        W96599  28.034  15.757  11.394
31120W        W96600  16.714  14.693  14.918
31121W        W96601  42.022  15.749   1.232
31122W        W96602  37.518  13.231   1.445
31123W        W96603   3.215  27.603  10.568
31124W        W96604   1.806  44.847   2.187
31125W        W96605  26.027   1.734  13.908
31126W        W96606  44.968  14.636   3.789
31127W        W96607  19.151  41.326   0.802
31128W        W96608  27.011  25.127   0.955
31129W        W96609  38.829  15.172  12.834
31130W        W96610   5.930  18.779   2.316
31131W        W96611  34.600  13.613  14.810
31132W        W96612  10.793  39.920  14.780
31133W        W96613  35.428  11.370  14.910
31134W        W96614   1.834  33.401   2.383
31135W        W96615  41.423  23.585   3.789
31136W        W96616  35.014  40.487   4.723
31137W        W96617  14.120  19.263  12.367
31138W        W96618  19.645   6.901  12.003
31139W        W96619  14.125  23.506  14.333
31140W        W96620   3.722  35.903  14.802
31141W        W96621  34.893  36.456   1.254
31142W        W96622  13.259  12.225   1.706
31143W        W96623  14.623  23.059   2.776
31144W        W96624  38.554  34.020  10.631
31145W        W96625  26.629   9.752   0.812
31146W        W96626  15.712  17.588  11.863
31147W        W96627  10.820  34.942  12.499
31148W        W96628  37.841  15.126  10.639
31149W        W96629  34.372   5.303   4.716
31150W        W96630  17.762  15.763  11.872
31151W        W96631  15.581  36.436   4.247
31152W        W96632  37.022  35.997  14.914
31153W        W96633  33.572   4.283  14.919
31154W        W96634  35.501   5.217  12.030
31155W        W96635  37.377   6.425   4.803
31156W        W96636  18.217  19.159  12.432
31157W        W96637  14.623  16.317   1.310
31158W        W96638  20.698  44.273   2.373
31159W        W96639  21.069   4.899  13.488
31160W        W96640  29.660  29.066   1.302
31161W        W96641  36.378  20.601   1.853
31162W        W96642  11.193  10.776  11.079
31163W        W96643  22.597  24.201   4.303
31164W        W96644  42.810  16.222   4.614
31165W        W96645  18.605   9.709  10.431
31166W        W96646  21.043  39.406  12.362
31167W        W96647   5.194   7.671   0.346
31168W        W96648   6.322  29.979  14.405
31169W        W96649  20.194  37.002   2.798
31170W        W96650  20.179  16.308  11.868
31171W        W96651   1.952  24.695   0.419
31172W        W96652  23.614  11.278   1.329
31173W        W96653  10.675  36.465  11.031
31174W        W96654  34.562  11.776   4.672
31175W        W96655  42.955  31.432  12.965
31176W        W96656  44.321  31.572  12.470
31177W        W96657  43.952  10.339  13.854
31178W        W96658  28.147  35.008  14.964
31179W        W96659  25.049  14.336  11.539
31180W        W96660  12.274   6.788   3.268
31181W        W96661   8.671   5.897  12.357
31182W        W96662  31.923  17.159  14.502
31183W        W96663   0.328  41.336  14.883
31184W        W96664  41.484   3.895   0.763
31185W        W96665  21.667   4.827  10.437
31186W        W96666  12.835  35.961   1.256
31187W        W96667  25.031  19.562   4.670
31188W        W96668  16.082  11.774   1.797
31189W        W96669  30.463  10.247  12.063
31190W        W96670  41.792  27.099   2.663
31191W        W96671  16.591  24.149  11.898
31192W        W96672  29.041  13.266  12.511
31193W        W96673  20.270  24.011  11.863
31194W        W96674  27.190  16.760  14.947
31195W        W96675  27.497  26.960   0.900
31196W        W96676  38.860  31.586   1.916
31197W        W96677   4.753  28.626  13.825
31198W        W96678   7.333   6.271   1.766
31199W        W96679  18.703  39.500   3.850
31200W        W96680  14.778  10.869   0.865
31201W        W96681  41.882   3.834   3.302
31202W        W96682   5.395  42.358  12.826
31203W        W96683  31.086   4.302  12.417
31204W        W96684  29.056   4.245  11.412
31205W        W96685  13.249  29.087   3.260
31206W        W96686  33.586  27.998   2.299
31207W        W96687  24.610   4.348  13.409
31208W        W96688   9.188   0.783  12.857
31209W        W96689  37.523  33.443   4.677
31210W        W96690  25.565  14.277   2.277
31211W        W96691  13.845  24.003   1.893
31212W        W96692   4.897   9.193   0.256
31213W        W96693  41.324  34.564   4.650
31214W        W96694   6.418   6.875   3.719
31215W        W96695  28.168   9.817  13.442
31216W        W96696  28.080   1.918  14.402
31217W        W96697  21.684  13.269   4.263
31218W        W96698  28.482  21.158   1.356
31219W        W96699  11.129   0.280   2.785
31220W        W96700   8.703   4.246   4.252
31221W        W96701  13.222  38.959   1.870
31222W        W96702  39.983  32.630  11.089
31223W        W96703   5.822  30.414   0.320
31224W        W96704   1.474  36.414   3.759
31225W        W96705  19.208   6.871  12.357
31226W        W96706  16.254  12.299   2.225
31227W        W96707   9.334   9.771   2.681
31228W        W96708  13.633  37.380   3.657
31229W        W96709  12.719  10.656   4.735
31230W        W96710  11.836  17.207   3.846
31231W        W96711  13.656   5.781  13.447
31232W        W96712  42.847  36.992   3.859
31233W        W96713  15.258   5.821   2.744
31234W        W96714  33.452  30.461   1.837
31235W        W96715   7.912   3.335   5.316
31236W        W96716  43.855  37.512  12.469
31237W        W96717  11.214  20.766  14.823
31238W        W96718  19.118  31.543   3.792
31239W        W96719  28.503  26.485   4.204
31240W        W96720  28.562   8.672  13.429
31241W        W96721  39.995   5.282   3.318
31242W        W96722  43.820   9.233  10.460
31243W        W96723  44.848  14.758   1.392
31244W        W96724  18.080  16.133  11.439
31245W        W96725  21.694  31.069   3.707
31246W        W96726  38.827  23.180  13.444
31247W        W96727  21.747  43.012  12.894
31248W        W96728  26.008  42.379  12.850
31249W        W96729  34.461  34.376   1.911
31250W        W96730  28.515  17.654  11.467
31251W        W96731   2.307  16.639  12.416
31252W        W96732  36.533   5.928   0.878
31253W        W96733  30.581  42.866  14.394
31254W        W96734  28.517  10.860   0.736
31255W        W96735  25.201   6.772  14.468
31256W        W96736   7.379  19.700   4.641
31257W        W96737   2.827   7.393   3.755
31258W        W96738  41.918  17.785  11.125
31259W        W96739   8.868  17.604  14.417
31260W        W96740  37.064  25.101  12.993
31261W        W96741  17.068  40.922   2.336
31262W        W96742  37.022   8.766  12.919
31263W        W96743   3.286  19.190  11.516
31264W        W96744  28.550  34.607   2.346
31265W        W96745  43.381  35.868   5.239
31266W        W96746  24.495  22.024   4.135
31267W        W96747  36.864  20.593   2.321
31268W        W96748  28.143  37.881  14.424
31269W        W96749  18.576  44.360  13.808
31270W        W96750  20.567  11.371  10.606
31271W        W96751   9.360  32.086   4.251
31272W        W96752   4.257  42.991   4.266
31273W        W96753   8.829  41.418  13.851
31274W        W96754  37.909  29.068  14.331
31275W        W96755  39.424  37.867  13.895
31276W        W96756   7.244  30.950  12.495
31277W        W96757  37.395  38.338  10.061
31278W        W96758  24.715   7.760  12.530
31279W        W96759  41.522  42.786  11.909
31280W        W96760  40.423   9.209   3.638
31281W        W96761  32.436   3.450  10.129
31282W        W96762  12.837  41.967  12.844
31283W        W96763  28.583   6.921   3.353
31284W        W96764  13.702  25.063  12.982
31285W        W96765  34.035  30.097  13.845
31286W        W96766  16.099  40.802  13.334
31287W        W96767  20.759  41.877  14.808
31288W        W96768  20.749   9.645  14.939
31289W        W96769   4.932  20.105   4.195
31290W        W96770  39.828  44.920   1.310
31291W        W96771   4.403  12.720   0.868
31292W        W96772  14.702   5.430  14.855
31293W        W96773   8.171  36.991  13.926
31294W        W96774   4.718   8.406  12.083
31295W        W96775   7.198   2.873   0.352
31296W        W96776  24.566  23.126   3.804
31297W        W96777  26.640  19.170  13.865
31298W        W96778  22.008   2.956   0.889
31299W        W96779  43.847  25.554  13.896
31300W        W96780  39.373   6.321   1.364
31301W        W96781  37.564  39.042   4.205
31302W        W96782  25.503   3.378   5.299
31303W        W96783  28.978  30.534   2.355
31304W        W96784  18.233  16.094   4.688
31305W        W96785  10.290  44.762   3.742
31306W        W96786   0.370  42.999  12.359
31307W        W96787   2.735  14.685   2.400
31308W        W96788  18.223  22.083  14.824
31309W        W96789  19.227   1.832  12.948
31310W        W96790  31.960  19.703  11.065
31311W        W96791  33.584   1.337  13.496
31312W        W96792  23.117  32.516  13.972
31313W        W96793  24.997  11.682   2.671
31314W        W96794  27.475  33.076   1.402
31315W        W96795  21.110   7.692   3.771
31316W        W96796  21.184   6.356   1.407
31317W        W96797  11.262   0.792  11.872
31318W        W96798  22.144  23.494   2.734
31319W        W96799  38.889  43.444   4.116
31320W        W96800   9.838   5.920  11.473
31321W        W96801  39.519  28.990   2.273
31322W        W96802  41.803  25.155   5.181
31323W        W96803   3.847   0.339  13.807
31324W        W96804  29.126   6.293   3.162
31325W        W96805  34.476  29.460   3.676
31326W        W96806  43.881  22.743   0.777
31327W        W96807  17.655  24.614  12.409
31328W        W96808  35.381  42.356  14.900
31329W        W96809   8.174  18.669   3.784
31330W        W96810  14.737  37.380   3.728
31331W        W96811  12.184  22.016   4.143
31332W        W96812  34.504   7.223  14.461
31333W        W96813  30.085  26.633  14.934
31334W        W96814  35.071  36.408  12.080
31335W        W96815   8.759  12.653  13.527
31336W        W96816  26.993  44.302  12.521
31337W        W96817  13.670  42.465  13.894
31338W        W96818  34.948  11.293  13.948
31339W        W96819   6.724   3.355   3.638
31340W        W96820  17.293  39.961  13.991
31341W        W96821   5.353   6.764   0.765
31342W        W96822   7.769  17.101  10.929
31343W        W96823  37.854  12.219   4.149
31344W        W96824  40.016  19.735  12.985
31345W        W96825  25.533  27.039  12.846
31346W        W96826  26.104   5.313   3.748
31347W        W96827  40.387  30.415   1.756
31348W        W96828  32.564  16.276   0.754
31349W        W96829  13.702  25.049   4.177
31350W        W96830  21.627  39.513  12.986
31351W        W96831  32.106  15.661  12.881
31352W        W96832  25.524  31.645  13.401
31353W        W96833  39.399   1.808   2.676
31354W        W96834  19.674  24.226   4.763
31355W        W96835  16.716  23.530  10.492
31356W        W96836  13.725  19.674   3.345
31357W        W96837  43.462  42.911  12.085
31358W        W96838  20.615  34.953   0.809
31359W        W96839  43.908  33.542   0.331
31360W        W96840  39.383  27.468   3.166
31361W        W96841   6.200  13.346   5.104
31362W        W96842  27.990  10.258   2.694
31363W        W96843  26.565  10.275  12.532
31364W        W96844  30.608   3.835  13.410
31365W        W96845  20.269   3.374  13.419
31366W        W96846  19.110  29.626   0.352
31367W        W96847   7.895   2.273   1.239
31368W        W96848   5.254  11.832   4.271
31369W        W96849  17.801  12.236  13.877
31370W        W96850  24.570  21.057   3.319
31371W        W96851  24.155   6.190  12.363
31372W        W96852  30.096  44.890   1.750
31373W        W96853  37.393  44.316  11.523
31374W        W96854  44.921   9.188  14.799
31375W        W96855  28.128  14.169  14.779
31376W        W96856  16.260  25.561  11.511
31377W        W96857  40.908  43.005   3.699
31378W        W96858  23.110  23.635   0.296
31379W        W96859  24.668  23.197  13.003
31380W        W96860  42.377  14.273   0.292
31381W        W96861  38.369  13.713  12.031
31382W        W96862   2.935  14.768  11.472
31383W        W96863   3.861  13.186  14.329
31384W        W96864  36.940  15.785  12.535
31385W        W96865  17.159   6.220  12.007
31386W        W96866  43.796   1.377   3.357
31387W        W96867   6.790  36.899   4.801
31388W        W96868   0.466   7.702  14.398
31389W        W96869   4.745  12.845   1.851
31390W        W96870  39.909   8.309   2.856
31391W        W96871   0.753  36.514   2.749
31392W        W96872  18.662  12.284   4.288
31393W        W96873  44.951   9.336   4.599
31394W        W96874   8.871  20.764   0.276
31395W        W96875  29.454  35.915  12.915
31396W        W96876  12.136  29.627   1.226
31397W        W96877  33.572   6.333   5.097
31398W        W96878  31.602  12.838  11.376
31399W        W96879   8.711  31.000   2.291
31400W        W96880   3.883   0.952   2.712
31401W        W96881   3.750  34.369  13.014
31402W        W96882  40.426  16.165   4.671
31403W        W96883  24.070  25.550  12.941
31404W        W96884  24.223  11.173  13.049
31405W        W96885  15.242  29.476   0.782
31406W        W96886  27.684   5.878  13.954
31407W        W96887  33.128   3.724   2.816
31408W        W96888  44.360  20.058  12.542
31409W        W96889  16.314   1.931   0.804
31410W        W96890  19.241  30.607  11.909
31411W        W96891  25.687  35.088  12.859
31412W        W96892  41.988  43.426  14.841
31413W        W96893  43.998  20.182   4.658
31414W        W96894   4.921  18.564  13.811
31415W        W96895  25.209  38.862   1.449
31416W        W96896  33.499  32.549  10.145
31417W        W96897   2.426  17.066  11.481
31418W        W96898   0.911   3.410  11.938
31419W        W96899   5.802   7.817   4.352
31420W        W96900  40.903  30.075  10.500
31421W        W96901  37.566  42.873  13.487
31422W        W96902   3.279  35.875  11.579
31423W        W96903  29.661  11.221  10.484
31424W        W96904   8.402  42.879   2.240
31425W        W96905  41.992   9.857  13.820
31426W        W96906  29.021  24.045  13.036
31427W        W96907  33.974   6.404   4.767
31428W        W96908  36.395   2.834   3.662
31429W        W96909  13.717   4.275   1.410
31430W        W96910  16.292  11.366   0.919
31431W        W96911  14.700  12.350  14.804
31432W        W96912  14.660  31.055  11.102
31433W        W96913  13.221   7.310   4.228
31434W        W96914   6.202  10.713  12.949
31435W        W96915  19.603  32.909   3.687
31436W        W96916  13.154   7.214  11.490
31437W        W96917  36.474  19.545  10.632
31438W        W96918  44.420  16.646   0.805
31439W        W96919  39.899  34.462  10.984
31440W        W96920  39.507  24.558   2.873
31441W        W96921  38.488  23.666   4.679
31442W        W96922  42.521   7.717  12.373
31443W        W96923  12.638  33.438   3.824
31444W        W96924  43.387  14.751   4.274
31445W        W96925   1.839  37.831  14.290
31446W        W96926   9.733  41.881   1.301
31447W        W96927   4.332   5.836  14.897
31448W        W96928  31.496  43.284  14.864
31449W        W96929  12.839   9.770  13.407
31450W        W96930   3.948  11.204  10.641
31451W        W96931  21.190  37.452  10.549
31452W        W96932   1.889  41.864   1.359
31453W        W96933  19.554  29.512  10.950
31454W        W96934  35.974   3.225   0.259
31455W        W96935  25.472  37.481   4.331
31456W        W96936  44.954  10.729   3.372
31457W        W96937  38.464  16.615  12.959
31458W        W96938   6.751  38.384   1.723
31459W        W96939  18.253   9.683   0.911
31460W        W96940  23.718  31.056   3.674
31461W        W96941  28.565  41.311   1.448
31462W        W96942  15.729  29.051  14.375
31463W        W96943  41.328  39.336  11.490
31464W        W96944  11.263  10.811  11.859
31465W        W96945  42.928  30.563  12.954
31466W        W96946  37.013  40.306   1.397
31467W        W96947   1.759  10.825   1.248
31468W        W96948  11.221   3.449   1.233
31469W        W96949  30.498  17.712   2.239
31470W        W96950   5.931   3.791   3.271
31471W        W96951   7.833  14.824  13.513
31472W        W96952  37.439  18.147   2.181
31473W        W96953   4.883  23.636  13.429
31474W        W96954  34.043  22.074  10.932
31475W        W96955  13.834  16.194   0.732
31476W        W96956  22.216  40.861   1.904
31477W        W96957  32.912   5.238  14.833
31478W        W96958  11.817   7.833  14.023
31479W        W96959  27.447  27.454   2.756
31480W        W96960  18.564  10.848   2.347
31481W        W96961  13.204   1.914  10.099
31482W        W96962  13.842  40.345  10.582
31483W        W96963  17.081  41.322   0.847
31484W        W96964  41.967  44.844  11.041
31485W        W96965  13.683  17.074   4.285
31486W        W96966  32.985  16.807  14.321
31487W        W96967  34.069  30.463  14.817
31488W        W96968  39.940  20.538  12.401
31489W        W96969  18.571  26.188  10.980
31490W        W96970  10.363  23.607   0.963
31491W        W96971   0.907   4.728  11.377
31492W        W96972  32.081  19.773   1.739
31493W        W96973  27.645  39.991  14.442
31494W        W96974  27.998  17.220  11.431
31495W        W96975  34.942  27.137  12.345
31496W        W96976  33.020  10.256  13.953
31497W        W96977  42.032   1.949  14.511
31498W        W96978  43.861   8.742   2.326
31499W        W96979  15.192  34.936   1.365
31500W        W96980  31.509   6.808  11.894
31501W        W96981  23.586  43.802  13.046
31502W        W96982  29.472  21.086   1.709
31503W        W96983   3.433  42.962  12.388
31504W        W96984   0.870  30.604   0.765
31505W        W96985   3.949  32.470   3.177
31506W        W96986  10.842  22.149   3.298
31507W        W96987  10.286  14.291  14.966
31508W        W96988  20.663  44.942   4.316
31509W        W96989  36.852  42.918  10.621
31510W        W96990  25.521  41.515   5.301
31511W        W96991  13.621  32.510   4.170
31512W        W96992  31.523   2.316  13.823
31513W        W96993  16.759  29.485  14.854
31514W        W96994   2.856   9.725   0.966
31515W        W96995  37.889  22.065  12.040
31516W        W96996  37.394  38.464  11.121
31517W        W96997  19.232   4.438  10.964
31518W        W96998  36.910  37.851  13.352
31519W        W96999   2.797  14.216   3.376
31520W        W97000   1.763  39.342   1.751
31521W        W97001  12.765  30.620  13.917
31522W        W97002  19.613  19.280   2.866
31523W        W97003  41.795  22.006  13.451
31524W        W97004  11.798  27.162  11.950
31525W        W97005  16.668  19.574   1.822
31526W        W97006   5.293   3.810  11.452
31527W        W97007  33.500  21.521   3.669
31528W        W97008  12.362  24.542  13.049
31529W        W97009  36.086  15.762   0.793
31530W        W97010  43.858  24.990  14.901
31531W        W97011  26.670  43.285  13.492
31532W        W97012   7.846  24.193   3.710
31533W        W97013  13.605  32.026  12.827
31534W        W97014   0.388  34.458   1.870
31535W        W97015  43.285  28.621   2.340
31536W        W97016  21.638  27.028   2.277
31537W        W97017  36.059  31.940   2.192
31538W        W97018  14.705   2.337   0.308
31539W        W97019  40.847   4.293  10.893
31540W        W97020  33.888  35.566  14.898
31541W        W97021  31.537  32.022   2.882
31542W        W97022  14.297  34.996   1.866
31543W        W97023   3.760  27.943  13.340
31544W        W97024  40.868  21.598   1.724
31545W        W97025  38.980   4.418   2.734
31546W        W97026  35.573  39.317   4.287
31547W        W97027  29.486  20.720  14.379
31548W        W97028  42.456  29.542  12.509
31549W        W97029  34.078   3.373   3.220
31550W        W97030   5.770   2.754   1.307
31551W        W97031  40.943  13.768   2.260
31552W        W97032  40.876   0.313  12.030
31553W        W97033   5.774  28.140  11.076
31554W        W97034   7.682  40.378   1.887
31555W        W97035   6.208  28.677   2.233
31556W        W97036  12.180  33.459   2.375
31557W        W97037   5.765   7.786  10.982
31558W        W97038  39.048  26.540  14.483
31559W        W97039  26.125  16.147   3.247
31560W        W97040  38.374  24.711  11.051
31561W        W97041   2.371  33.095  12.869
31562W        W97042  41.024  16.767   3.718
31563W        W97043  33.096  44.902  11.445
31564W        W97044   5.213   0.824  14.498
31565W        W97045  32.135   4.901   2.876
31566W        W97046  37.881  34.118  13.413
31567W        W97047  10.226  24.063   3.170
31568W        W97048   3.726  22.605   2.392
31569W        W97049   0.471  24.177   4.291
31570W        W97050  35.548  23.172   4.246
31571W        W97051  36.867  14.225  13.416
31572W        W97052  19.692  36.874   0.832
31573W        W97053  21.180   0.432  13.354
31574W        W97054   6.728   6.370  14.348
31575W        W97055  23.593  39.394   4.720
31576W        W97056  25.182  30.943  12.931
31577W        W97057  41.958  13.619  10.502
31578W        W97058  21.225  37.509  11.917
31579W        W97059   3.768  17.255   4.758
31580W        W97060  44.314   4.311   4.153
31581W        W97061  42.862  15.803  10.605
31582W        W97062  39.337  32.942   1.821
31583W        W97063  26.648  26.165  14.814
31584W        W97064  37.928  27.556   0.242
31585W        W97065   1.945  12.150  13.495
31586W        W97066  36.492  28.444  14.398
31587W        W97067  35.872  31.518   4.813
31588W        W97068  14.677  39.324  13.523
31589W        W97069   2.450  27.546  12.478
31590W        W97070   8.701   1.357  12.944
31591W        W97071   3.789  20.158  13.897
31592W        W97072  37.984  43.898  13.470
31593W        W97073   4.834   3.340  13.317
31594W        W97074  11.267  29.949  12.348
31595W        W97075  10.647  29.050  10.478
31596W        W97076  17.099  44.313   1.726
31597W        W97077  40.547  43.021   1.401
31598W        W97078   3.338  27.628  11.937
31599W        W97079  30.434  30.500   3.815
31600W        W97080   7.298  33.063   3.747
31601W        W97081  33.896  15.758  12.344
31602W        W97082  44.382  41.427  12.036
31603W        W97083  40.374   0.272  13.891
31604W        W97084  15.295  15.173  13.807
31605W        W97085  28.606   6.751  12.089
31606W        W97086   5.309  23.502   2.387
31607W        W97087  15.604  33.124   0.404
31608W        W97088  18.089   2.380   0.754
31609W        W97089  16.755   5.921   3.783
31610W        W97090  24.518  10.700  11.108
31611W        W97091  19.260  20.742  10.444
31612W        W97092  32.556  44.493   1.421
31613W        W97093  30.092  15.324  13.889
31614W        W97094  43.303  10.852  14.385
31615W        W97095   1.744   1.243   2.363
31616W        W97096  40.485   6.800   2.880
31617W        W97097  43.461  42.505  10.487
31618W        W97098  12.635  21.102  11.585
31619W        W97099  30.071  21.611   3.697
31620W        W97100  25.191  14.599   1.904
31621W        W97101  15.315  32.141  13.397
31622W        W97102  26.490  23.195   0.443
31623W        W97103  21.156  19.735  10.013
31624W        W97104  31.954  19.585  11.497
31625W        W97105  18.212  23.550  14.801
31626W        W97106  21.694  14.761  13.791
31627W        W97107  22.999  25.500   0.423
31628W        W97108   9.658  30.114   2.867
31629W        W97109  23.221   9.741  11.541
31630W        W97110  25.620  16.765  11.928
31631W        W97111  37.040   7.360   1.757
31632W        W97112   9.346  23.697  13.814
31633W        W97113  23.499  29.010  11.575
31634W        W97114   7.841  30.037   4.152
31635W        W97115  37.467  20.557  11.501
31636W        W97116  10.342  11.758   5.112
31637W        W97117  38.329  19.261   9.948
31638W        W97118  31.969  27.144   2.780
31639W        W97119  15.794  24.181  10.518
31640W        W97120  17.236  23.035  12.064
31641W        W97121   1.861  14.757   4.139
31642W        W97122  12.254  27.660   3.787
31643W        W97123  17.717  13.283   3.658
31644W        W97124  33.968   7.840   3.205
31645W        W97125   6.191  19.132   2.898
31646W        W97126  21.124  18.275  13.324
31647W        W97127  27.564  19.539   3.309
31648W        W97128   6.826  34.375   4.333
31649W        W97129   7.800  25.010  14.031
31650W        W97130  17.161  43.951  11.110
31651W        W97131   2.918   5.257  13.379
31652W        W97132  22.677  11.798  13.327
31653W        W97133  22.064  30.123  11.412
31654W        W97134  20.760  42.475   1.725
31655W        W97135  28.537  14.285  10.434
31656W        W97136  34.090  31.609   3.302
31657W        W97137  13.186  33.079   1.756
31658W        W97138  35.923   3.394   4.317
31659W        W97139  34.090   5.873  11.124
31660W        W97140   7.256   9.278  13.314
31661W        W97141  23.052   3.405   5.189
31662W        W97142  36.041  19.065  13.961
31663W        W97143   2.321   4.732  11.921
31664W        W97144  18.637  29.581   0.434
31665W        W97145  17.556  37.499  14.305
31666W        W97146  28.579  24.044   4.837
31667W        W97147  12.152  11.844  11.941
31668W        W97148   4.858  21.105  14.902
31669W        W97149   6.733  27.529  10.977
31670W        W97150  23.502  17.186  13.408
31671W        W97151  43.305  26.636  12.502
31672W        W97152   5.216  10.339   1.743
31673W        W97153   1.932  20.261  10.995
31674W        W97154   4.900  16.804  11.100
31675W        W97155  28.003  25.125   4.231
31676W        W97156  10.801  38.033   3.702
31677W        W97157  14.199  11.688   2.276
31678W        W97158  19.663  18.115  11.954
31679W        W97159  26.078  36.355   3.354
31680W        W97160  36.926  15.632  13.930
31681W        W97161  37.914  43.890  10.588
31682W        W97162   5.904  31.922  10.603
31683W        W97163  22.563  40.486  14.815
31684W        W97164   6.819   6.716  14.859
31685W        W97165  16.269  29.965  11.485
31686W        W97166  33.405  33.107   4.752
31687W        W97167   5.301  12.147  12.984
31688W        W97168  18.751   5.862  10.923
31689W        W97169  28.545  19.064   1.241
31690W        W97170  12.736  25.042  14.895
31691W        W97171  44.431   0.968   3.753
31692W        W97172  41.857  36.984  14.996
31693W        W97173  41.880  42.999   4.689
31694W        W97174  24.588  16.761   3.324
31695W        W97175  44.325  27.596  12.359
31696W        W97176  18.070  39.936   2.292
31697W        W97177  42.792  42.978  14.329
31698W        W97178  22.198  16.168   1.280
31699W        W97179  42.441   1.845   4.293
31700W        W97180  12.163  32.939   3.200
31701W        W97181  12.121  26.466   2.199
31702W        W97182  16.755  16.219   0.804
31703W        W97183  43.784  22.621   4.795
31704W        W97184  43.993   1.251   1.716
31705W        W97185  31.531  29.558   0.273
31706W        W97186  36.449   7.864   4.135
31707W        W97187  40.994  25.006   4.214
31708W        W97188  35.423  21.686  14.309
31709W        W97189  38.351  18.212   3.842
31710W        W97190  21.757  10.273   0.752
31711W        W97191  17.134  40.894   0.431
31712W        W97192  19.285  38.559   2.332
31713W        W97193   1.931   4.378   4.264
31714W        W97194  19.286  40.403  12.863
31715W        W97195   4.740   9.164   2.833
31716W        W97196  42.496  11.834   1.797
31717W        W97197  35.494  30.485   2.846
31718W        W97198  12.783  30.121   1.236
31719W        W97199   6.370   4.714  12.875
31720W        W97200   9.752   4.718  12.878
31721W        W97201  20.664  29.490  13.944
31722W        W97202  37.482  43.802  13.053
31723W        W97203  16.087  40.531   2.679
31724W        W97204   2.847  23.036  14.466
31725W        W97205  20.149  19.171  13.406
31726W        W97206  15.768  17.667  10.526
31727W        W97207   7.900  42.456   3.635
31728W        W97208   0.904  11.638  14.816
31729W        W97209  35.071  31.584  13.908
31730W        W97210  33.611  39.470  10.015
31731W        W97211  23.184   9.373   3.630
31732W        W97212  11.809   7.873   3.325
31733W        W97213  28.033   5.904  13.806
31734W        W97214  43.781  16.745   1.790
31735W        W97215  31.599   4.215  13.318
31736W        W97216   9.319  23.989  14.930
31737W        W97217  36.878  40.961  10.504
31738W        W97218  10.157  32.019  10.414
31739W        W97219  40.010  42.952   2.877
31740W        W97220   5.910  26.637   3.203
31741W        W97221   5.242  21.102   4.771
31742W        W97222  10.360  42.981   4.122
31743W        W97223  32.056  30.512   1.232
31744W        W97224   8.807  34.518  13.979
31745W        W97225  33.622  40.345  10.489
31746W        W97226  31.406  36.368   2.355
31747W        W97227  24.130  39.976  13.002
31748W        W97228  41.374  35.024   3.322
31749W        W97229  18.605   4.347  11.125
31750W        W97230  16.719  23.615  14.925
31751W        W97231  19.079  27.607   1.892
31752W        W97232   0.759  25.478  14.943
31753W        W97233  40.030  35.378  10.596
31754W        W97234   1.754   0.846  11.953
31755W        W97235  14.638  37.947   2.813
31756W        W97236  36.018  35.011   3.297
31757W        W97237  34.485  22.085  13.805
31758W        W97238   4.788  36.563  12.368
31759W        W97239  38.325  10.206  10.501
31760W        W97240  18.246  42.988  10.441
31761W        W97241  36.429  22.206   1.427
31762W        W97242  26.124  24.585   1.892
31763W        W97243   8.177   6.286   4.642
31764W        W97244  34.084  19.567   1.739
31765W        W97245  22.517  36.027  13.519
31766W        W97246  17.723  41.908  11.503
31767W        W97247  36.046  25.100   0.444
31768W        W97248  42.998   5.749  12.403
31769W        W97249  33.575  10.663  10.052
31770W        W97250  19.146  35.936   3.852
31771W        W97251  21.654  33.045   0.418
31772W        W97252  10.242  35.534   0.285
31773W        W97253  40.013  29.000   2.739
31774W        W97254  43.771   3.407   3.739
31775W        W97255  21.640   2.953   4.318
31776W        W97256  37.508   9.822  11.385
31777W        W97257  33.483  28.929   2.731
31778W        W97258  39.817  22.732   4.617
31779W        W97259  25.634  14.132   2.758
31780W        W97260  34.867  40.445   1.279
31781W        W97261  31.093  29.536   0.263
31782W        W97262   6.302   0.916  10.627
31783W        W97263   2.420  25.592   1.393
31784W        W97264  29.646  40.499   0.344
31785W        W97265  33.898  17.744   3.681
31786W        W97266  20.693  36.443   1.914
31787W        W97267   2.414  36.946   1.862
31788W        W97268  14.182   4.366  14.349
31789W        W97269  26.585  23.725  10.558
31790W        W97270  42.989  35.513   2.245
31791W        W97271  42.991  40.006   1.871
31792W        W97272  32.614  14.695  11.423
31793W        W97273   6.301  38.874   0.288
31794W        W97274  43.971   2.345   3.366
31795W        W97275   5.388  11.326  14.805
31796W        W97276  38.460  44.342  11.457
31797W        W97277   1.302  14.620  13.399
31798W        W97278  27.490  10.324  11.422
31799W        W97279  11.316  27.453   3.857
31800W        W97280  22.143  32.946  13.362
31801W        W97281  24.683   0.252  11.861
31802W        W97282  40.543  35.057   5.207
31803W        W97283  41.004  34.466  12.024
31804W        W97284  43.861  27.163   0.263
31805W        W97285   4.390  30.604  14.440
31806W        W97286  27.450  35.453  13.951
31807W        W97287  14.591   2.863   4.234
31808W        W97288  17.245  23.609  13.333
31809W        W97289  12.160  14.165  12.476
31810W        W97290  28.452  17.236   3.311
31811W        W97291  42.286  12.277  14.761
31812W        W97292  16.074  24.181  14.329
31813W        W97293  32.054  39.855  12.960
31814W        W97294   8.273  44.791  10.481
31815W        W97295  20.555  29.596   4.229
31816W        W97296   6.824   6.693  12.909
31817W        W97297  44.423  15.131   4.231
31818W        W97298  43.392  30.121   0.899
31819W        W97299   6.300  42.509   1.320
31820W        W97300   2.408  33.070   0.846
31821W        W97301   1.402   5.739  13.534
31822W        W97302  16.757   2.815  14.860
31823W        W97303  28.638   7.330   4.185
31824W        W97304  44.803  24.219   4.270
31825W        W97305  20.067  36.084  10.981
31826W        W97306  41.390  36.575  13.050
31827W        W97307  38.837  11.827   3.271
31828W        W97308   8.865  42.995  14.385
31829W        W97309  35.535  40.492  13.528
31830W        W97310   0.959  26.603  14.774
31831W        W97311   1.424  33.459  12.878
31832W        W97312   6.783  19.707   4.305
31833W        W97313  17.266  28.937   3.208
31834W        W97314   5.705  14.295  13.381
31835W        W97315  14.780  11.181  10.448
31836W        W97316  35.547   2.250  12.017
31837W        W97317  19.742  32.915   1.723
31838W        W97318   4.834   1.767   1.321
31839W        W97319  42.412   7.249   2.811
31840W        W97320  42.966  27.513  12.890
31841W        W97321  18.626   5.760   3.824
31842W        W97322  13.337  36.570   0.254
31843W        W97323   8.768  28.050   3.262
31844W        W97324  16.307  33.931   4.194
31845W        W97325  31.024  41.039  11.884
31846W        W97326  39.473  43.405   0.312
31847W        W97327   4.426  30.115   1.394
31848W        W97328  22.515   5.318  14.380
31849W        W97329  33.120  44.878  11.988
31850W        W97330   6.802  32.901  13.865
31851W        W97331  25.714   3.383   1.877
31852W        W97332   3.902  34.595  14.424
31853W        W97333  37.839  19.224   3.857
31854W        W97334  24.596   4.932   0.892
31855W        W97335  41.534  17.683   2.825
31856W        W97336  20.082  31.569   3.359
31857W        W97337  26.486  32.608   4.635
31858W        W97338  39.556  28.126   2.814
31859W        W97339  10.194  22.013  12.919
31860W        W97340  16.710  29.439   0.821
31861W        W97341  29.112  14.166  12.866
31862W        W97342   0.433  44.442  14.365
31863W        W97343  17.668  22.624   1.340
31864W        W97344  41.518   6.783  12.069
31865W        W97345   1.398  16.677  14.478
31866W        W97346  25.135   4.816  13.372
31867W        W97347  41.340  18.686  14.807
31868W        W97348  16.663  42.838   2.719
31869W        W97349  21.191  31.988   5.304
31870W        W97350  24.095  32.622   0.320
31871W        W97351  20.751  38.866   1.247
31872W        W97352  40.934  18.691  14.287
31873W        W97353  24.017  25.649   4.720
31874W        W97354  19.274  18.258   2.315
31875W        W97355  12.779  28.032   4.753
31876W        W97356  34.094  16.166  11.905
31877W        W97357  15.669   1.773   4.767
31878W        W97358  31.561  38.074  14.020
31879W        W97359  41.868  29.594  13.044
31880W        W97360  24.196  31.060  11.060
31881W        W97361  13.654  40.021   2.808
31882W        W97362  11.793  29.492  12.040
31883W        W97363  22.668  18.754   3.857
31884W        W97364  27.447  16.662   2.310
31885W        W97365  15.735  39.555  13.984
31886W        W97366  28.174  44.390  10.423
31887W        W97367   2.936  29.649   2.178
31888W        W97368  29.458  27.464   0.361
31889W        W97369  11.342  16.677   3.754
31890W        W97370  43.473   8.161   2.841
31891W        W97371  39.026  26.592   2.845
31892W        W97372  23.167   2.259  12.031
31893W        W97373  18.199   6.860  12.527
31894W        W97374  30.023  36.570   3.698
31895W        W97375  42.513   9.688   1.725
31896W        W97376   9.194  43.901   1.342
31897W        W97377  33.881  32.042  13.360
31898W        W97378  33.528  20.270  11.607
31899W        W97379  24.996  29.576  10.605
31900W        W97380  32.062  12.695   2.225
31901W        W97381  10.690   9.259   3.321
31902W        W97382  43.010  36.406   0.367
31903W        W97383  44.914  25.095   4.774
31904W        W97384  18.274   7.696  13.007
31905W        W97385  40.405   1.927   0.808
31906W        W97386  30.984   0.941   2.310
31907W        W97387   8.398  24.035   4.707
31908W        W97388  10.340  16.276   1.742
31909W        W97389   9.324  33.982  11.923
31910W        W97390  10.256  32.512  13.399
31911W        W97391   4.898  18.111  14.773
31912W        W97392  33.525   4.899  14.414
31913W        W97393  18.197  22.700   4.638
31914W        W97394   1.870  18.170   0.900
31915W        W97395  19.678  18.228   0.259
31916W        W97396  17.642  12.159  10.552
31917W        W97397  37.954  22.691  11.444
31918W        W97398  12.172   7.691   2.712
31919W        W97399  39.379  26.481   2.325
31920W        W97400  17.658  23.550   3.860
31921W        W97401  32.014  23.041  13.010
31922W        W97402   9.384   2.408   3.307
31923W        W97403  10.209  26.584  14.885
31924W        W97404  26.973  12.157  10.639
31925W        W97405   7.207  16.698   0.783
31926W        W97406  16.196  14.833   1.425
31927W        W97407  38.487  35.585  11.459
31928W        W97408  23.630   2.373   4.335
31929W        W97409  16.786   6.793   3.162
31930W        W97410  21.248  43.361   1.853
31931W        W97411  23.732   9.686   1.787
31932W        W97412  19.576  15.140  12.531
31933W        W97413  24.123   6.798  10.415
31934W        W97414   6.709  34.954   0.370
31935W        W97415  40.313  22.047  12.522
31936W        W97416  16.073  39.316   3.646
31937W        W97417  13.331  43.391   0.409
31938W        W97418   5.810  30.057  12.084
31939W        W97419   1.294  37.961  10.577
31940W        W97420  34.391   2.435   4.646
31941W        W97421  18.117  36.460   2.213
31942W        W97422  39.032  18.572   1.755
31943W        W97423   7.360   6.902   2.179
31944W        W97424  23.005   1.934   0.387
31945W        W97425  31.631   1.747   1.379
31946W        W97426  15.736  37.981   3.632
31947W        W97427  30.121  27.458  13.835
31948W        W97428   0.468  24.556  14.847
31949W        W97429   9.180  12.809   0.300
31950W        W97430  38.948  16.143   1.265
31951W        W97431   1.899   3.887  12.010
31952W        W97432   9.680  15.322  13.914
31953W        W97433  18.573  19.159  13.987
31954W        W97434   4.261  12.315   3.313
31955W        W97435   4.797  30.449  10.518
31956W        W97436  11.712  41.836   4.643
31957W        W97437  41.888  22.618   1.753
31958W        W97438  44.836  31.405  12.579
31959W        W97439  40.450   4.393  14.315
31960W        W97440  16.244   2.742   2.858
31961W        W97441  44.279   6.247  11.118
31962W        W97442  39.436  37.375  10.917
31963W        W97443  38.820  13.718   3.276
31964W        W97444  23.221   3.840   0.786
31965W        W97445  30.498  11.791   3.676
31966W        W97446  15.809  40.485  13.329
31967W        W97447  43.496  31.648   4.168
31968W        W97448  13.728  44.979   1.768
31969W        W97449   4.366  28.166  10.493
31970W        W97450  11.697  35.902   3.329
31971W        W97451  14.142   9.798   4.610
31972W        W97452  20.737   6.330  12.939
31973W        W97453  43.382   7.263  13.889
31974W        W97454  17.642  32.572  11.912
31975W        W97455   4.278  32.455  13.522
31976W        W97456  43.314  33.065   3.771
31977W        W97457  35.561  34.431  12.434
31978W        W97458  41.527   5.716   2.803
31979W        W97459  27.080  33.563   4.299
31980W        W97460  21.726  35.370   3.671
31981W        W97461   2.437  38.894   0.829
31982W        W97462   3.323  22.613  13.506
31983W        W97463  39.500   5.807   5.782
31984W        W97464   6.265  18.702   5.260
31985W        W97465  18.668  19.752   1.715
31986W        W97466  10.343  17.802   5.123
31987W        W97467  14.730  19.703  12.549
31988W        W97468  22.688   1.287  13.529
31989W        W97469  18.112  17.559  12.096
31990W        W97470  20.175   7.754  13.833
31991W        W97471  28.640  15.682   1.922
31992W        W97472  29.623  40.002   0.742
31993W        W97473  33.970  17.137  14.925
31994W        W97474  10.219  17.584  11.998
31995W        W97475  31.477   9.264   2.872
31996W        W97476  36.907   4.848  10.407
31997W        W97477   6.413  26.051  11.039
31998W        W97478  36.032  29.483  10.515
31999W        W97479  14.285  18.229   1.355
32000W        W97480   8.278  27.141  12.861
32001W        W97481  44.301  38.994  13.405
32002W        W97482  19.535  15.320   2.842
32003W        W97483  25.120  20.568   3.188
32004W        W97484  34.506  40.018  12.095
32005W        W97485  30.443   8.188   2.853
32006W        W97486   1.417  10.189   4.292
32007W        W97487  15.807  35.367  14.390
32008W        W97488  31.639  27.610  13.883
32009W        W97489  40.429  37.358   3.194
32010W        W97490  10.155  33.078  13.049
32011W        W97491   5.353  24.573  10.548
32012W        W97492  40.340  37.350   3.629
32013W        W97493  23.123  15.706   3.287
32014W        W97494  31.528  39.999   3.635
32015W        W97495  14.759   4.268  12.911
32016W        W97496   1.463  41.820  13.307
32017W        W97497  25.643  12.170  12.503
32018W        W97498   7.254  26.134  13.877
32019W        W97499  20.076  38.847  14.915
32020W        W97500  27.463  42.345   4.289
32021W        W97501  16.257  13.756   3.221
32022W        W97502  38.395  20.714  11.567
32023W        W97503   7.668  25.971  12.831
32024W        W97504  31.594   4.350  12.421
32025W        W97505  44.926  23.733   1.227
32026W        W97506  15.172   1.324   0.353
32027W        W97507   4.229  10.700   2.715
32028W        W97508  13.760  29.595   3.800
32029W        W97509  29.053  34.611  13.839
32030W        W97510  18.693  42.339   2.219
32031W        W97511  26.060   0.969  14.892
32032W        W97512  23.006  18.066  13.475
32033W        W97513  30.599  35.596  13.043
32034W        W97514  18.205  26.087   2.394
32035W        W97515  15.126   0.774   4.630
32036W        W97516   4.859  18.707   3.756
32037W        W97517   8.750  42.933   3.314
32038W        W97518  31.987  42.820  13.414
32039W        W97519   4.391  15.627   2.891
32040W        W97520  36.867  23.065  12.350
32041W        W97521  28.577  10.778   2.740
32042W        W97522  14.249  23.091  11.086
32043W        W97523  36.558  31.104  14.514
32044W        W97524  27.092   9.771  13.530
32045W        W97525  16.130  32.071  11.027
32046W        W97526  26.469   5.896   3.805
32047W        W97527  30.945  41.811   0.257
32048W        W97528  33.451   8.200   4.699
32049W        W97529   4.747  21.738  11.089
32050W        W97530   8.322   5.232  14.925
32051W        W97531   5.214  43.423  13.852
32052W        W97532  36.990  35.572  14.458
32053W        W97533  29.451  27.570   1.442
32054W        W97534  25.165   2.909   0.812
32055W        W97535  21.050  33.986   1.260
32056W        W97536  39.508  32.597   0.742
32057W        W97537  44.981   3.367   0.753
32058W        W97538   0.885  37.464  14.314
32059W        W97539  38.409  36.024   4.322
32060W        W97540  44.798  27.654   1.920
32061W        W97541  12.707   7.179  11.896
32062W        W97542   5.278  13.772  11.431
32063W        W97543  14.315  21.259  13.334
32064W        W97544  35.078  36.499  10.598
32065W        W97545  28.040  16.661   2.723
32066W        W97546  24.067   1.793   4.171
32067W        W97547  10.727   2.900  11.582
32068W        W97548  30.433   5.228   1.349
32069W        W97549  23.033  26.567  12.417
32070W        W97550  43.313  34.554  10.578
32071W        W97551  37.919   1.931   1.249
32072W        W97552  16.571  42.443   4.690
32073W        W97553  29.582   5.707   4.133
32074W        W97554  13.161  10.231  13.908
32075W        W97555  34.925  33.016   0.783
32076W        W97556   2.471  39.393   3.632
32077W        W97557  31.512  28.647  12.981
32078W        W97558  36.498   8.801  11.384
32079W        W97559  29.096  10.282  10.408
32080W        W97560  22.627   6.250   1.793
32081W        W97561  26.107  25.053   0.455
32082W        W97562  31.130   9.868   2.787
32083W        W97563  23.707  16.157   3.641
32084W        W97564  16.213  33.081  10.581
32085W        W97565   9.197  39.400   3.234
32086W        W97566   4.440  22.565  12.950
32087W        W97567  32.582  27.561   0.462
32088W        W97568  25.149  36.461  14.915
32089W        W97569  13.166  16.592   0.901
32090W        W97570  30.445  44.997  11.117
32091W        W97571  40.486  43.332   4.315
32092W        W97572  32.084  44.320   4.663
32093W        W97573  29.579  28.184   4.771
32094W        W97574   7.212   0.770  10.550
32095W        W97575   0.972   6.345   4.179
32096W        W97576   6.244  23.022   4.661
32097W        W97577  13.263  34.051  13.941
32098W        W97578  21.017  18.646   1.437
32099W        W97579  19.263  35.015   3.191
32100W        W97580  18.067  30.153  10.994
32101W        W97581  18.251  20.605   2.780
32102W        W97582  19.274  41.471   3.338
32103W        W97583  20.139  44.361   1.261
32104W        W97584  17.643  38.415   0.912
32105W        W97585  18.212  18.560   1.855
32106W        W97586  38.920  20.559  10.451
32107W        W97587  12.194  20.667  14.487
32108W        W97588   7.861  13.131  10.960
32109W        W97589  10.871  33.957  10.940
32110W        W97590   3.931  10.292   4.631
32111W        W97591   7.304  11.190   4.680
32112W        W97592  39.481  21.214   1.868
32113W        W97593   2.857  32.434   0.737
32114W        W97594  42.431  32.601   4.301
32115W        W97595  10.374  22.126   4.747
32116W        W97596  40.393  43.309   0.932
32117W        W97597  35.961  10.360  14.357
32118W        W97598  43.818   7.347  12.363
32119W        W97599  37.079  44.900   3.293
32120W        W97600  41.803   6.892   3.692
32121W        W97601  11.299  26.517  10.914
32122W        W97602  11.155   2.421   2.416
32123W        W97603  40.548  20.242  13.031
32124W        W97604  24.488   0.983  12.031
32125W        W97605  26.099  41.351  11.500
32126W        W97606  23.007   8.164   1.446
32127W        W97607  12.657  14.133   0.243
32128W        W97608   8.212  23.234  11.926
32129W        W97609  34.039  21.555  13.827
32130W        W97610   1.323  25.181   2.407
32131W        W97611  16.175  32.017  11.602
32132W        W97612  17.116  20.639  10.137
32133W        W97613  10.788  15.141   3.822
32134W        W97614  37.861   4.845  10.608
32135W        W97615  24.062  22.505   3.687
32136W        W97616  25.644  36.097   3.787
32137W        W97617  25.581  38.892  14.375
32138W        W97618   5.760  31.644   0.786
32139W        W97619  28.465   4.282   4.618
32140W        W97620  35.968  28.116  10.450
32141W        W97621  41.853  13.321   1.419
32142W        W97622  12.125  43.280   1.295
32143W        W97623   8.679   9.377   3.781
32144W        W97624  27.482  17.243  11.880
32145W        W97625   1.453  14.326  13.387
32146W        W97626  20.111  11.187  10.957
32147W        W97627  33.502  35.939   3.653
32148W        W97628  18.546   6.777  11.434
32149W        W97629  32.127  11.214   9.961
32150W        W97630  44.323  29.175   5.144
32151W        W97631   8.790  14.338   3.234
32152W        W97632  34.412  23.123   4.725
32153W        W97633  35.916  27.023   1.414
32154W        W97634  14.232  24.122   2.204
32155W        W97635  30.975  24.628  10.476
32156W        W97636  38.060   4.810   0.453
32157W        W97637  28.042   4.700   1.451
32158W        W97638  17.672  43.889   0.460
32159W        W97639  37.057  44.935   1.428
32160W        W97640  43.327  13.146  11.488
32161W        W97641  32.578  24.116   3.809
32162W        W97642  39.887  25.708   0.913
32163W        W97643  10.712   7.182   3.751
32164W        W97644  37.439   0.331   1.386
32165W        W97645  18.548  12.635   0.968
32166W        W97646  42.884  14.619  14.915
32167W        W97647  15.248  34.052  12.907
32168W        W97648  40.980  42.828  10.643
32169W        W97649  31.100  21.150  10.462
32170W        W97650  36.069  36.517  12.411
32171W        W97651   7.250  18.617   4.815
32172W        W97652  38.524  42.860  10.446
32173W        W97653  21.235  44.820   0.318
32174W        W97654  41.832  40.886  11.888
32175W        W97655   0.295  26.975   4.692
32176W        W97656  16.697  24.102   4.626
32177W        W97657  22.666  31.641   2.350
32178W        W97658  24.094  17.304   2.763
32179W        W97659   8.881  15.677  14.932
32180W        W97660  16.603  11.688   3.679
32181W        W97661  13.117  17.079   3.794
32182W        W97662  15.739  18.622   2.713
32183W        W97663  15.267  19.582   4.711
32184W        W97664  26.517   0.756   0.811
32185W        W97665  21.711  20.072  13.499
32186W        W97666  13.346   8.805   1.223
32187W        W97667  24.071  35.359   3.792
32188W        W97668  10.190  14.327   4.666
32189W        W97669  10.645  33.433   1.764
32190W        W97670  40.845  15.799   4.651
32191W        W97671  31.025  10.658   2.233
32192W        W97672  25.202  11.720  13.359
32193W        W97673  17.146   8.901   0.950
32194W        W97674  43.276  29.498  10.937
32195W        W97675  24.649  32.900   0.429
32196W        W97676  35.385  32.493  12.020
32197W        W97677  28.436  37.381   4.805
32198W        W97678  25.666  35.858   0.446
32199W        W97679  31.531   3.252   2.193
32200W        W97680   9.669  22.171  14.397
32201W        W97681  34.994  20.742  13.911
32202W        W97682  44.816  17.621  11.409
32203W        W97683  32.632   4.896   1.300
32204W        W97684  25.504  42.459   4.249
32205W        W97685   2.377  42.315  12.833
32206W        W97686  14.111  13.213   1.831
32207W        W97687  25.003  42.981   4.793
32208W        W97688   4.217   1.459   2.781
32209W        W97689  42.855  43.974  13.805
32210W        W97690  31.924   9.726  11.028
32211W        W97691  35.946  20.072   4.147
32212W        W97692  40.518  21.616   3.316
32213W        W97693  14.214  42.305   3.763
32214W        W97694  35.907  40.495   1.806
32215W        W97695  18.593  27.692  11.954
32216W        W97696  36.880  19.615  12.871
32217W        W97697   3.917   9.313   3.812
32218W        W97698  41.908  28.155  10.145
32219W        W97699  28.516   5.307   1.416
32220W        W97700  23.026  14.682  11.609
32221W        W97701  23.693  44.924   3.736
32222W        W97702  26.966  30.017   4.696
32223W        W97703  30.941  23.165  12.499
32224W        W97704  28.548  12.153   1.260
32225W        W97705   6.818  31.045  11.886
32226W        W97706  26.154   2.866   3.690
32227W        W97707  23.712  35.523  14.480
32228W        W97708   9.867  40.993   0.935
32229W        W97709  34.440  32.443  11.864
32230W        W97710   0.921  25.620   1.344
32231W        W97711  24.198  21.203  13.919
32232W        W97712  25.537  19.108  14.431
32233W        W97713  33.106  32.513   4.226
32234W        W97714  35.373  43.458  10.934
32235W        W97715   5.398   0.966  13.408
32236W        W97716  33.400  39.441   5.726
32237W        W97717   2.867  43.313   0.729
32238W        W97718  44.953   7.749  14.015
32239W        W97719   1.902  29.509   1.779
32240W        W97720  27.459  32.615   1.329
32241W        W97721   2.295  12.787   1.254
32242W        W97722   7.285  29.931  10.930
32243W        W97723   9.830  22.084  13.368
32244W        W97724  23.688  42.841  11.107
32245W        W97725  40.921   5.865  11.549
32246W        W97726  35.537  31.648  12.945
32247W        W97727  13.843  19.713  10.461
32248W        W97728  23.036  31.616  13.363
32249W        W97729   4.262   0.861   3.849
32250W        W97730   3.874  36.955  13.507
32251W        W97731  44.328   5.216  11.546
32252W        W97732   8.382   4.700   4.340
32253W        W97733  20.551   0.795  12.897
32254W        W97734  21.170  40.011   4.621
32255W        W97735  26.972  41.468   3.176
32256W        W97736  39.412  26.119   4.123
32257W        W97737   0.253  43.514  11.490
32258W        W97738   9.192  32.074  14.497
32259W        W97739   3.791  29.980   3.376
32260W        W97740   7.353  42.465   0.925
32261W        W97741  39.037   8.777   4.819
32262W        W97742  11.658  37.942  13.977
32263W        W97743  29.103  39.820  10.900
32264W        W97744  33.612  12.181  13.928
32265W        W97745  31.496  25.517   2.370
32266W        W97746  44.807  36.366  13.947
32267W        W97747  21.108  21.247   2.670
32268W        W97748  11.833  24.691   4.652
32269W        W97749  15.613  25.656   4.300
32270W        W97750  38.831   9.694   3.681
32271W        W97751   9.781  22.636  10.941
32272W        W97752  14.329   2.859   2.369
32273W        W97753  35.596  11.803   1.873
32274W        W97754  10.182   9.784   3.217
32275W        W97755  33.564  19.204   2.817
32276W        W97756  22.656  20.756  13.464
32277W        W97757  41.332  38.040  14.015
32278W        W97758  14.333   6.312  14.351
32279W        W97759  23.049  17.298   1.354
32280W        W97760  40.924  30.593   3.349
32281W        W97761  27.144   8.681   3.239
32282W        W97762  12.754  21.616  10.488
32283W        W97763   2.863  24.589  12.435
32284W        W97764  37.354   7.686   2.726
32285W        W97765   5.715  44.945   3.647
32286W        W97766  41.935  34.415  10.492
32287W        W97767  19.662   9.769  13.863
32288W        W97768  22.075   3.445  11.077
32289W        W97769  32.927  14.212   0.326
32290W        W97770  38.340  40.438   1.416
32291W        W97771  33.891  37.511  13.530
32292W        W97772  18.192  27.192  11.416
32293W        W97773  26.510  12.228  14.420
32294W        W97774  43.468   3.451   9.940
32295W        W97775  26.695  25.577  14.871
32296W        W97776  40.391   2.896  14.788
32297W        W97777  31.628  23.994   4.645
32298W        W97778  29.669  36.877  13.378
32299W        W97779  20.184  30.970  12.378
32300W        W97780  15.203   7.881  12.933
32301W        W97781  30.088   3.344  14.347
32302W        W97782  43.990  26.523   0.957
32303W        W97783  17.220  14.699  11.407
32304W        W97784  43.787  18.063  11.451
32305W        W97785  13.112  22.646  11.467
32306W        W97786  21.753  41.362  12.904
32307W        W97787  28.485   7.814   0.730
32308W        W97788   7.358  10.820  13.041
32309W        W97789  11.355  36.088   1.278
32310W        W97790  31.124  20.695  12.416
32311W        W97791  24.095  17.135   0.905
32312W        W97792  40.850  31.147   1.268
32313W        W97793   8.673  27.088   0.932
32314W        W97794  13.224  41.036  10.475
32315W        W97795  16.272   8.654   1.859
32316W        W97796  27.089  25.659   0.244
32317W        W97797  16.143  12.179  11.884
32318W        W97798  22.040  29.020   1.232
32319W        W97799  35.945  18.669  13.032
32320W        W97800  28.488  43.784   0.395
32321W        W97801  39.379  33.569  12.491
32322W        W97802  43.010  14.232  13.847
32323W        W97803  24.169  18.683  14.514
32324W        W97804  26.980  30.048  10.545
32325W        W97805   1.814  33.613  12.567
32326W        W97806  15.102  33.958   3.828
32327W        W97807  19.276   4.347   4.785
32328W        W97808  33.880  17.071  12.571
32329W        W97809  43.936  24.152  10.458
32330W        W97810  27.618  41.444  10.578
32331W        W97811  28.030   2.450   4.352
32332W        W97812  20.064   7.180   1.291
32333W        W97813  33.053  38.364   3.307
32334W        W97814  10.644   8.842  14.800
32335W        W97815  28.163   9.872   4.749
32336W        W97816   2.929   5.753  13.007
32337W        W97817  33.486  21.719   0.432
32338W        W97818   1.366   3.938  13.406
32339W        W97819  36.450   1.303   2.803
32340W        W97820  25.024  20.539   2.825
32341W        W97821  44.860  25.639   1.841
32342W        W97822  21.651  18.601  10.543
32343W        W97823   8.247  36.916  10.515
32344W        W97824  25.989   3.391  12.940
32345W        W97825   1.355  23.126  12.908
32346W        W97826  15.660  42.803  13.442
32347W        W97827  31.105  26.509  11.117
32348W        W97828  15.129  26.701   4.328
32349W        W97829  22.169  15.137   0.873
32350W        W97830  29.999  34.610   0.266
32351W        W97831  24.975  40.354  13.317
32352W        W97832  40.478   2.341  11.578
32353W        W97833  26.574  44.940  11.940
32354W        W97834  20.543  15.769  13.339
32355W        W97835  34.897  29.129  14.394
32356W        W97836  19.258   6.717  11.988
32357W        W97837  20.084  25.620  10.413
32358W        W97838  17.201  25.675  13.802
32359W        W97839  12.256  32.116   3.284
32360W        W97840  21.189  42.287   4.793
32361W        W97841   7.818   6.774   0.965
32362W        W97842  10.731  20.623  10.641
32363W        W97843  33.130  11.818  11.538
32364W        W97844  22.224  29.957   2.225
32365W        W97845  21.191  44.930  12.956
32366W        W97846  17.143  44.348   4.654
32367W        W97847  39.045  23.222  11.051
32368W        W97848  20.622   2.389  13.440
32369W        W97849  42.505  22.093   4.696
32370W        W97850  32.618  34.433   0.262
32371W        W97851  14.339  36.867   0.823
32372W        W97852  32.033  38.877  14.433
32373W        W97853  44.869  39.818   4.754
32374W        W97854  19.071  33.907   3.653
32375W        W97855  41.390  32.452  12.930
32376W        W97856  44.931   9.390   4.215
32377W        W97857  43.010   4.866  12.560
32378W        W97858  34.011  12.187   3.359
32379W        W97859   5.439  21.043  13.379
32380W        W97860  37.941  32.597  10.567
32381W        W97861  42.444  38.567   0.763
32382W        W97862  25.686  32.424   3.805
32383W        W97863  36.000  10.145   0.397
32384W        W97864  36.889  26.500  13.891
32385W        W97865   7.728  22.182   3.810
32386W        W97866  16.253  24.532   1.699
32387W        W97867   3.336  12.780  14.498
32388W        W97868  39.939  10.303  12.397
32389W        W97869  35.474   2.403  14.868
32390W        W97870  39.524   7.682   3.310
32391W        W97871  38.382  24.705  14.356
32392W        W97872  41.321   7.807   2.700
32393W        W97873   9.342   9.319   4.176
32394W        W97874  39.491  30.434  14.025
32395W        W97875  24.515   3.836   3.253
32396W        W97876   6.795  41.932   0.848
32397W        W97877   2.394  28.598   1.420
32398W        W97878  16.742  31.622  11.424
32399W        W97879  44.876  36.394   0.753
32400W        W97880  29.648  16.581   4.260
32401W        W97881   7.669  34.905  14.282
32402W        W97882  21.184   1.351   3.739
32403W        W97883  38.907  36.932   0.792
32404W        W97884  39.880  40.461  11.055
32405W        W97885  12.202  40.531  12.481
32406W        W97886  37.913   8.823   1.900
32407W        W97887  33.463  44.494  11.124
32408W        W97888  21.081  14.793  10.525
32409W        W97889  22.585  28.648   1.704
32410W        W97890  37.968   4.935   2.277
32411W        W97891  20.211  27.136  10.081
32412W        W97892  20.546   3.448  11.019
32413W        W97893  38.059  36.969   0.445
32414W        W97894   5.346  40.465   3.340
32415W        W97895   4.802   8.323   2.879
32416W        W97896   7.912   8.807  13.842
32417W        W97897  26.034  28.950   2.414
32418W        W97898  29.036  22.080   2.393
32419W        W97899  28.643  11.231  14.464
32420W        W97900  31.418  17.169  11.923
32421W        W97901   0.394   2.932  12.482
32422W        W97902  31.421  19.686  13.014
32423W        W97903  29.497  30.528  11.379
32424W        W97904  25.490  26.468  12.487
32425W        W97905  19.051  28.527   4.233
32426W        W97906   3.336  13.317  13.033
32427W        W97907  12.823  13.332  14.764
32428W        W97908  11.854  25.629  12.890
32429W        W97909  41.326  42.798  10.500
32430W        W97910   2.765  13.209  12.069
32431W        W97911  35.900  38.914  12.417
32432W        W97912  38.859   3.425  13.045
32433W        W97913  34.508   0.411   3.200
32434W        W97914  39.316   2.893   3.146
32435W        W97915   0.917  23.500   1.279
32436W        W97916  22.596   0.453   3.276
32437W        W97917  33.526  31.113  14.275
32438W        W97918  44.352  32.929   0.346
32439W        W97919  41.887  28.664  13.833
32440W        W97920  39.915   1.381   1.739
32441W        W97921  13.808  18.595  12.489
32442W        W97922  24.097   6.885  14.897
32443W        W97923  23.543  34.034  11.585
32444W        W97924   3.283  29.109  10.971
32445W        W97925  17.062  27.512   2.383
32446W        W97926  40.005   5.816  11.556
32447W        W97927   4.805   9.652   1.224
32448W        W97928  34.606  12.118   2.207
32449W        W97929  21.230  17.287  10.501
32450W        W97930  19.542  11.179   3.255
32451W        W97931  40.496  12.837   2.272
32452W        W97932   2.309  18.591  12.886
32453W        W97933  16.589   1.831   4.355
32454W        W97934  16.318  19.096   4.252
32455W        W97935  24.719   8.758   1.304
32456W        W97936   5.822  22.720  13.824
32457W        W97937  28.951  24.552  13.976
32458W        W97938  16.625  34.505   1.797
32459W        W97939  33.897   5.360  13.811
32460W        W97940  24.184  15.282   2.741
32461W        W97941  23.615  39.922  11.886
32462W        W97942   8.188  36.952  14.403
32463W        W97943   7.700  20.040  11.408
32464W        W97944  23.595  13.713  10.633
32465W        W97945   2.951  42.943  14.830
32466W        W97946   2.767   1.945   0.873
32467W        W97947   9.728  35.076   3.659
32468W        W97948  30.650  41.457   0.311
32469W        W97949  41.900  12.189   4.283
32470W        W97950  32.510  24.976   3.298
32471W        W97951  23.073  39.891   2.222
32472W        W97952   9.876   3.249  13.920
32473W        W97953  39.354  33.064  14.275
32474W        W97954  37.578  31.957  13.827
32475W        W97955   5.708   8.279   1.811
32476W        W97956  43.392  10.187   4.614
32477W        W97957  15.599  29.662  14.487
32478W        W97958  36.586  30.538  14.926
32479W        W97959  27.487  24.039   1.316
32480W        W97960  36.356  21.190   4.285
32481W        W97961  33.933  30.581   0.908
32482W        W97962  35.097  29.457  13.871
32483W        W97963  15.270   7.196  14.383
32484W        W97964   0.902   6.223  12.088
32485W        W97965   1.796   6.712  11.860
32486W        W97966  22.575   2.467   0.437
32487W        W97967   9.329  24.670   2.277
32488W        W97968  40.425   0.859   4.188
32489W        W97969  44.375  33.109  11.071
32490W        W97970   1.445   1.434  13.318
32491W        W97971  25.070  43.767  13.000
32492W        W97972  28.667  24.083   4.135
32493W        W97973   2.805   0.865  11.108
32494W        W97974  17.268  37.498   2.819
32495W        W97975  36.490  11.720  12.021
32496W        W97976  13.824  39.017   4.613
32497W        W97977  39.964  28.475   0.835
32498W        W97978  31.095   5.371   0.332
32499W        W97979  34.482   0.911   4.693
32500W        W97980   3.420  22.034   9.937
32501W        W97981  40.802  22.151   1.416
32502W        W97982  39.025   1.874  13.817
32503W        W97983  13.230  40.008  10.445
32504W        W97984  33.060  26.113  14.396
32505W        W97985  38.344  39.027   0.339
32506W        W97986   6.822   4.810  10.895
32507W        W97987  38.859   3.371   3.386
32508W        W97988  34.900   7.670   3.385
32509W        W97989  15.269   1.454   3.223
32510W        W97990   4.941   8.349   4.692
32511W        W97991  15.233  23.544   2.295
32512W        W97992   1.741  39.322   0.848
32513W        W97993  10.222   8.254   1.371
32514W        W97994  19.257  27.015  12.429
32515W        W97995  24.981  36.572   5.293
32516W        W97996   0.288  42.850  14.396
32517W        W97997  29.077   9.344  11.107
32518W        W97998  23.102  41.502  10.892
32519W        W97999   5.435  16.305  12.872
32520W        W98000  11.689   7.864  11.033
32521W        W98001  19.116  19.278   0.335
32522W        W98002  12.163  11.276   3.771
32523W        W98003  36.567  37.845  11.976
32524W        W98004  24.023   7.783   1.758
32525W        W98005  27.149  36.937   2.383
32526W        W98006  39.012   1.851   1.415
32527W        W98007   2.901  12.192  13.415
32528W        W98008  23.198  14.337  11.896
32529W        W98009  43.019   2.241  13.840
32530W        W98010   0.814  37.865  14.447
32531W        W98011  31.981   7.274   4.631
32532W        W98012  20.715   8.662   1.240
32533W        W98013  20.592  38.041   1.376
32534W        W98014  28.010  21.687   2.771
32535W        W98015  35.468  26.633  14.950
32536W        W98016  15.680  32.946  11.613
32537W        W98017  12.246  13.152  13.444
32538W        W98018  18.761  30.650  10.026
32539W        W98019  20.598  27.468   3.262
32540W        W98020  16.804  17.691  10.629
32541W        W98021  29.143  30.154   3.810
32542W        W98022  16.090  42.509   1.887
32543W        W98023   0.483  44.806   0.332
32544W        W98024  28.531  20.111   2.278
32545W        W98025  16.282  24.194   0.300
32546W        W98026   4.272  11.677   0.310
32547W        W98027   7.897  15.735  13.841
32548W        W98028   9.225   3.448   1.872
32549W        W98029  23.564  30.092   1.440
32550W        W98030   4.765   6.766  11.981
32551W        W98031  20.172  23.711   2.303
32552W        W98032  43.339  11.203   3.328
32553W        W98033  18.255  22.200   2.369
32554W        W98034  38.408  33.477  14.947
32555W        W98035   0.405  19.041  12.901
32556W        W98036  33.460  16.092  10.927
32557W        W98037   5.205  19.778  12.973
32558W        W98038  38.902  17.168  14.471
32559W        W98039  43.802   6.253   2.784
32560W        W98040  29.061  41.493  14.930
32561W        W98041  21.754  27.193  13.534
32562W        W98042  23.167   0.271   0.956
32563W        W98043  19.586  34.978   2.419
32564W        W98044   5.735   5.879   4.606
32565W        W98045   3.243  28.511   1.932
32566W        W98046  43.307  18.725   0.805
32567W        W98047   1.475  22.067  12.865
32568W        W98048  17.082   1.767   4.714
32569W        W98049  12.251  11.703  14.455
32570W        W98050  18.607  37.049  10.964
32571W        W98051  35.467  12.754   1.772
32572W        W98052  43.772  42.005  12.023
32573W        W98053  17.209  14.692   1.448
32574W        W98054  22.627   6.218  13.479
32575W        W98055   4.261  18.056  11.482
32576W        W98056  22.552  35.868   1.878
32577W        W98057  27.986  15.655   4.759
32578W        W98058  33.551  36.527   0.258
32579W        W98059  14.699  19.668  13.806
32580W        W98060  24.587  30.595   3.200
32581W        W98061   7.302  29.476  13.925
32582W        W98062  15.177  12.182  10.571
32583W        W98063  13.333  33.548   2.829
32584W        W98064   1.429  24.662  12.831
32585W        W98065  44.941  21.656  13.908
32586W        W98066  11.302  14.656   4.807
32587W        W98067  19.571  35.011   4.187
32588W        W98068  21.627  10.282  13.941
32589W        W98069  35.864  19.647   2.202
32590W        W98070  39.974   3.441  11.053
32591W        W98071  41.453  16.080  11.861
32592W        W98072  17.746  32.040   0.394
32593W        W98073  19.099  24.225   3.195
32594W        W98074   3.400  12.803   4.193
32595W        W98075  15.261  29.428  12.889
32596W        W98076  30.929   5.363   4.288
32597W        W98077  10.876  37.471   0.956
32598W        W98078  42.823  38.370   1.824
32599W        W98079  20.101  27.491   0.791
32600W        W98080  32.578  31.615   4.808
32601W        W98081  15.270  17.675  14.855
32602W        W98082  40.907  10.233  10.005
32603W        W98083  33.457  14.615  12.429
32604W        W98084   3.821  13.242  11.875
32605W        W98085   1.364  42.831  14.806
32606W        W98086  24.158   6.700   1.346
32607W        W98087  13.191  37.855   1.301
32608W        W98088  27.950  36.909   4.829
32609W        W98089  39.809  30.426  13.352
32610W        W98090   1.758   0.753  11.065
32611W        W98091  27.095  43.843  11.550
32612W        W98092  28.109   1.349   1.752
32613W        W98093  26.531  32.035  11.585
32614W        W98094  13.723  30.542  11.901
32615W        W98095  26.530   4.913  12.902
32616W        W98096  34.410  22.237   4.245
32617W        W98097   0.757  25.686  10.896
32618W        W98098  20.166   5.908   2.822
32619W        W98099  23.035  24.522   3.222
32620W        W98100  24.063  37.467  11.556
32621W        W98101   9.158  30.546  11.063
32622W        W98102   5.298  39.889   1.742
32623W        W98103   2.446  42.789   4.335
32624W        W98104  23.649  42.016  13.041
32625W        W98105  20.115  26.961   1.712
32626W        W98106  41.827  10.765  12.383
32627W        W98107  24.707  23.025   0.867
32628W        W98108  30.507  11.755  13.864
32629W        W98109  40.837   9.869   4.201
32630W        W98110  17.656  34.984   2.892
32631W        W98111  26.663   1.276   4.125
32632W        W98112   7.328  27.581  10.577
32633W        W98113   4.839  30.143  12.845
32634W        W98114   6.247  42.372   2.903
32635W        W98115   8.258  12.697   2.239
32636W        W98116   7.186  23.623   1.816
32637W        W98117  22.189   1.427  11.446
32638W        W98118  31.620  27.611  13.376
32639W        W98119  23.024  12.813   0.886
32640W        W98120  34.102  30.519  13.829
32641W        W98121  28.057  19.257  12.515
32642W        W98122   3.265  39.506  13.852
32643W        W98123  11.738  26.691   1.233
32644W        W98124  41.459   2.421   1.394
32645W        W98125   8.167   7.821  13.317
32646W        W98126  28.931  24.605   2.882
32647W        W98127  11.778  21.604   1.768
32648W        W98128   3.394  10.217   5.131
32649W        W98129  22.594  18.669   1.318
32650W        W98130   2.310  17.743   1.735
32651W        W98131  21.729  17.116   0.291
32652W        W98132  17.224   6.415  11.558
32653W        W98133   1.267   8.275  12.840
32654W        W98134   2.820   1.955   2.302
32655W        W98135  20.192  15.697  11.044
32656W        W98136  10.143   6.278  14.458
32657W        W98137  41.324   3.276   5.661
32658W        W98138  32.509   4.297   2.889
32659W        W98139  20.672  34.873   0.280
32660W        W98140  14.633  16.116   3.658
32661W        W98141   3.457  32.471   0.345
32662W        W98142  24.120  26.507   1.214
32663W        W98143  38.829   4.906   0.300
32664W        W98144   0.441  27.543   1.393
32665W        W98145  41.296  20.599   1.304
32666W        W98146  14.138  29.017  10.515
32667W        W98147  19.734  44.388   4.244
32668W        W98148  21.694  38.530   4.811
32669W        W98149  26.650  12.133   4.292
32670W        W98150   2.756  39.831   3.168
32671W        W98151  28.150  38.979  12.836
32672W        W98152  13.262  36.435  11.038
32673W        W98153  41.371  39.540   2.363
32674W        W98154  27.180  30.970  11.079
32675W        W98155  27.536   2.430  14.952
32676W        W98156   2.946  44.404  12.915
32677W        W98157  22.715  23.531   0.380
32678W        W98158  17.075   9.704  13.957
32679W        W98159  15.316  18.725  14.768
32680W        W98160   2.468  23.707   4.248
32681W        W98161  31.983  14.715   4.315
32682W        W98162  21.612  42.354  10.462
32683W        W98163  32.395  15.651  10.010
32684W        W98164   2.431  18.710  11.065
32685W        W98165  18.548   4.391  10.540
32686W        W98166  30.092  18.782   3.215
32687W        W98167  25.568   5.696  13.873
32688W        W98168  28.580  30.622  13.360
32689W        W98169  30.450  34.585   3.857
32690W        W98170  24.683  43.905   4.218
32691W        W98171  43.414   4.726   1.729
32692W        W98172  11.854  37.084  14.354
32693W        W98173  32.544  42.467  12.400
32694W        W98174  31.604  28.489   1.386
32695W        W98175  14.283  22.619   0.841
32696W        W98176   0.425  36.410  13.468
32697W        W98177   9.161  33.598   4.604
32698W        W98178  20.573   0.789  10.443
32699W        W98179   5.764  44.782  11.935
32700W        W98180  36.845   3.894  11.870
32701W        W98181  29.617   7.667   4.712
32702W        W98182  39.384  25.469  14.437
32703W        W98183  33.882  32.419  11.491
32704W        W98184  18.663  40.806  14.901
32705W        W98185  26.584  21.656   2.324
32706W        W98186  39.422  11.858  13.473
32707W        W98187  27.655  33.552   4.725
32708W        W98188  29.098   3.814   1.325
32709W        W98189  14.277  39.032  14.440
32710W        W98190  38.067  10.705  12.408
32711W        W98191  29.526  42.430   3.844
32712W        W98192  42.914  27.668  10.079
32713W        W98193   6.381  42.493  12.385
32714W        W98194  32.108  16.186  10.519
32715W        W98195   9.233  44.353   2.378
32716W        W98196  21.692   9.329   1.284
32717W        W98197  21.646  28.062  14.405
32718W        W98198  42.979  16.206   4.114
32719W        W98199  21.676  33.131  14.288
32720W        W98200  30.611   1.975  14.979
32721W        W98201  18.617  30.943  12.366
32722W        W98202  38.502  26.539   0.763
32723W        W98203   2.806  18.545  10.517
32724W        W98204  41.926  35.108  12.056
32725W        W98205  29.057  29.609  13.036
32726W        W98206  37.080   2.922   4.719
32727W        W98207  30.069  20.670   1.337
32728W        W98208  26.965  13.186   3.342
32729W        W98209  10.382  27.941  11.499
32730W        W98210   8.203  34.457  11.375
32731W        W98211  31.595  44.852   3.840
32732W        W98212  43.998  29.068  13.473
32733W        W98213  11.720   1.971  14.490
32734W        W98214  32.919  30.067   3.342
32735W        W98215  28.538  39.965   4.222
32736W        W98216  24.542  18.239   3.816
32737W        W98217  33.035  27.628   4.696
32738W        W98218   6.823  39.444   0.314
32739W        W98219   2.812  29.147   2.329
32740W        W98220  25.487   7.751  12.876
32741W        W98221  18.547  39.972  13.816
32742W        W98222   7.406  32.002   2.749
32743W        W98223  14.830   2.429  10.580
32744W        W98224  13.143  12.183  10.951
32745W        W98225   4.862   1.465   4.216
32746W        W98226  43.983  36.590  12.525
32747W        W98227   9.847  10.200  12.993
32748W        W98228   9.643  16.238  12.074
32749W        W98229  20.207  28.450   2.191
32750W        W98230   4.776  11.859  11.972
32751W        W98231  14.784  10.834  13.796
32752W        W98232  13.167  29.972  12.547
32753W        W98233  41.953  18.061   1.753
32754W        W98234  37.519  30.002   2.282
32755W        W98235   7.895   6.867  11.571
32756W        W98236  19.159  14.253  10.416
32757W        W98237  12.636  18.759   4.829
32758W        W98238  35.896   6.731  12.875
32759W        W98239  35.960   5.711  11.992
32760W        W98240   4.357  24.091  12.915
32761W        W98241   6.832  22.611   1.858
32762W        W98242  39.554  11.720  10.531
32763W        W98243   0.819  20.138   1.373
32764W        W98244  30.018  20.686  10.909
32765W        W98245  40.487  31.115  10.545
32766W        W98246  10.186  42.849  12.852
32767W        W98247  31.929  19.060  12.408
32768W        W98248   3.258   5.279   3.792
32769W        W98249  17.684  23.679  11.006
32770W        W98250  13.631  43.452  14.485
32771W        W98251  42.942   7.710   2.741
32772W        W98252  31.019  16.627  12.950
32773W        W98253   1.860  21.520   1.901
32774W        W98254  27.010   7.768   4.185
32775W        W98255   2.786  31.107   0.735
32776W        W98256   4.738  37.072  13.395
32777W        W98257   2.440   7.335  10.977
32778W        W98258  12.283  32.138  12.555
32779W        W98259  32.940  34.878   1.284
32780W        W98260  23.601  32.962  14.349
32781W        W98261  42.894  31.608  13.392
32782W        W98262  17.137  21.528  11.857
32783W        W98263  12.316  43.363  14.947
32784W        W98264  24.166  33.481   4.322
32785W        W98265  42.413  37.966   2.756
32786W        W98266  37.495  42.480   2.765
32787W        W98267  18.212   3.217   3.790
32788W        W98268  13.332  32.952   1.351
32789W        W98269   5.274  39.965   3.716
32790W        W98270  34.963   7.689  12.399
32791W        W98271  28.012   5.200  10.994
32792W        W98272  27.193   5.697   1.248
32793W        W98273  24.189   9.847   3.746
32794W        W98274  38.958  13.266   0.416
32795W        W98275  32.066  22.205   0.907
32796W        W98276  12.345  26.991   0.742
32797W        W98277  42.459  20.577  11.904
32798W        W98278  37.399   3.318   4.691
32799W        W98279  40.896  42.377   3.679
32800W        W98280   2.459  34.512   2.871
32801W        W98281  18.668  36.563   2.290
32802W        W98282  19.538   0.760  12.370
32803W        W98283  32.542  44.258   4.711
32804W        W98284  13.712  27.027  11.576
32805W        W98285  22.020   7.374  11.961
32806W        W98286  30.562  40.527   2.765
32807W        W98287  31.909  11.828  11.119
32808W        W98288  44.770  20.232   3.254
32809W        W98289   1.308   8.889  14.969
32810W        W98290  41.822  25.151  12.899
32811W        W98291  27.546  18.088  12.067
32812W        W98292  34.538  37.368   4.830
32813W        W98293  38.071  26.653  14.793
32814W        W98294   0.771  35.006  14.392
32815W        W98295  41.987  42.460   3.164
32816W        W98296  42.919  27.549  13.845
32817W        W98297  17.277   2.376   1.893
32818W        W98298  20.073  36.874  11.606
32819W        W98299  14.790  44.996  14.810
32820W        W98300  35.866  13.736  11.927
32821W        W98301   6.292  21.117  13.817
32822W        W98302   5.372  33.024   0.778
32823W        W98303  44.821   3.364  14.340
32824W        W98304  42.944  22.105   4.209
32825W        W98305  24.505  24.694   2.780
32826W        W98306  33.124  39.375   2.759
32827W        W98307   1.854  32.491   1.406
32828W        W98308  19.602   7.812  14.913
32829W        W98309  42.964  42.811   3.276
32830W        W98310  27.124  29.462  11.496
32831W        W98311  20.597   1.825   0.288
32832W        W98312  35.579  39.972  11.959
32833W        W98313   2.245   6.839  12.348
32834W        W98314  25.202  29.085  11.980
32835W        W98315  19.206  23.518  10.567
32836W        W98316  41.306  36.972   4.602
32837W        W98317   0.322   0.343   0.396
32838W        W98318  30.426  39.414   1.837
32839W        W98319  37.029  37.941  12.056
32840W        W98320  13.798  23.091  10.950
32841W        W98321   0.390  14.779   1.384
32842W        W98322   5.380  38.967   0.261
32843W        W98323  31.965  40.434   0.775
32844W        W98324  23.724  14.158   3.383
32845W        W98325   8.789  16.780   0.745
32846W        W98326  35.858  32.471   3.832
32847W        W98327  23.707  11.724   4.685
32848W        W98328  11.693  34.893  10.012
32849W        W98329  42.430   5.287  12.078
32850W        W98330   6.706  35.937   4.623
32851W        W98331  42.797  38.423   2.790
32852W        W98332  15.805  15.802   3.705
32853W        W98333  25.559  22.200   0.876
32854W        W98334   7.795  42.983  12.523
32855W        W98335  42.869  30.554  14.301
32856W        W98336   5.286   3.840  10.505
32857W        W98337  21.688  34.020  11.034
32858W        W98338  10.354  31.502   0.369
32859W        W98339  22.159  39.378   2.855
32860W        W98340   7.272  23.514   1.311
32861W        W98341  40.821  29.596   0.957
32862W        W98342  32.487  25.053   1.800
32863W        W98343  16.255   2.962  13.821
32864W        W98344  14.235  29.097   1.703
32865W        W98345  38.953  40.881  13.493
32866W        W98346  35.012  10.239  12.492
32867W        W98347  22.195   7.274  14.505
32868W        W98348  44.803  36.529  14.358
32869W        W98349  25.220   3.722  12.044
32870W        W98350  23.182  11.304   0.258
32871W        W98351  23.110   3.448   0.428
32872W        W98352  19.048  34.091  11.488
32873W        W98353  25.537  42.515  10.426
32874W        W98354  22.628  31.492  12.064
32875W        W98355  30.113  26.631   4.698
32876W        W98356   2.392  22.142  12.902
32877W        W98357  35.896  17.142  14.985
32878W        W98358  10.238  24.479   5.148
32879W        W98359  10.718  13.291   1.728
32880W        W98360  39.040  13.750   0.833
32881W        W98361  17.192  10.796   2.790
32882W        W98362  18.248  12.756   2.348
32883W        W98363  13.139   1.796  10.992
32884W        W98364  44.473  21.088  10.502
32885W        W98365   2.833  32.107   9.447
32886W        W98366  33.574  42.430   9.977
32887W        W98367  13.235  17.789  14.982
32888W        W98368  22.720  37.344  14.460
32889W        W98369  44.972  44.839   4.655
32890W        W98370   5.920  18.114  14.977
32891W        W98371  18.050  23.625   0.319
32892W        W98372  38.429  31.110   3.731
32893W        W98373  30.010  22.164  12.933
32894W        W98374  37.085  23.233  14.948
32895W        W98375  35.429   9.267  13.318
32896W        W98376  44.435  26.006  13.515
32897W        W98377  41.319  36.468   4.160
32898W        W98378  37.855  33.424  10.941
32899W        W98379  23.182  12.673  13.987
32900W        W98380  11.841  18.113   4.269
32901W        W98381  28.977  25.020  14.907
32902W        W98382  36.006  13.670   2.848
32903W        W98383   9.230  10.150   3.354
32904W        W98384  15.235  38.006   3.692
32905W        W98385  28.981   5.905  13.371
32906W        W98386  42.322  11.731   4.721
32907W        W98387  25.119  27.475  14.386
32908W        W98388  34.533  39.350  10.574
32909W        W98389  25.689  15.282   3.686
32910W        W98390   3.787   3.379  11.588
32911W        W98391  12.627  27.983   1.437
32912W        W98392  26.084  27.624   2.194
32913W        W98393  34.927   0.774  10.945
32914W        W98394  33.920  28.673  12.983
32915W        W98395  40.969  16.176  10.637
32916W        W98396  37.412   5.363   0.840
32917W        W98397   7.222  42.905   1.286
32918W        W98398  37.555  34.028   1.801
32919W        W98399  38.522  35.557   1.340
32920W        W98400  33.426  28.535   1.281
32921W        W98401  34.036  14.603  11.612
32922W        W98402  38.911  17.643   4.641
32923W        W98403  36.400  36.379  11.961
32924W        W98404  20.166  25.529  12.442
32925W        W98405  16.127  17.593   1.437
32926W        W98406  14.337  16.230  14.851
32927W        W98407  18.703  13.788   2.223
32928W        W98408  36.994  20.071  11.927
32929W        W98409  22.153  12.710  14.007
32930W        W98410  35.010   8.889   3.773
32931W        W98411  19.214  17.651   1.858
32932W        W98412  41.001  40.844   1.411
32933W        W98413  36.389   6.705  10.924
32934W        W98414  22.559  43.880  14.372
32935W        W98415   8.404  16.120  13.793
32936W        W98416  15.154  22.571  12.026
32937W        W98417   7.379  12.163   0.342
32938W        W98418   6.270   6.229  13.507
32939W        W98419  35.395  41.857  14.459
32940W        W98420  22.028  32.051  10.991
32941W        W98421  41.975   1.345  11.068
32942W        W98422  30.615   5.713   1.429
32943W        W98423  13.778  44.429   3.218
32944W        W98424  26.571   8.708  13.921
32945W        W98425  17.133  23.590  10.134
32946W        W98426  14.712  19.577   3.772
32947W        W98427  11.641  38.036   1.918
32948W        W98428  14.675  11.166  10.939
32949W        W98429  29.139  19.189   2.870
32950W        W98430  27.461   9.359  14.407
32951W        W98431   5.872  26.140   3.767
32952W        W98432  37.501  35.893  14.398
32953W        W98433  13.205  28.439   2.331
32954W        W98434  26.185  19.112   0.837
32955W        W98435  43.515  21.023   1.905
32956W        W98436   1.772  43.281  12.014
32957W        W98437   4.776   0.757  13.052
32958W        W98438  36.078   2.292   4.782
32959W        W98439   2.289  31.007   4.696
32960W        W98440  42.843  43.947   4.654
32961W        W98441  39.454  42.329  14.948
32962W        W98442  41.037  43.370   2.328
32963W        W98443  17.671   9.686  12.010
32964W        W98444   6.367  33.109   1.387
32965W        W98445  33.538  36.097  11.024
32966W        W98446  39.874  15.098  11.856
32967W        W98447  39.471  16.732  13.535
32968W        W98448  25.560  13.237   4.293
32969W        W98449  35.974  21.106   0.478
32970W        W98450  15.727  42.306  14.025
32971W        W98451   2.315  24.222  11.489
32972W        W98452  38.029  21.659   0.352
32973W        W98453  40.329  23.529   1.231
32974W        W98454  17.714  12.206   4.597
32975W        W98455  34.066  44.452  11.373
32976W        W98456  40.314  10.184  14.940
32977W        W98457  42.352  37.426   2.259
32978W        W98458  44.964  28.543   0.394
32979W        W98459  16.076  40.972   1.808
32980W        W98460   8.163   6.893   0.859
32981W        W98461  26.041   9.379   3.851
32982W        W98462  43.289  17.093  14.491
32983W        W98463  26.498  14.263  11.910
32984W        W98464  32.133  40.325   2.685
32985W        W98465  27.640   5.745  12.440
32986W        W98466  28.459  12.361   3.352
32987W        W98467  15.768   6.871   0.861
32988W        W98468  31.934  18.718   0.871
32989W        W98469  16.629  40.884  10.627
32990W        W98470  20.531  25.981   9.975
32991W        W98471  28.676  43.393  13.952
32992W        W98472  17.210  31.579   9.952
32993W        W98473  22.137  11.239  11.494
32994W        W98474  39.445  28.960   4.700
32995W        W98475  23.052  44.860  14.827
32996W        W98476  17.181  19.673   5.269
32997W        W98477  40.926  26.579  11.068
32998W        W98478  41.436  27.601   0.284
32999W        W98479   4.255  40.851   4.207
33000W        W98480  33.890  11.178   1.371
33001W        W98481  29.527  31.595   0.244
33002W        W98482   4.778  34.929  10.622
33003W        W98483  22.169  16.191  10.597
33004W        W98484  21.144  14.145   0.389
33005W        W98485  17.608  14.833   3.335
33006W        W98486  34.369  21.222  13.522
33007W        W98487  24.653  35.902   4.773
33008W        W98488   5.721  24.596   3.375
33009W        W98489  40.482  42.896  12.905
33010W        W98490  37.074   9.814  10.891
33011W        W98491  18.289  25.611   0.278
33012W        W98492  16.647  21.053  12.973
33013W        W98493  32.053  41.496  13.819
33014W        W98494  43.359  13.188  14.371
33015W        W98495  26.078  29.604   0.727
33016W        W98496  20.711  30.510   0.268
33017W        W98497  14.598  11.807   4.273
33018W        W98498  12.275  43.437   3.287
33019W        W98499  36.026  34.378  13.859
33020W        W98500   5.312  10.366  11.866
33021W        W98501  35.406  38.561  12.447
33022W        W98502  20.556  29.467  10.596
33023W        W98503  43.909  35.079   1.906
33024W        W98504  34.878   5.883   4.337
33025W        W98505  44.282   7.732  13.906
33026W        W98506  37.420  12.301   3.776
33027W        W98507   5.794  22.518   1.235
33028W        W98508  30.463  21.150   3.359
33029W        W98509  20.131  28.085  11.461
33030W        W98510  10.169   5.778   4.801
33031W        W98511  10.829  17.728  10.539
33032W        W98512  33.126  12.216   4.157
33033W        W98513   5.816   5.933  12.467
33034W        W98514   2.306  33.001   0.285
33035W        W98515  31.906  31.066   4.263
33036W        W98516  18.055  38.035  13.532
33037W        W98517   1.918  18.732   5.089
33038W        W98518  14.333   6.403   1.440
33039W        W98519  42.842   6.690   2.680
33040W        W98520   0.899  37.439   4.264
33041W        W98521  10.721  32.526   2.266
33042W        W98522  38.819  12.139  14.399
33043W        W98523  42.343  25.063  13.834
33044W        W98524  37.394  39.020  14.275
33045W        W98525  26.046  34.369  12.399
33046W        W98526   0.960  15.180   1.275
33047W        W98527  28.498  38.475   4.162
33048W        W98528  19.691   4.814  14.999
33049W        W98529  23.153   8.795   9.468
33050W        W98530  42.395   6.766  12.451
33051W        W98531  27.147  26.005   1.434
33052W        W98532  10.757  28.670  12.018
33053W        W98533  26.603   7.408  11.873
33054W        W98534  19.192  29.541   4.213
33055W        W98535  14.717   6.697  12.509
33056W        W98536  26.467   7.310   2.804
33057W        W98537  41.458   5.865  14.921
33058W        W98538  14.260  28.586  14.503
33059W        W98539   0.303   4.938  14.318
33060W        W98540  15.109   7.676   1.343
33061W        W98541  35.472  27.163   1.269
33062W        W98542  24.625  36.062   2.356
33063W        W98543  11.277  35.017   1.401
33064W        W98544  39.834  18.669   0.476
33065W        W98545   4.228  40.934  12.835
33066W        W98546  35.485  21.072   0.323
33067W        W98547  25.713  20.612   1.741
33068W        W98548   2.286   2.320  11.588
33069W        W98549  35.470  35.542  12.390
33070W        W98550  22.745  22.068  10.422
33071W        W98551   0.449  27.946  13.975
33072W        W98552  28.642  24.496  14.308
33073W        W98553   1.299  27.521  12.864
33074W        W98554   4.846  37.492   2.770
33075W        W98555   5.859   9.188   2.900
33076W        W98556  38.940  30.153   1.406
33077W        W98557  16.143  23.173  11.458
33078W        W98558  43.329   1.898  10.420
33079W        W98559   6.681  24.169   1.917
33080W        W98560   7.362  42.793   2.214
33081W        W98561  22.555  36.843  14.890
33082W        W98562   7.739  20.701   4.662
33083W        W98563  25.480  36.541  11.509
33084W        W98564  10.802   4.737   3.349
33085W        W98565   3.944  41.871   2.270
33086W        W98566   3.923  37.890   0.473
33087W        W98567  19.120  21.025  12.981
33088W        W98568  28.939  10.691   2.220
33089W        W98569  37.343  16.239   2.850
33090W        W98570  12.263  24.678   0.826
33091W        W98571  13.639  37.557  11.520
33092W        W98572  23.097  44.320   3.243
33093W        W98573  44.825  29.659   0.312
33094W        W98574  40.825  40.468   4.649
33095W        W98575  39.843  43.868   2.208
33096W        W98576  40.497  20.765  12.913
33097W        W98577  12.650   4.860  13.850
33098W        W98578  39.955   3.850   3.635
33099W        W98579  44.411   6.295   2.667
33100W        W98580  27.187  15.815   3.231
33101W        W98581  39.487  40.042  13.520
33102W        W98582  38.452  39.476   2.670
33103W        W98583  39.028  15.642   3.731
33104W        W98584  37.514   2.383  11.024
33105W        W98585  34.501  32.611   0.320
33106W        W98586   0.385   0.365   1.724
33107W        W98587  10.660  35.973  12.492
33108W        W98588  37.085  27.953   2.258
33109W        W98589  39.819  26.012   0.934
33110W        W98590  22.615  25.584  14.001
33111W        W98591  29.983   8.196   2.221
33112W        W98592  28.181  13.328   0.806
33113W        W98593  11.822  35.948  12.383
33114W        W98594  29.127  27.628  14.840
33115W        W98595   2.844  21.518  14.764
33116W        W98596   2.325  10.188   4.127
33117W        W98597  43.304  34.102   3.843
33118W        W98598  31.485  38.477   4.672
33119W        W98599   4.414   8.259  12.828
33120W        W98600  41.300   2.455   3.704
33121W        W98601  29.003  10.180   4.146
33122W        W98602   1.905  15.264  12.422
33123W        W98603  43.974  13.187  14.014
33124W        W98604  21.187  38.347  12.074
33125W        W98605   4.373  18.778  10.535
33126W        W98606   1.967   2.919  12.940
33127W        W98607  37.045  25.558  12.441
33128W        W98608  29.935  18.171   0.453
33129W        W98609  44.359  12.331  12.372
33130W        W98610   7.410   2.228  11.018
33131W        W98611  28.984   0.902   1.402
33132W        W98612  40.304  13.845   2.247
33133W        W98613  29.118  30.634   4.218
33134W        W98614  25.995  44.839  14.900
33135W        W98615  43.384  19.755   3.197
33136W        W98616  13.136   7.795   1.878
33137W        W98617   8.770   3.913  11.129
33138W        W98618  22.555  18.565  10.975
33139W        W98619  10.221  11.239   2.827
33140W        W98620  19.556  28.123   1.256
33141W        W98621  15.135  25.488  11.542
33142W        W98622  14.611  23.079   3.324
33143W        W98623  24.656  12.164   4.693
33144W        W98624  40.855  18.057   0.303
33145W        W98625   6.197  34.084   0.349
33146W        W98626  27.527  44.392  10.967
33147W        W98627   3.898  38.527  14.992
33148W        W98628   1.369   1.370  14.323
33149W        W98629  20.243  16.265   0.260
33150W        W98630   1.377  25.135   4.260
33151W        W98631  10.656   9.823  13.335
33152W        W98632  40.979   4.293   3.185
33153W        W98633  19.194  10.870  10.591
33154W        W98634  16.170  36.961  13.063
33155W        W98635  35.972  32.930   2.747
33156W        W98636  31.430  18.766  12.352
33157W        W98637  41.938  23.566  10.572
33158W        W98638  30.639  32.022   3.310
33159W        W98639  31.415   3.352  13.002
33160W        W98640   3.802   3.736  11.457
33161W        W98641   5.295  25.197   4.834
33162W        W98642  35.417  23.000   0.463
33163W        W98643  18.261  32.469   4.730
33164W        W98644   9.156  44.989  10.951
33165W        W98645  37.877  43.410   1.744
33166W        W98646  19.615  24.721   0.327
33167W        W98647  43.776   0.862   2.867
33168W        W98648  41.910  29.065  12.405
33169W        W98649  42.402   7.174   0.923
33170W        W98650  25.672  32.590   0.427
33171W        W98651  27.071   2.924  12.085
33172W        W98652  13.778  23.616  13.013
33173W        W98653  24.702   3.283  11.487
33174W        W98654   2.327  22.099  14.340
33175W        W98655  44.398  35.575  13.507
33176W        W98656   7.837   2.364   0.859
33177W        W98657  43.404  40.342  14.891
33178W        W98658  42.938  34.531  14.453
33179W        W98659  30.473  11.296  13.839
33180W        W98660  40.907  12.126  11.589
33181W        W98661  32.050  32.092  11.082
33182W        W98662   8.731   9.753   0.480
33183W        W98663  36.382  20.051   4.743
33184W        W98664   3.881  16.588   2.670
33185W        W98665   4.739  25.080   1.362
33186W        W98666  26.139   4.878  13.525
33187W        W98667  39.458  38.546   0.449
33188W        W98668   6.237  37.420  14.280
33189W        W98669  11.721   0.918   0.363
33190W        W98670  38.888  31.919   0.472
33191W        W98671  17.297   0.381   2.279
33192W        W98672  35.565  15.301   3.147
33193W        W98673  41.355  32.933  10.557
33194W        W98674  17.302  30.625  13.317
33195W        W98675  38.835  17.637   3.697
33196W        W98676  32.476  35.882   4.299
33197W        W98677  29.029  25.585   4.236
33198W        W98678  21.132   2.814   4.805
33199W        W98679  24.723  23.210  10.965
33200W        W98680  13.155   3.728   1.881
33201W        W98681  43.848  38.950  10.071
33202W        W98682  43.496  32.940   0.385
33203W        W98683  20.083  38.032   0.763
33204W        W98684  13.123  14.313   2.337
33205W        W98685  38.448  43.382  12.383
33206W        W98686  44.947  42.801   5.139
33207W        W98687  31.915  11.625   3.819
33208W        W98688  22.566  28.180  11.429
33209W        W98689   9.784  26.112  14.967
33210W        W98690  44.452  32.102   3.315
33211W        W98691  28.564   5.695   4.207
33212W        W98692  40.331   1.766  11.520
33213W        W98693  41.979   5.438  14.344
33214W        W98694  22.560  44.998   2.672
33215W        W98695  20.587  27.159  13.999
33216W        W98696  28.139  17.246  12.869
33217W        W98697   3.433   2.803  14.985
33218W        W98698  41.343  39.864  14.344
33219W        W98699  13.153  40.997   3.182
33220W        W98700  23.681  19.100   3.771
33221W        W98701  23.674   4.870  12.525
33222W        W98702   4.746  21.261  11.939
33223W        W98703  24.016  30.907   2.680
33224W        W98704  20.625  12.793   3.842
33225W        W98705  28.952  28.930  13.541
33226W        W98706  40.990   6.704  13.423
33227W        W98707  33.105  31.033  13.533
33228W        W98708  26.615  13.734   1.241
33229W        W98709   6.261  27.556  11.419
33230W        W98710  38.342  35.450  12.374
33231W        W98711   4.314  21.204  11.861
33232W        W98712  15.776   1.974   3.814
33233W        W98713  39.955  40.915   4.617
33234W        W98714  27.647   5.193   4.710
33235W        W98715  36.914   3.832  13.034
33236W        W98716  17.781  19.159   1.724
33237W        W98717  34.522  14.181  10.425
33238W        W98718  40.519   8.803   1.817
33239W        W98719  23.695  42.479   4.295
33240W        W98720  13.846  14.269  14.830
33241W        W98721   1.772  35.593   4.338
33242W        W98722  21.727  28.596   3.674
33243W        W98723   9.712  22.744   3.188
33244W        W98724  29.497  43.362   2.681
33245W        W98725  11.669  25.543   0.352
33246W        W98726   3.229  22.731   3.302
33247W        W98727  43.315   6.819  11.437
33248W        W98728  14.674  21.585   2.848
33249W        W98729  28.152  37.381   3.738
33250W        W98730  24.161  21.727  13.868
33251W        W98731  17.159  37.429  12.866
33252W        W98732   5.749  12.236  11.533
33253W        W98733  26.087  35.415   1.819
33254W        W98734  12.631  39.847  12.042
33255W        W98735  43.963  12.279   0.758
33256W        W98736  11.626  41.003   1.424
33257W        W98737  18.578  35.547   2.831
33258W        W98738  13.619   7.699   4.135
33259W        W98739  24.625  43.409   2.226
33260W        W98740   8.818  20.070   1.302
33261W        W98741  14.142   3.827   4.337
33262W        W98742  35.875  38.389   3.817
33263W        W98743  35.031  24.601  11.928
33264W        W98744  26.523  14.215   2.336
33265W        W98745  43.417   3.806   2.292
33266W        W98746   9.265  10.268   5.100
33267W        W98747  42.779  11.143  10.156
33268W        W98748   1.266  26.967  12.078
33269W        W98749  24.031  38.017  12.920
33270W        W98750  24.723  36.486   2.683
33271W        W98751   7.320  11.789   1.213
33272W        W98752  34.973  29.438   3.817
33273W        W98753   5.356  32.615   0.917
33274W        W98754  24.158  43.272  12.084
33275W        W98755  23.241  39.881  11.103
33276W        W98756  36.942  31.403  14.445
33277W        W98757  18.111   9.316   3.150
33278W        W98758  31.016   6.306  10.126
33279W        W98759  11.832  13.762   4.793
33280W        W98760  28.489  24.123   3.749
33281W        W98761  21.075   7.208   0.857
33282W        W98762   2.778  34.033  14.341
33283W        W98763  12.227   5.855  12.442
33284W        W98764  37.974  27.688  14.913
33285W        W98765  26.559  42.930  13.315
33286W        W98766  18.599  10.810  12.968
33287W        W98767  14.208  30.951   0.929
33288W        W98768  33.618   5.387   1.382
33289W        W98769   2.399  30.437   1.343
33290W        W98770  22.089  10.732  12.479
33291W        W98771  32.423  24.500  10.502
33292W        W98772  14.671  10.312  10.491
33293W        W98773  24.546  16.808   2.416
33294W        W98774  16.774   2.850   1.845
33295W        W98775  18.068  37.056  12.885
33296W        W98776  19.169  10.271   2.269
33297W        W98777  30.427   3.235  14.803
33298W        W98778  13.818  38.908  13.807
33299W        W98779  40.320   1.925   3.364
33300W        W98780  42.473  20.582   0.762
33301W        W98781  28.625  29.998   4.216
33302W        W98782  21.547  40.511   3.864
33303W        W98783   8.737  15.202  13.438
33304W        W98784  10.250   9.747  12.005
33305W        W98785  17.696   1.775   3.317
33306W        W98786  39.341  31.047   2.286
33307W        W98787   7.902  26.482  13.867
33308W        W98788  29.507  13.275  14.280
33309W        W98789  28.045  27.164  14.986
33310W        W98790   9.847  32.547   4.612
33311W        W98791   8.665   9.666   1.787
33312W        W98792  31.146  21.042  10.929
33313W        W98793  18.752  31.451   4.661
33314W        W98794   2.379  22.596  14.926
33315W        W98795  42.394   9.870  11.451
33316W        W98796  17.255  32.493  14.970
33317W        W98797  41.425  35.907  14.800
33318W        W98798   0.474   9.265   3.655
33319W        W98799  21.091  28.944  10.520
33320W        W98800  30.585  26.696  12.849
33321W        W98801  43.329  37.884  14.339
33322W        W98802  34.867  40.912   0.346
33323W        W98803  36.039  24.530   2.739
33324W        W98804  29.645  38.871  12.370
33325W        W98805   9.263  21.671   3.702
33326W        W98806  10.200  20.177  11.426
33327W        W98807   6.416  17.079  13.546
33328W        W98808  29.928   4.211  11.008
33329W        W98809  12.685  38.402  11.548
33330W        W98810  20.763  21.596   1.276
33331W        W98811  10.801  33.013  13.323
33332W        W98812   5.366  35.590   1.718
33333W        W98813  35.565  32.443  10.957
33334W        W98814  41.493  17.747   1.922
33335W        W98815  21.539  34.608  14.780
33336W        W98816  13.226  18.059   0.744
33337W        W98817   9.330  38.029   2.729
33338W        W98818  16.193  22.072  10.945
33339W        W98819  33.967  29.604   2.809
33340W        W98820  15.737  15.803  13.403
33341W        W98821   1.405  31.030   0.850
33342W        W98822   3.786  29.559   2.798
33343W        W98823  38.376   2.397  10.594
33344W        W98824  26.628  17.715   1.359
33345W        W98825  11.864  33.563  14.291
33346W        W98826  32.903  25.127   1.444
33347W        W98827  44.435  29.984   3.189
33348W        W98828   4.410  11.691  14.312
33349W        W98829  38.947  38.902   4.773
33350W        W98830  36.459  25.557  13.494
33351W        W98831  44.259  44.850  12.018
33352W        W98832   9.840  35.098   4.350
33353W        W98833  35.057   7.678  10.993
33354W        W98834   6.871  27.086   2.686
33355W        W98835  35.571  33.099   0.324
33356W        W98836  43.408  32.937  12.433
33357W        W98837  35.991  33.955  13.027
33358W        W98838   2.848  23.033   3.148
33359W        W98839  42.327  16.187  13.531
33360W        W98840   8.227  12.681  10.558
33361W        W98841  32.994   2.828  14.402
33362W        W98842  21.020   3.722   0.835
33363W        W98843  32.994  37.882   1.743
33364W        W98844  13.134  19.709   1.768
33365W        W98845  36.503  24.074   2.696
33366W        W98846  39.465   0.934   0.306
33367W        W98847   8.777  30.069  14.501
33368W        W98848  38.016  37.915  13.825
33369W        W98849  10.840  20.037  13.350
33370W        W98850  27.071  40.857  14.772
33371W        W98851  41.535  12.286  10.582
33372W        W98852  41.979   0.877  14.493
33373W        W98853  43.782  19.639   2.834
33374W        W98854  18.275   1.449  13.518
33375W        W98855  30.650  19.160  13.001
33376W        W98856  27.572  23.606   1.328
33377W        W98857  30.499   0.813  14.886
33378W        W98858   2.747   9.295  11.041
33379W        W98859  44.371  10.682   0.841
33380W        W98860  17.094  37.049   3.716
33381W        W98861   7.268  28.938  11.097
33382W        W98862   6.752   2.922   0.911
33383W        W98863   7.752  30.089   2.215
33384W        W98864  42.473  40.385  13.955
33385W        W98865  31.438   8.660   4.617
33386W        W98866  13.697  38.513  10.642
33387W        W98867  12.779  25.981   1.365
33388W        W98868  27.014   2.293   0.911
33389W        W98869  10.860   6.829  14.790
33390W        W98870  38.342  36.506  11.404
33391W        W98871  33.431  40.006   3.857
33392W        W98872  38.905  19.254  12.924
33393W        W98873  35.457   8.174   1.824
33394W        W98874  39.944   9.747  12.863
33395W        W98875  43.360   5.859   3.383
33396W        W98876  42.934  38.937   0.896
33397W        W98877  20.133  36.911  13.465
33398W        W98878   2.771  38.838   1.773
33399W        W98879  18.170   2.290  10.974
33400W        W98880   3.934  29.010  10.975
33401W        W98881  27.519  19.541   2.764
33402W        W98882  21.021  34.479   3.335
33403W        W98883   8.231  17.618   0.800
33404W        W98884  38.398  41.786   0.876
33405W        W98885   7.209  28.569  12.407
33406W        W98886  12.134   6.826   2.827
33407W        W98887  11.833  14.098   1.778
33408W        W98888  36.565  18.708   3.691
33409W        W98889  41.016  22.129  10.644
33410W        W98890  33.595   4.377  11.114
33411W        W98891  27.631   3.851   1.343
33412W        W98892  13.310  21.132   1.302
33413W        W98893  20.097  33.960   1.743
33414W        W98894  13.743  32.454  11.018
33415W        W98895  12.248  32.951  14.407
33416W        W98896  23.129  26.601   0.783
33417W        W98897  18.077  32.457  12.487
33418W        W98898  40.537  36.097   0.862
33419W        W98899   6.900   5.416   0.249
33420W        W98900  11.742  28.646   0.775
33421W        W98901  18.123  11.838   3.156
33422W        W98902   1.423   3.292   0.344
33423W        W98903  14.708  32.043   4.354
33424W        W98904  12.839  44.328  12.366
33425W        W98905  34.070  17.160   4.632
33426W        W98906   5.295  13.816   1.839
33427W        W98907  15.721  42.966   2.203
33428W        W98908  14.109  42.924  10.156
33429W        W98909  36.055  30.650   3.271
33430W        W98910  29.567  26.021   3.301
33431W        W98911  33.943  37.483   0.822
33432W        W98912  31.976  18.173  13.025
33433W        W98913  11.169  15.143   1.293
33434W        W98914   3.760  30.631  10.096
33435W        W98915  17.172  40.303  11.579
33436W        W98916   3.827  28.452  12.505
33437W        W98917  35.868  14.112  11.528
33438W        W98918  12.828  43.008   3.187
33439W        W98919  44.860   2.283   0.928
33440W        W98920  27.597  35.066  12.984
33441W        W98921  41.984  15.222   4.158
33442W        W98922  17.583  28.969   3.360
33443W        W98923  21.581  43.904   0.742
33444W        W98924   5.291  16.161   3.681
33445W        W98925   3.950   4.843  10.457
33446W        W98926  36.920   8.217   0.275
33447W        W98927  23.020   2.851   4.327
33448W        W98928  39.346   9.176   3.293
33449W        W98929  37.439   7.851  12.017
33450W        W98930   2.814   9.652   1.429
33451W        W98931  14.765   1.303  12.968
33452W        W98932   4.206  19.253  13.963
33453W        W98933  31.422  15.217  10.998
33454W        W98934  36.380  10.686   2.224
33455W        W98935  29.028   2.791  11.383
33456W        W98936  14.740  18.741  14.362
33457W        W98937  39.363   5.277   3.377
33458W        W98938  21.558  17.218  13.531
33459W        W98939  40.922   2.838  10.433
33460W        W98940  28.104  29.467   4.113
33461W        W98941  25.679  42.887   0.319
33462W        W98942  30.147  15.245   3.217
33463W        W98943  17.281  24.615  10.640
33464W        W98944  30.571  16.682   1.241
33465W        W98945   8.353  29.928  14.401
33466W        W98946  16.244  36.964  11.390
33467W        W98947  30.620  14.268  13.418
33468W        W98948   1.322   0.898   4.251
33469W        W98949  14.136   5.743  10.907
33470W        W98950  33.913  31.512  11.579
33471W        W98951  40.052  14.208   4.115
33472W        W98952   0.966   1.805   0.374
33473W        W98953  43.294  44.754   4.666
33474W        W98954  36.940  41.820  12.915
33475W        W98955  43.453  42.959  10.105
33476W        W98956   1.819  29.132   4.209
33477W        W98957  14.097  28.072   4.152
33478W        W98958  30.990  24.223  14.325
33479W        W98959  42.852  31.930   1.926
33480W        W98960  40.900  21.084   2.269
33481W        W98961  32.939  33.980  13.855
33482W        W98962  10.352  15.581  14.413
33483W        W98963  29.546  32.461  14.435
33484W        W98964  32.967  38.071  14.292
33485W        W98965   7.179  36.483  11.083
33486W        W98966  38.909  43.376   0.813
33487W        W98967   9.831  14.198  12.073
33488W        W98968  34.468   1.734   4.812
33489W        W98969  23.557  41.839   1.226
33490W        W98970  39.979  16.746   2.691
33491W        W98971   9.263   4.330  14.980
33492W        W98972  29.036  40.982   3.702
33493W        W98973  26.561   0.265   4.607
33494W        W98974   5.884  43.312  10.471
33495W        W98975  30.925  14.589   2.328
33496W        W98976   4.806  37.065  10.588
33497W        W98977  24.017  33.890   1.929
33498W        W98978  29.622   0.279  14.762
33499W        W98979  39.393  36.867   0.814
33500W        W98980  15.314  28.517  11.035
33501W        W98981   6.882  25.636   2.745
33502W        W98982   1.294  22.192  10.555
33503W        W98983  40.308   8.844  13.314
33504W        W98984  43.954  38.954   4.354
33505W        W98985  33.396  37.041   4.611
33506W        W98986  16.143  42.368  14.004
33507W        W98987  11.651  21.079  13.521
33508W        W98988  27.085  15.244   2.695
33509W        W98989  20.580  30.952   2.853
33510W        W98990  17.591   7.720  14.301
33511W        W98991  20.692   8.872   2.810
33512W        W98992  41.999   3.352   0.836
33513W        W98993  35.028  41.491  14.934
33514W        W98994  12.635   3.266  14.301
33515W        W98995  30.490  26.104   1.924
33516W        W98996  30.057  31.914   2.390
33517W        W98997  31.980  24.220  13.450
33518W        W98998  11.129  39.347   0.469
33519W        W98999  13.123  29.926  14.339
33520W        W99000  21.245   5.836   5.309
33521W        W99001  26.962  27.038  11.880
33522W        W99002  14.769  35.370  10.595
33523W        W99003   9.374  29.070  11.556
33524W        W99004  28.140  39.415   3.635
33525W        W99005  33.603  24.215  13.938
33526W        W99006  15.123  21.569  14.995
33527W        W99007  21.211  22.604  10.553
33528W        W99008  30.641  34.487  12.093
33529W        W99009  29.965  12.672   0.838
33530W        W99010  40.417  31.968   4.681
33531W        W99011  32.923   6.880   2.242
33532W        W99012  26.012  22.199   1.359
33533W        W99013  42.382  22.608   0.732
33534W        W99014  12.718  40.892  10.923
33535W        W99015  44.835  12.318   2.855
33536W        W99016  19.065  30.014  11.383
33537W        W99017  30.017  39.553  14.977
33538W        W99018  41.457  29.126  13.995
33539W        W99019   5.699  40.421  11.892
33540W        W99020  21.177  43.808   2.735
33541W        W99021  16.804   6.359  11.399
33542W        W99022  44.348  30.932   3.315
33543W        W99023  12.753  44.776   0.478
33544W        W99024  21.553  11.367   4.346
33545W        W99025  27.021  26.464  14.789
33546W        W99026  27.046  21.148   2.840
33547W        W99027  34.516  36.008  11.947
33548W        W99028  27.665   3.252   2.413
33549W        W99029  29.007  14.815   3.259
33550W        W99030  16.612  24.186  12.388
33551W        W99031  36.993  17.585  13.877
33552W        W99032   5.286  32.097   4.827
33553W        W99033   6.802  34.115  14.434
33554W        W99034   3.272  22.151   0.906
33555W        W99035  17.176  13.147  14.957
33556W        W99036  37.952   4.440   0.317
33557W        W99037  12.616  41.406  11.494
33558W        W99038  24.724  23.996   3.369
33559W        W99039  42.307  19.549  12.562
33560W        W99040  14.647  18.062   0.427
33561W        W99041  44.917   2.268   4.808
33562W        W99042  33.978  20.116  11.939
33563W        W99043  27.593  14.647   0.389
33564W        W99044  13.265  31.570  13.433
33565W        W99045   9.732  43.933  11.067
33566W        W99046  38.832  25.577   1.310
33567W        W99047  22.561   4.438  12.559
33568W        W99048  28.492  35.445  10.523
33569W        W99049  38.368   2.878  13.484
33570W        W99050   0.462   2.241   0.342
33571W        W99051  36.874  16.128   0.310
33572W        W99052  19.134  19.620   4.838
33573W        W99053  33.455  44.998  14.977
33574W        W99054  22.136  42.870  11.519
33575W        W99055  28.648  37.010   3.382
33576W        W99056   9.276  28.117  10.436
33577W        W99057  30.056  29.424  11.490
33578W        W99058   9.351  19.096   4.626
33579W        W99059  35.442   0.763   4.677
33580W        W99060  20.236  32.454   2.811
33581W        W99061  32.518  37.889   3.684
33582W        W99062  16.241  29.073   3.646
33583W        W99063  14.233   8.352   4.838
33584W        W99064   2.469   7.241  14.317
33585W        W99065  26.514   5.830   0.765
33586W        W99066   8.245  34.458   2.749
33587W        W99067  41.787  35.931   2.793
33588W        W99068  41.910  38.559  10.952
33589W        W99069  33.486  21.696   4.651
33590W        W99070  43.379  19.144   3.266
33591W        W99071   7.251  31.960  13.366
33592W        W99072  13.203  26.171  13.542
33593W        W99073  11.634   4.250  14.784
33594W        W99074   7.172  42.509  14.875
33595W        W99075  21.600  20.543  12.969
33596W        W99076  18.268  21.090   1.386
33597W        W99077  25.193   8.212   1.385
33598W        W99078   3.438  17.789   4.210
33599W        W99079  26.176  15.215   1.919
33600W        W99080  19.058  44.860  13.547
33601W        W99081  33.446  10.272   3.833
33602W        W99082   7.909  37.898   4.265
33603W        W99083  33.466   1.302   1.725
33604W        W99084  10.754   6.234  10.568
33605W        W99085  27.067  28.068   2.839
33606W        W99086  35.497  37.052  13.425
33607W        W99087  36.567   1.936  12.849
33608W        W99088   1.859   9.277  12.386
33609W        W99089  27.489  30.430  14.340
33610W        W99090  37.372   3.249   3.210
33611W        W99091  21.111  43.393  11.957
33612W        W99092  43.792   7.765   2.724
33613W        W99093  26.000  34.110  11.448
33614W        W99094  33.440  21.598  13.027
33615W        W99095  21.181  22.178   0.288
33616W        W99096  17.731  23.130   0.456
33617W        W99097  24.597  31.499  14.816
33618W        W99098  23.711  32.918  11.881
33619W        W99099  18.196  32.493   1.288
33620W        W99100  30.149  13.159  11.574
33621W        W99101   2.286  30.121  11.550
33622W        W99102  38.560  31.052   4.221
33623W        W99103   0.879  25.009   1.849
33624W        W99104  14.798  34.073  13.870
33625W        W99105  17.148  38.946   0.326
33626W        W99106  30.016  12.143   0.780
33627W        W99107  19.614   3.258  11.982
33628W        W99108   2.853  16.172   0.283
33629W        W99109  23.671  43.779   2.726
33630W        W99110   9.208  23.212  14.381
33631W        W99111  15.182  30.931   4.278
33632W        W99112   3.789  25.626  13.379
33633W        W99113  28.986   9.833  12.090
33634W        W99114   9.234  33.934  14.855
33635W        W99115  28.031  23.001   9.986
33636W        W99116   7.822   3.759  12.988
33637W        W99117  23.987  21.041  14.406
33638W        W99118  10.754   4.859  10.900
33639W        W99119  22.734  30.007  11.994
33640W        W99120  19.173  12.265   2.784
33641W        W99121  17.230   3.841   0.258
33642W        W99122  34.435  18.710  13.849
33643W        W99123   7.675  38.474  14.005
33644W        W99124  42.354   6.250   4.656
33645W        W99125   1.949   8.872  11.120
33646W        W99126  36.588  25.498   3.295
33647W        W99127  11.263  31.444  13.873
33648W        W99128   8.893   5.429  13.897
33649W        W99129  16.768  13.657   0.431
33650W        W99130  40.463  27.677   0.412
33651W        W99131  26.100  11.768   3.861
33652W        W99132   7.840   7.274  10.612
33653W        W99133  42.825  32.908  11.868
33654W        W99134  43.980  26.607   1.312
33655W        W99135  39.390   2.386   1.417
33656W        W99136  11.274  32.070   1.421
33657W        W99137  36.538   5.748  11.393
33658W        W99138  21.579  42.796  12.552
33659W        W99139  14.746  10.242   1.709
33660W        W99140  40.322  12.239  12.898
33661W        W99141  43.899   8.778   1.397
33662W        W99142   6.744  41.413  13.454
33663W        W99143   5.290  20.137   4.623
33664W        W99144  22.165   5.704   0.388
33665W        W99145  35.895  23.580   1.350
33666W        W99146  19.154  18.289   1.283
33667W        W99147  33.947  22.548   0.765
33668W        W99148   1.319  28.591   2.269
33669W        W99149  27.096   6.357   3.355
33670W        W99150  25.160   5.872  11.540
33671W        W99151  38.997   8.884   2.814
33672W        W99152  32.930  27.962   1.433
33673W        W99153  11.820  35.917  10.519
33674W        W99154  43.980  19.591  13.906
33675W        W99155  18.555   0.980   3.833
33676W        W99156  34.597   8.282   3.744
33677W        W99157  12.223  34.442   1.287
33678W        W99158   9.769  23.163   2.244
33679W        W99159  28.178  12.791  10.141
33680W        W99160   0.819  35.939   3.324
33681W        W99161  23.083  13.667   3.355
33682W        W99162  23.694  29.950  14.017
33683W        W99163  44.785  38.860  12.979
33684W        W99164   3.904   8.190   2.368
33685W        W99165  32.460  27.174  11.093
33686W        W99166  12.131  27.067  14.884
33687W        W99167  38.872  27.016   4.159
33688W        W99168  39.918  42.006   0.773
33689W        W99169   1.945  39.029   1.378
33690W        W99170  22.230   9.706   2.339
33691W        W99171  18.238  32.001   1.418
33692W        W99172  41.810  16.749   3.830
33693W        W99173  22.995  16.567  10.600
33694W        W99174  42.830  26.122   4.819
33695W        W99175  15.111  12.638   9.539
33696W        W99176   7.750   8.362  13.011
33697W        W99177  35.041  25.188   1.373
33698W        W99178  42.972  33.949   2.341
33699W        W99179  32.583  24.560  14.868
33700W        W99180   9.709  27.457   3.181
33701W        W99181  25.011  22.175  13.820
33702W        W99182  33.597  30.031  10.577
33703W        W99183  42.987   8.718  14.825
33704W        W99184  18.171   1.766   4.334
33705W        W99185  34.470  36.487   3.170
33706W        W99186  22.697  17.294  14.906
33707W        W99187   4.331  30.091   1.826
33708W        W99188  25.138  10.825   0.377
33709W        W99189  11.755  23.084   1.886
33710W        W99190   6.348  25.134  12.956
33711W        W99191  12.682  33.915   0.757
33712W        W99192  24.570   5.829   3.782
33713W        W99193  15.814  40.322  12.340
33714W        W99194  26.680  20.274   4.305
33715W        W99195  13.804  13.290   4.183
33716W        W99196  18.769  12.687  13.326
33717W        W99197  27.097  44.366   2.876
33718W        W99198  13.600   7.701   0.259
33719W        W99199  19.155   3.222  12.512
33720W        W99200   2.909  12.255  11.037
33721W        W99201  13.633  42.979   1.369
33722W        W99202  21.517  12.665   0.769
33723W        W99203  43.411  22.065  10.481
33724W        W99204  17.706  37.880  10.147
33725W        W99205  40.032  14.280   2.717
33726W        W99206  15.687  17.222   4.206
33727W        W99207   7.687  42.829  13.831
33728W        W99208  29.015  23.504  12.966
33729W        W99209  41.309  39.340  12.481
33730W        W99210   2.245  28.539  11.076
33731W        W99211  32.475  30.658   3.296
33732W        W99212  30.145  42.883  13.802
33733W        W99213  25.189  12.722   1.451
33734W        W99214  40.978  31.640   1.865
33735W        W99215   4.808   0.474  14.463
33736W        W99216  23.598   0.436   2.665
33737W        W99217  36.943  44.899  14.410
33738W        W99218  34.080  23.546  11.548
33739W        W99219  11.683   9.341  13.420
33740W        W99220   7.171  28.466   4.709
33741W        W99221  38.853  27.597  12.873
33742W        W99222  18.103  12.267  14.898
33743W        W99223   9.855  39.410   2.265
33744W        W99224  35.944  11.286   3.337
33745W        W99225  27.471  34.448   4.625
33746W        W99226  16.162   1.912   4.720
33747W        W99227  13.626   4.371  14.395
33748W        W99228   3.284   8.750   3.167
33749W        W99229   9.764  41.510   2.730
33750W        W99230  17.188  25.165   2.336
33751W        W99231  31.056  18.553  14.818
33752W        W99232   9.372   1.842   4.799
33753W        W99233  40.501  38.933  10.616
33754W        W99234  41.466   3.270   3.800
33755W        W99235   4.399  29.522  13.459
33756W        W99236  13.696  24.177  12.018
33757W        W99237   3.836   8.748   3.723
33758W        W99238   8.164  37.019  14.918
33759W        W99239  36.031  23.068   4.321
33760W        W99240  15.580   9.268  13.975
33761W        W99241   7.238  44.851  12.922
33762W        W99242  42.486  30.102   2.304
33763W        W99243  33.601  27.603   1.719
33764W        W99244  32.625  42.430  14.919
33765W        W99245  42.975  18.773   5.151
33766W        W99246  34.425  30.434   1.244
33767W        W99247   6.785  43.813   4.825
33768W        W99248  19.556  13.230  14.856
33769W        W99249  43.022  34.443   4.605
33770W        W99250   0.460  32.442  12.579
33771W        W99251   4.423  13.701  14.926
33772W        W99252   9.852  34.480   3.159
33773W        W99253  34.392  35.931  14.357
33774W        W99254  12.743  14.339   1.405
33775W        W99255  27.453   4.332   2.307
33776W        W99256  25.056  40.016   2.255
33777W        W99257  27.536  33.542  12.827
33778W        W99258  31.450  27.183   1.755
33779W        W99259  22.117  38.485  10.975
33780W        W99260  35.401   5.691  12.890
33781W        W99261  41.466  17.210   4.657
33782W        W99262  42.483   8.737  14.286
33783W        W99263  43.867   1.239   0.463
33784W        W99264  17.081  18.106   0.444
33785W        W99265  41.871  30.469   2.396
33786W        W99266  11.789  33.573   1.846
33787W        W99267  24.712  36.451  13.317
33788W        W99268  42.285  15.788   1.263
33789W        W99269  10.735  29.515  13.027
33790W        W99270  33.488  32.533   0.889
33791W        W99271  33.443  37.014  11.930
33792W        W99272  41.984  28.019  12.884
33793W        W99273  39.039  26.995   3.351
33794W        W99274  38.941   0.417   4.652
33795W        W99275   3.765  25.034   3.829
33796W        W99276  27.516  42.371  14.274
33797W        W99277  14.694   6.841   2.325
33798W        W99278   2.792  42.494  11.450
33799W        W99279  29.029  14.668  12.486
33800W        W99280  17.064  33.569   3.859
33801W        W99281  16.257  12.807  14.920
33802W        W99282  39.983  25.972  11.472
33803W        W99283  15.633  28.565  11.394
33804W        W99284   6.845  40.472   2.688
33805W        W99285  33.883  34.870  13.877
33806W        W99286  44.325  18.710  12.388
33807W        W99287  27.109   0.854   3.318
33808W        W99288  21.696   9.785  13.422
33809W        W99289  41.516   2.930   0.881
33810W        W99290  10.802   1.912   0.877
33811W        W99291   0.386  26.667  13.365
33812W        W99292   3.309  10.182   3.658
33813W        W99293  10.818  36.536  10.486
33814W        W99294  30.442   0.462   3.862
33815W        W99295  31.546  34.527   2.700
33816W        W99296  14.292  40.967   5.601
33817W        W99297  28.496  42.964  13.366
33818W        W99298  41.835  37.431   0.459
33819W        W99299  29.500  11.274   1.804
33820W        W99300  35.997  28.497  12.832
33821W        W99301  21.665   0.488  11.530
33822W        W99302   6.310   4.922   5.098
33823W        W99303  17.633  10.352  12.843
33824W        W99304  12.267  10.229   3.178
33825W        W99305  34.512  19.064  11.454
33826W        W99306  37.042  22.590  14.951
33827W        W99307  28.070   1.825   9.949
33828W        W99308  12.183  16.703  11.077
33829W        W99309   6.713  21.618  12.055
33830W        W99310  26.017  28.944   3.862
33831W        W99311  20.698  24.530  13.318
33832W        W99312  39.526  38.898  10.077
33833W        W99313  22.071  16.652   4.235
33834W        W99314  12.803  21.224   2.359
33835W        W99315  43.508  33.067  14.947
33836W        W99316  28.138  36.869  11.483
33837W        W99317  12.787  24.523   4.124
33838W        W99318  35.045   4.707  13.973
33839W        W99319  10.847  24.221  11.989
33840W        W99320  21.233  11.171   4.301
33841W        W99321  39.031  18.576  12.925
33842W        W99322  18.212   0.808   1.809
33843W        W99323   5.932  14.171  12.873
33844W        W99324  33.976   6.393   0.481
33845W        W99325  38.938   9.771   4.173
33846W        W99326   0.453   0.794  14.504
33847W        W99327  13.772  26.985   1.323
33848W        W99328  43.316  21.537  14.881
33849W        W99329  23.150   0.474   2.888
33850W        W99330   1.261  17.127  10.998
33851W        W99331   8.749  40.854   4.338
33852W        W99332  15.624  18.204   1.780
33853W        W99333   8.699  36.363   2.363
33854W        W99334  18.094  21.106  13.813
33855W        W99335  11.717  29.084  11.864
33856W        W99336  39.996  33.040   0.431
33857W        W99337  25.468  35.913  12.501
33858W        W99338  17.638  44.365  13.343
33859W        W99339  44.002  23.208  14.317
33860W        W99340  39.363   6.891  14.498
33861W        W99341  24.486  23.199   1.781
33862W        W99342   5.352  33.875   2.801
33863W        W99343   6.860  24.225  11.882
33864W        W99344   4.248  13.665  11.439
33865W        W99345   1.345   7.771   1.437
33866W        W99346   3.901   9.687  13.901
33867W        W99347  13.611  39.901  14.367
33868W        W99348  34.561  44.379  10.476
33869W        W99349  22.072  33.061   1.337
33870W        W99350  15.186  25.967   2.704
33871W        W99351  11.196  12.728  11.077
33872W        W99352  31.125  20.038  11.010
33873W        W99353  13.653   2.429  12.341
33874W        W99354   2.851  33.987   4.350
33875W        W99355  16.587  30.936   1.416
33876W        W99356  32.924  22.576  14.864
33877W        W99357  35.064  27.941   4.650
33878W        W99358  14.833  27.118   0.304
33879W        W99359  12.660  14.642  11.959
33880W        W99360  26.667   1.890  11.071
33881W        W99361  25.688  30.527   2.276
33882W        W99362  17.734  12.783  13.030
33883W        W99363  17.738   8.835   0.462
33884W        W99364  11.754   2.899   3.764
33885W        W99365  39.865  36.430   0.465
33886W        W99366  31.921  33.970  14.017
33887W        W99367  12.706  44.857   0.813
33888W        W99368  20.679  14.167   1.357
33889W        W99369  15.219  31.463   0.953
33890W        W99370  43.316  41.869   3.218
33891W        W99371  40.469  33.621  12.973
33892W        W99372  37.361  14.275  10.445
33893W        W99373  44.870  22.625  13.468
33894W        W99374   2.886   4.832  13.796
33895W        W99375  18.553  21.156   5.252
33896W        W99376   8.284  40.956  12.498
33897W        W99377  32.956  28.185  14.492
33898W        W99378  22.250  29.922  11.892
33899W        W99379  11.295  42.897   2.752
33900W        W99380   1.764  18.690   2.832
33901W        W99381  14.727   9.880   3.253
33902W        W99382  16.214  31.987   0.338
33903W        W99383  21.132  31.457  10.557
33904W        W99384  37.466  29.929  10.939
33905W        W99385  41.962   8.836   4.271
33906W        W99386  27.633   6.707  14.488
33907W        W99387  10.173   6.242   4.694
33908W        W99388  26.641  41.319  13.460
33909W        W99389  29.986   0.352   2.826
33910W        W99390  32.453   0.416  12.827
33911W        W99391  28.983  37.493   4.675
33912W        W99392   9.751   3.244  11.570
33913W        W99393  14.624   9.273  10.528
33914W        W99394   7.375   3.724   1.815
33915W        W99395  14.147  24.053   0.450
33916W        W99396  34.406  28.580  10.975
33917W        W99397   8.334  16.644   1.904
33918W        W99398  34.895   7.240   0.396
33919W        W99399  18.643  22.700   3.840
33920W        W99400  14.748  34.556   0.931
33921W        W99401   2.837   3.285  11.866
33922W        W99402  36.866  44.345  11.928
33923W        W99403  15.661   6.258   5.159
33924W        W99404  17.235  25.073   2.669
33925W        W99405   3.261  22.666   3.763
33926W        W99406  41.297  44.818  14.982
33927W        W99407  44.422  32.031   1.912
33928W        W99408  26.573  21.569   0.323
33929W        W99409  15.822  13.799  14.470
33930W        W99410  41.040  24.166   2.284
33931W        W99411  28.511  11.780   4.263
33932W        W99412  29.663  43.391  11.928
33933W        W99413  39.534  34.447   0.281
33934W        W99414   8.802  28.676  13.976
33935W        W99415  26.153  40.548  13.333
33936W        W99416  15.654  27.610  11.875
33937W        W99417  40.477  31.595   1.758
33938W        W99418  14.241  44.786  14.913
33939W        W99419   4.714  28.603   2.750
33940W        W99420   3.437  21.582  11.468
33941W        W99421  18.656  36.456   0.366
33942W        W99422  21.216   7.832  11.425
33943W        W99423  19.705  16.082  13.525
33944W        W99424  17.640   4.891  10.635
33945W        W99425  44.309  10.138  12.038
33946W        W99426  34.028  27.584   4.136
33947W        W99427  37.467  18.133   3.186
33948W        W99428  20.704  34.437  12.565
33949W        W99429   7.376  26.634  13.415
33950W        W99430  34.002  25.482  14.410
33951W        W99431  19.687  34.384  10.517
33952W        W99432   7.768  19.684   0.269
33953W        W99433  19.545  14.690   0.757
33954W        W99434   1.978  30.573   3.816
33955W        W99435   6.426  33.607   0.401
33956W        W99436   9.196  11.839  14.829
33957W        W99437  13.343  41.459  14.027
33958W        W99438  33.978  30.124  14.941
33959W        W99439   5.894  42.348   4.209
33960W        W99440  13.214  36.505   4.749
33961W        W99441  42.937  28.998  13.404
33962W        W99442  38.935  13.834   2.312
33963W        W99443   9.666  28.142  10.955
33964W        W99444  40.848  11.824   4.294
33965W        W99445   8.676  20.645  11.064
33966W        W99446  19.707  26.187   3.680
33967W        W99447  13.342  22.028   3.201
33968W        W99448  28.552  39.004  12.892
33969W        W99449  10.666  12.330  12.953
33970W        W99450   0.979  20.038  14.511
33971W        W99451  22.522   1.846   1.738
33972W        W99452  11.789  17.705   3.267
33973W        W99453  25.983   6.754   3.379
33974W        W99454  26.522  26.498   3.270
33975W        W99455  17.124   9.772   3.659
33976W        W99456  30.128  23.633   1.268
33977W        W99457  26.988   0.854   1.934
33978W        W99458  26.988  25.488  10.929
33979W        W99459   2.282  17.772  14.481
33980W        W99460  43.928  28.939   2.820
33981W        W99461  32.113  24.167  14.464
33982W        W99462  41.032  30.538  12.573
33983W        W99463  28.665  19.057   2.419
33984W        W99464   5.412  36.474  10.625
33985W        W99465  35.067  18.122   2.305
33986W        W99466  26.681  22.554   1.764
33987W        W99467   8.382  40.903   2.411
33988W        W99468  15.778  18.750  14.456
33989W        W99469  24.586  21.707   1.308
33990W        W99470  21.659  28.635  14.505
33991W        W99471  36.568  18.603  13.345
33992W        W99472   9.239  18.676  11.911
33993W        W99473   7.904  34.065  11.041
33994W        W99474  15.208  22.520   0.838
33995W        W99475   5.752  19.727  10.519
33996W        W99476  14.748  43.329   1.765
33997W        W99477  29.175  40.360  12.911
33998W        W99478  35.592  40.457  12.418
33999W        W99479  27.181  24.492  11.059
34000W        W99480   7.699  12.180  13.898
34001W        W99481  32.423  11.233   0.852
34002W        W99482  21.600  23.110  12.428
34003W        W99483  30.612  42.349   4.143
34004W        W99484  33.539  23.542  11.423
34005W        W99485   0.429  42.322  11.557
34006W        W99486  30.002  39.860   2.335
34007W        W99487  35.473  38.535   4.126
34008W        W99488  32.432   0.366   4.736
34009W        W99489  10.851  25.497  13.346
34010W        W99490  22.714   5.425   2.303
34011W        W99491  36.029  38.060  10.550
34012W        W99492  15.277   9.386   0.463
34013W        W99493  40.306  39.376   1.417
34014W        W99494  17.108  38.029   3.178
34015W        W99495   9.189  41.395   4.277
34016W        W99496  20.148   3.786  10.922
34017W        W99497  13.330  36.034   4.652
34018W        W99498  39.483  41.979  12.473
34019W        W99499  36.000  23.992   5.274
34020W        W99500  20.533  42.316   4.724
34021W        W99501   3.287  42.423  13.448
34022W        W99502  29.065   9.827  12.347
34023W        W99503  23.234   3.793  12.969
34024W        W99504  35.880  24.615  10.473
34025W        W99505  39.322  25.600  11.456
34026W        W99506  44.963   9.812   4.759
34027W        W99507  40.545  25.985  10.573
34028W        W99508  13.786  17.229  10.569
34029W        W99509   8.278  19.553   1.724
34030W        W99510  28.931  31.077   3.855
34031W        W99511  38.525   5.327   4.710
34032W        W99512  24.079  21.560  10.989
34033W        W99513   0.313  37.079  14.926
34034W        W99514  37.862  22.694   4.156
34035W        W99515   7.279  36.575   4.684
34036W        W99516   6.257  20.677   2.705
34037W        W99517  19.088   3.391  13.906
34038W        W99518  14.648  21.569   2.311
34039W        W99519  17.635  39.899  10.534
34040W        W99520   8.837  35.397  13.918
34041W        W99521  26.556  27.587   4.253
34042W        W99522  20.048  13.256   4.622
34043W        W99523  34.117  31.900  12.572
34044W        W99524  36.917  31.128   1.751
34045W        W99525  32.962  31.593   1.257
34046W        W99526   7.869   8.754   9.975
34047W        W99527  43.467   2.249  13.983
34048W        W99528  23.726   7.825  11.427
34049W        W99529   8.257  32.069   0.258
34050W        W99530  36.536  30.045  12.023
34051W        W99531  27.565   0.254  11.952
34052W        W99532  40.511  37.338   4.764
34053W        W99533   5.373  27.479   3.319
34054W        W99534  41.814  19.572   0.960
34055W        W99535   5.430  38.060   4.756
34056W        W99536  38.901  19.726   1.900
34057W        W99537  16.756  23.596   3.316
34058W        W99538  14.164  23.013  12.914
34059W        W99539  25.492   0.901   4.218
34060W        W99540  36.428   7.703   3.738
34061W        W99541  19.765   2.351  14.965
34062W        W99542  43.008  32.453   4.802
34063W        W99543  38.395  43.793   3.382
34064W        W99544   3.321  11.362  12.857
34065W        W99545   9.831  10.756  13.374
34066W        W99546  25.975   3.843  10.997
34067W        W99547   4.832  13.154  10.516
34068W        W99548  19.656   3.748  14.376
34069W        W99549  16.163   6.836  12.434
34070W        W99550  23.672  10.356   3.868
34071W        W99551   1.869  21.577   0.963
34072W        W99552  24.007  35.426  13.064
34073W        W99553  22.620  31.141   9.972
34074W        W99554  23.094  41.524   1.927
34075W        W99555   1.821  35.006  11.924
34076W        W99556   5.797   1.452   2.895
34077W        W99557  23.720  26.090   0.294
34078W        W99558  12.620   7.193  12.824
34079W        W99559  39.040  24.091  14.331
34080W        W99560   8.211  18.082  14.826
34081W        W99561   6.865  15.231  14.420
34082W        W99562  26.031  35.449   0.774
34083W        W99563  22.054  37.039  13.531
34084W        W99564  28.581  40.002   4.795
34085W        W99565  31.004  12.813  14.387
34086W        W99566  17.302   5.312  14.868
34087W        W99567  25.054  19.280  12.557
34088W        W99568   6.735  37.530   3.149
34089W        W99569  36.978  11.294  13.548
34090W        W99570  38.876  10.191  11.071
34091W        W99571  34.996  25.170  14.004
34092W        W99572  15.249   2.424   4.746
34093W        W99573  36.909  32.622  11.589
34094W        W99574   9.290  35.361   3.374
34095W        W99575  32.548  25.163  14.350
34096W        W99576  43.343  27.522   3.199
34097W        W99577  28.626  30.505   0.426
34098W        W99578  20.591   5.343   1.447
34099W        W99579   5.234  38.500  13.012
34100W        W99580  19.607  13.330   3.260
34101W        W99581   7.802  35.432  11.113
34102W        W99582   0.350  39.856   4.228
34103W        W99583  10.813  10.260   2.239
34104W        W99584  28.104   2.944   0.294
34105W        W99585  38.434  15.087   2.297
34106W        W99586  16.191   3.887   3.307
34107W        W99587   2.799  42.474   0.797
34108W        W99588   8.828  26.551   3.271
34109W        W99589  16.167  43.345   4.121
34110W        W99590   7.799  32.090   4.349
34111W        W99591   5.413  16.265  11.065
34112W        W99592  37.855  29.958  10.616
34113W        W99593   2.820   2.244   2.272
34114W        W99594  31.060  17.219  12.070
34115W        W99595   6.326   2.274   4.152
34116W        W99596  19.193  39.863  14.279
34117W        W99597  44.384  22.023  11.973
34118W        W99598   3.813  35.000   2.388
34119W        W99599  33.532  14.335  11.090
34120W        W99600   0.385   0.778   0.943
34121W        W99601  25.557  21.230   3.203
34122W        W99602   5.736   8.330   2.271
34123W        W99603  14.588   1.853   2.871
34124W        W99604  20.029  35.482   4.322
34125W        W99605   9.837   7.770  13.511
34126W        W99606  41.351  12.650  14.864
34127W        W99607  21.046  12.243  12.522
34128W        W99608  39.926  34.509   3.261
34129W        W99609  25.695   9.289   5.108
34130W        W99610   1.398  25.150  14.404
34131W        W99611  39.382  19.255  11.961
34132W        W99612  25.555  39.900   0.425
34133W        W99613  26.521  21.225   1.332
34134W        W99614  32.119   1.240   0.336
34135W        W99615  31.010  12.226   0.934
34136W        W99616  22.701  13.733   0.767
34137W        W99617  21.605   0.769  12.521
34138W        W99618   1.966   0.470   2.836
34139W        W99619  14.790   6.863  10.589
34140W        W99620  33.411  39.521  13.985
34141W        W99621  21.538  34.930  12.570
34142W        W99622   6.322  20.138   2.701
34143W        W99623  10.650  10.684   3.345
34144W        W99624  13.763   3.865  14.478
34145W        W99625  18.556  28.460  14.344
34146W        W99626   1.369  41.502   0.812
34147W        W99627  11.207  29.642   1.717
34148W        W99628   1.414  11.853   0.451
34149W        W99629  35.085  17.121   0.919
34150W        W99630   1.808  35.078  10.487
34151W        W99631  30.120  34.066   3.386
34152W        W99632   6.280  44.988  10.586
34153W        W99633   0.796  12.719  14.841
34154W        W99634  28.140  42.937   4.119
34155W        W99635  29.114   7.183  14.960
34156W        W99636  20.188  14.596   2.233
34157W        W99637  35.594   9.726  11.908
34158W        W99638  34.948   6.687  11.128
34159W        W99639   5.277  40.873   0.896
34160W        W99640  13.821  26.206   4.774
34161W        W99641  17.178  30.975  12.966
34162W        W99642   7.829  29.624  12.963
34163W        W99643  35.580  33.457  13.487
34164W        W99644  31.640  18.213  14.870
34165W        W99645  39.373  42.781   3.348
34166W        W99646  36.932   2.426   1.808
34167W        W99647  14.315  29.435  12.838
34168W        W99648   9.769   5.737  13.541
34169W        W99649  33.511  17.185   2.885
34170W        W99650  25.535  34.954   9.967
34171W        W99651   7.818   3.856   4.255
34172W        W99652  35.524  28.678  11.501
34173W        W99653  42.929  33.056   2.726
34174W        W99654   5.803  37.578   2.308
34175W        W99655  43.886  30.996   0.310
34176W        W99656  30.505  27.985  14.962
34177W        W99657   6.872  10.362   1.268
34178W        W99658   8.277  35.519   4.187
34179W        W99659  11.363  35.436   0.744
34180W        W99660  27.591  16.676  14.459
34181W        W99661   1.381  35.410   1.729
34182W        W99662  38.565  24.128   0.407
34183W        W99663  39.488   6.183  11.470
34184W        W99664  27.146  15.192  14.433
34185W        W99665  36.934  30.479  11.970
34186W        W99666   2.294   1.462   3.302
34187W        W99667  38.530   6.749   1.703
34188W        W99668  32.932  33.495  14.350
34189W        W99669  17.659  30.634   3.162
34190W        W99670  44.267  30.008   3.785
34191W        W99671   1.824  29.651   2.372
34192W        W99672  23.995  17.625   3.755
34193W        W99673  33.535  29.610   4.285
34194W        W99674  41.019  19.181   5.094
34195W        W99675  33.626  16.093  13.975
34196W        W99676  17.285   0.976   2.352
34197W        W99677   7.809  25.164  10.010
34198W        W99678   1.936  34.612   1.878
34199W        W99679  31.924  38.468   1.732
34200W        W99680  40.453  44.268   5.147
34201W        W99681  15.818  24.680   3.798
34202W        W99682  34.530  34.096   0.729
34203W        W99683  30.097  18.055  10.549
34204W        W99684  27.659  40.964   2.340
34205W        W99685   8.291   0.295   1.379
34206W        W99686  36.873  23.693   1.877
34207W        W99687  27.971  22.163   1.445
34208W        W99688  24.002  14.622   1.274
34209W        W99689  30.990  12.665   3.244
34210W        W99690  15.312  15.590  11.395
34211W        W99691  31.153  31.576   0.847
34212W        W99692  21.206  18.074  10.152
34213W        W99693  32.924  24.628   1.238
34214W        W99694  12.224  44.418  14.823
34215W        W99695  40.977  16.778  11.906
34216W        W99696   6.358  41.027  13.895
34217W        W99697   0.445  31.481   3.629
34218W        W99698  30.977   1.402   0.829
34219W        W99699  19.663  37.440  11.421
34220W        W99700  23.046  39.485   2.886
34221W        W99701  23.229  30.996  14.435
34222W        W99702  42.408  15.265  13.958
34223W        W99703  33.575  18.735  13.883
34224W        W99704  30.637   5.774   0.773
34225W        W99705  21.550  15.288  11.862
34226W        W99706  36.030  19.686   3.737
34227W        W99707  29.590   6.380  13.534
34228W        W99708  24.044  44.456  14.904
34229W        W99709  40.432  41.938   0.764
34230W        W99710  37.424  18.657   5.190
34231W        W99711   6.770  31.967  12.854
34232W        W99712   6.824  28.498  14.486
34233W        W99713  35.369  18.661   1.801
34234W        W99714   6.691  42.032  12.477
34235W        W99715  11.278   1.309   3.784
34236W        W99716  35.434  11.756  11.884
34237W        W99717  24.124  43.465  10.933
34238W        W99718  25.485  16.652   3.187
34239W        W99719  42.428  42.283   1.760
34240W        W99720  39.316   4.448  11.009
34241W        W99721  34.506  40.332  10.557
34242W        W99722  25.117  12.127   4.660
34243W        W99723  17.612   7.898  10.435
34244W        W99724  13.348  16.754  11.037
34245W        W99725  26.145  31.016  11.039
34246W        W99726  24.219  42.513   1.861
34247W        W99727  42.946  32.936   1.870
34248W        W99728  34.899  26.109   0.791
34249W        W99729  31.633  38.387  14.969
34250W        W99730  23.991  31.598   4.259
34251W        W99731   4.257   4.378  10.925
34252W        W99732  10.268  26.969  12.439
34253W        W99733  33.094  39.520   4.826
34254W        W99734  34.986  15.161   2.738
34255W        W99735   7.833  12.227  13.060
34256W        W99736  10.637   7.276   4.834
34257W        W99737   8.866  38.353   0.962
34258W        W99738  39.439  31.423  14.398
34259W        W99739  19.553  34.068  14.504
34260W        W99740  11.296   0.825   2.817
34261W        W99741  37.431  40.439  11.392
34262W        W99742   4.788  31.144   3.644
34263W        W99743  17.679  18.077  10.615
34264W        W99744  11.295   1.449   1.906
34265W        W99745  32.449  28.521   1.438
34266W        W99746  41.434  38.429   1.363
34267W        W99747  24.098  27.995  10.437
34268W        W99748  25.622  12.700  13.909
34269W        W99749  18.083  11.316  10.485
34270W        W99750  29.064  20.751   1.331
34271W        W99751   5.423   4.925   3.273
34272W        W99752  14.133  42.013   9.656
34273W        W99753   9.753   7.734   0.838
34274W        W99754   5.702  23.623  11.558
34275W        W99755   7.810  44.463  11.867
34276W        W99756  23.053   5.754   0.368
34277W        W99757  11.706   0.261  10.561
34278W        W99758  14.702  28.463  13.916
34279W        W99759  39.362   0.884   3.726
34280W        W99760  11.660  20.032  10.459
34281W        W99761   9.850  19.199   2.325
34282W        W99762  13.229  10.203  13.333
34283W        W99763  23.559  12.839   1.222
34284W        W99764  11.185   3.837  11.911
34285W        W99765   5.864  22.180  13.538
34286W        W99766   6.775  16.202  11.570
34287W        W99767  11.263  42.438  12.990
34288W        W99768  44.856  40.479   2.296
34289W        W99769   3.316  30.999   2.867
34290W        W99770   8.344  10.784  10.473
34291W        W99771  22.685  41.030  12.877
34292W        W99772  36.571  13.300   2.317
34293W        W99773  19.687  21.535  10.989
34294W        W99774  43.322  37.068   1.903
34295W        W99775   1.967  32.121   1.773
34296W        W99776  24.128  20.178   1.286
34297W        W99777  19.722  12.720  11.972
34298W        W99778   2.851  44.294   0.261
34299W        W99779  37.416  29.633  12.037
34300W        W99780   7.685  27.466  12.417
34301W        W99781  35.458   0.343   4.651
34302W        W99782   7.333  21.545  13.001
34303W        W99783   5.341  21.615  12.447
34304W        W99784  42.872  28.930  10.412
34305W        W99785   5.207  42.781   4.700
34306W        W99786  29.967  14.777   3.293
34307W        W99787  24.633  33.923  13.881
34308W        W99788   5.716   3.807  13.495
34309W        W99789   3.339  10.166  12.988
34310W        W99790  38.459  31.598  12.045
34311W        W99791   4.738   9.267   4.810
34312W        W99792   6.889  42.799  14.018
34313W        W99793   9.185  36.058  12.354
34314W        W99794  19.069  35.854  14.321
34315W        W99795   9.842  18.606   0.279
34316W        W99796  44.307  28.492   5.292
34317W        W99797  34.383  40.399  14.349
34318W        W99798  22.122   4.728  14.376
34319W        W99799  32.455   7.744  12.519
34320W        W99800  16.726   5.694   0.881
34321W        W99801  38.053  44.461  10.955
34322W        W99802  32.456  23.173   3.165
34323W        W99803  15.196  28.571   4.741
34324W        W99804  16.280  44.909   1.374
34325W        W99805   7.743  27.556  12.903
34326W        W99806  42.857  22.627  13.431
34327W        W99807  38.484  12.268  12.453
34328W        W99808  44.931  42.319  12.398
34329W        W99809  27.628  25.156   2.290
34330W        W99810   6.279  17.619   2.792
34331W        W99811   2.764  30.124   4.125
34332W        W99812  33.524   3.425   2.682
34333W        W99813  39.371   3.749   3.357
34334W        W99814  42.883  38.934  12.353
34335W        W99815  15.666  12.766   0.915
34336W        W99816   7.910  14.300   5.306
34337W        W99817  15.790   4.802   4.237
34338W        W99818  38.482  33.465   2.374
34339W        W99819  12.611  31.442   1.301
34340W        W99820  11.859  18.593   3.265
34341W        W99821   7.189  20.543   3.234
34342W        W99822  28.981  14.724  12.945
34343W        W99823  13.764  44.817   3.275
34344W        W99824  37.577  43.924   3.160
34345W        W99825  17.686   4.760   4.252
34346W        W99826  12.315  36.980   3.655
34347W        W99827   0.429   7.228   1.800
34348W        W99828  29.158  42.516   2.407
34349W        W99829  10.353  27.057   3.291
34350W        W99830  40.497  20.038   5.279
34351W        W99831   5.739  33.036  12.898
34352W        W99832  24.506  26.998   3.148
34353W        W99833  15.768   8.213  13.314
34354W        W99834  28.530  20.633  11.049
34355W        W99835  20.668  15.115  13.837
34356W        W99836  36.035  15.704  12.468
34357W        W99837  17.210   8.326  14.851
34358W        W99838   4.919  22.117   4.115
34359W        W99839   1.461  37.864   1.919
34360W        W99840  23.507  26.501   3.685
34361W        W99841  12.836  23.596  12.024
34362W        W99842  32.451  22.193   1.838
34363W        W99843   9.870   3.774  13.892
34364W        W99844  22.169  15.107  14.838
34365W        W99845  22.602  38.909  14.849
34366W        W99846   7.669  16.147   1.409
34367W        W99847   9.853  38.065   2.754
34368W        W99848  19.095  28.992   3.159
34369W        W99849  15.744  32.051   3.854
34370W        W99850  16.619  14.120  11.046
34371W        W99851   2.842   9.766  12.573
34372W        W99852  25.194  29.547  10.947
34373W        W99853  11.137  10.652   2.881
34374W        W99854  26.995  21.104  12.430
34375W        W99855  25.510  31.429   2.765
34376W        W99856  32.593  33.983   0.818
34377W        W99857  40.837  19.756   3.797
34378W        W99858  24.478  42.957   0.910
34379W        W99859   7.218   0.977   0.476
34380W        W99860  42.463  18.292   9.940
34381W        W99861  31.453  27.193  11.951
34382W        W99862  10.186  23.007   1.351
34383W        W99863  12.120  23.496  14.008
34384W        W99864   5.326  29.089   2.251
34385W        W99865  35.571  12.758  13.379
34386W        W99866  26.609  30.025   0.820
34387W        W99867  41.017  31.963   4.305
34388W        W99868  39.416  16.776  11.566
34389W        W99869   9.855   0.397  13.974
34390W        W99870  20.750  26.640  14.396
34391W        W99871  32.505  10.771   1.804
34392W        W99872   7.718  14.606   2.738
34393W        W99873  25.684  22.239  11.927
34394W        W99874   2.770   2.808  12.875
34395W        W99875  34.013  16.278  12.569
34396W        W99876  23.722   4.795  14.436
34397W        W99877  34.411   5.747  12.855
34398W        W99878  24.981  14.618  12.088
34399W        W99879  29.114   7.297   1.315
34400W        W99880  42.404  41.445  13.924
34401W        W99881  26.137  39.459   2.682
34402W        W99882  40.354   8.404   3.215
34403W        W99883  27.675  31.548  11.898
34404W        W99884  31.404  17.175   3.720
34405W        W99885  16.207  13.143  14.391
34406W        W99886   3.945  35.551  13.896
34407W        W99887  40.382  38.547  10.461
34408W        W99888  16.113   0.379   3.312
34409W        W99889   4.398  44.295   4.136
34410W        W99890  20.728  17.733   2.680
34411W        W99891  16.082  40.908  12.386
34412W        W99892  40.304   9.867  10.431
34413W        W99893  13.345   6.849   1.888
34414W        W99894  27.675  40.862   4.346
34415W        W99895  35.915  17.624   3.378
34416W        W99896  25.626  17.689  13.049
34417W        W99897  26.971   3.878  13.010
34418W        W99898  40.493  44.357  10.532
34419W        W99899   2.400  10.638  10.520
34420W        W99900  30.993  35.428   4.170
34421W        W99901  15.227  12.273  13.917
34422W        W99902  10.787   9.825   0.889
34423W        W99903   5.878   0.937   2.270
34424W        W99904   5.352  25.623   3.264
34425W        W99905  21.256  40.424  13.826
34426W        W99906  20.111  17.272   2.244
34427W        W99907  15.742  24.574   2.321
34428W        W99908   4.389  39.369  11.575
34429W        W99909  21.718  25.033  14.285
34430W        W99910  26.515  36.931  13.808
34431W        W99911   2.279   4.907  12.931
34432W        W99912   8.689  25.629  11.874
34433W        W99913  42.031  33.011   1.265
34434W        W99914   4.288  41.443   2.318
34435W        W99915  39.995  43.380  11.062
34436W        W99916  38.369  14.259   0.827
34437W        W99917  22.650  24.499  10.597
34438W        W99918   7.265  43.005   2.736
34439W        W99919  44.307  22.084  14.978
34440W        W99920  34.615  34.017  10.623
34441W        W99921  28.458  25.214  10.426
34442W        W99922  17.753   1.733   4.127
34443W        W99923  42.295  32.543  11.501
34444W        W99924  41.871  37.519  13.956
34445W        W99925  27.127   9.862  11.879
34446W        W99926  11.819  28.034  11.549
34447W        W99927   4.761  15.767  13.337
34448W        W99928  23.178  38.025   1.354
34449W        W99929  26.994  34.496   4.191
34450W        W99930  26.475  23.170   3.376
34451W        W99931  11.626   3.346   2.780
34452W        W99932  21.706  12.695   2.727
34453W        W99933  20.662  39.509   2.897
34454W        W99934  16.118  26.656   4.170
34455W        W99935  15.798  27.165   2.825
34456W        W99936  31.971  19.582  11.942
34457W        W99937  33.550  44.294  12.005
34458W        W99938  27.655  12.721   2.881
34459W        W99939  43.275   3.413  14.829
34460W        W99940  40.325  34.117  13.508
34461W        W99941  31.417  12.222   3.160
34462W        W99942  24.004  35.048  11.544
34463W        W99943  32.936   5.215  11.599
34464W        W99944   1.291   6.746  10.943
34465W        W99945  35.935  12.144   1.340
34466W        W99946  41.003  13.645   1.863
34467W        W99947   7.347   9.653   4.150
34468W        W99948   5.903  14.771  10.501
34469W        W99949  11.361  33.383  11.378
34470W        W99950  29.437  35.459   2.764
34471W        W99951  16.297  43.830   3.696
34472W        W99952  18.686  44.332   0.910
34473W        W99953  43.331  16.619  13.534
34474W        W99954  37.460  41.322   3.761
34475W        W99955  36.444  21.058   0.966
34476W        W99956  40.494   8.888   4.270
34477W        W99957   6.880  17.619   0.811
34478W        W99958   3.888   2.358  12.980
34479W        W99959  38.914  28.476  11.577
34480W        W99960  28.048  16.270  14.896
34481W        W99961   4.920  41.805  10.495
34482W        W99962   8.347  21.041  14.947
34483W        W99963   5.852  24.029  12.517
34484W        W99964  39.903  25.564   1.837
34485W        W99965  44.851  28.553  12.983
34486W        W99966  31.411  32.000   4.350
34487W        W99967   2.841   3.367   1.895
34488W        W99968  24.611  29.172   2.410
34489W        W99969  11.810  15.132  11.390
34490W        W99970   1.472   8.393   0.413
34491W        W99971  31.972  23.149   1.723
34492W        W99972  17.568  13.325  10.142
34493W        W99973  31.409  41.882   5.249
34494W        W99974   1.259  25.163   4.734
34495W        W99975  30.034  10.832  11.454
34496W        W99976   9.829  36.563   0.410
34497W        W99977   4.786   1.244   3.261
34498W        W99978  17.720  17.778  14.829
34499W        W99979  12.612   8.282   2.362
34500W        W99980  27.016  39.325  13.871
34501W        W99981  11.750  42.438   2.845
34502W        W99982   7.260  35.090  11.961
34503W        W99983  32.015  20.231   4.329
34504W        W99984  38.514  34.555   1.274
34505W        W99985  15.125   8.344  13.800
34506W        W99986  28.074  15.694  13.972
34507W        W99987  17.724  32.061  14.461
34508W        W99988  37.418  38.876  12.491
34509W        W99989  42.833  26.167  12.991
34510W        W99990  37.430  10.727   0.730
34511W        W99991  26.091  40.870  11.992
34512W        W99992   3.778  31.981  10.555
34513W        W99993   7.745  24.658   0.859
34514W        W99994  11.130   0.863  11.461
34515W        W99995  19.691  19.567   1.922
34516W        W99996  27.594  40.964   0.364
34517W        W99997  43.474   3.313   1.790
34518W        W99998   4.285  16.796  13.333
34519W        W99999   1.806  25.043  11.508
34520W        W    0  13.348  14.300   0.447
34521W        W    1  27.075  30.439  11.468
34522W        W    2  29.549  16.281  14.275
34523W        W    3  40.501  18.559   0.752
34524W        W    4  23.123  33.468  14.334
34525W        W    5  28.528  23.532  12.919
34526W        W    6  28.093  14.299   1.277
34527W        W    7   4.231  25.589   1.218
34528W        W    8  43.796  32.030  11.861
34529W        W    9   7.785  14.177  12.888
34530W        W   10  21.670   2.312  13.908
34531W        W   11  24.527  32.620  12.878
34532W        W   12  19.598  43.303   2.665
34533W        W   13  31.623  38.875   1.918
34534W        W   14  34.510  37.983   1.281
34535W        W   15  24.209  11.687   2.245
34536W        W   16  34.551  20.686   4.826
34537W        W   17  21.626   3.227   4.627
34538W        W   18  33.480   0.423   0.376
34539W        W   19   3.240   8.359   4.828
34540W        W   20  43.352   9.358  14.917
34541W        W   21   2.414   5.426   2.848
34542W        W   22  24.091  36.053  14.428
34543W        W   23  42.864  21.661   0.859
34544W        W   24  33.444   9.169   0.948
34545W        W   25   0.810   8.264  10.448
34546W        W   26   4.421  25.128   1.257
34547W        W   27  10.811  32.923   1.379
34548W        W   28  24.217  35.870  11.372
34549W        W   29  31.024   5.849   3.804
34550W        W   30  43.787  17.063   3.354
34551W        W   31   1.973  10.260   3.836
34552W        W   32  42.784   2.416   4.615
34553W        W   33  12.173  13.671   3.225
34554W        W   34  17.766   1.852   1.829
34555W        W   35  15.693   4.713   4.787
34556W        W   36  25.090  34.471  11.391
34557W        W   37  17.227  10.750  11.939
34558W        W   38  12.787  12.666  12.073
34559W        W   39   2.966  14.684  10.984
34560W        W   40  43.337   2.772   3.806
34561W        W   41   8.326  24.480   2.194
34562W        W   42  12.244  32.632  12.561
34563W        W   43  12.333  25.703  13.057
34564W        W   44  32.117  25.148  11.014
34565W        W   45   0.796  28.592  12.884
34566W        W   46  28.987   5.839   4.689
34567W        W   47  16.635  28.156  11.414
34568W        W   48  18.152  43.866  14.776
34569W        W   49  27.518  28.585   0.760
34570W        W   50  34.484  33.925  13.992
34571W        W   51  38.374  10.221  14.996
34572W        W   52   9.338   4.224   1.813
34573W        W   53  11.149  33.439  10.583
34574W        W   54  33.103  40.815  10.469
34575W        W   55   6.341  20.724  11.894
34576W        W   56  42.517  24.504   1.700
34577W        W   57  44.298  19.568   0.791
34578W        W   58   6.423   0.388   9.942
34579W        W   59  22.598   3.808  11.968
34580W        W   60   5.793  26.614   0.292
34581W        W   61  27.647  43.014   2.828
34582W        W   62   8.384   7.379   3.374
34583W        W   63  17.134  42.934   5.156
34584W        W   64  20.253  15.105   3.728
34585W        W   65   7.332  43.839  13.974
34586W        W   66   3.888  26.062   2.887
34587W        W   67  38.962  13.222  13.006
34588W        W   68  23.049  12.647   4.120
34589W        W   69  39.884  30.974  11.885
34590W        W   70  33.052  34.051  11.887
34591W        W   71  13.183  44.754  13.332
34592W        W   72  28.611  19.262  14.385
34593W        W   73  24.635  32.407  12.450
34594W        W   74   0.279  20.269  13.923
34595W        W   75  12.322  36.511  12.958
34596W        W   76  11.745  27.999   1.328
34597W        W   77  36.463  42.882   1.313
34598W        W   78   1.972  23.010   0.280
34599W        W   79  42.949   9.814   4.271
34600W        W   80  41.901  27.067  11.010
34601W        W   81   4.726  32.916   5.113
34602W        W   82  12.630   5.408   0.865
34603W        W   83   0.389  26.665   2.845
34604W        W   84  15.689  38.033  11.416
34605W        W   85  42.781  17.120  12.505
34606W        W   86  10.166  38.356  13.322
34607W        W   87  14.783  16.244  11.520
34608W        W   88  36.527  17.164  12.430
34609W        W   89  43.359  41.993   1.289
34610W        W   90  44.803  27.046  12.848
34611W        W   91  36.914  20.530   3.153
34612W        W   92  12.780  16.125   2.333
34613W        W   93  35.513   5.374   0.409
34614W        W   94  30.654  43.892   3.813
34615W        W   95  42.843   2.913  10.573
34616W        W   96   8.260   7.377  11.374
34617W        W   97  24.067   7.890   4.214
34618W        W   98  43.945   7.686   1.875
34619W        W   99  34.487   8.696  11.399
34620W        W  100   0.401  20.083  13.320
34621W        W  101  44.455   0.870   1.387
34622W        W  102   6.878  30.467  11.572
34623W        W  103  33.610   4.718   3.163
34624W        W  104  24.995  40.417  10.595
34625W        W  105  21.640   2.260  11.394
34626W        W  106  44.458  33.039  12.460
34627W        W  107  21.027  24.527   0.446
34628W        W  108  40.348   6.796  13.006
34629W        W  109  22.721  19.658  11.867
34630W        W  110  28.561  17.082   4.835
34631W        W  111  19.547  31.598  14.906
34632W        W  112  35.583   1.250   4.245
34633W        W  113  32.425  30.933   4.215
34634W        W  114   5.203  42.801   3.272
34635W        W  115  10.656  37.002  11.505
34636W        W  116  13.808   4.442  10.582
34637W        W  117   7.310  20.171   3.197
34638W        W  118   3.799  37.006   0.405
34639W        W  119   9.763   9.383  13.833
34640W        W  120  40.329  43.418  11.498
34641W        W  121  40.862  43.451   0.474
34642W        W  122  13.840  13.311   5.706
34643W        W  123  32.073  10.778   1.879
34644W        W  124  43.485  43.927   3.229
34645W        W  125  18.681  12.246  14.317
34646W        W  126  29.143  24.988  11.052
34647W        W  127  24.191  12.709  12.999
34648W        W  128  11.204  26.604   3.230
34649W        W  129  40.798  37.542   2.370
34650W        W  130  24.095  31.420   1.917
34651W        W  131   9.852  34.020   4.263
34652W        W  132  24.091  30.007   4.168
34653W        W  133  13.147  15.762   4.188
34654W        W  134   9.794  29.082  10.477
34655W        W  135  19.568  26.682   1.257
34656W        W  136  30.430  20.703   2.281
34657W        W  137  21.537  37.915   1.333
34658W        W  138   3.730  37.842  12.562
34659W        W  139  31.944   3.870   3.825
34660W        W  140  27.043  38.825   3.312
34661W        W  141  31.425  11.749  13.882
34662W        W  142  35.575  32.523  10.562
34663W        W  143  37.501  17.726  12.463
34664W        W  144   8.303  16.589  13.004
34665W        W  145  23.619  28.165  14.897
34666W        W  146   9.679  10.374  14.800
34667W        W  147  40.949  42.881   2.803
34668W        W  148   2.765  10.737   0.771
34669W        W  149  39.546  35.031   2.398
34670W        W  150  30.601  41.429   5.200
34671W        W  151   3.400   5.881  13.387
34672W        W  152   7.226  20.065   1.898
34673W        W  153  11.861  30.947  11.879
34674W        W  154  44.308  27.187  14.854
34675W        W  155  25.574   8.209  12.373
34676W        W  156   7.684  42.400   2.296
34677W        W  157  24.202  38.504  11.509
34678W        W  158  14.166   0.322  14.907
34679W        W  159  38.452  23.102   3.163
34680W        W  160  37.397  13.334   2.873
34681W        W  161  39.379   9.877  12.048
34682W        W  162  21.042  12.362   2.734
34683W        W  163  32.577   6.189  11.965
34684W        W  164  40.806  18.099  14.879
34685W        W  165  38.454  14.114   0.311
34686W        W  166   9.734  41.436   4.659
34687W        W  167  25.157  16.198   4.318
34688W        W  168  34.042  44.843   0.800
34689W        W  169  34.495  32.954   0.892
34690W        W  170  21.609   0.830  10.427
34691W        W  171  42.455   7.678   3.649
34692W        W  172  28.633   6.258   3.636
34693W        W  173  31.946   6.786  11.946
34694W        W  174  29.481  21.748   2.269
34695W        W  175  14.590  41.889  13.061
34696W        W  176  35.396   8.402   0.949
34697W        W  177  17.187  14.668   4.701
34698W        W  178   8.876  40.855  11.991
34699W        W  179  43.881  32.433  13.992
34700W        W  180  10.836  26.657   2.666
34701W        W  181  25.528   2.403  14.339
34702W        W  182  42.347   8.857  14.802
34703W        W  183  32.556  25.120  11.534
34704W        W  184   6.864  25.637  11.563
34705W        W  185  28.148  16.226  11.503
34706W        W  186  28.951  41.952  11.929
34707W        W  187  12.730  16.152  13.037
34708W        W  188  42.920  20.150   0.915
34709W        W  189  44.261  42.869  13.356
34710W        W  190  10.712  30.566   0.803
34711W        W  191  11.128  38.930   0.278
34712W        W  192   8.287   2.910  14.291
34713W        W  193  28.076   3.774  11.452
34714W        W  194  42.294  15.264   4.634
34715W        W  195  37.512  10.701   4.283
34716W        W  196  25.091   3.283   4.119
34717W        W  197  24.085  37.902   2.286
34718W        W  198  23.656  32.072  10.405
34719W        W  199   3.733  14.127   3.190
34720W        W  200  40.322  44.933   4.726
34721W        W  201  24.509  14.169   4.327
34722W        W  202  12.635  17.102  11.095
34723W        W  203  42.372  40.870   2.828
34724W        W  204  39.337  43.778   1.812
34725W        W  205  36.893   8.261  11.487
34726W        W  206   2.448   3.246   3.179
34727W        W  207  42.488  12.758  12.541
34728W        W  208  39.489  15.681   4.199
34729W        W  209  17.658  24.171   4.668
34730W        W  210  25.131   1.282   1.722
34731W        W  211  31.552   1.387  12.339
34732W        W  212  40.546  43.766  13.507
34733W        W  213  35.044  18.291   1.733
34734W        W  214  42.814  31.113   3.773
34735W        W  215  44.336  16.080   1.378
34736W        W  216  27.105  21.716  11.604
34737W        W  217  44.431   9.865  13.972
34738W        W  218  32.502  27.050   1.261
34739W        W  219  23.518  35.449   4.208
34740W        W  220  13.105  41.329  13.023
34741W        W  221  28.933  11.805   3.659
34742W        W  222   4.798  10.313   2.894
34743W        W  223  43.410  39.545   0.747
34744W        W  224  30.603   2.956  13.835
34745W        W  225   5.355  13.212  10.415
34746W        W  226  29.535  35.067  14.404
34747W        W  227  18.133   9.316   4.115
34748W        W  228  15.272  12.698  11.559
34749W        W  229  26.097  22.599   0.265
34750W        W  230  20.541  17.183   4.832
34751W        W  231  35.969  14.291   0.337
34752W        W  232   9.338  29.459  13.912
34753W        W  233   5.861  40.499   0.366
34754W        W  234  40.502  13.276   2.362
34755W        W  235  24.513  17.117   2.413
34756W        W  236   6.368  34.417  14.294
34757W        W  237  36.497  37.967  13.815
34758W        W  238  13.700   2.430   3.384
34759W        W  239  13.697  10.381  13.902
34760W        W  240  20.748   0.799  12.409
34761W        W  241  19.772  36.584  10.490
34762W        W  242  37.440  36.968   3.778
34763W        W  243  18.191  15.241  11.018
34764W        W  244  16.795   8.305   1.865
34765W        W  245   3.909  40.430   0.307
34766W        W  246  29.494  19.137   2.183
34767W        W  247  10.293  23.110  10.966
34768W        W  248  18.788   6.845   2.740
34769W        W  249  18.208  28.489  10.146
34770W        W  250  29.924  17.307   2.224
34771W        W  251   3.792   2.239  14.826
34772W        W  252   2.321   9.394   1.316
34773W        W  253  35.583  33.054  13.022
34774W        W  254  34.049   6.318  10.591
34775W        W  255  20.611  26.184   3.637
34776W        W  256  37.504  23.726   3.278
34777W        W  257   1.851  44.875   2.827
34778W        W  258  24.133  15.635   5.271
34779W        W  259   1.941   5.928  14.472
34780W        W  260  39.410  20.612   1.907
34781W        W  261   1.766  29.087   3.289
34782W        W  262  26.984  37.491   5.149
34783W        W  263  41.394  44.293   0.926
34784W        W  264  34.973  32.046   4.314
34785W        W  265  30.909  29.479  11.501
34786W        W  266  16.243  15.257  13.010
34787W        W  267  27.659   5.289   3.213
34788W        W  268  38.019  39.988  10.477
34789W        W  269  25.660  13.225  12.014
34790W        W  270   5.275   0.416   2.798
34791W        W  271   0.750  28.463  10.533
34792W        W  272  17.761   9.743  12.835
34793W        W  273   1.933  31.923   0.386
34794W        W  274  40.317  28.136   2.837
34795W        W  275  14.246  22.087  14.017
34796W        W  276  11.148  41.969   2.785
34797W        W  277   9.828   1.473   4.117
34798W        W  278  16.290   1.391   0.254
34799W        W  279  19.088  44.947  11.899
34800W        W  280  22.702  40.305  14.370
34801W        W  281  27.670  36.474  11.127
34802W        W  282  17.686  41.929  14.475
34803W        W  283  18.581  17.781  13.482
34804W        W  284  39.999  36.990  10.640
34805W        W  285   0.758  41.981   2.200
34806W        W  286   4.740  14.196   0.391
34807W        W  287  36.587   2.259  11.974
34808W        W  288  20.669   6.232  14.859
34809W        W  289   8.743   0.936  13.031
34810W        W  290  34.496  31.570  13.796
34811W        W  291  30.043  35.405   2.230
34812W        W  292  44.991   1.269  11.950
34813W        W  293  15.314   5.313  12.992
34814W        W  294  33.905   7.233  14.423
34815W        W  295  18.149  25.193  12.543
34816W        W  296   0.877   5.227  12.862
34817W        W  297  17.217  24.218  14.328
34818W        W  298  38.903  40.928   0.421
34819W        W  299  23.712  15.715   1.882
34820W        W  300   9.817  33.455   3.342
34821W        W  301  40.469   6.285   0.245
34822W        W  302  12.610  28.676  12.426
34823W        W  303   5.353  29.549   2.288
34824W        W  304  12.821  33.419   4.838
34825W        W  305   6.345  31.947  13.412
34826W        W  306  43.953   0.987   3.347
34827W        W  307  23.680  35.987   4.216
34828W        W  308   9.859  11.277  13.309
34829W        W  309  11.811   8.735  14.965
34830W        W  310   8.844   2.287   0.884
34831W        W  311   2.260  18.078   0.965
34832W        W  312  28.670   8.308   0.474
34833W        W  313   7.252  16.734  10.411
34834W        W  314  36.054  21.174   4.172
34835W        W  315  33.594  33.004   2.382
34836W        W  316  21.241   2.847  14.335
34837W        W  317  36.571  26.480   9.966
34838W        W  318  28.587  27.043  12.865
34839W        W  319   6.258  26.538  11.427
34840W        W  320   8.173  30.943  12.494
34841W        W  321   5.412  28.069  10.156
34842W        W  322  24.673  19.125  14.934
34843W        W  323  27.154   1.906  13.542
34844W        W  324   4.736  35.980   2.874
34845W        W  325   9.319  35.862  12.863
34846W        W  326  20.558  32.481  13.041
34847W        W  327  21.639  41.421   0.848
34848W        W  328  10.240  12.261   0.317
34849W        W  329  21.562  19.176   3.777
34850W        W  330  20.716  33.088  12.047
34851W        W  331  40.000  37.035   4.767
34852W        W  332  39.889  28.094  11.386
34853W        W  333  18.773  43.438  12.579
34854W        W  334   0.265  19.616  10.442
34855W        W  335   0.912  25.496   4.143
34856W        W  336  41.458   5.868  10.907
34857W        W  337  32.088  18.103   2.884
34858W        W  338   1.404  35.450  11.064
34859W        W  339   8.222  44.884  14.868
34860W        W  340  32.490   8.386  14.023
34861W        W  341   6.189  38.483   2.346
34862W        W  342  20.536  25.146   1.280
34863W        W  343  44.306   6.306  14.465
34864W        W  344  31.612  23.649  12.840
34865W        W  345  35.046  43.338   2.829
34866W        W  346  37.392  38.558  12.506
34867W        W  347  11.831  39.442  11.951
34868W        W  348   4.363   8.842  12.996
34869W        W  349   6.688  37.830   3.354
34870W        W  350  37.996  28.485   1.323
34871W        W  351   2.942  14.312   1.764
34872W        W  352   0.833  29.650  10.128
34873W        W  353  41.339  21.729   4.221
34874W        W  354  14.737  30.951  14.891
34875W        W  355  38.861  30.555   9.945
34876W        W  356   6.306   1.237   3.715
34877W        W  357  32.552  20.096  11.466
34878W        W  358   4.828  34.942  12.574
34879W        W  359  44.365  20.737   0.901
34880W        W  360  17.708  15.690   2.396
34881W        W  361  23.058  26.030  11.007
34882W        W  362  14.620  12.281   5.658
34883W        W  363  44.800  32.562  14.817
34884W        W  364  24.481  38.550   0.913
34885W        W  365  30.657  18.229   0.939
34886W        W  366  22.244  20.665   4.710
34887W        W  367   5.196  13.321   0.773
34888W        W  368  31.408  44.003  13.970
34889W        W  369   1.800  24.037   0.306
34890W        W  370  28.038  44.449   2.335
34891W        W  371  38.329  44.772   0.314
34892W        W  372  15.769  23.053  13.982
34893W        W  373  13.670  35.382  10.526
34894W        W  374  26.553  39.525  11.477
34895W        W  375   1.450   2.342  13.795
34896W        W  376  43.903  30.000   2.767
34897W        W  377  11.755  31.085  11.032
34898W        W  378  16.726  33.041   2.210
34899W        W  379  34.447  30.940   3.284
34900W        W  380   8.290   1.465  14.009
34901W        W  381  40.853  11.862   3.222
34902W        W  382   2.790  24.044  11.050
34903W        W  383  40.546  22.641   3.179
34904W        W  384  31.578   9.383  14.997
34905W        W  385   5.350  28.977  11.441
34906W        W  386  41.348  39.511   0.421
34907W        W  387  36.009  11.369  14.402
34908W        W  388   6.281  18.092   1.820
34909W        W  389   2.850  26.009  14.390
34910W        W  390  33.415  38.532  10.898
34911W        W  391  34.543  10.342   4.212
34912W        W  392   9.152  27.666  14.009
34913W        W  393  36.089  34.119   3.320
34914W        W  394   4.841   1.911  14.299
34915W        W  395   2.949  33.966  12.508
34916W        W  396  12.139  14.706  10.608
34917W        W  397  19.656  12.625   3.632
34918W        W  398  41.815  31.494  11.907
34919W        W  399   2.246  15.217  11.552
34920W        W  400  40.543  35.923  10.973
34921W        W  401   1.289  39.355   1.864
34922W        W  402  30.070  44.889   3.171
34923W        W  403   9.789  11.705  11.542
34924W        W  404   9.777   1.338   3.277
34925W        W  405  19.139  23.720   2.206
34926W        W  406  24.111  26.530   3.766
34927W        W  407   6.801  25.469  13.392
34928W        W  408  22.998  12.274  12.351
34929W        W  409   5.897  15.603   4.816
34930W        W  410   0.293  27.019   1.737
34931W        W  411  40.380  19.127   3.683
34932W        W  412  36.351   2.319  14.443
34933W        W  413  41.523  38.543   4.671
34934W        W  414  31.033  10.231  13.449
34935W        W  415  26.951  34.084   2.758
34936W        W  416  36.403   8.723  12.867
34937W        W  417  10.766  35.853   4.771
34938W        W  418  44.875  34.893  14.483
34939W        W  419  18.766  30.000  13.364
34940W        W  420  11.140  35.497  12.842
34941W        W  421  18.211   2.244  14.422
34942W        W  422  26.477  29.609   1.898
34943W        W  423  27.035  44.448  12.085
34944W        W  424  43.278  38.533   0.755
34945W        W  425  38.855   9.670   5.091
34946W        W  426  43.941  34.512  13.832
34947W        W  427  40.916  11.297   1.287
34948W        W  428  20.542  22.220   1.838
34949W        W  429  13.250  25.018  11.891
34950W        W  430  39.484  31.422   0.256
34951W        W  431  14.763  22.575   5.281
34952W        W  432  29.596  14.132   1.886
34953W        W  433  42.952  15.134  14.819
34954W        W  434  16.154  10.682  14.343
34955W        W  435  18.185  44.381  13.402
34956W        W  436   2.386  42.935   0.348
34957W        W  437   0.966  25.162  13.037
34958W        W  438  15.628  22.529  10.550
34959W        W  439  31.955  25.629  11.883
34960W        W  440   3.287  14.627   5.250
34961W        W  441   5.869   2.343   3.196
34962W        W  442  38.054  25.634   3.181
34963W        W  443  43.792  28.982   3.334
34964W        W  444  40.417  20.581   3.844
34965W        W  445   3.778  26.601  12.997
34966W        W  446  25.586  17.101   2.775
34967W        W  447  22.686  11.302   1.848
34968W        W  448  11.717  26.065   2.297
34969W        W  449  22.699  39.037   2.289
34970W        W  450  20.719  16.229   4.229
34971W        W  451  31.983  31.454  12.550
34972W        W  452  35.542  44.464  13.001
34973W        W  453  25.632  41.794   1.768
34974W        W  454  20.208  15.687   4.195
34975W        W  455  20.525   6.181  13.482
34976W        W  456  33.536  20.065   4.820
34977W        W  457  18.225  38.967  11.959
34978W        W  458   8.766  32.468   3.213
34979W        W  459   2.344   3.458  13.513
34980W        W  460  23.012  36.347  12.555
34981W        W  461   0.791  26.057   0.482
34982W        W  462   7.703  21.122  12.948
34983W        W  463  10.724  22.694   1.896
34984W        W  464  25.981   3.825   3.823
34985W        W  465  27.628  19.545  14.834
34986W        W  466  33.057  44.363  14.887
34987W        W  467  25.656   3.327   2.406
34988W        W  468  30.917  40.493   3.323
34989W        W  469  12.846   0.822  11.421
34990W        W  470  18.584  31.634   3.707
34991W        W  471  20.602   0.415  13.855
34992W        W  472  33.902  14.159   1.362
34993W        W  473  35.539  37.909   0.361
34994W        W  474  33.536  17.212   3.386
34995W        W  475  41.891  10.288   1.253
34996W        W  476  23.700  35.880   2.755
34997W        W  477   4.826   1.472   0.453
34998W        W  478  19.573  11.244   9.921
34999W        W  479  39.357  17.081   2.241
35000W        W  480  39.952  40.007   2.276
35001W        W  481   0.926  12.625   4.652
35002W        W  482   0.324  42.900   0.829
35003W        W  483  21.692   6.268   0.749
35004W        W  484  10.316   6.299   0.783
35005W        W  485  18.567  28.955  13.035
35006W        W  486  31.944   1.860   3.732
35007W        W  487  26.613  29.496  12.384
35008W        W  488   6.241  16.617   4.136
35009W        W  489  22.685  18.659  13.423
35010W        W  490  32.994   5.309  13.866
35011W        W  491   7.851  30.159   0.853
35012W        W  492  40.934  32.611  13.856
35013W        W  493  35.960  30.956  11.477
35014W        W  494  20.096   2.260   0.471
35015W        W  495  43.272  35.452   0.926
35016W        W  496   6.773   9.842  12.492
35017W        W  497  10.670  19.280   4.311
35018W        W  498  16.210  37.979   3.145
35019W        W  499   6.866  33.397   4.115
35020W        W  500  38.403  42.831   4.176
35021W        W  501  27.995  31.562  12.439
35022W        W  502  29.468  37.836  12.841
35023W        W  503  17.719  12.797  12.539
35024W        W  504  13.182   3.843   3.655
35025W        W  505   7.882  42.400  11.957
35026W        W  506  13.280  25.649   4.253
35027W        W  507  23.110  35.896  10.630
35028W        W  508  25.992  39.950  11.860
35029W        W  509  25.116  30.948   1.373
35030W        W  510   0.358  15.690  12.882
35031W        W  511  22.132   7.861  10.515
35032W        W  512  37.480  37.878   2.685
35033W        W  513  16.188  35.024   0.887
35034W        W  514   2.265  24.670  10.607
35035W        W  515  11.291  40.810   1.318
35036W        W  516   1.464  17.592   0.315
35037W        W  517  27.488   6.692  13.500
35038W        W  518   0.364  38.412  14.000
35039W        W  519  42.992  28.089  13.816
35040W        W  520  42.477  38.906   2.351
35041W        W  521  15.647  41.990   2.840
35042W        W  522  31.062  26.502   0.778
35043W        W  523  42.860   6.243  14.000
35044W        W  524  17.700  24.612   1.927
35045W        W  525  29.480  31.977  13.967
35046W        W  526  28.172  24.099  12.390
35047W        W  527  36.424   8.344   4.213
35048W        W  528  44.803  16.293   2.826
35049W        W  529   7.813   1.373  13.937
35050W        W  530  23.114  23.722   1.272
35051W        W  531   8.865   3.876   4.688
35052W        W  532  35.991  44.314  13.447
35053W        W  533  36.485  22.583   3.755
35054W        W  534  19.607  30.066  11.894
35055W        W  535  12.317  35.503  15.000
35056W        W  536  41.490  27.142  11.971
35057W        W  537  24.560   7.907  13.370
35058W        W  538  36.871  36.439  13.329
35059W        W  539  31.405  15.605  13.045
35060W        W  540  33.928   0.887  13.431
35061W        W  541  18.702  29.920  11.952
35062W        W  542  37.918  15.249   0.935
35063W        W  543  20.596  28.585   2.790
35064W        W  544  15.177  41.807   3.286
35065W        W  545  20.555   0.286  13.040
35066W        W  546  29.575   5.738  14.813
35067W        W  547  40.009   7.837   1.240
35068W        W  548  20.054  17.147  13.375
35069W        W  549  34.906   5.324   3.205
35070W        W  550   1.296  29.050  12.558
35071W        W  551  41.913  33.390   2.842
35072W        W  552  42.883  16.173  11.546
35073W        W  553  25.469  40.363   0.473
35074W        W  554  44.378  16.156   4.265
35075W        W  555  26.622  10.815   2.405
35076W        W  556  35.898  29.626   0.413
35077W        W  557  16.182   6.343  12.374
35078W        W  558  18.238  30.512  13.881
35079W        W  559  42.343  41.817  12.519
35080W        W  560  28.072  26.462   0.247
35081W        W  561  18.596   1.300  14.974
35082W        W  562  42.802   1.443  14.328
35083W        W  563  44.974   6.814  12.924
35084W        W  564  17.772  12.743   1.398
35085W        W  565  20.745   3.407   2.809
35086W        W  566  39.883   1.308   3.297
35087W        W  567  26.994  42.003   0.319
35088W        W  568  32.010  18.790   4.197
35089W        W  569  39.544  24.019   2.385
35090W        W  570  17.223  15.754  12.518
35091W        W  571  14.296   2.369   5.272
35092W        W  572   2.869  22.512  14.802
35093W        W  573  17.581  37.417   0.361
35094W        W  574  41.971  42.866  14.928
35095W        W  575   5.396  32.133   5.088
35096W        W  576  39.390   6.702   3.696
35097W        W  577  13.691  40.360   0.308
35098W        W  578  12.169  18.072   3.366
35099W        W  579  35.853  44.815   0.244
35100W        W  580  19.097   5.808   0.263
35101W        W  581  11.353   8.706   3.788
35102W        W  582  42.376  17.279  12.023
35103W        W  583  14.724  31.065  14.501
35104W        W  584  26.132  15.293   3.309
35105W        W  585  32.119   6.825   3.379
35106W        W  586  25.475   8.727  11.062
35107W        W  587  41.417  17.302   1.820
35108W        W  588  34.043  17.782   4.156
35109W        W  589  42.429   0.462  12.870
35110W        W  590  35.449  24.484   1.805
35111W        W  591  27.057  30.464   3.795
35112W        W  592  40.929   4.875  11.452
35113W        W  593   9.240   4.845   2.385
35114W        W  594  27.478   5.748   1.374
35115W        W  595  30.462  37.411  10.418
35116W        W  596  40.802  16.794   2.320
35117W        W  597  10.331  22.123  14.417
35118W        W  598  35.987  32.527   0.807
35119W        W  599   4.839  28.176   2.751
35120W        W  600  34.014  34.419  11.472
35121W        W  601  29.037  11.283  10.523
35122W        W  602  30.589  29.550   4.750
35123W        W  603  36.424  43.284  13.485
35124W        W  604  12.799  12.833  11.118
35125W        W  605  21.681  41.909   2.264
35126W        W  606  44.340  35.511  12.405
35127W        W  607  26.095  13.275   0.465
35128W        W  608  17.678  28.633   1.246
35129W        W  609  12.275  37.002  14.957
35130W        W  610  38.443  32.968  13.396
35131W        W  611  38.851  11.643  12.824
35132W        W  612  17.178   1.442   9.974
35133W        W  613   3.452  28.649  14.309
35134W        W  614  19.115  37.580   3.265
35135W        W  615  22.045  16.659  13.805
35136W        W  616  20.539  20.717  14.350
35137W        W  617  14.308   2.433   2.384
35138W        W  618  21.749  21.582  14.826
35139W        W  619  25.014  44.395   4.229
35140W        W  620  44.917   5.194   3.855
35141W        W  621  42.895  32.439   2.364
35142W        W  622  20.134   9.712   2.788
35143W        W  623   0.826  30.549  12.509
35144W        W  624  10.776  38.514   0.830
35145W        W  625   3.215  11.784  12.995
35146W        W  626  39.018  38.440   2.392
35147W        W  627  29.041  15.143  13.318
35148W        W  628  33.592  11.216  12.501
35149W        W  629  30.939   8.735  14.928
35150W        W  630  20.584  18.727  12.843
35151W        W  631  44.795  40.986  14.404
35152W        W  632  42.973  20.676   4.706
35153W        W  633   0.297   2.416  14.979
35154W        W  634   6.884  28.602   4.263
35155W        W  635  29.024  26.150  14.320
35156W        W  636  34.552  17.199   4.185
35157W        W  637  13.302  20.638   4.250
35158W        W  638  43.780  20.138  12.952
35159W        W  639  27.539  26.016   2.282
35160W        W  640  40.449  40.868  10.435
35161W        W  641  22.644  32.056  12.970
35162W        W  642  33.626  23.171   0.324
35163W        W  643   5.254  26.966  11.485
35164W        W  644   7.278  32.571   1.872
35165W        W  645  20.731  39.042  12.870
35166W        W  646  44.793  23.145  13.873
35167W        W  647   0.428  16.635   1.804
35168W        W  648   4.310  23.584   4.645
35169W        W  649   3.737  24.085   0.245
35170W        W  650  35.093  28.090  11.999
35171W        W  651  39.840  34.370   4.718
35172W        W  652   1.927  35.897  14.791
35173W        W  653  40.478  37.907   3.780
35174W        W  654  29.048  38.479  13.016
35175W        W  655  35.563  20.249  14.905
35176W        W  656  26.989  16.204  14.022
35177W        W  657  39.003  12.760  10.645
35178W        W  658  10.846   8.291  10.421
35179W        W  659  27.085  43.279   4.780
35180W        W  660  33.088  26.129   0.907
35181W        W  661  42.313  42.430  10.534
35182W        W  662  31.072  39.406   2.899
35183W        W  663  33.399  32.106   0.958
35184W        W  664  44.765  18.694   0.859
35185W        W  665  14.648   2.272   1.400
35186W        W  666  41.923  23.080   3.747
35187W        W  667   3.942  43.992   1.873
35188W        W  668  34.422  41.840   3.687
35189W        W  669  22.111  22.168   2.674
35190W        W  670   2.365  17.065  13.434
35191W        W  671  37.953  36.860   4.812
35192W        W  672  25.134  32.454  11.377
35193W        W  673  14.705  44.860   1.340
35194W        W  674  35.973  17.099   0.269
35195W        W  675  19.718  39.440  11.094
35196W        W  676   0.959  34.460  11.917
35197W        W  677  12.204   3.723  11.378
35198W        W  678  28.492  18.745  12.529
35199W        W  679   2.357   8.169  14.932
35200W        W  680  35.467   3.784   4.647
35201W        W  681  43.289  16.686   0.483
35202W        W  682  16.286  34.905  12.980
35203W        W  683  22.175  29.939   4.663
35204W        W  684  34.392  35.391   2.226
35205W        W  685  12.849  22.093   2.666
35206W        W  686  32.132  41.961  10.975
35207W        W  687  30.417  24.630   4.670
35208W        W  688  11.363  34.002  14.800
35209W        W  689  33.073   5.883   3.826
35210W        W  690  24.052  39.044  10.069
35211W        W  691  43.823   4.430  13.883
35212W        W  692  21.073  15.781  10.626
35213W        W  693  20.728   2.934  13.428
35214W        W  694  16.290   9.232  11.992
35215W        W  695  18.197  28.105   4.196
35216W        W  696  40.805  27.012   0.897
35217W        W  697  29.094  14.268  14.774
35218W        W  698   9.869  14.639   4.218
35219W        W  699  17.247  15.100  13.801
35220W        W  700  20.129  29.007  12.035
35221W        W  701  41.848  38.888  14.283
35222W        W  702  16.791  17.719  11.378
35223W        W  703   9.730  12.633   4.185
35224W        W  704   4.735  27.508  10.138
35225W        W  705   3.749  11.351   4.303
35226W        W  706  17.231  24.054  10.096
35227W        W  707   9.700   6.868  14.940
35228W        W  708  15.161  44.805   4.636
35229W        W  709   8.176  23.687  13.378
35230W        W  710   9.784  26.061   3.826
35231W        W  711  32.603  35.475   3.267
35232W        W  712  32.978  36.083   0.770
35233W        W  713  31.110  21.124  11.519
35234W        W  714  17.208  38.948   4.646
35235W        W  715  30.589  17.109  13.950
35236W        W  716   2.823  19.580   2.882
35237W        W  717  17.570   8.793   0.822
35238W        W  718  24.147  27.632  10.488
35239W        W  719   5.276   9.247   2.388
35240W        W  720   2.834   8.399  12.484
35241W        W  721   5.380  21.256   1.237
35242W        W  722   8.194  20.638   0.404
35243W        W  723  15.781   6.284   4.775
35244W        W  724  21.140  44.851  12.434
35245W        W  725  34.408  20.246   0.859
35246W        W  726  35.513  24.714  14.883
35247W        W  727   7.890   2.871   1.287
35248W        W  728  41.442  25.136   0.867
35249W        W  729  19.575   9.648  11.958
35250W        W  730  23.686  21.660   0.743
35251W        W  731  34.099  29.979  14.324
35252W        W  732  13.777  14.678   1.700
35253W        W  733  21.163  34.471  10.151
35254W        W  734   7.364  24.070   0.738
35255W        W  735  33.905  22.546  10.532
35256W        W  736   2.960   6.776  11.864
35257W        W  737  11.262  34.045  12.341
35258W        W  738  27.529   1.948  11.016
35259W        W  739  27.462  33.878   0.766
35260W        W  740  12.742  23.638   2.821
35261W        W  741  24.195  17.730   2.874
35262W        W  742  41.842   8.396   4.343
35263W        W  743  35.523  26.492  10.915
35264W        W  744  18.671   1.930   9.931
35265W        W  745  44.884  19.638   3.233
35266W        W  746  32.394  42.428   1.787
35267W        W  747  36.426  27.571  14.495
35268W        W  748  20.151  23.617  12.854
35269W        W  749  15.746  36.947   1.254
35270W        W  750  14.206  36.588   1.935
35271W        W  751  16.618   8.829  12.353
35272W        W  752  13.341  12.842   3.736
35273W        W  753  27.669  35.391   4.829
35274W        W  754   7.728  21.025   2.661
35275W        W  755  44.270  13.196   4.349
35276W        W  756  20.042   3.850   2.191
35277W        W  757  20.082  22.201   1.786
35278W        W  758  39.552  43.339  10.957
35279W        W  759   8.405  27.615  10.429
35280W        W  760  27.651  28.165  11.128
35281W        W  761  23.225  20.617   2.404
35282W        W  762  11.623  44.971  10.947
35283W        W  763  31.908  40.332  11.546
35284W        W  764  13.245  37.036   4.207
35285W        W  765  31.011  41.332  14.444
35286W        W  766  36.923  14.759  12.982
35287W        W  767  10.756  25.565   2.293
35288W        W  768  30.482  30.009   3.239
35289W        W  769  18.080   1.757  12.396
35290W        W  770  28.475   2.254   4.159
35291W        W  771  39.487  15.586  13.539
35292W        W  772   7.727   5.433  13.400
35293W        W  773  12.755   0.492   1.873
35294W        W  774  34.511  35.035   2.833
35295W        W  775  28.162  40.818   2.230
35296W        W  776   4.831  35.995   2.218
35297W        W  777  35.539  12.216   3.240
35298W        W  778  39.512   8.197  13.800
35299W        W  779  14.619   1.416   0.397
35300W        W  780  43.385  21.709  13.976
35301W        W  781   3.772   2.797  14.029
35302W        W  782  18.156  29.600   2.317
35303W        W  783  38.827  10.692   0.419
35304W        W  784  13.239  11.706  13.046
35305W        W  785   0.453   9.776   0.762
35306W        W  786  25.196  18.199   2.301
35307W        W  787  32.950  25.627   3.725
35308W        W  788  22.103  44.396   1.305
35309W        W  789  27.652  16.585   3.187
35310W        W  790  33.572  25.197  11.594
35311W        W  791  36.435  25.168  12.028
35312W        W  792  38.407  41.489   4.327
35313W        W  793  10.686  41.368   4.183
35314W        W  794  39.380  10.846  12.509
35315W        W  795   0.835  18.723  13.410
35316W        W  796  37.410   3.419   3.653
35317W        W  797  22.056  38.559   3.340
35318W        W  798  25.692   8.277  10.510
35319W        W  799   2.844   2.755  14.856
35320W        W  800  28.049   5.773  11.126
35321W        W  801   8.188  18.719   4.151
35322W        W  802  34.930  42.506   1.390
35323W        W  803  44.850  35.085  14.912
35324W        W  804  30.612  19.275  13.391
35325W        W  805  36.933  13.211   3.685
35326W        W  806  13.181  13.276  13.897
35327W        W  807  14.689  29.029  13.001
35328W        W  808   1.906  34.080  11.430
35329W        W  809  10.834   1.883  14.342
35330W        W  810   1.483  32.610   3.352
35331W        W  811  26.979   3.308   4.201
35332W        W  812  23.683  29.993   0.790
35333W        W  813  27.994   2.253   5.232
35334W        W  814   7.881  26.027   1.248
35335W        W  815   3.862  21.024  11.576
35336W        W  816  12.212  16.236  14.770
35337W        W  817  10.283  10.215  10.517
35338W        W  818  32.414  36.438  12.083
35339W        W  819  13.203   9.167  11.885
35340W        W  820   1.303  23.215   4.724
35341W        W  821  10.367  44.985   0.756
35342W        W  822   8.678   6.204  10.888
35343W        W  823  44.348  20.541  11.922
35344W        W  824  35.893  42.457   2.351
35345W        W  825  13.196   5.898   0.362
35346W        W  826  35.980  13.118   4.631
35347W        W  827  32.030  18.751  13.363
35348W        W  828  16.273   7.217   4.807
35349W        W  829  13.744  12.688   2.842
35350W        W  830  33.065   4.876  11.857
35351W        W  831   9.381   0.948   0.962
35352W        W  832  22.107   2.773   3.226
35353W        W  833  28.572  26.160  13.495
35354W        W  834  31.016  44.880   0.271
35355W        W  835  13.679  10.832  10.426
35356W        W  836  42.496  27.035   3.750
35357W        W  837  14.618   0.464  14.987
35358W        W  838  32.022  13.344  11.538
35359W        W  839  33.025  22.743  12.492
35360W        W  840  43.963   1.897  14.402
35361W        W  841  10.814  14.145  13.849
35362W        W  842   2.314  30.555  11.043
35363W        W  843  44.469  42.031   2.272
35364W        W  844  24.051   2.757   0.379
35365W        W  845  27.178  18.271  14.876
35366W        W  846  39.507  34.498   4.206
35367W        W  847   6.424  29.556   1.420
35368W        W  848  13.276   4.837   3.356
35369W        W  849  24.191   5.403  12.086
35370W        W  850  36.971   8.761   3.682
35371W        W  851   5.348  30.608  10.536
35372W        W  852   0.424  44.482  14.844
35373W        W  853  21.719  17.256  10.108
35374W        W  854  28.546  21.756  12.571
35375W        W  855  43.367   3.855   4.743
35376W        W  856  11.213   0.444  12.838
35377W        W  857  32.932   3.934   1.248
35378W        W  858  33.028  34.115  10.469
35379W        W  859  44.811   5.887  12.967
35380W        W  860  37.505  29.138  12.478
35381W        W  861  39.507  24.035  13.806
35382W        W  862  34.455   3.257  12.033
35383W        W  863  21.091  35.034   2.217
35384W        W  864  14.808  24.718   3.254
35385W        W  865   9.665  14.176   1.755
35386W        W  866  42.407  31.982   0.467
35387W        W  867  40.987  25.083   2.245
35388W        W  868  14.135   1.467  14.869
35389W        W  869  25.159   2.727   1.764
35390W        W  870  32.029  18.589  14.918
35391W        W  871   8.361  42.809   3.303
35392W        W  872   6.393  22.216   2.311
35393W        W  873   5.746  30.915  11.575
35394W        W  874  14.791  28.681   3.381
35395W        W  875  41.411   0.846   4.727
35396W        W  876   1.477  32.921   3.280
35397W        W  877  15.784  28.639  14.322
35398W        W  878  40.951   3.403  12.511
35399W        W  879  32.516  17.229   3.243
35400W        W  880  11.803   9.175  14.874
35401W        W  881  42.356  26.028  14.769
35402W        W  882  30.060   2.351   0.292
35403W        W  883  33.593  19.123  14.998
35404W        W  884  25.712  17.076  12.018
35405W        W  885  42.783  39.552   4.211
35406W        W  886   4.706  38.065   1.798
35407W        W  887  25.626  32.506   1.869
35408W        W  888  36.876   6.424  11.374
35409W        W  889   3.399  43.296   1.252
35410W        W  890   4.745  29.466  10.494
35411W        W  891   5.334   3.414  11.382
35412W        W  892  43.794   7.402  12.894
35413W        W  893  19.752  29.132  10.645
35414W        W  894  38.870  31.570   3.705
35415W        W  895  18.633  12.304  10.957
35416W        W  896  12.161  15.286  13.998
35417W        W  897  29.650  19.201   0.893
35418W        W  898   0.267  22.511   0.401
35419W        W  899  14.829  36.869   1.829
35420W        W  900   2.781  18.273   1.261
35421W        W  901   1.815  12.676  10.446
35422W        W  902   5.371  21.162  10.938
35423W        W  903  14.265  35.478  13.032
35424W        W  904   7.724  30.119  13.540
35425W        W  905  33.495  14.823  14.833
35426W        W  906  35.444  41.524  11.888
35427W        W  907  18.622  42.496  10.521
35428W        W  908  41.505   7.868   3.861
35429W        W  909  31.969  17.654  13.909
35430W        W  910  18.565  20.261  10.551
35431W        W  911  28.633  18.280  12.465
35432W        W  912  40.346  19.251   1.221
35433W        W  913  11.833  18.748  14.801
35434W        W  914  23.536  40.857   4.673
35435W        W  915   4.353   4.402   2.402
35436W        W  916  32.948  16.607  12.370
35437W        W  917  22.615  43.477   4.241
35438W        W  918  29.591  26.571  13.324
35439W        W  919   4.428   0.780  11.874
35440W        W  920  36.883  17.098  12.383
35441W        W  921  26.072   0.914  12.024
35442W        W  922  21.739  31.439  11.477
35443W        W  923  16.076  39.001   2.219
35444W        W  924  24.139  37.032   3.352
35445W        W  925  20.740   2.295  10.404
35446W        W  926  26.050   7.709   0.317
35447W        W  927   1.367   0.449   4.662
35448W        W  928  10.289  21.538   3.774
35449W        W  929   1.770  28.029  12.538
35450W        W  930  20.270  14.271   0.414
35451W        W  931  15.211  13.328   1.412
35452W        W  932  10.864  20.653   3.325
35453W        W  933  31.978   3.853   4.180
35454W        W  934  19.147  12.839  10.938
35455W        W  935  16.764   9.376   2.206
35456W        W  936  37.345   6.341   1.321
35457W        W  937  16.711   6.915  10.941
35458W        W  938  19.634  35.902   4.637
35459W        W  939   3.749   7.200  11.873
35460W        W  940  41.300  36.999   2.416
35461W        W  941  32.037  11.154  10.410
35462W        W  942  21.712   3.382  10.551
35463W        W  943  41.900  27.565  14.908
35464W        W  944  43.311  44.944  11.383
35465W        W  945  27.053  38.463   3.360
35466W        W  946  19.591  10.312   2.234
35467W        W  947  37.447  27.531   1.725
35468W        W  948   8.887  30.095  11.606
35469W        W  949   1.866  20.077   1.747
35470W        W  950  25.468  36.847  11.527
35471W        W  951   2.823   3.831   4.274
35472W        W  952  21.103  38.927  13.845
35473W        W  953  19.719  39.427  12.863
35474W        W  954   3.397  16.609  12.042
35475W        W  955  42.894  36.465  13.904
35476W        W  956  41.400  28.470   0.289
35477W        W  957  13.191  17.721  10.404
35478W        W  958  36.943  16.677  11.435
35479W        W  959  10.383  31.088   1.870
35480W        W  960  16.686  13.172  13.431
35481W        W  961  18.149  32.047  11.427
35482W        W  962   3.273  33.036  11.460
35483W        W  963  40.508  30.535  13.457
35484W        W  964  28.458   3.384   3.327
35485W        W  965   4.368  20.632  14.991
35486W        W  966  44.391  24.524   3.229
35487W        W  967  34.602   0.774   3.679
35488W        W  968  33.507   7.288  12.862
35489W        W  969  34.885  34.088  11.396
35490W        W  970  40.974   0.448  12.968
35491W        W  971   6.270  40.885  11.128
35492W        W  972  23.700   9.198   5.244
35493W        W  973  40.817  33.384   3.679
35494W        W  974  36.520  41.320   2.180
35495W        W  975  43.830  38.002   2.213
35496W        W  976  23.054  39.527  13.321
35497W        W  977  43.459  44.426  13.340
35498W        W  978  18.708  18.198  11.570
35499W        W  979  34.376  40.813  10.968
35500W        W  980  44.931  30.914  14.370
35501W        W  981  38.953   1.802  14.390
35502W        W  982  43.767  35.960  14.415
35503W        W  983  17.791   2.807   1.267
35504W        W  984  12.769  11.642  12.341
35505W        W  985   5.335  44.330   2.292
35506W        W  986   8.349  16.138   4.613
35507W        W  987   5.720  39.445  10.453
35508W        W  988  44.770   5.323  12.845
35509W        W  989  11.691   2.833   4.823
35510W        W  990   0.279  14.780  12.918
35511W        W  991   4.286   6.219   4.783
35512W        W  992  44.413  22.164  12.930
35513W        W  993  31.415  24.036  11.404
35514W        W  994  24.097  22.506  12.540
35515W        W  995  25.025  13.338   3.164
35516W        W  996   9.809  27.102   4.809
35517W        W  997  30.981  34.411  10.023
35518W        W  998  37.529  42.440   0.844
35519W        W  999  15.773  21.566  13.356
35520W        W 1000   4.882  11.212  11.020
35521W        W 1001  40.827  33.090   3.809
35522W        W 1002  42.332  38.357   3.313
35523W        W 1003  21.084  18.263  11.411
35524W        W 1004  23.551  26.113  14.921
35525W        W 1005  19.705  38.844  13.965
35526W        W 1006   8.696   9.680  10.613
35527W        W 1007  36.905   5.409   3.639
35528W        W 1008   2.347   7.342  12.365
35529W        W 1009  29.592  13.147  12.868
35530W        W 1010  35.439   8.855   0.303
35531W        W 1011  28.011  41.293   5.779
35532W        W 1012  12.804   4.908  11.007
35533W        W 1013  15.758  22.723   1.261
35534W        W 1014  16.277   9.845   0.294
35535W        W 1015  19.071  10.877  12.038
35536W        W 1016  36.848  37.471   9.943
35537W        W 1017  22.124  29.425   2.264
35538W        W 1018  38.470  37.040  12.093
35539W        W 1019  39.915  35.553   4.637
35540W        W 1020  39.054   2.937  13.457
35541W        W 1021   7.762  26.671   0.898
35542W        W 1022  24.718  17.089   1.285
35543W        W 1023   0.314  28.167   0.926
35544W        W 1024   4.945  34.041  13.383
35545W        W 1025  27.150  19.587  11.461
35546W        W 1026  39.944  15.820   3.305
35547W        W 1027  17.164   7.387  14.993
35548W        W 1028   2.303  43.335  14.021
35549W        W 1029  32.077   5.834  14.759
35550W        W 1030  24.609  14.742   0.317
35551W        W 1031  27.183  38.889   4.598
35552W        W 1032  25.208   7.690   1.765
35553W        W 1033  18.642  13.321  14.417
35554W        W 1034  21.103  18.740  14.289
35555W        W 1035  19.242  24.102  14.419
35556W        W 1036  13.681   1.740   2.825
35557W        W 1037  39.509  40.440   4.709
35558W        W 1038   2.373  27.556  11.586
35559W        W 1039  18.628  24.115   9.998
35560W        W 1040   5.703  23.674  14.295
35561W        W 1041  36.901  13.796   0.328
35562W        W 1042  35.472   2.867  12.060
35563W        W 1043  43.495  20.214  14.290
35564W        W 1044  10.816   6.830   0.906
35565W        W 1045  23.501  41.410   3.656
35566W        W 1046  32.133  31.636   4.211
35567W        W 1047   2.958  17.074  12.841
35568W        W 1048  18.704  34.024   2.866
35569W        W 1049  23.073  34.073  11.951
35570W        W 1050  16.099   4.750   4.243
35571W        W 1051  30.053  12.304   1.821
35572W        W 1052  37.359  24.621  12.512
35573W        W 1053  36.352  22.123   2.372
35574W        W 1054   9.857  32.472  11.554
35575W        W 1055   2.911   7.268  13.432
35576W        W 1056   7.671   1.894  12.002
35577W        W 1057  25.120   7.332  14.802
35578W        W 1058   6.912  32.441   0.950
35579W        W 1059  25.203  40.991   2.671
35580W        W 1060  39.322  35.908   3.325
35581W        W 1061  10.287  35.952  14.975
35582W        W 1062   5.287  27.135   1.715
35583W        W 1063  31.085  29.121  12.369
35584W        W 1064   7.249   1.957   3.814
35585W        W 1065  32.586   0.383  10.939
35586W        W 1066  37.866  26.101   4.701
35587W        W 1067   1.880  35.589  12.091
35588W        W 1068  19.766  30.652   5.105
35589W        W 1069  19.172  12.324   0.267
35590W        W 1070  24.134  37.444  12.492
35591W        W 1071   0.360  41.504   1.445
35592W        W 1072  17.655  15.305   5.147
35593W        W 1073   7.386  19.582   0.326
35594W        W 1074  40.539  19.163  11.879
35595W        W 1075  25.202  18.178  12.904
35596W        W 1076  35.542   6.195   0.339
35597W        W 1077  28.070  32.634  11.964
35598W        W 1078  33.029  16.151   4.132
35599W        W 1079  24.141  14.801  12.543
35600W        W 1080  19.668  25.986   2.195
35601W        W 1081   2.438  10.156   3.830
35602W        W 1082  33.563   4.227  10.080
35603W        W 1083  40.306   6.892   1.255
35604W        W 1084   2.923   7.749   2.767
35605W        W 1085  39.325   6.861  13.909
35606W        W 1086  26.158  25.602   2.786
35607W        W 1087  38.852  22.141  12.578
35608W        W 1088  26.529  36.091  12.515
35609W        W 1089  15.670   0.302   2.758
35610W        W 1090  40.328  33.508   1.278
35611W        W 1091  38.948  40.463   4.689
35612W        W 1092  17.157   8.356  10.485
35613W        W 1093  39.956  29.047   2.384
35614W        W 1094  26.628  32.991  13.981
35615W        W 1095   3.918  18.221   2.666
35616W        W 1096   3.372   3.454  14.482
35617W        W 1097  32.056  40.323  14.759
35618W        W 1098  40.975  11.218   4.691
35619W        W 1099   8.295  36.495   1.779
35620W        W 1100   6.685  11.674  12.341
35621W        W 1101  42.412   9.878  10.941
35622W        W 1102   5.300  33.104   1.927
35623W        W 1103   9.306  15.247   1.888
35624W        W 1104   0.936  24.169   5.161
35625W        W 1105  10.709  12.838   2.246
35626W        W 1106  27.086  19.671   5.140
35627W        W 1107  28.442  36.042   2.712
35628W        W 1108  11.350  32.048  13.516
35629W        W 1109   7.836  17.206   9.961
35630W        W 1110  14.263  18.605   4.711
35631W        W 1111  19.765  13.141   2.241
35632W        W 1112  31.505  28.453   4.763
35633W        W 1113  17.693  20.756   2.834
35634W        W 1114  17.620   3.313  10.602
35635W        W 1115  42.424   1.899   0.301
35636W        W 1116  15.142  14.693  13.475
35637W        W 1117   9.774  44.971  10.961
35638W        W 1118   1.333  31.107   3.317
35639W        W 1119  37.446  38.002  11.515
35640W        W 1120   5.778   5.407   1.767
35641W        W 1121   6.858   6.258   1.258
35642W        W 1122  37.876  36.872   3.842
35643W        W 1123   1.893  37.917  11.071
35644W        W 1124   6.337  16.599   2.332
35645W        W 1125  36.863  16.720  13.457
35646W        W 1126   0.334  19.170   4.772
35647W        W 1127   4.738  42.295  12.905
35648W        W 1128  31.011  25.468  11.452
35649W        W 1129  19.755  44.311   1.359
35650W        W 1130   0.837  44.501   2.813
35651W        W 1131  20.616  41.002  12.542
35652W        W 1132   0.928  15.093  14.924
35653W        W 1133  17.247  26.123   1.252
35654W        W 1134  38.468  33.003   3.717
35655W        W 1135  24.031  15.776   0.350
35656W        W 1136  44.943  39.011   1.296
35657W        W 1137  11.814  33.437  13.418
35658W        W 1138   7.263  10.137   9.945
35659W        W 1139   1.473  42.509  11.012
35660W        W 1140  31.481  21.162  12.481
35661W        W 1141  12.682  24.114   3.199
35662W        W 1142  25.176  24.572  11.926
35663W        W 1143  11.699  21.625  12.361
35664W        W 1144  12.633   2.862  13.481
35665W        W 1145   2.921  39.856   3.711
35666W        W 1146  12.733  36.476  10.566
35667W        W 1147  37.376  15.133  11.587
35668W        W 1148  17.307   0.272  12.373
35669W        W 1149  19.264  26.595   0.924
35670W        W 1150  32.524  19.134   0.788
35671W        W 1151  21.536  33.625   3.236
35672W        W 1152  19.575  35.933  14.971
35673W        W 1153  43.440  18.633  13.497
35674W        W 1154  27.658   5.325  14.885
35675W        W 1155  17.619  18.615   2.741
35676W        W 1156  33.128  28.479  10.444
35677W        W 1157  33.021   5.725   4.124
35678W        W 1158   4.829  10.269   4.677
35679W        W 1159  12.151  29.010   4.762
35680W        W 1160  30.531  21.696   1.848
35681W        W 1161   3.938  41.331  11.378
35682W        W 1162   2.780  14.234  10.914
35683W        W 1163  15.780  13.250   3.363
35684W        W 1164  19.132  27.081  11.497
35685W        W 1165   5.245  32.074   4.201
35686W        W 1166  15.583  40.025  12.561
35687W        W 1167  15.653  26.665   9.984
35688W        W 1168  33.048  35.446   2.877
35689W        W 1169   8.223  28.672  12.376
35690W        W 1170  35.936  31.946  13.812
35691W        W 1171  11.678  41.960  12.847
35692W        W 1172  21.210  18.070   4.258
35693W        W 1173  23.134  33.965   3.827
35694W        W 1174  15.324  34.906   3.334
35695W        W 1175  14.130  37.480  14.395
35696W        W 1176  42.286  28.584   0.868
35697W        W 1177   6.218  15.581   1.703
35698W        W 1178  32.529  42.776   1.401
35699W        W 1179   3.274  20.088   3.205
35700W        W 1180  18.108  42.927  13.809
35701W        W 1181   4.350  19.180   0.315
35702W        W 1182  22.725  34.511   2.271
35703W        W 1183  42.305  23.165   2.875
35704W        W 1184  44.918  13.634   2.270
35705W        W 1185   9.871  32.461  14.299
35706W        W 1186   7.868  16.269   0.373
35707W        W 1187  22.636  20.055  13.050
35708W        W 1188  36.972  15.640   0.782
35709W        W 1189  10.366  43.988   2.745
35710W        W 1190  27.110  16.317  11.517
35711W        W 1191   4.394   9.890  13.507
35712W        W 1192  44.893  42.923  13.935
35713W        W 1193  41.475  21.619   0.252
35714W        W 1194  24.105  17.581  10.485
35715W        W 1195  26.551   7.385   2.338
35716W        W 1196  29.065  28.060   3.328
35717W        W 1197  41.445  21.599  11.045
35718W        W 1198  27.502  17.261  12.529
35719W        W 1199   3.853  44.502  12.883
35720W        W 1200   5.774  11.677  12.865
35721W        W 1201  28.465   4.334   0.840
35722W        W 1202   6.342  12.193   3.662
35723W        W 1203  20.630   1.437   1.764
35724W        W 1204  39.475   3.717  13.968
35725W        W 1205  34.439  10.246  13.899
35726W        W 1206   9.383   6.323   3.358
35727W        W 1207  27.499  28.163  12.566
35728W        W 1208  25.637  23.161  11.561
35729W        W 1209   2.878   7.353  11.429
35730W        W 1210  11.351  29.438  13.964
35731W        W 1211  19.780  24.481  12.369
35732W        W 1212  37.514  22.067  10.471
35733W        W 1213   7.209  33.532  11.911
35734W        W 1214   4.884   8.692   1.242
35735W        W 1215   5.689   9.262   1.852
35736W        W 1216  19.106  36.442   3.850
35737W        W 1217  24.121  32.626   3.366
35738W        W 1218  11.141   4.719   1.298
35739W        W 1219  17.648  23.084   2.807
35740W        W 1220   6.394  32.398   1.218
35741W        W 1221  18.666  21.209   1.257
35742W        W 1222  41.444  28.552  11.897
35743W        W 1223   8.770  44.287   1.787
35744W        W 1224  39.883  13.249   0.751
35745W        W 1225  32.087  40.492  13.924
35746W        W 1226  12.816   5.910  12.532
35747W        W 1227   1.462  40.961   4.269
35748W        W 1228  41.462  25.986  10.510
35749W        W 1229  30.613  36.054   1.831
35750W        W 1230  24.088  18.287  10.024
35751W        W 1231  29.057  18.172  14.388
35752W        W 1232   7.794  24.566  11.877
35753W        W 1233  34.015  30.134   1.696
35754W        W 1234  18.137  14.244   1.433
35755W        W 1235  32.019   9.860  12.536
35756W        W 1236   2.871   8.287   1.775
35757W        W 1237   8.742   2.446   1.805
35758W        W 1238  35.985  21.627  12.367
35759W        W 1239  38.336  21.230  12.542
35760W        W 1240  23.085  18.582  12.397
35761W        W 1241  40.412  32.584   1.708
35762W        W 1242  11.764  23.700   4.716
35763W        W 1243  43.287   4.212   3.817
35764W        W 1244  35.039  23.116  11.972
35765W        W 1245  44.402  21.564   2.767
35766W        W 1246   6.867  19.166   0.446
35767W        W 1247  12.133  22.510  14.367
35768W        W 1248  38.491   1.754   2.827
35769W        W 1249  30.947   6.904   2.393
35770W        W 1250  29.466  28.595  12.077
35771W        W 1251  33.966   4.210   3.202
35772W        W 1252  29.540  35.893  13.920
35773W        W 1253  33.937  20.160   0.397
35774W        W 1254  42.783   7.904   1.445
35775W        W 1255  39.014  37.059   4.609
35776W        W 1256  10.349  19.609   3.209
35777W        W 1257  44.432  44.888   1.915
35778W        W 1258  38.360   4.271   2.827
35779W        W 1259  33.962  22.152  13.363
35780W        W 1260  26.992  31.959   2.838
35781W        W 1261   6.821   6.357  14.957
35782W        W 1262   5.209  25.685  12.476
35783W        W 1263  24.550  19.250  12.046
35784W        W 1264  19.276  39.388  10.990
35785W        W 1265   6.733   4.746  13.035
35786W        W 1266  27.682  13.254  12.538
35787W        W 1267  42.972  39.513   2.392
35788W        W 1268  31.443  13.775   4.165
35789W        W 1269   2.230  22.072  12.027
35790W        W 1270  41.893  33.619  11.594
35791W        W 1271  11.710  31.068   4.650
35792W        W 1272  31.448  28.550   0.756
35793W        W 1273  14.151   2.305   0.361
35794W        W 1274  23.063  12.361  10.522
35795W        W 1275  21.234   0.398   0.408
35796W        W 1276  14.633  28.611  11.498
35797W        W 1277  22.518   9.286   3.816
35798W        W 1278  40.987  19.044   0.738
35799W        W 1279  10.655  14.747  12.511
35800W        W 1280   2.235  27.186   3.326
35801W        W 1281   8.781   2.359   0.396
35802W        W 1282   9.872  25.575   2.761
35803W        W 1283  16.783  21.559   0.957
35804W        W 1284  18.645  26.076   3.171
35805W        W 1285  12.752  28.124  13.358
35806W        W 1286   4.439   4.801  13.019
35807W        W 1287   7.795  37.516   5.150
35808W        W 1288  19.646   9.383   2.844
35809W        W 1289   1.305  15.711  10.944
35810W        W 1290  35.052   6.910   4.136
35811W        W 1291  18.129   7.254   3.851
35812W        W 1292   4.376  35.010   1.227
35813W        W 1293  14.733  10.637  11.436
35814W        W 1294   0.378  23.582   0.307
35815W        W 1295  38.351  33.086   1.858
35816W        W 1296  24.164  37.050   4.130
35817W        W 1297  42.484  30.443   1.756
35818W        W 1298  36.005   7.864  13.881
35819W        W 1299  30.142  26.679  13.845
35820W        W 1300  38.408  15.677  14.913
35821W        W 1301  42.798  16.679  10.998
35822W        W 1302   4.243  44.269  13.966
35823W        W 1303  27.553  37.549   3.768
35824W        W 1304   5.861  39.860  12.926
35825W        W 1305  44.304  19.080   1.792
35826W        W 1306  26.580  41.374  11.596
35827W        W 1307  13.721  15.326  10.586
35828W        W 1308  25.678  38.918  14.956
35829W        W 1309   1.243  11.207   2.843
35830W        W 1310  19.148  10.144   0.334
35831W        W 1311  29.627  14.234   0.933
35832W        W 1312  39.882  25.509  12.991
35833W        W 1313  11.331  39.335   4.262
35834W        W 1314  24.112  22.174   0.461
35835W        W 1315  37.901  10.254  12.357
35836W        W 1316  24.023  16.692  14.848
35837W        W 1317  17.720   8.691  14.478
35838W        W 1318  25.640  23.553  13.928
35839W        W 1319  43.952  14.173  12.540
35840W        W 1320  24.589  16.812  10.413
35841W        W 1321  42.510  11.716  11.407
35842W        W 1322  42.921  10.286  14.336
35843W        W 1323  36.982  40.495   2.373
35844W        W 1324  33.002  27.027   1.859
35845W        W 1325  31.937   0.889   0.373
35846W        W 1326  24.542   3.342  12.390
35847W        W 1327  10.172  12.797  14.008
35848W        W 1328   6.251   0.825  14.822
35849W        W 1329  21.535   5.425   1.856
35850W        W 1330  15.239  34.458  14.341
35851W        W 1331  15.224  40.862   0.793
35852W        W 1332  25.038  12.763  14.020
35853W        W 1333   3.452   1.855  12.359
35854W        W 1334  13.679  20.060  13.456
35855W        W 1335   1.903   4.914  13.318
35856W        W 1336  41.423  14.104  10.629
35857W        W 1337  33.473  12.182   3.716
35858W        W 1338  20.590  15.770   3.278
35859W        W 1339  33.510  16.121  12.091
35860W        W 1340  23.036  40.495  12.339
35861W        W 1341  42.394  24.098  13.525
35862W        W 1342   5.896   6.853  10.479
35863W        W 1343   8.378  21.723   1.800
35864W        W 1344  35.909  24.128   2.354
35865W        W 1345   6.362  19.598   1.210
35866W        W 1346   1.742   0.337  11.024
35867W        W 1347   2.957   4.354   0.888
35868W        W 1348  17.228  30.925   3.298
35869W        W 1349  17.752  23.007  11.460
35870W        W 1350  28.579   1.957  14.928
35871W        W 1351   6.352   6.730  14.358
35872W        W 1352   7.741  29.109   3.260
35873W        W 1353   3.375   2.328  13.890
35874W        W 1354  23.597  40.958   1.277
35875W        W 1355  33.456  19.584  12.023
35876W        W 1356  39.383   9.876   4.792
35877W        W 1357   0.349  43.770   2.352
35878W        W 1358  41.966  14.825  13.321
35879W        W 1359  23.989   5.713  13.035
35880W        W 1360  24.517   0.413   4.809
35881W        W 1361  33.536   6.249   3.667
35882W        W 1362   5.692  20.131   0.894
35883W        W 1363  34.112  12.830  11.400
35884W        W 1364  44.481  30.988   0.378
35885W        W 1365  44.497  14.682  10.445
35886W        W 1366   0.866   8.323  12.906
35887W        W 1367  16.256  25.977   3.242
35888W        W 1368   6.912   1.965  12.474
35889W        W 1369  26.080  19.231  10.532
35890W        W 1370  39.537   1.884   3.316
35891W        W 1371   5.300   4.245  12.971
35892W        W 1372  31.146   6.260  13.373
35893W        W 1373  20.268  35.590   3.635
35894W        W 1374  12.836  37.421  14.805
35895W        W 1375   8.187  21.125   3.292
35896W        W 1376  11.320  24.652  14.970
35897W        W 1377  42.452  39.999  10.633
35898W        W 1378  24.624  17.141  13.814
35899W        W 1379  43.958  29.629  11.564
35900W        W 1380  24.212  41.811  11.971
35901W        W 1381  23.610   5.297   2.868
35902W        W 1382  20.041   0.807  10.459
35903W        W 1383   0.337  36.503   3.337
35904W        W 1384   8.390  25.109   3.843
35905W        W 1385  13.162  22.052  10.553
35906W        W 1386   9.316  26.997  11.440
35907W        W 1387   1.766  27.681  14.986
35908W        W 1388  19.111  14.273  14.516
35909W        W 1389   0.965  44.439  13.842
35910W        W 1390  10.151  27.945   2.724
35911W        W 1391   1.870  12.358  14.830
35912W        W 1392  31.070   4.446   2.354
35913W        W 1393  24.009  14.283   4.742
35914W        W 1394   7.183  15.684   4.218
35915W        W 1395  10.242  41.983  10.476
35916W        W 1396  44.004  35.586  11.102
35917W        W 1397   4.296  17.170  13.810
35918W        W 1398  23.658   2.330  10.417
35919W        W 1399  30.524  43.489   1.348
35920W        W 1400   3.294   7.401   3.821
35921W        W 1401  42.880   9.332  11.993
35922W        W 1402   3.744  29.067   1.267
35923W        W 1403  10.795  17.798   2.716
35924W        W 1404  24.093  20.163  11.425
35925W        W 1405  38.360  11.718   1.783
35926W        W 1406  16.255   3.824   0.738
35927W        W 1407  29.465  26.530  14.387
35928W        W 1408  26.681  20.572   0.305
35929W        W 1409  18.260   0.771   4.626
35930W        W 1410  30.985  38.886  11.522
35931W        W 1411  11.810  29.953  14.846
35932W        W 1412  20.144  39.516   1.868
35933W        W 1413  38.524   3.746   1.928
35934W        W 1414  22.586  15.286   3.258
35935W        W 1415  11.669  15.213   3.165
35936W        W 1416  24.994  10.286  10.899
35937W        W 1417   4.926   3.400   0.330
35938W        W 1418  28.459  12.786  14.315
35939W        W 1419  11.808  31.953  10.521
35940W        W 1420  25.997  32.980   1.344
35941W        W 1421   7.901  42.471  14.512
35942W        W 1422  43.511   5.392  11.387
35943W        W 1423  29.575  42.361  12.825
35944W        W 1424  43.400  29.481   2.265
35945W        W 1425  10.711  12.125   3.695
35946W        W 1426  12.809  27.481   3.826
35947W        W 1427  28.132  38.371  12.975
35948W        W 1428  16.617  20.184   1.305
35949W        W 1429   0.880  35.595   4.344
35950W        W 1430  31.034  12.649   2.264
35951W        W 1431  17.623   6.190   2.896
35952W        W 1432   1.806  21.177   1.234
35953W        W 1433  32.987  39.428  12.386
35954W        W 1434  41.364  40.904   4.322
35955W        W 1435  25.662  33.022  14.395
35956W        W 1436  39.332  41.530  14.464
35957W        W 1437  20.741   4.729   4.206
35958W        W 1438  16.144  37.476  12.451
35959W        W 1439  13.840  22.646   0.481
35960W        W 1440  41.939  40.367   3.701
35961W        W 1441   1.848  23.593  11.572
35962W        W 1442  15.225  43.274   2.253
35963W        W 1443  11.769  34.415  13.886
35964W        W 1444  15.610  18.145  14.796
35965W        W 1445  31.953  34.064  14.981
35966W        W 1446  15.637  19.063  11.578
35967W        W 1447   4.927  13.699  11.583
35968W        W 1448  35.004  18.705  14.821
35969W        W 1449  37.060  42.449  13.370
35970W        W 1450  38.992  21.093  13.437
35971W        W 1451  10.141  14.144  13.964
35972W        W 1452  28.514  39.845   2.804
35973W        W 1453  14.676  38.563   3.316
35974W        W 1454  32.951  21.033  14.832
35975W        W 1455  16.249   0.297  12.434
35976W        W 1456   0.766   3.402   0.770
35977W        W 1457   6.852  24.177   3.845
35978W        W 1458  33.024   5.928  14.474
35979W        W 1459  25.025   1.356  10.486
35980W        W 1460  20.173   6.262  12.978
35981W        W 1461  13.717  24.597   4.646
35982W        W 1462  11.774  41.825  11.054
35983W        W 1463  40.363  42.918  14.943
35984W        W 1464  43.483  42.983  12.845
35985W        W 1465  24.994  25.469   4.750
35986W        W 1466   5.413  23.125   2.901
35987W        W 1467   2.774  24.649   4.216
35988W        W 1468  40.969  17.139  12.888
35989W        W 1469  42.373  20.030   5.238
35990W        W 1470   5.223  36.949   0.817
35991W        W 1471  31.092  34.560   2.357
35992W        W 1472  10.742  22.505   2.197
35993W        W 1473  25.705   7.319  11.571
35994W        W 1474   7.820  42.860   2.722
35995W        W 1475  18.077  21.125   1.831
35996W        W 1476  38.998  41.329   2.874
35997W        W 1477  37.897  15.710   1.749
35998W        W 1478  44.306  31.429  10.514
35999W        W 1479  18.787  43.510   3.363
36000W        W 1480   9.312   3.339   4.693
36001W        W 1481  22.083  27.121   2.737
36002W        W 1482  37.841  11.253   0.832
36003W        W 1483  36.502  44.399  10.466
36004W        W 1484  24.706  32.566   0.357
36005W        W 1485  19.714  28.955  13.986
36006W        W 1486  31.055  16.092   2.732
36007W        W 1487   0.945  35.945  12.567
36008W        W 1488   7.222  44.761   3.293
36009W        W 1489  32.535  34.867  11.478
36010W        W 1490  40.870  44.313   0.841
36011W        W 1491  34.598  27.615   2.298
36012W        W 1492   2.791  14.793   4.192
36013W        W 1493   5.284  44.372  13.862
36014W        W 1494  34.072  39.982  11.591
36015W        W 1495   3.353   8.359   2.679
36016W        W 1496   0.983  27.546  12.389
36017W        W 1497  35.457   6.214   1.781
36018W        W 1498   6.226   6.739  12.348
36019W        W 1499  26.027  13.801  12.858
36020W        W 1500  21.074  17.684   1.826
36021W        W 1501  26.954  24.207   3.341
36022W        W 1502  20.572  39.034  14.474
36023W        W 1503  31.152   7.363  12.477
36024W        W 1504  26.673  18.286  12.498
36025W        W 1505  32.625   3.798  12.079
36026W        W 1506  12.307  31.910  11.440
36027W        W 1507  31.511   6.406   3.737
36028W        W 1508  14.329   3.930   4.695
36029W        W 1509  25.693  28.516  12.494
36030W        W 1510   3.715  39.383  12.481
36031W        W 1511  17.257   5.900   2.856
36032W        W 1512   8.824  28.579   2.303
36033W        W 1513  42.899  21.130  11.422
36034W        W 1514   4.377   1.957   4.835
36035W        W 1515   5.270  17.273  14.758
36036W        W 1516  23.069  10.698  13.370
36037W        W 1517  12.798   5.299  12.450
36038W        W 1518   6.225  35.033  10.921
36039W        W 1519   7.293   7.898   2.259
36040W        W 1520  40.830   3.823  14.904
36041W        W 1521  18.685  28.068   4.614
36042W        W 1522  13.727  42.409  12.889
36043W        W 1523   4.232  41.371   2.747
36044W        W 1524  25.213  25.099  13.904
36045W        W 1525  33.084  16.629   3.655
36046W        W 1526  42.341  34.513  11.912
36047W        W 1527  26.136   0.380  12.993
36048W        W 1528  27.589   4.924   1.354
36049W        W 1529   8.293  26.489  10.944
36050W        W 1530  11.290   6.812  12.040
36051W        W 1531  34.950  28.543   0.384
36052W        W 1532  26.543  30.532  11.119
36053W        W 1533  32.493  15.311   4.793
36054W        W 1534  18.778  30.925  14.449
36055W        W 1535  18.173  43.847   0.454
36056W        W 1536   4.896  33.472   0.844
36057W        W 1537  41.918  21.167   2.903
36058W        W 1538  18.245  39.382  12.377
36059W        W 1539  38.983  14.241  11.578
36060W        W 1540  41.354  38.459  13.530
36061W        W 1541   5.786  25.024   4.318
36062W        W 1542  15.776  27.458  14.448
36063W        W 1543  43.392  39.007   4.202
36064W        W 1544  35.426  36.061   2.763
36065W        W 1545  44.284   1.466  10.540
36066W        W 1546   6.920   0.824   1.780
36067W        W 1547  10.834  32.959   1.868
36068W        W 1548  10.301  34.566   1.880
36069W        W 1549  32.546  20.065   4.273
36070W        W 1550  34.973  37.459  13.422
36071W        W 1551  36.950  12.272  10.960
36072W        W 1552  22.035  38.556   4.791
36073W        W 1553  34.472  12.776  13.330
36074W        W 1554  40.407  13.286  12.050
36075W        W 1555  24.571  18.094   0.306
36076W        W 1556  29.047  36.009   3.203
36077W        W 1557   5.287  43.865   2.308
36078W        W 1558  38.377  24.571  13.465
36079W        W 1559   7.676  39.872  13.411
36080W        W 1560  39.950  37.071  14.286
36081W        W 1561   9.755  19.570   0.954
36082W        W 1562  13.152   2.429   0.392
36083W        W 1563  27.128  34.560  11.967
36084W        W 1564   2.230  19.106  13.805
36085W        W 1565  12.687  26.566  12.003
36086W        W 1566   3.219  23.692   4.603
36087W        W 1567  41.306  30.128   4.628
36088W        W 1568  38.857  32.129   1.247
36089W        W 1569  40.423   1.378   3.163
36090W        W 1570  18.244  33.420   3.303
36091W        W 1571  30.051  26.109   3.701
36092W        W 1572  44.886  44.419  13.502
36093W        W 1573  17.623  42.456  13.334
36094W        W 1574  21.668  10.859  13.801
36095W        W 1575  37.393  13.700  12.404
36096W        W 1576  38.003  35.367   4.700
36097W        W 1577  23.187  43.874   3.744
36098W        W 1578  37.835   7.412   4.783
36099W        W 1579  21.044  43.439   4.757
36100W        W 1580  16.625  19.142  11.390
36101W        W 1581  21.702  10.310  13.017
36102W        W 1582  25.208  15.126   0.929
36103W        W 1583  36.479  25.066   2.705
36104W        W 1584  17.281  41.417   3.189
36105W        W 1585  40.827  14.167  11.462
36106W        W 1586  41.001   2.372  14.848
36107W        W 1587   0.877  34.563   2.719
36108W        W 1588  30.556  11.787   3.223
36109W        W 1589  32.476  29.073   1.919
36110W        W 1590  19.192  11.155   4.771
36111W        W 1591  35.920  41.887  14.309
36112W        W 1592  27.578  18.205  10.452
36113W        W 1593   9.722  30.495   1.921
36114W        W 1594  33.567  22.180   1.336
36115W        W 1595  42.891   3.339  11.516
36116W        W 1596  33.016  26.034   0.330
36117W        W 1597  32.463  27.036   4.318
36118W        W 1598  30.138  21.532  11.430
36119W        W 1599  15.792   7.292   4.339
36120W        W 1600  13.705  32.430   1.796
36121W        W 1601  32.410   0.838  14.493
36122W        W 1602  31.559  44.420  12.976
36123W        W 1603  28.627   9.341   1.875
36124W        W 1604  41.322  27.024   4.240
36125W        W 1605   1.255   1.807  14.960
36126W        W 1606  37.439  32.005   4.822
36127W        W 1607  38.338   4.797   0.752
36128W        W 1608  32.070  15.189   0.853
36129W        W 1609  38.004  10.652  13.473
36130W        W 1610  34.571  27.052   2.791
36131W        W 1611  35.927  18.237   0.411
36132W        W 1612  40.314  23.196  14.996
36133W        W 1613  13.633  29.529  10.426
36134W        W 1614  21.670   5.276  10.407
36135W        W 1615  25.018  43.479   1.757
36136W        W 1616  28.103   4.321   2.347
36137W        W 1617   4.765  30.127  12.416
36138W        W 1618  11.318  34.086   0.817
36139W        W 1619  33.441  11.229   4.658
36140W        W 1620   2.862  29.003  12.554
36141W        W 1621  31.061  11.781   0.360
36142W        W 1622  27.139  28.650  10.999
36143W        W 1623  25.999  34.475  14.282
36144W        W 1624  38.015   0.291   0.874
36145W        W 1625  12.825  13.288   5.168
36146W        W 1626  41.295   5.202  14.335
36147W        W 1627  19.704  25.160   3.155
36148W        W 1628  19.590   0.965   1.872
36149W        W 1629   5.775  37.380  10.963
36150W        W 1630  28.072   9.231   3.713
36151W        W 1631   9.672   0.899   2.193
36152W        W 1632  29.636  42.363  14.291
36153W        W 1633   4.900  27.478  11.402
36154W        W 1634  31.489  34.545  13.010
36155W        W 1635  27.073  23.726   2.769
36156W        W 1636  39.406  18.227  13.542
36157W        W 1637   2.264  19.173  12.085
36158W        W 1638  19.726  37.474   1.898
36159W        W 1639  26.148  14.282  14.978
36160W        W 1640  22.688  37.365   1.801
36161W        W 1641  14.302  37.034   2.780
36162W        W 1642  41.389  41.030  13.861
36163W        W 1643  43.338  36.920  11.392
36164W        W 1644  25.570  32.066  10.014
36165W        W 1645  16.184   1.442   2.781
36166W        W 1646  15.608  19.156   3.675
36167W        W 1647  22.122  43.357   5.188
36168W        W 1648  37.579  35.907   4.331
36169W        W 1649  11.796  24.527  13.889
36170W        W 1650  40.000   4.878  13.939
36171W        W 1651  27.064  22.124  14.028
36172W        W 1652   3.326  26.630   3.196
36173W        W 1653  22.712  24.496   0.905
36174W        W 1654  24.493  17.798  11.469
36175W        W 1655  13.194   1.417   4.140
36176W        W 1656  28.174   9.881   1.384
36177W        W 1657  30.471  25.560   3.823
36178W        W 1658  32.101  20.210   0.447
36179W        W 1659  35.940  40.909  11.918
36180W        W 1660  30.644  28.645  13.364
36181W        W 1661  20.559   3.902   3.353
36182W        W 1662  12.194  22.032   0.764
36183W        W 1663  26.076  36.408  11.450
36184W        W 1664  30.492   6.274  12.984
36185W        W 1665   9.192  30.476  14.929
36186W        W 1666  38.481  36.441   3.656
36187W        W 1667  43.845  39.479  13.468
36188W        W 1668  21.645  27.182   0.824
36189W        W 1669   9.807  22.137  10.644
36190W        W 1670  11.743   6.325  13.319
36191W        W 1671  20.725  31.114   1.833
36192W        W 1672  19.050  38.923   0.794
36193W        W 1673  42.343  44.364   0.965
36194W        W 1674   0.252  44.007   4.230
36195W        W 1675  15.202  13.679  11.862
36196W        W 1676  43.976   4.323  12.854
36197W        W 1677   9.662  28.937   4.605
36198W        W 1678  36.028  29.945   3.794
36199W        W 1679  11.257  22.548  11.947
36200W        W 1680  16.228  17.716   4.692
36201W        W 1681   2.282  18.762  12.058
36202W        W 1682  18.153  43.342   0.800
36203W        W 1683   2.387   2.823   3.263
36204W        W 1684  18.677  22.202   2.672
36205W        W 1685   4.942   3.855  10.545
36206W        W 1686   7.385  36.483  12.002
36207W        W 1687  38.504  19.273   1.701
36208W        W 1688   3.354  39.913   4.836
36209W        W 1689  39.003  43.398   1.874
36210W        W 1690   4.703   4.409  10.150
36211W        W 1691  13.767  19.098  13.042
36212W        W 1692  39.844  25.531  12.052
36213W        W 1693  33.075  17.259   1.428
36214W        W 1694  10.186  25.533  10.981
36215W        W 1695   5.838  35.576  13.327
36216W        W 1696  39.497  23.524   0.313
36217W        W 1697  34.011  10.292  11.081
36218W        W 1698   9.647  17.765   4.692
36219W        W 1699  26.958  23.055   0.728
36220W        W 1700  23.537  29.432  11.957
36221W        W 1701  18.574  39.855  11.398
36222W        W 1702  38.958  41.945   4.732
36223W        W 1703  37.514  23.142   4.206
36224W        W 1704   1.938  37.046   4.315
36225W        W 1705   7.867  10.825  14.879
36226W        W 1706  26.065   4.857   0.407
36227W        W 1707  16.727   0.763   2.704
36228W        W 1708   8.836   0.255   4.677
36229W        W 1709  20.093   7.307   3.866
36230W        W 1710  28.437   4.781  10.080
36231W        W 1711  10.833  37.964  12.932
36232W        W 1712   4.887  43.307   0.945
36233W        W 1713  29.156  25.201   3.228
36234W        W 1714  30.918  21.207  13.042
36235W        W 1715  42.887  31.612  14.418
36236W        W 1716   9.685  39.494   1.818
36237W        W 1717  28.497  23.526   1.777
36238W        W 1718  14.098   3.257  11.556
36239W        W 1719  25.122   5.888  11.951
36240W        W 1720  43.457   7.798   2.888
36241W        W 1721  35.927  13.338   2.190
36242W        W 1722   0.951  30.640   1.255
36243W        W 1723   9.755  32.964   2.255
36244W        W 1724   0.249  33.046  13.986
36245W        W 1725  33.391  21.257  12.381
36246W        W 1726  26.671  17.076   3.378
36247W        W 1727  40.962  21.263  14.836
36248W        W 1728  33.585  21.665   3.224
36249W        W 1729   7.216   8.862   4.693
36250W        W 1730  27.974   8.856   2.817
36251W        W 1731  42.015   2.784   0.787
36252W        W 1732  34.889  14.109   1.753
36253W        W 1733  42.301  38.382  13.928
36254W        W 1734   9.379  36.503  14.301
36255W        W 1735  12.769  41.835  10.425
36256W        W 1736  44.811  42.822  11.420
36257W        W 1737  35.601  16.291  11.462
36258W        W 1738  36.041   6.216   0.890
36259W        W 1739  30.060   4.248   3.644
36260W        W 1740  44.965  27.992  10.420
36261W        W 1741   7.375   6.330   0.958
36262W        W 1742  33.074  26.680   3.690
36263W        W 1743   0.779  42.943   1.397
36264W        W 1744  17.157   0.960   1.235
36265W        W 1745  39.413   0.350   2.389
36266W        W 1746  32.498  29.940   4.725
36267W        W 1747  35.469  10.175   4.344
36268W        W 1748  10.378   8.399   3.177
36269W        W 1749  25.005   4.715   2.246
36270W        W 1750  40.922   8.340  10.485
36271W        W 1751  26.533  30.628   0.739
36272W        W 1752   2.901  36.421  11.391
36273W        W 1753  38.882  19.777  10.041
36274W        W 1754  11.140  13.302   2.664
36275W        W 1755   2.322  22.638   9.945
36276W        W 1756  12.188  40.510  12.940
36277W        W 1757  26.198  25.639  11.914
36278W        W 1758   9.717   2.870  12.392
36279W        W 1759  35.906   1.458   1.787
36280W        W 1760  31.638  33.065   3.334
36281W        W 1761  21.515   9.327  13.413
36282W        W 1762  25.662  40.353   4.176
36283W        W 1763  29.444  40.329  14.900
36284W        W 1764  41.437  44.352   1.441
36285W        W 1765  42.840   2.416   3.787
36286W        W 1766  43.289  19.612   1.398
36287W        W 1767  15.102  17.746  13.957
36288W        W 1768  16.801  39.058  10.974
36289W        W 1769  35.530   3.400  14.978
36290W        W 1770  18.249   0.348  14.770
36291W        W 1771  38.461  27.538   3.849
36292W        W 1772  22.542   9.336   1.827
36293W        W 1773   1.274  33.402  11.023
36294W        W 1774   7.188  22.181   0.289
36295W        W 1775   0.871  16.240   2.874
36296W        W 1776   5.318  10.718   3.708
36297W        W 1777  38.506  24.165  11.446
36298W        W 1778  14.284  42.523  12.432
36299W        W 1779   1.474   7.246   3.373
36300W        W 1780  19.677  44.770   4.697
36301W        W 1781  43.490  32.989   3.158
36302W        W 1782  14.304  32.936  12.058
36303W        W 1783   6.677   5.240  12.523
36304W        W 1784  40.359  14.743   3.277
36305W        W 1785   9.728   8.348   3.327
36306W        W 1786  25.073  29.004  11.073
36307W        W 1787  34.415  22.171  12.349
36308W        W 1788  28.673  25.978   3.232
36309W        W 1789  43.011   6.855   3.846
36310W        W 1790   4.890   7.364  13.513
36311W        W 1791  11.650  41.469  10.600
36312W        W 1792   0.440   1.920   0.892
36313W        W 1793  35.028  44.313   2.681
36314W        W 1794  16.252  44.277  11.063
36315W        W 1795  44.813  13.842  13.799
36316W        W 1796  40.389  21.680  14.338
36317W        W 1797   9.232   9.191   0.439
36318W        W 1798   3.299   0.846  14.446
36319W        W 1799   7.369  23.528  10.600
36320W        W 1800  23.231  44.955   3.721
36321W        W 1801  14.769  15.739   0.751
36322W        W 1802  38.047   4.334   4.746
36323W        W 1803  40.871   9.806  13.797
36324W        W 1804  29.967   0.409  14.435
36325W        W 1805   7.772  33.607  12.946
36326W        W 1806  43.330  35.583   3.206
36327W        W 1807  19.706  38.361  13.980
36328W        W 1808  13.319  37.895   2.240
36329W        W 1809  21.636  20.218  11.004
36330W        W 1810   1.468   9.710   1.855
36331W        W 1811  25.605  35.519   1.271
36332W        W 1812   5.855   8.718   3.165
36333W        W 1813  30.023  22.046  10.645
36334W        W 1814  29.605  16.616  13.939
36335W        W 1815  33.109  31.540   3.794
36336W        W 1816  22.606  15.707   0.778
36337W        W 1817  13.278   9.850  12.436
36338W        W 1818   3.451  17.096   5.220
36339W        W 1819  35.595  16.149  12.904
36340W        W 1820  25.635  16.111   2.223
36341W        W 1821  36.842   1.884  10.563
36342W        W 1822  32.990   8.397   4.717
36343W        W 1823  29.167  21.182   3.286
36344W        W 1824  13.733   5.777   0.750
36345W        W 1825  36.993  26.153   2.853
36346W        W 1826  14.669   5.439   3.347
36347W        W 1827  40.328  13.174  11.454
36348W        W 1828  27.075  23.172  13.342
36349W        W 1829  17.676  33.537   4.763
36350W        W 1830   2.812  15.192   1.926
36351W        W 1831  14.170  43.789   3.324
36352W        W 1832  11.836  35.971  13.409
36353W        W 1833   3.443  28.452  10.913
36354W        W 1834   8.279  14.786   2.219
36355W        W 1835  14.686  12.285   4.680
36356W        W 1836  13.132  43.784  12.036
36357W        W 1837  40.368  16.295  10.583
36358W        W 1838  39.507  29.506  13.424
36359W        W 1839  35.371  40.837   0.814
36360W        W 1840   2.898  32.463   3.752
36361W        W 1841  28.581  30.544   3.730
36362W        W 1842  20.165   1.348   1.792
36363W        W 1843   0.974  27.563   4.162
36364W        W 1844  33.068   4.912  10.571
36365W        W 1845  37.012   2.279  12.420
36366W        W 1846   4.299  29.489   0.919
36367W        W 1847  13.252  34.868  14.371
36368W        W 1848  37.876  11.654   0.369
36369W        W 1849   8.406  26.095  11.889
36370W        W 1850  31.523  33.422   2.797
36371W        W 1851  31.469   4.859  11.372
36372W        W 1852  25.181  10.226   0.249
36373W        W 1853  10.666  26.665   4.221
36374W        W 1854  17.571  37.387  12.420
36375W        W 1855  28.123  36.500  13.397
36376W        W 1856  11.765  27.476   3.680
36377W        W 1857  13.841   8.687  10.608
36378W        W 1858   4.726  15.101  11.509
36379W        W 1859  27.673  39.447  13.058
36380W        W 1860  39.908  32.905  12.574
36381W        W 1861  41.889  42.409   2.747
36382W        W 1862   9.676  37.852  12.342
36383W        W 1863  42.870  10.154  10.921
36384W        W 1864   1.295  38.930  12.493
36385W        W 1865  30.541   5.797  10.558
36386W        W 1866   4.411  29.608  14.357
36387W        W 1867  28.984  25.662   2.719
36388W        W 1868   9.393  28.956   1.439
36389W        W 1869   5.920  42.027  12.362
36390W        W 1870  33.537  22.708  12.983
36391W        W 1871  19.163  28.048  13.831
36392W        W 1872  36.415  26.558   4.674
36393W        W 1873  39.914  26.473   3.235
36394W        W 1874  13.175  16.124  14.313
36395W        W 1875  28.107  32.095  14.805
36396W        W 1876  17.165  13.177   3.729
36397W        W 1877  21.609  37.057  10.944
36398W        W 1878  41.513  38.376   4.199
36399W        W 1879  12.170  25.092  12.521
36400W        W 1880  23.526  17.105  11.899
36401W        W 1881   3.461   3.265   0.839
36402W        W 1882   7.276  11.710  11.587
36403W        W 1883  30.533   3.748   1.873
36404W        W 1884  32.420  40.979  14.023
36405W        W 1885  41.401  32.021  10.410
36406W        W 1886  29.579  17.275  10.027
36407W        W 1887  11.715   4.216  11.070
36408W        W 1888  21.072   2.814  11.877
36409W        W 1889   5.898   5.428  14.371
36410W        W 1890   8.735   7.814  12.944
36411W        W 1891  10.788   9.278  13.935
36412W        W 1892  28.631  13.175   0.273
36413W        W 1893   3.876   7.183  14.463
36414W        W 1894  13.742  21.050  10.614
36415W        W 1895  15.652   1.298   2.380
36416W        W 1896  23.085  12.224   4.663
36417W        W 1897  30.964  27.476  14.869
36418W        W 1898  14.652  21.041   0.420
36419W        W 1899  24.695  13.821  12.368
36420W        W 1900  14.277   7.175  14.861
36421W        W 1901   1.416  11.294  12.404
36422W        W 1902  19.730  44.424   2.311
36423W        W 1903  23.690  12.714  13.528
36424W        W 1904   1.258  14.136  14.314
36425W        W 1905  12.116   9.678   4.261
36426W        W 1906  19.733  27.999  13.507
36427W        W 1907   1.757  38.421  13.009
36428W        W 1908  38.913  37.942   4.771
36429W        W 1909  31.094  35.996   1.419
36430W        W 1910  21.107   4.795  12.017
36431W        W 1911  29.522  43.769   0.434
36432W        W 1912   0.255  18.648  10.960
36433W        W 1913  32.481  22.244  13.395
36434W        W 1914  41.841  18.220   2.786
36435W        W 1915   5.328  22.118  12.356
36436W        W 1916  29.150  26.627  12.391
36437W        W 1917   1.471  44.297  12.426
36438W        W 1918  15.712  12.774   3.831
36439W        W 1919   4.876   4.257  12.868
36440W        W 1920  20.222   6.271  13.324
36441W        W 1921  32.476  23.537  13.473
36442W        W 1922  43.470  17.210  11.974
36443W        W 1923   0.385  34.466   0.272
36444W        W 1924  20.634  11.631   0.250
36445W        W 1925  25.475  21.513   4.298
36446W        W 1926  21.653  29.137   1.742
36447W        W 1927  16.753  42.807  10.610
36448W        W 1928  23.527  26.099   4.619
36449W        W 1929  36.995  39.875   3.635
36450W        W 1930  43.905  32.960   3.372
36451W        W 1931  26.057  11.207  14.408
36452W        W 1932  12.751  39.355   4.264
36453W        W 1933  26.178   0.373   1.785
36454W        W 1934  28.656   6.329  10.436
36455W        W 1935  44.409  44.869  11.536
36456W        W 1936  27.144  26.689  13.991
36457W        W 1937  19.596  16.265  10.564
36458W        W 1938  29.497   0.437   3.214
36459W        W 1939  42.974   2.787  13.397
36460W        W 1940   3.246  12.181  14.488
36461W        W 1941  35.468  20.698   4.657
36462W        W 1942  23.505  35.092  10.983
36463W        W 1943  31.471  34.061   0.376
36464W        W 1944   1.472  22.121   4.733
36465W        W 1945  36.905   9.274   1.800
36466W        W 1946  14.220  37.364  13.326
36467W        W 1947  10.775  13.135  14.767
36468W        W 1948  38.046  10.204  13.927
36469W        W 1949  14.678  37.961  14.983
36470W        W 1950  15.778  18.122  10.159
36471W        W 1951  14.635   0.919   2.258
36472W        W 1952  18.282  40.416  11.541
36473W        W 1953  23.035  28.595  14.484
36474W        W 1954  43.785  19.278   3.644
36475W        W 1955   2.906   4.781  11.076
36476W        W 1956   5.931  30.021   1.892
36477W        W 1957  13.158   0.828   1.788
36478W        W 1958  35.902  30.426  12.574
36479W        W 1959  42.840  16.806   3.660
36480W        W 1960  27.496  29.470  13.391
36481W        W 1961  14.291  41.884   0.775
36482W        W 1962  36.364  31.609  11.428
36483W        W 1963  42.887  43.478   1.903
36484W        W 1964  21.161  36.077  12.035
36485W        W 1965  35.402  13.213  12.507
36486W        W 1966  10.247  30.139  12.353
36487W        W 1967  30.445   9.273   3.226
36488W        W 1968  25.608  10.328  12.574
36489W        W 1969  12.793  21.203   4.326
36490W        W 1970  11.367  17.685   3.289
36491W        W 1971   4.316   6.863  14.515
36492W        W 1972  30.472  39.840  11.036
36493W        W 1973  38.890  33.619   4.747
36494W        W 1974  40.944  37.518  12.362
36495W        W 1975  23.708  33.113   4.269
36496W        W 1976  15.167  36.366  13.455
36497W        W 1977  30.577  20.654   0.280
36498W        W 1978  22.152  18.256  13.820
36499W        W 1979  25.653  11.265  13.028
36500W        W 1980  30.916   6.878  14.922
36501W        W 1981  34.425  42.933   0.962
36502W        W 1982  32.935  35.001   4.791
36503W        W 1983   4.898  32.597  13.970
36504W        W 1984  12.709   6.761  10.523
36505W        W 1985  39.043   0.864  10.503
36506W        W 1986  26.584   0.895   4.184
36507W        W 1987   2.905   0.296  12.349
36508W        W 1988  41.318  39.356   4.155
36509W        W 1989  29.950  23.109   0.949
36510W        W 1990  13.326  32.088   2.190
36511W        W 1991  26.530   1.923   4.745
36512W        W 1992   1.358  23.628  12.860
36513W        W 1993  43.334  21.207  14.763
36514W        W 1994  39.825  27.972   1.910
36515W        W 1995  24.571  24.481   2.222
36516W        W 1996  36.435  22.236  13.319
36517W        W 1997  28.958  11.154   4.691
36518W        W 1998  19.134  20.261   3.224
36519W        W 1999  34.388  35.087   0.929
36520W        W 2000  41.448  26.955   0.787
36521W        W 2001  14.176  31.053   1.824
36522W        W 2002  42.308  15.612   4.812
36523W        W 2003  40.030   4.350   0.883
36524W        W 2004  37.554  14.732   3.858
36525W        W 2005  35.456  18.614   0.324
36526W        W 2006  29.550  21.146  14.796
36527W        W 2007  32.485  29.107  12.379
36528W        W 2008  35.978  23.169   0.256
36529W        W 2009  40.491  43.428   1.717
36530W        W 2010  13.192  41.480   0.463
36531W        W 2011  38.909  15.269  13.547
36532W        W 2012  26.192   4.252   3.743
36533W        W 2013   0.477  37.404  11.373
36534W        W 2014  19.676  12.236  14.962
36535W        W 2015  13.236   8.674  10.103
36536W        W 2016  23.207  18.177  12.823
36537W        W 2017   0.338  25.495   2.820
36538W        W 2018   2.338  23.627  13.541
36539W        W 2019  44.976   2.731  14.970
36540W        W 2020  34.439   0.372   3.695
36541W        W 2021   0.896  31.047   4.618
36542W        W 2022  18.203  39.357  13.797
36543W        W 2023  33.488  37.571  13.521
36544W        W 2024  39.888  30.962   2.747
36545W        W 2025   6.785  12.169  13.487
36546W        W 2026  16.669  24.118  13.503
36547W        W 2027  38.916  38.001  13.946
36548W        W 2028  14.224  36.037   0.839
36549W        W 2029  41.815   8.662  10.981
36550W        W 2030  37.945   9.357   2.217
36551W        W 2031  28.481  17.177   2.840
36552W        W 2032  11.859  23.528   2.395
36553W        W 2033   3.278  41.534   0.255
36554W        W 2034  16.652   7.673   4.813
36555W        W 2035   2.873  29.456  12.858
36556W        W 2036  21.133   8.297  12.938
36557W        W 2037  26.480   0.960  14.823
36558W        W 2038  35.514  16.662   1.250
36559W        W 2039  22.228  10.236   4.262
36560W        W 2040  10.258  16.766   1.838
36561W        W 2041   1.869  25.690   3.795
36562W        W 2042  44.485  39.035  14.021
36563W        W 2043  27.518  30.544   3.813
36564W        W 2044  32.603  26.184  12.545
36565W        W 2045  19.726   6.401   2.847
36566W        W 2046  31.499   2.891  13.850
36567W        W 2047  42.846  10.247  12.414
36568W        W 2048  19.085   1.455  11.522
36569W        W 2049   1.398  14.711  12.394
36570W        W 2050   6.697  17.757  12.918
36571W        W 2051   3.433   0.745  12.092
36572W        W 2052  39.866  38.887   0.828
36573W        W 2053  27.457   8.888  11.547
36574W        W 2054  32.635  28.656   3.700
36575W        W 2055  20.694   5.249   3.283
36576W        W 2056   9.244  43.301   4.193
36577W        W 2057   0.291  20.711   3.722
36578W        W 2058  44.273  34.412  11.856
36579W        W 2059   7.779  30.592  11.482
36580W        W 2060  20.095  16.692   1.870
36581W        W 2061  22.137  27.611  12.458
36582W        W 2062  27.104  18.204   2.205
36583W        W 2063  42.009  12.840   3.341
36584W        W 2064   7.694  14.621  11.862
36585W        W 2065  23.586  10.170  10.937
36586W        W 2066  21.074  15.283  10.486
36587W        W 2067   0.324  39.418  11.389
36588W        W 2068   5.791   7.312   0.785
36589W        W 2069  35.362  11.844  12.899
36590W        W 2070  14.603  28.520   3.848
36591W        W 2071  25.655  28.969   2.662
36592W        W 2072  12.793   5.403   3.831
36593W        W 2073  39.918  11.159  12.045
36594W        W 2074   9.163  41.994  14.957
36595W        W 2075  29.489  13.691   3.282
36596W        W 2076  20.525  18.785  11.563
36597W        W 2077  36.980  14.828   3.836
36598W        W 2078  26.110  14.629  12.023
36599W        W 2079  40.490  31.940  11.421
36600W        W 2080  37.898  28.546  14.302
36601W        W 2081  18.120   1.281  14.864
36602W        W 2082  15.620  36.001  12.040
36603W        W 2083  24.204  17.730   0.482
36604W        W 2084   5.861   7.811  12.842
36605W        W 2085  33.104  42.021   3.193
36606W        W 2086  18.103  38.349   4.235
36607W        W 2087  34.600   8.874  12.043
36608W        W 2088  15.658   6.778  14.856
36609W        W 2089   1.831  14.176   0.959
36610W        W 2090  13.140  11.774   3.220
36611W        W 2091  44.783  25.628   3.323
36612W        W 2092  27.622  19.634  11.576
36613W        W 2093   6.830  41.858  14.502
36614W        W 2094  17.557  38.938   4.734
36615W        W 2095  26.476  37.572  12.403
36616W        W 2096   9.314  34.614  14.411
36617W        W 2097   2.927  40.812   4.279
36618W        W 2098  14.596  44.394   1.400
36619W        W 2099  26.668  30.161  10.481
36620W        W 2100   1.868   7.890   2.329
36621W        W 2101  43.361   9.794   1.786
36622W        W 2102  15.236  40.505  14.401
36623W        W 2103  25.501  20.688  12.402
36624W        W 2104  16.120   0.352   0.743
36625W        W 2105  39.515  42.809   4.294
36626W        W 2106  25.607   1.742   2.804
36627W        W 2107  10.372  29.977  11.427
36628W        W 2108  41.477  27.167  11.509
36629W        W 2109  34.457  22.174  10.633
36630W        W 2110  16.770  38.044   4.673
36631W        W 2111  17.152   2.747  13.054
36632W        W 2112  37.006  11.666   3.333
36633W        W 2113  40.405  41.993  11.936
36634W        W 2114  30.982   4.832  10.150
36635W        W 2115  23.638  25.537   0.777
36636W        W 2116  31.106  13.279  13.391
36637W        W 2117   7.266  43.795   1.779
36638W        W 2118  13.630   6.225   0.913
36639W        W 2119  11.307  28.140  13.811
36640W        W 2120  32.977  33.056  13.341
36641W        W 2121  35.047  32.115  12.467
36642W        W 2122   1.335  42.455  14.891
36643W        W 2123  40.001   3.333  12.082
36644W        W 2124  14.823  18.661  13.062
36645W        W 2125  24.197  34.936   5.161
36646W        W 2126  15.736  11.194  11.047
36647W        W 2127  17.107   0.252   4.208
36648W        W 2128  14.284  10.209   1.212
36649W        W 2129  15.738  22.139   4.785
36650W        W 2130  19.269   1.744   2.868
36651W        W 2131  31.482  17.303   2.798
36652W        W 2132  43.277  29.665  13.025
36653W        W 2133   3.264   4.740  11.111
36654W        W 2134  44.348   6.799   4.694
36655W        W 2135  15.174   8.873  13.512
36656W        W 2136  11.754   4.369   4.711
36657W        W 2137  37.548  41.819  11.458
36658W        W 2138  31.480  28.502  13.501
36659W        W 2139  29.009  40.857   0.865
36660W        W 2140  24.567  12.631  10.935
36661W        W 2141  25.569   8.885   0.415
36662W        W 2142  41.408  16.762  14.498
36663W        W 2143  34.974  22.233  10.996
36664W        W 2144  13.812  21.576  10.640
36665W        W 2145  26.647  19.713  13.547
36666W        W 2146  16.253  18.705   2.183
36667W        W 2147  24.675   6.220   0.433
36668W        W 2148   1.926   4.294   1.868
36669W        W 2149  13.603   0.968   3.356
36670W        W 2150   2.454  12.190  12.005
36671W        W 2151  11.184  12.299   4.833
36672W        W 2152  33.596  10.179  13.063
36673W        W 2153  41.473  23.626  14.364
36674W        W 2154   8.188  30.586  13.496
36675W        W 2155   1.841  19.074   2.700
36676W        W 2156  41.295  39.976   3.147
36677W        W 2157   8.863  31.475   3.793
36678W        W 2158  34.415  13.130   4.666
36679W        W 2159  22.537  27.524   2.255
36680W        W 2160  44.847   3.347  10.632
36681W        W 2161  42.461  30.160  11.486
36682W        W 2162  30.958  28.127  11.470
36683W        W 2163  17.696  16.168  13.542
36684W        W 2164  25.585  25.707  12.547
36685W        W 2165  23.192  12.678  11.963
36686W        W 2166  43.416  37.848   3.725
36687W        W 2167  32.965  44.915  12.517
36688W        W 2168   2.470  44.930   2.355
36689W        W 2169  29.017  18.216  14.854
36690W        W 2170  11.169  11.201  10.609
36691W        W 2171  18.778  31.024   3.283
36692W        W 2172  35.893  37.526   1.780
36693W        W 2173   2.244   2.357  10.959
36694W        W 2174  40.929  38.389  13.437
36695W        W 2175  24.121   9.743   0.847
36696W        W 2176  24.687  26.551   1.784
36697W        W 2177  22.566  30.493   1.871
36698W        W 2178  40.922  12.147   0.838
36699W        W 2179   8.350  36.099   0.405
36700W        W 2180  39.323  19.622   0.823
36701W        W 2181  23.108   1.914  14.004
36702W        W 2182  20.144  17.558   3.723
36703W        W 2183  40.973   3.721   5.729
36704W        W 2184   4.766  23.049  12.008
36705W        W 2185   6.337  31.410  11.932
36706W        W 2186  29.033   3.360  11.500
36707W        W 2187  25.530  25.675  11.883
36708W        W 2188  33.922  35.562   4.125
36709W        W 2189  25.493  21.671  14.869
36710W        W 2190   3.822   5.755   0.385
36711W        W 2191  15.791   5.780   2.223
36712W        W 2192  25.203  32.035   4.712
36713W        W 2193  10.867   7.377   1.240
36714W        W 2194   5.761  29.147  11.053
36715W        W 2195  24.038  14.147  14.494
36716W        W 2196  38.925  22.626  12.365
36717W        W 2197   7.377   6.800   1.882
36718W        W 2198  32.969  31.989  13.426
36719W        W 2199  29.077  32.119  13.482
36720W        W 2200  33.596   3.400  12.535
36721W        W 2201   6.913  26.587   3.308
36722W        W 2202  28.116  36.995  13.521
36723W        W 2203  43.422  24.076  12.829
36724W        W 2204  25.519   0.258   3.234
36725W        W 2205  19.270  21.573  12.833
36726W        W 2206  12.679  16.811   2.804
36727W        W 2207  12.716   2.781  14.383
36728W        W 2208  35.400  17.104  10.928
36729W        W 2209  17.791   9.647  12.473
36730W        W 2210  41.537  15.296   1.917
36731W        W 2211   9.292   9.320  14.387
36732W        W 2212  35.948   4.798   3.244
36733W        W 2213  42.778  29.013   3.279
36734W        W 2214  10.664  36.496   3.159
36735W        W 2215  26.065  36.870   3.682
36736W        W 2216  13.791  29.159  12.980
36737W        W 2217  38.930  10.719  14.999
36738W        W 2218   9.347  12.640   2.809
36739W        W 2219  22.048  19.094   2.199
36740W        W 2220  15.740   3.362  10.522
36741W        W 2221   1.354  19.060  14.945
36742W        W 2222  26.541  30.598   2.809
36743W        W 2223  23.523  12.619  10.890
36744W        W 2224   1.251  11.212  14.386
36745W        W 2225  43.334   0.483   1.780
36746W        W 2226   5.254  35.933  10.479
36747W        W 2227  37.971  41.928  14.868
36748W        W 2228  23.614  14.783  12.908
36749W        W 2229  11.236  17.683   3.739
36750W        W 2230  40.386  35.995   3.824
36751W        W 2231  28.449   9.835  14.904
36752W        W 2232  16.667   2.924  12.428
36753W        W 2233   4.702  43.515   2.327
36754W        W 2234   8.764   8.698  13.984
36755W        W 2235  44.311  28.441  13.344
36756W        W 2236  35.866   7.863   4.831
36757W        W 2237  35.558  14.686  12.846
36758W        W 2238   3.813   2.733  11.966
36759W        W 2239  39.547  13.201   0.420
36760W        W 2240  34.968  40.505  11.545
36761W        W 2241  26.671  34.603  12.515
36762W        W 2242   9.152  12.738   2.380
36763W        W 2243   4.208   9.654   4.804
36764W        W 2244  27.556   5.383  12.038
36765W        W 2245  10.713  44.844   4.782
36766W        W 2246  40.979  25.082  10.987
36767W        W 2247  41.311  33.130   2.403
36768W        W 2248   9.882   3.734   0.248
36769W        W 2249  18.673  25.680   3.204
36770W        W 2250  12.775   8.265  13.803
36771W        W 2251  21.150   7.767   0.325
36772W        W 2252  12.220  40.862  11.973
36773W        W 2253  29.473  17.110  14.009
36774W        W 2254   2.298  40.024  13.810
36775W        W 2255  44.837  40.974   2.261
36776W        W 2256  17.305  37.046  12.975
36777W        W 2257  26.682  19.183  12.416
36778W        W 2258  26.123  22.107   0.896
36779W        W 2259  21.148  18.752   2.674
36780W        W 2260   3.370  39.352   4.648
36781W        W 2261  34.054  41.952  13.390
36782W        W 2262   9.263  37.448  12.486
36783W        W 2263  44.435  43.354  14.275
36784W        W 2264  22.036  15.102   3.643
36785W        W 2265  42.463   3.454  14.926
36786W        W 2266   3.423  21.097   2.300
36787W        W 2267  42.489  24.033   0.474
36788W        W 2268  32.046   8.387   4.327
36789W        W 2269  17.245  39.444   3.163
36790W        W 2270  33.877  18.278   0.372
36791W        W 2271  25.483  12.729   1.438
36792W        W 2272  22.095  27.672   1.919
36793W        W 2273   6.232   9.663   3.815
36794W        W 2274  22.691  35.387  14.426
36795W        W 2275  17.598  33.600  12.421
36796W        W 2276  25.051   7.217   5.101
36797W        W 2277  18.703   6.886  13.937
36798W        W 2278  21.696  32.129   1.760
36799W        W 2279  44.871  19.757   4.701
36800W        W 2280   1.953   5.371  11.043
36801W        W 2281  14.617   4.357  14.829
36802W        W 2282  15.618   6.837   2.213
36803W        W 2283  29.556  20.734  14.880
36804W        W 2284  27.606   3.828  12.417
36805W        W 2285  37.947  36.367   2.672
36806W        W 2286  14.762  18.192  12.464
36807W        W 2287   4.370   8.788   0.409
36808W        W 2288   5.817  14.674  11.570
36809W        W 2289  16.572  24.672  11.982
36810W        W 2290  31.580  39.332  12.496
36811W        W 2291  29.134  28.567  12.443
36812W        W 2292  39.977   8.898  14.906
36813W        W 2293  28.156  43.818   3.315
36814W        W 2294  44.387  27.006  12.060
36815W        W 2295   8.319  31.935   4.167
36816W        W 2296  38.390  18.260  10.487
36817W        W 2297  40.444  39.869  14.866
36818W        W 2298  11.839   8.170   2.402
36819W        W 2299  35.433  17.678   4.632
36820W        W 2300  19.652  20.158   0.778
36821W        W 2301  12.693  32.421   1.436
36822W        W 2302  30.107  28.563  10.903
36823W        W 2303  15.135  35.375   2.742
36824W        W 2304  43.292  22.136  11.415
36825W        W 2305  38.048   6.294  12.090
36826W        W 2306  39.055  24.640  12.404
36827W        W 2307  31.456  38.910  14.964
36828W        W 2308  17.583  12.136  12.065
36829W        W 2309  30.459   9.246  13.365
36830W        W 2310  38.853   8.879  12.544
36831W        W 2311   9.313  44.299  11.601
36832W        W 2312   8.186  26.692   1.334
36833W        W 2313  10.298  22.245  10.428
36834W        W 2314  12.314  20.621  10.919
36835W        W 2315  26.112  24.574  14.896
36836W        W 2316  24.670  27.083   4.796
36837W        W 2317  27.006  41.301   5.180
36838W        W 2318  27.452   9.354  11.004
36839W        W 2319  13.315  31.563  11.401
36840W        W 2320  31.048  31.603  12.395
36841W        W 2321   9.365   6.735   3.837
36842W        W 2322  35.385   6.243  11.091
36843W        W 2323  25.973  42.391  10.519
36844W        W 2324  29.536   3.353  14.276
36845W        W 2325  27.625  38.387   0.345
36846W        W 2326  27.197  23.992   2.762
36847W        W 2327  16.158  21.154  14.778
36848W        W 2328  35.514  34.463  12.902
36849W        W 2329  20.753  26.486   1.748
36850W        W 2330  37.038  32.105  12.077
36851W        W 2331  43.905   6.829  14.830
36852W        W 2332  29.492  43.505   3.718
36853W        W 2333  17.093  41.454  13.881
36854W        W 2334  31.069   8.688   1.707
36855W        W 2335   8.750  12.787   4.283
36856W        W 2336  24.492  30.936   4.729
36857W        W 2337  10.264  28.053   2.343
36858W        W 2338  43.855  11.181  13.988
36859W        W 2339  29.579  10.815   3.703
36860W        W 2340  25.998   5.803   4.200
36861W        W 2341  17.283  30.592  13.814
36862W        W 2342  33.004  39.353   1.436
36863W        W 2343  38.869  10.858  13.994
36864W        W 2344  28.623  32.444  11.062
36865W        W 2345  23.594  34.448  13.416
36866W        W 2346  27.490  27.061   3.221
36867W        W 2347  25.480  22.187  11.457
36868W        W 2348   5.390  34.516  10.006
36869W        W 2349  39.332  12.820   1.740
36870W        W 2350   1.896  38.406  10.626
36871W        W 2351  11.763  14.114  13.373
36872W        W 2352  24.487  20.243   4.677
36873W        W 2353   6.300  14.593   0.430
36874W        W 2354  41.915  25.153  10.145
36875W        W 2355  22.103  42.878  14.935
36876W        W 2356   8.689   7.345  14.946
36877W        W 2357  23.559  35.482   3.232
36878W        W 2358  33.615   8.216   3.365
36879W        W 2359  12.613  44.893  12.538
36880W        W 2360  11.841  23.110  12.536
36881W        W 2361  10.337  41.402   4.834
36882W        W 2362   0.878  42.943  13.443
36883W        W 2363  26.088  14.131   5.202
36884W        W 2364  30.520   6.292   3.836
36885W        W 2365   1.751   6.823  12.399
36886W        W 2366  38.550  12.852   1.701
36887W        W 2367  13.147  34.034  12.069
36888W        W 2368  21.701  25.075   2.336
36889W        W 2369  19.746  28.619   4.614
36890W        W 2370   4.353  31.040   0.760
36891W        W 2371   7.331  24.532   4.681
36892W        W 2372  23.064  34.527  13.380
36893W        W 2373   3.858  43.401   2.353
36894W        W 2374  39.968  25.188   1.911
36895W        W 2375   6.781  22.117  11.899
36896W        W 2376  42.962  39.949   0.830
36897W        W 2377  12.807  38.865  14.464
36898W        W 2378  32.501   8.171  12.865
36899W        W 2379  40.906  34.870   3.865
36900W        W 2380  13.138  22.226   0.250
36901W        W 2381  24.641  30.620   3.727
36902W        W 2382  13.219  32.518  13.042
36903W        W 2383  24.499   1.977  11.921
36904W        W 2384  32.965   6.279   1.418
36905W        W 2385  19.748  10.210   3.179
36906W        W 2386  21.617  13.321  13.488
36907W        W 2387  36.488  15.130   3.198
36908W        W 2388   3.352  41.992   1.216
36909W        W 2389  22.996   4.213  10.431
36910W        W 2390  37.028  31.585  10.913
36911W        W 2391  24.715  42.439   0.353
36912W        W 2392  40.352  31.129   0.484
36913W        W 2393   1.291  21.661   4.269
36914W        W 2394  33.408  12.732   4.290
36915W        W 2395  12.302  15.808   3.748
36916W        W 2396  15.777  36.397  11.599
36917W        W 2397  15.243  33.384  14.809
36918W        W 2398   5.903  41.003  14.875
36919W        W 2399  17.256   8.869  14.466
36920W        W 2400  43.466  11.251   0.944
36921W        W 2401  30.946  30.447   0.755
36922W        W 2402  43.340  40.007  10.460
36923W        W 2403  19.718  27.050   1.783
36924W        W 2404  14.245   8.889   3.871
36925W        W 2405  16.145  18.282   2.828
36926W        W 2406  11.184  11.364  12.533
36927W        W 2407   6.404  29.165   4.324
36928W        W 2408  42.387  28.128   2.357
36929W        W 2409   6.254  39.336  12.505
36930W        W 2410  37.519  24.087  10.469
36931W        W 2411  16.666  40.863  11.404
36932W        W 2412   5.731  20.630   1.736
36933W        W 2413   4.431  20.582   3.234
36934W        W 2414  16.304  15.091   4.701
36935W        W 2415   9.836  21.604  13.959
36936W        W 2416  21.157  37.845   0.469
36937W        W 2417   7.233  40.875  14.938
36938W        W 2418  12.704  29.986  14.330
36939W        W 2419   2.295  37.347  13.003
36940W        W 2420  25.485  44.780  14.780
36941W        W 2421  26.130  13.839   4.236
36942W        W 2422  35.042  44.909   4.334
36943W        W 2423   5.317  35.592   1.276
36944W        W 2424   6.756  26.049  13.834
36945W        W 2425  21.577  28.157  11.466
36946W        W 2426  18.672  37.967   4.665
36947W        W 2427  21.679  25.539   3.284
36948W        W 2428   6.343  23.049   2.307
36949W        W 2429  42.839  22.098  12.517
36950W        W 2430  37.466  17.623   0.403
36951W        W 2431  29.612   3.810   1.735
36952W        W 2432  21.189   4.784   5.177
36953W        W 2433  12.652  23.531   3.266
36954W        W 2434   5.755  32.918   1.294
36955W        W 2435  32.422   4.899   4.717
36956W        W 2436  28.474   6.424  12.346
36957W        W 2437  27.528  32.023   4.708
36958W        W 2438  31.963  20.209  12.016
36959W        W 2439  33.498  17.164  12.871
36960W        W 2440   3.352   3.801   2.771
36961W        W 2441  29.457   2.385   3.267
36962W        W 2442  40.430  10.830   3.763
36963W        W 2443  34.559   0.414  13.504
36964W        W 2444   3.415  41.949  10.496
36965W        W 2445  24.579   4.796   0.483
36966W        W 2446   2.360   8.399  10.941
36967W        W 2447  19.702  33.457  10.943
36968W        W 2448   4.850  27.473   3.648
36969W        W 2449   5.435   7.217  14.286
36970W        W 2450  10.666  11.132  11.410
36971W        W 2451  40.399  15.249   2.749
36972W        W 2452  19.684  14.800  11.861
36973W        W 2453  16.189  31.453   0.284
36974W        W 2454  32.016   7.740   3.376
36975W        W 2455  14.813   9.848  14.490
36976W        W 2456  40.050   6.362   4.760
36977W        W 2457  24.492  13.787  10.619
36978W        W 2458   3.367  25.129  13.463
36979W        W 2459  41.829   2.806  14.999
36980W        W 2460  42.822  35.863  10.998
36981W        W 2461  32.912  14.186   1.264
36982W        W 2462   9.838  16.683   0.929
36983W        W 2463  36.025  35.085  12.511
36984W        W 2464  16.592  27.488  13.312
36985W        W 2465   0.964  19.736  11.875
36986W        W 2466  10.366  39.055   2.850
36987W        W 2467  43.845  26.093  12.924
36988W        W 2468  42.936  44.282  10.525
36989W        W 2469  25.708  44.439  10.560
36990W        W 2470  23.235  27.190  11.000
36991W        W 2471  16.582   9.850   0.823
36992W        W 2472  25.985   0.911  14.384
36993W        W 2473  24.628  41.916   4.721
36994W        W 2474  25.125  11.235  11.948
36995W        W 2475  20.642   3.256  14.370
36996W        W 2476   1.972  10.668  11.429
36997W        W 2477  30.159  21.054  11.602
36998W        W 2478  13.200  35.914   1.264
36999W        W 2479  11.162  14.193   1.773
37000W        W 2480  11.335  27.629  13.912
37001W        W 2481  18.058   9.155   0.814
37002W        W 2482  11.825   9.347   4.179
37003W        W 2483   7.737  25.061   1.774
37004W        W 2484  34.949  37.481   4.687
37005W        W 2485  11.277  41.006   2.223
37006W        W 2486   0.820  38.436   0.943
37007W        W 2487  23.512  42.812   2.250
37008W        W 2488   6.899   5.290   1.736
37009W        W 2489  28.601   6.828   2.217
37010W        W 2490  17.205  16.095   2.851
37011W        W 2491  36.512  43.919   2.745
37012W        W 2492   3.448  16.237   4.189
37013W        W 2493  30.444  39.342  13.841
37014W        W 2494  26.494  40.798   4.754
37015W        W 2495  33.518  19.603   1.768
37016W        W 2496   2.263   6.350  13.839
37017W        W 2497   7.867  41.997   2.256
37018W        W 2498  26.033  44.467  11.427
37019W        W 2499   6.322  15.284   2.846
37020W        W 2500   3.933  38.046  13.471
37021W        W 2501  43.504   6.229   4.600
37022W        W 2502  26.038  33.588   0.247
37023W        W 2503   0.486  17.627   0.875
37024W        W 2504  38.820  40.323   0.291
37025W        W 2505  28.562  11.271  13.001
37026W        W 2506  21.172  17.731  11.471
37027W        W 2507  26.036  28.490   1.839
37028W        W 2508  17.689   6.217  11.920
37029W        W 2509  43.952  32.912   1.397
37030W        W 2510  17.615  39.894   0.334
37031W        W 2511  31.131   7.171  10.139
37032W        W 2512   2.263   5.227   4.299
37033W        W 2513  28.628  38.516  14.291
37034W        W 2514  11.263  43.392   3.813
37035W        W 2515  35.363   0.472  12.068
37036W        W 2516  14.311  17.708  14.853
37037W        W 2517  43.316  29.078   4.198
37038W        W 2518  36.094  29.092   0.336
37039W        W 2519  14.705   9.149   1.887
37040W        W 2520  10.842   0.884  10.457
37041W        W 2521   0.478  43.765  13.309
37042W        W 2522  42.851  28.618  13.487
37043W        W 2523  41.806  42.294  14.024
37044W        W 2524  19.124   2.244   0.469
37045W        W 2525  44.862   8.383  13.019
37046W        W 2526   4.765   8.807   2.835
37047W        W 2527  23.056  23.171   4.653
37048W        W 2528  23.644  13.811  14.007
37049W        W 2529  18.574  17.693   4.723
37050W        W 2530   4.941   4.837   1.293
37051W        W 2531  38.498  18.662   9.559
37052W        W 2532  22.041  10.728   3.797
37053W        W 2533  16.262   0.488  14.488
37054W        W 2534  44.413  38.849  14.479
37055W        W 2535   2.382  10.241   2.330
37056W        W 2536  38.015  11.696  10.067
37057W        W 2537  32.887  34.386   0.966
37058W        W 2538  20.100  16.083   2.831
37059W        W 2539  27.475  20.161  13.061
37060W        W 2540  15.625  20.691  11.982
37061W        W 2541  16.132  26.139   2.277
37062W        W 2542   7.729  18.715  14.301
37063W        W 2543   6.339  19.086   2.213
37064W        W 2544  33.520  40.372  12.051
37065W        W 2545  12.682   5.807  11.527
37066W        W 2546   6.207  15.177  12.008
37067W        W 2547  10.705  11.137  13.398
37068W        W 2548  40.799  42.795   1.916
37069W        W 2549   3.941  25.052  14.376
37070W        W 2550  11.254  23.500  13.355
37071W        W 2551   9.245  36.396   0.387
37072W        W 2552   8.692  27.540   0.890
37073W        W 2553   3.911   1.330   0.836
37074W        W 2554   0.456  19.194   1.752
37075W        W 2555   8.685  19.618   3.778
37076W        W 2556  36.475  29.546  11.879
37077W        W 2557   9.723  29.164  12.358
37078W        W 2558  34.033  30.463  11.537
37079W        W 2559  26.972  23.214   0.286
37080W        W 2560   7.223  31.101   2.848
37081W        W 2561  22.031  25.539  11.969
37082W        W 2562  27.583   4.895   4.725
37083W        W 2563  42.458  12.120   4.235
37084W        W 2564  34.972  24.199   3.287
37085W        W 2565  16.591  17.685  12.868
37086W        W 2566  34.506  33.024   3.234
37087W        W 2567  31.472  25.157   2.717
37088W        W 2568  28.120  28.479  13.424
37089W        W 2569  17.604  21.189   2.267
37090W        W 2570  33.903  13.702  11.581
37091W        W 2571  43.291  40.872  10.959
37092W        W 2572  30.126  17.650   4.614
37093W        W 2573  12.347  18.094   1.802
37094W        W 2574  39.483  16.580   2.198
37095W        W 2575  36.909  16.758   4.181
37096W        W 2576   3.755  26.486  13.941
37097W        W 2577  18.686  38.405  13.904
37098W        W 2578  18.292   4.777   0.859
37099W        W 2579   8.708  16.276  10.448
37100W        W 2580   5.265  41.003   3.805
37101W        W 2581   4.787  36.379  12.917
37102W        W 2582  10.272  33.525  14.798
37103W        W 2583  27.098  29.648  13.939
37104W        W 2584  25.618  25.016   4.311
37105W        W 2585   5.257   6.727   3.787
37106W        W 2586  20.701  16.278   2.885
37107W        W 2587  37.840  43.869   4.730
37108W        W 2588  19.589   6.782  14.450
37109W        W 2589   2.908  44.880   1.842
37110W        W 2590  16.585  22.702   4.785
37111W        W 2591  10.292  38.975   4.198
37112W        W 2592   7.306  43.462  11.961
37113W        W 2593  21.191  41.797  13.856
37114W        W 2594  24.204  20.671  10.988
37115W        W 2595  18.168  12.298   3.285
37116W        W 2596  41.990  29.048   3.724
37117W        W 2597   8.661  40.908   0.801
37118W        W 2598  31.991  40.045  13.535
37119W        W 2599  39.513  12.687  11.880
37120W        W 2600  38.445  27.504   2.784
37121W        W 2601  16.125  26.045   9.579
37122W        W 2602   8.656   3.873  14.292
37123W        W 2603  30.555  16.147  12.080
37124W        W 2604  31.043   2.941  14.466
37125W        W 2605  39.399  11.676  12.349
37126W        W 2606  16.576  25.624  14.770
37127W        W 2607  20.264  38.831   1.341
37128W        W 2608  36.407  23.108   3.630
37129W        W 2609   2.896  39.932   0.424
37130W        W 2610  14.278  17.191  14.477
37131W        W 2611   2.364  19.635  10.430
37132W        W 2612  32.568  39.945   0.837
37133W        W 2613  25.515   2.323  11.448
37134W        W 2614  14.141  20.548  13.538
37135W        W 2615  10.244   0.935   1.287
37136W        W 2616  11.852  39.320  11.386
37137W        W 2617  44.987  26.971   0.826
37138W        W 2618  19.211  30.021   2.337
37139W        W 2619   7.245  34.473   3.347
37140W        W 2620  31.425  29.484  11.379
37141W        W 2621  31.635  16.122   3.712
37142W        W 2622  42.391  39.048   0.315
37143W        W 2623  43.289  19.143  10.512
37144W        W 2624  22.083   2.789  10.893
37145W        W 2625  36.993  39.517   2.756
37146W        W 2626  27.579  25.572  13.349
37147W        W 2627  11.691  41.017   2.759
37148W        W 2628  21.721  41.536   0.303
37149W        W 2629   8.823  12.144   4.651
37150W        W 2630  44.488  41.377  13.447
37151W        W 2631  34.995  30.155   0.456
37152W        W 2632   7.377  29.052  11.521
37153W        W 2633  40.391  12.708   4.603
37154W        W 2634  28.143  18.676  11.919
37155W        W 2635  20.570   0.853   3.360
37156W        W 2636  11.319  13.159   4.322
37157W        W 2637  44.967  12.272  11.972
37158W        W 2638   6.363  12.129   4.163
37159W        W 2639  44.353   3.805   0.477
37160W        W 2640  14.201   8.375   0.918
37161W        W 2641  15.705  18.098   3.678
37162W        W 2642  15.146  22.565  11.002
37163W        W 2643   6.865  16.114   4.187
37164W        W 2644   7.400  38.961   2.330
37165W        W 2645   6.414  16.101   0.797
37166W        W 2646  13.300   7.344   9.966
37167W        W 2647   7.747   5.707   1.768
37168W        W 2648  34.477   5.925   2.821
37169W        W 2649  29.438  35.399  10.624
37170W        W 2650   7.311  28.527  14.819
37171W        W 2651  43.456  33.609   1.699
37172W        W 2652  32.135  27.597  14.972
37173W        W 2653   7.690  18.749   4.173
37174W        W 2654  30.475  26.656   1.305
37175W        W 2655  30.930  25.061   1.783
37176W        W 2656  30.501  17.259  11.448
37177W        W 2657  28.052  26.530   1.896
37178W        W 2658  43.997  12.271  13.426
37179W        W 2659   7.750  28.115  12.484
37180W        W 2660  24.041  22.198  11.023
37181W        W 2661  36.593  41.797  12.991
37182W        W 2662  36.027  25.667  13.835
37183W        W 2663  18.120   5.808  10.637
37184W        W 2664  38.940   6.690  12.472
37185W        W 2665  13.346  13.181  12.064
37186W        W 2666  15.262   1.364   4.615
37187W        W 2667   4.264  10.251  11.418
37188W        W 2668  25.007  39.424   4.139
37189W        W 2669   0.377  27.637   0.819
37190W        W 2670  44.299   4.737   0.478
37191W        W 2671  27.053   4.830  14.937
37192W        W 2672   5.311  10.658  13.455
37193W        W 2673  25.621   9.731   3.364
37194W        W 2674   9.701  36.484   0.739
37195W        W 2675  14.199  15.195   3.315
37196W        W 2676  21.523  19.245  13.544
37197W        W 2677  33.447  19.233  11.428
37198W        W 2678   3.383  10.636  11.532
37199W        W 2679  28.507  12.354   4.610
37200W        W 2680  38.451  38.887   2.328
37201W        W 2681  18.101  15.111   2.828
37202W        W 2682  42.820  35.541   4.705
37203W        W 2683  36.368   9.212  14.880
37204W        W 2684  23.721  34.992   2.851
37205W        W 2685  40.970  16.698  12.998
37206W        W 2686  16.586  14.616   0.426
37207W        W 2687  25.552  13.737  13.331
37208W        W 2688  13.240  34.520   3.352
37209W        W 2689  19.049  13.763  11.890
37210W        W 2690  37.867  28.000   2.780
37211W        W 2691  10.277  43.279  10.966
37212W        W 2692  17.073  21.039  10.040
37213W        W 2693  16.111  32.974   4.330
37214W        W 2694  35.025  18.740   2.677
37215W        W 2695  22.726  39.026   0.353
37216W        W 2696  32.574  44.860  10.446
37217W        W 2697  11.294  21.196   1.250
37218W        W 2698  41.488  23.223  10.918
37219W        W 2699  27.688  41.985   1.222
37220W        W 2700  38.430  22.204   1.263
37221W        W 2701   9.673   5.910   2.707
37222W        W 2702  16.807  35.488   2.902
37223W        W 2703   1.897  39.456  11.894
37224W        W 2704  20.590  31.153   2.263
37225W        W 2705  14.672   3.348   2.386
37226W        W 2706  12.305  38.870   2.788
37227W        W 2707  16.763  43.936   0.248
37228W        W 2708  27.948  27.056  12.404
37229W        W 2709  13.732   9.304   4.201
37230W        W 2710  38.465   5.787  10.946
37231W        W 2711  43.918  36.917  11.952
37232W        W 2712  10.212  14.324  12.874
37233W        W 2713  43.354  26.024  12.932
37234W        W 2714  20.243   9.298   4.600
37235W        W 2715   9.720  22.581  11.943
37236W        W 2716  30.502  17.291  10.629
37237W        W 2717  33.079  37.375   0.845
37238W        W 2718  36.442  40.535   0.751
37239W        W 2719  15.093  20.733   0.310
37240W        W 2720  12.629  30.155   2.189
37241W        W 2721  44.858  21.624   3.366
37242W        W 2722   8.832  30.421   0.788
37243W        W 2723  27.041   3.269   1.313
37244W        W 2724   7.735  35.895   2.894
37245W        W 2725  21.604  31.045  11.378
37246W        W 2726  24.620  22.520  14.759
37247W        W 2727  11.807   3.883  13.979
37248W        W 2728   3.746  37.549  13.475
37249W        W 2729  13.183  42.814  11.383
37250W        W 2730  32.420  14.285   5.153
37251W        W 2731  35.373  32.552  14.844
37252W        W 2732  29.936   6.792  12.086
37253W        W 2733  43.425   5.855  14.414
37254W        W 2734  39.909  19.063   3.729
37255W        W 2735  34.899  12.656  10.062
37256W        W 2736   1.429   6.288  10.922
37257W        W 2737  38.452  35.561   3.158
37258W        W 2738  15.177  41.389   3.814
37259W        W 2739  19.041  21.140  10.938
37260W        W 2740   3.721  33.551   0.892
37261W        W 2741  43.799  14.809   3.162
37262W        W 2742  22.068   5.796  13.973
37263W        W 2743  10.230  23.043   2.255
37264W        W 2744  14.802  11.847   5.631
37265W        W 2745  12.142  21.693  11.454
37266W        W 2746  35.867  44.945  14.385
37267W        W 2747   7.222  21.648   1.916
37268W        W 2748  28.152  15.263   1.808
37269W        W 2749  28.633  40.992  12.457
37270W        W 2750  10.650  40.450  10.565
37271W        W 2751   4.445  19.689  14.353
37272W        W 2752  35.045  11.269  12.984
37273W        W 2753  16.620  18.052   3.320
37274W        W 2754  19.535  39.940   4.188
37275W        W 2755   9.379  10.843   4.120
37276W        W 2756  43.882  34.409  11.383
37277W        W 2757  32.603  38.002  13.401
37278W        W 2758  38.044  44.410  10.460
37279W        W 2759   8.862  29.175   3.825
37280W        W 2760  14.710  43.777   3.737
37281W        W 2761  17.072  22.138   0.873
37282W        W 2762  30.549   1.792   0.945
37283W        W 2763  34.475  34.506  11.868
37284W        W 2764  23.119   9.885  14.759
37285W        W 2765  23.229  25.601   0.732
37286W        W 2766   4.700   4.314   1.774
37287W        W 2767  17.720  44.970  10.540
37288W        W 2768   3.310  13.283  14.314
37289W        W 2769  37.921  38.325   3.174
37290W        W 2770  22.545  10.282  12.574
37291W        W 2771  10.635  25.006  12.001
37292W        W 2772  11.176  18.233   4.145
37293W        W 2773  18.144   9.660   1.721
37294W        W 2774   5.208   5.397   2.316
37295W        W 2775  43.803  27.155  13.367
37296W        W 2776  27.163  41.887   1.298
37297W        W 2777  37.059  29.586   3.201
37298W        W 2778  10.307   2.837   2.866
37299W        W 2779   8.836  26.076  11.587
37300W        W 2780   4.751   9.152  11.454
37301W        W 2781  44.368   3.263  14.778
37302W        W 2782  34.111  32.978  13.895
37303W        W 2783  44.982  20.121  12.831
37304W        W 2784  28.182  13.258   0.451
37305W        W 2785  32.585  44.829   4.353
37306W        W 2786  30.439   7.358  11.407
37307W        W 2787  43.397  39.469  11.452
37308W        W 2788  14.146   4.321   3.223
37309W        W 2789  44.288  12.301  14.814
37310W        W 2790  41.462  31.081   4.660
37311W        W 2791  26.627  26.057   1.406
37312W        W 2792  36.468  33.512   4.790
37313W        W 2793  22.576  11.662   1.278
37314W        W 2794  44.757  17.719  12.397
37315W        W 2795  22.741  38.955   0.917
37316W        W 2796   6.249  20.214   4.151
37317W        W 2797  26.592  39.027  13.042
37318W        W 2798   8.759  20.737  10.102
37319W        W 2799  11.365  20.600  12.525
37320W        W 2800  30.154   4.231   2.849
37321W        W 2801  37.005   4.889  13.003
37322W        W 2802  22.634  20.535  11.394
37323W        W 2803  22.738   6.338  12.049
37324W        W 2804   0.936  14.127   3.783
37325W        W 2805  18.660  20.158  14.926
37326W        W 2806  10.212   5.731   3.792
37327W        W 2807  12.668   3.885  12.374
37328W        W 2808  36.482  39.407   4.625
37329W        W 2809  17.151   6.331   0.939
37330W        W 2810  30.582  32.569   3.151
37331W        W 2811  37.526   9.202   0.295
37332W        W 2812   3.280  30.971   4.712
37333W        W 2813  28.175  29.476  10.412
37334W        W 2814   7.238   1.447   2.333
37335W        W 2815   5.331  44.959   2.780
37336W        W 2816  37.038  36.391   4.623
37337W        W 2817  43.365  39.043  10.480
37338W        W 2818  42.936   7.761  14.467
37339W        W 2819  31.056  44.375   3.246
37340W        W 2820   8.738   4.405   0.847
37341W        W 2821  27.082   7.326  13.843
37342W        W 2822  18.785  16.270  11.577
37343W        W 2823   7.322  31.597  12.983
37344W        W 2824  13.841  20.082   3.305
37345W        W 2825  42.487  23.606   2.809
37346W        W 2826  42.983   0.840   4.248
37347W        W 2827  24.688   2.269   2.874
37348W        W 2828  38.917   1.358   1.246
37349W        W 2829  43.316  23.163   2.340
37350W        W 2830  14.705   4.364   2.406
37351W        W 2831   8.776   8.207   3.646
37352W        W 2832  24.189   4.373   4.312
37353W        W 2833  36.865  15.206   2.673
37354W        W 2834   8.387  30.499  10.903
37355W        W 2835  35.878  10.324   3.785
37356W        W 2836   4.330   0.855   1.872
37357W        W 2837  33.088  10.367  10.552
37358W        W 2838   9.259   5.353   2.696
37359W        W 2839  10.865  41.393  14.513
37360W        W 2840  28.167  19.581  14.303
37361W        W 2841  20.194  35.582   2.243
37362W        W 2842  41.991  27.486   3.641
37363W        W 2843  35.922  39.354   1.262
37364W        W 2844  20.082  12.220  13.905
37365W        W 2845  33.130  25.013  14.883
37366W        W 2846   8.895  36.915   2.222
37367W        W 2847  12.255  31.566   1.423
37368W        W 2848   2.753  34.925   0.463
37369W        W 2849   4.744  13.837  13.897
37370W        W 2850  22.658  13.318   1.411
37371W        W 2851  17.692   8.249  14.512
37372W        W 2852  15.187  12.698  14.006
37373W        W 2853  43.004  27.542  12.005
37374W        W 2854  39.021  30.000   3.212
37375W        W 2855   5.715  11.777  11.081
37376W        W 2856  16.204   6.215  13.426
37377W        W 2857   2.241   0.337   4.232
37378W        W 2858  14.683  38.892  12.380
37379W        W 2859  28.493  25.563   3.196
37380W        W 2860   8.167  27.501  12.899
37381W        W 2861  19.078   8.317   4.732
37382W        W 2862  21.545  25.144  13.817
37383W        W 2863  44.495  10.862  12.580
37384W        W 2864   0.915  38.523  10.626
37385W        W 2865  12.730  32.507  14.799
37386W        W 2866  28.043  40.350   3.856
37387W        W 2867  16.661   2.330   2.376
37388W        W 2868   8.759  40.966   2.665
37389W        W 2869  15.611  10.837   3.707
37390W        W 2870  37.508  43.333   0.327
37391W        W 2871  35.939  43.410   4.772
37392W        W 2872  23.178   9.785   3.869
37393W        W 2873  22.539  39.474   3.774
37394W        W 2874  22.241  40.945  12.579
37395W        W 2875  35.552  43.841   2.349
37396W        W 2876   7.755   5.729  14.766
37397W        W 2877  22.675  19.576  10.145
37398W        W 2878  13.209  12.637  14.824
37399W        W 2879   0.785   6.878  14.281
37400W        W 2880   0.844  38.519   2.663
37401W        W 2881   8.288  31.514   4.644
37402W        W 2882  33.404  39.343   3.815
37403W        W 2883  27.054  26.073  14.983
37404W        W 2884  20.710  31.995   0.256
37405W        W 2885  28.491  25.638   3.868
37406W        W 2886  29.018  43.955  13.998
37407W        W 2887  16.107  43.807   1.728
37408W        W 2888  22.133  33.470   3.178
37409W        W 2889  21.211  26.185   3.311
37410W        W 2890   8.892  20.618  13.514
37411W        W 2891  44.374  20.052  13.008
37412W        W 2892  30.554  33.519   3.368
37413W        W 2893   1.427   7.792   4.192
37414W        W 2894   9.817  30.092  12.041
37415W        W 2895  26.968  27.628   3.229
37416W        W 2896  39.007  23.100   1.791
37417W        W 2897  29.146  44.379   0.772
37418W        W 2898  11.760  33.043  10.135
37419W        W 2899   7.865  35.018   3.738
37420W        W 2900  20.142  35.021  10.957
37421W        W 2901  39.548  30.012  11.065
37422W        W 2902  41.431  35.586   3.805
37423W        W 2903  21.680  26.652  10.952
37424W        W 2904  37.571  42.884  11.976
37425W        W 2905  21.165  29.982   3.863
37426W        W 2906  20.605  29.923   2.731
37427W        W 2907  14.325  20.657   4.235
37428W        W 2908  34.930  13.319   4.710
37429W        W 2909   9.273  35.970  14.465
37430W        W 2910  27.031  21.645   2.754
37431W        W 2911  16.316  25.047  11.977
37432W        W 2912   6.196  40.053   2.294
37433W        W 2913  44.395  12.735  11.953
37434W        W 2914   5.384   2.905  14.458
37435W        W 2915  35.859  12.319  10.534
37436W        W 2916   7.355  33.478  11.594
37437W        W 2917   5.806   0.360  12.855
37438W        W 2918  35.967  21.165  11.079
37439W        W 2919  21.020  38.565   1.729
37440W        W 2920  41.026  23.207  14.912
37441W        W 2921  14.326  34.070  10.016
37442W        W 2922  15.120  22.644  10.450
37443W        W 2923  40.319  29.424   3.263
37444W        W 2924  28.645  25.202  11.978
37445W        W 2925  22.167   7.820  12.996
37446W        W 2926   0.406  28.108  11.521
37447W        W 2927  17.289  36.377  10.133
37448W        W 2928   2.840   9.801   2.277
37449W        W 2929   5.282   8.389  10.581
37450W        W 2930  26.049   9.199  13.540
37451W        W 2931  42.850  20.273   3.177
37452W        W 2932   1.303  30.051  11.514
37453W        W 2933  19.083  36.090   1.225
37454W        W 2934  32.063  10.274  10.467
37455W        W 2935   8.784  22.599  12.853
37456W        W 2936  42.935  16.610  11.933
37457W        W 2937   5.365  40.309   3.824
37458W        W 2938   9.717  23.125   0.402
37459W        W 2939  24.674  33.422   1.863
37460W        W 2940  41.941   3.461  13.539
37461W        W 2941  19.265  33.079  10.533
37462W        W 2942  34.108   4.899  11.102
37463W        W 2943  30.418   2.814   2.390
37464W        W 2944  17.257  36.512  10.999
37465W        W 2945  37.044  12.171   2.869
37466W        W 2946  19.753   0.918   0.733
37467W        W 2947  18.682  42.919  12.534
37468W        W 2948  29.974  13.730  12.035
37469W        W 2949  26.486  13.166   0.804
37470W        W 2950  25.125   8.869   1.450
37471W        W 2951  17.682  10.274   3.195
37472W        W 2952  43.426  32.575  14.307
37473W        W 2953  23.637   0.435   0.484
37474W        W 2954   8.767  23.076   3.286
37475W        W 2955  19.084   3.724  14.846
37476W        W 2956   7.406   6.323  11.597
37477W        W 2957  38.886   8.863  11.559
37478W        W 2958   5.360  30.119   0.446
37479W        W 2959  39.401  24.490  10.987
37480W        W 2960   1.482  24.638   4.602
37481W        W 2961  10.249  33.425  12.497
37482W        W 2962   4.890  22.101   1.347
37483W        W 2963  39.811  34.088   1.906
37484W        W 2964  21.691   1.753   1.874
37485W        W 2965   7.771   4.752  10.443
37486W        W 2966  11.678  24.172  10.535
37487W        W 2967  14.604  43.954   2.663
37488W        W 2968  21.572  29.082   1.299
37489W        W 2969  36.859  17.769   0.406
37490W        W 2970  39.356   2.303  11.596
37491W        W 2971   1.828   5.241   4.333
37492W        W 2972  24.159  13.716  12.489
37493W        W 2973  38.325  32.440   0.357
37494W        W 2974  35.902  37.350   0.350
37495W        W 2975  22.059   4.270  10.591
37496W        W 2976  33.910  26.623   1.299
37497W        W 2977  37.953   0.768   0.929
37498W        W 2978  43.452  34.108  12.892
37499W        W 2979  39.417  27.459  12.919
37500W        W 2980  10.141  13.247   1.410
37501W        W 2981   0.962  42.972  13.896
37502W        W 2982   6.680  43.390  11.076
37503W        W 2983  13.616   3.377  13.839
37504W        W 2984  24.108  30.004  14.943
37505W        W 2985  21.173  26.984   1.268
37506W        W 2986  44.809  41.329   4.353
37507W        W 2987   1.893  43.409   3.720
37508W        W 2988  24.500  40.381   1.382
37509W        W 2989  39.376  44.919  12.498
37510W        W 2990  19.204  18.743   1.895
37511W        W 2991  18.190   1.278   1.268
37512W        W 2992   6.299  34.965   1.212
37513W        W 2993  27.098  22.151   3.223
37514W        W 2994  15.092  25.596  13.355
37515W        W 2995   6.298  19.203  12.889
37516W        W 2996   3.448   1.743  13.949
37517W        W 2997   0.917  27.945  12.456
37518W        W 2998   8.756   6.384  11.372
37519W        W 2999  27.050  14.227  13.915
37520W        W 3000  27.685  41.925   0.441
37521W        W 3001  16.281  19.659   3.189
37522W        W 3002   2.266   7.287  12.944
37523W        W 3003   6.710  24.170   2.241
37524W        W 3004  17.591  13.815  12.567
37525W        W 3005   9.666  11.688  12.534
37526W        W 3006  38.444   4.885  10.543
37527W        W 3007  11.181  33.006  14.410
37528W        W 3008   2.772  41.916   1.283
37529W        W 3009  37.539   7.739   4.653
37530W        W 3010   4.826  10.322  12.399
37531W        W 3011   2.283  21.640  13.506
37532W        W 3012  33.936  27.582   3.357
37533W        W 3013  44.425  15.578   1.348
37534W        W 3014   0.809   0.265   1.338
37535W        W 3015  31.007  35.378  13.983
37536W        W 3016  41.521  24.208   3.728
37537W        W 3017  40.975  10.682  11.087
37538W        W 3018  33.892  15.163  11.936
37539W        W 3019  13.309  14.833   1.390
37540W        W 3020  28.081  28.630   0.308
37541W        W 3021  17.560   1.782   2.781
37542W        W 3022  38.960  39.048  10.908
37543W        W 3023  40.884  40.488  14.936
37544W        W 3024  17.711  36.521   1.417
37545W        W 3025  10.225   8.885  12.363
37546W        W 3026  18.632  18.196  10.479
37547W        W 3027   6.245  31.067   1.896
37548W        W 3028  26.516  22.039   1.700
37549W        W 3029  21.654  34.548   0.792
37550W        W 3030  10.651  21.697  10.539
37551W        W 3031   5.771  27.180   3.273
37552W        W 3032  40.529  21.050   2.274
37553W        W 3033  42.899  29.102  14.786
37554W        W 3034  21.242  23.008  11.996
37555W        W 3035   5.876  13.692   4.766
37556W        W 3036  13.275   7.252  10.938
37557W        W 3037  41.023   6.697   4.196
37558W        W 3038  29.054  16.592  10.548
37559W        W 3039  14.263   6.373   4.623
37560W        W 3040  41.838  12.169  11.424
37561W        W 3041  29.543   6.226  11.521
37562W        W 3042  25.147  12.726   4.186
37563W        W 3043  32.050  24.595  11.606
37564W        W 3044  28.145  19.729   0.747
37565W        W 3045  22.648  33.996   0.407
37566W        W 3046   6.381  16.667   0.332
37567W        W 3047  23.577  17.252  11.524
37568W        W 3048  38.462  41.881   4.742
37569W        W 3049  27.152  10.371   3.252
37570W        W 3050   8.259  38.422  14.775
37571W        W 3051  37.548   6.225  12.393
37572W        W 3052   5.790  41.438   3.844
37573W        W 3053  24.521   0.341  10.066
37574W        W 3054   7.715   2.929   3.710
37575W        W 3055  38.055  21.752   3.307
37576W        W 3056  34.603   9.159   0.306
37577W        W 3057  41.490  10.224  12.420
37578W        W 3058   4.228  24.067   0.905
37579W        W 3059  15.175   0.465   0.319
37580W        W 3060   8.190  15.648  13.436
37581W        W 3061   3.335  32.046   2.257
37582W        W 3062  34.420   4.312  14.904
37583W        W 3063   8.240  24.657  10.420
37584W        W 3064  26.005  17.268  11.930
37585W        W 3065  32.997  13.693   4.125
37586W        W 3066  14.798   0.816   5.132
37587W        W 3067   0.288  21.613  14.926
37588W        W 3068   9.750  30.543   2.355
37589W        W 3069   8.900  23.558   0.946
37590W        W 3070  24.148  21.705   0.315
37591W        W 3071   3.757  14.592   3.369
37592W        W 3072   0.829  38.009  13.835
37593W        W 3073  16.103  22.091  14.833
37594W        W 3074  11.790  36.501   0.437
37595W        W 3075  36.394  28.559  10.992
37596W        W 3076  25.547  25.054  11.599
37597W        W 3077  44.850   0.284  10.494
37598W        W 3078  36.429  35.375   2.410
37599W        W 3079   6.755  10.702   0.471
37600W        W 3080   5.738  42.798   9.949
37601W        W 3081  42.935  11.332  11.601
37602W        W 3082  26.677  32.076   0.928
37603W        W 3083  12.168  31.009  11.533
37604W        W 3084   6.905  20.148  14.771
37605W        W 3085  31.440  18.572  11.399
37606W        W 3086  19.606  31.422   3.770
37607W        W 3087   7.376  21.051  14.770
37608W        W 3088  33.535  38.885  14.813
37609W        W 3089   9.871  34.372   0.860
37610W        W 3090   7.855   9.356  13.015
37611W        W 3091  41.381  18.079  11.573
37612W        W 3092  28.623  32.026  10.470
37613W        W 3093   7.184   5.708   1.248
37614W        W 3094  35.578  44.482   0.928
37615W        W 3095  24.025  13.116   4.280
37616W        W 3096   3.242  21.144   4.826
37617W        W 3097  14.175  32.924  12.532
37618W        W 3098   9.767   0.420   1.216
37619W        W 3099  43.445  29.578  14.966
37620W        W 3100  38.957  15.627  10.026
37621W        W 3101  31.089  16.577   1.755
37622W        W 3102   2.893   5.773   2.738
37623W        W 3103   9.252   6.922   1.308
37624W        W 3104  42.416   2.737   1.232
37625W        W 3105   2.365   1.899  13.937
37626W        W 3106   7.252   7.870   3.365
37627W        W 3107   6.368  25.004   5.107
37628W        W 3108  19.096  41.292   4.141
37629W        W 3109  18.721  12.164   2.690
37630W        W 3110  11.826  20.125   0.827
37631W        W 3111  20.057  35.995   1.343
37632W        W 3112  39.470   8.772  12.383
37633W        W 3113  40.322  11.309  14.988
37634W        W 3114  35.028  27.559   0.826
37635W        W 3115  36.002  20.042  13.916
37636W        W 3116   3.405  24.619   4.141
37637W        W 3117  38.995  30.567  14.375
37638W        W 3118   1.800  16.221   2.810
37639W        W 3119  13.697  26.041  12.954
37640W        W 3120  18.586  26.999   5.313
37641W        W 3121  30.572  35.994   3.654
37642W        W 3122   6.408  39.835  12.504
37643W        W 3123  27.500  17.684  13.886
37644W        W 3124  31.923  21.665   2.700
37645W        W 3125  20.736  38.532  12.090
37646W        W 3126  10.689  22.586   3.268
37647W        W 3127   6.385  35.105   3.718
37648W        W 3128  34.094   7.754   4.203
37649W        W 3129  35.978  21.052   2.677
37650W        W 3130  26.968   7.209  14.901
37651W        W 3131  12.360  22.042   3.219
37652W        W 3132  36.973  19.681  12.341
37653W        W 3133  27.667   5.354  10.546
37654W        W 3134   6.707   7.384   1.781
37655W        W 3135  29.423  42.806  13.866
37656W        W 3136   0.968  45.000  10.601
37657W        W 3137  39.819  36.860   3.793
37658W        W 3138  10.235  20.180   3.743
37659W        W 3139  33.052  23.136  14.998
37660W        W 3140  36.352  31.899   4.299
37661W        W 3141  14.276  13.193  12.569
37662W        W 3142   4.307  19.655  10.477
37663W        W 3143  28.156  16.789  12.852
37664W        W 3144  43.790  38.547   4.131
37665W        W 3145  41.848  26.535  11.123
37666W        W 3146  38.940  33.892  11.105
37667W        W 3147  43.882  10.383   0.311
37668W        W 3148  15.644  33.929  13.007
37669W        W 3149  28.968   4.883   2.257
37670W        W 3150  28.062  24.181   2.376
37671W        W 3151  15.784  31.099   3.312
37672W        W 3152  23.070   5.398  13.025
37673W        W 3153   3.872  39.865  11.867
37674W        W 3154  28.569  34.541  14.512
37675W        W 3155  19.101   2.386  13.008
37676W        W 3156   7.310  14.796   4.153
37677W        W 3157  36.974  24.537   4.617
37678W        W 3158   4.902  44.460   4.209
37679W        W 3159  24.142  22.700  14.436
37680W        W 3160   7.325  24.997   4.815
37681W        W 3161  40.001  28.558  13.452
37682W        W 3162  28.149  27.623  12.387
37683W        W 3163  28.613   7.348  11.953
37684W        W 3164  44.930  13.659  13.402
37685W        W 3165  40.308  28.975   0.469
37686W        W 3166   2.326  12.838  12.392
37687W        W 3167  35.396  22.662  14.768
37688W        W 3168  34.965  29.139   0.832
37689W        W 3169  34.543  20.061   3.179
37690W        W 3170  36.878  44.800  12.886
37691W        W 3171   4.894  29.162   5.254
37692W        W 3172  42.408  36.944  11.564
37693W        W 3173  13.141   5.880   3.738
37694W        W 3174  16.106  15.594   5.165
37695W        W 3175  28.586  19.756   3.773
37696W        W 3176  11.778  36.920  11.475
37697W        W 3177  20.185  36.468  14.390
37698W        W 3178   0.319  28.111  11.088
37699W        W 3179  11.793  44.880   2.197
37700W        W 3180  11.727  35.871  10.064
37701W        W 3181   5.208  31.952   2.719
37702W        W 3182  26.639  37.370  10.637
37703W        W 3183  11.320  17.568  13.521
37704W        W 3184   8.870  22.550  14.438
37705W        W 3185  24.064  39.013  12.358
37706W        W 3186  15.315   8.195  11.510
37707W        W 3187  26.675  27.458  11.907
37708W        W 3188  39.345   0.843  10.553
37709W        W 3189  11.666  44.277  14.296
37710W        W 3190   2.373  11.844   3.694
37711W        W 3191  32.532  27.679  10.405
37712W        W 3192  40.524   5.277   0.914
37713W        W 3193  35.394  20.574  13.373
37714W        W 3194  36.460  26.547  10.640
37715W        W 3195   0.758  40.850  12.857
37716W        W 3196  41.319   6.425   3.331
37717W        W 3197  23.506   9.302  14.955
37718W        W 3198  32.044  16.586  12.506
37719W        W 3199  37.012  40.412  10.616
37720W        W 3200  19.242  44.762   2.778
37721W        W 3201  12.203   7.286  12.455
37722W        W 3202  31.950  24.641   0.393
37723W        W 3203   5.322  37.079  12.059
37724W        W 3204   3.936  11.167  10.983
37725W        W 3205  13.804  18.558  13.527
37726W        W 3206   1.325  44.879  14.957
37727W        W 3207  23.203  43.825   0.919
37728W        W 3208   6.809   0.857   0.812
37729W        W 3209   3.232  22.141  13.976
37730W        W 3210   7.314  30.551   0.314
37731W        W 3211  18.643  22.039  11.909
37732W        W 3212  21.732  36.992   4.829
37733W        W 3213  22.105  19.737   4.621
37734W        W 3214  26.130  36.857   2.408
37735W        W 3215  19.700  34.446   0.887
37736W        W 3216   3.851  23.585  14.402
37737W        W 3217  15.618  40.019  14.855
37738W        W 3218  16.768  22.633  13.423
37739W        W 3219  37.991   8.376  10.472
37740W        W 3220   4.795  41.361   0.455
37741W        W 3221  29.540   6.694  12.893
37742W        W 3222  38.944  10.278   5.122
37743W        W 3223  37.459  39.880  13.923
37744W        W 3224  10.281  39.832  12.576
37745W        W 3225  13.707   4.846  13.525
37746W        W 3226  31.634  40.830  14.467
37747W        W 3227  39.029  33.890  12.868
37748W        W 3228   9.774  14.829   3.672
37749W        W 3229  12.732  14.679   3.865
37750W        W 3230  29.084   9.707  10.992
37751W        W 3231  13.748  27.942   0.750
37752W        W 3232  25.024  16.315   3.193
37753W        W 3233  21.539  11.847   4.836
37754W        W 3234  21.528   7.284  13.841
37755W        W 3235  25.199   0.829   1.792
37756W        W 3236  26.070  44.850   3.285
37757W        W 3237  36.922  26.461  12.010
37758W        W 3238  12.257   7.247   3.323
37759W        W 3239  42.476  44.847   4.312
37760W        W 3240  19.099  33.008   0.903
37761W        W 3241  24.624   7.281   3.852
37762W        W 3242  27.187  30.092  13.371
37763W        W 3243  26.592  32.490  12.465
37764W        W 3244  15.603  35.396  14.956
37765W        W 3245  18.182  41.412  13.802
37766W        W 3246   3.946   2.732   4.724
37767W        W 3247   9.165  41.904  10.903
37768W        W 3248  42.473  39.398  14.832
37769W        W 3249  21.702  35.880  10.910
37770W        W 3250   9.329  16.072  10.573
37771W        W 3251   6.244  37.568  13.471
37772W        W 3252   8.166   3.301   0.312
37773W        W 3253  28.079  31.080  13.810
37774W        W 3254  26.530  44.933   3.196
37775W        W 3255  21.626  33.920   4.114
37776W        W 3256   2.456  11.245   0.460
37777W        W 3257  18.592   1.941   0.370
37778W        W 3258  37.435  30.428   0.339
37779W        W 3259  42.349  36.925  13.329
37780W        W 3260  41.391  29.112  14.304
37781W        W 3261  41.908  16.083  12.394
37782W        W 3262  14.697  40.377  10.566
37783W        W 3263  16.652   4.375   3.826
37784W        W 3264  27.095  30.638  13.339
37785W        W 3265  35.989  42.805   3.156
37786W        W 3266   9.395  40.534  12.392
37787W        W 3267  20.074  10.856   4.676
37788W        W 3268  15.685   1.290  13.062
37789W        W 3269  32.127  12.159   4.125
37790W        W 3270   6.780  39.405   3.753
37791W        W 3271  29.028   5.223   2.851
37792W        W 3272   9.361   9.703  10.590
37793W        W 3273  27.586   6.264  12.867
37794W        W 3274  41.421  26.604   3.813
37795W        W 3275  24.709  32.096  14.372
37796W        W 3276  25.979  21.628   0.824
37797W        W 3277  24.171  29.438  13.405
37798W        W 3278  26.020  41.952  10.932
37799W        W 3279  15.267  30.488  14.979
37800W        W 3280  20.214  28.067   0.276
37801W        W 3281   0.817  15.816   0.315
37802W        W 3282  24.101  10.737  13.000
37803W        W 3283   5.778  38.057   1.293
37804W        W 3284   6.895  39.959  11.089
37805W        W 3285  35.905   5.860  10.406
37806W        W 3286  13.723  10.154  13.056
37807W        W 3287   4.405  28.454   4.223
37808W        W 3288   8.202  35.391   4.811
37809W        W 3289  40.968  35.472  10.924
37810W        W 3290   2.339  29.517   2.869
37811W        W 3291  39.852  44.764   4.175
37812W        W 3292  15.622  37.451   0.878
37813W        W 3293   7.367  21.512  14.463
37814W        W 3294   4.917  33.969   3.213
37815W        W 3295  36.411  10.661  10.443
37816W        W 3296  30.078  28.495  12.063
37817W        W 3297  27.669  33.116   2.202
37818W        W 3298  11.247  39.976  11.433
37819W        W 3299  14.598  13.194  11.886
37820W        W 3300  28.054  12.768  14.343
37821W        W 3301  31.140  27.107  14.318
37822W        W 3302  36.937  42.850   4.769
37823W        W 3303  34.905  19.216  12.352
37824W        W 3304   5.266  24.695   2.722
37825W        W 3305  15.780  25.072  11.561
37826W        W 3306   0.327  41.001   1.902
37827W        W 3307  40.971  22.549   0.885
37828W        W 3308  15.166   4.784  12.070
37829W        W 3309  23.545  19.627   0.932
37830W        W 3310  35.005  17.758   1.223
37831W        W 3311   1.468   4.907  13.062
37832W        W 3312  42.523  13.632   1.825
37833W        W 3313   4.813  13.337  12.881
37834W        W 3314  16.758  15.653  13.350
37835W        W 3315  37.574  27.524   0.809
37836W        W 3316  24.119  13.638   1.310
37837W        W 3317  27.955   2.882   4.145
37838W        W 3318  39.835  11.186   3.303
37839W        W 3319  29.047  13.843  10.593
37840W        W 3320  36.465  12.671  13.410
37841W        W 3321   2.842  26.628   0.893
37842W        W 3322  43.777   6.300   4.120
37843W        W 3323  12.329  34.543  11.095
37844W        W 3324  34.472  42.854  12.845
37845W        W 3325  12.173  11.840   4.343
37846W        W 3326  36.516   6.234   2.875
37847W        W 3327  30.562  20.566   4.324
37848W        W 3328   7.891   1.782   0.315
37849W        W 3329  40.971  19.558  11.456
37850W        W 3330  12.807   9.371   2.786
37851W        W 3331  19.719  24.191  12.568
37852W        W 3332   7.179   9.155  14.874
37853W        W 3333   3.861  13.263   0.327
37854W        W 3334  43.972   0.445  11.380
37855W        W 3335  38.560   6.758  14.817
37856W        W 3336  31.013  18.071  10.569
37857W        W 3337  12.616   8.296  14.913
37858W        W 3338  34.592  22.693  11.063
37859W        W 3339  42.003  42.360   0.937
37860W        W 3340  37.920  20.220   1.903
37861W        W 3341  16.605  41.034   0.957
37862W        W 3342  29.171  11.820  10.941
37863W        W 3343  26.046  10.672   1.217
37864W        W 3344  12.245   0.265  11.873
37865W        W 3345  21.062  40.548   5.112
37866W        W 3346   7.244  44.866  13.331
37867W        W 3347   7.757  34.479  14.001
37868W        W 3348  31.015  13.287   3.301
37869W        W 3349   3.227  11.290   3.254
37870W        W 3350   6.830   2.400  11.488
37871W        W 3351  15.603  15.731   1.278
37872W        W 3352  15.142  32.496   4.208
37873W        W 3353   1.371  23.040   0.835
37874W        W 3354  26.105   6.861  12.346
37875W        W 3355  44.404  25.213   0.306
37876W        W 3356   4.421  39.954   3.280
37877W        W 3357   9.277  18.550   1.816
37878W        W 3358  44.463  26.145  11.886
37879W        W 3359  17.686  31.498  11.917
37880W        W 3360  12.667  24.001  13.507
37881W        W 3361   4.379   9.746   0.866
37882W        W 3362  29.442  41.992   4.760
37883W        W 3363  32.045  10.788   4.629
37884W        W 3364  33.049   4.306  10.599
37885W        W 3365  26.695  43.828  14.987
37886W        W 3366   4.287  20.261   2.893
37887W        W 3367  41.928  12.780   1.440
37888W        W 3368  27.478  11.701  13.933
37889W        W 3369  12.125   9.769  11.392
37890W        W 3370  15.264  37.536  14.465
37891W        W 3371   9.232   2.243   2.271
37892W        W 3372  41.412  22.040  12.381
37893W        W 3373   5.898   1.441   0.282
37894W        W 3374  41.360  32.484  12.013
37895W        W 3375  31.405  13.843  14.013
37896W        W 3376   0.973   6.824  11.987
37897W        W 3377   3.872   0.824   1.279
37898W        W 3378   9.885  19.546  11.463
37899W        W 3379  23.649  24.560  14.821
37900W        W 3380   4.416  22.184   1.703
37901W        W 3381  28.982  36.011  14.389
37902W        W 3382  16.725  40.817  12.937
37903W        W 3383  17.193  39.869  13.024
37904W        W 3384  18.102  13.702   0.417
37905W        W 3385  34.404   7.255   0.790
37906W        W 3386   3.847   9.261  10.914
37907W        W 3387  19.113  30.607  14.775
37908W        W 3388   7.274  11.851  11.912
37909W        W 3389  22.593   2.845  14.369
37910W        W 3390  20.710  32.521   3.743
37911W        W 3391  14.329  42.961   1.877
37912W        W 3392   5.280  39.954  13.970
37913W        W 3393  21.251   5.703  13.338
37914W        W 3394  27.659   1.788  13.498
37915W        W 3395  39.850  28.975  13.829
37916W        W 3396   8.830  30.479  10.527
37917W        W 3397  20.039  10.860  11.593
37918W        W 3398  31.505  17.256   1.283
37919W        W 3399  21.556  23.590   0.730
37920W        W 3400  33.035  28.494  10.933
37921W        W 3401  13.652  32.405   1.428
37922W        W 3402  12.181  26.014  12.832
37923W        W 3403  18.205  35.570  12.907
37924W        W 3404  16.647  28.153   2.896
37925W        W 3405  22.674  26.004  12.087
37926W        W 3406  22.629  21.047   4.288
37927W        W 3407  42.009  16.786  11.108
37928W        W 3408  30.930  22.532   4.739
37929W        W 3409  11.782  35.575  13.023
37930W        W 3410   2.808  21.566   1.363
37931W        W 3411   6.382  26.002   3.853
37932W        W 3412   3.898  10.852   3.775
37933W        W 3413  18.676   8.870   9.974
37934W        W 3414  37.978   8.353   2.811
37935W        W 3415  33.966  16.672  13.929
37936W        W 3416  40.017  44.915   1.808
37937W        W 3417   5.701  23.067  11.382
37938W        W 3418  26.181  41.008  11.431
37939W        W 3419   2.862  17.303  14.021
37940W        W 3420   0.435  27.579  10.921
37941W        W 3421  25.515  26.698   3.857
37942W        W 3422  34.499   4.301   3.218
37943W        W 3423  24.024  29.597   3.369
37944W        W 3424   5.382   8.771   2.871
37945W        W 3425  20.232   2.400  13.537
37946W        W 3426  14.267  36.413   2.662
37947W        W 3427  42.495  11.225   0.261
37948W        W 3428  11.730  43.799   0.867
37949W        W 3429  41.848   8.830  14.369
37950W        W 3430   6.288  32.043  10.132
37951W        W 3431  33.543   8.745   1.861
37952W        W 3432   9.227  14.229  14.019
37953W        W 3433  26.156  38.556  11.607
37954W        W 3434  31.914  30.469  13.040
37955W        W 3435  29.023  26.110   2.361
37956W        W 3436  39.368  38.043  10.519
37957W        W 3437  19.160  11.190  11.489
37958W        W 3438  32.921  42.922   2.389
37959W        W 3439  13.839  32.132  14.857
37960W        W 3440  40.459  27.550  10.471
37961W        W 3441  18.662  28.042  11.117
37962W        W 3442  43.382  17.607   0.800
37963W        W 3443  35.907  26.592   3.743
37964W        W 3444   0.329  26.686   4.116
37965W        W 3445   1.371   2.336  10.414
37966W        W 3446  15.763  28.956   9.984
37967W        W 3447  21.145  32.050   1.235
37968W        W 3448  41.886   4.718  11.436
37969W        W 3449   7.276   8.292  12.517
37970W        W 3450   7.267  31.104  14.282
37971W        W 3451  18.734  26.637  10.109
37972W        W 3452  29.125  11.814   2.692
37973W        W 3453  41.792  37.865  11.911
37974W        W 3454  26.463  37.833  11.412
37975W        W 3455  39.963  27.996   0.944
37976W        W 3456  37.518  32.573   3.747
37977W        W 3457  44.370  40.547  14.972
37978W        W 3458  40.400  34.015   2.356
37979W        W 3459  42.363  16.812   3.249
37980W        W 3460   0.893  38.490  12.046
37981W        W 3461  43.348  26.202   3.649
37982W        W 3462  29.973  16.621  12.495
37983W        W 3463  38.441  33.123   2.860
37984W        W 3464   9.157  27.046   4.172
37985W        W 3465  36.850  42.984  13.413
37986W        W 3466   8.343  11.222  11.050
37987W        W 3467  36.874  33.937   1.791
37988W        W 3468  24.160   4.233   0.959
37989W        W 3469  14.318  23.059   4.600
37990W        W 3470  22.043   4.365   4.662
37991W        W 3471   8.872  32.622  10.911
37992W        W 3472  19.280  21.090   1.284
37993W        W 3473  41.031   4.769  12.915
37994W        W 3474  21.681  20.196   3.721
37995W        W 3475  16.654  20.219   1.803
37996W        W 3476  31.005  35.009  12.010
37997W        W 3477  12.754  14.239  14.988
37998W        W 3478  26.496  18.690  13.854
37999W        W 3479   4.883   3.819  14.965
38000W        W 3480   4.259  42.977  10.965
38001W        W 3481  29.953   3.941   0.403
38002W        W 3482  22.039   6.277  10.438
38003W        W 3483  21.213  38.871  10.573
38004W        W 3484  24.690  25.506   1.239
38005W        W 3485   4.371   9.782   0.272
38006W        W 3486   0.935  31.924  10.970
38007W        W 3487  10.376  39.385  14.466
38008W        W 3488   1.917  25.496   1.764
38009W        W 3489   0.774  28.528   2.872
38010W        W 3490  18.676  43.307  10.499
38011W        W 3491  43.450  12.320   3.668
38012W        W 3492  16.247  30.028  12.417
38013W        W 3493   2.400   9.332  12.060
38014W        W 3494   3.747  40.975   1.349
38015W        W 3495   6.803  12.720  11.459
38016W        W 3496  35.559  34.927   4.835
38017W        W 3497  24.690   0.947   2.787
38018W        W 3498   0.412  24.040   3.363
38019W        W 3499  26.172  43.438  12.919
38020W        W 3500  42.004   6.866  14.868
38021W        W 3501  13.684  23.038  12.826
38022W        W 3502   7.381  33.466   2.722
38023W        W 3503  42.519  27.446  13.465
38024W        W 3504  24.617   2.249  11.003
38025W        W 3505  22.666   4.340   2.197
38026W        W 3506  19.215  35.014  11.474
38027W        W 3507  20.668  26.053   2.261
38028W        W 3508  14.233  22.689  13.023
38029W        W 3509  28.575  15.590   0.778
38030W        W 3510   9.335  25.103   3.170
38031W        W 3511   9.334   0.878  13.926
38032W        W 3512  25.491   4.286   0.810
38033W        W 3513   5.734  43.817  13.477
38034W        W 3514  35.482  30.519   2.274
38035W        W 3515  32.582  37.381   5.239
38036W        W 3516   7.706  21.583  14.895
38037W        W 3517  11.831  31.956   1.266
38038W        W 3518   3.785  36.568   5.238
38039W        W 3519  17.214  13.268   3.371
38040W        W 3520  43.966  13.835  12.411
38041W        W 3521  25.582  44.326   2.230
38042W        W 3522  35.514  22.155  13.412
38043W        W 3523  26.982   7.854   2.751
38044W        W 3524  41.453  11.837   4.740
38045W        W 3525  29.020  41.002   0.289
38046W        W 3526  20.668   0.857   0.864
38047W        W 3527  17.593  17.232  14.969
38048W        W 3528  25.692   0.390   2.686
38049W        W 3529   0.744  40.375  10.409
38050W        W 3530  21.708  28.491   4.298
38051W        W 3531  23.625  13.124  13.406
38052W        W 3532  33.928   5.852   3.312
38053W        W 3533  28.992  20.244   4.330
38054W        W 3534  17.291   7.191  11.413
38055W        W 3535  13.330   9.864   1.240
38056W        W 3536   2.922  27.543   1.421
38057W        W 3537  19.570  27.092  13.518
38058W        W 3538   2.852  34.399   0.788
38059W        W 3539   0.789  35.366  12.457
38060W        W 3540  37.364  10.664   3.170
38061W        W 3541  39.536  41.404   3.844
38062W        W 3542  23.152  39.848   1.221
38063W        W 3543  34.614   4.317   2.804
38064W        W 3544  12.199   1.407  11.526
38065W        W 3545   2.739  36.526   0.943
38066W        W 3546  11.729  25.587  10.894
38067W        W 3547  34.452  12.713  12.923
38068W        W 3548  40.509  16.654   2.334
38069W        W 3549  41.980  20.091  11.983
38070W        W 3550  11.642  10.675   0.379
38071W        W 3551  40.930  12.718   3.316
38072W        W 3552  32.129  40.957  11.452
38073W        W 3553  35.428  14.138   2.762
38074W        W 3554  14.621  18.236   1.337
38075W        W 3555  28.047  18.216   1.355
38076W        W 3556  22.127  32.420   2.663
38077W        W 3557  17.680  24.211  12.560
38078W        W 3558  31.077   0.752   4.796
38079W        W 3559  15.653  35.577  12.513
38080W        W 3560  14.190  27.957  12.528
38081W        W 3561  23.669  22.709   1.438
38082W        W 3562   1.449  22.121   2.709
38083W        W 3563  10.327  37.845   3.640
38084W        W 3564   4.856  22.615  14.334
38085W        W 3565  23.508  11.708   1.229
38086W        W 3566  38.970  35.066  10.581
38087W        W 3567  21.022  42.989  14.346
38088W        W 3568  33.011  42.337   4.194
38089W        W 3569  33.546  27.499   0.931
38090W        W 3570   4.894  34.884   0.412
38091W        W 3571  41.027  32.513  14.303
38092W        W 3572   4.807  26.118  14.013
38093W        W 3573  18.546  13.749  12.401
38094W        W 3574  28.988   3.316   4.689
38095W        W 3575  28.112   2.378  10.142
38096W        W 3576  25.033  22.012   0.341
38097W        W 3577  37.933  15.610   3.342
38098W        W 3578  33.579  23.148   2.774
38099W        W 3579  40.389   4.440   2.847
38100W        W 3580  37.538  19.161   4.733
38101W        W 3581  21.541  42.020   1.314
38102W        W 3582   9.305  37.943  14.428
38103W        W 3583  12.222  31.559  12.970
38104W        W 3584  34.983  26.132   3.275
38105W        W 3585   9.337   5.234   3.185
38106W        W 3586  20.232   5.858   0.772
38107W        W 3587  32.465  37.835  11.052
38108W        W 3588  27.480  23.508  12.047
38109W        W 3589  38.996  21.188  10.998
38110W        W 3590  32.413  18.059   0.907
38111W        W 3591  11.837   0.977   3.697
38112W        W 3592  36.845  22.746  11.396
38113W        W 3593   1.941   9.820  11.445
38114W        W 3594   7.780  22.503   3.711
38115W        W 3595  29.433  11.291   3.145
38116W        W 3596  18.093  38.908   3.703
38117W        W 3597  30.021   3.442   3.327
38118W        W 3598   7.857  27.982  13.963
38119W        W 3599  22.718  17.234  10.077
38120W        W 3600  26.695  44.976  14.932
38121W        W 3601  39.901  28.659   3.146
38122W        W 3602   7.826   9.727  12.910
38123W        W 3603  30.459  34.530   0.748
38124W        W 3604  28.138  25.181   5.303
38125W        W 3605  20.186   2.432   1.240
38126W        W 3606  29.430  27.621   0.728
38127W        W 3607  17.304  42.384  12.379
38128W        W 3608  37.043  10.220   0.937
38129W        W 3609  21.158  32.897   4.332
38130W        W 3610   8.732  24.505  10.448
38131W        W 3611  27.509  31.545  11.490
38132W        W 3612  34.604  11.794  12.409
38133W        W 3613   3.346  43.440   4.663
38134W        W 3614   6.372  16.730  12.077
38135W        W 3615  27.100  27.610  10.408
38136W        W 3616  13.823   2.252   4.680
38137W        W 3617  39.889   8.340  10.506
38138W        W 3618   0.394  42.404  11.861
38139W        W 3619   8.392  17.735  13.932
38140W        W 3620  24.497  43.898   2.381
38141W        W 3621  41.800  27.517  14.480
38142W        W 3622  12.201  37.525  13.901
38143W        W 3623  24.620  19.137   2.726
38144W        W 3624  16.681  10.803  14.405
38145W        W 3625  12.747   0.768  14.794
38146W        W 3626  44.991  33.393  14.288
38147W        W 3627  15.263  23.565   4.705
38148W        W 3628  34.116  23.096   2.675
38149W        W 3629  20.631  32.610  11.490
38150W        W 3630  15.730  39.957   1.734
38151W        W 3631  17.131  11.289  10.426
38152W        W 3632  33.585   0.784   2.335
38153W        W 3633  39.378  34.103   2.366
38154W        W 3634  17.615  10.809  13.536
38155W        W 3635  22.072  35.980  13.041
38156W        W 3636  11.369   3.777  10.469
38157W        W 3637  38.482  33.051   0.919
38158W        W 3638  22.062   9.722  12.865
38159W        W 3639   3.407  36.915   4.754
38160W        W 3640  11.324  25.123  11.922
38161W        W 3641  15.637  19.691  12.006
38162W        W 3642   5.740  29.512  13.925
38163W        W 3643  38.386  33.476   4.223
38164W        W 3644  11.267   6.420   3.736
38165W        W 3645  25.613   7.694  14.842
38166W        W 3646  23.199   9.649  13.540
38167W        W 3647  32.962  34.112   1.712
38168W        W 3648  21.577   7.364  12.403
38169W        W 3649  44.455  41.981   1.385
38170W        W 3650  26.606  20.619   0.857
38171W        W 3651  18.649  32.420  13.372
38172W        W 3652  22.118  15.687   3.272
38173W        W 3653  24.062  10.673   0.355
38174W        W 3654  10.654  29.059  12.433
38175W        W 3655  35.514  35.589   4.137
38176W        W 3656  30.584  27.692  10.534
38177W        W 3657  23.563  40.535  12.053
38178W        W 3658  14.590  44.758   2.844
38179W        W 3659  25.046  37.947  13.972
38180W        W 3660  41.366  20.691  10.983
38181W        W 3661  17.636  29.619   1.270
38182W        W 3662  40.943  32.136   3.196
38183W        W 3663  39.555   8.176  10.547
38184W        W 3664  14.272  41.999   2.244
38185W        W 3665   9.395  15.226   2.858
38186W        W 3666  18.577  19.054  10.403
38187W        W 3667   7.179  17.712   3.675
38188W        W 3668  21.651  35.418   0.477
38189W        W 3669  28.068   5.212  11.586
38190W        W 3670  38.872  23.660  11.121
38191W        W 3671  40.016  24.999  12.554
38192W        W 3672  42.357  31.521   1.882
38193W        W 3673  34.000  41.897   2.367
38194W        W 3674  32.466  42.872   4.230
38195W        W 3675  19.612   0.336   0.833
38196W        W 3676  10.775  41.021   3.860
38197W        W 3677  12.629   4.393   2.823
38198W        W 3678  27.592  30.076   2.687
38199W        W 3679  11.138  33.020  12.342
38200W        W 3680  42.989  25.073  14.429
38201W        W 3681  28.162  21.729   0.246
38202W        W 3682   3.457  18.584   0.254
38203W        W 3683  40.405  16.764  13.924
38204W        W 3684  30.016  24.618  14.405
38205W        W 3685  37.964  24.113   4.621
38206W        W 3686  41.330   5.761  11.955
38207W        W 3687   6.191  35.383   4.283
38208W        W 3688  19.155  13.167  13.422
38209W        W 3689  38.369   5.219  13.457
38210W        W 3690  28.179  26.975  12.024
38211W        W 3691   9.347  39.511   4.263
38212W        W 3692  28.675  42.282   0.934
38213W        W 3693  39.042  29.502  13.531
38214W        W 3694  44.433   2.346   3.326
38215W        W 3695  36.004   6.393   5.311
38216W        W 3696  12.353  31.039   1.398
38217W        W 3697  36.427  22.513   5.256
38218W        W 3698  17.701  19.716   0.352
38219W        W 3699  34.986  14.335   4.122
38220W        W 3700  11.799  26.652  14.791
38221W        W 3701   3.431  43.883   0.326
38222W        W 3702   7.234   7.262   2.871
38223W        W 3703  39.520  26.542   2.841
38224W        W 3704   1.420  12.307  10.981
38225W        W 3705  10.803  31.989   0.727
38226W        W 3706  34.955  14.671   4.262
38227W        W 3707   3.895   8.857   4.772
38228W        W 3708  35.481  29.025  13.986
38229W        W 3709   5.874  22.091   0.915
38230W        W 3710  23.554  30.027  12.068
38231W        W 3711  10.151   6.864   2.775
38232W        W 3712  43.009   4.699  11.900
38233W        W 3713  32.510  41.960  10.449
38234W        W 3714  35.087   1.947  10.553
38235W        W 3715  42.458  28.673  13.883
38236W        W 3716  25.523  12.740  12.874
38237W        W 3717  28.511  12.784   2.731
38238W        W 3718  10.687  30.046   1.436
38239W        W 3719  33.890  29.584   0.948
38240W        W 3720  32.492  28.176   1.840
38241W        W 3721  21.188  29.551   5.274
38242W        W 3722  36.404  37.526  10.487
38243W        W 3723  32.401  26.076  11.482
38244W        W 3724   0.420  27.507   3.273
38245W        W 3725  24.613   7.344   1.259
38246W        W 3726  32.958  16.243   2.362
38247W        W 3727  19.105  43.965   2.877
38248W        W 3728  27.959  43.376   2.754
38249W        W 3729  34.566   6.689   1.385
38250W        W 3730  37.437  41.940  14.447
38251W        W 3731  19.261  36.945  11.935
38252W        W 3732  28.114   3.383   1.341
38253W        W 3733   2.423  17.722  14.910
38254W        W 3734  40.384   8.684   1.399
38255W        W 3735   1.783  15.314  10.991
38256W        W 3736  12.197   5.402   3.680
38257W        W 3737   5.220  39.492  10.415
38258W        W 3738  20.618  13.180   1.733
38259W        W 3739  26.475  28.938   3.216
38260W        W 3740   6.278  15.290   0.477
38261W        W 3741  41.479  20.679  11.878
38262W        W 3742  32.064   8.283  12.022
38263W        W 3743  31.952   6.409   3.170
38264W        W 3744  40.004  43.505  11.384
38265W        W 3745  24.038   1.859  13.326
38266W        W 3746   5.698  16.128   2.895
38267W        W 3747  29.479  32.513   2.712
38268W        W 3748  22.198  26.146   3.370
38269W        W 3749  38.031  15.104  11.385
38270W        W 3750  36.034  32.111  10.542
38271W        W 3751  15.607   5.333   0.481
38272W        W 3752  28.475  33.528   0.245
38273W        W 3753  28.173  37.481  11.480
38274W        W 3754  12.236  41.497  11.543
38275W        W 3755  18.254  40.886   2.806
38276W        W 3756  40.867  21.042  13.892
38277W        W 3757  26.971  19.123  14.805
38278W        W 3758  37.902  42.029   1.871
38279W        W 3759  38.378  15.304  12.954
38280W        W 3760  16.110  35.042   0.338
38281W        W 3761   7.694  29.148  11.888
38282W        W 3762  42.288  27.147  12.516
38283W        W 3763  30.415  43.964  14.392
38284W        W 3764  27.672  13.643  11.494
38285W        W 3765   0.263  15.253   3.342
38286W        W 3766  28.442  17.640   1.694
38287W        W 3767   1.947  15.234  10.454
38288W        W 3768  19.088  20.155   0.886
38289W        W 3769  13.698   0.988  10.547
38290W        W 3770  33.909  23.618  10.925
38291W        W 3771  32.481  29.544   1.899
38292W        W 3772  31.642  41.970  13.391
38293W        W 3773  30.137  30.467  11.111
38294W        W 3774  23.591  35.380  11.945
38295W        W 3775   8.884  15.711  11.095
38296W        W 3776  39.987  12.317  13.335
38297W        W 3777   2.380  33.125  14.374
38298W        W 3778  19.765  15.776  11.065
38299W        W 3779  10.866  14.721   1.392
38300W        W 3780  19.080  23.497   2.898
38301W        W 3781  13.155  21.623   2.236
38302W        W 3782   2.932  32.574   9.465
38303W        W 3783  18.669  21.187  14.315
38304W        W 3784   0.360  42.362   3.315
38305W        W 3785  26.127  36.847  11.896
38306W        W 3786   7.882   5.699  13.411
38307W        W 3787  26.035   8.246  10.543
38308W        W 3788  33.529   8.729  10.981
38309W        W 3789   1.380  23.688  13.999
38310W        W 3790  19.657  25.175   3.847
38311W        W 3791  33.508  19.087   3.248
38312W        W 3792  33.380   4.438  14.018
38313W        W 3793  16.725  30.031   0.408
38314W        W 3794  14.796  16.779   3.169
38315W        W 3795  15.607  20.086  10.571
38316W        W 3796  33.552  23.652  13.444
38317W        W 3797  23.997  14.724   0.920
38318W        W 3798  27.510   0.446   2.897
38319W        W 3799  38.507  13.189   4.228
38320W        W 3800  10.296  12.840  11.940
38321W        W 3801  16.652  26.628  11.952
38322W        W 3802  34.601  44.979  12.908
38323W        W 3803  18.118   5.258   4.309
38324W        W 3804  43.910  34.899  12.345
38325W        W 3805  25.089  30.085   2.187
38326W        W 3806  29.110   5.899  14.280
38327W        W 3807  26.657   0.826  10.489
38328W        W 3808  37.419  38.050  10.482
38329W        W 3809  29.020  19.720   2.770
38330W        W 3810  29.435  20.648  12.085
38331W        W 3811  39.388  32.095   2.322
38332W        W 3812  37.337  18.754  14.460
38333W        W 3813  12.178   2.465   1.286
38334W        W 3814  12.253  23.054  10.898
38335W        W 3815  23.221  10.208   1.451
38336W        W 3816  35.490  39.514  13.962
38337W        W 3817  26.141  11.863  13.022
38338W        W 3818   1.260  23.539  14.374
38339W        W 3819   9.299  26.104  13.827
38340W        W 3820   6.818  37.356   0.788
38341W        W 3821  21.624  40.888  13.003
38342W        W 3822  38.525  28.609  12.867
38343W        W 3823  29.617  16.710  10.945
38344W        W 3824  12.298  22.018  13.501
38345W        W 3825  12.166   0.415  10.954
38346W        W 3826  41.866  24.013  12.075
38347W        W 3827  26.004  29.491  14.929
38348W        W 3828  14.245  11.151   1.875
38349W        W 3829  23.232  39.956  13.392
38350W        W 3830   7.911  33.552  13.440
38351W        W 3831   0.413  31.545  10.429
38352W        W 3832  17.684  44.950  13.489
38353W        W 3833  30.638  41.905  14.487
38354W        W 3834  44.475  35.012   1.891
38355W        W 3835  41.858  21.197   2.316
38356W        W 3836   3.401  43.462  11.381
38357W        W 3837  42.344  12.656  12.062
38358W        W 3838  41.922   6.197   4.715
38359W        W 3839  42.296  29.602   4.122
38360W        W 3840  40.314  11.794  12.383
38361W        W 3841  32.441  29.603   2.734
38362W        W 3842  24.568  41.292   4.658
38363W        W 3843  14.759  19.125   3.728
38364W        W 3844  19.599  31.403  10.507
38365W        W 3845   0.446  42.006   4.671
38366W        W 3846  30.077  44.957  12.046
38367W        W 3847  42.526   0.352   1.918
38368W        W 3848  20.028  41.301  13.826
38369W        W 3849  11.361   7.390   3.296
38370W        W 3850  12.139  42.964  11.521
38371W        W 3851  29.462   1.431  14.875
38372W        W 3852  28.537  14.835  13.533
38373W        W 3853  11.858  31.523  11.602
38374W        W 3854  11.720   9.676  13.326
38375W        W 3855  24.546  33.985   0.345
38376W        W 3856   8.874  35.914  12.548
38377W        W 3857  29.981   1.920  13.406
38378W        W 3858  16.727  30.449  13.028
38379W        W 3859  20.191  27.106   9.612
38380W        W 3860   7.200  13.710   0.752
38381W        W 3861   9.768  27.535  13.381
38382W        W 3862  22.008  39.909   2.281
38383W        W 3863   5.401  43.976  12.039
38384W        W 3864  39.413  36.999  10.618
38385W        W 3865  38.836  29.051   0.825
38386W        W 3866   5.832   3.376   3.695
38387W        W 3867  21.562  14.807  10.534
38388W        W 3868  37.984  20.756  14.942
38389W        W 3869  23.043  17.134   1.851
38390W        W 3870  16.213  37.409   0.384
38391W        W 3871  44.495  38.060   4.756
38392W        W 3872   4.792  37.053  11.090
38393W        W 3873   8.208  28.507  10.408
38394W        W 3874  27.980  34.423   4.825
38395W        W 3875  26.997  19.572   1.797
38396W        W 3876  12.281   2.455  14.364
38397W        W 3877  43.902  20.671   4.625
38398W        W 3878  28.465   8.776  14.971
38399W        W 3879   5.293  26.550   1.256
38400W        W 3880   3.274  44.402  11.540
38401W        W 3881  14.779  39.875  11.087
38402W        W 3882  31.985  34.097  11.451
38403W        W 3883   8.406  37.390   4.678
38404W        W 3884  42.791   7.238   2.411
38405W        W 3885   0.267   2.349  12.499
38406W        W 3886   8.784  27.188   4.789
38407W        W 3887   1.278  24.545   1.339
38408W        W 3888  40.827   2.460   1.264
38409W        W 3889   2.857  35.040  13.004
38410W        W 3890  12.853  19.631   3.677
38411W        W 3891  26.507  43.419  14.845
38412W        W 3892  31.959  30.600   3.658
38413W        W 3893  11.745  42.927  12.395
38414W        W 3894  43.906  13.816   1.702
38415W        W 3895  43.896  21.128  11.467
38416W        W 3896  16.145  28.467  14.322
38417W        W 3897  30.999  10.368   1.804
38418W        W 3898  18.594  26.572   4.202
38419W        W 3899  14.692  13.774   3.290
38420W        W 3900  24.592  37.551  14.769
38421W        W 3901  40.935  11.143   1.788
38422W        W 3902  11.183  30.586  11.517
38423W        W 3903  23.209  35.960   2.211
38424W        W 3904   7.810  16.082   3.193
38425W        W 3905  41.453  27.513   3.834
38426W        W 3906  38.882  29.441   4.831
38427W        W 3907  32.407  31.937   2.756
38428W        W 3908  34.097  43.384  10.626
38429W        W 3909  35.430  15.739  10.894
38430W        W 3910  28.570  14.243  13.517
38431W        W 3911   9.361   2.857   2.382
38432W        W 3912  14.301   4.728   3.645
38433W        W 3913  39.983  30.997   2.296
38434W        W 3914   0.459   5.768   2.858
38435W        W 3915   0.864   6.207   0.754
38436W        W 3916  38.549   8.728  14.448
38437W        W 3917  18.286  35.879  11.945
38438W        W 3918  22.149   6.420   5.649
38439W        W 3919  42.306  40.863  14.345
38440W        W 3920  20.056   3.836  12.480
38441W        W 3921  19.115  44.310  12.507
38442W        W 3922  30.916  29.174   0.947
38443W        W 3923  10.846  15.790  12.931
38444W        W 3924  36.013  16.157   3.709
38445W        W 3925   3.890  22.598  13.340
38446W        W 3926   8.812   0.832  14.440
38447W        W 3927   5.867  14.600  12.531
38448W        W 3928  18.277  25.040   2.201
38449W        W 3929  12.854  36.872  13.824
38450W        W 3930   1.749  42.989   0.363
38451W        W 3931  44.979   4.932   3.820
38452W        W 3932  29.539  30.988  14.476
38453W        W 3933  26.175  34.976   2.418
38454W        W 3934   9.199  29.581  10.960
38455W        W 3935  36.494  17.187   1.820
38456W        W 3936  15.681  10.714  11.980
38457W        W 3937   7.185  14.255   1.312
38458W        W 3938  21.176  42.959   2.328
38459W        W 3939  36.558  17.216   0.426
38460W        W 3940  25.594   7.784  11.613
38461W        W 3941  38.868  29.099   1.326
38462W        W 3942  40.464  37.960  13.997
38463W        W 3943   7.807  19.554   4.773
38464W        W 3944   4.890  39.004   1.926
38465W        W 3945  41.481  13.835  13.823
38466W        W 3946  20.680  11.626  12.066
38467W        W 3947   1.828  11.142  13.468
38468W        W 3948  44.260  31.043  10.984
38469W        W 3949  23.221  24.167  14.375
38470W        W 3950  44.466  18.257   4.704
38471W        W 3951   7.380  43.866   4.338
38472W        W 3952  44.335  37.862   4.221
38473W        W 3953  44.303  15.636   3.840
38474W        W 3954  39.940   0.429  12.888
38475W        W 3955  26.575  27.999  14.396
38476W        W 3956  36.064  41.944   1.373
38477W        W 3957  38.561  15.786  11.017
38478W        W 3958  16.311  34.004   3.676
38479W        W 3959   9.156  34.997   9.954
38480W        W 3960  40.866  12.161   0.370
38481W        W 3961  15.201  17.231   0.875
38482W        W 3962   0.850   5.726   1.780
38483W        W 3963  39.346  22.041   1.778
38484W        W 3964  22.668  10.814  13.397
38485W        W 3965  41.030  42.945   3.145
38486W        W 3966   3.269   1.856   9.921
38487W        W 3967   0.342   4.378   4.149
38488W        W 3968  33.003  12.662  13.501
38489W        W 3969  16.770  31.591  14.919
38490W        W 3970  43.371  17.774  10.604
38491W        W 3971  42.812  33.025   3.664
38492W        W 3972  38.342  29.511  13.890
38493W        W 3973  29.584  25.201   2.859
38494W        W 3974  33.411  43.788   1.389
38495W        W 3975   0.345  34.121  13.956
38496W        W 3976  18.574  34.421   1.870
38497W        W 3977  24.190  44.399  12.522
38498W        W 3978  41.902  44.754  13.474
38499W        W 3979  22.236  14.621   2.899
38500W        W 3980  39.928  23.016  13.325
38501W        W 3981  35.869   9.188  14.287
38502W        W 3982   7.726  34.390   4.133
38503W        W 3983  21.254  29.141  12.825
38504W        W 3984  28.040  18.606   1.223
38505W        W 3985   5.760   7.337   1.266
38506W        W 3986  27.091  35.501  10.496
38507W        W 3987  12.143  20.765   0.334
38508W        W 3988  28.553   8.272   3.729
38509W        W 3989  43.868  16.285  13.063
38510W        W 3990  42.831  17.199   5.277
38511W        W 3991   5.267   2.312  11.377
38512W        W 3992  40.381   3.827   3.776
38513W        W 3993  30.647  37.413  14.850
38514W        W 3994   6.227  42.980  13.453
38515W        W 3995  35.108  18.115  10.429
38516W        W 3996  43.849  11.762   1.434
38517W        W 3997   3.865  12.742  12.868
38518W        W 3998  25.521  19.174   1.850
38519W        W 3999  17.195  37.887  11.081
38520W        W 4000  18.058  29.553  14.844
38521W        W 4001  11.189  30.444   2.219
38522W        W 4002   3.221  17.733  14.511
38523W        W 4003   4.319   5.869  13.041
38524W        W 4004   8.377  28.517   2.410
38525W        W 4005  22.064   9.302  12.063
38526W        W 4006  44.444  17.566   3.748
38527W        W 4007  23.125   4.772   0.794
38528W        W 4008  11.237  26.080  10.577
38529W        W 4009  11.807  43.335  13.013
38530W        W 4010  40.873   2.873   2.873
38531W        W 4011  36.920  40.989  14.951
38532W        W 4012  43.963  26.636  13.998
38533W        W 4013   8.753  24.501   2.279
38534W        W 4014  29.468   7.790  13.875
38535W        W 4015   3.867   3.715   0.332
38536W        W 4016   3.315  24.005   0.415
38537W        W 4017  17.113   1.427   4.348
38538W        W 4018  21.107  11.271   0.361
38539W        W 4019  41.449  23.674   2.735
38540W        W 4020  31.640  36.049  11.912
38541W        W 4021   8.677   7.816   0.834
38542W        W 4022  13.344  22.101  13.975
38543W        W 4023  16.108  12.175   3.762
38544W        W 4024  16.128   4.713   4.729
38545W        W 4025  11.168   0.300  14.465
38546W        W 4026  35.967  17.607   2.800
38547W        W 4027  40.461   8.718   2.763
38548W        W 4028  13.107  20.232   4.746
38549W        W 4029  15.727  13.804   0.434
38550W        W 4030  30.021  14.286   2.397
38551W        W 4031  39.343   9.689   3.377
38552W        W 4032   8.294  12.343  14.447
38553W        W 4033  41.820   3.416   3.375
38554W        W 4034  29.952   5.871   4.830
38555W        W 4035  38.337  36.953  10.909
38556W        W 4036  25.966   4.308  11.998
38557W        W 4037  30.467   5.811   4.769
38558W        W 4038  23.701  15.731   0.810
38559W        W 4039   1.455  32.980   2.720
38560W        W 4040  33.420   7.780  12.923
38561W        W 4041  38.404  14.129   2.294
38562W        W 4042  10.343  36.398   2.412
38563W        W 4043  40.327   2.959   1.224
38564W        W 4044  44.849  11.774  11.013
38565W        W 4045  26.487   9.260   1.404
38566W        W 4046   5.350   5.216   4.127
38567W        W 4047  44.348  35.557   4.220
38568W        W 4048  30.909   4.235  14.512
38569W        W 4049  24.570  14.651  14.915
38570W        W 4050  26.669  26.053   4.721
38571W        W 4051  28.096   6.276  12.935
38572W        W 4052   0.859  22.132   4.342
38573W        W 4053  42.849   6.375   1.280
38574W        W 4054  37.359  44.909  10.567
38575W        W 4055   6.296   0.296   0.756
38576W        W 4056  33.947  40.415   0.243
38577W        W 4057   1.908  44.323  10.450
38578W        W 4058  25.127  25.962  14.928
38579W        W 4059  18.761  31.990  11.887
38580W        W 4060   3.819  14.197   1.916
38581W        W 4061  24.081   7.865   2.781
38582W        W 4062  22.035  43.900  11.496
38583W        W 4063  20.753  37.572  12.070
38584W        W 4064  32.584  41.461  13.409
38585W        W 4065  36.976   4.929   3.190
38586W        W 4066  23.566  25.708   2.273
38587W        W 4067  44.360   5.764  14.342
38588W        W 4068  17.281  18.293   1.868
38589W        W 4069   0.454  32.918   2.823
38590W        W 4070   0.428  34.544  12.524
38591W        W 4071  14.157   7.184  13.960
38592W        W 4072   7.314  31.642  14.862
38593W        W 4073  18.235  43.832  10.454
38594W        W 4074   7.745  22.642  14.455
38595W        W 4075   8.726  28.939  14.275
38596W        W 4076  34.560   8.395   1.877
38597W        W 4077  32.533  42.961   0.774
38598W        W 4078  28.085  38.426   1.717
38599W        W 4079   6.701  38.553   1.440
38600W        W 4080  42.313  30.151  12.987
38601W        W 4081  44.468  41.476   2.178
38602W        W 4082  11.293  41.466   3.717
38603W        W 4083  29.642  37.580   3.854
38604W        W 4084  19.262  12.698  14.030
38605W        W 4085  27.574  21.666   0.822
38606W        W 4086  40.807  20.718   4.601
38607W        W 4087  32.609   5.234  11.078
38608W        W 4088  23.009  34.021  12.557
38609W        W 4089  33.466  22.017  11.563
38610W        W 4090  14.630  18.739  11.538
38611W        W 4091  44.289  12.746  13.915
38612W        W 4092   0.986  25.033   5.297
38613W        W 4093  19.154  20.617   2.341
38614W        W 4094  23.621   6.403   2.863
38615W        W 4095   3.454  15.782  12.967
38616W        W 4096  41.957  38.976  13.047
38617W        W 4097  22.733   0.303   0.475
38618W        W 4098  29.476  27.155   3.189
38619W        W 4099   8.705  24.573   3.340
38620W        W 4100  21.721   0.840  14.774
38621W        W 4101   6.690  18.585   2.386
38622W        W 4102  39.493   6.336  13.833
38623W        W 4103   6.766  12.775   2.386
38624W        W 4104  18.186  10.303  14.909
38625W        W 4105  26.961   5.868  14.384
38626W        W 4106   3.337  18.221   4.271
38627W        W 4107  21.554   2.292   1.828
38628W        W 4108  24.485  25.024   2.288
38629W        W 4109   1.384  18.090   2.220
38630W        W 4110  44.937  34.581  13.865
38631W        W 4111  27.981  26.957   1.391
38632W        W 4112  13.826  11.686  14.875
38633W        W 4113  41.836  21.519   3.170
38634W        W 4114  27.053  39.943   2.835
38635W        W 4115  11.651  16.262  14.859
38636W        W 4116  34.495   0.411   2.744
38637W        W 4117  39.402  28.956   3.689
38638W        W 4118  29.990   0.360  13.360
38639W        W 4119   3.318  20.766  14.019
38640W        W 4120  28.620  20.678  13.041
38641W        W 4121  28.514  44.451   3.761
38642W        W 4122   5.198  34.389   1.435
38643W        W 4123  19.256  24.660   3.793
38644W        W 4124  26.996  26.681  11.898
38645W        W 4125  24.653  21.643   0.458
38646W        W 4126  41.791  43.348   2.899
38647W        W 4127  20.144  27.996  13.059
38648W        W 4128  18.563   5.274  11.086
38649W        W 4129  25.063   3.915  12.502
38650W        W 4130  21.738  29.047  11.452
38651W        W 4131  37.991  20.707   4.241
38652W        W 4132   6.731  44.951  11.104
38653W        W 4133   3.333  39.811   3.290
38654W        W 4134  29.039  33.512   0.350
38655W        W 4135  28.666  35.874  10.447
38656W        W 4136  13.640  11.774  13.814
38657W        W 4137   5.261  25.982  10.614
38658W        W 4138  29.146  11.241  14.498
38659W        W 4139  16.298  27.447   2.381
38660W        W 4140  19.160  41.919   1.775
38661W        W 4141   9.820  16.802   1.349
38662W        W 4142  43.909  22.051  13.928
38663W        W 4143   5.752  43.280  11.518
38664W        W 4144   4.329   8.209   1.300
38665W        W 4145   1.923  24.649  10.511
38666W        W 4146  16.753  21.605  12.981
38667W        W 4147   6.217  42.398   3.672
38668W        W 4148  37.928  24.205   0.854
38669W        W 4149  39.064  24.155   0.309
38670W        W 4150  33.498  38.988   4.611
38671W        W 4151   1.306   6.347   3.770
38672W        W 4152  37.394  41.525   4.281
38673W        W 4153   5.247  20.664   1.386
38674W        W 4154  40.852  32.414   0.831
38675W        W 4155  10.806  39.954   2.301
38676W        W 4156  12.786  35.110   1.299
38677W        W 4157  39.481  24.617  10.542
38678W        W 4158   2.392   3.314   5.249
38679W        W 4159  35.423  39.326   1.393
38680W        W 4160  36.461  27.035  12.019
38681W        W 4161  28.606  31.147   2.407
38682W        W 4162   2.792  16.244   2.725
38683W        W 4163   1.845  44.882  14.818
38684W        W 4164   9.387  12.150   1.738
38685W        W 4165  25.061  27.542   4.169
38686W        W 4166  43.462  37.080   1.320
38687W        W 4167  26.999   4.859  12.510
38688W        W 4168   8.712  31.113   0.374
38689W        W 4169  21.683  16.273   2.711
38690W        W 4170   6.241   5.842  12.410
38691W        W 4171  12.313  10.274   2.405
38692W        W 4172  25.190   3.361  12.574
38693W        W 4173  26.517   1.241   1.860
38694W        W 4174  31.119   1.944   3.728
38695W        W 4175  31.565  17.131   4.742
38696W        W 4176  41.997  16.573  12.444
38697W        W 4177  29.656   5.341  14.984
38698W        W 4178  15.615  27.481   0.414
38699W        W 4179  42.811   6.749  12.453
38700W        W 4180  27.652   2.232  11.569
38701W        W 4181   2.835  24.565  12.955
38702W        W 4182  38.344  24.504   2.386
38703W        W 4183   0.972  17.166  13.425
38704W        W 4184  42.909  20.217  13.962
38705W        W 4185   6.805  25.628  12.961
38706W        W 4186  21.686  44.796   4.174
38707W        W 4187  39.465  24.052  14.923
38708W        W 4188   8.363   5.831   3.687
38709W        W 4189  15.137   2.429   3.374
38710W        W 4190  23.566  39.339  11.425
38711W        W 4191  32.996  24.581  11.919
38712W        W 4192   8.342   4.777   0.800
38713W        W 4193  14.656   3.404  10.494
38714W        W 4194  29.988   8.699  11.022
38715W        W 4195  12.620  13.136   2.405
38716W        W 4196   4.864  26.465  10.573
38717W        W 4197  16.107  43.783   3.384
38718W        W 4198   0.334   7.251   0.953
38719W        W 4199  31.924  21.244   1.803
38720W        W 4200   2.332  44.462   4.192
38721W        W 4201   8.306  34.382   0.949
38722W        W 4202  16.704  13.311   5.588
38723W        W 4203   8.766  18.620  11.508
38724W        W 4204  18.682  41.404  12.406
38725W        W 4205  18.691  23.508   4.249
38726W        W 4206  40.943  35.855  12.481
38727W        W 4207  33.046  43.395  11.858
38728W        W 4208  39.346  28.138  10.591
38729W        W 4209   4.890  39.387   4.233
38730W        W 4210  30.537  22.599   3.321
38731W        W 4211  19.542  28.625  14.413
38732W        W 4212  33.067  25.701   2.208
38733W        W 4213   9.215  37.579  10.970
38734W        W 4214   0.380  25.476  12.878
38735W        W 4215  23.704  27.193  13.036
38736W        W 4216   4.273  12.248   2.872
38737W        W 4217  26.065   0.449  14.000
38738W        W 4218  29.100  11.231   4.354
38739W        W 4219  17.557  36.972  12.527
38740W        W 4220  10.267  37.959   0.342
38741W        W 4221  38.419   0.463   1.396
38742W        W 4222  42.310   9.702  12.510
38743W        W 4223  31.648  17.098  10.478
38744W        W 4224  33.586  42.474   3.364
38745W        W 4225  44.296   8.801  12.521
38746W        W 4226  32.415   6.196  14.281
38747W        W 4227  39.937  31.031   0.474
38748W        W 4228   0.773  14.607  13.017
38749W        W 4229   3.829  19.239  14.412
38750W        W 4230  24.986  43.883  13.878
38751W        W 4231  34.887  23.623  10.545
38752W        W 4232  16.581  42.492   0.935
38753W        W 4233  24.512  27.510  12.039
38754W        W 4234  27.642  21.210  13.863
38755W        W 4235   5.346  23.113  10.974
38756W        W 4236   3.266   0.782  14.891
38757W        W 4237   2.235  12.353   0.413
38758W        W 4238   2.950  30.509  12.890
38759W        W 4239  29.144   1.835  10.516
38760W        W 4240   7.748  14.619   2.409
38761W        W 4241  28.996   2.463  12.565
38762W        W 4242  13.337   4.775   1.407
38763W        W 4243  19.120  30.603   4.812
38764W        W 4244  36.896  14.724   0.755
38765W        W 4245  18.288   1.422   3.662
38766W        W 4246  15.329   6.214   1.236
38767W        W 4247  40.885  24.227  12.566
38768W        W 4248   7.895   8.740  12.942
38769W        W 4249  18.646  42.981  13.978
38770W        W 4250   1.277  32.050   0.458
38771W        W 4251  43.924  44.938  11.988
38772W        W 4252  29.449  30.622   0.468
38773W        W 4253  44.263  29.051  11.102
38774W        W 4254  35.095  14.180  12.347
38775W        W 4255  16.658   1.789  11.537
38776W        W 4256   2.419  41.365   3.210
38777W        W 4257  12.335   8.680   4.144
38778W        W 4258  10.639  31.583  10.642
38779W        W 4259  26.097  42.475   3.246
38780W        W 4260  30.936  21.734  12.568
38781W        W 4261   1.794   1.804   3.255
38782W        W 4262  20.078  11.277   2.748
38783W        W 4263   4.342   7.316  11.436
38784W        W 4264  11.145  34.506  14.343
38785W        W 4265  32.964   7.299   0.815
38786W        W 4266   9.879  20.193  13.837
38787W        W 4267  31.131  44.904  10.458
38788W        W 4268  43.335   0.754  11.385
38789W        W 4269  27.664  20.241  10.613
38790W        W 4270   7.681  26.087  14.001
38791W        W 4271   7.344  30.412   0.749
38792W        W 4272   6.208  18.598  13.905
38793W        W 4273  24.112  39.430   2.900
38794W        W 4274  31.096  12.754  10.564
38795W        W 4275  13.205  40.398   4.698
38796W        W 4276  34.036  29.657  11.462
38797W        W 4277   1.339  17.111   4.801
38798W        W 4278   6.351  27.106  11.479
38799W        W 4279  22.528  18.277   2.842
38800W        W 4280  37.864   0.913   2.380
38801W        W 4281  32.136  25.582  14.437
38802W        W 4282  44.798  43.392  12.511
38803W        W 4283  29.090  32.023   4.626
38804W        W 4284  43.352   3.933   0.410
38805W        W 4285  40.931   0.951   2.728
38806W        W 4286  13.216  33.896  14.338
38807W        W 4287  15.240  28.606   2.183
38808W        W 4288  41.480  37.961  13.396
38809W        W 4289  41.810   5.906  14.333
38810W        W 4290  30.470  29.023  12.442
38811W        W 4291   8.387  41.974   2.201
38812W        W 4292  43.467  28.444   0.482
38813W        W 4293   1.801  15.617   2.845
38814W        W 4294   3.398   6.385   1.768
38815W        W 4295  27.097  30.497   4.604
38816W        W 4296  28.101  36.380   4.717
38817W        W 4297  35.468  10.214  14.917
38818W        W 4298  34.961   4.446   3.335
38819W        W 4299  35.101  34.447   3.823
38820W        W 4300  40.865   2.911   0.304
38821W        W 4301   2.427  12.714   0.745
38822W        W 4302  12.767  23.064  13.799
38823W        W 4303   3.782  32.064   3.296
38824W        W 4304  40.421  11.682  11.041
38825W        W 4305  22.111   1.295  10.416
38826W        W 4306  16.577  21.685   4.708
38827W        W 4307  32.919   9.269  13.790
38828W        W 4308  14.182   5.350   1.219
38829W        W 4309   6.355  29.061   3.383
38830W        W 4310  44.792  28.580   4.750
38831W        W 4311  19.728  17.127   2.903
38832W        W 4312  14.251   1.287  13.993
38833W        W 4313  38.498  14.712   1.747
38834W        W 4314  34.399   2.757  12.448
38835W        W 4315   4.435   2.743   3.784
38836W        W 4316  11.328   9.163   4.248
38837W        W 4317  26.070   9.759   1.288
38838W        W 4318  20.682  27.982   4.640
38839W        W 4319   3.405   5.339  12.381
38840W        W 4320  32.924  11.296   4.720
38841W        W 4321  41.933  20.676   3.222
38842W        W 4322  36.923  22.077   2.850
38843W        W 4323   6.766  16.169  11.064
38844W        W 4324  36.885   0.948   2.790
38845W        W 4325  39.407   0.776  14.789
38846W        W 4326  43.876  43.934   3.797
38847W        W 4327  37.482   4.404   0.462
38848W        W 4328   7.838   4.348  12.419
38849W        W 4329  14.332   4.843   1.862
38850W        W 4330  27.089  44.505  10.107
38851W        W 4331  29.431  31.145  12.882
38852W        W 4332  12.330  35.549   0.807
38853W        W 4333  11.653  12.350   1.414
38854W        W 4334  19.582   4.903   0.859
38855W        W 4335  32.395   1.429   2.259
38856W        W 4336  36.886  17.273  11.026
38857W        W 4337  13.106  37.906   3.165
38858W        W 4338  32.137  31.524   0.961
38859W        W 4339   6.906   7.766  11.995
38860W        W 4340  29.966  25.092   2.369
38861W        W 4341  33.913  22.552  12.505
38862W        W 4342   7.718   8.403   0.874
38863W        W 4343  39.526  13.105   2.221
38864W        W 4344  36.516  15.289   2.829
38865W        W 4345   8.894  39.514   1.333
38866W        W 4346  21.701   6.383  14.776
38867W        W 4347  13.269   7.204   3.677
38868W        W 4348   0.382  37.021   2.338
38869W        W 4349  11.238  30.523   2.726
38870W        W 4350   8.675   3.335   4.244
38871W        W 4351  10.353  34.015   5.236
38872W        W 4352   1.914  30.497  11.396
38873W        W 4353  17.234  31.072  14.933
38874W        W 4354  37.487  14.635   1.833
38875W        W 4355   0.913  23.628  14.993
38876W        W 4356  18.725   2.249   3.794
38877W        W 4357  25.492  16.226   3.352
38878W        W 4358  27.150  16.733   1.391
38879W        W 4359  24.491  29.053  12.939
38880W        W 4360   5.895  39.986  14.344
38881W        W 4361   1.742   8.191   0.338
38882W        W 4362  30.910  41.887  14.770
38883W        W 4363  30.618  14.225  11.384
38884W        W 4364  35.373   8.297  12.397
38885W        W 4365   0.379  40.831   4.300
38886W        W 4366   0.915  13.144  10.631
38887W        W 4367  27.178  32.032  12.361
38888W        W 4368  20.766  29.136  11.967
38889W        W 4369   1.793  11.316   4.633
38890W        W 4370  19.567  13.241   3.721
38891W        W 4371   0.802  41.888  14.816
38892W        W 4372  25.521   7.178  12.548
38893W        W 4373  21.136  11.139   3.714
38894W        W 4374  12.773   6.296   2.414
38895W        W 4375  21.103  22.517   1.924
38896W        W 4376  36.001   1.360   3.369
38897W        W 4377  38.349  37.539  12.392
38898W        W 4378  37.927  29.981   1.254
38899W        W 4379  23.551  23.169   2.702
38900W        W 4380   4.733  18.612   1.318
38901W        W 4381  21.044   6.830   0.411
38902W        W 4382  44.960  17.202  14.986
38903W        W 4383  20.666   0.942  11.527
38904W        W 4384   0.448  24.704   4.652
38905W        W 4385  18.092  42.890   9.989
38906W        W 4386  34.005  28.142   2.371
38907W        W 4387   0.371  29.460   4.678
38908W        W 4388  35.489  15.196   2.292
38909W        W 4389  28.450  30.524  11.501
38910W        W 4390  34.487  34.511  14.847
38911W        W 4391  14.224   4.300   0.909
38912W        W 4392  30.036  16.232   0.769
38913W        W 4393  23.735   9.807   2.781
38914W        W 4394   2.383  22.012   2.199
38915W        W 4395  27.067  24.073  10.927
38916W        W 4396  34.066   8.660  14.785
38917W        W 4397  28.141  16.721  11.038
38918W        W 4398  28.516  18.619  10.595
38919W        W 4399  32.531   5.232  13.415
38920W        W 4400  37.081   9.643   3.346
38921W        W 4401  23.018   4.821   3.208
38922W        W 4402   9.811  40.408   0.349
38923W        W 4403   0.277  15.646   0.371
38924W        W 4404  22.600  16.312  14.833
38925W        W 4405  11.661   8.875  14.312
38926W        W 4406  15.281  39.920   1.354
38927W        W 4407  35.472  20.156   0.956
38928W        W 4408   8.266  12.345  11.551
38929W        W 4409  22.723  16.256  13.988
38930W        W 4410  24.496  23.641  14.952
38931W        W 4411   4.858  34.014   0.252
38932W        W 4412  35.491  39.053  11.864
38933W        W 4413  23.995  35.959  13.817
38934W        W 4414  38.334   8.277  11.899
38935W        W 4415  15.085  44.951  13.439
38936W        W 4416  16.579  22.595   0.263
38937W        W 4417  24.191  44.767  13.340
38938W        W 4418  16.217  29.926  10.488
38939W        W 4419  41.890  23.223   1.816
38940W        W 4420  44.376  30.125  12.439
38941W        W 4421   5.816  14.213  13.960
38942W        W 4422  12.183  15.256  12.369
38943W        W 4423  26.688  16.583  13.449
38944W        W 4424  22.549  24.112   1.932
38945W        W 4425  18.678  35.068  13.862
38946W        W 4426   3.944  10.217   1.769
38947W        W 4427  27.542  44.893   1.306
38948W        W 4428  44.384  38.903  13.013
38949W        W 4429  15.223  21.586   1.423
38950W        W 4430  13.697  12.829  12.547
38951W        W 4431   9.730   7.251  10.595
38952W        W 4432  36.920  43.273  11.065
38953W        W 4433   0.913   2.911  11.018
38954W        W 4434  25.693  16.139   3.662
38955W        W 4435  19.758  19.213   1.737
38956W        W 4436  21.140  24.672  13.982
38957W        W 4437  12.175  13.232  11.982
38958W        W 4438  13.236  16.683  12.834
38959W        W 4439   8.677  24.499  11.584
38960W        W 4440  26.518  24.079   0.948
38961W        W 4441  44.317  26.483   2.286
38962W        W 4442  41.879  10.730   0.374
38963W        W 4443  16.233  36.090  12.056
38964W        W 4444  29.144  12.185  11.526
38965W        W 4445   6.203  39.509   1.755
38966W        W 4446  15.652  42.961   3.276
38967W        W 4447   7.374  41.997   4.214
38968W        W 4448  25.575  27.044   2.808
38969W        W 4449  18.634  18.200  12.071
38970W        W 4450  32.392  33.416   2.237
38971W        W 4451  37.068   9.166   4.726
38972W        W 4452  22.030  41.840   1.277
38973W        W 4453  39.813  38.981  14.934
38974W        W 4454  18.689   5.931  13.493
38975W        W 4455  17.099   6.315   0.408
38976W        W 4456  42.353  27.996   1.386
38977W        W 4457  44.966  23.635  13.820
38978W        W 4458  10.741  21.600   4.609
38979W        W 4459   3.425  17.198  12.456
38980W        W 4460   6.728  10.248   2.185
38981W        W 4461  18.186  31.141  12.478
38982W        W 4462  28.174  42.443   3.797
38983W        W 4463  29.614  33.117  14.373
38984W        W 4464  33.474  40.035   3.156
38985W        W 4465  33.022  23.145   4.822
38986W        W 4466   1.809  15.101   4.136
38987W        W 4467  25.580  23.680   2.379
38988W        W 4468  28.096  39.821   4.632
38989W        W 4469  10.854  23.064  14.448
38990W        W 4470  14.321  11.756  13.470
38991W        W 4471  42.893  41.851  14.430
38992W        W 4472   3.881  19.725   3.278
38993W        W 4473  37.045  26.202   2.364
38994W        W 4474   2.773  22.024  11.408
38995W        W 4475  10.163  16.655  13.536
38996W        W 4476  34.372   5.219   2.190
38997W        W 4477  21.562  41.487  13.500
38998W        W 4478   2.352  31.086   1.344
38999W        W 4479   0.836  22.101  12.936
39000W        W 4480  34.608  36.994  13.318
39001W        W 4481  37.505  13.600   2.367
39002W        W 4482  14.214  21.259   2.769
39003W        W 4483  35.384  17.258  11.902
39004W        W 4484  43.911  32.498  10.537
39005W        W 4485   1.867  34.411  12.941
39006W        W 4486   2.249  18.234   4.799
39007W        W 4487  11.294   1.387  14.302
39008W        W 4488   4.857  26.589   0.456
39009W        W 4489  38.531  28.115   3.664
39010W        W 4490  40.815   9.269   3.777
39011W        W 4491  42.413  38.523   4.133
39012W        W 4492  27.061  24.497   1.303
39013W        W 4493  32.886  40.548  10.889
39014W        W 4494  27.651  18.726  14.787
39015W        W 4495  42.014  14.249  11.452
39016W        W 4496  21.677  39.923  13.966
39017W        W 4497  17.641   3.329  14.282
39018W        W 4498  10.776   2.261  10.623
39019W        W 4499  38.987  11.299  12.374
39020W        W 4500   1.794  39.367  13.045
39021W        W 4501   3.247  41.469  11.914
39022W        W 4502  41.920  38.541  11.971
39023W        W 4503  10.304  20.674  12.499
39024W        W 4504  41.974  36.892  13.485
39025W        W 4505  28.632  11.275   2.716
39026W        W 4506  31.968  35.552  12.877
39027W        W 4507  32.424  20.103   4.740
39028W        W 4508  10.813  38.466  14.338
39029W        W 4509  20.045   7.356   0.930
39030W        W 4510   1.835  20.254   3.369
39031W        W 4511   5.759   0.917  12.082
39032W        W 4512  21.107  36.520   3.788
39033W        W 4513  20.191   3.883   1.400
39034W        W 4514  27.196   3.801  14.775
39035W        W 4515  11.711  24.073  14.942
39036W        W 4516  13.697  38.969   3.344
39037W        W 4517   1.751   8.298   1.742
39038W        W 4518   6.748  35.035  13.890
39039W        W 4519  19.568   8.274  14.405
39040W        W 4520  31.646  31.151   0.389
39041W        W 4521  31.472  20.239   3.318
39042W        W 4522  20.229  23.729  11.440
39043W        W 4523  10.763   6.244   4.287
39044W        W 4524  14.766  29.429   1.391
39045W        W 4525   2.796  24.116  14.370
39046W        W 4526   0.895  24.223   1.902
39047W        W 4527  23.624  29.522  12.853
39048W        W 4528  34.876  18.697   4.708
39049W        W 4529   1.862  12.814   4.714
39050W        W 4530  32.094  16.256   3.837
39051W        W 4531  38.398  33.419  11.569
39052W        W 4532   9.647  16.806  11.120
39053W        W 4533   8.818  28.615   0.482
39054W        W 4534  38.568   0.759  11.010
39055W        W 4535  18.078  38.061   2.351
39056W        W 4536  21.707  34.582   3.204
39057W        W 4537   9.758  44.926   1.315
39058W        W 4538  23.189  40.398  14.285
39059W        W 4539  11.625  40.016   0.967
39060W        W 4540   0.461  30.502   4.660
39061W        W 4541  12.143   3.801   1.374
39062W        W 4542   4.300  33.471  11.390
39063W        W 4543  40.030  36.355  13.903
39064W        W 4544  40.006  20.078   0.319
39065W        W 4545   8.283  17.247   2.710
39066W        W 4546   0.986  27.957   2.242
39067W        W 4547   3.292  10.879   1.427
39068W        W 4548  10.735  19.251   3.284
39069W        W 4549  29.605  28.948  10.936
39070W        W 4550  42.825  24.142  14.348
39071W        W 4551  14.724  35.923  13.807
39072W        W 4552  30.647  42.443   0.961
39073W        W 4553  22.244  19.759  14.973
39074W        W 4554  42.340  19.254  14.922
39075W        W 4555  31.449   9.804  10.565
39076W        W 4556  24.570  25.020  11.883
39077W        W 4557   2.842  22.235   4.827
39078W        W 4558  43.421  38.018   1.315
39079W        W 4559  19.607  44.923  12.904
39080W        W 4560  18.738  43.276  13.917
39081W        W 4561  42.856  26.045  13.428
39082W        W 4562  41.796  11.821   2.245
39083W        W 4563  30.591  44.942   0.741
39084W        W 4564  41.311   0.938  14.930
39085W        W 4565  24.510  11.222   3.833
39086W        W 4566  32.499  16.267   4.160
39087W        W 4567   3.809  17.626   3.181
39088W        W 4568  34.485  38.462   3.783
39089W        W 4569  36.577  17.283   0.925
39090W        W 4570  29.632  24.127  10.894
39091W        W 4571   7.288   7.194  11.493
39092W        W 4572  34.920  38.559   4.628
39093W        W 4573  44.949  18.084   1.777
39094W        W 4574  14.763   9.389  14.515
39095W        W 4575  28.977  27.011  12.088
39096W        W 4576  38.344  41.497   2.821
39097W        W 4577   0.916   7.254  11.606
39098W        W 4578  34.471   4.836  14.514
39099W        W 4579  32.973  29.959   4.228
39100W        W 4580   7.410  44.319   4.803
39101W        W 4581  30.644  16.763   3.365
39102W        W 4582   2.773  17.121   3.697
39103W        W 4583  10.269   1.329  13.484
39104W        W 4584  39.030  18.566   2.898
39105W        W 4585   5.895  27.177   2.666
39106W        W 4586  42.999  44.925  11.503
39107W        W 4587  10.866  35.440  10.555
39108W        W 4588  19.280   3.778  13.053
39109W        W 4589  17.164   9.667   3.154
39110W        W 4590  41.396  12.197  12.989
39111W        W 4591  10.343  42.903  14.877
39112W        W 4592   4.450  39.474  10.925
39113W        W 4593  44.299  13.641   0.428
39114W        W 4594  35.385  37.905   3.208
39115W        W 4595  10.240   3.234   3.630
39116W        W 4596   6.766  11.668  14.331
39117W        W 4597   3.898  38.948  10.891
39118W        W 4598  29.644  25.708   4.140
39119W        W 4599  20.194  22.705   1.385
39120W        W 4600   0.291   6.316   1.319
39121W        W 4601  34.115  40.887  13.871
39122W        W 4602  16.109  26.505  10.599
39123W        W 4603  34.427  21.263   3.157
39124W        W 4604  36.021  41.397  13.317
39125W        W 4605  10.150   2.815   0.727
39126W        W 4606  44.457  33.392  13.336
39127W        W 4607  41.507  23.546   1.697
39128W        W 4608   0.929  23.669  10.599
39129W        W 4609   1.954  33.433  11.987
39130W        W 4610  40.816   1.841  10.520
39131W        W 4611  24.623  10.323  11.520
39132W        W 4612  34.938  42.354  14.913
39133W        W 4613  32.093  25.087  13.420
39134W        W 4614  26.508  34.582   3.715
39135W        W 4615  42.450   0.924   0.261
39136W        W 4616   5.436  29.046   4.158
39137W        W 4617  20.749  28.050   1.247
39138W        W 4618   5.426  37.831  10.502
39139W        W 4619  34.023  32.066   2.324
39140W        W 4620   0.876  17.718  13.861
39141W        W 4621  43.008  21.223  11.870
39142W        W 4622  21.238  15.775  11.009
39143W        W 4623   7.313  34.028  10.414
39144W        W 4624  35.991  32.453   0.245
39145W        W 4625  14.808   9.765  13.376
39146W        W 4626  23.583  14.827   2.334
39147W        W 4627  21.233   3.893   1.886
39148W        W 4628  42.343  10.311   1.304
39149W        W 4629  35.363   9.172   4.232
39150W        W 4630  22.098  35.361  14.374
39151W        W 4631   5.200   4.293   0.318
39152W        W 4632  35.419  38.076  14.013
39153W        W 4633  27.645  35.492  12.872
39154W        W 4634  16.804  36.485   4.687
39155W        W 4635  41.363   3.777  12.533
39156W        W 4636  29.946  13.198  11.971
39157W        W 4637  27.006  12.317  13.410
39158W        W 4638  17.176  21.064   1.895
39159W        W 4639  34.934   9.889   0.396
39160W        W 4640  19.113  10.164   5.146
39161W        W 4641  15.295  23.721   3.209
39162W        W 4642  17.212  33.009  13.903
39163W        W 4643  15.577  35.379   5.112
39164W        W 4644   9.228  38.512  10.629
39165W        W 4645  44.884  26.015   0.419
39166W        W 4646  14.282   9.737  10.500
39167W        W 4647  22.639  42.491   4.273
39168W        W 4648  34.968  15.135   1.725
39169W        W 4649   8.853  11.811   3.858
39170W        W 4650  14.706  23.645   3.760
39171W        W 4651  10.304   3.309   5.230
39172W        W 4652  44.893  21.676  11.121
39173W        W 4653  24.028  38.862   1.733
39174W        W 4654  32.114  44.408   1.841
39175W        W 4655  14.785   0.434   0.364
39176W        W 4656  10.295   8.663  14.277
39177W        W 4657  17.702  40.546  10.519
39178W        W 4658  16.096  10.839  12.386
39179W        W 4659  31.044  22.219  14.396
39180W        W 4660   5.924  28.516   3.801
39181W        W 4661   6.380  14.193  11.612
39182W        W 4662   6.756  27.162   1.352
39183W        W 4663   3.309  43.357   2.302
39184W        W 4664  16.159  32.406   5.709
39185W        W 4665  11.128  19.617  10.499
39186W        W 4666  42.506  13.271   1.897
39187W        W 4667  37.345  38.936   3.640
39188W        W 4668  42.010  35.384   2.712
39189W        W 4669  19.279  32.581  13.816
39190W        W 4670  26.028  41.878   4.827
39191W        W 4671  12.745   9.385   2.343
39192W        W 4672  38.547   1.242  14.828
39193W        W 4673  32.402   8.735   0.885
39194W        W 4674  33.980  32.593  12.906
39195W        W 4675  41.331  41.532  14.360
39196W        W 4676  23.209  17.566  12.526
39197W        W 4677  44.306  26.543  13.016
39198W        W 4678  20.541  34.508  13.862
39199W        W 4679  15.721   6.230  12.001
39200W        W 4680  34.980   9.371  11.029
39201W        W 4681   3.799  34.085   0.328
39202W        W 4682  24.229   1.745   4.673
39203W        W 4683  12.621  29.045   0.433
39204W        W 4684  28.654  32.582   3.190
39205W        W 4685  41.864   3.794  12.432
39206W        W 4686  21.244  23.675  14.953
39207W        W 4687  10.357  43.796   0.900
39208W        W 4688  16.590  30.589   0.786
39209W        W 4689  35.078   1.277  14.778
39210W        W 4690  26.458  35.962  14.380
39211W        W 4691  30.618  34.575   3.270
39212W        W 4692  40.009  42.452   4.643
39213W        W 4693  14.307  25.062  10.087
39214W        W 4694   2.799   5.244  12.915
39215W        W 4695  20.537  37.078   4.142
39216W        W 4696  18.595  36.842   1.416
39217W        W 4697   2.295  26.108  12.975
39218W        W 4698  25.658   2.888  10.962
39219W        W 4699  38.413  42.339  14.881
39220W        W 4700  39.494  41.525   1.867
39221W        W 4701  11.242   0.958  12.531
39222W        W 4702  41.829  10.780  13.504
39223W        W 4703  36.061  27.076  11.607
39224W        W 4704  10.844   3.805  14.917
39225W        W 4705  28.590   3.922   1.421
39226W        W 4706  36.403   2.446  11.487
39227W        W 4707   0.929  39.888  11.421
39228W        W 4708  39.928  20.623  11.512
39229W        W 4709   1.343  34.474   0.473
39230W        W 4710  16.579  42.949   9.980
39231W        W 4711   1.921  39.535  14.499
39232W        W 4712   4.864   4.918   3.730
39233W        W 4713  19.262  16.233  14.348
39234W        W 4714  17.100   6.306   4.761
39235W        W 4715  14.739  25.634  13.442
39236W        W 4716   4.343  18.627   4.253
39237W        W 4717   7.360  30.116   0.771
39238W        W 4718  29.144  23.032   1.803
39239W        W 4719  16.114  39.837  11.964
39240W        W 4720  17.153  32.101  10.623
39241W        W 4721  11.826  27.472  12.983
39242W        W 4722  42.489   8.356   3.648
39243W        W 4723  39.006  31.060  13.353
39244W        W 4724  19.236  43.499  12.913
39245W        W 4725  21.037  28.558   1.373
39246W        W 4726  11.697  28.094  12.563
39247W        W 4727  28.477  36.849  10.617
39248W        W 4728  25.173  21.235  13.821
39249W        W 4729  38.345  23.142   3.780
39250W        W 4730  36.099  39.958   0.381
39251W        W 4731  34.953  15.140  12.848
39252W        W 4732  43.354   7.841   3.854
39253W        W 4733   3.377   7.666   0.758
39254W        W 4734  25.652   7.778   4.290
39255W        W 4735  30.556   0.489  13.501
39256W        W 4736   0.987  44.391  13.496
39257W        W 4737  34.990  20.205  14.285
39258W        W 4738  25.675   7.814  13.486
39259W        W 4739  37.442  17.674  13.393
39260W        W 4740  38.917  22.501   5.155
39261W        W 4741  22.670  41.319   1.279
39262W        W 4742  44.295  14.174   5.167
39263W        W 4743  15.734  30.011   2.685
39264W        W 4744   6.380  22.695  12.501
39265W        W 4745   4.750  23.172  13.812
39266W        W 4746  36.361  15.171   0.429
39267W        W 4747   1.334  10.213  13.534
39268W        W 4748   2.838  18.089  14.896
39269W        W 4749  29.174   3.264  12.065
39270W        W 4750   5.381  30.135  11.926
39271W        W 4751  16.668   7.412  12.554
39272W        W 4752  30.626  32.563  14.980
39273W        W 4753  34.976   0.447  12.927
39274W        W 4754  36.881   7.184   0.916
39275W        W 4755  37.493  21.573   2.416
39276W        W 4756  36.950  33.036   2.897
39277W        W 4757   6.282  35.389  12.553
39278W        W 4758   3.369   0.824   2.769
39279W        W 4759  37.423   5.231  13.983
39280W        W 4760  25.477  32.625   4.131
39281W        W 4761   4.210  24.204  10.451
39282W        W 4762  20.541  35.514   4.177
39283W        W 4763  13.703  41.340   3.849
39284W        W 4764   8.334  13.685   4.717
39285W        W 4765   2.795   9.155  14.337
39286W        W 4766  21.558   5.208   4.735
39287W        W 4767  43.395   5.360   3.364
39288W        W 4768  35.999   4.830  11.889
39289W        W 4769  21.650   5.413   2.353
39290W        W 4770  36.496  19.765  11.417
39291W        W 4771   1.292  19.152  11.538
39292W        W 4772   8.695  17.793   1.709
39293W        W 4773  43.949   4.210  13.523
39294W        W 4774  16.716  36.858   5.218
39295W        W 4775  41.919  17.570  13.050
39296W        W 4776  28.599   2.429  14.343
39297W        W 4777  42.331  26.960   1.246
39298W        W 4778  27.008   7.779   0.483
39299W        W 4779  27.009   6.411   2.354
39300W        W 4780  27.161  26.499  11.036
39301W        W 4781  14.318  26.042  13.511
39302W        W 4782  16.724  16.615  13.923
39303W        W 4783  34.393  21.706  11.071
39304W        W 4784  42.498   8.817   1.225
39305W        W 4785  30.081  28.591   3.631
39306W        W 4786   1.436  29.597  12.828
39307W        W 4787  34.057  12.153  11.939
39308W        W 4788  37.543   1.942   0.783
39309W        W 4789  11.154  19.164  11.597
39310W        W 4790  19.705  24.616  12.036
39311W        W 4791  38.921  14.140   0.413
39312W        W 4792   8.374  12.152   2.745
39313W        W 4793  42.992  13.760   1.362
39314W        W 4794   1.767  21.095  14.391
39315W        W 4795  42.409  29.059  11.502
39316W        W 4796   9.243   7.910  12.955
39317W        W 4797  32.085   9.163   2.763
39318W        W 4798  22.549  44.965  12.522
39319W        W 4799  31.424  30.909  12.859
39320W        W 4800  29.476  25.109  13.909
39321W        W 4801   1.435  27.964  10.607
39322W        W 4802  42.309  35.593   4.725
39323W        W 4803  20.592  15.259  14.992
39324W        W 4804   1.780   1.971   4.770
39325W        W 4805  37.080  20.581  12.498
39326W        W 4806  10.156   4.361   4.293
39327W        W 4807   8.176  42.450  14.470
39328W        W 4808  30.974  22.131  12.359
39329W        W 4809  44.408   5.804  13.903
39330W        W 4810  41.930  39.437  11.395
39331W        W 4811  23.100  29.170   1.876
39332W        W 4812  24.070  13.764   2.409
39333W        W 4813  40.909  23.663  14.309
39334W        W 4814   2.301   5.798   4.232
39335W        W 4815  28.971  17.295  13.015
39336W        W 4816  15.577  24.142  13.804
39337W        W 4817  25.015   1.897  11.101
39338W        W 4818  31.585  12.330   2.851
39339W        W 4819  14.669  38.364  14.316
39340W        W 4820  12.201  32.082   0.869
39341W        W 4821  37.524  18.569  12.963
39342W        W 4822  19.736  27.603   0.907
39343W        W 4823   6.703  12.331  12.039
39344W        W 4824   7.724  12.315   1.711
39345W        W 4825  17.146   6.881  11.377
39346W        W 4826  23.679  24.992   0.907
39347W        W 4827  16.214  12.217   0.477
39348W        W 4828  37.058   7.801   1.750
39349W        W 4829  25.134  21.141   0.448
39350W        W 4830  13.627   6.736   2.351
39351W        W 4831  21.657  27.547  13.445
39352W        W 4832  39.447  36.450   2.372
39353W        W 4833  43.009  24.612  12.034
39354W        W 4834  43.284  32.938   4.787
39355W        W 4835   3.216   2.227   0.735
39356W        W 4836  18.214  21.536   0.885
39357W        W 4837  27.469   2.351   3.710
39358W        W 4838  19.086  44.353  13.859
39359W        W 4839  21.232  36.087  12.410
39360W        W 4840   4.232  13.139   1.228
39361W        W 4841  29.926   3.259   2.365
39362W        W 4842  31.934  30.573  12.373
39363W        W 4843  40.805  31.583  12.987
39364W        W 4844  23.686  29.620   0.457
39365W        W 4845  36.958   8.355  13.952
39366W        W 4846  29.973  10.840  12.437
39367W        W 4847  14.143  36.897  13.515
39368W        W 4848   2.859   2.836  12.578
39369W        W 4849  44.999  13.741   2.766
39370W        W 4850  30.951  24.107   3.788
39371W        W 4851   6.826  18.781   4.200
39372W        W 4852  20.211  13.751   0.867
39373W        W 4853  13.695   7.361  14.296
39374W        W 4854  36.549   8.376  12.018
39375W        W 4855   8.676  23.003  11.018
39376W        W 4856  38.986  42.893   3.269
39377W        W 4857  14.178  22.639   3.355
39378W        W 4858  34.943  38.340   3.728
39379W        W 4859   8.734  27.591  13.543
39380W        W 4860  14.755   1.773  11.467
39381W        W 4861  16.124   3.429   4.223
39382W        W 4862  36.907  40.019   2.776
39383W        W 4863  28.147  15.125  11.417
39384W        W 4864  20.744  35.108   2.265
39385W        W 4865  24.137   1.276  12.014
39386W        W 4866  32.972  43.353   1.718
39387W        W 4867  22.246  22.551  14.905
39388W        W 4868  37.884  33.050   2.807
39389W        W 4869   5.331  22.034  13.527
39390W        W 4870  10.223  20.052  14.479
39391W        W 4871  17.098   4.286  11.126
39392W        W 4872  19.616   4.226  12.377
39393W        W 4873   3.337  10.839  14.002
39394W        W 4874  16.121   0.416   2.832
39395W        W 4875  28.994  18.166  12.517
39396W        W 4876  38.466   9.338  13.490
39397W        W 4877  30.940  39.880  11.048
39398W        W 4878  10.792  15.167   4.121
39399W        W 4879  22.028  10.205  12.038
39400W        W 4880   8.879  21.568   3.797
39401W        W 4881   4.417  41.996  11.966
39402W        W 4882  28.640  38.439   0.346
39403W        W 4883  18.573  23.734  10.621
39404W        W 4884  28.542   5.200   0.833
39405W        W 4885  44.868  20.563   1.449
39406W        W 4886  44.795  14.310   2.815
39407W        W 4887  26.461  19.040  10.527
39408W        W 4888  13.172  39.831  12.424
39409W        W 4889  29.131  28.030   0.808
39410W        W 4890   8.337  28.016   4.125
39411W        W 4891  13.712  21.749   3.347
39412W        W 4892  14.329  28.187   3.222
39413W        W 4893  36.399  32.491  13.423
39414W        W 4894  39.515   3.295  13.023
39415W        W 4895  41.960  39.945  14.979
39416W        W 4896  10.359  36.062  12.857
39417W        W 4897  19.576  36.577   5.202
39418W        W 4898  23.579  10.248  11.988
39419W        W 4899   0.270  13.134  13.842
39420W        W 4900  16.206  34.371   4.603
39421W        W 4901  12.357  26.682  12.359
39422W        W 4902  42.367  21.590  10.969
39423W        W 4903  43.978  20.633  12.398
39424W        W 4904  17.614  10.716  13.003
39425W        W 4905   8.834  30.657   3.759
39426W        W 4906  15.158  44.474  14.330
39427W        W 4907  23.597  19.766   2.872
39428W        W 4908  11.725  35.913   1.904
39429W        W 4909   2.308   0.832   0.779
39430W        W 4910  16.615  20.071  14.974
39431W        W 4911  22.701  11.690  12.403
39432W        W 4912  44.915  28.616  11.103
39433W        W 4913  39.532  27.971  11.526
39434W        W 4914  23.728  30.015   2.868
39435W        W 4915  18.677  11.203   2.676
39436W        W 4916  37.486  31.136  14.960
39437W        W 4917   6.705  41.302  12.853
39438W        W 4918   3.452  16.174  14.441
39439W        W 4919   2.902   4.805  12.936
39440W        W 4920  10.275  31.038  14.303
39441W        W 4921  13.805  43.849  12.506
39442W        W 4922  32.025  23.547  10.509
39443W        W 4923  12.846  12.199  11.021
39444W        W 4924  26.618  13.279  12.405
39445W        W 4925  44.338  32.606  13.866
39446W        W 4926  18.054  39.434  10.486
39447W        W 4927  22.546  39.936  12.354
39448W        W 4928  18.637  42.899   4.623
39449W        W 4929   6.247  19.733  11.442
39450W        W 4930   4.813  17.585   2.270
39451W        W 4931   1.332   6.912  14.276
39452W        W 4932   9.223  13.169  14.769
39453W        W 4933  25.707   3.440  11.107
39454W        W 4934  24.712  25.566  11.522
39455W        W 4935  26.044  15.249   4.810
39456W        W 4936  12.839   7.683  14.937
39457W        W 4937  40.047  23.127   2.193
39458W        W 4938  40.525  31.017   2.862
39459W        W 4939   0.350  11.798   4.113
39460W        W 4940  41.795  44.861   0.745
39461W        W 4941  20.533  17.713   2.206
39462W        W 4942  23.107  20.574  14.363
39463W        W 4943  14.331  39.064   1.705
39464W        W 4944  30.482  30.453  11.893
39465W        W 4945  26.668  41.925   2.799
39466W        W 4946  35.434  10.822  12.085
39467W        W 4947   3.335   7.684  11.027
39468W        W 4948  37.025  39.860   1.379
39469W        W 4949   3.895  41.887  13.954
39470W        W 4950   2.798  38.822  12.001
39471W        W 4951  14.280  42.465  10.537
39472W        W 4952   3.908  44.956   4.219
39473W        W 4953  26.698  35.980   2.761
39474W        W 4954  41.949  44.483  10.492
39475W        W 4955  41.825  14.786  11.377
39476W        W 4956  43.472  14.628  14.814
39477W        W 4957   8.178  43.798   3.372
39478W        W 4958   9.691  34.953   2.705
39479W        W 4959  32.051  42.810  12.581
39480W        W 4960  11.818  43.808   0.458
39481W        W 4961  44.316  23.091   0.793
39482W        W 4962  33.057  37.365  13.799
39483W        W 4963  42.907  13.644  13.989
39484W        W 4964  40.805  26.667  10.631
39485W        W 4965  10.814   8.189   4.198
39486W        W 4966  12.854  43.324  13.859
39487W        W 4967   8.889  33.491  10.598
39488W        W 4968  41.518  37.342  11.377
39489W        W 4969  20.089  43.468   4.733
39490W        W 4970  16.101  17.141   2.808
39491W        W 4971  18.198  15.305   0.317
39492W        W 4972  42.814  15.247   2.299
39493W        W 4973  25.069   2.417   5.222
39494W        W 4974   4.236  12.335  12.964
39495W        W 4975  38.021  42.866  13.883
39496W        W 4976  22.735   3.910   0.821
39497W        W 4977  31.627  26.499  12.455
39498W        W 4978   5.281  43.922   3.750
39499W        W 4979   7.678  18.210  13.821
39500W        W 4980  44.913  12.235  14.450
39501W        W 4981  38.961  16.594  13.015
39502W        W 4982  17.572   6.884  12.836
39503W        W 4983   4.706  24.664   3.817
39504W        W 4984   5.933  15.631   1.229
39505W        W 4985   4.263  13.832  10.413
39506W        W 4986  20.169  15.233   0.383
39507W        W 4987  36.583  29.100  14.490
39508W        W 4988  10.716  13.626  10.405
39509W        W 4989  25.130  11.192  14.965
39510W        W 4990  29.114   2.449  13.881
39511W        W 4991  28.516   2.269   0.465
39512W        W 4992  22.010  10.197  12.865
39513W        W 4993  22.130  21.608   2.822
39514W        W 4994  14.259  16.169  12.487
39515W        W 4995  44.303  36.971  12.947
39516W        W 4996  32.429  38.016   2.180
39517W        W 4997  21.584  40.946  11.054
39518W        W 4998  20.682  13.747   2.746
39519W        W 4999   3.427  21.038   1.333
39520W        W 5000   5.899   6.415   2.260
39521W        W 5001  23.065  34.548  14.926
39522W        W 5002   5.752   1.426  14.788
39523W        W 5003  11.811   4.437  11.459
39524W        W 5004  32.057  28.005  10.524
39525W        W 5005  20.656   3.323   4.832
39526W        W 5006   0.299   4.940   3.290
39527W        W 5007  31.423  18.671   0.253
39528W        W 5008  40.808  18.153   9.467
39529W        W 5009  21.519  22.104   4.686
39530W        W 5010  34.517  11.812  14.511
39531W        W 5011  32.029   0.418  13.467
39532W        W 5012  38.415  39.907   1.364
39533W        W 5013  16.661  16.612   3.788
39534W        W 5014   6.744  28.441   2.277
39535W        W 5015  41.845   1.945  10.153
39536W        W 5016   9.390  21.200  13.857
39537W        W 5017  24.998  32.479  12.068
39538W        W 5018  15.328  10.180  11.892
39539W        W 5019  32.440  41.894   0.771
39540W        W 5020  42.839  24.202   4.152
39541W        W 5021  26.981   2.239  13.945
39542W        W 5022  17.275  34.574   1.235
39543W        W 5023   1.312  16.100  11.400
39544W        W 5024  30.013  44.400   4.157
39545W        W 5025   3.754  25.577   0.387
39546W        W 5026   4.207   6.421  14.282
39547W        W 5027   7.713   3.750  11.983
39548W        W 5028  32.414   6.919   4.623
39549W        W 5029   7.351  39.053   4.165
39550W        W 5030  29.630  26.605   2.756
39551W        W 5031  43.320   9.644  12.446
39552W        W 5032  36.584  24.512  11.115
39553W        W 5033  11.227  44.786  14.464
39554W        W 5034  35.424   5.705  14.359
39555W        W 5035  29.994  39.035  10.074
39556W        W 5036  28.484   7.889   1.280
39557W        W 5037  35.385   3.880  12.391
39558W        W 5038  14.164  29.012   3.168
39559W        W 5039  22.521  15.679   3.280
39560W        W 5040  19.732   2.947  11.524
39561W        W 5041  18.653  32.480   5.202
39562W        W 5042   0.889  26.668   5.214
39563W        W 5043  40.829   0.810  11.103
39564W        W 5044  20.595  22.156  10.463
39565W        W 5045   9.698  39.989   0.965
39566W        W 5046  25.534  23.178  10.477
39567W        W 5047  16.692  13.140  13.956
39568W        W 5048   0.894  27.070   0.452
39569W        W 5049  25.593  17.617  13.818
39570W        W 5050  42.490  34.482  13.508
39571W        W 5051  24.059  32.458  13.316
39572W        W 5052  41.464  33.601  11.013
39573W        W 5053   6.845  10.720  14.439
39574W        W 5054  35.393   9.667  14.440
39575W        W 5055  25.111  33.959   1.719
39576W        W 5056  34.114   8.315  11.504
39577W        W 5057  26.152  37.356   3.700
39578W        W 5058  40.831   8.794  14.016
39579W        W 5059  44.948  28.518   3.159
39580W        W 5060  39.543   4.394  14.863
39581W        W 5061   0.827  11.290   0.307
39582W        W 5062  38.982  42.325  11.422
39583W        W 5063  18.097  26.983   2.408
39584W        W 5064   5.202  44.944  11.540
39585W        W 5065  28.070  37.343  12.510
39586W        W 5066   0.942  25.529  12.389
39587W        W 5067  21.197  40.860  10.418
39588W        W 5068   9.158   3.356   0.370
39589W        W 5069  20.265  22.562  12.490
39590W        W 5070  42.299  14.307  13.355
39591W        W 5071  32.494  12.292  10.415
39592W        W 5072  22.138  41.882   4.819
39593W        W 5073  13.684  10.239  11.042
39594W        W 5074  35.364  38.470  13.840
39595W        W 5075  40.975  24.198  11.426
39596W        W 5076  11.184  44.921   2.678
39597W        W 5077   1.876  20.178   5.203
39598W        W 5078  43.853  25.032   0.310
39599W        W 5079  41.512  15.321  14.882
39600W        W 5080   0.261   3.726   4.697
39601W        W 5081   9.202  30.611  10.410
39602W        W 5082   8.219   7.209  13.951
39603W        W 5083  27.595  22.085  13.947
39604W        W 5084  11.151  12.264  13.937
39605W        W 5085   8.756   5.895  11.113
39606W        W 5086  28.064  40.031  11.094
39607W        W 5087  38.417   7.210   2.198
39608W        W 5088  34.464  40.835  11.438
39609W        W 5089  37.958  19.557   3.369
39610W        W 5090  38.546  39.360   4.614
39611W        W 5091   5.257  27.624  14.379
39612W        W 5092  22.043  12.180  10.640
39613W        W 5093  40.454  35.540  12.837
39614W        W 5094   9.283  39.931   3.729
39615W        W 5095  20.139   7.747   1.231
39616W        W 5096  12.342  15.223   2.881
39617W        W 5097  20.730  24.671  14.443
39618W        W 5098  13.687  31.996  12.433
39619W        W 5099  10.689  21.081   3.273
39620W        W 5100  44.502  34.452   0.247
39621W        W 5101   5.926  41.491  12.350
39622W        W 5102   9.817  22.700   2.206
39623W        W 5103  28.654  34.054  11.475
39624W        W 5104  36.066   6.867   3.784
39625W        W 5105   0.872  15.718  13.408
39626W        W 5106  17.654   7.806   0.847
39627W        W 5107   2.951  38.382  11.578
39628W        W 5108  43.334  40.429   0.406
39629W        W 5109  14.828   5.752  13.876
39630W        W 5110  31.575   1.898   0.386
39631W        W 5111  10.242  21.741  14.779
39632W        W 5112  18.614  38.995  11.517
39633W        W 5113  24.490  32.893  10.460
39634W        W 5114  27.117  37.362   1.761
39635W        W 5115   4.805   0.893   0.919
39636W        W 5116  30.015  23.653  13.024
39637W        W 5117   3.270  42.334  13.795
39638W        W 5118   1.973  26.519  10.953
39639W        W 5119  34.406  22.141  11.997
39640W        W 5120  26.995  44.913  13.995
39641W        W 5121  36.472  29.450   2.202
39642W        W 5122   0.953  16.254  11.481
39643W        W 5123  28.168  15.766  10.121
39644W        W 5124   4.239  15.660   4.200
39645W        W 5125  15.701  26.015  10.922
39646W        W 5126   9.751  27.954  11.961
39647W        W 5127  43.421  10.679   1.305
39648W        W 5128  10.252  18.260   3.161
39649W        W 5129  42.349   9.884   2.813
39650W        W 5130  28.670  40.025  14.378
39651W        W 5131   9.736  24.228   0.333
39652W        W 5132  22.588  12.817   0.749
39653W        W 5133   3.235  28.077   3.381
39654W        W 5134  15.267   6.825   4.792
39655W        W 5135   6.328  41.788  12.947
39656W        W 5136  34.613  37.984  12.969
39657W        W 5137  38.432  21.519   2.179
39658W        W 5138  34.094   9.643  12.833
39659W        W 5139   7.905  29.511  14.762
39660W        W 5140  21.139  30.045  12.914
39661W        W 5141  27.128   1.967   0.357
39662W        W 5142   5.344  36.526   4.725
39663W        W 5143   6.859  17.104  12.091
39664W        W 5144  12.693  23.086   3.346
39665W        W 5145  42.833  41.858  13.400
39666W        W 5146  26.605   2.789  11.443
39667W        W 5147  22.655  20.561   4.163
39668W        W 5148  17.689   8.747  12.421
39669W        W 5149   4.238   6.240  13.940
39670W        W 5150  38.330   0.408   4.717
39671W        W 5151   7.725  18.662   3.370
39672W        W 5152  25.504  28.069   4.804
39673W        W 5153  27.530   9.211   4.169
39674W        W 5154   5.315  23.011  14.398
39675W        W 5155  34.909  36.427   0.957
39676W        W 5156  25.067   7.357   1.301
39677W        W 5157  27.658  18.099   3.795
39678W        W 5158  19.249  10.263   2.758
39679W        W 5159  29.123  23.543  12.432
39680W        W 5160  39.933   1.755  11.916
39681W        W 5161  17.589  40.436  11.987
39682W        W 5162   9.703  31.438   1.219
39683W        W 5163   2.758  30.979   4.345
39684W        W 5164  15.127  20.178   4.342
39685W        W 5165  12.151  12.323  14.984
39686W        W 5166   5.818  20.532  13.386
39687W        W 5167  21.636  32.629  11.429
39688W        W 5168  16.595   0.971   1.440
39689W        W 5169  42.345   8.306   5.673
39690W        W 5170  21.057  38.486   3.771
39691W        W 5171  32.443  25.508   0.810
39692W        W 5172  33.955  16.301   1.251
39693W        W 5173  20.246  13.778  12.912
39694W        W 5174  39.064  15.663   1.914
39695W        W 5175  31.996  27.130  13.921
39696W        W 5176  24.981   6.850  10.493
39697W        W 5177  31.019  19.734   3.846
39698W        W 5178  25.582  33.049   4.599
39699W        W 5179  23.521  12.154  13.403
39700W        W 5180   9.773  28.169  12.868
39701W        W 5181  44.814   4.227  10.469
39702W        W 5182   5.329  14.621   4.720
39703W        W 5183  12.309  15.201   2.306
39704W        W 5184  35.493  21.183   2.276
39705W        W 5185  37.359   3.762  10.491
39706W        W 5186  28.078  11.743  10.586
39707W        W 5187  31.070  43.799   0.365
39708W        W 5188  44.956  19.226   1.288
39709W        W 5189  34.393  29.434  12.356
39710W        W 5190  29.018  26.013  11.609
39711W        W 5191  34.491  21.750  12.934
39712W        W 5192  19.144  42.284   2.194
39713W        W 5193  18.594  10.858  10.923
39714W        W 5194  25.972  23.552   1.898
39715W        W 5195  43.327  14.591   0.368
39716W        W 5196  24.118  32.041   1.322
39717W        W 5197   1.910   1.952  13.358
39718W        W 5198  21.727  25.969   3.254
39719W        W 5199  17.305  37.463  14.368
39720W        W 5200  12.155  43.022  12.503
39721W        W 5201  29.602  30.150   1.439
39722W        W 5202  39.400  39.918  12.492
39723W        W 5203  26.972  13.672   4.748
39724W        W 5204  25.113  13.126  10.587
39725W        W 5205  43.421  29.043  13.020
39726W        W 5206  17.268  21.043   0.316
39727W        W 5207  20.049  20.720  13.314
39728W        W 5208  43.823  26.967  10.612
39729W        W 5209   3.384  34.422  13.802
39730W        W 5210  31.951  12.678   1.428
39731W        W 5211   0.366  41.017   2.804
39732W        W 5212  27.053  25.038   4.243
39733W        W 5213  34.892  16.119  14.908
39734W        W 5214  42.792  13.822   4.663
39735W        W 5215  24.984  34.544   3.271
39736W        W 5216  11.866  28.542   4.807
39737W        W 5217  22.013  21.168  13.833
39738W        W 5218  18.295  34.513   3.740
39739W        W 5219  12.646  37.916  12.891
39740W        W 5220  19.044  20.632   2.755
39741W        W 5221  27.150  22.684   3.289
39742W        W 5222  34.086  33.905  10.974
39743W        W 5223  21.185  34.404   5.126
39744W        W 5224  24.645  18.185   1.698
39745W        W 5225   4.940  14.701   1.728
39746W        W 5226  32.537  13.201  12.399
39747W        W 5227   6.884  17.592  14.348
39748W        W 5228   2.282  28.461   0.882
39749W        W 5229  11.192  22.727   1.875
39750W        W 5230  22.515  14.112   1.832
39751W        W 5231  18.742  35.369   4.680
39752W        W 5232  43.276  11.159  13.958
39753W        W 5233  16.275  12.852  11.009
39754W        W 5234   4.267  34.452  11.983
39755W        W 5235  39.923  26.544   1.284
39756W        W 5236  37.461  40.932   1.897
39757W        W 5237  10.304  28.033  13.792
39758W        W 5238   3.743  25.168  11.090
39759W        W 5239  42.026  18.093  13.989
39760W        W 5240  37.067  16.081  11.127
39761W        W 5241  18.626  41.873   2.736
39762W        W 5242  36.588   8.370   2.765
39763W        W 5243  26.026  17.225   1.250
39764W        W 5244   6.684   9.365  13.478
39765W        W 5245  33.380  10.857  10.559
39766W        W 5246  37.858  23.202  14.486
39767W        W 5247  21.152   6.317   3.646
39768W        W 5248  26.618  13.310  14.011
39769W        W 5249  29.601  18.158   4.794
39770W        W 5250  42.944   2.818   1.858
39771W        W 5251  19.687  11.661  12.577
39772W        W 5252  18.756  10.855  13.901
39773W        W 5253  24.481  44.009   0.934
39774W        W 5254  12.145  39.879   3.273
39775W        W 5255  15.692  11.863  14.401
39776W        W 5256   0.932  31.954   2.762
39777W        W 5257   9.829  27.529   3.738
39778W        W 5258  15.261  23.168  14.777
39779W        W 5259  35.563   7.776   0.896
39780W        W 5260  43.924   8.392  12.899
39781W        W 5261  38.075  27.498   1.919
39782W        W 5262  34.438  21.512   2.198
39783W        W 5263  14.094  20.534   3.215
39784W        W 5264  34.427   3.798   3.644
39785W        W 5265  18.704  44.353  10.629
39786W        W 5266  35.542  24.087   1.924
39787W        W 5267  26.058  36.963   0.359
39788W        W 5268  26.121   9.698  11.025
39789W        W 5269   1.399  11.717  13.365
39790W        W 5270  36.408  16.199  11.883
39791W        W 5271   1.466  43.371   0.334
39792W        W 5272  24.655  31.622   3.319
39793W        W 5273  33.089  16.217   3.703
39794W        W 5274   3.350  39.480  11.935
39795W        W 5275   3.355  43.824  14.375
39796W        W 5276  28.553   1.914   3.375
39797W        W 5277   6.745  20.172  14.388
39798W        W 5278  40.926   5.882   1.788
39799W        W 5279   2.424  41.334   4.717
39800W        W 5280  14.782  31.081   2.828
39801W        W 5281  43.342  39.405   2.412
39802W        W 5282  20.059  25.675   1.817
39803W        W 5283  44.460  13.351  12.854
39804W        W 5284  13.300   0.753   4.201
39805W        W 5285  20.684  10.838  14.840
39806W        W 5286  28.573  21.679  13.031
39807W        W 5287  21.701  16.202  13.839
39808W        W 5288  13.290  35.987   0.316
39809W        W 5289  39.345  33.537  14.482
39810W        W 5290  15.801  18.082   4.175
39811W        W 5291  17.704  39.910  13.369
39812W        W 5292  10.145  38.979  14.323
39813W        W 5293  30.950  29.597   1.446
39814W        W 5294  39.914  19.750   0.302
39815W        W 5295  31.448  12.353   0.363
39816W        W 5296  17.690  32.592  13.341
39817W        W 5297  19.705  20.743  14.989
39818W        W 5298  41.806  38.484   4.161
39819W        W 5299  41.430   7.374   2.771
39820W        W 5300   0.857  22.544  12.061
39821W        W 5301  43.318  26.528   0.743
39822W        W 5302  24.039   0.472   3.702
39823W        W 5303  14.213  20.112   2.794
39824W        W 5304  28.108  28.118   2.208
39825W        W 5305  29.603   5.255  11.556
39826W        W 5306  32.557  34.926  14.430
39827W        W 5307   8.718  23.530  12.032
39828W        W 5308  39.988  42.325  10.927
39829W        W 5309  42.326  24.544   3.773
39830W        W 5310  20.567  33.063   3.250
39831W        W 5311   2.919   5.746  12.499
39832W        W 5312   6.350  34.476  11.902
39833W        W 5313  19.571  16.249  12.071
39834W        W 5314  28.116   3.329  14.863
39835W        W 5315  38.957   3.350   5.144
39836W        W 5316   3.950  23.554  12.082
39837W        W 5317  29.586   5.764   0.801
39838W        W 5318  17.091  33.097  13.399
39839W        W 5319  31.947   9.836  13.954
39840W        W 5320  21.543  13.633  14.407
39841W        W 5321  11.816  18.070   3.836
39842W        W 5322  38.049  28.465   3.247
39843W        W 5323  38.562  22.617   4.662
39844W        W 5324  14.652   3.227   3.804
39845W        W 5325   7.212  24.165   4.598
39846W        W 5326  17.603  19.261  13.032
39847W        W 5327  21.220  28.562   0.419
39848W        W 5328   5.692   4.805   4.601
39849W        W 5329  41.530  35.981  10.947
39850W        W 5330  25.683  39.379   4.308
39851W        W 5331  28.948  16.622   2.204
39852W        W 5332  34.882  12.851   4.122
39853W        W 5333  43.477  13.607   1.375
39854W        W 5334  38.917  31.150   3.775
39855W        W 5335  11.827  10.232  13.990
39856W        W 5336  36.919  41.964  14.433
39857W        W 5337  26.995  30.574   0.243
39858W        W 5338  14.324  21.637   4.235
39859W        W 5339  38.065  31.078  12.057
39860W        W 5340  32.038  39.013  12.443
39861W        W 5341  27.995   4.399  13.382
39862W        W 5342  13.730  24.606  12.495
39863W        W 5343  33.441  17.238  12.085
39864W        W 5344  10.720  22.546   0.872
39865W        W 5345  31.474  20.239   2.287
39866W        W 5346  10.188  41.955  14.783
39867W        W 5347  36.372   9.293  13.522
39868W        W 5348  24.990   1.951   3.745
39869W        W 5349  32.415  42.989  14.887
39870W        W 5350  28.561   6.876  10.570
39871W        W 5351  20.527   6.264  10.961
39872W        W 5352   6.222  11.867   3.846
39873W        W 5353  30.443  39.002   3.723
39874W        W 5354   3.715  30.020  11.464
39875W        W 5355  18.778  34.375  13.399
39876W        W 5356   4.824  21.146  10.461
39877W        W 5357  22.013  15.282   1.894
39878W        W 5358  15.639   2.462  13.446
39879W        W 5359  26.022  24.569  10.581
39880W        W 5360   4.400  29.994   0.790
39881W        W 5361  28.985   6.328   2.714
39882W        W 5362   8.766  30.068   0.768
39883W        W 5363  42.453  16.236  10.472
39884W        W 5364  38.411  42.469  13.800
39885W        W 5365   6.917  24.006  10.984
39886W        W 5366   4.428   7.729   4.707
39887W        W 5367  36.043  23.560  12.512
39888W        W 5368   4.877  17.178  13.891
39889W        W 5369  38.891  31.102   4.152
39890W        W 5370  30.943  26.597   2.793
39891W        W 5371  29.518   7.792   1.365
39892W        W 5372  25.180  19.249  12.018
39893W        W 5373  44.268   4.367   3.314
39894W        W 5374  39.328  28.523  11.552
39895W        W 5375  17.761   5.415  12.976
39896W        W 5376   2.931  22.684  12.092
39897W        W 5377  39.023   8.164   0.741
39898W        W 5378  16.587  26.058  11.046
39899W        W 5379  12.703   8.700  13.368
39900W        W 5380  34.416  44.351   3.684
39901W        W 5381  38.953   2.730  13.830
39902W        W 5382   6.862  29.653   4.821
39903W        W 5383  22.084  19.629   0.269
39904W        W 5384  24.177  41.455  12.973
39905W        W 5385  16.284   1.893   3.643
39906W        W 5386  36.994   2.770  12.346
39907W        W 5387  31.082   4.404  11.894
39908W        W 5388   2.355  10.365   1.935
39909W        W 5389  43.767  18.084   3.800
39910W        W 5390   4.718  20.651  12.497
39911W        W 5391  19.224  21.247   1.918
39912W        W 5392   5.399  32.520  10.635
39913W        W 5393  36.967  28.961  12.580
39914W        W 5394  44.808  33.109   0.277
39915W        W 5395  40.307  32.549  11.028
39916W        W 5396   4.311   9.783   4.259
39917W        W 5397   5.723  20.175  14.290
39918W        W 5398  41.316  39.980   3.787
39919W        W 5399  31.583  27.018   0.749
39920W        W 5400  16.250  30.958   2.756
39921W        W 5401  25.681  44.893  11.471
39922W        W 5402   8.858  24.634  11.860
39923W        W 5403  29.957   1.838   4.346
39924W        W 5404  25.039  17.699  11.589
39925W        W 5405  25.493  29.012   0.243
39926W        W 5406   9.739   2.295  12.978
39927W        W 5407  17.223  22.245   3.786
39928W        W 5408  22.579   9.388   0.898
39929W        W 5409  31.908  39.474  11.493
39930W        W 5410  35.398  23.037   0.789
39931W        W 5411  25.555  25.519   1.299
39932W        W 5412  42.005  26.058  14.388
39933W        W 5413   7.814  40.842  12.847
39934W        W 5414   3.349  39.883  13.948
39935W        W 5415   1.335  14.202   1.425
39936W        W 5416  16.300   7.338   2.294
39937W        W 5417  32.430  40.816  11.005
39938W        W 5418  30.582  33.978   0.766
39939W        W 5419   7.248  25.507   2.300
39940W        W 5420   8.174  29.621   1.417
39941W        W 5421   6.710  26.696  13.475
39942W        W 5422  41.961  36.535  10.992
39943W        W 5423  24.151  29.547  11.005
39944W        W 5424  40.531   9.322  13.797
39945W        W 5425  32.410  14.702   1.330
39946W        W 5426  18.207  14.143  14.830
39947W        W 5427  36.537  13.816   0.776
39948W        W 5428  24.070  18.086   3.170
39949W        W 5429  15.735  22.717  11.462
39950W        W 5430   0.324   8.169  11.986
39951W        W 5431  10.168  35.022   2.389
39952W        W 5432  19.777   9.692  12.553
39953W        W 5433  40.861  42.414  13.470
39954W        W 5434   2.765  30.949  12.091
39955W        W 5435  34.958  27.518   2.718
39956W        W 5436  35.374  37.971  11.957
39957W        W 5437  33.595  36.396   3.203
39958W        W 5438  22.595  10.312   3.235
39959W        W 5439  12.724  41.477   4.348
39960W        W 5440  14.662   0.971   0.796
39961W        W 5441  36.906  22.518  12.341
39962W        W 5442   6.353  26.063  12.987
39963W        W 5443  38.865   5.787  13.548
39964W        W 5444  15.783  11.821  12.094
39965W        W 5445  26.080  15.170   4.190
39966W        W 5446  16.145  23.182   0.798
39967W        W 5447  10.309  12.770   3.776
39968W        W 5448  36.489  32.081  10.573
39969W        W 5449   3.295  14.193   2.289
39970W        W 5450  32.889  18.173  11.482
39971W        W 5451  19.675  24.715   0.853
39972W        W 5452  21.199   0.425  13.856
39973W        W 5453  27.618  33.492   4.136
39974W        W 5454  43.488  11.146  11.413
39975W        W 5455  43.806  34.987  13.372
39976W        W 5456   6.330  17.786  11.395
39977W        W 5457   5.292  26.135  13.383
39978W        W 5458   2.936   1.267   3.387
39979W        W 5459  27.122  32.017   4.162
39980W        W 5460  44.824  14.669  12.378
39981W        W 5461  26.959  39.869   4.759
39982W        W 5462  22.190  29.454  10.888
39983W        W 5463  38.971  11.791  11.907
39984W        W 5464  40.837  23.666   4.214
39985W        W 5465  31.004  37.454   9.991
39986W        W 5466   5.257  41.452   4.235
39987W        W 5467  21.530  26.037   1.263
39988W        W 5468  36.564  24.014   4.808
39989W        W 5469  38.477  37.058   0.472
39990W        W 5470   2.291  20.173   0.390
39991W        W 5471   6.688  16.635  13.966
39992W        W 5472  44.901  39.381   3.178
39993W        W 5473  31.555  22.550   1.826
39994W        W 5474  31.016  34.594  12.084
39995W        W 5475  17.194  20.056   3.169
39996W        W 5476  13.802   7.254  12.490
39997W        W 5477   0.891  22.666   2.265
39998W        W 5478  41.799  29.474  11.972
39999W        W 5479  16.805  26.017  14.907
40000W        W 5480  44.951  27.987  11.024
40001W        W 5481  35.543  31.971  14.839
40002W        W 5482  23.138  16.778   4.260
40003W        W 5483  43.334   6.334   3.186
40004W        W 5484  24.090  32.007   1.749
40005W        W 5485  14.294  18.568   0.732
40006W        W 5486  11.338   5.250  12.971
40007W        W 5487  27.195   3.812  12.421
40008W        W 5488  44.869   0.371  14.502
40009W        W 5489  28.527  41.866   0.836
40010W        W 5490   8.799  14.690  12.358
40011W        W 5491  42.027   5.416  10.894
40012W        W 5492  21.024  16.271   1.894
40013W        W 5493   1.831  15.591   0.381
40014W        W 5494  20.743  43.504   1.761
40015W        W 5495  31.934  26.691   0.824
40016W        W 5496  31.556  31.093  11.432
40017W        W 5497  15.735  39.039  14.865
40018W        W 5498  31.040  21.608  11.542
40019W        W 5499   5.867  11.755   4.173
40020W        W 5500  11.305   6.304  13.880
40021W        W 5501  17.234  40.362   5.124
40022W        W 5502  19.095  20.703  12.852
40023W        W 5503  24.119  36.979  11.111
40024W        W 5504  14.098  17.708   0.770
40025W        W 5505  15.793   0.819  14.502
40026W        W 5506  37.540  44.467  11.940
40027W        W 5507   3.319  32.553   1.253
40028W        W 5508  43.398  22.563  12.529
40029W        W 5509   2.736   1.950  12.936
40030W        W 5510  29.132  36.879  10.446
40031W        W 5511  37.356  30.656   1.411
40032W        W 5512  37.572  12.155  14.477
40033W        W 5513  38.405  36.589   0.400
40034W        W 5514   9.277  39.341   0.275
40035W        W 5515  32.040   9.757   4.784
40036W        W 5516  24.044  12.704  13.535
40037W        W 5517  19.093  32.021   1.811
40038W        W 5518  35.890  11.788  13.978
40039W        W 5519   6.345  17.669   0.895
40040W        W 5520  36.898  19.660  11.036
40041W        W 5521  31.554  18.150   0.800
40042W        W 5522  20.249  21.655   4.657
40043W        W 5523  22.588  13.631  10.930
40044W        W 5524  13.248  27.512   1.376
40045W        W 5525  43.932  16.691  11.895
40046W        W 5526  24.664  44.832   3.723
40047W        W 5527  38.524  40.468   4.788
40048W        W 5528   7.305   4.765  13.906
40049W        W 5529   4.339   3.891  13.860
40050W        W 5530   9.356  42.816   1.333
40051W        W 5531   8.211  42.333  11.411
40052W        W 5532   1.945  39.384   3.782
40053W        W 5533  19.087  44.455   2.739
40054W        W 5534   9.764  17.773   3.688
40055W        W 5535   5.734  34.393  13.336
40056W        W 5536  17.668  26.141  13.861
40057W        W 5537   0.437   5.825  10.442
40058W        W 5538  22.558   1.868  12.439
40059W        W 5539  31.512  13.641   2.190
40060W        W 5540  14.790  13.693  13.883
40061W        W 5541  39.506  22.633  13.360
40062W        W 5542  19.284  36.412   1.890
40063W        W 5543   1.731  34.921  10.984
40064W        W 5544  27.187  17.174   2.300
40065W        W 5545  38.430  28.621   4.302
40066W        W 5546  24.131  14.169  14.788
40067W        W 5547  11.288  23.026  11.437
40068W        W 5548   8.266  15.220  10.566
40069W        W 5549  15.218  31.048  12.896
40070W        W 5550  11.834   7.333   4.784
40071W        W 5551  21.670  20.553  10.563
40072W        W 5552  36.415  23.580   4.211
40073W        W 5553  37.872   0.957  11.982
40074W        W 5554   8.233   5.237  14.426
40075W        W 5555  27.609  43.955   3.662
40076W        W 5556  37.350  41.419  14.297
40077W        W 5557  38.525  11.694  14.471
40078W        W 5558  34.385   3.871  12.894
40079W        W 5559  38.354  44.263  14.441
40080W        W 5560  34.932  17.633   4.722
40081W        W 5561  12.120  25.589  14.503
40082W        W 5562  36.015   3.274   1.284
40083W        W 5563  17.778  33.947   3.800
40084W        W 5564  33.472   9.801   3.296
40085W        W 5565  20.541  10.685  12.947
40086W        W 5566   5.224  32.443   4.787
40087W        W 5567  20.644  41.300  13.883
40088W        W 5568  28.147  12.262   3.225
40089W        W 5569  38.377   9.694   2.200
40090W        W 5570  28.676  44.810  10.602
40091W        W 5571  11.696  12.838   0.378
40092W        W 5572  12.677  28.641  14.447
40093W        W 5573   7.843  30.506   0.320
40094W        W 5574  39.822   0.328  11.547
40095W        W 5575  43.915  41.503   0.383
40096W        W 5576  15.132  11.236   2.838
40097W        W 5577  19.710   1.249  11.607
40098W        W 5578  19.620  14.631  12.365
40099W        W 5579  25.996  33.939   0.819
40100W        W 5580  30.031  37.540  10.981
40101W        W 5581  28.642  34.965  11.477
40102W        W 5582  39.361  26.071   2.347
40103W        W 5583   5.870  22.707   2.828
40104W        W 5584  41.934  44.469   5.205
40105W        W 5585  27.124   5.281  14.762
40106W        W 5586  21.741  37.884   0.774
40107W        W 5587   6.749  31.943   0.866
40108W        W 5588  16.733  36.406   5.093
40109W        W 5589  28.984  14.734   1.760
40110W        W 5590  19.659  14.320   1.694
40111W        W 5591  31.436  17.084  11.582
40112W        W 5592  22.571  15.184   4.183
40113W        W 5593  26.682  13.283  14.282
40114W        W 5594  42.016  40.901  14.893
40115W        W 5595  22.617   5.816  10.903
40116W        W 5596  19.741  21.094  12.468
40117W        W 5597  16.610  31.957   2.761
40118W        W 5598   5.384   2.308   0.846
40119W        W 5599  39.364  38.500   3.833
40120W        W 5600  31.526  22.058   4.137
40121W        W 5601  27.996  39.029  14.777
40122W        W 5602   4.896  32.511   4.328
40123W        W 5603  21.204  20.682  14.807
40124W        W 5604  20.267  15.205  11.962
40125W        W 5605  25.140  22.676  11.541
40126W        W 5606  22.101  13.124   4.291
40127W        W 5607  20.141  33.926  14.431
40128W        W 5608  21.133  24.637  14.400
40129W        W 5609   0.890  30.529   3.312
40130W        W 5610  26.150  11.717   0.324
40131W        W 5611   6.806  10.843  11.510
40132W        W 5612  15.725   1.414  12.459
40133W        W 5613  33.096   6.383   0.790
40134W        W 5614  25.598   2.949  11.998
40135W        W 5615   8.189  23.029  13.473
40136W        W 5616  33.510  32.441   4.695
40137W        W 5617  30.483  37.473  11.908
40138W        W 5618  40.372  20.743   5.165
40139W        W 5619  44.826  19.060   2.872
40140W        W 5620  10.785   2.930   0.305
40141W        W 5621  23.064  37.430  10.436
40142W        W 5622   4.713  11.778  12.974
40143W        W 5623  20.187  22.565   4.607
40144W        W 5624  22.503  37.374   2.693
40145W        W 5625  25.536  29.556   0.385
40146W        W 5626  44.830  43.457   3.766
40147W        W 5627   9.858  16.126   1.295
40148W        W 5628   8.342  11.198  11.935
40149W        W 5629  43.399  21.088   2.399
40150W        W 5630  38.864  11.132  13.949
40151W        W 5631  20.172  39.015  10.122
40152W        W 5632  33.431  18.598   3.234
40153W        W 5633  16.777  21.534  14.386
40154W        W 5634  26.587   7.376  12.417
40155W        W 5635  34.983  16.217  12.922
40156W        W 5636  13.215   9.865  14.334
40157W        W 5637  38.960  25.597  12.870
40158W        W 5638  28.538  43.352  11.417
40159W        W 5639  37.567   9.646   2.724
40160W        W 5640  12.694  32.587  12.976
40161W        W 5641   3.709  33.439   1.328
40162W        W 5642  41.537  38.546   0.352
40163W        W 5643   1.375   3.741   2.789
40164W        W 5644  15.268   6.370  14.490
40165W        W 5645   7.824  39.397   2.242
40166W        W 5646   6.920   6.775   1.343
40167W        W 5647  15.130  16.274   2.715
40168W        W 5648   0.457  28.083  13.048
40169W        W 5649   6.198  33.013  13.376
40170W        W 5650  30.635   9.301  12.420
40171W        W 5651  30.987  13.165   2.277
40172W        W 5652  22.653  27.658  10.578
40173W        W 5653   9.827  27.156  12.021
40174W        W 5654  21.141  26.457   4.283
40175W        W 5655   6.789  26.582  12.897
40176W        W 5656  31.129  12.119  11.962
40177W        W 5657   7.273  33.129   3.242
40178W        W 5658  41.469  39.946  11.051
40179W        W 5659  43.988   6.851  12.459
40180W        W 5660  11.301  43.980  14.477
40181W        W 5661  16.091  32.121  14.955
40182W        W 5662   3.252   9.361  14.920
40183W        W 5663  37.924  32.541   3.643
40184W        W 5664   1.745   0.751  14.991
40185W        W 5665  35.487  22.106   1.742
40186W        W 5666  34.889  28.018  13.991
40187W        W 5667  28.967  17.125   4.227
40188W        W 5668   7.322  22.098  11.866
40189W        W 5669  32.989  34.401   4.157
40190W        W 5670  10.671   6.899   2.809
40191W        W 5671  36.914  44.373   3.255
40192W        W 5672  12.678  37.356  11.495
40193W        W 5673   8.380  29.582  13.911
40194W        W 5674  10.734  40.931   1.356
40195W        W 5675  38.867   1.860   0.439
40196W        W 5676  40.345  10.719  10.901
40197W        W 5677  13.252  11.734  10.945
40198W        W 5678  27.654  19.613   5.263
40199W        W 5679  29.518  11.644   3.331
40200W        W 5680  24.118  27.061  14.492
40201W        W 5681  37.386  34.389  11.110
40202W        W 5682  33.002  33.566  13.416
40203W        W 5683   9.749  43.495  12.571
40204W        W 5684  37.084  22.201   2.193
40205W        W 5685  19.692  12.282   3.378
40206W        W 5686  21.537  13.220  14.298
40207W        W 5687   4.830  39.345  12.492
40208W        W 5688  34.103   5.392  14.405
40209W        W 5689  12.182  30.939  12.957
40210W        W 5690  27.094  32.599   4.691
40211W        W 5691   3.910  11.243   0.859
40212W        W 5692  15.317  24.649  10.472
40213W        W 5693  35.056  31.473   4.743
40214W        W 5694  29.967  24.228  12.580
40215W        W 5695   0.757  25.010  10.596
40216W        W 5696   7.777  12.836  10.906
40217W        W 5697   2.937  15.280  12.021
40218W        W 5698   3.732  20.689  12.927
40219W        W 5699  13.729   0.432  14.898
40220W        W 5700  30.117  25.161  14.323
40221W        W 5701  14.160  40.500   4.733
40222W        W 5702   7.902  31.137   2.729
40223W        W 5703   6.377  18.249   2.898
40224W        W 5704  35.016  32.607   4.355
40225W        W 5705  34.553  15.311  12.918
40226W        W 5706  31.421  26.611   3.198
40227W        W 5707  43.499  10.796  10.540
40228W        W 5708  38.479   0.747  11.938
40229W        W 5709  32.110  37.951   3.663
40230W        W 5710  22.582  38.960  14.487
40231W        W 5711  33.082  44.275   2.732
40232W        W 5712  20.176   0.874  13.949
40233W        W 5713  30.523   0.310   4.800
40234W        W 5714  30.523  30.626   4.266
40235W        W 5715  19.680  18.261   4.187
40236W        W 5716  30.612  22.708   1.450
40237W        W 5717  30.050   8.815  12.835
40238W        W 5718   1.259  11.334   4.725
40239W        W 5719  12.232  12.160   2.868
40240W        W 5720  24.127  26.578   0.430
40241W        W 5721  38.871   8.790  14.870
40242W        W 5722  40.927   5.309   2.833
40243W        W 5723  42.463  12.693   2.824
40244W        W 5724   2.729  40.978  14.361
40245W        W 5725  21.052  10.264   1.247
40246W        W 5726  15.731   5.252  12.375
40247W        W 5727  14.668   9.784   4.122
40248W        W 5728  28.020  17.067   5.120
40249W        W 5729  42.344  18.547   0.273
40250W        W 5730  35.005  43.414   4.740
40251W        W 5731  18.086   7.234   1.282
40252W        W 5732  26.528  18.060   9.987
40253W        W 5733  27.457   6.851   4.706
40254W        W 5734  27.500  28.127   3.362
40255W        W 5735  37.510  13.213  14.903
40256W        W 5736  18.789  42.329  12.473
40257W        W 5737  33.513   9.171   0.326
40258W        W 5738  25.979   7.315   3.798
40259W        W 5739  16.134  39.334  11.046
40260W        W 5740  19.174  32.055   0.841
40261W        W 5741  37.047   4.702   3.657
40262W        W 5742  17.269  27.634  11.104
40263W        W 5743  23.117  20.064   1.864
40264W        W 5744  25.484   8.252   0.382
40265W        W 5745  39.548  28.474  12.378
40266W        W 5746  16.692  38.872   4.753
40267W        W 5747  30.538   4.908  11.123
40268W        W 5748  22.204  29.501   1.756
40269W        W 5749   0.973  34.081   0.903
40270W        W 5750  13.681  36.587  10.472
40271W        W 5751   0.822  35.927  14.014
40272W        W 5752   6.266  16.143   3.756
40273W        W 5753  36.463   2.765  12.489
40274W        W 5754  27.551  20.268   0.393
40275W        W 5755  40.922   8.800  13.056
40276W        W 5756   0.393   5.853   4.253
40277W        W 5757  19.074   8.765  11.906
40278W        W 5758   6.208  44.964   3.322
40279W        W 5759  11.643  39.446   0.940
40280W        W 5760  28.975  27.979   2.725
40281W        W 5761  34.931  15.267   1.379
40282W        W 5762  11.783  13.128  11.054
40283W        W 5763  41.911  28.472  13.367
40284W        W 5764  32.921  23.139  14.293
40285W        W 5765  17.711  32.435  11.542
40286W        W 5766   5.432  18.100  14.421
40287W        W 5767  25.082  26.701  13.361
40288W        W 5768  17.168  19.230   4.600
40289W        W 5769  28.024  24.003  10.529
40290W        W 5770  17.679  20.595   2.217
40291W        W 5771  40.524  22.118   2.311
40292W        W 5772  17.306   2.770   4.199
40293W        W 5773  43.423  26.951   1.308
40294W        W 5774  30.007  37.018  12.905
40295W        W 5775  22.117  40.038   4.620
40296W        W 5776  21.663  25.565  13.928
40297W        W 5777  39.851  20.103  13.024
40298W        W 5778  39.990  27.684   3.229
40299W        W 5779  15.586  28.486  12.867
40300W        W 5780   0.968  41.910   4.699
40301W        W 5781   5.269  11.335   3.203
40302W        W 5782  19.661  23.056   0.784
40303W        W 5783   2.839  26.975  13.423
40304W        W 5784  32.081   0.962   4.754
40305W        W 5785   7.275  20.073   4.799
40306W        W 5786  38.838  27.600  12.575
40307W        W 5787  21.717  17.063  14.819
40308W        W 5788   7.266  28.507  10.497
40309W        W 5789  31.583  23.022   2.182
40310W        W 5790  20.623   5.844  12.913
40311W        W 5791  39.013  15.109   3.175
40312W        W 5792  27.516  36.851   2.806
40313W        W 5793  37.854  19.175  14.836
40314W        W 5794  38.461  26.624   4.670
40315W        W 5795  24.145   5.852   2.248
40316W        W 5796  31.480  42.942  12.543
40317W        W 5797  15.808  12.680  12.824
40318W        W 5798  44.490  25.986   1.274
40319W        W 5799  40.973  39.867   0.825
40320W        W 5800   3.457   4.335   4.348
40321W        W 5801  34.059  40.522  13.507
40322W        W 5802  19.244  21.157  14.889
40323W        W 5803  39.502   4.229  12.546
40324W        W 5804  39.050  29.641   9.990
40325W        W 5805   0.984  25.627   1.810
40326W        W 5806  43.429  42.490  13.860
40327W        W 5807  15.813  20.233  14.904
40328W        W 5808   1.766   2.803  11.105
40329W        W 5809  30.124   2.296   2.803
40330W        W 5810  22.684  30.912   4.201
40331W        W 5811   1.273  16.644   0.858
40332W        W 5812  19.175  40.837   4.815
40333W        W 5813  28.554  16.153  10.581
40334W        W 5814   6.211  30.636  14.816
40335W        W 5815  34.897  44.498  12.836
40336W        W 5816  44.429  36.457   1.758
40337W        W 5817  23.220   8.247   3.232
40338W        W 5818  28.473  24.198   1.877
40339W        W 5819  36.516  26.675   2.680
40340W        W 5820   5.273  22.724  14.813
40341W        W 5821  26.074   7.252  10.452
40342W        W 5822  43.490  10.698  11.952
40343W        W 5823  23.627  22.194   2.669
40344W        W 5824  40.331  36.501   2.251
40345W        W 5825  42.434  15.626  13.542
40346W        W 5826  26.637  31.015   1.832
40347W        W 5827  28.988  30.153  10.512
40348W        W 5828  27.082  18.632  13.001
40349W        W 5829  25.993  12.315   3.636
40350W        W 5830  19.716  43.000   3.373
40351W        W 5831   5.772  12.835  14.953
40352W        W 5832  15.594  10.684   1.910
40353W        W 5833  17.272  20.606   2.664
40354W        W 5834  26.007   3.351   0.388
40355W        W 5835  19.677  25.683   2.321
40356W        W 5836  44.003   5.362   3.862
40357W        W 5837  36.456  26.630   1.360
40358W        W 5838  39.366  31.040   4.676
40359W        W 5839   8.758  18.279  14.005
40360W        W 5840  25.689  38.437  11.017
40361W        W 5841  29.937  17.624  10.509
40362W        W 5842  19.692  12.733   2.225
40363W        W 5843  15.727  41.870  12.516
40364W        W 5844  14.599  44.985  14.408
40365W        W 5845  19.139  10.860   1.282
40366W        W 5846  27.941  42.363   0.305
40367W        W 5847  14.834  35.598   2.336
40368W        W 5848  20.249  32.517  12.396
40369W        W 5849  14.621  40.394   0.450
40370W        W 5850  12.262  27.057  11.936
40371W        W 5851  39.441  40.984  11.520
40372W        W 5852  32.607  16.213  12.992
40373W        W 5853  12.741  34.476  13.972
40374W        W 5854  43.947   8.322   1.794
40375W        W 5855  20.736  20.751  14.769
40376W        W 5856  22.527  34.580   0.754
40377W        W 5857   8.246  32.114  10.608
40378W        W 5858  31.900  37.086   3.178
40379W        W 5859   7.705  44.344   5.096
40380W        W 5860  14.653   5.758  11.606
40381W        W 5861  28.005  43.982  13.800
40382W        W 5862  30.973  15.195  10.996
40383W        W 5863  42.484  16.666   0.851
40384W        W 5864  40.907  27.554  11.481
40385W        W 5865  14.785  27.165  12.541
40386W        W 5866  22.645  33.117   4.603
40387W        W 5867  40.309  16.101   3.366
40388W        W 5868  11.809   6.276   9.923
40389W        W 5869  16.244  12.652   2.702
40390W        W 5870  38.384  16.687  11.477
40391W        W 5871  27.455   2.237  14.347
40392W        W 5872  27.619  33.487   3.759
40393W        W 5873  35.911  23.689   3.172
40394W        W 5874  25.983  22.213  13.326
40395W        W 5875  34.521  12.220   2.762
40396W        W 5876  38.855  36.504  14.903
40397W        W 5877   4.220  38.476  12.569
40398W        W 5878  19.713   8.897  10.930
40399W        W 5879  20.595  10.797  14.503
40400W        W 5880  29.519  29.963  11.562
40401W        W 5881  20.641  11.783  12.371
40402W        W 5882  25.603  44.908   2.370
40403W        W 5883   1.422  32.390  11.508
40404W        W 5884  17.170  21.243   4.700
40405W        W 5885  23.564  35.454  14.957
40406W        W 5886  10.724  26.095   0.325
40407W        W 5887  12.672  30.613  13.406
40408W        W 5888  26.573   0.472   4.172
40409W        W 5889  42.508  36.427   0.910
40410W        W 5890   2.319  38.947   2.389
40411W        W 5891   0.369  24.076  14.294
40412W        W 5892  41.895  29.124   1.906
40413W        W 5893  26.520   9.805   3.802
40414W        W 5894  18.745  40.424   3.148
40415W        W 5895   6.722  31.992   0.332
40416W        W 5896  12.644  10.653  10.506
40417W        W 5897  14.705  39.375  10.932
40418W        W 5898  16.183  26.678  13.907
40419W        W 5899  24.174  29.475   4.135
40420W        W 5900  12.136  15.221  10.919
40421W        W 5901   5.205  35.089   1.422
40422W        W 5902  34.942  12.163   1.393
40423W        W 5903  34.026   6.367  13.847
40424W        W 5904  22.607  26.128  14.021
40425W        W 5905  30.099   5.724  11.446
40426W        W 5906  37.000  20.626   3.794
40427W        W 5907  14.701  42.482   1.764
40428W        W 5908  14.100  35.490   4.171
40429W        W 5909  10.871  42.505   0.892
40430W        W 5910  28.982  13.688   4.773
40431W        W 5911  36.580  24.514   1.336
40432W        W 5912  19.232   3.934  11.451
40433W        W 5913  23.105  17.656   4.215
40434W        W 5914  44.324  30.130   2.887
40435W        W 5915   1.828  32.522  10.422
40436W        W 5916  13.735   8.766   0.772
40437W        W 5917  27.190  38.068  14.891
40438W        W 5918   6.796  12.832  14.431
40439W        W 5919  23.540   4.238  11.521
40440W        W 5920   4.247   7.303  12.035
40441W        W 5921  23.525   2.375  14.848
40442W        W 5922  36.848   0.341  14.877
40443W        W 5923  41.395  40.487   4.214
40444W        W 5924  21.559   1.409   2.856
40445W        W 5925  40.475  18.276  12.000
40446W        W 5926  28.038  16.629   0.727
40447W        W 5927   5.832  12.720   1.796
40448W        W 5928  40.877  36.374  10.607
40449W        W 5929  17.279  42.507  10.953
40450W        W 5930  17.278  11.152  13.461
40451W        W 5931  30.611   8.821  14.393
40452W        W 5932  20.593  20.639   2.237
40453W        W 5933  23.996  14.113   3.691
40454W        W 5934  28.008  28.165   2.833
40455W        W 5935   3.895  21.585  14.899
40456W        W 5936  33.599  15.656   5.199
40457W        W 5937  26.176  24.130   3.668
40458W        W 5938  34.044  35.462  12.497
40459W        W 5939  21.045   6.404  11.017
40460W        W 5940  12.697   2.947  12.830
40461W        W 5941  44.814  30.051   1.919
40462W        W 5942  41.988  17.643   4.306
40463W        W 5943  39.428  36.098   4.750
40464W        W 5944  26.615  18.780   4.777
40465W        W 5945  15.653  25.605   2.334
40466W        W 5946  39.359  38.875   3.163
40467W        W 5947   1.326  17.219   3.269
40468W        W 5948  26.012   5.756  11.930
40469W        W 5949  27.634   2.752   2.405
40470W        W 5950  11.145   6.876  11.101
40471W        W 5951  15.231  37.419  10.901
40472W        W 5952  11.717   8.323   2.810
40473W        W 5953   0.282   0.851   2.401
40474W        W 5954  20.738  21.181   2.277
40475W        W 5955  29.935  40.944   1.890
40476W        W 5956  11.283  13.696  14.466
40477W        W 5957  32.988  35.575   0.373
40478W        W 5958  23.087  39.836   3.167
40479W        W 5959  30.036  42.898  13.430
40480W        W 5960  23.623  13.106  12.900
40481W        W 5961  11.727  42.407   3.684
40482W        W 5962  23.071  10.260  13.519
40483W        W 5963   2.307   9.721  14.024
40484W        W 5964  27.059   7.904   0.791
40485W        W 5965  12.733  22.224  12.921
40486W        W 5966  37.042  43.341   2.240
40487W        W 5967  34.513  37.499   2.268
40488W        W 5968   5.309  17.184  10.620
40489W        W 5969  11.775  30.543   2.196
40490W        W 5970   2.257   0.425  12.510
40491W        W 5971  44.883  17.686   4.263
40492W        W 5972   0.341   5.867  11.904
40493W        W 5973  12.327  22.539   0.261
40494W        W 5974  11.165  42.837   2.344
40495W        W 5975  15.197  15.108   4.652
40496W        W 5976  38.028  21.748   4.194
40497W        W 5977   9.377  25.561  12.348
40498W        W 5978  14.124  21.028   3.744
40499W        W 5979  31.476  36.372   0.360
40500W        W 5980  10.210  16.784  12.866
40501W        W 5981  25.538  27.523   1.378
40502W        W 5982  30.989  44.499   1.422
40503W        W 5983  26.147  32.890   4.184
40504W        W 5984  28.449  38.448   1.928
40505W        W 5985  41.984  20.637  11.876
40506W        W 5986   3.225   7.403  12.823
40507W        W 5987  34.084  15.731  13.019
40508W        W 5988   2.320  25.700  12.940
40509W        W 5989  14.721  27.007  14.904
40510W        W 5990  29.919  25.482  10.457
40511W        W 5991  14.155   0.853  12.442
40512W        W 5992   0.837  44.754   3.833
40513W        W 5993  33.122  21.132  12.883
40514W        W 5994   1.281  19.769   0.809
40515W        W 5995   4.790  31.527  14.282
40516W        W 5996  10.682  30.065   0.338
40517W        W 5997   9.349   3.333   2.261
40518W        W 5998  39.828   3.908   5.191
40519W        W 5999   4.253  32.929   2.714
40520W        W 6000  26.666  15.092   0.477
40521W        W 6001  28.067  17.181  11.014
40522W        W 6002   3.249   3.387   2.759
40523W        W 6003  42.024  26.690  14.803
40524W        W 6004   0.268   2.919   0.259
40525W        W 6005  35.522  28.050  14.462
40526W        W 6006  44.354  43.786   1.274
40527W        W 6007  29.499  11.142   0.366
40528W        W 6008  25.134  23.102  11.496
40529W        W 6009   2.309  15.274  14.021
40530W        W 6010  11.248  27.614   4.235
40531W        W 6011  25.672  44.778  12.014
40532W        W 6012  39.476  16.112  11.861
40533W        W 6013  13.167  16.182   3.736
40534W        W 6014   3.905  30.936  13.344
40535W        W 6015   6.851  43.283   3.348
40536W        W 6016  17.266  11.362  13.869
40537W        W 6017  28.529  16.628  14.434
40538W        W 6018   4.776  35.596   4.631
40539W        W 6019  31.485   1.456  13.812
40540W        W 6020  19.598  43.767   0.268
40541W        W 6021  24.110   5.738  13.327
40542W        W 6022   5.799   4.877   1.799
40543W        W 6023  20.149  26.119  13.450
40544W        W 6024  38.444  10.635   4.343
40545W        W 6025   4.802  43.461  14.963
40546W        W 6026  20.084  40.903  13.825
40547W        W 6027  29.996  19.096  11.013
40548W        W 6028   6.836  39.458  10.489
40549W        W 6029  25.634   0.305  11.109
40550W        W 6030  36.400   1.737  11.383
40551W        W 6031  42.421  35.002  12.477
40552W        W 6032  30.978  43.878   3.695
40553W        W 6033  31.013  39.965  12.056
40554W        W 6034  22.747  36.040  11.411
40555W        W 6035   3.437  31.522   3.278
40556W        W 6036  14.124  25.626  10.452
40557W        W 6037  35.446   7.805  11.123
40558W        W 6038  39.558  21.020   3.651
40559W        W 6039  18.621  44.385   4.213
40560W        W 6040   7.316   7.721  11.488
40561W        W 6041  38.480  31.932  14.876
40562W        W 6042   5.223  21.527   3.175
40563W        W 6043   0.782  19.592  14.348
40564W        W 6044  29.504  26.119  14.507
40565W        W 6045  13.670   6.741   0.950
40566W        W 6046   0.903  20.680  11.051
40567W        W 6047  37.906   6.879  12.343
40568W        W 6048  12.680  37.850   0.951
40569W        W 6049  36.975  26.526   0.469
40570W        W 6050  42.007  21.166   1.357
40571W        W 6051  25.153  30.508  11.419
40572W        W 6052  12.628  24.069   0.302
40573W        W 6053  12.160  24.149   4.816
40574W        W 6054  34.416   4.773  13.870
40575W        W 6055  28.017  41.426   1.755
40576W        W 6056  13.670  35.443   4.689
40577W        W 6057  36.089  26.965  12.542
40578W        W 6058  32.029  33.422  12.361
40579W        W 6059  40.985   2.732   4.836
40580W        W 6060  30.583  25.648   1.315
40581W        W 6061  34.926  41.803  11.894
40582W        W 6062  38.905  31.023  11.439
40583W        W 6063  32.633  27.495  11.114
40584W        W 6064  44.927  11.359  12.993
40585W        W 6065  28.615  17.165   1.697
40586W        W 6066   8.813  10.293   1.368
40587W        W 6067  37.387  34.950   0.392
40588W        W 6068  17.612  26.696   3.375
40589W        W 6069   8.676  42.523   1.364
40590W        W 6070  44.366  30.035  13.383
40591W        W 6071  30.583   2.849  14.453
40592W        W 6072  12.665  34.068   4.833
40593W        W 6073  42.799   2.911   0.870
40594W        W 6074  28.494  42.991  14.404
40595W        W 6075  33.968  27.499   4.759
40596W        W 6076   6.243  39.963   9.981
40597W        W 6077  43.997  21.135  12.095
40598W        W 6078  12.814  35.944   2.670
40599W        W 6079  19.611  43.345  12.038
40600W        W 6080  40.426  24.527  14.424
40601W        W 6081  32.416  22.722  12.022
40602W        W 6082  29.124  23.576   3.308
40603W        W 6083  36.488  33.535  14.827
40604W        W 6084  24.196   2.253  11.047
40605W        W 6085  37.573  27.111  12.443
40606W        W 6086  29.599  15.726   4.795
40607W        W 6087  40.970  40.427   3.266
40608W        W 6088  18.594  24.147   2.743
40609W        W 6089   8.320  23.688  10.548
40610W        W 6090   6.426  12.206  14.947
40611W        W 6091  12.120  22.529   0.834
40612W        W 6092   0.269  12.157  11.386
40613W        W 6093  20.584  23.705   4.190
40614W        W 6094  13.191   0.493   0.254
40615W        W 6095  11.170   4.913  10.010
40616W        W 6096  12.659  13.171  10.639
40617W        W 6097  41.970  21.058  14.384
40618W        W 6098  40.454  22.677  14.841
40619W        W 6099  12.335  44.974   3.283
40620W        W 6100   3.784  41.337  14.838
40621W        W 6101  38.049  24.038  12.986
40622W        W 6102  38.415  43.484  14.358
40623W        W 6103  35.442   9.797  12.413
40624W        W 6104  16.074  44.448   2.902
40625W        W 6105   2.803   1.241   2.815
40626W        W 6106  44.934  17.176   4.186
40627W        W 6107  21.537  35.572  13.375
40628W        W 6108  21.208  16.752   3.340
40629W        W 6109  37.987  19.229   2.248
40630W        W 6110  22.535  43.362   9.495
40631W        W 6111   3.446  32.128   4.133
40632W        W 6112   7.780   2.428   0.323
40633W        W 6113   3.788  10.176   1.364
40634W        W 6114   2.385  31.492   1.715
40635W        W 6115  25.038  40.494   5.142
40636W        W 6116  29.939   4.755   2.723
40637W        W 6117  42.855  26.691   3.206
40638W        W 6118  21.182   7.800  14.843
40639W        W 6119   7.346  34.559  12.524
40640W        W 6120  36.905  41.364   1.350
40641W        W 6121  37.471  28.631  13.948
40642W        W 6122  14.768  39.540   1.338
40643W        W 6123   1.401  17.258  11.406
40644W        W 6124  42.836  38.039  13.894
40645W        W 6125  14.311   6.840   0.374
40646W        W 6126  24.978   4.806   2.680
40647W        W 6127  20.091  25.064   1.892
40648W        W 6128  35.883  25.534   2.856
40649W        W 6129  10.861  21.195  13.015
40650W        W 6130  18.143  26.462  10.891
40651W        W 6131  25.137  33.086  13.491
40652W        W 6132  44.269  20.141  14.397
40653W        W 6133  39.900  14.256  14.373
40654W        W 6134   4.873  24.043  14.448
40655W        W 6135  40.824   1.754  11.012
40656W        W 6136  14.185  35.890  10.617
40657W        W 6137  13.120  27.471   4.719
40658W        W 6138  40.462  29.169  11.939
40659W        W 6139  32.456  42.525   3.659
40660W        W 6140  14.724   4.291  11.038
40661W        W 6141  26.056  12.348   2.404
40662W        W 6142  32.921   0.260  13.844
40663W        W 6143  23.027  10.351   0.900
40664W        W 6144  33.448  41.360   3.868
40665W        W 6145  28.158  39.980  14.911
40666W        W 6146   0.846  15.194   4.125
40667W        W 6147  43.772  10.245  13.340
40668W        W 6148  17.556  15.215  13.408
40669W        W 6149  34.908  32.632   2.855
40670W        W 6150  18.559  30.449  10.600
40671W        W 6151  23.021  25.092  14.869
40672W        W 6152  26.175  36.405  12.525
40673W        W 6153  41.520   9.847  14.823
40674W        W 6154  16.229  23.576   2.684
40675W        W 6155  28.672  25.029   4.283
40676W        W 6156   2.864   6.716   1.353
40677W        W 6157  24.080  31.985  13.905
40678W        W 6158  16.101   3.299   0.952
40679W        W 6159   5.228  23.105   1.796
40680W        W 6160  30.518  24.070   3.770
40681W        W 6161  31.925  20.526   2.204
40682W        W 6162   0.810  37.401  14.955
40683W        W 6163  42.008  33.392   4.820
40684W        W 6164   2.422  27.571   1.792
40685W        W 6165  44.322  15.665   4.649
40686W        W 6166  38.066  31.038  14.900
40687W        W 6167   4.321  39.494   3.185
40688W        W 6168   7.335  17.579  10.518
40689W        W 6169  30.997  27.940   9.954
40690W        W 6170  30.582  27.102   2.232
40691W        W 6171  19.674  26.576   0.442
40692W        W 6172  25.141  24.660   0.455
40693W        W 6173  13.129   1.932   4.712
40694W        W 6174   0.451  11.702   2.891
40695W        W 6175  38.883  12.655  14.880
40696W        W 6176  42.989  14.282  13.336
40697W        W 6177  18.789   9.242   3.161
40698W        W 6178   5.411  35.982   3.232
40699W        W 6179   2.240  11.145   4.314
40700W        W 6180  26.967   6.830  14.404
40701W        W 6181  24.674  25.994  11.382
40702W        W 6182  28.984  16.782   3.775
40703W        W 6183  42.399   7.797   0.410
40704W        W 6184  17.674  14.327   1.891
40705W        W 6185  34.583  40.361  13.427
40706W        W 6186  10.823  36.518   4.340
40707W        W 6187  21.156  11.826   5.198
40708W        W 6188  32.997  12.136  12.408
40709W        W 6189  19.160  22.243   1.852
40710W        W 6190  25.991   0.463  11.984
40711W        W 6191  36.393  43.921  14.012
40712W        W 6192  16.181   8.805  14.368
40713W        W 6193  28.159   6.305   2.898
40714W        W 6194  14.301  34.613   3.242
40715W        W 6195  38.504  36.354   4.167
40716W        W 6196   4.253  21.254  10.566
40717W        W 6197  40.929  39.499   1.214
40718W        W 6198   9.709  10.697   4.319
40719W        W 6199   8.848  39.318   0.378
40720W        W 6200  36.446  34.945   1.695
40721W        W 6201  13.133   1.849  11.588
40722W        W 6202   0.915   7.404  13.398
40723W        W 6203  44.000  37.039   2.845
40724W        W 6204  38.842  32.116  13.862
40725W        W 6205  12.715  41.303   0.828
40726W        W 6206  37.357  30.098  14.901
40727W        W 6207   8.227  43.511  10.512
40728W        W 6208  36.370  40.426  12.864
40729W        W 6209   2.447  22.046  13.902
40730W        W 6210  27.561  33.887   0.288
40731W        W 6211   9.210   7.770  10.419
40732W        W 6212   5.386  19.131   3.222
40733W        W 6213  30.465   9.869  12.908
40734W        W 6214  17.628  17.129   1.772
40735W        W 6215  22.060  27.045  14.938
40736W        W 6216  10.639  38.011   2.734
40737W        W 6217  30.567  37.452  11.511
40738W        W 6218  14.200  28.005  10.638
40739W        W 6219   5.268  34.923  11.538
40740W        W 6220  20.618  30.656   1.737
40741W        W 6221  37.558  28.482  12.532
40742W        W 6222   7.874  30.447  12.020
40743W        W 6223  24.018  13.673  10.425
40744W        W 6224  20.032  16.786  11.401
40745W        W 6225   9.253   8.197   4.710
40746W        W 6226  28.681  22.538  11.941
40747W        W 6227   3.387  22.671  13.974
40748W        W 6228  41.892  19.062  14.329
40749W        W 6229  29.977  44.890  10.909
40750W        W 6230  21.687  19.743   3.820
40751W        W 6231  17.071   0.808  14.988
40752W        W 6232  41.911  21.187   1.756
40753W        W 6233  16.667   5.850   1.907
40754W        W 6234   7.260  17.191   3.678
40755W        W 6235  12.764  26.177  11.066
40756W        W 6236  40.409  19.714  12.833
40757W        W 6237  14.646  36.438   2.189
40758W        W 6238  37.474  36.092   3.180
40759W        W 6239  39.818  30.557  14.437
40760W        W 6240  25.012  32.909   4.650
40761W        W 6241  36.573  44.885   3.170
40762W        W 6242  27.053  32.131  10.893
40763W        W 6243  29.604  18.243  14.766
40764W        W 6244  33.422   1.804  11.449
40765W        W 6245   7.839  38.968  10.052
40766W        W 6246  38.469  26.584   1.346
40767W        W 6247  16.164  19.697  13.975
40768W        W 6248  40.433  44.957  14.490
40769W        W 6249  31.624   9.301  11.972
40770W        W 6250  14.811  12.144   5.247
40771W        W 6251  16.107  17.632   2.312
40772W        W 6252  18.224  43.284  13.413
40773W        W 6253   4.912  27.971  12.829
40774W        W 6254  37.444  35.580  10.548
40775W        W 6255  36.498  34.915   3.708
40776W        W 6256  16.285  33.381  11.878
40777W        W 6257   1.841  30.545  13.402
40778W        W 6258  30.487  19.148  11.549
40779W        W 6259  28.118   0.759   0.444
40780W        W 6260  30.446  18.225   1.451
40781W        W 6261   0.915   3.350   4.205
40782W        W 6262  35.429  24.029   4.697
40783W        W 6263   1.353  38.567   3.755
40784W        W 6264  35.881   5.268   0.786
40785W        W 6265   5.277  42.464  13.336
40786W        W 6266  31.646  24.515   2.254
40787W        W 6267  39.405  15.135   1.704
40788W        W 6268  42.798  22.606   3.729
40789W        W 6269   0.409  41.338   1.829
40790W        W 6270   6.346  10.362  12.009
40791W        W 6271   9.235  30.087  11.888
40792W        W 6272  41.967  36.855  14.013
40793W        W 6273   6.817  19.561   1.866
40794W        W 6274  12.670  34.562   1.883
40795W        W 6275   3.925   8.370   1.740
40796W        W 6276  25.677  25.678  13.920
40797W        W 6277  37.389  32.966  14.462
40798W        W 6278  18.102  12.129   4.722
40799W        W 6279   5.193   9.389  11.990
40800W        W 6280  35.033  23.596  13.862
40801W        W 6281  22.099  30.448   4.200
40802W        W 6282  17.064  25.475  13.392
40803W        W 6283  27.666  41.922   5.246
40804W        W 6284  38.434  27.515  12.994
40805W        W 6285  32.992  17.588  13.516
40806W        W 6286  33.587  21.575  14.955
40807W        W 6287  16.247  30.139  13.057
40808W        W 6288  35.969  31.114   0.264
40809W        W 6289  40.893  44.827   0.954
40810W        W 6290  33.471  34.092  12.430
40811W        W 6291  38.011  43.913  12.545
40812W        W 6292   4.212  19.132  11.953
40813W        W 6293  44.813  16.705  11.563
40814W        W 6294  14.811   0.873  12.004
40815W        W 6295  10.268   2.445  14.855
40816W        W 6296   6.697  33.087  14.949
40817W        W 6297  43.376  18.105   4.676
40818W        W 6298  38.064  21.176   4.135
40819W        W 6299  19.720  41.901  14.360
40820W        W 6300  34.450  12.761   0.937
40821W        W 6301  11.128  19.051  10.906
40822W        W 6302  20.560   9.295  14.888
40823W        W 6303  36.479  18.737  12.502
40824W        W 6304   3.217  28.531   0.478
40825W        W 6305  43.492   9.271   1.807
40826W        W 6306  15.809  16.737  10.994
40827W        W 6307   7.756  27.182   4.273
40828W        W 6308  15.587  44.364  14.325
40829W        W 6309  18.228  25.182  13.031
40830W        W 6310  20.269  25.156  13.002
40831W        W 6311   6.251  33.921   1.321
40832W        W 6312  34.049  32.427  12.523
40833W        W 6313  43.441  14.291  12.395
40834W        W 6314   7.864  26.198   4.223
40835W        W 6315  34.054  43.503   0.743
40836W        W 6316  29.154  22.137  14.839
40837W        W 6317  26.610  41.475  10.471
40838W        W 6318  23.193   9.759  14.375
40839W        W 6319  28.133   7.389  11.868
40840W        W 6320   9.681  37.459   1.925
40841W        W 6321   7.856  19.774  13.353
40842W        W 6322  14.635  25.687   3.660
40843W        W 6323  20.160   4.844  10.545
40844W        W 6324  26.083  43.932  12.415
40845W        W 6325  25.101   6.708  14.943
40846W        W 6326  11.218  41.888   4.634
40847W        W 6327   4.748  12.784  14.422
40848W        W 6328  24.145  16.590  10.575
40849W        W 6329  11.155   0.985  13.509
40850W        W 6330  40.405  17.600   2.322
40851W        W 6331  43.793  23.999   2.401
40852W        W 6332  32.423  43.774  10.897
40853W        W 6333  44.918  38.989   0.353
40854W        W 6334  23.661  38.978   0.744
40855W        W 6335  10.866  44.970  13.055
40856W        W 6336  33.417  44.971  13.433
40857W        W 6337  15.662  10.322   5.197
40858W        W 6338  23.018   6.356   1.255
40859W        W 6339  12.670   0.852   4.257
40860W        W 6340  37.426  34.510   9.985
40861W        W 6341   6.822  44.462  11.423
40862W        W 6342  10.812  28.115   4.300
40863W        W 6343   6.866   2.464   0.820
40864W        W 6344  14.662  14.299  12.397
40865W        W 6345   9.763  36.555   4.678
40866W        W 6346   9.650   1.895   3.295
40867W        W 6347   5.298   7.808  11.857
40868W        W 6348  22.640  16.229   3.339
40869W        W 6349   2.799   5.900  11.374
40870W        W 6350  22.163  35.947   0.778
40871W        W 6351  33.451  26.987   4.663
40872W        W 6352  25.488  33.024   2.230
40873W        W 6353  32.482  29.612   2.280
40874W        W 6354  17.734  39.485  14.441
40875W        W 6355  22.212  22.047  13.902
40876W        W 6356  10.727  35.530   1.789
40877W        W 6357  20.179  40.515   3.774
40878W        W 6358  20.679  43.426  13.434
40879W        W 6359  35.442   4.813  14.792
40880W        W 6360   6.362  20.703   1.729
40881W        W 6361  34.536  38.462   1.221
40882W        W 6362  37.906  36.052   0.475
40883W        W 6363  24.023  12.337  13.926
40884W        W 6364  30.461  39.041  10.930
40885W        W 6365  25.495  11.818  12.067
40886W        W 6366  28.083  31.022  11.563
40887W        W 6367  32.047   3.789   2.179
40888W        W 6368  17.566  15.315   1.448
40889W        W 6369  37.399   0.320   0.867
40890W        W 6370  27.024  10.832  11.857
40891W        W 6371  14.302  29.930   0.828
40892W        W 6372  37.442  22.508  11.899
40893W        W 6373   1.824  16.705   2.299
40894W        W 6374  25.174  40.981   3.216
40895W        W 6375  37.884  30.090   0.764
40896W        W 6376  38.355   6.245   1.795
40897W        W 6377  26.132  44.833  14.461
40898W        W 6378  44.435   7.396   2.683
40899W        W 6379  40.961  32.473   0.349
40900W        W 6380  37.900   6.915  10.582
40901W        W 6381  14.255  29.176  14.837
40902W        W 6382  43.765  27.013   2.356
40903W        W 6383  26.522  23.199  12.849
40904W        W 6384  39.508  35.939  14.935
40905W        W 6385  15.809  20.729   0.397
40906W        W 6386  25.512  33.017   2.694
40907W        W 6387  43.915   3.725  11.978
40908W        W 6388  32.912  16.146  14.514
40909W        W 6389  13.778  36.086  14.013
40910W        W 6390  43.832  12.749   1.229
40911W        W 6391   7.858  26.614   2.342
40912W        W 6392  38.369  16.809   4.290
40913W        W 6393   1.753  18.660  10.424
40914W        W 6394   4.309  31.434  10.942
40915W        W 6395  10.681  44.419  10.632
40916W        W 6396  35.424  17.110   3.779
40917W        W 6397  10.769  10.691  13.813
40918W        W 6398   9.692  36.506  11.919
40919W        W 6399  17.250  22.562   5.284
40920W        W 6400  24.187  38.053  12.448
40921W        W 6401  33.027  21.229  10.418
40922W        W 6402  10.657   2.848  11.894
40923W        W 6403  41.003   7.201  14.346
40924W        W 6404   7.855  42.502  13.006
40925W        W 6405  14.778   6.850   1.365
40926W        W 6406  15.590  42.339   3.788
40927W        W 6407  16.254   7.896   2.734
40928W        W 6408  38.496  39.876  14.863
40929W        W 6409  36.926  25.660   4.198
40930W        W 6410  13.695  41.013  12.398
40931W        W 6411  15.772  19.701  12.548
40932W        W 6412  35.535  17.184  12.880
40933W        W 6413  18.701  14.203  10.038
40934W        W 6414  29.506  13.755   4.171
40935W        W 6415  42.867  34.541   1.327
40936W        W 6416  26.570  20.728   3.241
40937W        W 6417  18.113  43.500  12.928
40938W        W 6418  22.079  23.089  12.895
40939W        W 6419  11.352  37.937  11.432
40940W        W 6420  40.415  13.258  12.482
40941W        W 6421  21.533  23.088   3.150
40942W        W 6422  34.377  17.293   4.816
40943W        W 6423  26.136  25.584   3.326
40944W        W 6424  27.133  29.519   2.663
40945W        W 6425  10.774  16.758  14.791
40946W        W 6426  42.381  28.991  12.465
40947W        W 6427  29.474  15.762   1.345
40948W        W 6428  10.244  40.382  13.883
40949W        W 6429  36.851  43.870   4.680
40950W        W 6430   3.904  35.096  12.039
40951W        W 6431  44.879  30.621  11.017
40952W        W 6432   1.837  37.889  11.535
40953W        W 6433  42.322   8.203   3.288
40954W        W 6434  42.992   9.782  13.367
40955W        W 6435   6.402  15.280  13.362
40956W        W 6436   0.867  35.862   0.362
40957W        W 6437  12.833  31.581  13.420
40958W        W 6438   7.709  34.046  14.030
40959W        W 6439  15.138  39.847  12.509
40960W        W 6440  43.294   2.429   1.818
40961W        W 6441   1.461  13.735  12.080
40962W        W 6442   3.774  29.929  14.999
40963W        W 6443  12.133   2.761   0.270
40964W        W 6444  24.528  20.171  12.495
40965W        W 6445  44.376  29.097   0.368
40966W        W 6446  44.964  44.341   0.767
40967W        W 6447  32.636  33.895   0.251
40968W        W 6448  44.927  33.007  11.052
40969W        W 6449  18.279  11.349  13.903
40970W        W 6450   3.751   4.867   4.277
40971W        W 6451  16.152  17.284  14.810
40972W        W 6452  14.152  30.511   4.193
40973W        W 6453  42.859  10.793  12.043
40974W        W 6454  37.517  28.512   2.257
40975W        W 6455   8.393  13.249  12.390
40976W        W 6456   9.223   7.339   2.745
40977W        W 6457  32.090  23.533   4.252
40978W        W 6458   2.809  15.624  11.420
40979W        W 6459  30.050   8.707  10.583
40980W        W 6460  44.477  18.106  14.787
40981W        W 6461   3.913   5.329  12.998
40982W        W 6462   3.382  20.202   2.869
40983W        W 6463  11.247  28.578  10.489
40984W        W 6464  41.304   3.846   1.332
40985W        W 6465  44.277  42.365  13.405
40986W        W 6466   2.903   3.763   3.673
40987W        W 6467  15.229  43.318   3.738
40988W        W 6468  18.658  26.633   4.787
40989W        W 6469   3.305  33.883   1.719
40990W        W 6470  42.509  42.841  14.351
40991W        W 6471  34.960  12.254   0.846
40992W        W 6472  14.605  10.195   4.152
40993W        W 6473  34.882  37.081   2.418
40994W        W 6474   7.684  33.947  14.453
40995W        W 6475  23.707  17.770  12.555
40996W        W 6476  30.018  41.509   4.715
40997W        W 6477  15.626  11.625  14.957
40998W        W 6478  16.725   2.466   4.292
40999W        W 6479  19.248  10.379   3.300
41000W        W 6480  21.091  32.101   4.115
41001W        W 6481  19.284  17.100   4.308
41002W        W 6482  18.223  24.100  11.455
41003W        W 6483  44.984  36.018   1.781
41004W        W 6484  39.022  35.516  10.924
41005W        W 6485  37.349  11.832  11.484
41006W        W 6486  31.003  36.850   4.257
41007W        W 6487  39.982   9.276  12.831
41008W        W 6488   0.786  34.581  11.605
41009W        W 6489  35.599  19.722   3.211
41010W        W 6490  19.281  12.350   1.883
41011W        W 6491  36.864  16.643   1.412
41012W        W 6492  43.321  25.590   3.257
41013W        W 6493  12.244   1.783  11.889
41014W        W 6494  37.532  25.022   3.689
41015W        W 6495  35.012  21.134   0.444
41016W        W 6496  23.627  20.602  14.957
41017W        W 6497   9.317  21.758  11.969
41018W        W 6498  35.096  23.624   1.394
41019W        W 6499  41.522  15.608  12.005
41020W        W 6500  29.521   8.338   0.452
41021W        W 6501  23.511  19.642  12.882
41022W        W 6502  29.511  34.117   1.759
41023W        W 6503  35.477   1.925  13.484
41024W        W 6504   7.233  37.418   0.789
41025W        W 6505  38.518  27.535  13.975
41026W        W 6506  42.001  32.571  12.529
41027W        W 6507   2.827  44.010   4.696
41028W        W 6508   7.689   4.836   0.313
41029W        W 6509  27.563  43.927  11.427
41030W        W 6510  18.588   4.446   2.787
41031W        W 6511  39.921   4.768   1.295
41032W        W 6512  20.175  13.606  12.547
41033W        W 6513  19.228  23.115  13.390
41034W        W 6514  41.019   8.392   0.747
41035W        W 6515  24.508   2.383   0.888
41036W        W 6516  11.184  38.450   4.175
41037W        W 6517  35.987  28.555   1.251
41038W        W 6518  23.683  32.003  14.508
41039W        W 6519   4.442  40.857   1.846
41040W        W 6520   7.358  36.027   4.771
41041W        W 6521  15.754  41.981  13.324
41042W        W 6522  25.532  43.788   2.198
41043W        W 6523  29.149  24.227  14.014
41044W        W 6524  12.177  44.915   2.237
41045W        W 6525  18.266   9.188   0.463
41046W        W 6526  43.953  22.644  10.907
41047W        W 6527  11.233  43.943   0.318
41048W        W 6528   2.924   1.769  14.335
41049W        W 6529  26.501  39.892   4.185
41050W        W 6530  14.717  21.237  10.895
41051W        W 6531  33.077  42.986  12.412
41052W        W 6532  17.709  36.492  14.997
41053W        W 6533  41.353  42.965  13.991
41054W        W 6534  22.251   6.721  13.985
41055W        W 6535  38.380  43.388   0.766
41056W        W 6536   9.174  39.396  11.391
41057W        W 6537  28.186  30.479   1.807
41058W        W 6538  41.007  20.677   5.749
41059W        W 6539   1.842  17.196  13.540
41060W        W 6540  34.501  30.955  14.382
41061W        W 6541  19.147  28.062   0.463
41062W        W 6542  26.480   7.704  11.458
41063W        W 6543  13.754  24.141  14.941
41064W        W 6544   8.397  30.062  11.882
41065W        W 6545  37.509   2.472  10.426
41066W        W 6546   1.807  34.992  14.007
41067W        W 6547   3.288   0.763  11.556
41068W        W 6548  20.170  41.430  13.523
41069W        W 6549  43.513   0.969  10.902
41070W        W 6550   2.386  22.711  11.395
41071W        W 6551   9.849  32.605  14.008
41072W        W 6552  42.797   4.358   1.912
41073W        W 6553  12.256  22.546  10.905
41074W        W 6554   8.792   7.681   0.427
41075W        W 6555  13.315  26.553  11.115
41076W        W 6556  44.879  43.779   0.937
41077W        W 6557  15.274   9.196   3.344
41078W        W 6558  10.263   1.917  11.605
41079W        W 6559  25.568   8.813  12.823
41080W        W 6560   3.359   6.301  12.853
41081W        W 6561  13.220  18.177   4.244
41082W        W 6562  23.040  22.209  11.019
41083W        W 6563  32.608  16.691   4.802
41084W        W 6564  10.654  15.235  14.915
41085W        W 6565  24.636  14.163  10.888
41086W        W 6566  16.812  33.117   2.887
41087W        W 6567  25.542   7.786   1.811
41088W        W 6568  38.521  38.381   0.758
41089W        W 6569   0.350   0.490  12.345
41090W        W 6570  18.570  13.736   3.263
41091W        W 6571  19.747   7.727  13.007
41092W        W 6572  43.924  44.907  10.454
41093W        W 6573  41.420  36.043   1.298
41094W        W 6574  27.059  26.461   4.190
41095W        W 6575  19.193  38.330   2.702
41096W        W 6576  14.591  33.585   1.934
41097W        W 6577  35.067  32.096   4.603
41098W        W 6578  23.232  35.974  11.034
41099W        W 6579  29.477  42.848   2.901
41100W        W 6580  31.988  40.809   2.416
41101W        W 6581  13.622  27.555  11.124
41102W        W 6582  34.914  19.181  10.891
41103W        W 6583  38.389  12.184  14.993
41104W        W 6584   2.833   4.237   0.291
41105W        W 6585  12.802  36.548  13.440
41106W        W 6586  35.914  14.598   3.634
41107W        W 6587  29.985  29.446  10.577
41108W        W 6588  42.973  27.659   2.826
41109W        W 6589  10.848   6.882  14.342
41110W        W 6590   5.375  39.039  13.008
41111W        W 6591   6.906  35.391   4.774
41112W        W 6592  12.198  37.345  14.452
41113W        W 6593  24.219  13.845  11.925
41114W        W 6594  12.617  41.378   2.345
41115W        W 6595   4.757  27.659   4.240
41116W        W 6596  22.157   1.373  12.056
41117W        W 6597  41.335  25.522  11.427
41118W        W 6598  43.019   7.292   2.863
41119W        W 6599  17.656   7.900   1.727
41120W        W 6600   3.269   5.430  14.283
41121W        W 6601  42.351  30.158   2.787
41122W        W 6602  12.755  13.787  13.836
41123W        W 6603   2.738  28.023  11.511
41124W        W 6604  24.584  21.701   0.885
41125W        W 6605   0.436  35.600  12.402
41126W        W 6606  36.051  32.597   1.326
41127W        W 6607  33.968   5.297  13.345
41128W        W 6608  17.110  10.770   0.827
41129W        W 6609  28.051   9.769   3.151
41130W        W 6610  18.141   7.229   1.919
41131W        W 6611  35.376  38.517   2.361
41132W        W 6612  10.636  39.339  14.961
41133W        W 6613  42.824  14.605  13.371
41134W        W 6614  20.210  38.543   0.278
41135W        W 6615   5.753  17.596   3.166
41136W        W 6616  40.410  31.417   2.187
41137W        W 6617  28.521  29.595   2.666
41138W        W 6618   9.815  16.099   3.803
41139W        W 6619  39.849   0.903   0.796
41140W        W 6620  27.051   7.676   1.379
41141W        W 6621   1.336   5.708  14.847
41142W        W 6622  41.881  39.413  10.618
41143W        W 6623  20.761  32.923  10.909
41144W        W 6624  11.841  14.233   4.792
41145W        W 6625  23.588  26.562  14.032
41146W        W 6626  40.473  25.070  12.513
41147W        W 6627  39.951   1.400  13.924
41148W        W 6628  19.049  33.492   2.190
41149W        W 6629  26.597   8.192  11.876
41150W        W 6630  41.024  38.405  14.923
41151W        W 6631  38.356  20.178  14.458
41152W        W 6632  32.492  25.527   4.233
41153W        W 6633  37.035  33.117   0.391
41154W        W 6634   3.315  22.651  12.833
41155W        W 6635   5.929   6.771  14.405
41156W        W 6636  31.072  11.626   2.684
41157W        W 6637  24.990  20.592  13.855
41158W        W 6638  30.125   2.397   3.217
41159W        W 6639  26.690  13.270   1.301
41160W        W 6640  24.036  31.470  13.792
41161W        W 6641   4.350  17.641  12.022
41162W        W 6642  37.845   5.310  12.045
41163W        W 6643  20.129  39.970   1.398
41164W        W 6644  44.916  19.188  10.953
41165W        W 6645  40.916  43.501  14.952
41166W        W 6646   4.225  25.646  14.762
41167W        W 6647  10.377   0.982   4.283
41168W        W 6648  10.831  25.052  14.027
41169W        W 6649  19.071  20.633   1.719
41170W        W 6650  21.116  29.515  13.869
41171W        W 6651  23.635  22.036   0.842
41172W        W 6652  30.572  11.693   4.700
41173W        W 6653  33.437  24.631   4.143
41174W        W 6654  33.473   6.193   2.680
41175W        W 6655  30.050  20.043   2.687
41176W        W 6656   6.362  11.848  11.457
41177W        W 6657  39.853  36.055  11.951
41178W        W 6658  33.397  19.624   3.198
41179W        W 6659   5.308  36.897  14.845
41180W        W 6660  13.335  42.527   1.342
41181W        W 6661   4.873  15.290   2.734
41182W        W 6662  27.505   8.853  10.543
41183W        W 6663  44.799  32.547  14.380
41184W        W 6664  41.020   8.226   0.482
41185W        W 6665   5.393  12.216   0.754
41186W        W 6666  37.872  31.978   2.398
41187W        W 6667  26.955  39.495  14.395
41188W        W 6668   8.744  13.123  11.041
41189W        W 6669   9.156   9.647   4.222
41190W        W 6670  37.388  37.351   2.185
41191W        W 6671   1.939  36.563   1.780
41192W        W 6672  13.842  34.980  10.925
41193W        W 6673  41.366  40.972  11.581
41194W        W 6674  35.543  25.559   0.909
41195W        W 6675  14.725  21.636  12.050
41196W        W 6676   5.312  31.072  11.883
41197W        W 6677   5.771  16.220  12.071
41198W        W 6678  43.468   8.188  10.445
41199W        W 6679  39.001   3.807   3.775
41200W        W 6680  40.423   7.186  12.987
41201W        W 6681  10.144   7.215  14.461
41202W        W 6682   3.298  24.126   0.934
41203W        W 6683  43.819  37.457  14.984
41204W        W 6684  10.335  34.093   4.707
41205W        W 6685   0.795   6.403   2.239
41206W        W 6686   1.240  32.989   3.765
41207W        W 6687   0.450  19.728   2.764
41208W        W 6688  11.709   8.756  11.925
41209W        W 6689  29.975  39.352   3.199
41210W        W 6690  19.730  42.002   3.253
41211W        W 6691  28.002  28.464   1.872
41212W        W 6692  27.591   6.681   0.405
41213W        W 6693   7.210  16.730  12.449
41214W        W 6694  42.503  39.488   3.223
41215W        W 6695  27.951  19.263   4.129
41216W        W 6696   2.265  40.504  12.072
41217W        W 6697   3.448  32.940   5.576
41218W        W 6698  14.218  41.875   2.690
41219W        W 6699   5.336  12.857   4.324
41220W        W 6700  35.063   4.238   1.290
41221W        W 6701   6.202  31.140  13.822
41222W        W 6702  14.274  40.383   2.741
41223W        W 6703  22.596  23.548   0.758
41224W        W 6704  44.787  24.131   2.731
41225W        W 6705   5.848  36.537   2.328
41226W        W 6706  27.520  16.657  13.055
41227W        W 6707   0.797  15.282   3.252
41228W        W 6708  40.381  28.547   3.698
41229W        W 6709  33.098  20.100  11.502
41230W        W 6710  42.823  35.043  10.599
41231W        W 6711  17.235  40.366  11.086
41232W        W 6712  32.917   6.269   2.711
41233W        W 6713  22.696  30.941   1.808
41234W        W 6714  31.130  17.134  14.385
41235W        W 6715  12.311  41.976   0.857
41236W        W 6716   2.422  16.670   3.847
41237W        W 6717  21.213  40.415   1.322
41238W        W 6718   5.888   3.358   4.681
41239W        W 6719  33.510  14.664   1.838
41240W        W 6720  37.028  42.780   5.090
41241W        W 6721  12.125  43.488  13.960
41242W        W 6722   2.378  44.976  12.564
41243W        W 6723  24.198  19.622   3.220
41244W        W 6724  19.627  30.109   4.632
41245W        W 6725  42.341   5.866   5.746
41246W        W 6726   5.248  15.220   1.317
41247W        W 6727  33.586   7.363  12.545
41248W        W 6728  24.228  36.533   3.314
41249W        W 6729  44.302   5.689   2.873
41250W        W 6730  21.579  41.963  13.330
41251W        W 6731  39.401  10.791   1.354
41252W        W 6732  33.935  16.099  13.428
41253W        W 6733  29.028  26.024  13.341
41254W        W 6734  11.169  30.557   4.659
41255W        W 6735  20.683  36.073  12.379
41256W        W 6736  31.620   3.215  11.513
41257W        W 6737  35.912  42.013   1.701
41258W        W 6738  35.903  29.020   1.782
41259W        W 6739  36.053  25.018   2.767
41260W        W 6740   3.898  33.955   1.390
41261W        W 6741  40.450  29.608   4.311
41262W        W 6742  29.107  32.900   2.779
41263W        W 6743  32.562   1.769  12.926
41264W        W 6744   8.860   6.706  13.837
41265W        W 6745  21.517  34.017   3.261
41266W        W 6746  18.225  44.891   0.872
41267W        W 6747  16.315   8.248   2.304
41268W        W 6748  31.533   8.319  14.374
41269W        W 6749  22.607   6.312  12.498
41270W        W 6750  16.765  43.415   2.328
41271W        W 6751  14.707   1.480   1.732
41272W        W 6752  10.860  12.313  10.483
41273W        W 6753  31.923  37.873  13.316
41274W        W 6754  16.123   6.703  12.075
41275W        W 6755  33.031  29.438   4.148
41276W        W 6756  14.294  13.651   2.872
41277W        W 6757  43.954  37.992  13.899
41278W        W 6758  13.607  24.155   4.637
41279W        W 6759   3.783   2.886  13.547
41280W        W 6760  41.946   5.272   0.908
41281W        W 6761  29.518  11.206  10.916
41282W        W 6762   6.875  21.556   1.359
41283W        W 6763  43.018  41.314  14.465
41284W        W 6764  27.657   4.372  13.034
41285W        W 6765  24.544  36.488  14.857
41286W        W 6766   5.226  27.072  10.440
41287W        W 6767  26.561  34.000  10.471
41288W        W 6768  35.883  15.166   2.902
41289W        W 6769  35.398  41.931   0.755
41290W        W 6770   5.918  31.958   4.175
41291W        W 6771   7.277   1.851   0.352
41292W        W 6772  22.551  13.299  12.390
41293W        W 6773  22.082  22.195   0.338
41294W        W 6774   4.431  13.278  14.350
41295W        W 6775  11.238  28.930  13.893
41296W        W 6776  30.655  10.772  13.834
41297W        W 6777  19.738  10.876  11.949
41298W        W 6778  32.110  30.984  10.961
41299W        W 6779  12.176  34.586   4.139
41300W        W 6780  43.836   6.187   1.699
41301W        W 6781   3.814  15.746  12.980
41302W        W 6782  12.810  35.453  13.840
41303W        W 6783  24.479  30.078   0.877
41304W        W 6784  13.713  31.643   2.404
41305W        W 6785  26.175  17.753   4.281
41306W        W 6786  27.040  35.458   1.367
41307W        W 6787  32.452  32.922  10.972
41308W        W 6788  26.123  12.239  13.547
41309W        W 6789  43.471  34.395  13.858
41310W        W 6790  38.002   3.891   0.265
41311W        W 6791  33.588   6.254  14.407
41312W        W 6792  15.808  35.910   0.946
41313W        W 6793  31.476  13.302   2.871
41314W        W 6794  11.161  16.739   2.406
41315W        W 6795  37.449  17.070  12.956
41316W        W 6796  14.171  40.441   2.267
41317W        W 6797  10.688  43.871   4.598
41318W        W 6798   0.851   0.756  10.521
41319W        W 6799   3.805  33.422   2.415
41320W        W 6800  34.989  31.488   3.375
41321W        W 6801  14.662  30.573  12.984
41322W        W 6802  11.820  33.887  11.112
41323W        W 6803  17.252  22.683   4.710
41324W        W 6804  12.736  42.933   2.364
41325W        W 6805  31.067  14.219  10.472
41326W        W 6806  32.894  37.470   1.798
41327W        W 6807   3.745  14.290  11.951
41328W        W 6808  11.345  19.592  12.057
41329W        W 6809   4.369  30.507  11.877
41330W        W 6810  41.320  27.568  14.974
41331W        W 6811  44.846  20.697  14.953
41332W        W 6812   8.287  16.185   0.351
41333W        W 6813  25.181  39.928  13.421
41334W        W 6814   6.832  27.078  11.428
41335W        W 6815   4.339  33.529   0.318
41336W        W 6816  25.134  37.451  12.561
41337W        W 6817  26.556  17.666   2.792
41338W        W 6818  17.621  40.340   0.324
41339W        W 6819  39.842  11.836  11.598
41340W        W 6820  40.816   6.288   0.358
41341W        W 6821  17.106  16.789  14.486
41342W        W 6822  12.122  20.086   3.300
41343W        W 6823   8.386   8.787  13.364
41344W        W 6824   3.931   5.272  11.890
41345W        W 6825  38.333   0.452   0.963
41346W        W 6826  18.642  16.609  14.837
41347W        W 6827  17.118  19.189  11.430
41348W        W 6828   3.792  41.364   3.637
41349W        W 6829  23.098  41.377   2.846
41350W        W 6830  37.362  29.946   1.727
41351W        W 6831  14.727  39.862   9.998
41352W        W 6832  44.833  10.786  10.954
41353W        W 6833  44.422   2.436  14.285
41354W        W 6834  33.922   7.750   0.289
41355W        W 6835  27.471  24.491   3.176
41356W        W 6836  38.417   4.322   1.430
41357W        W 6837  10.731  34.437  14.808
41358W        W 6838   4.221   5.292  12.869
41359W        W 6839  27.065  43.282  13.822
41360W        W 6840   1.276   5.912   0.466
41361W        W 6841  12.668  17.161   4.713
41362W        W 6842  35.876  12.324   1.840
41363W        W 6843  31.073   2.319  14.313
41364W        W 6844  24.538  29.525   0.921
41365W        W 6845  35.896  37.024  11.863
41366W        W 6846  43.014   5.326  14.894
41367W        W 6847  31.566   4.386   2.279
41368W        W 6848  30.943  29.648  12.370
41369W        W 6849  18.663  31.459   0.439
41370W        W 6850   9.171  24.682  11.013
41371W        W 6851  31.563  29.078   4.279
41372W        W 6852   2.277  26.029  14.926
41373W        W 6853  18.075  28.655   2.216
41374W        W 6854  19.075  31.969  10.459
41375W        W 6855   3.360  29.469   3.319
41376W        W 6856   4.447  30.116  12.070
41377W        W 6857  24.683  20.265  11.895
41378W        W 6858  25.489  27.982   2.284
41379W        W 6859  24.634   5.220   4.837
41380W        W 6860   5.819  30.543   2.797
41381W        W 6861  15.302  14.632   3.174
41382W        W 6862  12.196  13.309   1.330
41383W        W 6863  41.383  31.481  12.533
41384W        W 6864  40.305  44.960  12.974
41385W        W 6865  32.422  41.415   1.239
41386W        W 6866  12.130  32.498   4.186
41387W        W 6867  30.995   5.806  14.458
41388W        W 6868  44.367  36.888   0.752
41389W        W 6869  44.357   1.453   4.766
41390W        W 6870  35.599  37.484   2.681
41391W        W 6871   3.728  14.340   0.925
41392W        W 6872  31.511  40.388  10.156
41393W        W 6873  13.277  40.008  14.296
41394W        W 6874  15.709  25.046  13.878
41395W        W 6875  20.688   6.897  14.974
41396W        W 6876  14.614  13.690  12.978
41397W        W 6877   0.958   3.845   4.813
41398W        W 6878  42.325  44.866  12.902
41399W        W 6879  25.082  13.611   1.327
41400W        W 6880  31.103  39.858   3.328
41401W        W 6881  33.393  30.443  11.461
41402W        W 6882  19.077  37.500  12.860
41403W        W 6883  19.570  37.937  12.833
41404W        W 6884   2.738  43.397  11.021
41405W        W 6885  12.346   4.293  14.420
41406W        W 6886   4.440  22.126   3.711
41407W        W 6887  15.261  13.345  13.824
41408W        W 6888  39.955  13.659  13.988
41409W        W 6889   0.986  15.612  12.827
41410W        W 6890   9.234  44.492  11.893
41411W        W 6891  23.636  25.210  11.525
41412W        W 6892   6.397  23.177  14.314
41413W        W 6893  15.119  17.085  10.919
41414W        W 6894  26.029  42.930  13.330
41415W        W 6895  40.546  19.697  11.546
41416W        W 6896  21.116  30.107   0.259
41417W        W 6897  39.872  25.964  13.861
41418W        W 6898  16.152  11.695  10.595
41419W        W 6899  15.779  16.299  12.537
41420W        W 6900   3.896  15.694  13.896
41421W        W 6901  21.571  21.235   0.787
41422W        W 6902  15.774  26.503   0.772
41423W        W 6903  29.952  10.139  13.840
41424W        W 6904  34.435  18.115   4.318
41425W        W 6905  37.577  41.973  14.991
41426W        W 6906  16.616  40.504   1.701
41427W        W 6907   3.845  10.828  10.542
41428W        W 6908  42.906  32.628  13.459
41429W        W 6909  26.154  20.182   4.716
41430W        W 6910   1.343  33.996   0.353
41431W        W 6911  10.376  17.173  11.409
41432W        W 6912  34.904  17.222   4.120
41433W        W 6913  43.469  34.573   0.340
41434W        W 6914   7.879   1.439   1.218
41435W        W 6915  30.932   0.982   0.787
41436W        W 6916   6.223   5.761   4.333
41437W        W 6917  37.075  43.308  14.511
41438W        W 6918  28.092  25.474  11.019
41439W        W 6919  13.123  20.035  12.034
41440W        W 6920  24.977  27.683   1.708
41441W        W 6921  30.514   7.237   3.196
41442W        W 6922  16.611   4.891   4.133
41443W        W 6923  26.073  40.544  14.026
41444W        W 6924   8.174  11.285   2.245
41445W        W 6925  16.221  33.474  11.595
41446W        W 6926   4.422  11.764  12.464
41447W        W 6927  10.274  11.311  12.990
41448W        W 6928  34.948   7.341  14.370
41449W        W 6929   5.769   5.309   4.716
41450W        W 6930  16.087   1.844  12.442
41451W        W 6931  28.966  39.911  12.852
41452W        W 6932  19.575   0.817  13.486
41453W        W 6933  23.600  13.683   2.337
41454W        W 6934  35.996  22.203   4.819
41455W        W 6935  21.568  17.127  12.961
41456W        W 6936   7.901  19.204   0.431
41457W        W 6937  19.708  39.540   1.871
41458W        W 6938   8.167  20.740  13.329
41459W        W 6939  18.053   4.915   1.790
41460W        W 6940  34.474   1.373  13.498
41461W        W 6941  36.028   3.770  12.986
41462W        W 6942  42.337  23.148  11.449
41463W        W 6943  25.651   9.389  12.853
41464W        W 6944  14.271  34.574  10.025
41465W        W 6945  38.407  26.535  11.871
41466W        W 6946  21.116  37.844   3.647
41467W        W 6947  34.060   1.314   4.174
41468W        W 6948  41.396  41.891  13.791
41469W        W 6949   3.225  22.571   4.629
41470W        W 6950  37.522  10.767   3.864
41471W        W 6951  19.250  16.298   4.675
41472W        W 6952   0.853  19.566  10.934
41473W        W 6953   1.952  33.942   3.807
41474W        W 6954  31.044  24.656  11.423
41475W        W 6955   4.283  34.568   9.444
41476W        W 6956  34.996  28.558   1.408
41477W        W 6957  19.702   1.425  11.099
41478W        W 6958  44.335  12.240   4.667
41479W        W 6959  11.304  15.083   0.876
41480W        W 6960   2.379  21.728   1.404
41481W        W 6961  43.816  25.988  11.009
41482W        W 6962  11.679  16.120   2.822
41483W        W 6963  18.272  41.430   2.727
41484W        W 6964  12.851  12.264   1.881
41485W        W 6965  19.121  28.969   0.856
41486W        W 6966  20.213  27.555   1.217
41487W        W 6967   1.409  35.492  14.779
41488W        W 6968  27.152  27.646   2.306
41489W        W 6969  34.580   4.865   3.253
41490W        W 6970  16.216  21.693   1.429
41491W        W 6971  15.709  30.639   2.277
41492W        W 6972  37.344  28.632   1.812
41493W        W 6973  30.643  38.022  11.537
41494W        W 6974  33.880  37.532   3.230
41495W        W 6975  29.598  12.217  13.875
41496W        W 6976  16.130  19.278  14.795
41497W        W 6977  31.132   3.792   4.130
41498W        W 6978  10.744  42.394  12.050
41499W        W 6979  17.096   8.752  13.042
41500W        W 6980   6.831   1.953  11.909
41501W        W 6981  37.010  18.681   3.247
41502W        W 6982  44.296  32.433   1.914
41503W        W 6983  24.118  24.665  10.522
41504W        W 6984  17.693  19.745  14.316
41505W        W 6985  11.212  28.587   2.345
41506W        W 6986  16.778  21.607   3.374
41507W        W 6987  17.166  29.644  13.889
41508W        W 6988  41.418  31.547   4.298
41509W        W 6989  39.321   5.815  13.974
41510W        W 6990   3.232  28.080   1.436
41511W        W 6991  28.456  39.368   1.221
41512W        W 6992  16.696  39.409  14.825
41513W        W 6993  32.939  32.503   1.805
41514W        W 6994   5.867  32.560   3.786
41515W        W 6995  20.651   7.292   1.326
41516W        W 6996  30.150  43.764  11.474
41517W        W 6997  24.009  23.175  13.868
41518W        W 6998  32.928  29.064   4.802
41519W        W 6999  15.170  42.884  12.393
41520W        W 7000  36.844  12.633  10.542
41521W        W 7001   9.335   4.307  10.451
41522W        W 7002  41.376  18.777   2.207
41523W        W 7003  16.797  13.606  14.276
41524W        W 7004   6.364  14.642   1.832
41525W        W 7005  20.186  31.954  11.491
41526W        W 7006   4.873  34.546  14.854
41527W        W 7007  44.456  23.736  13.962
41528W        W 7008  24.628  27.670   2.237
41529W        W 7009  42.445   6.894   1.748
41530W        W 7010  18.760  18.592   1.436
41531W        W 7011  26.091  12.706  10.958
41532W        W 7012   7.299  28.155  12.969
41533W        W 7013  44.430  30.604  10.068
41534W        W 7014  20.628   5.217   4.641
41535W        W 7015   7.774  20.701   0.261
41536W        W 7016   5.868  32.570  11.445
41537W        W 7017  13.283   0.308   4.689
41538W        W 7018  29.986  38.978  12.077
41539W        W 7019  10.760  24.641   0.749
41540W        W 7020  31.547  41.887  13.981
41541W        W 7021   6.335   6.888   4.306
41542W        W 7022  37.882  42.881  11.883
41543W        W 7023  23.040  16.764  12.393
41544W        W 7024  21.720   7.899  13.389
41545W        W 7025   6.395  28.181   3.356
41546W        W 7026  37.921  35.101  14.951
41547W        W 7027  16.292  22.580  10.019
41548W        W 7028  21.581  44.345   3.645
41549W        W 7029  37.939  32.427  13.372
41550W        W 7030   2.808   1.891  14.915
41551W        W 7031   5.828  31.598   0.397
41552W        W 7032  22.042   7.261  11.510
41553W        W 7033  23.728   6.736   2.835
41554W        W 7034   4.773   4.788  11.109
41555W        W 7035  35.475  43.880   1.413
41556W        W 7036  19.540  20.717   2.256
41557W        W 7037  24.684   4.301   1.223
41558W        W 7038  35.890   5.213  14.426
41559W        W 7039  27.989  24.140   1.338
41560W        W 7040  43.459  20.712  13.862
41561W        W 7041  28.612  24.563  10.594
41562W        W 7042   1.322  17.626  14.357
41563W        W 7043  11.343  29.476  10.926
41564W        W 7044  31.449   4.229   0.840
41565W        W 7045  23.543  15.796   2.306
41566W        W 7046  31.645   7.304   2.253
41567W        W 7047  27.125   4.278   0.764
41568W        W 7048  35.485   7.209  11.122
41569W        W 7049  26.474  13.749   0.782
41570W        W 7050  17.296  38.391  13.919
41571W        W 7051  22.009  34.884   4.718
41572W        W 7052  12.622  41.365   1.894
41573W        W 7053   0.330  29.640  12.510
41574W        W 7054   5.737  17.691  11.931
41575W        W 7055  42.808   8.224  14.316
41576W        W 7056  16.705  23.675  14.298
41577W        W 7057  38.839  26.992   0.403
41578W        W 7058  23.239  29.444  10.563
41579W        W 7059   8.665  28.145  10.570
41580W        W 7060  28.462  37.995   3.730
41581W        W 7061  20.029  42.991   4.244
41582W        W 7062  29.001  19.156   0.743
41583W        W 7063  15.294   6.693   1.889
41584W        W 7064  36.052  33.589  13.015
41585W        W 7065  23.042  43.969  13.531
41586W        W 7066   4.305  38.548  10.924
41587W        W 7067  22.250   2.925   2.390
41588W        W 7068   8.700  15.718   2.362
41589W        W 7069  16.695   3.264   3.656
41590W        W 7070  20.245  33.964   2.195
41591W        W 7071   5.708  18.790  11.604
41592W        W 7072  19.652   4.851  12.944
41593W        W 7073  31.153  22.026   1.269
41594W        W 7074  21.100  13.610   5.231
41595W        W 7075  26.168  34.537  11.015
41596W        W 7076  41.807   8.218  10.978
41597W        W 7077   2.425  32.495  12.530
41598W        W 7078   1.891  17.769   4.762
41599W        W 7079  38.394  37.972  12.570
41600W        W 7080  11.637  21.130  12.515
41601W        W 7081  25.622  43.767  13.891
41602W        W 7082  44.316  12.788  10.080
41603W        W 7083  16.779  39.375  13.537
41604W        W 7084  23.171  42.818   0.331
41605W        W 7085   1.314  17.214   3.829
41606W        W 7086  23.102  40.842  14.437
41607W        W 7087  14.108  42.459  13.435
41608W        W 7088  25.083   0.485  13.529
41609W        W 7089  17.691  16.252  12.470
41610W        W 7090  39.514  10.309  12.924
41611W        W 7091   2.863   5.820  12.043
41612W        W 7092  14.641  33.611   9.997
41613W        W 7093  27.636   3.336  13.832
41614W        W 7094   5.901  24.054  12.088
41615W        W 7095  15.660   8.777   4.638
41616W        W 7096  16.731  16.152   1.262
41617W        W 7097   8.656  31.059   1.341
41618W        W 7098  21.155  13.632  12.089
41619W        W 7099  15.268  37.913  13.013
41620W        W 7100   1.958  28.042  12.899
41621W        W 7101  33.459  43.769  11.115
41622W        W 7102   3.901  25.663   4.255
41623W        W 7103  41.355   5.861  13.891
41624W        W 7104  41.808  20.660   4.770
41625W        W 7105  30.077  34.461   2.773
41626W        W 7106  36.022  32.411   4.334
41627W        W 7107  24.070  35.469   4.826
41628W        W 7108  12.841  43.842   1.878
41629W        W 7109   1.395  37.548  13.911
41630W        W 7110  43.896  40.393   3.650
41631W        W 7111   3.924  21.114  14.900
41632W        W 7112  18.740  34.001   9.500
41633W        W 7113  17.113   4.873   4.344
41634W        W 7114   2.228  36.866   0.250
41635W        W 7115  12.849  23.659  13.458
41636W        W 7116  29.654  22.184  11.900
41637W        W 7117  27.139  23.526  11.965
41638W        W 7118  12.213  36.051   4.337
41639W        W 7119   3.759  32.569   2.742
41640W        W 7120  14.260  21.205  14.488
41641W        W 7121  28.669   5.225   1.712
41642W        W 7122  20.661  29.125   2.709
41643W        W 7123   3.827   0.324   4.292
41644W        W 7124  33.492  43.417   2.235
41645W        W 7125   9.706  28.552   4.204
41646W        W 7126  14.152  41.914  13.444
41647W        W 7127  43.503  23.184   0.444
41648W        W 7128  36.967  38.925   1.789
41649W        W 7129  17.217   0.772  13.368
41650W        W 7130  24.488   5.387   1.930
41651W        W 7131  44.753  44.364   4.323
41652W        W 7132   5.826  39.948   1.265
41653W        W 7133  15.605   7.380  14.797
41654W        W 7134  15.691  41.330   0.256
41655W        W 7135  23.196   2.467  12.527
41656W        W 7136  31.630  28.562  14.001
41657W        W 7137  15.122  32.134   2.269
41658W        W 7138  32.435  12.830   2.671
41659W        W 7139  17.069  11.843   2.333
41660W        W 7140  44.969  40.334  12.998
41661W        W 7141  15.660  25.694  11.904
41662W        W 7142  42.957  28.455   2.728
41663W        W 7143  18.726  33.395  13.818
41664W        W 7144  10.853  11.636  11.919
41665W        W 7145  39.389  31.569  13.439
41666W        W 7146  35.361  40.915   3.650
41667W        W 7147  25.665  44.898  10.427
41668W        W 7148  12.833  29.091   2.812
41669W        W 7149  29.460   0.424   0.355
41670W        W 7150  17.160  18.563  13.955
41671W        W 7151  29.035  26.197  14.844
41672W        W 7152  13.159   0.250   3.712
41673W        W 7153  26.627  22.093   3.781
41674W        W 7154  18.625  38.889   5.092
41675W        W 7155  28.074  38.825  14.279
41676W        W 7156  11.348  34.963  13.847
41677W        W 7157  32.625   0.882  13.931
41678W        W 7158  13.783  35.981   2.840
41679W        W 7159  10.296  29.158  11.542
41680W        W 7160  25.213  17.591   0.271
41681W        W 7161   6.304  41.536  11.953
41682W        W 7162  40.034  15.727   1.311
41683W        W 7163  43.904  30.440  11.543
41684W        W 7164   8.231  34.897   2.812
41685W        W 7165  13.675  34.449  13.312
41686W        W 7166   1.390  21.054  10.621
41687W        W 7167  29.095   3.392  10.450
41688W        W 7168  44.789  19.115   3.154
41689W        W 7169  18.174  31.916   2.309
41690W        W 7170  40.304  19.647   1.767
41691W        W 7171  41.416  29.482  14.412
41692W        W 7172  42.020  23.667   4.151
41693W        W 7173  18.148  44.422  13.963
41694W        W 7174  43.279  19.535  14.284
41695W        W 7175   5.741  44.966  11.432
41696W        W 7176   9.365  36.076   3.284
41697W        W 7177  26.612  44.909   4.142
41698W        W 7178  13.275  32.058  12.843
41699W        W 7179  43.771  40.015  11.389
41700W        W 7180  22.739  15.312  11.108
41701W        W 7181  21.219  25.535  11.556
41702W        W 7182   8.305  33.525  13.422
41703W        W 7183  30.530   5.207   2.848
41704W        W 7184  29.148  37.522  10.574
41705W        W 7185  30.650  42.969  11.069
41706W        W 7186  29.988  36.379   0.839
41707W        W 7187  30.065  40.313   1.307
41708W        W 7188   8.848  14.110  12.442
41709W        W 7189  14.741  15.116   3.174
41710W        W 7190  20.544  43.286   4.660
41711W        W 7191  27.028   5.383  13.846
41712W        W 7192  37.495   8.178  14.019
41713W        W 7193  34.512   1.477   2.381
41714W        W 7194  38.448   1.253  12.415
41715W        W 7195  41.012  22.148   2.314
41716W        W 7196   2.252  18.689  10.590
41717W        W 7197  36.847  27.099   3.859
41718W        W 7198   7.747  14.816  14.428
41719W        W 7199  17.750   6.199  10.484
41720W        W 7200  43.983  24.653  13.968
41721W        W 7201   4.419  13.603   4.658
41722W        W 7202  14.146  24.148  14.938
41723W        W 7203  37.986  43.979   2.288
41724W        W 7204   9.686  15.202  13.008
41725W        W 7205  42.506  43.907   4.132
41726W        W 7206  24.582  18.567  12.406
41727W        W 7207  30.990  29.938  12.837
41728W        W 7208  39.942  29.167   0.273
41729W        W 7209   8.713   4.703   1.703
41730W        W 7210  18.672  17.723   1.788
41731W        W 7211   6.750  30.460  10.971
41732W        W 7212  34.373   2.874  13.915
41733W        W 7213  11.209  15.184   4.633
41734W        W 7214  42.954   3.269   0.815
41735W        W 7215   0.307  34.951   1.386
41736W        W 7216  14.704  33.032  12.034
41737W        W 7217   2.294  38.405   2.789
41738W        W 7218  44.462   6.755   1.892
41739W        W 7219  19.054   0.369  13.910
41740W        W 7220  28.966  34.597  13.466
41741W        W 7221  32.601  16.740   1.300
41742W        W 7222  30.008  26.017   0.814
41743W        W 7223   1.418  23.156   3.871
41744W        W 7224  36.922  26.101  14.502
41745W        W 7225  43.306  34.004   0.245
41746W        W 7226   0.454  13.161  12.082
41747W        W 7227  34.030   4.222   1.932
41748W        W 7228  34.069  14.288  10.933
41749W        W 7229   9.808  12.626   0.466
41750W        W 7230  21.254  16.669   0.870
41751W        W 7231  10.675  30.019   4.669
41752W        W 7232  34.409  24.712   3.354
41753W        W 7233  29.625  40.810  12.872
41754W        W 7234  42.842  26.014   1.881
41755W        W 7235  36.489  37.837  12.501
41756W        W 7236  11.772  32.999   0.786
41757W        W 7237   5.354  23.159   0.796
41758W        W 7238  44.785  40.882  11.420
41759W        W 7239   1.796  25.142   3.663
41760W        W 7240  19.063  40.356  11.402
41761W        W 7241  39.840   6.278  10.472
41762W        W 7242  34.026  38.464  13.944
41763W        W 7243  41.886   8.348  11.919
41764W        W 7244  18.269   4.924  10.489
41765W        W 7245  31.078  44.858   3.773
41766W        W 7246  44.991   4.275  13.440
41767W        W 7247  40.901  36.082   2.667
41768W        W 7248  27.094  25.521   2.372
41769W        W 7249  40.306  21.051  13.904
41770W        W 7250  28.043  38.866  13.487
41771W        W 7251  24.100  20.107  10.965
41772W        W 7252  26.646  14.313  14.422
41773W        W 7253  40.545  16.207  13.862
41774W        W 7254  15.618  28.598  11.859
41775W        W 7255   8.304  43.462  14.758
41776W        W 7256  38.847  38.381   4.157
41777W        W 7257  30.145   5.712  13.372
41778W        W 7258  24.523  35.585   3.850
41779W        W 7259  21.136  20.057   3.145
41780W        W 7260   1.387  39.516  14.828
41781W        W 7261  33.049  15.161   1.777
41782W        W 7262  29.946  10.237  11.383
41783W        W 7263  18.718  32.072   4.815
41784W        W 7264   2.455  28.458   1.720
41785W        W 7265  31.957  31.972  14.808
41786W        W 7266  15.813   5.921  13.458
41787W        W 7267  17.622   5.798   0.811
41788W        W 7268  35.531   0.817  13.361
41789W        W 7269  31.457  21.739  13.334
41790W        W 7270  35.865   7.364   1.717
41791W        W 7271   7.880   2.869  13.865
41792W        W 7272  23.719  31.008   1.277
41793W        W 7273  36.466  27.673   2.662
41794W        W 7274  15.697   1.330   0.286
41795W        W 7275  41.880  40.459   4.632
41796W        W 7276  15.718  22.163  10.439
41797W        W 7277  25.553  15.751   2.385
41798W        W 7278  14.774  22.628   3.355
41799W        W 7279  43.784  41.466  10.916
41800W        W 7280  10.747  34.390  11.986
41801W        W 7281  37.357  30.100  12.352
41802W        W 7282  30.541  12.133   0.814
41803W        W 7283  17.182  25.998  14.030
41804W        W 7284  12.202  23.025  11.475
41805W        W 7285  42.870  36.069   3.207
41806W        W 7286  24.068  10.248   0.258
41807W        W 7287   3.349  15.232  11.409
41808W        W 7288   9.275  24.637   2.692
41809W        W 7289  36.425  27.532   0.387
41810W        W 7290  23.552  40.513  11.510
41811W        W 7291   1.950  19.726   2.820
41812W        W 7292  27.490  14.331   3.348
41813W        W 7293  25.664  26.470  12.073
41814W        W 7294  30.517  12.277   2.382
41815W        W 7295  19.698  16.263   2.282
41816W        W 7296  34.922  26.180   1.816
41817W        W 7297  11.255  33.050  14.912
41818W        W 7298   2.250   5.360  11.867
41819W        W 7299   8.300   0.763   4.760
41820W        W 7300  11.260  44.339   1.704
41821W        W 7301  18.603  36.975   1.880
41822W        W 7302  18.211  25.119  13.386
41823W        W 7303  24.545   5.827   4.666
41824W        W 7304  39.985   7.897  11.387
41825W        W 7305  12.789  20.764   2.301
41826W        W 7306  40.999  32.524   1.774
41827W        W 7307  12.712  15.656   0.331
41828W        W 7308  22.243  33.568  12.890
41829W        W 7309  40.995   3.867   2.768
41830W        W 7310  33.947   3.830  10.496
41831W        W 7311   5.774  34.580   4.286
41832W        W 7312  20.621   4.728   0.766
41833W        W 7313  20.687  34.513   3.695
41834W        W 7314  26.568   1.294  12.558
41835W        W 7315  23.603  25.492   4.747
41836W        W 7316  21.651   8.349   1.893
41837W        W 7317   8.831  15.771  12.560
41838W        W 7318  15.655   7.252   5.289
41839W        W 7319  27.089   1.755  14.830
41840W        W 7320  13.670  39.054  11.586
41841W        W 7321  39.011   0.355   1.749
41842W        W 7322   2.310   6.191   1.267
41843W        W 7323  26.956  15.770  13.897
41844W        W 7324  12.158   4.233   2.768
41845W        W 7325   6.300  39.328  13.870
41846W        W 7326  34.034  28.526  13.512
41847W        W 7327   5.789  39.404  12.947
41848W        W 7328  38.001  11.753  11.425
41849W        W 7329  15.253   4.810  12.485
41850W        W 7330  29.991  42.831  12.043
41851W        W 7331  37.852  31.082   3.282
41852W        W 7332  37.404  17.120   0.795
41853W        W 7333  13.698   2.841  12.923
41854W        W 7334   3.764  41.848   0.264
41855W        W 7335  19.095  39.001   1.211
41856W        W 7336  39.360  28.628  11.061
41857W        W 7337  39.451  25.099   4.161
41858W        W 7338   0.837  13.627   3.636
41859W        W 7339  28.945   7.349  13.390
41860W        W 7340  12.782  28.015  11.499
41861W        W 7341   7.722  20.093   1.826
41862W        W 7342  13.740  39.549   1.432
41863W        W 7343  29.526  30.126  14.460
41864W        W 7344   7.407  33.569   1.381
41865W        W 7345  28.474  40.876  11.396
41866W        W 7346  40.340   8.219   4.784
41867W        W 7347  38.886   9.852  11.940
41868W        W 7348   4.927  15.125  14.307
41869W        W 7349   6.721   9.219   0.789
41870W        W 7350  43.344   9.790  10.416
41871W        W 7351  17.293  20.587  13.886
41872W        W 7352  24.634  11.159  10.523
41873W        W 7353  41.976  33.110   2.671
41874W        W 7354   3.392  16.767  10.590
41875W        W 7355  27.003   1.817   5.205
41876W        W 7356  10.695   6.819  11.490
41877W        W 7357   1.910  23.172   2.689
41878W        W 7358  32.433  30.487  13.044
41879W        W 7359  14.229   3.425   0.842
41880W        W 7360  41.481  34.524  12.876
41881W        W 7361  12.611  29.532  10.577
41882W        W 7362  12.695  43.790   4.724
41883W        W 7363  19.744  36.911   2.841
41884W        W 7364  44.999  40.481  13.960
41885W        W 7365  24.494  16.783  13.347
41886W        W 7366   5.858  31.541  12.450
41887W        W 7367  26.172   3.721   1.879
41888W        W 7368  38.059  12.650  10.549
41889W        W 7369  39.342  41.334  12.902
41890W        W 7370  37.364  34.480   4.259
41891W        W 7371  18.757  18.257  13.362
41892W        W 7372  21.719  32.942   3.360
41893W        W 7373   8.223  13.281  10.629
41894W        W 7374  14.594  41.026  10.579
41895W        W 7375  41.838  10.162  11.860
41896W        W 7376  17.615  36.908   4.766
41897W        W 7377  27.581   6.252  13.896
41898W        W 7378  20.600  23.706   4.794
41899W        W 7379  30.116   7.234   3.777
41900W        W 7380  44.310  42.339   0.755
41901W        W 7381  27.567  26.679   0.350
41902W        W 7382  44.854  39.842   3.338
41903W        W 7383  12.787  23.150   1.284
41904W        W 7384   5.239   1.371   2.878
41905W        W 7385  21.061  22.556   3.260
41906W        W 7386  24.101   6.788  14.347
41907W        W 7387  25.507  18.146  13.970
41908W        W 7388   7.195  27.098  14.903
41909W        W 7389  20.646  36.868  13.008
41910W        W 7390  22.600  16.646  12.479
41911W        W 7391  13.647   3.367   3.283
41912W        W 7392  29.526  23.549   9.929
41913W        W 7393   7.768  40.446  12.014
41914W        W 7394  15.721   9.673   2.702
41915W        W 7395  11.128   5.359   3.289
41916W        W 7396   2.471   7.203  14.825
41917W        W 7397  29.117   3.299   0.243
41918W        W 7398  28.520  38.357  10.969
41919W        W 7399  26.046  33.611  12.084
41920W        W 7400  24.105   9.261   1.370
41921W        W 7401  39.998  12.852   0.319
41922W        W 7402  31.946  13.643   3.232
41923W        W 7403   2.244  32.506   1.790
41924W        W 7404  31.991  38.452  13.000
41925W        W 7405  13.124   4.890  14.851
41926W        W 7406  13.802   6.778  10.905
41927W        W 7407  36.498  27.952   0.247
41928W        W 7408  39.967  44.460  10.617
41929W        W 7409  30.534  28.564  12.964
41930W        W 7410   9.827  34.613  10.948
41931W        W 7411  15.815  38.422  13.421
41932W        W 7412  33.501   3.817  12.443
41933W        W 7413  19.744   1.733   0.323
41934W        W 7414  38.025   0.826   2.675
41935W        W 7415  37.999  31.075   2.278
41936W        W 7416   3.413  41.493   2.298
41937W        W 7417  24.996  24.034   2.300
41938W        W 7418  38.828   1.335   4.719
41939W        W 7419  16.282   0.852  14.811
41940W        W 7420  17.618   0.804   4.280
41941W        W 7421  43.437   3.342  11.595
41942W        W 7422  35.418  24.223  12.952
41943W        W 7423   5.435   6.774   1.921
41944W        W 7424  13.740   4.721  11.455
41945W        W 7425   5.345  35.600  10.957
41946W        W 7426  37.340   0.378  14.370
41947W        W 7427  10.302  19.240   1.807
41948W        W 7428  36.563  41.006   1.407
41949W        W 7429  30.550  19.650   4.295
41950W        W 7430  17.215  29.944   2.697
41951W        W 7431   1.352   1.437   0.888
41952W        W 7432  33.907   1.792   3.840
41953W        W 7433   7.785  43.882  13.981
41954W        W 7434  15.128  28.473  12.566
41955W        W 7435  27.674  38.948  14.017
41956W        W 7436   0.455  31.097  12.529
41957W        W 7437  23.229  10.792   4.285
41958W        W 7438   2.965  40.028  10.568
41959W        W 7439  17.761  12.723   2.828
41960W        W 7440  40.855  11.691  12.047
41961W        W 7441  16.204  14.703  13.420
41962W        W 7442   9.157  21.532   4.824
41963W        W 7443  19.060  14.792   3.854
41964W        W 7444  26.966  34.434  13.393
41965W        W 7445   9.385  33.430  11.931
41966W        W 7446  28.470  32.394  14.514
41967W        W 7447   4.311  26.608  13.936
41968W        W 7448  13.340  16.248  11.083
41969W        W 7449  15.793  33.505   3.655
41970W        W 7450   5.928  24.123   2.892
41971W        W 7451  26.538  38.502   4.602
41972W        W 7452  11.242   8.808  10.496
41973W        W 7453  29.042  41.483   3.673
41974W        W 7454  40.864  35.534   0.775
41975W        W 7455  33.977   9.205  13.811
41976W        W 7456  28.027  43.889  12.063
41977W        W 7457   5.429  40.903   1.849
41978W        W 7458  43.791  43.977   2.394
41979W        W 7459  38.412  22.511   2.195
41980W        W 7460  38.462  44.261   2.352
41981W        W 7461   6.922   1.420  10.603
41982W        W 7462  20.692   0.281  12.524
41983W        W 7463   2.967  16.253  13.826
41984W        W 7464  36.362   5.269  13.823
41985W        W 7465   8.765  24.019   1.854
41986W        W 7466   4.263  17.290   0.448
41987W        W 7467  43.304   5.380   1.826
41988W        W 7468   3.776   5.829  10.447
41989W        W 7469   4.325  26.056  14.407
41990W        W 7470   3.287  25.587  10.419
41991W        W 7471  38.432  36.559  14.002
41992W        W 7472  10.747  25.026  11.511
41993W        W 7473  39.062  19.157   3.244
41994W        W 7474  44.950  35.985  13.531
41995W        W 7475  25.619  22.245   3.286
41996W        W 7476  30.109  22.051  12.342
41997W        W 7477  19.582  27.997  14.443
41998W        W 7478  22.621   3.887   2.291
41999W        W 7479  16.094  22.160  13.027
42000W        W 7480  11.304  32.448  14.497
42001W        W 7481  31.011   0.474   1.229
42002W        W 7482  14.221  42.504  10.954
42003W        W 7483  30.503  37.971  14.932
42004W        W 7484  38.376  39.557   1.449
42005W        W 7485  39.510  29.043  11.960
42006W        W 7486   9.149  26.020   0.951
42007W        W 7487  29.482  37.336  13.463
42008W        W 7488  23.721  33.923  10.503
42009W        W 7489  10.707   3.833   2.794
42010W        W 7490  22.062  28.439  11.923
42011W        W 7491  28.512  15.323   4.334
42012W        W 7492   5.893  12.635   2.203
42013W        W 7493  24.048  35.964   0.271
42014W        W 7494  12.137  15.120   1.930
42015W        W 7495  23.062   4.869   1.336
42016W        W 7496  27.967  16.808  12.058
42017W        W 7497  35.453  27.489   3.763
42018W        W 7498  35.964   6.241  11.571
42019W        W 7499  12.654  20.612  11.004
42020W        W 7500  25.669  17.298  12.422
42021W        W 7501   2.819  16.306   3.343
42022W        W 7502  26.693  44.261   4.297
42023W        W 7503  40.412  11.292   2.803
42024W        W 7504  12.805   7.297   0.366
42025W        W 7505  14.118  24.483  12.827
42026W        W 7506  13.799  39.900  12.458
42027W        W 7507   1.401  39.433  11.113
42028W        W 7508  36.090  34.950  10.899
42029W        W 7509   6.779  44.296   3.850
42030W        W 7510   7.888  23.139   3.723
42031W        W 7511   2.243  43.478  13.477
42032W        W 7512  15.211   9.257   0.937
42033W        W 7513   1.779  44.799   1.858
42034W        W 7514  23.579  35.953  11.456
42035W        W 7515  17.162  42.826  11.923
42036W        W 7516  10.683  25.171   1.388
42037W        W 7517  26.534  41.382  12.902
42038W        W 7518  26.047  10.867  12.861
42039W        W 7519  17.286  38.444   1.245
42040W        W 7520   1.414  10.748  14.292
42041W        W 7521  38.916  31.093   4.796
42042W        W 7522   2.840  23.066  12.495
42043W        W 7523  13.665  32.518   2.300
42044W        W 7524  27.575  28.677   4.134
42045W        W 7525  11.304  43.793  12.015
42046W        W 7526   6.352  31.645   0.267
42047W        W 7527   3.852  23.723   1.217
42048W        W 7528  24.185  39.421  13.813
42049W        W 7529  33.382  22.639   2.768
42050W        W 7530  30.944  14.284   0.821
42051W        W 7531   8.358  24.054  14.420
42052W        W 7532  40.443   3.300  13.888
42053W        W 7533  31.968  37.541   0.893
42054W        W 7534  44.396  11.261   2.679
42055W        W 7535  37.373  10.341  13.904
42056W        W 7536  41.355  19.552   0.403
42057W        W 7537  19.673  16.311   4.259
42058W        W 7538  16.275  41.500  12.985
42059W        W 7539   8.762  16.226   2.387
42060W        W 7540   5.872  22.244  13.044
42061W        W 7541  41.408  44.838   4.605
42062W        W 7542  44.919  40.341   3.277
42063W        W 7543  33.986   2.912  12.963
42064W        W 7544  20.597   2.915  11.547
42065W        W 7545  32.518   1.252   4.208
42066W        W 7546   3.878  12.287   1.865
42067W        W 7547  15.672  44.497   0.948
42068W        W 7548  23.635  29.441   1.832
42069W        W 7549  31.965  37.546   4.184
42070W        W 7550  34.064  14.819  14.992
42071W        W 7551  38.513   7.227   0.466
42072W        W 7552  15.171  17.763  14.356
42073W        W 7553  23.997  38.338   0.872
42074W        W 7554  42.978  43.009  11.554
42075W        W 7555  31.632  34.568   4.695
42076W        W 7556   9.264  35.852   4.685
42077W        W 7557  27.517  11.663   1.928
42078W        W 7558  19.065  38.365   0.844
42079W        W 7559  33.465   6.414  11.553
42080W        W 7560  32.565  37.551  12.537
42081W        W 7561  38.466  43.012  10.935
42082W        W 7562  18.215   2.767  11.434
42083W        W 7563  23.596  16.706  11.573
42084W        W 7564   0.422   5.377  14.854
42085W        W 7565  42.987  16.585   2.350
42086W        W 7566  40.029  44.807   0.243
42087W        W 7567   0.253   0.950   1.832
42088W        W 7568  12.689  18.201  14.320
42089W        W 7569  44.289  16.308   2.789
42090W        W 7570  29.618  44.847   4.256
42091W        W 7571   3.394  23.134  10.609
42092W        W 7572   4.756  23.183  14.941
42093W        W 7573  28.154  32.623   0.369
42094W        W 7574  38.964  16.569  11.388
42095W        W 7575   4.758  29.474  11.487
42096W        W 7576  23.556  41.901   2.294
42097W        W 7577  36.418  35.373  13.512
42098W        W 7578  26.172  23.646  11.511
42099W        W 7579   4.408  31.101   2.842
42100W        W 7580   3.792  36.465  10.583
42101W        W 7581  25.024  43.834  11.866
42102W        W 7582  42.020   4.412  14.303
42103W        W 7583  40.870  38.018  13.842
42104W        W 7584  16.623  17.179  13.062
42105W        W 7585  28.137  44.392   4.676
42106W        W 7586   1.284  24.662  13.397
42107W        W 7587  34.558   5.282  12.355
42108W        W 7588  39.333  44.780   2.865
42109W        W 7589  33.413  31.604  14.960
42110W        W 7590  40.002  44.285  11.107
42111W        W 7591  38.548   1.880   4.612
42112W        W 7592  36.930   9.690  10.609
42113W        W 7593  13.766  32.496   3.184
42114W        W 7594  37.373  11.298  14.453
42115W        W 7595  27.123  13.220  14.915
42116W        W 7596  14.221   7.300   4.773
42117W        W 7597  19.709  32.070   0.274
42118W        W 7598  20.535  32.135  11.482
42119W        W 7599  42.878  24.174   5.188
42120W        W 7600  42.507  20.564   4.825
42121W        W 7601  12.724  44.922  13.952
42122W        W 7602   0.370   5.402   0.882
42123W        W 7603  24.202  42.309  12.877
42124W        W 7604   6.859   3.905   0.408
42125W        W 7605  44.901  22.065  14.913
42126W        W 7606  15.589  26.585   3.644
42127W        W 7607  12.319  32.539   1.712
42128W        W 7608  17.255  31.900  10.158
42129W        W 7609  33.983  23.680   0.851
42130W        W 7610   4.914  36.449  14.025
42131W        W 7611  30.147  28.959   2.283
42132W        W 7612   7.268  24.541   0.362
42133W        W 7613  17.201  39.840   2.363
42134W        W 7614  25.208  21.235   1.697
42135W        W 7615   1.954  21.623   3.655
42136W        W 7616  37.419   4.823   4.263
42137W        W 7617  22.169  27.463  11.538
42138W        W 7618   9.659  28.454   0.288
42139W        W 7619  16.573   3.395  12.459
42140W        W 7620  12.212  13.112   0.405
42141W        W 7621  18.255  15.751  11.558
42142W        W 7622  22.223  30.486   2.774
42143W        W 7623  19.628  33.380   3.652
42144W        W 7624  41.460  27.558   2.668
42145W        W 7625  20.107  22.701  10.545
42146W        W 7626  27.146  28.505   3.175
42147W        W 7627  37.084  25.201   0.759
42148W        W 7628  21.659  25.639   3.826
42149W        W 7629  33.999   9.699  11.420
42150W        W 7630   2.752  27.988   4.258
42151W        W 7631  42.382  18.197   1.898
42152W        W 7632  35.515  37.938   1.850
42153W        W 7633   7.359  30.013  14.960
42154W        W 7634  19.636  41.404  13.801
42155W        W 7635   3.856  30.971   4.824
42156W        W 7636   5.691  17.137   0.816
42157W        W 7637  32.632   9.307   0.842
42158W        W 7638   0.932  18.624   1.744
42159W        W 7639   4.396  19.112  10.598
42160W        W 7640  13.725  43.985  14.287
42161W        W 7641  16.698  15.292   3.722
42162W        W 7642  20.175  33.579   1.236
42163W        W 7643   7.793   2.900   0.733
42164W        W 7644  38.531  35.059   2.877
42165W        W 7645   8.231  33.912   2.831
42166W        W 7646  41.405   0.846  11.895
42167W        W 7647  11.676  34.386   3.815
42168W        W 7648  34.979  36.504  13.922
42169W        W 7649  10.774   4.816   4.773
42170W        W 7650  19.567  31.552  14.491
42171W        W 7651  10.713  15.701   2.293
42172W        W 7652  27.466  31.009   4.309
42173W        W 7653  39.835  18.093   3.247
42174W        W 7654  22.705   6.792   3.714
42175W        W 7655   8.896  12.147  12.951
42176W        W 7656  25.536  24.019   0.869
42177W        W 7657  36.855  21.544   0.905
42178W        W 7658  28.652  35.956  11.977
42179W        W 7659  20.565  13.639  13.489
42180W        W 7660  27.624  33.385  13.544
42181W        W 7661  31.456  40.400  11.085
42182W        W 7662  17.195  31.429   2.317
42183W        W 7663  20.537  29.439   0.355
42184W        W 7664  21.112  10.243  12.421
42185W        W 7665   1.783   0.817  12.502
42186W        W 7666  27.171  25.703  14.934
42187W        W 7667  43.862   7.829  12.945
42188W        W 7668  16.119  38.353   2.816
42189W        W 7669  35.598  42.914  11.877
42190W        W 7670  32.911  13.717   0.313
42191W        W 7671  28.452  20.171  13.882
42192W        W 7672   4.357  32.885   3.708
42193W        W 7673  18.068  19.227   0.245
42194W        W 7674  39.445   1.977   2.254
42195W        W 7675  25.653  44.809   4.135
42196W        W 7676  24.709  10.719   1.412
42197W        W 7677  28.635  40.529  10.154
42198W        W 7678  38.964  23.610  11.460
42199W        W 7679  19.657  15.742   5.263
42200W        W 7680  28.651  32.589   2.375
42201W        W 7681   6.724  19.261  13.048
42202W        W 7682  30.646   8.325  14.368
42203W        W 7683  44.287   3.329   4.225
42204W        W 7684  36.389  28.049   3.232
42205W        W 7685  18.632  25.506  10.939
42206W        W 7686   4.773  42.506   2.898
42207W        W 7687  30.942   5.351  12.095
42208W        W 7688   4.760  43.863  10.926
42209W        W 7689  42.422  18.710   2.732
42210W        W 7690   2.791  40.818   2.256
42211W        W 7691  29.477  21.055   1.419
42212W        W 7692  34.477   7.719   3.783
42213W        W 7693  25.582   2.344   1.283
42214W        W 7694  25.606   2.230   2.897
42215W        W 7695  12.148  39.435  11.486
42216W        W 7696  29.176   5.266   3.212
42217W        W 7697  22.120  37.865   0.267
42218W        W 7698   8.869  25.097  13.388
42219W        W 7699   9.334  36.398  14.788
42220W        W 7700  43.427  42.886  12.368
42221W        W 7701  31.516  36.844  10.558
42222W        W 7702  14.104  36.374  13.353
42223W        W 7703   7.365  17.068   1.292
42224W        W 7704  12.662  37.907   1.289
42225W        W 7705  29.939  41.441  13.979
42226W        W 7706  34.942   2.770  12.564
42227W        W 7707  11.627  41.307   0.274
42228W        W 7708   9.296   6.316  13.924
42229W        W 7709  35.875  12.759  11.095
42230W        W 7710  39.048  40.879  10.491
42231W        W 7711  35.552   0.786  14.876
42232W        W 7712   9.706   4.396   4.660
42233W        W 7713  36.955  16.810  12.351
42234W        W 7714  16.222   8.252  14.799
42235W        W 7715  31.630  14.793  13.908
42236W        W 7716  22.121  37.419  11.862
42237W        W 7717  38.021  22.122   3.260
42238W        W 7718  28.611  27.499  11.943
42239W        W 7719  21.597  26.138  11.488
42240W        W 7720   8.161  15.715  14.287
42241W        W 7721  40.343  30.922  14.926
42242W        W 7722  38.837  44.789  11.493
42243W        W 7723   4.800  10.233  13.799
42244W        W 7724  43.945   7.370  14.308
42245W        W 7725  28.140  40.896   0.477
42246W        W 7726  26.464  14.339  10.448
42247W        W 7727  12.188  17.777  13.990
42248W        W 7728  22.620  38.942  12.050
42249W        W 7729  29.668  29.425   1.855
42250W        W 7730   4.432  26.476  11.393
42251W        W 7731   9.236  30.428   3.751
42252W        W 7732  27.644  37.478  12.571
42253W        W 7733  36.369   6.732   0.884
42254W        W 7734  21.616  25.040   0.853
42255W        W 7735  27.054  33.405  11.072
42256W        W 7736  21.539  31.971  13.877
42257W        W 7737  17.290   4.759   4.772
42258W        W 7738   3.891  22.598  11.954
42259W        W 7739  21.167   2.959   1.749
42260W        W 7740   8.896   4.335  10.544
42261W        W 7741  34.026  40.945   2.794
42262W        W 7742  31.580  42.804  10.142
42263W        W 7743  35.075  38.408   2.781
42264W        W 7744   7.865  29.553   3.286
42265W        W 7745  24.624  34.383   0.942
42266W        W 7746  38.466  16.093   4.127
42267W        W 7747  11.794  30.603  11.941
42268W        W 7748  29.580  23.565  12.418
42269W        W 7749  24.573   6.203   0.897
42270W        W 7750  27.963   2.228  12.530
42271W        W 7751  23.049  34.564  10.448
42272W        W 7752  23.089  37.071  14.949
42273W        W 7753  16.780  33.046   5.745
42274W        W 7754  40.007   3.285  12.432
42275W        W 7755  22.039  43.913  12.994
42276W        W 7756  22.198  41.343   3.358
42277W        W 7757  15.730   5.807  13.823
42278W        W 7758  31.486   3.244   4.797
42279W        W 7759  40.324   7.302  11.409
42280W        W 7760  11.284  16.314   0.384
42281W        W 7761  11.633   2.780   4.306
42282W        W 7762  36.055   0.855  14.922
42283W        W 7763  14.758  37.404  14.798
42284W        W 7764  31.037  14.191  14.963
42285W        W 7765  23.028  43.474  12.497
42286W        W 7766  27.488  44.418  10.154
42287W        W 7767  33.918  31.057   2.275
42288W        W 7768   6.221  14.708   1.405
42289W        W 7769  12.141  30.602   0.729
42290W        W 7770  15.710  17.217  13.907
42291W        W 7771  14.720  39.861  11.884
42292W        W 7772   7.757  32.584   3.288
42293W        W 7773  44.832  34.371   3.698
42294W        W 7774  16.577  12.733   1.223
42295W        W 7775  13.161  28.122  11.901
42296W        W 7776  32.014   4.713  10.421
42297W        W 7777  10.160  22.519   1.757
42298W        W 7778  33.116   4.756   3.715
42299W        W 7779  12.217  29.982  14.868
42300W        W 7780  28.512  35.558   3.318
42301W        W 7781  19.091  26.506  14.423
42302W        W 7782  12.689  31.406  12.890
42303W        W 7783   7.183  26.965   3.649
42304W        W 7784  38.340  44.400   1.417
42305W        W 7785  10.202   2.758   1.322
42306W        W 7786  38.985   3.934   4.780
42307W        W 7787   2.322  10.773   3.174
42308W        W 7788  25.079  24.672   2.772
42309W        W 7789  33.490   7.911   2.777
42310W        W 7790  39.024  17.099   4.789
42311W        W 7791  12.118  28.128   4.622
42312W        W 7792  36.939  37.864  14.786
42313W        W 7793   9.736  30.061  13.014
42314W        W 7794  25.006  16.136   0.458
42315W        W 7795   4.726  22.531  10.640
42316W        W 7796  32.111  42.801   3.791
42317W        W 7797   1.409  42.800   1.273
42318W        W 7798  21.666   1.293   3.671
42319W        W 7799  27.568  42.002  13.470
42320W        W 7800   6.228  44.272  10.502
42321W        W 7801  37.374  11.693  12.528
42322W        W 7802  39.883   6.686  14.497
42323W        W 7803  25.684  33.010   3.696
42324W        W 7804  15.621  20.704  14.787
42325W        W 7805  19.235  41.470   4.657
42326W        W 7806  23.599  31.515   3.791
42327W        W 7807  25.523  28.062  12.881
42328W        W 7808   1.353  25.103  13.357
42329W        W 7809   5.337  24.673   4.207
42330W        W 7810   7.837  29.499   2.352
42331W        W 7811  15.304  20.595  14.817
42332W        W 7812  22.149  27.447  13.805
42333W        W 7813  31.998  39.433  12.532
42334W        W 7814   1.968  22.511  13.322
42335W        W 7815   4.270  30.026  11.559
42336W        W 7816  44.943  33.413  10.565
42337W        W 7817  42.779   2.900   4.641
42338W        W 7818  33.941   6.834   1.405
42339W        W 7819  33.454  38.377   4.735
42340W        W 7820  27.686  15.262   2.204
42341W        W 7821   0.813  42.908   4.178
42342W        W 7822   8.258  34.416   3.188
42343W        W 7823   5.821  35.070   1.344
42344W        W 7824  28.987  28.959   4.726
42345W        W 7825   9.342  29.497   2.337
42346W        W 7826  30.041  16.578   1.277
42347W        W 7827  32.501  29.471   0.771
42348W        W 7828  19.659   6.799  12.518
42349W        W 7829  43.834  18.689   3.723
42350W        W 7830  40.982  37.338   1.320
42351W        W 7831  12.350  39.517   4.239
42352W        W 7832  40.874  26.975  13.916
42353W        W 7833   0.483  28.614   0.726
42354W        W 7834   4.217  38.924   2.271
42355W        W 7835   7.840  11.789   4.250
42356W        W 7836  19.197  14.226   1.798
42357W        W 7837   9.862  26.181   1.866
42358W        W 7838   4.875  42.309  14.437
42359W        W 7839  39.824   2.773  13.830
42360W        W 7840   3.223  35.513   9.958
42361W        W 7841  26.689   8.232  13.942
42362W        W 7842   3.830  34.464   2.328
42363W        W 7843  12.187   2.929   1.801
42364W        W 7844  10.669  25.649  12.030
42365W        W 7845  37.509  36.944   0.778
42366W        W 7846  42.999  42.471   4.832
42367W        W 7847  17.733  10.644  14.950
42368W        W 7848  35.905  25.051  11.126
42369W        W 7849  41.938  29.992   4.343
42370W        W 7850  42.447  37.882  10.588
42371W        W 7851  31.433   0.922  13.824
42372W        W 7852  39.047  12.732   0.302
42373W        W 7853  36.442  28.493   2.799
42374W        W 7854  21.209  28.478   2.897
42375W        W 7855  40.895  32.393  13.438
42376W        W 7856  19.586  23.040  14.795
42377W        W 7857  11.362  17.582  14.870
42378W        W 7858  10.753  34.414  12.474
42379W        W 7859  25.611  23.129  12.488
42380W        W 7860  30.525   5.845  12.531
42381W        W 7861  42.866  12.285  10.501
42382W        W 7862  29.933  17.114  13.925
42383W        W 7863  20.616  14.732  10.930
42384W        W 7864  40.918  26.030  13.050
42385W        W 7865  20.652  44.296   5.116
42386W        W 7866  27.654  16.813   0.845
42387W        W 7867   1.843  25.168  12.501
42388W        W 7868   1.350  12.329  14.821
42389W        W 7869  31.444  39.870  13.873
42390W        W 7870  23.178   0.479   3.812
42391W        W 7871  34.030  35.093   1.869
42392W        W 7872  14.193  22.635   1.917
42393W        W 7873  19.752   6.423   1.351
42394W        W 7874  13.723  35.048   2.199
42395W        W 7875  20.200  35.574  13.372
42396W        W 7876   3.396  13.334   1.913
42397W        W 7877  24.686   1.904   3.666
42398W        W 7878  32.974   5.723  13.814
42399W        W 7879  22.143   7.181  14.776
42400W        W 7880  11.815  43.296  13.410
42401W        W 7881  38.474   7.861  13.376
42402W        W 7882  32.531  32.466  13.365
42403W        W 7883   9.757  17.098  14.897
42404W        W 7884  20.222   0.346  11.389
42405W        W 7885  14.190  25.693  11.017
42406W        W 7886  32.432  42.971  14.469
42407W        W 7887  25.677  14.795  13.942
42408W        W 7888  27.452   2.288   1.878
42409W        W 7889   4.784  13.170  12.523
42410W        W 7890   3.937  42.384  11.530
42411W        W 7891  30.002  32.455   3.184
42412W        W 7892  11.823   0.262   4.659
42413W        W 7893  24.123  22.082   0.836
42414W        W 7894   2.857  21.132  12.998
42415W        W 7895   3.776   2.346  10.545
42416W        W 7896  21.529  14.220   4.793
42417W        W 7897  11.311  17.642   2.365
42418W        W 7898  19.772   2.339  11.889
42419W        W 7899  25.081  17.594   0.796
42420W        W 7900  10.373  10.274   5.149
42421W        W 7901  14.653  18.052  14.397
42422W        W 7902  18.284  25.152   3.731
42423W        W 7903  33.445  28.038  11.495
42424W        W 7904   9.221  44.363  10.562
42425W        W 7905  10.191  16.696  10.065
42426W        W 7906  18.120  11.766  11.043
42427W        W 7907  20.068  37.356   0.244
42428W        W 7908  15.124  41.841  14.937
42429W        W 7909   6.793  24.997   0.801
42430W        W 7910  40.382  44.922  10.631
42431W        W 7911  34.526  28.487   1.748
42432W        W 7912  24.218  27.461   2.767
42433W        W 7913  39.536   4.447   1.330
42434W        W 7914  36.575   1.242  11.572
42435W        W 7915  42.968  16.697   1.694
42436W        W 7916  36.513  21.231   0.269
42437W        W 7917  44.983  39.507  12.094
42438W        W 7918   1.734  44.332  14.492
42439W        W 7919  41.885   9.297   4.768
42440W        W 7920  14.810   2.407  12.483
42441W        W 7921  43.876  41.790  13.330
42442W        W 7922  23.699  26.494   4.637
42443W        W 7923  30.495  16.770   1.783
42444W        W 7924  31.929  20.595  11.011
42445W        W 7925  38.329   6.875   3.169
42446W        W 7926  39.876  17.247   4.714
42447W        W 7927  44.395   0.378   2.753
42448W        W 7928   5.225   2.870  12.379
42449W        W 7929  38.386  30.525   1.369
42450W        W 7930  29.430  14.591  12.960
42451W        W 7931  37.512  19.144   0.770
42452W        W 7932   3.834  36.064  11.115
42453W        W 7933  35.366  29.041  11.000
42454W        W 7934  11.266  21.732  11.104
42455W        W 7935  34.942  18.788   0.733
42456W        W 7936  12.298  17.201  14.362
42457W        W 7937  34.384  25.008   2.339
42458W        W 7938  39.028  12.175  13.852
42459W        W 7939   4.403   7.884   0.374
42460W        W 7940   4.740  32.997  14.796
42461W        W 7941   5.273  43.851  13.024
42462W        W 7942  33.409  19.235  11.979
42463W        W 7943  19.606   0.472   1.353
42464W        W 7944  40.892  23.552  14.962
42465W        W 7945   1.252  44.839  11.102
42466W        W 7946  39.904   6.848  13.526
42467W        W 7947  44.338   3.722  14.496
42468W        W 7948   7.320  44.344  11.563
42469W        W 7949  35.573   9.268  11.467
42470W        W 7950  38.052  19.582  12.494
42471W        W 7951  31.897  44.813  10.613
42472W        W 7952  43.394   2.872  11.466
42473W        W 7953  29.935  16.770   3.849
42474W        W 7954  38.481  15.658   4.252
42475W        W 7955  19.109  24.545   3.199
42476W        W 7956  44.809  32.886   3.795
42477W        W 7957  27.649  33.102  11.986
42478W        W 7958  24.630  15.220  14.830
42479W        W 7959  28.452   9.300   2.777
42480W        W 7960  24.179  26.491   3.199
42481W        W 7961  25.968  19.139  14.827
42482W        W 7962   3.299  18.758   5.089
42483W        W 7963  44.303  33.429   2.290
42484W        W 7964  44.859  20.532   1.866
42485W        W 7965  28.564  18.762   4.664
42486W        W 7966  19.218  40.473   4.213
42487W        W 7967  10.144  18.691  11.443
42488W        W 7968  32.075  32.001   1.435
42489W        W 7969  37.048  29.479   0.902
42490W        W 7970   0.420  23.009  11.066
42491W        W 7971  24.562  15.200   2.341
42492W        W 7972  23.151  14.211  14.466
42493W        W 7973   0.794  16.663   0.904
42494W        W 7974  44.259  41.015  13.334
42495W        W 7975  30.983   2.259   4.329
42496W        W 7976  23.506  31.648  13.938
42497W        W 7977  30.568  19.564   1.273
42498W        W 7978   7.327   4.873   9.935
42499W        W 7979   4.367  34.988  14.430
42500W        W 7980  23.081   3.931  11.586
42501W        W 7981   5.746   7.802  13.879
42502W        W 7982  18.092  27.611  10.575
42503W        W 7983  41.837  20.231  13.330
42504W        W 7984  44.765   3.217   3.833
42505W        W 7985   1.761   9.861   0.905
42506W        W 7986  40.817  33.481  13.489
42507W        W 7987   4.806  42.303  11.057
42508W        W 7988  21.183  15.685   2.710
42509W        W 7989  19.039  28.538   4.704
42510W        W 7990  29.999  37.892   4.240
42511W        W 7991   4.285  13.351  14.968
42512W        W 7992  37.908  10.677  14.920
42513W        W 7993  24.094  10.681   1.763
42514W        W 7994  30.130  28.626   2.204
42515W        W 7995  32.026  43.430  13.493
42516W        W 7996  35.902  35.865  14.426
42517W        W 7997  32.493  43.925   1.824
42518W        W 7998  34.412  28.085   3.340
42519W        W 7999   1.963  14.267  11.913
42520W        W 8000   3.914   0.422  12.869
42521W        W 8001  41.807  35.084   4.787
42522W        W 8002  11.270   7.724   2.850
42523W        W 8003   0.318  37.403   3.189
42524W        W 8004   4.216  27.579   3.681
42525W        W 8005   8.873  39.050   0.946
42526W        W 8006   6.785  27.624  11.463
42527W        W 8007  27.031  31.477  13.933
42528W        W 8008   5.905   2.904  14.314
42529W        W 8009  41.350  23.557  11.065
42530W        W 8010   1.894  22.698   2.774
42531W        W 8011  20.648  15.767  11.952
42532W        W 8012   0.424  27.186  10.405
42533W        W 8013   2.346  24.076   4.260
42534W        W 8014   8.395  17.157  13.470
42535W        W 8015   8.327  16.775   3.831
42536W        W 8016  20.214  39.542   4.115
42537W        W 8017  43.838   5.436  13.416
42538W        W 8018  35.378   7.409   1.900
42539W        W 8019  19.759  44.291  12.937
42540W        W 8020  34.424  29.584   0.449
42541W        W 8021  32.138  24.489  13.927
42542W        W 8022  30.072  15.589   1.292
42543W        W 8023  38.426  18.580  12.443
42544W        W 8024  38.564   2.856  14.378
42545W        W 8025   6.184   8.357  10.608
42546W        W 8026  15.232   7.385  12.476
42547W        W 8027   4.346  42.982  13.470
42548W        W 8028  41.318   6.269  14.423
42549W        W 8029  27.186  40.431   1.863
42550W        W 8030  26.122  39.878   2.805
42551W        W 8031   5.740  33.544   1.332
42552W        W 8032   0.431   4.379  13.914
42553W        W 8033   9.882  36.908   0.478
42554W        W 8034   3.927  29.490   3.172
42555W        W 8035  12.622  35.099  12.069
42556W        W 8036  12.192  11.193   4.126
42557W        W 8037  30.429  16.192   3.771
42558W        W 8038  11.783   2.818  13.047
42559W        W 8039   3.291   0.770  10.632
42560W        W 8040  40.531  44.321  10.075
42561W        W 8041   6.259  29.608  14.447
42562W        W 8042  35.061  43.416   3.741
42563W        W 8043  10.181  27.618   4.206
42564W        W 8044  28.604  26.120   4.745
42565W        W 8045  10.726  25.021   1.787
42566W        W 8046  15.629  28.124  13.522
42567W        W 8047  37.507   9.207  14.344
42568W        W 8048  26.971  11.807   4.720
42569W        W 8049  34.876  28.017   2.326
42570W        W 8050  23.229  43.782  11.463
42571W        W 8051  24.545  26.195  13.524
42572W        W 8052  44.358  10.325   3.777
42573W        W 8053  38.358   6.220  12.538
42574W        W 8054  39.535  22.142  12.840
42575W        W 8055   0.249  15.649  13.502
42576W        W 8056  14.707   1.253  12.549
42577W        W 8057  16.144  29.525   0.291
42578W        W 8058  16.193  27.987  13.966
42579W        W 8059  40.930  34.533  13.951
42580W        W 8060  33.032  16.271   0.835
42581W        W 8061  19.642  17.079  12.048
42582W        W 8062  31.069  39.536   2.403
42583W        W 8063  14.137  27.576  11.999
42584W        W 8064  36.978  30.129  10.989
42585W        W 8065   3.292  14.785  14.829
42586W        W 8066   3.242  44.262  14.392
42587W        W 8067   9.270  15.274  14.764
42588W        W 8068   3.911  27.475   1.859
42589W        W 8069  10.285  32.631   5.281
42590W        W 8070  30.534  41.460  10.607
42591W        W 8071  40.533   4.263   2.187
42592W        W 8072  18.646  32.496   0.460
42593W        W 8073   3.302  22.613   4.328
42594W        W 8074  26.602  11.630  13.454
42595W        W 8075  30.441  18.571   3.168
42596W        W 8076   0.831   3.905   4.130
42597W        W 8077  40.332   9.180  14.421
42598W        W 8078   6.753  20.601   0.360
42599W        W 8079  34.398  38.863   2.260
42600W        W 8080  10.286   4.383   2.798
42601W        W 8081  38.843  25.000   2.219
42602W        W 8082   9.353  25.197  11.434
42603W        W 8083   7.898  26.036   3.838
42604W        W 8084  33.501  42.937  13.060
42605W        W 8085  23.203   5.761   2.777
42606W        W 8086  41.360  32.541   3.365
42607W        W 8087   1.733  14.195  10.460
42608W        W 8088  43.347  26.493   0.296
42609W        W 8089  25.988  33.075  13.510
42610W        W 8090  22.545  21.032   0.952
42611W        W 8091   6.902   9.355   2.313
42612W        W 8092   6.806  28.509  12.524
42613W        W 8093  33.892  10.214  13.918
42614W        W 8094  43.925   3.862  14.808
42615W        W 8095  30.967  21.749  11.981
42616W        W 8096   6.686  27.612   1.404
42617W        W 8097   7.696  34.893   4.314
42618W        W 8098  43.418   6.679   0.858
42619W        W 8099  12.776  38.341   2.851
42620W        W 8100   4.324   1.393  10.943
42621W        W 8101  17.113  15.160  11.462
42622W        W 8102   4.740  26.632  11.588
42623W        W 8103  25.052  38.533   1.295
42624W        W 8104  37.388   4.928  12.492
42625W        W 8105  27.513  11.244   0.330
42626W        W 8106   6.310  14.250  14.860
42627W        W 8107  42.424   8.377  13.371
42628W        W 8108  25.052  23.620  11.448
42629W        W 8109  32.935  26.613  14.484
42630W        W 8110   8.768  24.028  10.913
42631W        W 8111  17.217  15.780  10.593
42632W        W 8112  23.129  21.243   1.424
42633W        W 8113   3.760  12.665  11.003
42634W        W 8114  25.596  11.789  10.406
42635W        W 8115   5.360  43.396   2.206
42636W        W 8116  44.289  44.359  13.374
42637W        W 8117  42.361  21.719   3.354
42638W        W 8118  28.542  10.751   3.836
42639W        W 8119   7.797  26.553  12.357
42640W        W 8120  18.736  24.486  11.930
42641W        W 8121   8.854  28.117  12.846
42642W        W 8122   5.775  30.541  11.128
42643W        W 8123   7.303  27.028  12.534
42644W        W 8124  33.481   3.736  11.067
42645W        W 8125  16.745  32.015  11.984
42646W        W 8126  25.512  44.827   0.947
42647W        W 8127  34.917  25.130  12.485
42648W        W 8128  15.711  14.215  14.928
42649W        W 8129  43.329  38.328  14.444
42650W        W 8130  35.062  31.465   1.851
42651W        W 8131  44.906  28.650  13.861
42652W        W 8132  26.519   6.389   4.616
42653W        W 8133   9.724  42.499   1.792
42654W        W 8134  44.009   3.932   1.882
42655W        W 8135  32.939  44.485   3.859
42656W        W 8136   3.779  16.104  13.894
42657W        W 8137   7.792  25.527  10.976
42658W        W 8138  38.467  29.531  11.005
42659W        W 8139  38.485   3.229  13.445
42660W        W 8140  16.139   2.721   0.727
42661W        W 8141  21.685  15.601   1.856
42662W        W 8142  43.421  14.105   3.374
42663W        W 8143   2.460  22.640   0.815
42664W        W 8144  35.890  17.656   0.818
42665W        W 8145   0.342  26.018   4.607
42666W        W 8146  22.064  18.561  11.031
42667W        W 8147  42.893  16.237  13.356
42668W        W 8148   7.846  23.227  11.100
42669W        W 8149  33.894  15.319  14.472
42670W        W 8150   4.417  39.817   1.384
42671W        W 8151  26.001  26.475   3.288
42672W        W 8152  17.103  40.440  13.367
42673W        W 8153   3.409  34.025  12.446
42674W        W 8154  28.565  40.045   0.777
42675W        W 8155   7.886  11.763   2.761
42676W        W 8156   2.383   2.279   1.875
42677W        W 8157  37.088  15.318  14.488
42678W        W 8158  22.668  33.903   0.818
42679W        W 8159  19.712   8.831  14.807
42680W        W 8160   0.776  41.397  14.328
42681W        W 8161  44.797  29.659  13.358
42682W        W 8162  36.077  28.662  13.801
42683W        W 8163  35.899  26.097   3.294
42684W        W 8164   2.925  30.032  13.818
42685W        W 8165  25.684  35.031   4.328
42686W        W 8166  32.009  43.855   4.670
42687W        W 8167  25.640  41.937  13.925
42688W        W 8168  10.765  21.061  11.034
42689W        W 8169  13.316  38.881  11.407
42690W        W 8170  21.075  14.622   4.677
42691W        W 8171  32.622  16.214  14.485
42692W        W 8172  44.450  26.665   4.167
42693W        W 8173  33.981   2.273   0.355
42694W        W 8174   7.774  24.620  11.593
42695W        W 8175  43.848  21.054  10.494
42696W        W 8176  42.887  35.476   1.806
42697W        W 8177  38.839  26.121  10.972
42698W        W 8178  32.514  18.555   1.797
42699W        W 8179  21.715  31.592  14.364
42700W        W 8180  30.441  15.266  14.856
42701W        W 8181   6.858  24.043   4.262
42702W        W 8182  21.170  26.539   4.715
42703W        W 8183  42.853   5.377   2.710
42704W        W 8184  31.443  17.120   2.203
42705W        W 8185  26.039  31.906  14.941
42706W        W 8186  43.280  21.118  13.361
42707W        W 8187  13.714  16.161   2.838
42708W        W 8188  12.833   0.782   3.335
42709W        W 8189  31.404  15.261   1.422
42710W        W 8190  28.573  16.254   0.450
42711W        W 8191  17.221  30.448  11.925
42712W        W 8192   3.822  38.952  13.843
42713W        W 8193  29.475   6.334   1.406
42714W        W 8194  25.694  22.123   1.347
42715W        W 8195   4.758  22.738  13.498
42716W        W 8196  38.360  13.319   4.806
42717W        W 8197   8.350   7.220  10.979
42718W        W 8198   3.422  43.489  13.856
42719W        W 8199  37.392  27.662  14.989
42720W        W 8200  23.549   5.276   3.264
42721W        W 8201   5.803  39.005   3.717
42722W        W 8202  26.978  19.711   4.718
42723W        W 8203  32.440  35.981  12.827
42724W        W 8204  40.843  28.129  14.503
42725W        W 8205  26.627  26.209   5.290
42726W        W 8206   4.376  31.956   4.695
42727W        W 8207  16.181  17.216  14.317
42728W        W 8208  10.292  38.417   1.775
42729W        W 8209  26.676  10.330   4.771
42730W        W 8210  29.126  40.966   3.164
42731W        W 8211  34.093  31.901   3.654
42732W        W 8212  32.117  27.106  13.474
42733W        W 8213  22.682   8.171   0.452
42734W        W 8214  19.285  14.666   3.246
42735W        W 8215  16.282  17.640  11.935
42736W        W 8216  25.570  17.784  14.357
42737W        W 8217  37.408   2.416  11.940
42738W        W 8218  38.020  14.663  12.444
42739W        W 8219  38.340   6.372  14.388
42740W        W 8220  10.700  16.281  12.844
42741W        W 8221  37.528  29.958   2.740
42742W        W 8222   3.393  11.338   9.964
42743W        W 8223  17.063  33.440  14.282
42744W        W 8224  17.663  40.420   2.366
42745W        W 8225  25.705  20.072   2.312
42746W        W 8226  13.659  40.502  13.318
42747W        W 8227  35.906  14.220   4.749
42748W        W 8228  38.389  41.445   3.157
42749W        W 8229  15.607  26.557  11.433
42750W        W 8230  35.498  23.193  11.415
42751W        W 8231  42.413   0.316   2.878
42752W        W 8232  27.509  27.565  11.073
42753W        W 8233  35.538   2.789   3.818
42754W        W 8234  44.005  32.075  11.468
42755W        W 8235   1.956  35.863  11.957
42756W        W 8236  26.035   6.228  11.903
42757W        W 8237  16.622  17.779   4.774
42758W        W 8238  39.037  39.469  12.344
42759W        W 8239  34.432  32.993  12.428
42760W        W 8240  44.284   4.912   4.146
42761W        W 8241  18.062  19.195   4.809
42762W        W 8242  34.442  44.859  11.064
42763W        W 8243  19.054  29.072  12.559
42764W        W 8244   1.958  15.805  13.473
42765W        W 8245  42.306   0.438   4.651
42766W        W 8246  11.161  29.954  11.886
42767W        W 8247  34.401  22.515  12.081
42768W        W 8248  32.127  16.802   3.156
42769W        W 8249  19.088  32.408   2.282
42770W        W 8250   8.273  35.902  10.477
42771W        W 8251   9.226  44.302  13.035
42772W        W 8252  24.064  23.627  11.542
42773W        W 8253  22.599  12.283   3.380
42774W        W 8254  44.848  31.569   1.263
42775W        W 8255  19.058  21.514  14.365
42776W        W 8256  35.444   2.863  11.466
42777W        W 8257  25.487  29.563   3.863
42778W        W 8258  15.183  24.088  10.891
42779W        W 8259  10.716  36.992  14.438
42780W        W 8260  14.677  26.605   2.302
42781W        W 8261   9.194  17.206   1.753
42782W        W 8262  44.358  11.361  14.326
42783W        W 8263  27.128  16.725   2.738
42784W        W 8264  16.718  31.626   1.844
42785W        W 8265  44.433  36.017   3.258
42786W        W 8266   8.786  30.443   2.855
42787W        W 8267   5.762  33.476   3.213
42788W        W 8268  12.160   2.268  13.891
42789W        W 8269  11.313  42.294   9.637
42790W        W 8270  26.638   9.278   1.806
42791W        W 8271  22.558   2.923   2.811
42792W        W 8272  30.008   1.431   0.418
42793W        W 8273   3.323   5.694   0.312
42794W        W 8274  39.974  16.793  12.350
42795W        W 8275  15.236  13.764  12.539
42796W        W 8276  36.061   1.363  14.938
42797W        W 8277  20.757  43.900  13.003
42798W        W 8278  11.212  36.431  11.519
42799W        W 8279   7.363   5.731   2.883
42800W        W 8280  35.897  11.253  13.410
42801W        W 8281  20.111  32.504  13.486
42802W        W 8282  42.302  17.237  12.979
42803W        W 8283  29.057  17.594   2.738
42804W        W 8284   3.398  14.227   0.878
42805W        W 8285  33.593  17.590   2.216
42806W        W 8286   4.369  39.915  14.286
42807W        W 8287   0.259   8.672  14.844
42808W        W 8288  19.161  27.083  12.000
42809W        W 8289   8.684  41.900  11.079
42810W        W 8290  10.755  23.153   1.329
42811W        W 8291  11.245  38.895   2.818
42812W        W 8292  19.073  38.344  10.477
42813W        W 8293   0.385   0.441  11.528
42814W        W 8294   9.368  25.671   3.796
42815W        W 8295  29.509  36.554  13.479
42816W        W 8296   6.214  35.012   0.452
42817W        W 8297  15.176   9.652   0.785
42818W        W 8298  33.549  22.185   2.411
42819W        W 8299   1.471  25.628  12.828
42820W        W 8300  10.222   2.807  14.009
42821W        W 8301   3.816   0.302   4.752
42822W        W 8302   6.703  30.590   1.367
42823W        W 8303  12.306  18.694   0.246
42824W        W 8304  38.854  18.168   0.366
42825W        W 8305  41.857  34.098   1.222
42826W        W 8306  29.941  44.929   2.323
42827W        W 8307  32.440  33.081   3.228
42828W        W 8308  30.523  31.403  11.922
42829W        W 8309   1.740  32.065  10.580
42830W        W 8310  17.782   2.390   0.268
42831W        W 8311  16.229  22.618  12.866
42832W        W 8312  13.165  17.629  12.991
42833W        W 8313  20.620  24.514   1.236
42834W        W 8314  43.478  34.530   2.276
42835W        W 8315   3.400  25.991   2.843
42836W        W 8316  26.034   4.385  10.982
42837W        W 8317  21.646  29.092   2.683
42838W        W 8318  15.727  12.137   5.118
42839W        W 8319  38.518  30.909   0.761
42840W        W 8320  14.774  22.571   3.834
42841W        W 8321  22.727   3.366  13.843
42842W        W 8322   3.316  20.231  13.006
42843W        W 8323  44.966  24.628   4.634
42844W        W 8324  34.481  25.639  11.430
42845W        W 8325   9.755  31.578  12.878
42846W        W 8326  25.178  25.533  12.939
42847W        W 8327  27.952  37.997   2.801
42848W        W 8328  42.486  27.678  10.931
42849W        W 8329  31.513  28.663  12.378
42850W        W 8330  37.473  39.813   0.269
42851W        W 8331   0.916  36.454   0.294
42852W        W 8332  42.894   1.977   0.385
42853W        W 8333  34.402  28.944   3.189
42854W        W 8334   2.250  38.367  12.009
42855W        W 8335  18.102  34.522  14.952
42856W        W 8336   0.930  10.844  14.325
42857W        W 8337  39.863  19.248   1.248
42858W        W 8338   9.814  25.129  10.417
42859W        W 8339  23.034   3.909  13.851
42860W        W 8340  16.318   4.903   2.884
42861W        W 8341  41.535  23.534   4.168
42862W        W 8342  24.595  10.752  10.507
42863W        W 8343  28.097  38.459  12.358
42864W        W 8344  33.420  44.950   3.303
42865W        W 8345  29.980  18.076   3.750
42866W        W 8346  23.732  23.149  13.333
42867W        W 8347  14.719   0.925  12.568
42868W        W 8348  17.163  17.716   3.269
42869W        W 8349  22.145   3.722  10.443
42870W        W 8350  41.434  33.890  12.578
42871W        W 8351   1.919  22.086   1.275
42872W        W 8352  38.917  17.191   0.816
42873W        W 8353   5.920  44.893  13.448
42874W        W 8354  19.622  38.430   1.248
42875W        W 8355   6.812   1.278  14.776
42876W        W 8356  20.118  27.008   4.217
42877W        W 8357  33.569  13.264   4.735
42878W        W 8358  44.000  43.293   4.213
42879W        W 8359  30.046  43.402  13.976
42880W        W 8360   5.877  24.501   0.930
42881W        W 8361   6.284   2.925  12.410
42882W        W 8362   6.364   8.772   3.307
42883W        W 8363  37.985   6.730  13.963
42884W        W 8364   8.385   1.262   2.671
42885W        W 8365  10.646  40.472   0.903
42886W        W 8366  36.460  22.549  14.952
42887W        W 8367   6.899  33.915  11.925
42888W        W 8368  42.022   9.717   0.286
42889W        W 8369  10.734  16.109  11.392
42890W        W 8370  25.965  20.598   2.192
42891W        W 8371  25.054  26.139   2.191
42892W        W 8372   4.769  44.318   3.335
42893W        W 8373   9.680  11.786   0.965
42894W        W 8374   0.987   5.848  14.471
42895W        W 8375  33.950  43.991   1.218
42896W        W 8376  34.002   3.821  11.014
42897W        W 8377  20.108  18.660   0.411
42898W        W 8378  16.630   7.393   4.240
42899W        W 8379  25.579  12.662  14.834
42900W        W 8380   3.279  36.452  10.076
42901W        W 8381  11.671   1.472  14.889
42902W        W 8382  14.596   9.860  12.576
42903W        W 8383  41.457  11.217  11.116
42904W        W 8384  41.034  44.443   0.280
42905W        W 8385   5.207  41.862   0.407
42906W        W 8386  42.019  24.603  13.467
42907W        W 8387   5.289   3.808  11.113
42908W        W 8388  31.133  23.524  12.824
42909W        W 8389   2.396  16.238   0.326
42910W        W 8390   9.300   7.852   3.180
42911W        W 8391  25.010  20.701   0.853
42912W        W 8392  23.070   4.275  12.834
42913W        W 8393  41.320  21.569  10.538
42914W        W 8394   4.380  27.156   0.442
42915W        W 8395  36.857  34.976   1.292
42916W        W 8396   5.693  26.969  12.382
42917W        W 8397  17.108  19.127  11.113
42918W        W 8398  37.416   3.733   2.395
42919W        W 8399  19.057  23.495   0.775
42920W        W 8400  16.181   3.822  12.891
42921W        W 8401  28.131  19.657   4.766
42922W        W 8402  19.230  28.038   5.145
42923W        W 8403  33.881  32.908  10.559
42924W        W 8404  23.691   0.461   3.648
42925W        W 8405   9.199   3.883   4.811
42926W        W 8406  17.708  26.201  14.947
42927W        W 8407   5.816  20.606  13.035
42928W        W 8408  15.685  37.040  11.057
42929W        W 8409   0.400  42.332   0.759
42930W        W 8410  29.466  28.152   2.217
42931W        W 8411  30.929  39.980  14.801
42932W        W 8412   6.749  36.530   1.407
42933W        W 8413   8.385   8.391   4.819
42934W        W 8414  29.123  31.897   0.915
42935W        W 8415   1.474  36.352  12.965
42936W        W 8416  37.472  43.395  13.311
42937W        W 8417  14.261  39.450   0.943
42938W        W 8418  11.127  20.579  10.437
42939W        W 8419  16.220   9.211  11.502
42940W        W 8420  40.850   1.246  12.030
42941W        W 8421  20.143   9.736  13.965
42942W        W 8422  29.087  25.013   2.227
42943W        W 8423  44.413  10.749  13.828
42944W        W 8424  40.821  37.533   4.798
42945W        W 8425  43.000  22.186   0.333
42946W        W 8426  44.772  14.603  13.531
42947W        W 8427   6.848   8.399   1.801
42948W        W 8428  31.518  24.135   2.278
42949W        W 8429  30.446   0.981   3.186
42950W        W 8430  28.047  41.300  13.054
42951W        W 8431  11.317  44.424   1.337
42952W        W 8432   6.248  31.068  11.939
42953W        W 8433  32.950  28.174   3.198
42954W        W 8434  35.055  33.451   2.371
42955W        W 8435  40.422  39.059  12.019
42956W        W 8436   9.219   2.829  14.468
42957W        W 8437  42.455  36.977  11.890
42958W        W 8438   4.421  39.858   4.302
42959W        W 8439  17.198  13.700  12.049
42960W        W 8440   2.282  25.113  13.978
42961W        W 8441   9.249   0.793  12.023
42962W        W 8442  34.560   8.199   4.796
42963W        W 8443  44.918  36.036  11.073
42964W        W 8444  41.907  42.028   3.868
42965W        W 8445  24.976   1.881  10.512
42966W        W 8446  38.570   2.960   0.399
42967W        W 8447  40.324  29.960  10.999
42968W        W 8448  24.593  38.901  11.590
42969W        W 8449  33.986  16.259   3.720
42970W        W 8450  18.288  18.271   4.780
42971W        W 8451  38.406   1.910   2.315
42972W        W 8452  34.935  38.022  14.780
42973W        W 8453  15.785   6.806   2.669
42974W        W 8454  20.100  33.614  10.942
42975W        W 8455  37.016  18.702  11.597
42976W        W 8456  27.520  41.435   0.743
42977W        W 8457  35.040  34.371  14.861
42978W        W 8458  15.694   7.232  13.056
42979W        W 8459  18.146  32.403   4.220
42980W        W 8460  19.544  19.178  14.011
42981W        W 8461  38.437  31.545   2.784
42982W        W 8462  41.014  34.391   4.727
42983W        W 8463  11.645  35.852  13.054
42984W        W 8464  33.951  29.638  14.767
42985W        W 8465  27.956  19.106   5.282
42986W        W 8466   3.268  32.518  12.396
42987W        W 8467  27.028  28.077  14.282
42988W        W 8468  40.025  25.575  14.450
42989W        W 8469  19.642  16.769   2.180
42990W        W 8470  26.667   5.356  13.481
42991W        W 8471  17.588  15.578  13.461
42992W        W 8472   6.216  38.538   4.293
42993W        W 8473  42.493  40.384   3.755
42994W        W 8474  12.342   0.837  14.898
42995W        W 8475  34.057  41.505   3.187
42996W        W 8476  31.639  10.820   3.253
42997W        W 8477  22.095  25.190   4.267
42998W        W 8478   3.750  25.162  12.946
42999W        W 8479  20.183  19.251   2.847
43000W        W 8480  38.942   3.297  13.432
43001W        W 8481   2.230  21.690   3.864
43002W        W 8482  37.018  20.208   1.270
43003W        W 8483   8.286   1.938   0.389
43004W        W 8484  33.061   6.298  10.634
43005W        W 8485  11.171  28.160  12.422
43006W        W 8486  37.453   2.855   0.851
43007W        W 8487  11.851  24.627  12.893
43008W        W 8488  40.883  28.599   2.668
43009W        W 8489  42.903  23.515   0.262
43010W        W 8490  43.953  37.547  10.959
43011W        W 8491  42.440   7.778   1.927
43012W        W 8492   2.860  42.870  11.486
43013W        W 8493  10.830  43.372  14.393
43014W        W 8494  24.537  32.544  14.314
43015W        W 8495   7.226  41.338  12.844
43016W        W 8496   5.698  32.527   4.615
43017W        W 8497  32.519  19.779   2.245
43018W        W 8498   9.798  12.693  11.902
43019W        W 8499  41.924  39.831  13.366
43020W        W 8500  39.958  31.051  11.015
43021W        W 8501   5.769  16.812  11.880
43022W        W 8502  11.844  11.332  10.565
43023W        W 8503  28.677  42.027   3.189
43024W        W 8504   7.696  24.653   4.616
43025W        W 8505  26.610  35.044   0.808
43026W        W 8506  41.517  10.715   0.270
43027W        W 8507  36.376  33.899  13.852
43028W        W 8508  26.645  25.026  13.847
43029W        W 8509  36.493   0.927  10.889
43030W        W 8510  28.128  37.508  12.968
43031W        W 8511   8.240  38.519  12.851
43032W        W 8512  40.533  26.543  13.453
43033W        W 8513  28.667   7.393   2.353
43034W        W 8514   7.270   9.726   0.870
43035W        W 8515  29.561   0.259  11.090
43036W        W 8516   4.320   4.865  11.371
43037W        W 8517  18.162  22.682   1.425
43038W        W 8518  18.245  38.846   4.712
43039W        W 8519   0.368  30.613   0.845
43040W        W 8520  42.458  13.223  12.446
43041W        W 8521  39.897  15.821   3.776
43042W        W 8522  19.708  34.537   3.282
43043W        W 8523  42.509  43.501   3.229
43044W        W 8524  21.641   1.278  10.640
43045W        W 8525   8.338   0.950   1.274
43046W        W 8526  43.772   8.308   0.380
43047W        W 8527  40.545  44.882   1.875
43048W        W 8528   6.422   5.738  13.808
43049W        W 8529  16.642  40.812  10.907
43050W        W 8530  37.370   8.751  12.435
43051W        W 8531  36.529   1.453  11.938
43052W        W 8532   6.868  12.125  14.304
43053W        W 8533  17.642  41.930  13.873
43054W        W 8534  12.285  33.556   2.874
43055W        W 8535  40.340   8.301  12.896
43056W        W 8536  42.479   4.717  11.896
43057W        W 8537  17.257  16.609   0.468
43058W        W 8538  31.116   1.252   1.716
43059W        W 8539  13.626  32.600  14.280
43060W        W 8540  34.866  16.134   3.187
43061W        W 8541  22.037  21.730  11.129
43062W        W 8542   3.383  39.349   0.345
43063W        W 8543   6.917  12.275   4.249
43064W        W 8544  37.580  27.006  13.476
43065W        W 8545  39.042   4.942   2.706
43066W        W 8546  32.073  10.175  13.539
43067W        W 8547  35.469  27.079  10.926
43068W        W 8548  34.049  16.788   0.828
43069W        W 8549  23.611   4.394   3.839
43070W        W 8550  24.539   6.901   2.259
43071W        W 8551  27.628  42.434  11.858
43072W        W 8552  37.931  30.538   4.115
43073W        W 8553   5.887  20.540  10.935
43074W        W 8554  38.076  20.124   0.739
43075W        W 8555  28.930  44.776  14.876
43076W        W 8556   7.173  29.101  13.909
43077W        W 8557  37.417  17.126  11.965
43078W        W 8558  23.997  34.584   3.162
43079W        W 8559   7.311  26.134   2.223
43080W        W 8560  11.813  32.058   4.305
43081W        W 8561  18.163  11.364   0.920
43082W        W 8562   4.722   5.260  10.501
43083W        W 8563   7.326  14.142  13.807
43084W        W 8564   4.263  32.556   1.364
43085W        W 8565  14.639  37.905   4.793
43086W        W 8566  14.202  43.981  11.511
43087W        W 8567  16.250  31.415  14.889
43088W        W 8568  23.082  24.709  13.839
43089W        W 8569  16.099  32.989   5.182
43090W        W 8570  19.686  29.493  12.885
43091W        W 8571  33.049  24.180  10.982
43092W        W 8572   2.930   0.851  12.880
43093W        W 8573  44.310  21.727  10.939
43094W        W 8574  28.988  24.723  11.403
43095W        W 8575  16.179  11.210   1.220
43096W        W 8576  18.699  38.877   2.771
43097W        W 8577  38.061  24.077  11.439
43098W        W 8578  32.105  15.679   2.894
43099W        W 8579  41.970  36.877   2.753
43100W        W 8580  35.948  23.169   1.306
43101W        W 8581   8.879  21.548   2.886
43102W        W 8582  11.655  10.347   0.342
43103W        W 8583  22.611  33.944   3.663
43104W        W 8584  37.063  25.592   4.669
43105W        W 8585   6.425  32.078   4.277
43106W        W 8586  22.702  35.894  11.897
43107W        W 8587  25.674   6.357  13.537
43108W        W 8588   8.871  12.839   1.900
43109W        W 8589   6.182  29.034  14.882
43110W        W 8590   4.372  42.822  14.912
43111W        W 8591  10.694  35.992   1.721
43112W        W 8592  33.890  34.429  12.017
43113W        W 8593  29.098  15.626  11.890
43114W        W 8594  44.958  27.091  14.482
43115W        W 8595  25.521  32.964   0.307
43116W        W 8596   9.643  24.687   4.643
43117W        W 8597  44.388  24.116   5.306
43118W        W 8598   5.881  10.737   3.348
43119W        W 8599  31.050  36.509   0.337
43120W        W 8600  41.824   8.664  11.392
43121W        W 8601  31.591  10.697  13.455
43122W        W 8602  13.304  44.278  11.945
43123W        W 8603   6.266  25.561  14.767
43124W        W 8604  25.011  22.234   1.805
43125W        W 8605  30.146  18.780   4.230
43126W        W 8606  28.462  31.101  11.090
43127W        W 8607  26.562  15.102  10.433
43128W        W 8608  41.815  18.109  11.915
43129W        W 8609  34.086  13.815  13.485
43130W        W 8610  21.113  42.991   2.875
43131W        W 8611   3.935  13.637   0.841
43132W        W 8612  28.513   5.323   2.724
43133W        W 8613  18.056  19.633   3.850
43134W        W 8614  20.765  10.308  11.570
43135W        W 8615  18.734   2.334  14.361
43136W        W 8616   1.471   6.249   4.331
43137W        W 8617  30.581  12.226   4.601
43138W        W 8618  41.451  30.141   0.897
43139W        W 8619  35.462  39.442  11.558
43140W        W 8620  32.908  30.549   4.145
43141W        W 8621  44.943   9.303   1.916
43142W        W 8622  36.352  35.478   4.790
43143W        W 8623  37.903  18.689   0.961
43144W        W 8624  34.496  43.422   2.832
43145W        W 8625  33.062  10.869  11.969
43146W        W 8626   7.252  29.123   0.470
43147W        W 8627  10.685  17.653  11.087
43148W        W 8628   7.414  42.789   5.264
43149W        W 8629  26.075  20.761  13.351
43150W        W 8630  14.797   1.768   2.370
43151W        W 8631  44.859  30.087   4.171
43152W        W 8632  36.033  24.104   4.242
43153W        W 8633  14.829  22.072   1.289
43154W        W 8634   1.908  24.504  11.587
43155W        W 8635   4.386  37.877  12.088
43156W        W 8636   3.850   2.449   3.844
43157W        W 8637  13.635   7.833  11.545
43158W        W 8638   3.231  24.218   1.766
43159W        W 8639  30.933   9.211   2.737
43160W        W 8640   1.275   4.896   2.813
43161W        W 8641  39.952  40.487   2.351
43162W        W 8642  33.492   5.382  11.502
43163W        W 8643  40.801  34.880   1.873
43164W        W 8644  17.147  26.513   0.358
43165W        W 8645  27.570  35.447  11.489
43166W        W 8646  24.141  30.461  14.461
43167W        W 8647  22.099  29.095  12.835
43168W        W 8648  40.432  22.126   0.906
43169W        W 8649  32.486  18.715   2.740
43170W        W 8650  33.396   8.384   0.265
43171W        W 8651  37.557  23.068   0.406
43172W        W 8652  20.637  34.593   1.274
43173W        W 8653  15.757  20.707  12.553
43174W        W 8654   2.454  42.022   1.223
43175W        W 8655  11.673   7.838  13.443
43176W        W 8656   4.356  28.950   2.368
43177W        W 8657  41.854  38.364  14.885
43178W        W 8658  15.151  32.131   5.253
43179W        W 8659  24.497  37.353  13.924
43180W        W 8660  27.642   6.297   1.312
43181W        W 8661  43.967   6.375   3.346
43182W        W 8662   5.896   0.462   0.964
43183W        W 8663  27.683  12.854  13.403
43184W        W 8664   4.248   2.284  13.879
43185W        W 8665  29.173   1.931  10.956
43186W        W 8666  16.792  30.020   3.741
43187W        W 8667  38.493  10.745  14.285
43188W        W 8668   7.342  19.047   1.442
43189W        W 8669  34.543  43.382   4.750
43190W        W 8670  14.303  39.363   0.271
43191W        W 8671   4.356  20.121  11.468
43192W        W 8672   6.416  42.949   0.803
43193W        W 8673   1.949  22.648   0.787
43194W        W 8674  24.024  29.612   1.892
43195W        W 8675  36.529  10.372  10.428
43196W        W 8676  26.101   5.882  14.465
43197W        W 8677   4.810  34.022  14.924
43198W        W 8678  18.619  40.944   1.448
43199W        W 8679  22.716  36.057   0.447
43200W        W 8680  20.045   8.690   3.670
43201W        W 8681  23.018   5.407  13.832
43202W        W 8682   0.817  42.377   3.261
43203W        W 8683  22.130  42.979  14.275
43204W        W 8684  39.813  41.792  11.034
43205W        W 8685  36.354   7.271   0.860
43206W        W 8686  14.223  35.976  12.002
43207W        W 8687  28.018  44.754  11.079
43208W        W 8688  19.110   0.934  12.033
43209W        W 8689   6.820  12.326  13.885
43210W        W 8690  30.087  42.354  12.384
43211W        W 8691  42.463  38.332  12.438
43212W        W 8692  27.101   7.758  14.335
43213W        W 8693  28.026  13.308   4.188
43214W        W 8694  32.084  38.548   2.719
43215W        W 8695  11.724  44.330  11.471
43216W        W 8696  26.601  13.107  10.993
43217W        W 8697  12.671  34.887   2.337
43218W        W 8698   5.731  35.600  11.419
43219W        W 8699   5.303  29.456  11.521
43220W        W 8700  18.234  34.104   1.269
43221W        W 8701  26.056   3.355  13.846
43222W        W 8702  32.068  41.841   4.317
43223W        W 8703  31.560   5.708  12.559
43224W        W 8704   9.691  34.527  14.402
43225W        W 8705  42.905  39.368   0.386
43226W        W 8706  19.237   2.842  12.860
43227W        W 8707   1.307  18.780   1.742
43228W        W 8708  42.007  42.822  10.062
43229W        W 8709   5.852  19.241  11.901
43230W        W 8710   7.303  28.988  12.488
43231W        W 8711   6.303  12.721  14.435
43232W        W 8712   9.863  14.707  12.417
43233W        W 8713  34.098  10.332   2.250
43234W        W 8714   2.757  31.448   4.221
43235W        W 8715  10.307  11.231   0.471
43236W        W 8716  23.134  27.002   1.740
43237W        W 8717  28.110  30.082  13.333
43238W        W 8718  15.786   6.192  13.457
43239W        W 8719   9.178   6.773   0.738
43240W        W 8720  44.990   6.333   9.934
43241W        W 8721  42.451  37.350   4.253
43242W        W 8722  11.796  34.454  14.942
43243W        W 8723  41.475  23.054  14.018
43244W        W 8724  37.547  24.541   0.260
43245W        W 8725  34.501  14.810   1.697
43246W        W 8726  17.255  28.508  12.455
43247W        W 8727   1.472  40.389  12.560
43248W        W 8728  37.339  27.484   3.671
43249W        W 8729  15.643  36.513  13.937
43250W        W 8730  23.731  39.940   1.744
43251W        W 8731  21.204  43.777   5.664
43252W        W 8732  15.206  32.986   1.855
43253W        W 8733  14.765  40.015   3.380
43254W        W 8734  20.197   4.805  10.967
43255W        W 8735  29.492   8.279   4.280
43256W        W 8736   9.315   6.698  10.614
43257W        W 8737  21.670   4.259   0.807
43258W        W 8738   1.325   2.372   4.168
43259W        W 8739  40.828  21.620   3.673
43260W        W 8740  23.097  27.573   1.841
43261W        W 8741  38.025  16.656  13.337
43262W        W 8742   5.372  12.746  13.915
43263W        W 8743   3.390  44.337  11.867
43264W        W 8744  40.934  15.776   2.306
43265W        W 8745  28.674  20.644   2.244
43266W        W 8746   4.820  37.535  13.425
43267W        W 8747  40.392  28.448  12.934
43268W        W 8748  27.095  39.498  12.008
43269W        W 8749  36.352   8.243  10.418
43270W        W 8750  42.842  27.057  13.842
43271W        W 8751   7.291  25.091  12.485
43272W        W 8752   8.797  37.975   0.360
43273W        W 8753  31.056  35.586   1.778
43274W        W 8754   1.280  14.775  14.899
43275W        W 8755  37.516  25.554   2.784
43276W        W 8756  21.562  36.924   3.662
43277W        W 8757  36.517  12.250   3.322
43278W        W 8758   6.249  26.017   2.698
43279W        W 8759  13.680  39.867  11.374
43280W        W 8760  37.521  21.060  10.478
43281W        W 8761  18.545  38.507  10.537
43282W        W 8762  39.826   5.208  10.979
43283W        W 8763  30.973  36.095  11.491
43284W        W 8764  14.768  15.697  11.088
43285W        W 8765  38.922  28.493  13.446
43286W        W 8766  15.299  37.424  14.933
43287W        W 8767  15.273  39.517   2.248
43288W        W 8768  44.765  24.039  12.395
43289W        W 8769  42.497  24.680   2.829
43290W        W 8770  37.990  39.968   3.217
43291W        W 8771  12.148  31.542   3.311
43292W        W 8772  18.667  42.899   0.829
43293W        W 8773  16.659  29.579   4.179
43294W        W 8774  22.078  43.999   2.722
43295W        W 8775  37.039   2.468  11.915
43296W        W 8776  21.045   6.330   2.311
43297W        W 8777  17.601  15.152   0.287
43298W        W 8778   4.363  20.528   1.773
43299W        W 8779   3.806  10.352   0.886
43300W        W 8780  18.115  29.440   4.836
43301W        W 8781  32.438  28.028  12.930
43302W        W 8782  26.697  28.043  11.523
43303W        W 8783   8.787  11.320  13.486
43304W        W 8784  14.601   7.260   4.297
43305W        W 8785  44.902   5.698  10.622
43306W        W 8786  43.407  13.825  14.846
43307W        W 8787  22.071  35.360  13.308
43308W        W 8788   1.440   6.772  12.394
43309W        W 8789  37.383  29.007   0.307
43310W        W 8790  24.583  33.504   0.340
43311W        W 8791  14.719  23.524  14.906
43312W        W 8792  42.963  42.521   0.835
43313W        W 8793  32.058  29.031   0.372
43314W        W 8794  20.526   9.351   1.377
43315W        W 8795  29.474  18.759  10.927
43316W        W 8796  35.008  16.579  10.944
43317W        W 8797  10.211  19.583   1.309
43318W        W 8798  34.395  35.905  14.801
43319W        W 8799   7.898  15.617   3.637
43320W        W 8800  17.763   1.884   3.726
43321W        W 8801  22.202   4.299   3.314
43322W        W 8802   0.327   6.836   3.859
43323W        W 8803  32.021  37.870   2.676
43324W        W 8804  30.996   1.837   4.140
43325W        W 8805  28.461  34.058  12.380
43326W        W 8806  27.605  29.154  14.003
43327W        W 8807  36.856  14.105   2.338
43328W        W 8808   0.405  32.491  13.931
43329W        W 8809  14.205   9.798   1.424
43330W        W 8810  10.782   1.251  13.056
43331W        W 8811  26.140   4.236   1.288
43332W        W 8812  15.612  23.145   0.359
43333W        W 8813   6.818   4.801   1.747
43334W        W 8814  14.128   3.753   2.729
43335W        W 8815  34.605   8.713  10.923
43336W        W 8816  25.971  26.092  14.933
43337W        W 8817  30.449  21.519  14.825
43338W        W 8818  17.112  15.271  13.499
43339W        W 8819  38.883   5.408  10.102
43340W        W 8820  16.296  30.487   1.725
43341W        W 8821  22.097  35.006   1.215
43342W        W 8822  21.051  22.117   3.322
43343W        W 8823  21.572  39.876  14.951
43344W        W 8824  40.330   0.783  14.988
43345W        W 8825  17.663  41.472   4.347
43346W        W 8826   2.819   4.796   3.168
43347W        W 8827  22.248   6.687   0.834
43348W        W 8828  22.581  40.901   3.662
43349W        W 8829  11.656  12.204  13.522
43350W        W 8830  10.676  41.958  10.433
43351W        W 8831   9.375   1.298  12.925
43352W        W 8832  42.517  13.287  14.367
43353W        W 8833   3.370   9.193   3.836
43354W        W 8834  21.157  44.384  14.408
43355W        W 8835  34.546   5.806  10.937
43356W        W 8836  25.997  15.821   9.995
43357W        W 8837  29.126  20.064   1.396
43358W        W 8838  37.438  30.991   4.296
43359W        W 8839  39.913  28.655  11.605
43360W        W 8840  29.065  38.904  11.899
43361W        W 8841  43.432  35.498   1.866
43362W        W 8842  25.099   7.811   5.289
43363W        W 8843  19.597  13.316  11.082
43364W        W 8844  26.574  14.701   3.179
43365W        W 8845  18.657  39.346   4.209
43366W        W 8846  37.509  28.552  12.045
43367W        W 8847  39.406   1.309   2.842
43368W        W 8848  44.958   9.150  11.467
43369W        W 8849  43.937  24.145   1.278
43370W        W 8850  14.232  42.019   1.269
43371W        W 8851  17.707  17.760  10.611
43372W        W 8852  29.107  30.569   3.193
43373W        W 8853   5.342  30.419  11.566
43374W        W 8854  40.908   1.965  12.970
43375W        W 8855  15.157  25.207  13.874
43376W        W 8856  33.940  36.570   2.828
43377W        W 8857  34.079   0.254  14.918
43378W        W 8858  27.023  19.694   2.880
43379W        W 8859  25.564  22.085   3.638
43380W        W 8860  21.529   6.685   3.772
43381W        W 8861  12.222  35.027   3.245
43382W        W 8862   4.934  24.208  12.358
43383W        W 8863  38.564   1.372  14.018
43384W        W 8864   0.743  10.374   1.431
43385W        W 8865  25.642  26.999   4.217
43386W        W 8866  40.936  18.711  13.879
43387W        W 8867   8.735  17.786  12.998
43388W        W 8868  31.439   2.765  13.421
43389W        W 8869   8.691   6.721   3.349
43390W        W 8870   7.801  31.579  10.450
43391W        W 8871   5.924  36.998  14.487
43392W        W 8872  25.596  42.915  13.409
43393W        W 8873  22.197   3.290   2.408
43394W        W 8874   9.846   8.718   4.300
43395W        W 8875   0.943  18.224   1.347
43396W        W 8876   0.350  25.649  14.906
43397W        W 8877  34.470  29.607   3.198
43398W        W 8878  38.382  28.440  14.458
43399W        W 8879  27.041  37.504  13.389
43400W        W 8880  19.248  10.663  12.343
43401W        W 8881  27.950  21.676   0.927
43402W        W 8882  22.650  31.099   3.663
43403W        W 8883   7.670  24.087  13.324
43404W        W 8884  25.988  33.976   1.915
43405W        W 8885  25.708  15.286   2.341
43406W        W 8886  42.334  16.301   1.859
43407W        W 8887  14.331  15.668   3.217
43408W        W 8888  27.129  13.119  11.916
43409W        W 8889   1.457  42.013   0.269
43410W        W 8890  20.612  23.521  12.520
43411W        W 8891  39.936  37.969  10.998
43412W        W 8892   3.231  35.013   3.363
43413W        W 8893  15.110  40.920   3.280
43414W        W 8894  33.445  30.563  11.856
43415W        W 8895   2.425   3.409  13.822
43416W        W 8896  41.876   1.830   0.822
43417W        W 8897   1.238  30.655  13.949
43418W        W 8898  18.133  18.171   0.421
43419W        W 8899  42.982  17.179  13.797
43420W        W 8900  41.464  14.628   2.799
43421W        W 8901  39.891  33.052   2.789
43422W        W 8902  26.014  41.020   0.839
43423W        W 8903   8.810  11.740   2.765
43424W        W 8904   5.691  11.706  11.529
43425W        W 8905  19.097  39.025  11.482
43426W        W 8906  27.546   3.219   5.130
43427W        W 8907  19.753   7.293  14.838
43428W        W 8908  36.000  29.132  12.053
43429W        W 8909  16.281  31.493   2.205
43430W        W 8910  41.465  36.362  12.380
43431W        W 8911  26.981  11.846   1.361
43432W        W 8912   4.403  12.313  11.905
43433W        W 8913  18.702  19.550   3.779
43434W        W 8914  29.000  36.925  12.424
43435W        W 8915  28.604  39.401   3.819
43436W        W 8916  25.526  30.643   3.372
43437W        W 8917  18.622   4.298  11.518
43438W        W 8918  42.939  28.454   4.613
43439W        W 8919  37.838   3.712   2.846
43440W        W 8920  27.023   5.223   0.323
43441W        W 8921   1.366   2.414  12.932
43442W        W 8922  35.480  28.179  12.934
43443W        W 8923   0.480  12.318  14.340
43444W        W 8924  35.940   6.337   0.435
43445W        W 8925  32.073  29.447   0.325
43446W        W 8926  32.587   1.458  13.534
43447W        W 8927  39.932  28.105  11.121
43448W        W 8928  16.806   8.332  13.376
43449W        W 8929  11.346   9.662   0.793
43450W        W 8930  22.086  35.473   4.799
43451W        W 8931  43.804  29.498  14.444
43452W        W 8932  23.655  15.296   2.890
43453W        W 8933  34.875  20.187   1.234
43454W        W 8934   8.705  24.711  10.961
43455W        W 8935  44.428  43.008  12.508
43456W        W 8936  37.963   4.413   1.811
43457W        W 8937  10.218  35.523  14.970
43458W        W 8938  15.614  40.038  13.034
43459W        W 8939  25.112  44.983  13.943
43460W        W 8940   4.295   1.363   1.382
43461W        W 8941  31.136  39.845  12.526
43462W        W 8942  14.665   1.437   2.884
43463W        W 8943  39.054  18.259   2.876
43464W        W 8944  25.193  10.377   4.179
43465W        W 8945   3.327  43.363  12.979
43466W        W 8946  15.674  30.657   0.751
43467W        W 8947  21.116  43.503  13.401
43468W        W 8948  30.551  13.222  11.125
43469W        W 8949  18.673   4.299  13.929
43470W        W 8950   3.322   2.309  14.401
43471W        W 8951  27.487  42.803  11.960
43472W        W 8952   4.742  31.969  13.042
43473W        W 8953  16.292  12.700  10.490
43474W        W 8954   3.238  12.678   3.710
43475W        W 8955  20.673  11.284  13.866
43476W        W 8956   2.297  31.945   0.332
43477W        W 8957  18.198   2.751  10.456
43478W        W 8958  21.741  17.137  13.985
43479W        W 8959  42.325  28.628   4.238
43480W        W 8960  22.059  17.768  11.860
43481W        W 8961  25.037  33.131  13.914
43482W        W 8962  28.953   0.748  12.469
43483W        W 8963   4.838  14.130  13.369
43484W        W 8964  14.277  19.181   3.231
43485W        W 8965  17.605  29.559   4.707
43486W        W 8966  24.705  28.649   4.205
43487W        W 8967  33.085  13.815  14.498
43488W        W 8968  23.676   8.703  13.815
43489W        W 8969  19.105   9.863  13.011
43490W        W 8970  20.258  35.543   1.372
43491W        W 8971  36.888  23.497  12.387
43492W        W 8972   3.846  18.145  12.058
43493W        W 8973   1.801  39.887   0.346
43494W        W 8974   7.263  13.721  12.484
43495W        W 8975  42.890  13.619  10.895
43496W        W 8976   6.839  13.618  11.985
43497W        W 8977   6.302  36.945  13.850
43498W        W 8978  33.121   9.320   3.807
43499W        W 8979   3.457  33.106  14.957
43500W        W 8980  12.611  32.996  11.534
43501W        W 8981  38.350   5.763   2.367
43502W        W 8982  40.976   9.783  11.430
43503W        W 8983  31.408  36.910  11.986
43504W        W 8984  21.661   1.958   3.258
43505W        W 8985   3.272   4.413   2.338
43506W        W 8986  41.964  37.381   4.653
43507W        W 8987  41.027   6.328   2.864
43508W        W 8988  43.508  19.764  13.339
43509W        W 8989   5.236   4.206  11.045
43510W        W 8990  20.757   2.731  13.806
43511W        W 8991  30.598   7.268   2.238
43512W        W 8992  40.827  36.848  14.384
43513W        W 8993   9.204  29.937  10.957
43514W        W 8994  24.169  31.609   0.402
43515W        W 8995  15.170  19.125   0.293
43516W        W 8996  31.423  17.663   3.169
43517W        W 8997  38.343  29.985  13.815
43518W        W 8998  29.967  41.387  14.303
43519W        W 8999  40.325  37.837   1.376
43520W        W 9000  38.064   4.921   1.842
43521W        W 9001  33.567  23.189  12.833
43522W        W 9002  13.652  44.977  12.411
43523W        W 9003  30.995  28.457   4.264
43524W        W 9004  37.360  27.587  11.944
43525W        W 9005   1.426  38.072   3.742
43526W        W 9006  24.496  15.701   0.947
43527W        W 9007   3.944  20.676  10.504
43528W        W 9008  28.523  10.305  12.875
43529W        W 9009  23.531   8.763   1.377
43530W        W 9010   6.313  14.780   4.175
43531W        W 9011  43.434   5.385  13.870
43532W        W 9012  37.521   5.297   1.710
43533W        W 9013  13.624  17.783  13.795
43534W        W 9014  29.524  22.207  13.002
43535W        W 9015  24.662  27.645   1.258
43536W        W 9016   0.936  15.620   0.801
43537W        W 9017  41.411  17.785   4.798
43538W        W 9018   2.259  28.452  13.497
43539W        W 9019   7.821  39.871   2.883
43540W        W 9020   1.776  17.681   4.251
43541W        W 9021  43.333  26.681   4.688
43542W        W 9022  36.352   8.889   4.732
43543W        W 9023  19.188  15.116  10.577
43544W        W 9024  40.971  27.041  14.774
43545W        W 9025  42.792   3.713   4.782
43546W        W 9026  18.090  29.161   3.667
43547W        W 9027  13.728  28.088  10.974
43548W        W 9028  10.683  12.330   3.355
43549W        W 9029  38.342  26.602   2.392
43550W        W 9030  41.472  35.025   0.319
43551W        W 9031  40.394  40.955   0.432
43552W        W 9032  30.093   3.723  14.306
43553W        W 9033  22.156   8.880  14.491
43554W        W 9034   2.270  31.923   1.377
43555W        W 9035  26.587  15.633  13.835
43556W        W 9036  11.218   4.338   0.480
43557W        W 9037  35.002  21.089  11.376
43558W        W 9038  16.221  13.735   2.349
43559W        W 9039  27.065  12.666   4.721
43560W        W 9040   4.767  22.583   3.366
43561W        W 9041   4.229   9.218  11.926
43562W        W 9042  22.190  39.967   1.875
43563W        W 9043  10.795  35.476  12.034
43564W        W 9044  41.813  24.145   2.828
43565W        W 9045  25.176  33.418  12.077
43566W        W 9046  40.036  28.550  10.552
43567W        W 9047  43.507  37.562   1.863
43568W        W 9048   5.243  28.498   3.300
43569W        W 9049  11.165  11.789   3.163
43570W        W 9050  31.593   8.691  11.496
43571W        W 9051   5.434  20.121  10.431
43572W        W 9052  38.903  43.433  12.399
43573W        W 9053  11.663   6.761  12.018
43574W        W 9054  22.562  19.539   2.196
43575W        W 9055  44.953  17.130   0.362
43576W        W 9056  19.266  35.107   2.802
43577W        W 9057  14.726  26.174   3.749
43578W        W 9058  31.954  43.005   4.352
43579W        W 9059   4.211  17.082  12.363
43580W        W 9060  42.481  42.849  14.834
43581W        W 9061  23.593   0.783   0.276
43582W        W 9062  40.965  44.976  10.455
43583W        W 9063  26.141  37.424  11.399
43584W        W 9064  21.580  31.906   0.325
43585W        W 9065  25.210  34.479   1.870
43586W        W 9066  26.668  38.332  12.430
43587W        W 9067  12.208  20.247  11.498
43588W        W 9068  18.736  21.567   1.860
43589W        W 9069  32.130  33.617  14.922
43590W        W 9070  12.761   5.208   4.336
43591W        W 9071  23.220  29.067   4.669
43592W        W 9072  28.131  43.958   1.444
43593W        W 9073  43.847  25.974  13.877
43594W        W 9074  10.320  21.513  11.037
43595W        W 9075   0.254   2.885  13.049
43596W        W 9076  27.445   4.755  11.123
43597W        W 9077  30.029  28.537  12.561
43598W        W 9078  14.797  19.688   2.728
43599W        W 9079  41.866  44.003  14.420
43600W        W 9080   5.898  37.009  13.915
43601W        W 9081  19.721   4.222  11.059
43602W        W 9082  25.043  12.332  13.451
43603W        W 9083  40.004  40.799   2.695
43604W        W 9084  20.047  40.825  13.469
43605W        W 9085   4.860  20.275  14.283
43606W        W 9086  11.194  22.998  10.982
43607W        W 9087  33.080  42.982   0.786
43608W        W 9088  33.399  44.387  13.395
43609W        W 9089  34.564  25.043  12.081
43610W        W 9090  24.561  43.347   2.852
43611W        W 9091   8.314  24.563  14.933
43612W        W 9092  40.416  20.563   2.282
43613W        W 9093  18.184  23.614   3.671
43614W        W 9094  24.486  38.836  12.948
43615W        W 9095  28.576   7.828  14.332
43616W        W 9096  16.671  12.317  12.884
43617W        W 9097  19.091  19.693   1.828
43618W        W 9098  34.955   1.311   1.415
43619W        W 9099  31.003   0.807   3.861
43620W        W 9100  17.612   5.257   4.307
43621W        W 9101  14.210   0.867  10.949
43622W        W 9102   4.359  44.400  14.938
43623W        W 9103  38.882  31.436   0.806
43624W        W 9104  14.761  31.015   4.723
43625W        W 9105  12.666  38.867   4.785
43626W        W 9106  26.462  24.537   4.285
43627W        W 9107  32.615  31.596  12.866
43628W        W 9108  37.375  33.566   2.862
43629W        W 9109  14.658  42.462  11.572
43630W        W 9110  37.419  19.568   4.658
43631W        W 9111  14.831  13.640   1.294
43632W        W 9112  40.889  13.620   1.374
43633W        W 9113   5.805  13.829   3.870
43634W        W 9114  26.000  21.662  13.394
43635W        W 9115  36.957   6.914   4.327
43636W        W 9116   1.266  43.906  10.508
43637W        W 9117  24.630  32.990  14.947
43638W        W 9118  17.121  38.457  10.492
43639W        W 9119  40.959  42.342   4.769
43640W        W 9120  11.149  21.084   2.232
43641W        W 9121  36.927  17.619   2.209
43642W        W 9122  32.142  37.555  14.330
43643W        W 9123  36.384  25.971   2.308
43644W        W 9124  25.568   0.814  14.980
43645W        W 9125  40.478  12.349  11.590
43646W        W 9126  10.757  12.302  11.102
43647W        W 9127  11.680  20.203   2.757
43648W        W 9128   2.416  21.257  12.967
43649W        W 9129  10.826   2.262  11.970
43650W        W 9130  23.156  37.344  12.533
43651W        W 9131   9.871  18.563  12.013
43652W        W 9132  21.526  23.514  11.558
43653W        W 9133  40.506  30.035   0.430
43654W        W 9134  20.044  26.081  13.940
43655W        W 9135  26.561   7.840  11.942
43656W        W 9136   4.796   5.734  13.492
43657W        W 9137  19.269  26.667   2.686
43658W        W 9138  26.148  41.424  14.003
43659W        W 9139   7.744   5.331  14.830
43660W        W 9140  34.456  11.318   4.244
43661W        W 9141  18.670   5.729   0.391
43662W        W 9142  21.041  27.017   4.291
43663W        W 9143   3.858  40.896  10.470
43664W        W 9144  19.646  39.492   4.613
43665W        W 9145  23.074   3.336   1.908
43666W        W 9146  11.323  25.708  11.025
43667W        W 9147  26.519  27.657  10.101
43668W        W 9148  21.546  28.670  11.483
43669W        W 9149   0.391  18.756   4.290
43670W        W 9150  39.818  21.252   4.353
43671W        W 9151  38.868  11.797  10.554
43672W        W 9152  16.666  14.687   2.696
43673W        W 9153  21.090  38.412  13.541
43674W        W 9154  22.116  28.602  11.569
43675W        W 9155  16.768   9.777   4.606
43676W        W 9156  25.127  16.264  10.526
43677W        W 9157  39.513  11.150  11.874
43678W        W 9158  19.282  23.528   3.826
43679W        W 9159  43.835   6.702   1.306
43680W        W 9160  25.692  20.652   3.679
43681W        W 9161  33.988  33.424   0.771
43682W        W 9162   7.819  19.137   2.870
43683W        W 9163  33.622  40.302  11.491
43684W        W 9164  39.521   9.673   0.869
43685W        W 9165  36.047  44.963  14.874
43686W        W 9166  36.411  33.458   2.746
43687W        W 9167  15.222  15.799  14.456
43688W        W 9168  39.356  23.178  10.464
43689W        W 9169  21.529   7.380   3.189
43690W        W 9170  12.760   4.297   1.815
43691W        W 9171  17.681  39.990  14.331
43692W        W 9172  31.624   3.826  12.426
43693W        W 9173  36.525  18.088  10.904
43694W        W 9174  37.945   7.723  14.938
43695W        W 9175  30.007  27.196   2.249
43696W        W 9176   8.681   1.436  11.938
43697W        W 9177  15.720  29.488   5.157
43698W        W 9178  26.208  29.649  13.899
43699W        W 9179  31.408  25.478  12.398
43700W        W 9180  22.225  12.767  11.055
43701W        W 9181   9.244  19.632  11.436
43702W        W 9182  29.588  31.138  13.407
43703W        W 9183  33.971  39.426   0.313
43704W        W 9184   3.820  35.467   3.375
43705W        W 9185  33.421  33.936  14.422
43706W        W 9186  18.557  31.002   1.933
43707W        W 9187  39.928   9.327   4.606
43708W        W 9188  16.622  19.579  12.411
43709W        W 9189   4.850  39.331   3.851
43710W        W 9190  11.258  26.702   0.393
43711W        W 9191  10.292  39.486  11.995
43712W        W 9192  32.557  30.997  14.394
43713W        W 9193  41.878   9.178  14.866
43714W        W 9194  34.914  10.646   3.291
43715W        W 9195  28.156  23.209  10.593
43716W        W 9196  35.084  12.736  14.987
43717W        W 9197  19.539  21.577   2.826
43718W        W 9198   8.757  43.399   0.425
43719W        W 9199  26.977   1.408   0.278
43720W        W 9200   2.863   4.325  12.053
43721W        W 9201  43.813  37.988   3.829
43722W        W 9202  31.111  33.520   2.344
43723W        W 9203  13.683  25.630  13.017
43724W        W 9204  38.569   6.283   2.830
43725W        W 9205  40.363  21.213   5.213
43726W        W 9206  39.891  36.880   2.672
43727W        W 9207  39.878  23.683   2.793
43728W        W 9208   1.274  36.075   2.229
43729W        W 9209  21.242  35.504   1.434
43730W        W 9210  21.603   6.187  11.042
43731W        W 9211  25.639  33.059  13.935
43732W        W 9212  35.897  33.405   2.891
43733W        W 9213  40.461  20.128  11.023
43734W        W 9214  10.255  21.714  14.342
43735W        W 9215   9.726  33.993   0.758
43736W        W 9216  18.743   8.389  12.404
43737W        W 9217  24.503  41.913   4.316
43738W        W 9218  36.393  27.679   0.789
43739W        W 9219  35.897  39.470  12.035
43740W        W 9220  35.517  24.030  13.410
43741W        W 9221   6.800  15.171  12.551
43742W        W 9222  37.527  11.777   0.356
43743W        W 9223  26.951  34.978   1.814
43744W        W 9224  35.434  28.501   3.730
43745W        W 9225  33.925  37.997  12.051
43746W        W 9226  40.901   2.728  11.915
43747W        W 9227  41.991   3.893   4.274
43748W        W 9228  14.172  34.551  12.045
43749W        W 9229  32.537   9.177  14.810
43750W        W 9230  29.518  19.063   4.835
43751W        W 9231  32.556   2.355   0.785
43752W        W 9232  22.118  40.430  12.860
43753W        W 9233   1.354   8.324   1.837
43754W        W 9234  29.972  44.996  12.898
43755W        W 9235  34.602  13.762  14.287
43756W        W 9236   3.740  10.173   2.868
43757W        W 9237  13.614   0.377   0.736
43758W        W 9238  28.609   3.452  14.871
43759W        W 9239  38.499  39.870  11.892
43760W        W 9240  41.897  41.808   1.816
43761W        W 9241  20.552  19.276   0.917
43762W        W 9242  40.321  25.110   1.798
43763W        W 9243  12.854   2.950  11.384
43764W        W 9244  12.119  31.075  13.490
43765W        W 9245   7.887  29.144   2.264
43766W        W 9246  15.324  14.610  12.544
43767W        W 9247   6.350  24.149  12.948
43768W        W 9248  43.769   8.227   2.772
43769W        W 9249  29.160   8.214   1.391
43770W        W 9250   3.878   9.193  14.011
43771W        W 9251  41.526  27.056  12.973
43772W        W 9252  10.147  24.698  13.053
43773W        W 9253  25.689  26.600  10.972
43774W        W 9254  14.715   0.346  11.585
43775W        W 9255  43.367   0.271   3.288
43776W        W 9256  27.152  17.167  12.362
43777W        W 9257  22.507  27.011   4.649
43778W        W 9258  18.121  17.151   1.267
43779W        W 9259  23.142  19.261  13.325
43780W        W 9260  38.414   6.760  14.430
43781W        W 9261  38.337  32.005   0.746
43782W        W 9262   0.332  36.938   2.788
43783W        W 9263  32.509  24.173  12.443
43784W        W 9264   0.390  39.038  13.837
43785W        W 9265  37.887  14.201  12.513
43786W        W 9266  20.761  25.210  13.806
43787W        W 9267  37.369   9.806   3.685
43788W        W 9268  21.191   6.853   3.272
43789W        W 9269  28.622  31.973   4.746
43790W        W 9270  42.444  37.846   2.409
43791W        W 9271  44.370  24.696  12.481
43792W        W 9272  15.230  25.060  10.934
43793W        W 9273  30.989  44.802   0.821
43794W        W 9274  21.543  35.366  14.886
43795W        W 9275  19.766  27.674  12.524
43796W        W 9276  26.607  19.746   2.209
43797W        W 9277  14.785   8.852   3.714
43798W        W 9278   4.778  35.004   5.102
43799W        W 9279  39.511  22.131   2.746
43800W        W 9280   6.890  18.248   2.863
43801W        W 9281  21.166  38.384  13.820
43802W        W 9282  25.073  17.107  14.512
43803W        W 9283  21.036  21.546  14.020
43804W        W 9284  44.286  36.546  13.943
43805W        W 9285  33.426   4.909   0.243
43806W        W 9286   0.431  36.414   3.764
43807W        W 9287  15.742  34.460   2.778
43808W        W 9288  11.276  16.112  12.381
43809W        W 9289   7.402  17.105   5.225
43810W        W 9290  20.625  22.731   3.636
43811W        W 9291  38.921  30.156  12.024
43812W        W 9292  41.480  30.952   3.673
43813W        W 9293  19.628  43.358  10.458
43814W        W 9294  20.035  32.099  14.994
43815W        W 9295   9.190  38.337  12.054
43816W        W 9296  27.571   7.175   0.904
43817W        W 9297  10.142  23.026  12.577
43818W        W 9298  37.577   3.331   1.434
43819W        W 9299   1.932   6.748   1.226
43820W        W 9300  39.952   0.930  12.447
43821W        W 9301  42.343   9.288   4.740
43822W        W 9302   6.386  30.101   4.228
43823W        W 9303  13.669  13.305  13.881
43824W        W 9304  43.424   5.321   3.667
43825W        W 9305   4.920  12.329   2.289
43826W        W 9306   9.309  42.491  13.982
43827W        W 9307  15.728  13.295   0.922
43828W        W 9308  31.979   8.297   1.379
43829W        W 9309  10.863  19.646  13.351
43830W        W 9310   9.372  36.994  13.461
43831W        W 9311   5.759  40.896   3.292
43832W        W 9312  42.386  18.211  13.437
43833W        W 9313   5.326  33.459   3.680
43834W        W 9314  18.732  27.006   0.398
43835W        W 9315  21.049  29.118   0.417
43836W        W 9316  29.439  18.204   0.831
43837W        W 9317  27.685   0.461   1.876
43838W        W 9318  21.026  28.548  14.001
43839W        W 9319  16.611   1.286  13.991
43840W        W 9320  28.123  15.780  11.867
43841W        W 9321   4.275  15.656   4.822
43842W        W 9322  38.552  34.956  13.401
43843W        W 9323  40.859  33.008   2.280
43844W        W 9324  27.458  21.613   1.257
43845W        W 9325  26.569  21.110   2.307
43846W        W 9326  38.551  31.525   0.791
43847W        W 9327  28.488   8.826   4.836
43848W        W 9328   8.182  22.726   4.606
43849W        W 9329  20.539  12.746   2.387
43850W        W 9330   6.272  11.782   4.333
43851W        W 9331   0.494  13.272   4.712
43852W        W 9332  32.495  27.657   4.738
43853W        W 9333   8.826  20.255  11.032
43854W        W 9334  29.139  19.586   1.431
43855W        W 9335   6.198  19.750   3.362
43856W        W 9336  43.437  33.539   1.334
43857W        W 9337  31.413  30.014   1.442
43858W        W 9338  28.091  23.625   1.390
43859W        W 9339  42.841  19.219   1.784
43860W        W 9340  13.632  15.209   1.757
43861W        W 9341  16.613  13.145   2.348
43862W        W 9342  37.066  29.536  14.936
43863W        W 9343   8.807  15.708  11.591
43864W        W 9344  15.695  37.420  10.987
43865W        W 9345   4.717  27.466   0.381
43866W        W 9346  13.673  10.659  12.433
43867W        W 9347   7.872   4.738   2.311
43868W        W 9348  13.637  26.122   0.261
43869W        W 9349  31.142  34.523   3.233
43870W        W 9350  11.341   3.456  13.011
43871W        W 9351  34.569   2.384  11.497
43872W        W 9352  18.211  34.092  14.011
43873W        W 9353  16.084  26.662  12.997
43874W        W 9354  21.030  35.061   1.325
43875W        W 9355  36.023  29.993  11.561
43876W        W 9356  12.688  42.805  13.031
43877W        W 9357  39.954   5.331   1.359
43878W        W 9358  23.566  17.118   2.362
43879W        W 9359  37.507  12.170  12.964
43880W        W 9360  34.003   0.766   0.286
43881W        W 9361  36.498   4.248  13.470
43882W        W 9362   1.757  14.233   2.810
43883W        W 9363  12.346  18.130  13.960
43884W        W 9364  31.435  21.223  13.338
43885W        W 9365  11.372  35.544   3.798
43886W        W 9366  40.812  27.655   4.631
43887W        W 9367  28.490   8.258   3.208
43888W        W 9368  11.652  31.146  10.463
43889W        W 9369  36.879   2.764   1.444
43890W        W 9370  36.526  36.851   3.346
43891W        W 9371  37.515  26.974   1.299
43892W        W 9372  25.612  31.451  13.048
43893W        W 9373  13.211  40.451  11.963
43894W        W 9374  14.141  41.977   5.223
43895W        W 9375  17.751  24.166  12.974
43896W        W 9376  11.654  44.288   4.236
43897W        W 9377  22.692  36.407   4.321
43898W        W 9378  22.059   3.347   1.702
43899W        W 9379  11.781   9.880  11.568
43900W        W 9380  34.503   8.761   2.842
43901W        W 9381  19.248  43.433  14.794
43902W        W 9382  29.480   9.730   0.870
43903W        W 9383  29.538  20.264  12.490
43904W        W 9384   0.306  39.920  11.912
43905W        W 9385  14.247  35.982  14.873
43906W        W 9386  41.831   1.833  14.018
43907W        W 9387  32.408   9.739   1.346
43908W        W 9388  15.299  35.584  12.844
43909W        W 9389  41.013  13.194  10.446
43910W        W 9390  20.674  38.979  12.449
43911W        W 9391   2.409  30.524   2.716
43912W        W 9392  35.864  26.172  13.337
43913W        W 9393  10.167   7.896   3.315
43914W        W 9394  35.379  12.801   4.621
43915W        W 9395  22.662   2.259   2.768
43916W        W 9396  41.989   5.692  13.977
43917W        W 9397  22.090  20.607   0.849
43918W        W 9398  38.993  12.315  14.898
43919W        W 9399   2.425   3.784  12.424
43920W        W 9400  19.095  43.012   2.772
43921W        W 9401  35.565   5.815   1.262
43922W        W 9402  32.927  32.093   2.210
43923W        W 9403  26.006  28.121  13.490
43924W        W 9404  32.952  41.945   3.674
43925W        W 9405  35.413  34.951   1.349
43926W        W 9406  36.887  43.463   0.357
43927W        W 9407   3.798  10.668   0.266
43928W        W 9408  39.420   5.299  14.009
43929W        W 9409   6.880  16.763  13.314
43930W        W 9410   8.198   4.405  14.391
43931W        W 9411  19.604  43.426   1.355
43932W        W 9412   7.401  39.327  12.913
43933W        W 9413   3.391  23.610   3.796
43934W        W 9414  11.273  43.404  14.504
43935W        W 9415  18.207   0.873   0.469
43936W        W 9416   5.216  13.273  14.957
43937W        W 9417  23.599  19.777   3.212
43938W        W 9418   0.776  13.130   1.791
43939W        W 9419  39.910   6.841  10.524
43940W        W 9420  19.689  39.852   1.281
43941W        W 9421  23.563  42.946  14.022
43942W        W 9422  20.093  21.610   0.952
43943W        W 9423   5.770  23.701  12.467
43944W        W 9424  31.427  30.015  11.597
43945W        W 9425   5.900   0.422   1.329
43946W        W 9426   0.980  23.991  12.406
43947W        W 9427  15.205  11.842  10.903
43948W        W 9428   7.834  40.956  13.505
43949W        W 9429  25.215  43.788  14.321
43950W        W 9430  16.214  37.863   1.412
43951W        W 9431  13.600  35.373   4.318
43952W        W 9432  41.491   3.867   5.247
43953W        W 9433  28.678  24.216  13.460
43954W        W 9434  20.648  19.609   1.429
43955W        W 9435   6.384  14.810  13.905
43956W        W 9436  14.747   8.168   1.836
43957W        W 9437  38.948  33.438  14.419
43958W        W 9438  10.746  42.024   1.745
43959W        W 9439  20.111   2.731  11.537
43960W        W 9440   4.873   1.412  10.543
43961W        W 9441   1.436  11.368  11.576
43962W        W 9442  36.863   5.789  13.501
43963W        W 9443  26.646   8.798   3.810
43964W        W 9444   6.692   4.913   1.422
43965W        W 9445  43.007  34.895   1.273
43966W        W 9446  24.034  38.371   2.261
43967W        W 9447  38.568  12.296  11.061
43968W        W 9448   9.666  21.543  12.578
43969W        W 9449  27.446  12.763   2.240
43970W        W 9450   3.949   1.949   5.134
43971W        W 9451   5.751  10.368  13.450
43972W        W 9452   2.439  18.069  14.029
43973W        W 9453   4.754  22.093   1.754
43974W        W 9454  22.690   3.954  12.359
43975W        W 9455   6.369  20.667  13.476
43976W        W 9456  44.805   3.345  13.988
43977W        W 9457  30.047  42.871   1.809
43978W        W 9458  14.620  42.799  10.529
43979W        W 9459  30.608  34.411   1.435
43980W        W 9460   5.848  38.848  13.474
43981W        W 9461   8.325  40.400  14.963
43982W        W 9462  41.857  20.044   0.282
43983W        W 9463  27.453   7.354   2.888
43984W        W 9464  35.853   6.875  10.427
43985W        W 9465  24.193  38.835  10.553
43986W        W 9466  28.559   7.396  14.803
43987W        W 9467  31.632  37.957  10.510
43988W        W 9468  10.191  24.482  11.112
43989W        W 9469  43.983  21.569   3.205
43990W        W 9470  13.300  29.949   1.404
43991W        W 9471   9.652  20.753   0.251
43992W        W 9472  29.989  33.391  13.541
43993W        W 9473  17.249   7.909   1.436
43994W        W 9474  34.602  28.976  13.494
43995W        W 9475  33.976  24.050  10.989
43996W        W 9476   4.896  44.948  12.529
43997W        W 9477  15.672  20.684  11.463
43998W        W 9478  40.848  41.318  11.601
43999W        W 9479  31.940  36.984  12.526
44000W        W 9480  37.848  21.090  13.323
44001W        W 9481  38.992  13.137  13.456
44002W        W 9482  27.112  36.420  10.493
44003W        W 9483  31.633  12.299   1.864
44004W        W 9484  22.537   9.799  11.610
44005W        W 9485   4.318  35.870  13.324
44006W        W 9486  32.402  12.335  13.899
44007W        W 9487  21.143  22.065   2.889
44008W        W 9488  13.186  10.781   0.871
44009W        W 9489  28.133  28.492   2.193
44010W        W 9490  21.680  33.902   2.830
44011W        W 9491   4.845  25.515  13.339
44012W        W 9492  41.444  41.480  10.914
44013W        W 9493  40.490   6.723  14.849
44014W        W 9494  44.341   3.433   1.220
44015W        W 9495  32.631  40.504   3.772
44016W        W 9496  27.034   6.891  13.052
44017W        W 9497  31.027  17.065   2.337
44018W        W 9498   1.919  27.560  12.381
44019W        W 9499  21.599  22.678  12.985
44020W        W 9500   0.886  19.169  14.491
44021W        W 9501  41.854  26.980   0.266
44022W        W 9502   2.870  17.276  14.830
44023W        W 9503  12.722  27.572  10.561
44024W        W 9504  11.145  13.319  13.955
44025W        W 9505  41.332  12.776   0.466
44026W        W 9506  29.478  15.678   0.370
44027W        W 9507  34.065  28.597   2.367
44028W        W 9508  19.145  30.146   2.816
44029W        W 9509   4.744  22.714  11.948
44030W        W 9510   1.903  26.026  11.106
44031W        W 9511  15.185  44.952   3.790
44032W        W 9512  15.175  10.292  14.942
44033W        W 9513  38.914  34.368  14.512
44034W        W 9514  19.688  20.741  12.963
44035W        W 9515  31.101  34.095  12.996
44036W        W 9516  36.888  36.085  14.420
44037W        W 9517  11.840  36.522  10.511
44038W        W 9518  19.606  14.293  11.480
44039W        W 9519  11.648  17.143  11.407
44040W        W 9520  15.147  33.068   3.319
44041W        W 9521  43.011   5.760   4.284
44042W        W 9522  39.504   3.420   2.352
44043W        W 9523  31.498   2.883   0.450
44044W        W 9524  31.485  37.871  14.513
44045W        W 9525  42.370  33.973  13.804
44046W        W 9526  33.973  28.172   1.269
44047W        W 9527  32.445   4.916  14.300
44048W        W 9528   4.778   5.242   4.204
44049W        W 9529  37.475  28.950   1.405
44050W        W 9530  19.658   5.808   0.437
44051W        W 9531  40.908  29.170  14.953
44052W        W 9532  31.620  33.073  14.848
44053W        W 9533  27.017  41.825  14.477
44054W        W 9534  25.151  40.417  14.922
44055W        W 9535  12.314  43.273  12.869
44056W        W 9536  10.685  33.601  12.893
44057W        W 9537  37.988  29.463   0.366
44058W        W 9538  13.814  38.448  14.364
44059W        W 9539  19.539  38.915   4.315
44060W        W 9540  25.974  21.030   2.793
44061W        W 9541  19.726   9.688   0.894
44062W        W 9542   8.846  21.517  13.036
44063W        W 9543  40.415   7.258   3.349
44064W        W 9544  17.773  11.832  13.832
44065W        W 9545   8.829   5.410   1.285
44066W        W 9546  37.449  40.810   1.364
44067W        W 9547   8.283   5.211  10.447
44068W        W 9548  43.954  15.768   3.295
44069W        W 9549  25.090  19.043  14.837
44070W        W 9550  16.143  12.689   4.337
44071W        W 9551  37.364  31.084  11.380
44072W        W 9552   6.261   3.777   1.359
44073W        W 9553  37.510   0.781   3.312
44074W        W 9554  28.583  36.517   4.246
44075W        W 9555  29.147   5.259  13.030
44076W        W 9556   5.396   6.719  11.584
44077W        W 9557  18.244  42.831  11.496
44078W        W 9558  13.753  19.204   3.174
44079W        W 9559  11.342  15.236  14.879
44080W        W 9560  33.389  30.952  10.978
44081W        W 9561  22.166   3.951   3.710
44082W        W 9562  31.447  30.020   3.867
44083W        W 9563   1.851  43.999  11.074
44084W        W 9564   5.226  37.428  12.527
44085W        W 9565  14.143  43.436  13.532
44086W        W 9566   4.757  40.511   3.787
44087W        W 9567  41.001  17.637  12.013
44088W        W 9568  40.828  17.155   9.492
44089W        W 9569  27.570  20.194   1.366
44090W        W 9570  21.517  39.435  13.931
44091W        W 9571  15.092  15.619   3.776
44092W        W 9572   9.245  12.614  13.939
44093W        W 9573  24.023   2.765  11.593
44094W        W 9574  26.491  16.794  11.491
44095W        W 9575  21.130  34.930  14.875
44096W        W 9576  14.753  23.692  12.522
44097W        W 9577  27.525   6.821  11.547
44098W        W 9578   2.804  29.453   4.296
44099W        W 9579  37.872  28.472  10.418
44100W        W 9580   8.402   8.314  12.029
44101W        W 9581  31.445  37.565  14.832
44102W        W 9582   3.885  43.435   1.757
44103W        W 9583  44.820  16.075   2.367
44104W        W 9584  37.505  41.924  12.505
44105W        W 9585  26.488  26.487  10.139
44106W        W 9586  21.610  44.839   2.882
44107W        W 9587   8.783  14.747   1.357
44108W        W 9588  43.792  31.987   2.746
44109W        W 9589  38.923  15.284   4.815
44110W        W 9590  31.150  22.527   0.407
44111W        W 9591  44.841  30.536  11.413
44112W        W 9592  26.147  20.598  10.464
44113W        W 9593  40.477  21.602  13.911
44114W        W 9594  14.737  40.320  14.971
44115W        W 9595  10.197  17.775   1.338
44116W        W 9596  11.668  42.406   1.715
44117W        W 9597  38.953  43.943   2.740
44118W        W 9598   3.349  44.968   2.812
44119W        W 9599  27.646  35.522   3.778
44120W        W 9600  25.564  13.256   1.842
44121W        W 9601   5.244  22.207  14.896
44122W        W 9602  10.645   2.805   4.221
44123W        W 9603  24.591  15.791  11.548
44124W        W 9604  41.452  29.948   3.780
44125W        W 9605  11.860  38.408   4.216
44126W        W 9606  28.658  13.246   1.854
44127W        W 9607  30.998  11.625  13.444
44128W        W 9608  34.869  15.701   4.682
44129W        W 9609  40.028  21.171   0.840
44130W        W 9610  18.668  37.970  14.331
44131W        W 9611  28.162   9.206   0.402
44132W        W 9612   4.357  19.240  14.396
44133W        W 9613  34.396  16.300   4.128
44134W        W 9614  13.742  11.328   2.277
44135W        W 9615  39.948  13.330  14.842
44136W        W 9616   4.818   2.329   1.277
44137W        W 9617   2.429   6.374  13.351
44138W        W 9618  32.900  33.936   3.182
44139W        W 9619  37.957  40.450   0.420
44140W        W 9620  24.035  36.460  11.961
44141W        W 9621  30.023  15.599  14.888
44142W        W 9622  16.611  27.941   0.342
44143W        W 9623   8.814  33.403  12.884
44144W        W 9624  24.993   4.289  14.456
44145W        W 9625  21.566  40.934   3.213
44146W        W 9626  39.532  36.900   3.715
44147W        W 9627  22.244  25.128  10.930
44148W        W 9628  19.134  16.206   0.434
44149W        W 9629  15.175   5.401  14.854
44150W        W 9630  34.551  42.032   4.678
44151W        W 9631  16.714  35.108  11.884
44152W        W 9632  12.277  36.383   0.896
44153W        W 9633  18.570  22.575   5.261
44154W        W 9634  12.747   6.256  14.464
44155W        W 9635  23.675  29.011   3.782
44156W        W 9636  34.074  28.092   4.173
44157W        W 9637  31.122  15.728  14.500
44158W        W 9638  22.205  36.848   0.784
44159W        W 9639   5.340  44.941  13.804
44160W        W 9640  25.591  14.645  10.609
44161W        W 9641   3.783  33.043   1.221
44162W        W 9642  21.587  28.490   2.293
44163W        W 9643  26.697  28.489   3.327
44164W        W 9644  25.201  23.135  10.489
44165W        W 9645  37.344   1.427  12.400
44166W        W 9646   7.415  21.555   2.846
44167W        W 9647  39.890  26.460  13.928
44168W        W 9648  12.777  18.243   4.309
44169W        W 9649  17.270  42.504  14.950
44170W        W 9650  15.085   7.303  11.930
44171W        W 9651  34.091  27.956   0.262
44172W        W 9652  36.011   8.254   4.128
44173W        W 9653  10.218  38.453   4.717
44174W        W 9654  38.380  25.139   2.179
44175W        W 9655   6.685  11.669   1.855
44176W        W 9656  24.679   2.384   0.406
44177W        W 9657   6.846  31.645   0.330
44178W        W 9658  23.061  37.033  11.861
44179W        W 9659  17.176  28.517   3.309
44180W        W 9660  34.935  18.258   1.383
44181W        W 9661   0.337  19.098   3.639
44182W        W 9662   0.912  38.551   4.804
44183W        W 9663   2.233  39.560   0.408
44184W        W 9664   4.442   4.729  14.905
44185W        W 9665  33.439  34.898  14.773
44186W        W 9666  42.381  29.491  13.853
44187W        W 9667  34.548  13.194  12.828
44188W        W 9668  39.843  28.182   1.393
44189W        W 9669  18.258  22.738  10.445
44190W        W 9670  44.896  21.146  11.442
44191W        W 9671  19.144  23.552   4.605
44192W        W 9672  38.976  42.906   1.316
44193W        W 9673  12.831  27.107   2.203
44194W        W 9674  29.588  35.952   9.979
44195W        W 9675  26.595   4.305  14.351
44196W        W 9676   7.866  35.518  14.760
44197W        W 9677  34.009  12.634  11.887
44198W        W 9678  43.332  26.956   0.925
44199W        W 9679   6.207  13.321  10.542
44200W        W 9680   2.292  13.677   3.164
44201W        W 9681  34.954  27.626   0.291
44202W        W 9682  30.141   4.322  11.866
44203W        W 9683   2.260  39.516  10.538
44204W        W 9684   8.707  42.425  12.556
44205W        W 9685  15.667   7.733  13.966
44206W        W 9686  34.919  42.800   4.126
44207W        W 9687  39.906  41.441   3.685
44208W        W 9688  29.102  25.171  13.983
44209W        W 9689   9.768  20.173   0.248
44210W        W 9690   8.292   5.897  14.989
44211W        W 9691  14.198   2.962  12.404
44212W        W 9692  18.602  13.697  11.600
44213W        W 9693  37.899  12.297  10.596
44214W        W 9694  44.988  18.260   4.701
44215W        W 9695  26.016  14.167   2.835
44216W        W 9696  42.888  21.049   2.183
44217W        W 9697  23.988  44.301  12.928
44218W        W 9698   2.848   5.422  13.886
44219W        W 9699   7.691  36.910   0.785
44220W        W 9700   8.844  19.720  10.908
44221W        W 9701   7.771  33.943  12.427
44222W        W 9702  18.147  19.718  10.602
44223W        W 9703   2.255   1.256   2.697
44224W        W 9704  13.348  41.331  12.394
44225W        W 9705  25.585  10.201  11.999
44226W        W 9706   0.815  34.981  11.501
44227W        W 9707  32.987  15.789  14.871
44228W        W 9708  27.613  44.377   3.777
44229W        W 9709  25.665  41.908   1.298
44230W        W 9710  20.124  28.583   1.725
44231W        W 9711   1.364  11.155   3.832
44232W        W 9712  26.079  37.947   0.735
44233W        W 9713  43.333   9.292  12.556
44234W        W 9714   8.197  36.096   3.373
44235W        W 9715   3.716  32.489  12.394
44236W        W 9716   0.338  12.732  11.855
44237W        W 9717   8.399  39.902  10.525
44238W        W 9718  31.648  20.635   4.673
44239W        W 9719  33.615  31.912   2.715
44240W        W 9720  40.860  12.847  10.579
44241W        W 9721   0.477  34.448   4.163
44242W        W 9722  18.776  24.027   3.305
44243W        W 9723   5.204   5.323   0.464
44244W        W 9724  10.675   7.822  10.479
44245W        W 9725  44.405   2.340   2.356
44246W        W 9726  32.038  14.102  14.451
44247W        W 9727  17.772  22.577  10.976
44248W        W 9728  35.512  42.025  14.981
44249W        W 9729  39.059  40.997  11.918
44250W        W 9730   5.723  42.797  13.975
44251W        W 9731  42.866  27.482   1.858
44252W        W 9732  44.776  14.282  10.481
44253W        W 9733   1.921  40.429  13.367
44254W        W 9734  18.602  12.254   0.733
44255W        W 9735   4.417  20.593  11.884
44256W        W 9736  28.040   5.793   1.724
44257W        W 9737  21.591  37.921  13.960
44258W        W 9738  10.694   0.308   1.390
44259W        W 9739   9.333  35.857   1.851
44260W        W 9740  29.455  28.036   2.881
44261W        W 9741  11.636  27.580  11.402
44262W        W 9742  24.053   7.855   2.332
44263W        W 9743  27.031  35.891   2.231
44264W        W 9744  41.455  14.733  10.897
44265W        W 9745   8.788  33.900  11.412
44266W        W 9746  32.941  42.383  11.966
44267W        W 9747   2.267  13.758   3.708
44268W        W 9748  10.200  14.628  11.920
44269W        W 9749  44.431  43.919  13.405
44270W        W 9750  37.853  23.575   3.167
44271W        W 9751  42.829   8.320   1.764
44272W        W 9752  29.080  42.355   0.402
44273W        W 9753   4.418  43.452  13.888
44274W        W 9754   1.393  34.989  11.983
44275W        W 9755   2.407   2.743   0.245
44276W        W 9756   8.775  32.481  14.868
44277W        W 9757  38.512  31.506  13.478
44278W        W 9758  30.468  21.123   1.377
44279W        W 9759   8.369  28.612   0.842
44280W        W 9760   8.711  29.150  10.479
44281W        W 9761  10.138  29.098  11.001
44282W        W 9762  39.364  28.053  12.406
44283W        W 9763  42.409  22.674  14.431
44284W        W 9764  11.815  43.968   2.725
44285W        W 9765  35.529  42.494   0.735
44286W        W 9766  29.442   6.220   0.424
44287W        W 9767  16.597  25.621   4.632
44288W        W 9768  31.571  41.971   2.275
44289W        W 9769  37.443   3.736  13.873
44290W        W 9770   6.344   4.842  13.499
44291W        W 9771  23.999  13.645   4.635
44292W        W 9772  11.764   2.745   1.227
44293W        W 9773  16.159  42.007   1.302
44294W        W 9774  26.037  22.539  13.991
44295W        W 9775  42.008   6.840   5.213
44296W        W 9776  20.694  10.318   2.695
44297W        W 9777  36.361  37.464  12.473
44298W        W 9778  34.438   5.341   3.642
44299W        W 9779  24.134  33.567  10.127
44300W        W 9780  29.489   1.463   1.238
44301W        W 9781  42.338  26.091   1.709
44302W        W 9782   9.379   3.280  13.309
44303W        W 9783  36.563  11.720  13.882
44304W        W 9784  37.907   9.373  12.086
44305W        W 9785  40.507  12.227  12.413
44306W        W 9786  26.124  28.161  12.464
44307W        W 9787   0.782  28.155   0.951
44308W        W 9788   7.841  32.050  12.914
44309W        W 9789  13.254  17.152   3.259
44310W        W 9790   4.421   4.441  13.500
44311W        W 9791  44.436  42.875  11.512
44312W        W 9792  11.197  36.921   4.175
44313W        W 9793   8.199  44.967  14.296
44314W        W 9794  42.516   1.759  11.085
44315W        W 9795   1.913  27.961  13.897
44316W        W 9796  26.031  29.942   1.825
44317W        W 9797  10.172  38.555  14.350
44318W        W 9798  32.908  39.527   4.350
44319W        W 9799  42.428  36.537  10.965
44320W        W 9800  22.674  11.136  13.408
44321W        W 9801  27.109  35.054   4.342
44322W        W 9802   6.856   9.289   1.304
44323W        W 9803  33.006  38.559  11.961
44324W        W 9804  27.967  15.100  14.303
44325W        W 9805  21.039   8.886   0.460
44326W        W 9806   7.177  11.283   3.221
44327W        W 9807  20.536  44.339   4.215
44328W        W 9808  13.683  37.842   1.219
44329W        W 9809  27.115  15.647  12.938
44330W        W 9810  17.120  16.297   2.404
44331W        W 9811  17.142  18.242  10.483
44332W        W 9812  23.222  31.458   4.807
44333W        W 9813  19.587  39.036  13.548
44334W        W 9814  39.383  30.106   2.323
44335W        W 9815  21.576  33.483  10.897
44336W        W 9816  43.018  37.573   2.697
44337W        W 9817   9.395  17.287  13.458
44338W        W 9818  20.196  40.343   0.276
44339W        W 9819  34.039  42.473   1.812
44340W        W 9820   5.229  30.559   4.341
44341W        W 9821  24.091  29.474  10.521
44342W        W 9822  23.507  16.669  14.322
44343W        W 9823  38.523   6.293   3.287
44344W        W 9824  43.901  11.649   3.156
44345W        W 9825  32.920  29.474  12.944
44346W        W 9826  15.678   6.768  12.999
44347W        W 9827  19.126   3.416  10.903
44348W        W 9828  19.168  30.970  10.991
44349W        W 9829  43.794  33.104  10.443
44350W        W 9830  11.840  30.935   3.765
44351W        W 9831  18.119  35.943   3.687
44352W        W 9832  43.804  13.309  14.347
44353W        W 9833  20.589  30.946  10.457
44354W        W 9834   3.950  36.390  12.990
44355W        W 9835  14.103  16.125  14.023
44356W        W 9836  27.158  27.566  12.479
44357W        W 9837  42.309   4.749   2.887
44358W        W 9838   6.273  33.958   2.673
44359W        W 9839  37.392  34.380  10.635
44360W        W 9840  33.453  11.250   4.320
44361W        W 9841  42.856  26.501  10.593
44362W        W 9842  40.979  25.078  12.842
44363W        W 9843   0.485  25.101   1.452
44364W        W 9844  20.695  10.258  10.958
44365W        W 9845  26.488  25.160  14.881
44366W        W 9846  43.468  36.035  10.115
44367W        W 9847  33.481  14.270   3.662
44368W        W 9848  10.673  33.079   2.661
44369W        W 9849  13.347  29.484  12.560
44370W        W 9850  32.460  37.428  12.899
44371W        W 9851   0.471  16.764   3.173
44372W        W 9852  39.499  25.144  14.480
44373W        W 9853  20.172   6.424   2.241
44374W        W 9854   8.298  11.804  12.552
44375W        W 9855  26.502  30.656   3.832
44376W        W 9856  15.689  15.775  10.993
44377W        W 9857  37.894  39.553  12.858
44378W        W 9858  38.358  35.880  12.916
44379W        W 9859  19.607  44.832   4.220
44380W        W 9860  14.627   4.446   2.866
44381W        W 9861  34.007  29.942  12.013
44382W        W 9862  36.527  35.041   1.292
44383W        W 9863  27.680  41.909   2.903
44384W        W 9864  37.006  34.576   2.267
44385W        W 9865  21.152   9.169  12.927
44386W        W 9866  43.830   6.846   0.412
44387W        W 9867  13.603   7.215   2.792
44388W        W 9868  10.337   2.247  10.550
44389W        W 9869   5.896  37.895  12.451
44390W        W 9870  16.313  39.811   0.439
44391W        W 9871   1.345   2.303   3.694
44392W        W 9872   8.327  14.795  14.469
44393W        W 9873  16.694   3.247   1.225
44394W        W 9874  22.544  26.641   0.472
44395W        W 9875  26.608  24.977  13.402
44396W        W 9876   9.266   1.900  14.365
44397W        W 9877   8.367  22.679   2.250
44398W        W 9878  38.019   6.286  11.533
44399W        W 9879  27.982  22.031   2.825
44400W        W 9880  12.771  12.816   3.756
44401W        W 9881  10.264   9.370   4.740
44402W        W 9882  39.865  21.652  11.523
44403W        W 9883  24.565   0.968   3.179
44404W        W 9884   6.825  33.439  11.099
44405W        W 9885  28.141  25.220   1.238
44406W        W 9886  33.940  42.884   0.778
44407W        W 9887   0.770  29.510   1.799
44408W        W 9888  33.427  37.872  11.857
44409W        W 9889   3.245  29.558   3.815
44410W        W 9890   3.412  19.283  14.361
44411W        W 9891  14.651  29.006   1.234
44412W        W 9892  37.418  39.384   2.810
44413W        W 9893  42.014  27.172  13.008
44414W        W 9894  38.457  14.117  14.419
44415W        W 9895  34.966  42.488   0.427
44416W        W 9896  10.243  44.932  12.407
44417W        W 9897  16.264  27.559  13.943
44418W        W 9898  23.227  38.021   3.791
44419W        W 9899  38.934  15.140   3.819
44420W        W 9900   8.284   2.839   3.291
44421W        W 9901  30.604   8.702   2.325
44422W        W 9902  20.189  43.865   0.825
44423W        W 9903  33.509  34.549   1.276
44424W        W 9904  32.437   2.458  12.860
44425W        W 9905  33.941  44.889   2.787
44426W        W 9906   4.321  11.819  11.922
44427W        W 9907  23.585  32.534  14.016
44428W        W 9908  11.358  36.354   4.631
44429W        W 9909  24.640  11.300  14.284
44430W        W 9910  11.849  29.669   0.834
44431W        W 9911  34.597  40.952  14.510
44432W        W 9912   1.772   5.924   2.684
44433W        W 9913  20.646  39.869   4.610
44434W        W 9914  28.115  30.974   1.756
44435W        W 9915  18.268  12.186   1.829
44436W        W 9916  15.120  19.738  14.411
44437W        W 9917  31.443  36.360  12.525
44438W        W 9918  30.533  10.807   3.162
44439W        W 9919  17.748  29.642   0.921
44440W        W 9920  14.773  22.227  10.560
44441W        W 9921  39.463  41.829   0.302
44442W        W 9922  36.448  18.656   4.662
44443W        W 9923  22.657   7.890  14.808
44444W        W 9924  12.663  14.797  13.378
44445W        W 9925  41.483  10.684  12.092
44446W        W 9926  25.160  16.661   2.363
44447W        W 9927  22.208  20.708   0.456
44448W        W 9928   5.734   9.860  14.779
44449W        W 9929  38.380   9.177  14.368
44450W        W 9930  14.259  39.383  13.818
44451W        W 9931  24.147   4.840   2.339
44452W        W 9932  25.192   9.311   3.219
44453W        W 9933  13.116  19.686   1.272
44454W        W 9934   0.417  27.580   2.406
44455W        W 9935  42.366  10.820   4.146
44456W        W 9936   4.407   5.793   0.383
44457W        W 9937  33.968  27.081   2.842
44458W        W 9938  36.480   7.377  13.401
44459W        W 9939  27.112   4.806  13.341
44460W        W 9940  44.450  17.664  14.022
44461W        W 9941   7.734  31.081   4.720
44462W        W 9942  28.053  21.027   2.892
44463W        W 9943  31.104  29.930  14.355
44464W        W 9944  26.480  40.865  14.324
44465W        W 9945  39.442  11.351  14.497
44466W        W 9946  17.634  31.971  13.442
44467W        W 9947  35.458  35.362  14.795
44468W        W 9948  19.624   3.925  12.050
44469W        W 9949  29.660  28.672  12.404
44470W        W 9950  15.699   6.910   1.803
44471W        W 9951  26.498   7.868  14.780
44472W        W 9952  42.410  19.759  11.506
44473W        W 9953  30.041  21.074  12.953
44474W        W 9954  26.619  39.896   3.658
44475W        W 9955  29.142  44.989  12.450
44476W        W 9956  34.397  11.699   0.271
44477W        W 9957  28.036  43.927   0.293
44478W        W 9958  18.765  32.895  11.525
44479W        W 9959   8.384  25.195   4.311
44480W        W 9960  31.959   7.369   2.222
44481W        W 9961   8.211  42.993  12.573
44482W        W 9962  24.033   0.956  12.957
44483W        W 9963  12.827  17.094  14.853
44484W        W 9964   6.743  23.717   2.184
44485W        W 9965  22.715  39.481  12.828
44486W        W 9966   4.817  18.166  14.280
44487W        W 9967  24.205  39.966  14.769
44488W        W 9968  42.840  32.142  13.511
44489W        W 9969  13.690   5.365  13.958
44490W        W 9970  16.136  13.244   0.737
44491W        W 9971   1.469  36.038   1.302
44492W        W 9972  27.108  42.873   2.775
44493W        W 9973  37.989  43.426   2.293
44494W        W 9974  17.245  24.553   1.363
44495W        W 9975   2.777  30.056   0.427
44496W        W 9976  29.978  32.412  10.452
44497W        W 9977  12.619  20.112  14.894
44498W        W 9978  26.155  26.560   0.317
44499W        W 9979  20.162   9.796  13.060
44500W        W 9980   6.911   3.839  11.511
44501W        W 9981  10.298  10.844  12.519
44502W        W 9982   5.226  39.872   4.277
44503W        W 9983   4.772  23.601   1.306
44504W        W 9984  10.678  20.621  11.068
44505W        W 9985  37.855  24.690   2.779
44506W        W 9986  18.790  11.685   4.718
44507W        W 9987  27.506  18.250  12.358
44508W        W 9988   6.761   0.800   4.812
44509W        W 9989  25.709  30.652   5.222
44510W        W 9990  23.519  22.710   0.849
44511W        W 9991   3.418  43.961   3.162
44512W        W 9992  34.421  29.451  10.907
44513W        W 9993  27.470  29.653  12.485
44514W        W 9994  12.316  22.029  13.851
44515W        W 9995  36.385  38.325  13.982
44516W        W 9996  33.464  18.061  12.018
44517W        W 9997  32.094  38.930   3.740
44518W        W 9998  17.270  28.067   0.735
44519W        W 9999   0.357  33.909   0.867
44520W        W10000  40.381  27.547  13.926
44521W        W10001  39.359  12.730  14.432
44522W        W10002  39.891  24.979   2.667
44523W        W10003  26.077  22.116  14.352
44524W        W10004  13.672  12.834  14.288
44525W        W10005  27.490  27.685   0.298
44526W        W10006  11.183  43.468  13.996
44527W        W10007  24.113  40.039  10.451
44528W        W10008  38.987  10.797  10.997
44529W        W10009  34.039  37.884  12.878
44530W        W10010  31.939   6.411  14.834
44531W        W10011  40.371  33.381   3.737
44532W        W10012   9.263  24.530  13.863
44533W        W10013   0.975  19.549   3.315
44534W        W10014  30.088   8.692  13.450
44535W        W10015  12.739  18.701  14.376
44536W        W10016   6.917  33.906  14.908
44537W        W10017  42.447  19.091   2.209
44538W        W10018  38.986  24.669  10.572
44539W        W10019  31.929  42.832   4.616
44540W        W10020   4.309  35.025  13.391
44541W        W10021   7.326  37.530   1.349
44542W        W10022  25.512  39.976  13.949
44543W        W10023  41.532   7.832   1.851
44544W        W10024  44.000  19.627   4.828
44545W        W10025  12.167  43.453   1.754
44546W        W10026   8.182  10.365  13.347
44547W        W10027  18.218  37.852  11.508
44548W        W10028   5.300   4.246  13.861
44549W        W10029  29.939  33.030  11.392
44550W        W10030   8.741   8.380  10.501
44551W        W10031  43.434  44.374  14.967
44552W        W10032  15.235  44.759  11.397
44553W        W10033  38.915  44.415   9.988
44554W        W10034  33.441  34.409   0.961
44555W        W10035  21.100  25.511   0.469
44556W        W10036   8.731  40.309  11.881
44557W        W10037   0.393  43.338  12.868
44558W        W10038  38.050  14.300  14.978
44559W        W10039  42.330  40.498   4.795
44560W        W10040  14.327   5.703  13.956
44561W        W10041  42.286  41.802   3.791
44562W        W10042   9.738  39.047   1.702
44563W        W10043  16.276  41.389   1.270
44564W        W10044  37.488  43.928  12.450
44565W        W10045  19.207  43.013  11.484
44566W        W10046  40.526  31.940   3.295
44567W        W10047  10.260  38.059   4.199
44568W        W10048  29.009  38.038  13.901
44569W        W10049  42.798   3.318   3.348
44570W        W10050  28.161   1.960   3.272
44571W        W10051  15.782  26.171   4.231
44572W        W10052  36.389   2.745  13.375
44573W        W10053  44.294  22.521  11.935
44574W        W10054   4.406  44.278   4.666
44575W        W10055  33.515  19.269   0.840
44576W        W10056  26.587  13.280   4.144
44577W        W10057   8.335  30.530   0.400
44578W        W10058  36.873  33.959   0.394
44579W        W10059  14.783   9.311  11.055
44580W        W10060  23.660  40.443  12.396
44581W        W10061  11.178  27.523  10.976
44582W        W10062   8.833  42.785  13.978
44583W        W10063  17.235  43.344  11.469
44584W        W10064  36.962  16.089  13.469
44585W        W10065  38.901  41.356   5.137
44586W        W10066  32.079  23.573   0.855
44587W        W10067   1.443  18.150  11.957
44588W        W10068   1.904  37.050   2.731
44589W        W10069  15.631  40.002   4.266
44590W        W10070  13.324  27.493   0.399
44591W        W10071  30.480   0.420  14.012
44592W        W10072  23.676  14.173  12.953
44593W        W10073   8.854  38.040  11.981
44594W        W10074   4.926  39.525  13.400
44595W        W10075  14.638   0.774  14.447
44596W        W10076  25.060   0.350   4.191
44597W        W10077  17.761  42.986  13.950
44598W        W10078  35.533  39.868  13.491
44599W        W10079  13.838  43.988  14.765
44600W        W10080  39.998  41.514  12.948
44601W        W10081  36.391   7.209   9.980
44602W        W10082  11.234  25.520  13.500
44603W        W10083   9.769  29.557  13.912
44604W        W10084   0.383  32.486  11.438
44605W        W10085  38.015  36.926   1.226
44606W        W10086  29.977  42.799  11.103
44607W        W10087  41.448  44.436   3.295
44608W        W10088  32.037  44.357   2.198
44609W        W10089  12.632  27.502  13.400
44610W        W10090   9.343   2.465   1.749
44611W        W10091  27.532   2.727   0.827
44612W        W10092  29.623  28.102  14.407
44613W        W10093  26.135  26.164   1.790
44614W        W10094   7.791  11.845   2.196
44615W        W10095   8.754   9.853  14.277
44616W        W10096  33.392  19.212  13.406
44617W        W10097  17.627  39.040   2.195
44618W        W10098  15.709  37.003  11.505
44619W        W10099  27.968  40.524  12.558
44620W        W10100  24.097  22.604  11.524
44621W        W10101  43.451   7.171  10.546
44622W        W10102   6.750  28.123   0.321
44623W        W10103  38.349   9.695   3.684
44624W        W10104   3.777   6.354  10.567
44625W        W10105  15.234  31.540   4.156
44626W        W10106  27.637  29.531  13.818
44627W        W10107  15.701  22.550   0.840
44628W        W10108  29.527  20.107   2.825
44629W        W10109  27.549   9.318   3.657
44630W        W10110  15.692   7.367   3.670
44631W        W10111  29.036  43.326  13.000
44632W        W10112   9.649  31.971  11.053
44633W        W10113  27.173  12.251   1.868
44634W        W10114  39.449  35.088   0.921
44635W        W10115  16.812   2.724   0.870
44636W        W10116  10.284  31.911   0.933
44637W        W10117  28.010  31.622  11.425
44638W        W10118  42.444  44.354  11.124
44639W        W10119  23.632   5.727   2.678
44640W        W10120  35.380  16.785  12.361
44641W        W10121  29.112  35.588   0.249
44642W        W10122  42.865   9.747  13.053
44643W        W10123  18.728  30.155   0.246
44644W        W10124  40.363  39.952   2.785
44645W        W10125  11.258  29.950  11.059
44646W        W10126   3.270  29.553  14.893
44647W        W10127   8.162  10.755   2.210
44648W        W10128  12.147  39.508  12.021
44649W        W10129  29.042  16.130   1.748
44650W        W10130  44.919  12.272   0.946
44651W        W10131  36.495   8.374   0.256
44652W        W10132  22.627  44.432  14.011
44653W        W10133  43.786   4.882  14.909
44654W        W10134  44.897  30.955  11.492
44655W        W10135  34.596   9.368   2.235
44656W        W10136  19.757  15.667  10.547
44657W        W10137  31.457  38.038   1.369
44658W        W10138  32.524  16.183   0.325
44659W        W10139   5.812  17.152  12.999
44660W        W10140  36.095  11.755   1.906
44661W        W10141  28.024  19.228  14.425
44662W        W10142  18.280  31.062   1.297
44663W        W10143  38.070  24.658  14.449
44664W        W10144  18.728  25.007   2.698
44665W        W10145  12.157  26.674   1.916
44666W        W10146  30.474  35.908   0.478
44667W        W10147  42.352   3.277   3.724
44668W        W10148   8.706  40.373   4.785
44669W        W10149  43.846  29.940   3.703
44670W        W10150  25.087  34.078  11.475
44671W        W10151  43.010  15.665   5.131
44672W        W10152  31.027  22.071   0.417
44673W        W10153  22.603  17.286  10.989
44674W        W10154   8.293   9.241  11.505
44675W        W10155   1.299  33.031  13.856
44676W        W10156  32.557  10.338   3.811
44677W        W10157  10.231  11.181   0.780
44678W        W10158  20.628  41.970  10.914
44679W        W10159  30.497  12.151   0.419
44680W        W10160  25.181  20.111  10.950
44681W        W10161  14.101  41.439   3.697
44682W        W10162  43.849  39.015  12.456
44683W        W10163  18.745  25.011  12.877
44684W        W10164  30.002   6.859  10.962
44685W        W10165   0.309  18.564   3.227
44686W        W10166  32.420  31.915   0.829
44687W        W10167  18.207   8.356  10.638
44688W        W10168  30.532  24.017  11.103
44689W        W10169   6.737  39.991   2.228
44690W        W10170  27.128   8.247   1.926
44691W        W10171   1.763  16.083   3.177
44692W        W10172   2.345  28.638   2.316
44693W        W10173   6.708   8.291  13.802
44694W        W10174  17.218   7.809   2.865
44695W        W10175  38.847  42.865   2.721
44696W        W10176  17.735   8.859  13.334
44697W        W10177  24.576  36.423  12.978
44698W        W10178  29.516  30.552  13.815
44699W        W10179  24.063   4.734   1.254
44700W        W10180  18.596   6.839  14.892
44701W        W10181   5.289   6.861  14.807
44702W        W10182  38.424  22.037   4.759
44703W        W10183  19.093  42.288  13.465
44704W        W10184  33.994  12.702  12.349
44705W        W10185  16.763  12.177  13.826
44706W        W10186  23.585  34.555  10.982
44707W        W10187  35.007  32.634   1.821
44708W        W10188  18.242  29.110  10.459
44709W        W10189   9.743  32.519  11.001
44710W        W10190  40.810  26.207  10.918
44711W        W10191  13.773  32.905   0.780
44712W        W10192  40.491  20.686  12.340
44713W        W10193  35.899  15.187  12.051
44714W        W10194   6.419   5.892   0.448
44715W        W10195   2.236  20.636  12.987
44716W        W10196  26.646  33.929  13.471
44717W        W10197  25.102  44.480   3.308
44718W        W10198  25.163  29.593   2.205
44719W        W10199  44.971  26.159   1.357
44720W        W10200  16.688  12.845  11.059
44721W        W10201  13.177  19.095  12.499
44722W        W10202  12.661  14.294  10.522
44723W        W10203  21.664  11.146   2.784
44724W        W10204  33.953  33.556  11.556
44725W        W10205  28.023  41.462   0.458
44726W        W10206   0.362  26.179   3.837
44727W        W10207  33.986  10.214  12.414
44728W        W10208  19.149   4.351  11.903
44729W        W10209  38.057  25.028   3.291
44730W        W10210  39.509  16.715   3.347
44731W        W10211   2.964  14.196   0.749
44732W        W10212  29.566  39.911  14.336
44733W        W10213  30.034   7.672  10.951
44734W        W10214  37.960  11.294   2.261
44735W        W10215  20.073   7.838   1.924
44736W        W10216  43.843  27.083   1.775
44737W        W10217  43.364   3.334  11.992
44738W        W10218  38.948  26.106   1.382
44739W        W10219  44.828   0.326   0.845
44740W        W10220  24.052  23.989   0.462
44741W        W10221  29.557  18.131  10.470
44742W        W10222  32.100   2.735   1.902
44743W        W10223  18.650  44.396   1.916
44744W        W10224  29.457  36.857   1.374
44745W        W10225  42.844  37.352   0.913
44746W        W10226  20.638   6.742  12.026
44747W        W10227   8.661  13.830  14.891
44748W        W10228   6.317   9.300   4.792
44749W        W10229  42.298  44.825  14.427
44750W        W10230  24.718  18.773   4.275
44751W        W10231  32.596   6.912   3.653
44752W        W10232   4.208  40.933  13.347
44753W        W10233  30.465  43.477   3.860
44754W        W10234   5.260  22.035  11.991
44755W        W10235  29.076   2.844   3.299
44756W        W10236  34.040  39.382  12.888
44757W        W10237   3.245   3.796  12.930
44758W        W10238  36.046  41.890   4.163
44759W        W10239  21.077  19.541   4.263
44760W        W10240  22.125  29.092  10.503
44761W        W10241   8.167  15.793   2.322
44762W        W10242  23.145  19.574  12.380
44763W        W10243  11.329  22.009   1.343
44764W        W10244  38.450  18.585  14.348
44765W        W10245  43.837   0.346   4.820
44766W        W10246  44.877  18.193   2.765
44767W        W10247  39.502  13.810   2.387
44768W        W10248  18.765  11.250  11.910
44769W        W10249  42.935   7.350   3.676
44770W        W10250  44.270  35.037   0.345
44771W        W10251  29.009  44.878  11.978
44772W        W10252  33.971  41.396  14.321
44773W        W10253   0.259  43.926  14.889
44774W        W10254   9.248  14.779   2.398
44775W        W10255   9.852  29.556   2.804
44776W        W10256  33.541   7.713  10.464
44777W        W10257  15.215  14.829  14.895
44778W        W10258   4.911  27.034   2.214
44779W        W10259  18.212  39.000   2.726
44780W        W10260  32.138   1.355  14.449
44781W        W10261  27.544  30.482  12.564
44782W        W10262  11.295   3.886   3.154
44783W        W10263  11.864  44.434  10.960
44784W        W10264  16.670  25.493   0.790
44785W        W10265  39.332  11.810   2.270
44786W        W10266  10.857  27.655  11.077
44787W        W10267  35.009   9.193   0.396
44788W        W10268  13.674   6.894  12.006
44789W        W10269  42.862  36.423  14.928
44790W        W10270  38.060   4.751   1.217
44791W        W10271  37.972  43.464  14.830
44792W        W10272   8.685  31.936  12.522
44793W        W10273  23.699  23.119   3.198
44794W        W10274  22.208  40.934   0.896
44795W        W10275  13.283  32.081  10.989
44796W        W10276  41.867  40.876   3.842
44797W        W10277  29.563   5.906   2.197
44798W        W10278  10.640  22.739  10.474
44799W        W10279  31.904  21.098  11.939
44800W        W10280  15.716   9.656  13.533
44801W        W10281   9.356  25.697  13.929
44802W        W10282   0.252  20.238   0.435
44803W        W10283  10.640  28.530   0.922
44804W        W10284  22.608  40.978   3.156
44805W        W10285  22.560  11.179  14.924
44806W        W10286   1.330   6.725   3.761
44807W        W10287  20.160   5.271   4.675
44808W        W10288  21.705   3.891   2.231
44809W        W10289  41.504  35.402  11.415
44810W        W10290  40.856   7.390  11.413
44811W        W10291   0.765  37.465   4.636
44812W        W10292   1.815  16.602  12.448
44813W        W10293  40.861  12.611  11.484
44814W        W10294   6.889   7.837  12.936
44815W        W10295  42.445  28.962  10.539
44816W        W10296  38.928  40.021  14.412
44817W        W10297  20.148  27.465  10.953
44818W        W10298  23.566  32.431   0.956
44819W        W10299  20.240   9.180   1.300
44820W        W10300  14.149  32.009   0.465
44821W        W10301  23.707   8.175  14.297
44822W        W10302  22.241  12.627   0.882
44823W        W10303  33.907  33.048  14.491
44824W        W10304   9.747  41.937  13.801
44825W        W10305   6.705  42.427  12.977
44826W        W10306  20.548   3.379  10.637
44827W        W10307  20.239   3.338   4.806
44828W        W10308  42.854   2.765   1.214
44829W        W10309  37.402  33.454   1.930
44830W        W10310  20.096  38.528   3.680
44831W        W10311  24.637  40.838   3.694
44832W        W10312  35.982  27.958   2.703
44833W        W10313  24.156   0.473  12.428
44834W        W10314  30.055  22.618   3.154
44835W        W10315  29.627  39.462  13.850
44836W        W10316  15.589  22.648   0.472
44837W        W10317  37.834  11.823   2.382
44838W        W10318  13.240  36.016  12.371
44839W        W10319  42.957  22.079   0.745
44840W        W10320  19.088  30.028  12.550
44841W        W10321   7.246  44.779  14.983
44842W        W10322   5.731  39.960   2.721
44843W        W10323  26.526  42.424  14.351
44844W        W10324  23.178  25.989   0.882
44845W        W10325  15.767   6.284   4.158
44846W        W10326  18.122  24.123   0.323
44847W        W10327  40.497   3.440   0.388
44848W        W10328   3.744  24.084  14.882
44849W        W10329  36.952  18.652  12.525
44850W        W10330   5.340  16.170  13.428
44851W        W10331  33.510  38.949  10.494
44852W        W10332  40.374  26.663   0.293
44853W        W10333  25.496   5.342   4.680
44854W        W10334  19.259  36.438   0.939
44855W        W10335  30.064  30.075  14.515
44856W        W10336   8.387  34.478   4.624
44857W        W10337   1.743  44.405  12.483
44858W        W10338   5.207  27.648  13.825
44859W        W10339   3.819  20.047   1.274
44860W        W10340  24.200  39.057  11.925
44861W        W10341   1.890  19.070  14.861
44862W        W10342  13.302   0.449   3.332
44863W        W10343  19.765  28.144  11.538
44864W        W10344  40.950  18.089   3.759
44865W        W10345  40.444  25.499   3.158
44866W        W10346   5.724  26.151   2.862
44867W        W10347  18.644   8.756   4.838
44868W        W10348  13.219  39.948  11.604
44869W        W10349  17.289  12.228  13.795
44870W        W10350  17.744  15.149  10.559
44871W        W10351  22.532  42.360   2.830
44872W        W10352  21.575  16.582   3.705
44873W        W10353  33.515  37.068   3.384
44874W        W10354  25.026  13.161   2.396
44875W        W10355   7.773  33.603  11.068
44876W        W10356  34.922  12.142  11.594
44877W        W10357  22.719  44.385  12.934
44878W        W10358  29.542  22.041   4.686
44879W        W10359  33.992   4.802  14.945
44880W        W10360  14.164  12.292  11.484
44881W        W10361  31.124  39.037  13.336
44882W        W10362  32.913   4.869  11.431
44883W        W10363  17.724  41.437  14.370
44884W        W10364  18.566   4.868   0.275
44885W        W10365  17.578   4.746   1.754
44886W        W10366   6.332  11.649  14.988
44887W        W10367  32.606  12.206  12.959
44888W        W10368  41.431   6.357  13.340
44889W        W10369  37.354  37.011  11.125
44890W        W10370  42.461  43.412  10.553
44891W        W10371  17.746  37.087  10.960
44892W        W10372  25.684  16.684   2.272
44893W        W10373  21.181  40.815  14.498
44894W        W10374   0.883  26.142   4.772
44895W        W10375  38.045   8.207   3.871
44896W        W10376  13.791   5.228  12.399
44897W        W10377  40.347  36.907   1.211
44898W        W10378  15.605  32.089  12.422
44899W        W10379  42.379  22.578  11.011
44900W        W10380   8.267  21.547  12.879
44901W        W10381  36.465  14.250  11.876
44902W        W10382  21.640  32.019   3.767
44903W        W10383   1.910  23.719   0.917
44904W        W10384  11.791  40.979  14.429
44905W        W10385  17.174  28.077  11.073
44906W        W10386  35.391  14.644  11.915
44907W        W10387   9.337  21.700   1.904
44908W        W10388  40.966  25.549   1.910
44909W        W10389   8.334  36.386   3.631
44910W        W10390   1.958  30.010   3.277
44911W        W10391  24.023  10.289  12.016
44912W        W10392  24.176  21.127   4.178
44913W        W10393  29.527  37.560  14.790
44914W        W10394  21.019   3.740  11.000
44915W        W10395  18.120  39.810  10.505
44916W        W10396  23.648  15.742  10.525
44917W        W10397  12.339  36.509  14.276
44918W        W10398   5.374  31.521  13.400
44919W        W10399  22.551   5.368   2.735
44920W        W10400  19.672  43.839   2.406
44921W        W10401   9.272  36.435   2.742
44922W        W10402  14.103   1.371   2.287
44923W        W10403  28.955  11.841  14.989
44924W        W10404  14.120  25.552   0.964
44925W        W10405  22.521  43.297   2.365
44926W        W10406  44.443  13.306  14.781
44927W        W10407  33.585   3.888   2.794
44928W        W10408   7.323  28.530   1.863
44929W        W10409   0.808  40.336   0.763
44930W        W10410  36.850  37.935  10.599
44931W        W10411  41.991  24.643  13.991
44932W        W10412   7.408  28.178  12.376
44933W        W10413  34.428   9.311  11.554
44934W        W10414   3.732  43.366   2.709
44935W        W10415  39.839  31.054   3.817
44936W        W10416   5.822  26.684  13.482
44937W        W10417   8.222  26.644  14.329
44938W        W10418  32.052  25.986   2.213
44939W        W10419  14.604  29.969   1.758
44940W        W10420   1.306   1.380   2.248
44941W        W10421  25.595  37.534  14.956
44942W        W10422  29.140  10.751  12.081
44943W        W10423  31.085  39.854  13.023
44944W        W10424   2.287  19.583  12.356
44945W        W10425   8.213  14.693  12.504
44946W        W10426   2.768  19.584   1.355
44947W        W10427   6.796  14.664   4.145
44948W        W10428  10.849  15.685  10.012
44949W        W10429  35.897  22.058  13.914
44950W        W10430   0.981  27.583   9.990
44951W        W10431  15.587  14.726  12.472
44952W        W10432  34.603  37.350   0.844
44953W        W10433  36.492  34.008  14.792
44954W        W10434  29.061  41.885  13.546
44955W        W10435  16.619  30.153  10.577
44956W        W10436  24.715  32.438   1.410
44957W        W10437  11.313  37.967  13.454
44958W        W10438  42.931  12.851  12.947
44959W        W10439  12.359  38.437   4.718
44960W        W10440  17.065  21.554   1.829
44961W        W10441   1.387  31.066   0.395
44962W        W10442  44.458   2.446   4.752
44963W        W10443  28.129  30.487  12.340
44964W        W10444  28.464  36.502   3.833
44965W        W10445   4.812  42.959  10.404
44966W        W10446  15.688   4.860   0.469
44967W        W10447  19.126  34.019   0.363
44968W        W10448   5.354  33.517   5.291
44969W        W10449  15.675   8.849  14.486
44970W        W10450  24.653  10.172  13.430
44971W        W10451  35.898  18.180  14.464
44972W        W10452   3.345   2.304  10.526
44973W        W10453  14.678  28.561   0.916
44974W        W10454  30.970  18.157  13.872
44975W        W10455  41.395  41.854   1.302
44976W        W10456   1.433  16.711  12.926
44977W        W10457  37.999  35.599   2.382
44978W        W10458  38.900  38.857  14.468
44979W        W10459  35.371  19.266   1.763
44980W        W10460  23.215  41.988   1.831
44981W        W10461  16.581  35.958  11.506
44982W        W10462  43.316   7.863   5.147
44983W        W10463  42.932  22.029   1.365
44984W        W10464  15.661   5.395   0.809
44985W        W10465  13.689  32.476  10.616
44986W        W10466  25.664  40.922  14.444
44987W        W10467  11.867  17.178  12.019
44988W        W10468  32.449  43.506  12.545
44989W        W10469  32.917  39.965   0.397
44990W        W10470  33.886   0.283  12.404
44991W        W10471  15.607  16.615   4.213
44992W        W10472  40.838  28.555   0.839
44993W        W10473   7.715  29.960   1.776
44994W        W10474   0.325  44.953   4.792
44995W        W10475  42.370   8.861   3.224
44996W        W10476  24.114  25.505   2.671
44997W        W10477   7.770  17.664  12.908
44998W        W10478  21.619  32.622  13.813
44999W        W10479  12.238   3.885   4.198
45000W        W10480  23.639  26.543   4.278
45001W        W10481  26.594  12.810  13.448
45002W        W10482  13.287  22.568  12.840
45003W        W10483  33.107  10.722   3.368
45004W        W10484  33.619  34.065   4.830
45005W        W10485  11.751  36.969   1.741
45006W        W10486  21.160  18.674  13.437
45007W        W10487   5.414  25.202  12.851
45008W        W10488  11.805   0.878  13.955
45009W        W10489  40.933  42.431   1.815
45010W        W10490  23.695  37.472  14.276
45011W        W10491  29.609  10.848  11.900
45012W        W10492  19.096   3.241   0.934
45013W        W10493  19.138  24.159  10.022
45014W        W10494  13.223   9.822   0.362
45015W        W10495  10.162  42.791   3.228
45016W        W10496   1.245  37.970  14.897
45017W        W10497  10.166  25.627  14.433
45018W        W10498  17.735  42.306  11.988
45019W        W10499  43.282  41.041   0.817
45020W        W10500  16.635  34.099  10.594
45021W        W10501  12.797  35.943  12.553
45022W        W10502   2.866  39.526   0.733
45023W        W10503  36.392  20.205   3.813
45024W        W10504  21.695  24.621  11.559
45025W        W10505  33.908  32.024   4.324
45026W        W10506  31.610   2.911   2.866
45027W        W10507  24.509  44.313   2.669
45028W        W10508  31.611  10.673   1.330
45029W        W10509  24.522  27.449  13.516
45030W        W10510  27.671  42.889   3.267
45031W        W10511   4.308  31.922   0.470
45032W        W10512  44.505  40.819   4.703
45033W        W10513   6.735  42.917   0.824
45034W        W10514  27.978  14.298   3.235
45035W        W10515  11.205   2.925   1.244
45036W        W10516  42.281  25.513   4.752
45037W        W10517  16.661  24.166   3.276
45038W        W10518  11.736  24.562  12.084
45039W        W10519  44.765  24.485  10.598
45040W        W10520   4.923  36.987  11.857
45041W        W10521  43.971  10.802  12.824
45042W        W10522  32.076  25.161   4.718
45043W        W10523  20.663  23.080  14.789
45044W        W10524   0.862  16.115  10.953
45045W        W10525  15.224   9.685   4.338
45046W        W10526   7.804  11.729  10.113
45047W        W10527  13.697  24.604   3.721
45048W        W10528   3.237  42.775  11.556
45049W        W10529  13.600  14.162  14.478
45050W        W10530  12.209  12.837  10.583
45051W        W10531  34.488  38.504   2.257
45052W        W10532  24.535  40.378  11.862
45053W        W10533  27.165  29.076   0.311
45054W        W10534  37.055  11.300   4.789
45055W        W10535  42.890  22.121   1.729
45056W        W10536  44.862  43.798   2.806
45057W        W10537  35.505  27.650   1.698
45058W        W10538  24.058  36.093  14.918
45059W        W10539  19.187   4.698   1.211
45060W        W10540  42.435  26.064  10.562
45061W        W10541   6.405   4.366   1.801
45062W        W10542  10.296   7.309   1.291
45063W        W10543  15.261  28.456  11.996
45064W        W10544   4.753  44.429   5.286
45065W        W10545  29.459  18.167  12.573
45066W        W10546  41.870  22.110  12.536
45067W        W10547  16.267   5.723  13.975
45068W        W10548  19.748  29.089  13.407
45069W        W10549   5.761  29.160   0.325
45070W        W10550  11.784  17.783  12.380
45071W        W10551  20.592  31.428   2.678
45072W        W10552  22.736  33.106  13.979
45073W        W10553  43.275   1.368   1.701
45074W        W10554  38.352  13.607  14.915
45075W        W10555  31.535  28.995   4.824
45076W        W10556  14.709  32.045  12.546
45077W        W10557   5.719  20.612  12.554
45078W        W10558   8.364   0.370   0.756
45079W        W10559  15.815  13.676   1.791
45080W        W10560  12.281   8.719  14.982
45081W        W10561  21.704   8.402   1.229
45082W        W10562  43.778   1.960  10.418
45083W        W10563   2.429  10.317   0.245
45084W        W10564  22.626  24.203  13.904
45085W        W10565   9.324  11.316  10.559
45086W        W10566  22.577  12.193   1.737
45087W        W10567   3.885   0.870  10.909
45088W        W10568  23.713  19.209  12.079
45089W        W10569  33.511  42.850   0.782
45090W        W10570  16.235   5.719   2.190
45091W        W10571  23.031  23.177   1.778
45092W        W10572  22.632  30.512   1.414
45093W        W10573   2.856  16.300  11.431
45094W        W10574  37.920  31.127   2.871
45095W        W10575   5.705  22.085  11.581
45096W        W10576  17.269  23.694  14.971
45097W        W10577  43.997  19.254   1.302
45098W        W10578   0.337   8.170  10.955
45099W        W10579  30.494  35.459   2.729
45100W        W10580  34.986  31.506  14.780
45101W        W10581  27.067  17.121   0.844
45102W        W10582  11.255  37.464   3.209
45103W        W10583   9.242  14.131  12.371
45104W        W10584   1.846  44.426   3.843
45105W        W10585  43.910  41.957   1.293
45106W        W10586  27.647  36.562   2.805
45107W        W10587  20.715  43.791   5.273
45108W        W10588  37.490   0.925  12.573
45109W        W10589  12.773  11.723   0.321
45110W        W10590  21.535  13.725   2.811
45111W        W10591  29.593   6.296   1.749
45112W        W10592  19.683  24.134   1.210
45113W        W10593  32.013   5.763   4.136
45114W        W10594  36.477  15.736   2.830
45115W        W10595  24.687  38.501  13.335
45116W        W10596   5.385  13.686   1.367
45117W        W10597  32.964   9.873  12.038
45118W        W10598  27.583   4.280   4.350
45119W        W10599  17.272  27.166  13.403
45120W        W10600  35.594  22.209   1.384
45121W        W10601  20.273  41.798  10.577
45122W        W10602  16.288   2.941  13.380
45123W        W10603  20.735  40.389  12.876
45124W        W10604   7.696  26.636  10.605
45125W        W10605  24.008   7.321  12.022
45126W        W10606  35.432  40.935  13.528
45127W        W10607  21.525  20.674  14.391
45128W        W10608   6.365  41.019  12.030
45129W        W10609  34.992  26.552   1.327
45130W        W10610   4.374  11.186  10.962
45131W        W10611  32.084  30.101  10.926
45132W        W10612  17.793  41.926  12.864
45133W        W10613  25.525  35.992   4.635
45134W        W10614  31.472   0.340   0.296
45135W        W10615  44.766   3.871   1.429
45136W        W10616  21.199  23.984  13.790
45137W        W10617  27.124  28.442  14.000
45138W        W10618  29.926  13.215  10.893
45139W        W10619  20.648  17.096  12.065
45140W        W10620  25.043  36.059  12.079
45141W        W10621  14.748   8.355  14.297
45142W        W10622  17.212  18.211   4.206
45143W        W10623   3.921   0.485  13.445
45144W        W10624  11.159  21.639   2.396
45145W        W10625  13.128   7.682  14.389
45146W        W10626  20.761  40.303   4.251
45147W        W10627  42.971  12.725   1.862
45148W        W10628  38.565  43.860  12.375
45149W        W10629  19.554  21.107  13.818
45150W        W10630  24.141   0.977   2.373
45151W        W10631  19.646  14.716  10.528
45152W        W10632   1.953  30.089   0.771
45153W        W10633  23.715  28.459  13.009
45154W        W10634  30.610   5.763   4.152
45155W        W10635   3.724  26.104   2.293
45156W        W10636  31.144  38.327  13.903
45157W        W10637  40.455  16.143  12.571
45158W        W10638  27.045  22.145   2.404
45159W        W10639  22.717  10.350  13.511
45160W        W10640  35.947  10.154  14.920
45161W        W10641  13.315  27.464  12.558
45162W        W10642  31.416  24.577  13.403
45163W        W10643  38.469  32.610   4.705
45164W        W10644  31.562  40.924  13.340
45165W        W10645   7.675  44.356   2.360
45166W        W10646   3.736  11.668  13.527
45167W        W10647  32.401  18.737   4.792
45168W        W10648  34.989  11.828  13.046
45169W        W10649  31.919  14.335   3.190
45170W        W10650   5.212  37.533  10.427
45171W        W10651  20.158  28.565  12.389
45172W        W10652  11.149  31.937   0.775
45173W        W10653   7.332   1.899   2.272
45174W        W10654   0.368  36.841  14.029
45175W        W10655  20.143  42.776   5.187
45176W        W10656  17.613   5.740   0.396
45177W        W10657  20.748   2.960  10.907
45178W        W10658   3.357   4.858  11.874
45179W        W10659   3.929  30.097  12.378
45180W        W10660  17.250  37.047   0.310
45181W        W10661  42.420   2.903   4.175
45182W        W10662  22.585   2.778   0.954
45183W        W10663  15.170  33.608  14.371
45184W        W10664   2.344  35.365  11.043
45185W        W10665  32.023  32.470  14.927
45186W        W10666  33.420  42.499   0.909
45187W        W10667  35.879  13.732   4.772
45188W        W10668  14.808  36.935  10.482
45189W        W10669  18.295  26.108  13.028
45190W        W10670  33.444  42.307  11.398
45191W        W10671   4.757  43.841  10.537
45192W        W10672  21.262  23.613  12.373
45193W        W10673  15.302  37.373   0.960
45194W        W10674  19.107  35.477   3.738
45195W        W10675  17.124  24.576  12.533
45196W        W10676  39.062  13.125  11.906
45197W        W10677  37.477  42.962   2.333
45198W        W10678  29.603  16.649  14.831
45199W        W10679   9.218  37.876  12.528
45200W        W10680   9.659   7.876  12.401
45201W        W10681  37.383   9.273   3.802
45202W        W10682   5.345   4.211   4.757
45203W        W10683  20.097   9.305  13.968
45204W        W10684  31.528  11.675   0.935
45205W        W10685  26.679  16.102  14.449
45206W        W10686  16.696   3.222  12.094
45207W        W10687  25.559  29.950  12.426
45208W        W10688  37.002  29.108   1.935
45209W        W10689   6.419  24.192  10.626
45210W        W10690  43.870  27.138   2.859
45211W        W10691  24.047   5.367   0.949
45212W        W10692  26.138   8.754  14.002
45213W        W10693  33.901  26.047   4.148
45214W        W10694  25.999  18.290  14.491
45215W        W10695   6.399   8.177   0.838
45216W        W10696   7.176  13.236  14.417
45217W        W10697  13.302  31.516   2.902
45218W        W10698  15.194  31.043  13.908
45219W        W10699  38.053   5.313  14.953
45220W        W10700  22.512  25.047   4.775
45221W        W10701  10.211  40.451   3.672
45222W        W10702   3.375  40.365   4.801
45223W        W10703  11.636  22.022  10.481
45224W        W10704  22.177  30.017  13.921
45225W        W10705  25.201  36.385   4.753
45226W        W10706  16.747  27.129   3.806
45227W        W10707  42.473  27.537   4.821
45228W        W10708   9.173  37.366  11.591
45229W        W10709   5.736  16.712   3.706
45230W        W10710   5.323  22.604   0.860
45231W        W10711  10.151   3.220   4.807
45232W        W10712  40.443  34.109  14.873
45233W        W10713  34.867  15.093   0.373
45234W        W10714  27.595  27.577  14.363
45235W        W10715  25.158  35.025   1.698
45236W        W10716   9.733  14.279  13.032
45237W        W10717  41.506  29.526   1.924
45238W        W10718   6.747   3.227   0.433
45239W        W10719  22.508  34.090   3.184
45240W        W10720  13.213  28.638  10.934
45241W        W10721  29.507  26.162   1.273
45242W        W10722   8.320  25.511   1.386
45243W        W10723  33.622  41.921   2.710
45244W        W10724  29.970   5.222  14.971
45245W        W10725   0.292  44.451   3.285
45246W        W10726  36.045  30.424  13.892
45247W        W10727  22.711   4.754   2.217
45248W        W10728  15.658  31.960   3.205
45249W        W10729  28.081  11.279  13.058
45250W        W10730   7.360  18.627   1.846
45251W        W10731  41.466  43.882   1.260
45252W        W10732  44.855  13.604  11.430
45253W        W10733  38.022  12.613  13.428
45254W        W10734  21.084  27.632   4.234
45255W        W10735  11.626  11.178   1.746
45256W        W10736  16.233   9.274   4.315
45257W        W10737  41.976   7.731  12.390
45258W        W10738  10.260  20.632  11.114
45259W        W10739  28.104  31.621   4.236
45260W        W10740  19.710   2.343  14.464
45261W        W10741   1.914  25.701   2.269
45262W        W10742  40.488  11.211  13.918
45263W        W10743  23.080  31.965   3.831
45264W        W10744  25.703  19.154   4.193
45265W        W10745  27.687   9.322   2.815
45266W        W10746  35.601  40.547  13.927
45267W        W10747  37.903   4.926   4.122
45268W        W10748  27.474   3.834  12.094
45269W        W10749   7.693  35.489   3.266
45270W        W10750   7.405  16.079  11.023
45271W        W10751  10.224  18.152  10.021
45272W        W10752  43.451   2.749   4.286
45273W        W10753  35.364  28.955  13.061
45274W        W10754  43.953  42.315   0.735
45275W        W10755  17.290  21.056  14.330
45276W        W10756  32.524  16.285  11.539
45277W        W10757  38.506   6.305  10.517
45278W        W10758  14.665  30.039  10.924
45279W        W10759  12.245  35.361   3.799
45280W        W10760  31.975   7.862  14.395
45281W        W10761  14.214   6.867   2.825
45282W        W10762  20.136  35.378  13.925
45283W        W10763  13.815  11.638  10.518
45284W        W10764  27.168  22.056  12.379
45285W        W10765  11.646   3.811   0.256
45286W        W10766  43.387  27.574  12.852
45287W        W10767  13.205   4.367  12.355
45288W        W10768   3.255  18.594   0.937
45289W        W10769  22.675  17.182   4.723
45290W        W10770   7.284   9.224   2.748
45291W        W10771   0.908  13.712  11.434
45292W        W10772  11.683   5.377  12.096
45293W        W10773  40.442  14.728   3.745
45294W        W10774  36.879  17.150  11.377
45295W        W10775  36.485   5.881  10.966
45296W        W10776   5.278  16.651   1.257
45297W        W10777  18.675  35.410  12.985
45298W        W10778  19.536  39.915  11.529
45299W        W10779  21.677  13.107   3.195
45300W        W10780  18.635  43.908   1.350
45301W        W10781  35.577  30.083   4.740
45302W        W10782  15.157  15.272  14.891
45303W        W10783  33.417  23.000  14.491
45304W        W10784  43.455  28.086   1.231
45305W        W10785  39.342  36.863  11.075
45306W        W10786  30.047  25.215   3.712
45307W        W10787  18.143  14.684   4.694
45308W        W10788   3.359  26.008   2.189
45309W        W10789   9.715  43.273   0.409
45310W        W10790  30.088  29.062  13.021
45311W        W10791  28.489  28.174   4.650
45312W        W10792  29.532   4.751   2.240
45313W        W10793  16.287  37.072  11.956
45314W        W10794  29.085  24.205   3.316
45315W        W10795  34.435  12.669  11.372
45316W        W10796  11.217  20.043  12.026
45317W        W10797  13.304  15.669  10.466
45318W        W10798  18.199  30.042   1.292
45319W        W10799  20.267  30.571  10.968
45320W        W10800   7.741  13.211  13.444
45321W        W10801   2.379  42.009  12.072
45322W        W10802  18.703  21.524  11.896
45323W        W10803  11.641  39.380   4.180
45324W        W10804  32.498  37.056  13.793
45325W        W10805  22.600  28.969   3.159
45326W        W10806   0.352   4.399  14.434
45327W        W10807  19.570  40.360  14.943
45328W        W10808  13.640  40.548   4.731
45329W        W10809  21.593  24.695   3.824
45330W        W10810  12.751  39.030   0.360
45331W        W10811  37.077  22.620   1.848
45332W        W10812  40.982   8.276  13.966
45333W        W10813  15.128  11.127   1.315
45334W        W10814  36.898  36.435  14.925
45335W        W10815  12.294  23.220   3.715
45336W        W10816  15.241  19.186   0.732
45337W        W10817  44.262  36.929  11.463
45338W        W10818   5.269  44.438  12.060
45339W        W10819  12.262  42.782  14.513
45340W        W10820  15.106  15.313   5.115
45341W        W10821  24.548   8.876  12.925
45342W        W10822  27.523   8.804   4.134
45343W        W10823  10.766  15.123  12.362
45344W        W10824  21.137   7.269   5.709
45345W        W10825  31.021  17.636   1.829
45346W        W10826  28.567  15.691   9.960
45347W        W10827  32.921  17.648  10.899
45348W        W10828  32.055  18.588  11.881
45349W        W10829  35.921  12.643  13.979
45350W        W10830  26.130  27.636   3.747
45351W        W10831   3.373  38.836  10.404
45352W        W10832  22.046  16.187   3.348
45353W        W10833  23.124  22.068   0.924
45354W        W10834  43.335  25.541  14.900
45355W        W10835   8.366  12.853   1.816
45356W        W10836  40.359  32.037   4.153
45357W        W10837  37.486  12.611  13.866
45358W        W10838  14.329  27.042  11.578
45359W        W10839  32.597  39.869  11.084
45360W        W10840  20.553  35.451   4.706
45361W        W10841  44.961  42.853   4.333
45362W        W10842  40.011  32.575   3.371
45363W        W10843  25.998   3.348   1.313
45364W        W10844  29.482  43.917  11.465
45365W        W10845  35.431  26.547  13.874
45366W        W10846  26.493  42.372  10.984
45367W        W10847  41.986  15.260  11.554
45368W        W10848  41.929   7.285  10.432
45369W        W10849  10.216  20.113   0.746
45370W        W10850  44.340  22.640  11.557
45371W        W10851  12.272  29.557   3.327
45372W        W10852   8.213   8.717  10.626
45373W        W10853  30.022   3.391   1.380
45374W        W10854  15.713  10.228  10.645
45375W        W10855  43.493  18.264  14.924
45376W        W10856  41.379  33.975   0.887
45377W        W10857  14.149   2.376  12.940
45378W        W10858  26.472  33.890  14.295
45379W        W10859   3.934  23.128  13.795
45380W        W10860  13.183  27.174  14.854
45381W        W10861   4.898  32.483  13.509
45382W        W10862   9.257  32.991   2.385
45383W        W10863   6.389  21.169   4.764
45384W        W10864  22.746  18.110  14.407
45385W        W10865  34.499  41.478  11.066
45386W        W10866  37.047  12.636  11.927
45387W        W10867   5.393  24.601  14.313
45388W        W10868  28.062   6.791  13.915
45389W        W10869  13.333  35.400  12.572
45390W        W10870   3.332  19.759   4.190
45391W        W10871  13.325  44.350  14.307
45392W        W10872  28.152   2.875  12.999
45393W        W10873  40.398  31.917  13.476
45394W        W10874  32.486  13.809   0.390
45395W        W10875  36.553  11.856  11.519
45396W        W10876  12.220  17.220  11.400
45397W        W10877  16.176  34.903   2.386
45398W        W10878  42.316  26.179   2.771
45399W        W10879   0.918  16.078   4.279
45400W        W10880  22.537  28.172   4.790
45401W        W10881  18.741  38.956  10.506
45402W        W10882  26.056  29.074  14.001
45403W        W10883  35.973   0.969   4.716
45404W        W10884  27.031  27.013  14.438
45405W        W10885   0.329  29.663   1.319
45406W        W10886  25.113   3.918  11.568
45407W        W10887   5.311  25.116   3.647
45408W        W10888  43.843  23.632  12.093
45409W        W10889  41.811  40.429   0.464
45410W        W10890   7.411   2.909  13.525
45411W        W10891   1.943  27.613   1.429
45412W        W10892   2.776  26.592   3.826
45413W        W10893  17.568  28.966   1.276
45414W        W10894   6.912  29.026   4.266
45415W        W10895   5.409   7.729  12.460
45416W        W10896   9.309  24.623  14.479
45417W        W10897  34.486   0.922  12.864
45418W        W10898  37.952  14.194   2.744
45419W        W10899  43.927  18.273  10.516
45420W        W10900   3.397   9.817   4.233
45421W        W10901  11.137  37.897   3.817
45422W        W10902  39.325  41.453  12.403
45423W        W10903   8.826   7.370  10.912
45424W        W10904  25.077  31.617   0.268
45425W        W10905  26.180  35.385  11.405
45426W        W10906  27.452  21.543  11.972
45427W        W10907  32.135  20.764   3.764
45428W        W10908  14.650  21.227  12.439
45429W        W10909  39.464   3.762   2.686
45430W        W10910  23.573  23.679  13.030
45431W        W10911  36.876  41.825   0.881
45432W        W10912  35.556   0.261   1.243
45433W        W10913  15.141   2.406   4.195
45434W        W10914   8.740   4.919   2.249
45435W        W10915  13.727  14.244   3.306
45436W        W10916  18.293  16.086  10.924
45437W        W10917  25.970  17.740   2.388
45438W        W10918   0.407  43.511   0.790
45439W        W10919  11.131  17.597  13.941
45440W        W10920  37.411  38.873  12.008
45441W        W10921  16.750  28.141  14.284
45442W        W10922  43.954  34.561   1.748
45443W        W10923   0.790  23.099   3.241
45444W        W10924  31.461   9.156   3.863
45445W        W10925  10.667   2.893   1.906
45446W        W10926  21.604   2.884  10.919
45447W        W10927  15.687  35.881   3.655
45448W        W10928  15.236  35.979  12.033
45449W        W10929  24.112   1.773   0.821
45450W        W10930   7.800  30.133   2.761
45451W        W10931  13.760  27.097  12.998
45452W        W10932   6.833  33.066  12.936
45453W        W10933  28.089  43.910  12.489
45454W        W10934  25.051  24.542   3.245
45455W        W10935  23.576   4.391   1.360
45456W        W10936  24.479  31.949   1.378
45457W        W10937  34.608  37.079  14.437
45458W        W10938   8.746   0.865   1.890
45459W        W10939  11.695  32.598   0.780
45460W        W10940  26.557  39.851  13.854
45461W        W10941  22.062   3.867  11.486
45462W        W10942  26.018  23.697  14.301
45463W        W10943  22.705   7.760  12.341
45464W        W10944  27.620  41.297  11.580
45465W        W10945  28.087  36.392  10.968
45466W        W10946   7.815  41.315  12.900
45467W        W10947  40.304   7.349   1.813
45468W        W10948  16.743  10.811  13.330
45469W        W10949  32.553  14.181   0.957
45470W        W10950  42.509  21.169  13.936
45471W        W10951  44.386  11.325   1.385
45472W        W10952  33.923  16.207  14.457
45473W        W10953  38.002  28.003  13.872
45474W        W10954  38.457  32.482   1.707
45475W        W10955  19.666  23.504   2.373
45476W        W10956  42.790  24.635  14.996
45477W        W10957  23.032  10.765  12.862
45478W        W10958  25.206  39.479   3.162
45479W        W10959  25.036  22.721  12.411
45480W        W10960  43.975  14.598   4.204
45481W        W10961  24.512   0.381   4.179
45482W        W10962  33.563  34.004  13.403
45483W        W10963  42.324   7.811   1.270
45484W        W10964  36.923  14.592   2.339
45485W        W10965  39.968  36.978   2.345
45486W        W10966   3.839  22.559   2.741
45487W        W10967   9.819  42.870  13.010
45488W        W10968  27.573   1.425   3.665
45489W        W10969  42.776  35.955  14.826
45490W        W10970   5.419  24.666  12.519
45491W        W10971  42.916  15.667   3.747
45492W        W10972   2.235  35.403   3.768
45493W        W10973   7.363  36.931  11.103
45494W        W10974  29.969  22.648  11.013
45495W        W10975   3.792  18.581  12.067
45496W        W10976  42.328  10.291  13.849
45497W        W10977  40.468  31.899   3.866
45498W        W10978  29.444  19.178  11.045
45499W        W10979  32.583  27.517   1.386
45500W        W10980  34.030   3.233   4.759
45501W        W10981  10.223   5.884   0.291
45502W        W10982  42.328  40.958  14.991
45503W        W10983  10.264  32.120   2.834
45504W        W10984   1.738  44.460   4.131
45505W        W10985  15.102   4.282   0.965
45506W        W10986  15.740  25.981  10.562
45507W        W10987   2.420  12.613  13.830
45508W        W10988  36.436  21.225   1.378
45509W        W10989  28.566  19.091  11.529
45510W        W10990  29.628  25.638  12.510
45511W        W10991  37.403  10.155   2.876
45512W        W10992  15.153  38.386  12.931
45513W        W10993  34.097  28.013  11.462
45514W        W10994   4.718  39.846   4.152
45515W        W10995   5.390  13.839   4.601
45516W        W10996  44.799  41.867   1.837
45517W        W10997  20.755  26.575   3.856
45518W        W10998  14.146  25.585  14.961
45519W        W10999  11.828  44.498  12.954
45520W        W11000   9.160  32.973   1.229
45521W        W11001  27.084  13.292   1.310
45522W        W11002  35.046  26.524   4.177
45523W        W11003   6.195  33.057   2.812
45524W        W11004  25.124  12.819  14.393
45525W        W11005  30.649   3.813  12.845
45526W        W11006  13.808  33.948   4.320
45527W        W11007  21.250  13.185   2.334
45528W        W11008  34.021   1.272   2.682
45529W        W11009  38.009  21.514  12.453
45530W        W11010  25.508  38.046  10.622
45531W        W11011   7.852  35.972   1.400
45532W        W11012  12.152  10.718   4.833
45533W        W11013  20.672  35.028   3.632
45534W        W11014  37.005   2.753  11.411
45535W        W11015  41.015  39.442  11.070
45536W        W11016   0.424  44.287   3.701
45537W        W11017  29.512  11.719  10.021
45538W        W11018   3.271  26.703  14.857
45539W        W11019  28.035  16.712   2.235
45540W        W11020  12.182  27.658   2.854
45541W        W11021  18.102  15.252   4.772
45542W        W11022   6.898  26.496   0.834
45543W        W11023  13.629   4.808  13.885
45544W        W11024  39.451  15.153   3.715
45545W        W11025  16.164   2.402   0.477
45546W        W11026  34.418   1.894   3.343
45547W        W11027  41.862  38.022   0.381
45548W        W11028   4.804  42.810  13.426
45549W        W11029  12.287  11.731  11.388
45550W        W11030  42.007  21.158  13.021
45551W        W11031  30.025  12.212   3.295
45552W        W11032  17.559  26.098  12.545
45553W        W11033  12.304  35.978   2.705
45554W        W11034  35.030  44.773  14.803
45555W        W11035  31.614   0.861  13.386
45556W        W11036  34.945  25.633  12.483
45557W        W11037  39.426   5.800   4.638
45558W        W11038   1.834  43.482   4.260
45559W        W11039  40.816  40.317  14.443
45560W        W11040  27.002  16.108   4.189
45561W        W11041  31.532  18.644  14.397
45562W        W11042  23.093  24.157   3.739
45563W        W11043   3.821  25.677  10.607
45564W        W11044  13.310  25.117   1.905
45565W        W11045  32.058  11.638  14.028
45566W        W11046   7.304  34.883   1.261
45567W        W11047  12.291   8.389  13.411
45568W        W11048  30.572  44.848  14.938
45569W        W11049  21.248  38.975  12.487
45570W        W11050   0.864  20.589   0.416
45571W        W11051   2.910  17.762  14.491
45572W        W11052   5.919  21.093   3.267
45573W        W11053  39.342   3.710  11.433
45574W        W11054  36.435  32.905  13.380
45575W        W11055  19.137  44.366   0.934
45576W        W11056  44.317   2.915  12.839
45577W        W11057  42.327  40.325   3.212
45578W        W11058  42.315  28.068  14.323
45579W        W11059   1.820  40.519  14.821
45580W        W11060  26.190  15.198   3.818
45581W        W11061  36.488  16.248  11.604
45582W        W11062  44.963  30.627   0.282
45583W        W11063   4.225   9.218  11.415
45584W        W11064  22.224  41.007   3.639
45585W        W11065  25.698  23.597   2.691
45586W        W11066  29.669  15.670   2.731
45587W        W11067  19.275  24.590   4.798
45588W        W11068  44.894  42.470  12.835
45589W        W11069  36.887  10.301   4.251
45590W        W11070  15.601  43.922   0.734
45591W        W11071  40.384  29.637   1.710
45592W        W11072  18.595  24.084   2.401
45593W        W11073  23.639   7.778   0.877
45594W        W11074  41.295   2.876   2.417
45595W        W11075  11.294  17.667   2.825
45596W        W11076  10.767  13.206  13.355
45597W        W11077  11.308  32.536  12.034
45598W        W11078   5.426   5.389  11.977
45599W        W11079   8.242  38.832   3.746
45600W        W11080  27.150  36.078   1.788
45601W        W11081   6.225  40.515  12.378
45602W        W11082  11.248  30.089   2.178
45603W        W11083  13.186  40.797   1.258
45604W        W11084   4.871  30.639  13.338
45605W        W11085  11.266  27.680   1.877
45606W        W11086  15.729  15.213   3.733
45607W        W11087  43.881  44.936   4.273
45608W        W11088  11.766  17.097   1.317
45609W        W11089  25.143  16.789   2.679
45610W        W11090   9.372  13.300  13.048
45611W        W11091  29.644  37.380  10.622
45612W        W11092  19.254  17.099   2.238
45613W        W11093  39.982  18.619   2.697
45614W        W11094  39.913  20.727   0.790
45615W        W11095  41.998   7.270  13.862
45616W        W11096  37.503  25.017   4.713
45617W        W11097  43.836  35.879  11.511
45618W        W11098  43.508  10.159  14.913
45619W        W11099  29.603   2.794  14.975
45620W        W11100  32.504  33.907  14.853
45621W        W11101  40.052  18.097   0.848
45622W        W11102  29.045  44.763   2.219
45623W        W11103  11.715   1.907  10.426
45624W        W11104  28.613  40.898   1.797
45625W        W11105  36.553  31.447   0.794
45626W        W11106  28.109  41.392  14.298
45627W        W11107  35.992  18.685  10.503
45628W        W11108   9.179  18.251   1.368
45629W        W11109  36.025  27.111   2.895
45630W        W11110  41.498  40.549  10.918
45631W        W11111  23.204  22.016  10.621
45632W        W11112  44.982  27.037   3.795
45633W        W11113  43.785  32.513   4.659
45634W        W11114  42.968  15.644   4.249
45635W        W11115  40.878  28.072   0.474
45636W        W11116   8.771  44.908  12.044
45637W        W11117   3.793  30.593  13.473
45638W        W11118  22.145  11.807   2.859
45639W        W11119   2.720  23.652  12.832
45640W        W11120  28.058  24.703  11.057
45641W        W11121  12.201   1.904   2.897
45642W        W11122  41.855  36.544  14.864
45643W        W11123   6.205  28.655   0.845
45644W        W11124  28.992  15.665  12.572
45645W        W11125   3.847   6.357  10.998
45646W        W11126  42.524   5.390  11.421
45647W        W11127  13.749  19.622  12.937
45648W        W11128  10.790   1.299   4.672
45649W        W11129  28.061  36.040   5.183
45650W        W11130  32.024   3.790  12.060
45651W        W11131  38.368  33.533  11.959
45652W        W11132  10.779   0.429  11.895
45653W        W11133  21.558  41.363  14.929
45654W        W11134  29.544  14.105   3.836
45655W        W11135  34.045   8.899   5.125
45656W        W11136  22.081  43.902   0.364
45657W        W11137  23.071   0.345   4.648
45658W        W11138  32.952   4.213  11.985
45659W        W11139  14.238  26.993  12.836
45660W        W11140  17.620  25.143   2.356
45661W        W11141   7.355  34.884   4.736
45662W        W11142  16.730   3.797  12.968
45663W        W11143  30.608  27.607   0.854
45664W        W11144  23.645   8.896  12.506
45665W        W11145   1.769  42.780   4.122
45666W        W11146  15.597  23.110  14.861
45667W        W11147  29.484  42.301  11.113
45668W        W11148  18.673  10.234   0.940
45669W        W11149  18.138  35.979  13.525
45670W        W11150   6.688  31.451  10.971
45671W        W11151  41.018  31.961  11.429
45672W        W11152  29.573  33.020  10.893
45673W        W11153  26.645  24.536  14.781
45674W        W11154  18.747  11.345   0.965
45675W        W11155   8.896  11.700  10.940
45676W        W11156  16.276  16.098   5.092
45677W        W11157  25.215  22.652   3.387
45678W        W11158   2.729  15.742   0.483
45679W        W11159  30.569  17.103   0.254
45680W        W11160  39.966  26.624   2.723
45681W        W11161  23.118  33.537   4.730
45682W        W11162   2.869  38.414  10.473
45683W        W11163  32.507   7.810   3.649
45684W        W11164   8.249  29.119   0.273
45685W        W11165  26.653  21.581  11.458
45686W        W11166  14.198  22.656  12.002
45687W        W11167  33.445  12.803  14.018
45688W        W11168  24.720  22.012   4.608
45689W        W11169  33.623  13.600  11.103
45690W        W11170   8.305  44.963  12.928
45691W        W11171  42.948   8.896  11.074
45692W        W11172   0.984  39.382  11.076
45693W        W11173  41.457  31.096  11.521
45694W        W11174   9.779   1.813   4.231
45695W        W11175  22.083  42.501   4.773
45696W        W11176  12.253  19.068  14.962
45697W        W11177  14.167  28.018  14.885
45698W        W11178  29.030  26.600   1.788
45699W        W11179  28.043   1.779  11.420
45700W        W11180  40.363   1.295  12.372
45701W        W11181  18.639  14.591   1.752
45702W        W11182  44.452   9.817  11.957
45703W        W11183  42.914  38.943   2.873
45704W        W11184  14.713   7.774   4.773
45705W        W11185  19.767  44.928   1.884
45706W        W11186   1.855  14.310   4.766
45707W        W11187  15.686  25.183   4.330
45708W        W11188  24.539  11.308   3.338
45709W        W11189  17.273  43.276   0.959
45710W        W11190  12.323   5.358   1.301
45711W        W11191   8.834  37.378  10.924
45712W        W11192   5.850  26.565  14.781
45713W        W11193  34.011  34.996  11.487
45714W        W11194  39.057  43.972  14.836
45715W        W11195   8.669  25.180  12.348
45716W        W11196  20.564  12.757  14.438
45717W        W11197  13.259  18.722   3.649
45718W        W11198   0.466  38.858   3.805
45719W        W11199  37.980  40.445   3.827
45720W        W11200  40.930  25.133  14.374
45721W        W11201  33.965  21.054  12.465
45722W        W11202  16.732  22.216  11.970
45723W        W11203  27.150   7.716  13.848
45724W        W11204  23.047   6.338   0.356
45725W        W11205  40.028  27.002  13.864
45726W        W11206  10.252  28.016   5.222
45727W        W11207   9.249  24.023  11.598
45728W        W11208  40.449  40.327   1.698
45729W        W11209  11.175  22.130   4.693
45730W        W11210   5.287  12.202   0.471
45731W        W11211   2.382   7.703  12.871
45732W        W11212   7.895   9.242  13.942
45733W        W11213   3.377  26.676  12.440
45734W        W11214  31.057  23.214   3.296
45735W        W11215  40.324  40.864   4.677
45736W        W11216  12.615   8.399   1.223
45737W        W11217  19.075   3.806  10.520
45738W        W11218  26.147  20.618   4.180
45739W        W11219  33.525  23.005  14.922
45740W        W11220  17.145  22.079  14.807
45741W        W11221   5.887  44.500   1.302
45742W        W11222  11.245   5.729  12.914
45743W        W11223   6.864   0.329   0.283
45744W        W11224  25.607  30.444  10.043
45745W        W11225  41.318   2.440   5.176
45746W        W11226  43.800   6.816  10.994
45747W        W11227  11.718  16.766   3.339
45748W        W11228  24.986  27.071   1.343
45749W        W11229   8.400  44.464   0.336
45750W        W11230  39.863  24.547  13.409
45751W        W11231  15.602   3.385   1.365
45752W        W11232   1.786  13.281  13.011
45753W        W11233  35.452  33.879   3.644
45754W        W11234  22.589   5.868  12.456
45755W        W11235  25.637  23.722   0.799
45756W        W11236  19.608   4.439  12.879
45757W        W11237  38.891  38.372   0.315
45758W        W11238  18.139   6.896  10.517
45759W        W11239   5.716  28.523  11.521
45760W        W11240  43.353  17.304   9.999
45761W        W11241  18.292  20.224  12.024
45762W        W11242  24.591  37.505   2.761
45763W        W11243  32.119  25.609   4.172
45764W        W11244  11.156  38.332   1.224
45765W        W11245  23.639  25.965  13.961
45766W        W11246  38.022   9.356  14.774
45767W        W11247  39.499  14.716   1.696
45768W        W11248  24.706  11.637  13.816
45769W        W11249  16.705  15.262   0.251
45770W        W11250  13.134  42.972   2.900
45771W        W11251   5.704  30.033   0.333
45772W        W11252  30.944  13.787  12.392
45773W        W11253  23.036  20.685   2.812
45774W        W11254  22.727   8.360   2.766
45775W        W11255  10.274  15.148  10.613
45776W        W11256  34.541   7.265  12.561
45777W        W11257  19.556   8.812   5.311
45778W        W11258  31.948  38.496   0.936
45779W        W11259  37.570  39.007   4.743
45780W        W11260  29.112  32.048  11.381
45781W        W11261   3.873  18.186   1.431
45782W        W11262  43.311   6.767   4.733
45783W        W11263  18.105  38.514   1.270
45784W        W11264  34.423  41.296  14.764
45785W        W11265  18.173  28.115  12.953
45786W        W11266  15.659  36.025   1.778
45787W        W11267   5.259   2.297   3.181
45788W        W11268  32.482  17.203  14.027
45789W        W11269   0.815  29.487   2.212
45790W        W11270   3.406  41.803   2.725
45791W        W11271  34.538  44.281   0.257
45792W        W11272  27.971   0.255   0.900
45793W        W11273  34.074  43.968  12.417
45794W        W11274   0.407  22.567  12.579
45795W        W11275   6.224  25.169  12.394
45796W        W11276  42.879  44.936  13.830
45797W        W11277  44.440  18.074  12.491
45798W        W11278   2.283  10.858  12.884
45799W        W11279  24.127  17.257   0.374
45800W        W11280  20.636   7.790   1.391
45801W        W11281  31.459  20.530   3.286
45802W        W11282  18.707  43.846  13.447
45803W        W11283   7.733  23.713   2.398
45804W        W11284  36.558  33.125  10.613
45805W        W11285  13.698   0.976   1.242
45806W        W11286  23.556   1.387  11.565
45807W        W11287  15.264   2.285   1.413
45808W        W11288   0.804  24.687   4.156
45809W        W11289  40.324  35.916   9.922
45810W        W11290  37.505  33.932  11.553
45811W        W11291  33.991  34.529   3.758
45812W        W11292  19.265  18.752  12.907
45813W        W11293  28.646   2.847   4.262
45814W        W11294  15.126  16.758  13.491
45815W        W11295  30.578   4.336   3.317
45816W        W11296  27.017  42.455  10.428
45817W        W11297  27.014   7.707   4.714
45818W        W11298  12.209  15.244   4.205
45819W        W11299   2.881  23.613   3.717
45820W        W11300  29.657  34.048   0.349
45821W        W11301  20.201  37.884   3.192
45822W        W11302  19.278  17.720  11.896
45823W        W11303  37.556  20.244  12.478
45824W        W11304  40.902  21.096   2.781
45825W        W11305  23.222  31.646  12.423
45826W        W11306   1.843   2.894   4.672
45827W        W11307  21.126  27.125  10.962
45828W        W11308   5.275  12.802   1.695
45829W        W11309  32.544  19.172   1.866
45830W        W11310   9.859   1.884   0.273
45831W        W11311  16.114   9.804  13.859
45832W        W11312  12.207  12.631  11.006
45833W        W11313  43.483  19.208  12.440
45834W        W11314   1.896  39.949   2.225
45835W        W11315  21.185  43.477   1.273
45836W        W11316   5.818  15.801  13.984
45837W        W11317  37.582  15.107  13.369
45838W        W11318  13.664  42.033  11.872
45839W        W11319  40.526  43.444  14.966
45840W        W11320  38.018  34.901   1.325
45841W        W11321  27.637   2.883   3.255
45842W        W11322   4.237  36.950  13.003
45843W        W11323   0.824  33.488  12.356
45844W        W11324  14.703  20.741  10.982
45845W        W11325  15.143  44.319  10.563
45846W        W11326   4.740   5.347  12.521
45847W        W11327  42.849  13.331  11.373
45848W        W11328  29.035  31.541   0.438
45849W        W11329  43.447  10.828   0.346
45850W        W11330  11.268  38.833  13.516
45851W        W11331  34.493  22.009  14.348
45852W        W11332   5.237  18.737   1.295
45853W        W11333   2.423   5.908   2.787
45854W        W11334  30.452   7.245  12.352
45855W        W11335  14.229  25.712   3.244
45856W        W11336   1.449   2.959   3.306
45857W        W11337  37.572  27.562  14.423
45858W        W11338  11.686  41.014  14.995
45859W        W11339   3.359   9.225   3.267
45860W        W11340   3.339  32.072   0.341
45861W        W11341  10.727   3.370  13.542
45862W        W11342  40.971   9.670  11.857
45863W        W11343  44.941  42.978   1.329
45864W        W11344   6.319  43.811   3.183
45865W        W11345  26.018  11.718  14.314
45866W        W11346  33.510  10.166   1.832
45867W        W11347  33.981  17.101   0.856
45868W        W11348  15.310  41.843   3.675
45869W        W11349  13.150  34.609  12.937
45870W        W11350  27.646  43.493  11.114
45871W        W11351  33.066  44.339  12.021
45872W        W11352  17.266  17.220   2.327
45873W        W11353  20.522   7.791  11.971
45874W        W11354  23.194  22.661   2.812
45875W        W11355  27.169  44.280   3.806
45876W        W11356  35.998  28.621   2.412
45877W        W11357  27.539  28.629  10.590
45878W        W11358  31.021  28.634  12.852
45879W        W11359  19.622  17.271   5.173
45880W        W11360  28.555  21.715   0.784
45881W        W11361  19.675  36.513   1.719
45882W        W11362  26.171   5.363   3.291
45883W        W11363  32.434  24.180   2.685
45884W        W11364  42.508  37.839  13.950
45885W        W11365   4.734  24.566   0.909
45886W        W11366   3.365  32.014  10.933
45887W        W11367  44.856  40.981  11.985
45888W        W11368  13.714   4.803   4.229
45889W        W11369   6.366  13.737  13.341
45890W        W11370  39.963  14.829   1.851
45891W        W11371  18.765  38.917  12.978
45892W        W11372  31.035  27.662   2.842
45893W        W11373  12.697  20.632  12.892
45894W        W11374  22.046  25.484   1.814
45895W        W11375  30.045  12.780   4.789
45896W        W11376  34.410  17.089  14.970
45897W        W11377  35.408  13.144   3.296
45898W        W11378   0.291   6.857   1.929
45899W        W11379  14.812  17.788  13.323
45900W        W11380  21.665   5.904   5.113
45901W        W11381  21.726   8.243  11.543
45902W        W11382   5.920  29.040  11.432
45903W        W11383  14.340   7.728   0.730
45904W        W11384  11.629   7.800   3.748
45905W        W11385   6.869  18.129  11.589
45906W        W11386  14.258  10.740  10.939
45907W        W11387  14.269  21.217  14.878
45908W        W11388  15.593  16.072   2.699
45909W        W11389  25.636  31.403   1.366
45910W        W11390  23.164  19.674   0.399
45911W        W11391  17.574  13.299  11.955
45912W        W11392  43.362   8.664   4.827
45913W        W11393  33.951  33.449   3.857
45914W        W11394  20.131  20.055  14.022
45915W        W11395  39.890  21.616  14.330
45916W        W11396  15.130  27.002  13.025
45917W        W11397   7.700  17.782   3.818
45918W        W11398  21.608  21.217   1.359
45919W        W11399  10.238  32.565   2.749
45920W        W11400   8.809  32.956   1.859
45921W        W11401  17.562  24.224   0.355
45922W        W11402  39.979  44.928   0.939
45923W        W11403   1.758  22.675   2.214
45924W        W11404  16.649  31.095  12.058
45925W        W11405  10.700   5.830  13.975
45926W        W11406   2.293  37.371   1.863
45927W        W11407   1.859   5.842   4.613
45928W        W11408  28.512  34.555  10.563
45929W        W11409  33.521  25.667   5.294
45930W        W11410  14.686  30.929  13.347
45931W        W11411  26.643  15.251  14.877
45932W        W11412  12.662  15.633   3.369
45933W        W11413  16.184  23.195  13.018
45934W        W11414   4.352  33.914   2.337
45935W        W11415   1.786  35.887  12.458
45936W        W11416  44.996  11.851   0.463
45937W        W11417   4.430  25.629  13.974
45938W        W11418   9.220  32.557  12.834
45939W        W11419  36.905   5.345  10.587
45940W        W11420  42.438  25.972  11.468
45941W        W11421  23.633  18.174   1.817
45942W        W11422  44.918  30.510   2.735
45943W        W11423   5.409  11.341   2.691
45944W        W11424  22.107  34.483  13.363
45945W        W11425  27.099  23.723  14.411
45946W        W11426  20.531  34.576  10.567
45947W        W11427  29.620  43.779   1.935
45948W        W11428  41.832   6.331  12.551
45949W        W11429  18.751  17.590   0.860
45950W        W11430  36.574  21.033   2.249
45951W        W11431  19.537  19.258  10.901
45952W        W11432  40.431   0.822  10.538
45953W        W11433  30.529  12.133   3.197
45954W        W11434  35.052   0.879   5.222
45955W        W11435  39.336  24.985  12.883
45956W        W11436  44.303  17.063   0.853
45957W        W11437  12.210  30.148  12.546
45958W        W11438  28.668  35.426   4.296
45959W        W11439   6.844  17.650   1.709
45960W        W11440  38.355   5.267   3.329
45961W        W11441  41.890  21.221   4.147
45962W        W11442  21.751  40.842   0.966
45963W        W11443   7.755  17.665  12.360
45964W        W11444  21.139  40.880   4.730
45965W        W11445   5.285   9.153  14.838
45966W        W11446   9.327  44.846  12.347
45967W        W11447  36.363  41.798  11.494
45968W        W11448  34.418  34.610  11.488
45969W        W11449   4.862  12.827   4.207
45970W        W11450  15.694  25.569   0.906
45971W        W11451  33.991  39.895  13.467
45972W        W11452  35.498   3.729  12.900
45973W        W11453  35.558  29.474  12.908
45974W        W11454  30.020   8.387   3.851
45975W        W11455  30.029  19.141  11.407
45976W        W11456  23.084  44.854   2.757
45977W        W11457  20.041  33.595   0.409
45978W        W11458  14.611  28.580   0.448
45979W        W11459   3.940  36.897  12.828
45980W        W11460  42.395  18.242  14.768
45981W        W11461  36.884  18.127  10.935
45982W        W11462  30.550  20.619  12.378
45983W        W11463  20.611  18.567   1.877
45984W        W11464  37.398  33.433   0.733
45985W        W11465  40.374  14.245   3.219
45986W        W11466  13.721   7.385  11.887
45987W        W11467  13.826   8.838   2.384
45988W        W11468  24.979  30.961   4.832
45989W        W11469  34.987  42.488  11.542
45990W        W11470  39.422   4.917  14.434
45991W        W11471  44.501   7.846   5.319
45992W        W11472   9.380  21.212  14.402
45993W        W11473  22.530  22.635  13.461
45994W        W11474  28.159  22.653   0.906
45995W        W11475  39.816  44.480  12.480
45996W        W11476  40.480   8.675  10.135
45997W        W11477  36.474  31.032   4.796
45998W        W11478  31.503   5.917   2.667
45999W        W11479   9.165  34.529   1.260
46000W        W11480  23.152  12.736   2.901
46001W        W11481  20.743  17.285   3.646
46002W        W11482  44.417  24.124  10.524
46003W        W11483  39.984  17.275   1.258
46004W        W11484   1.249  29.037   3.738
46005W        W11485  25.177   8.721   3.665
46006W        W11486  23.221  11.803   4.216
46007W        W11487  17.685   0.889  10.950
46008W        W11488  43.862  17.667  13.055
46009W        W11489  12.702  14.283  13.382
46010W        W11490  20.565   9.284   2.393
46011W        W11491  27.074  14.779   2.269
46012W        W11492   2.863  40.026  13.386
46013W        W11493  22.706  35.544   4.347
46014W        W11494  36.399  12.191   4.821
46015W        W11495  22.045  38.975  14.833
46016W        W11496  12.669   3.774   5.227
46017W        W11497   0.304  24.680  12.475
46018W        W11498  27.567  24.147   3.796
46019W        W11499  22.635  37.433   2.299
46020W        W11500   6.854  41.912  14.973
46021W        W11501   5.398  27.975   0.801
46022W        W11502  29.088  44.441  13.441
46023W        W11503  21.692  42.404  13.381
46024W        W11504  15.579  20.661   0.793
46025W        W11505  15.642  38.842   3.851
46026W        W11506   6.223  31.430   2.712
46027W        W11507   5.397   5.909   4.727
46028W        W11508  12.797  44.833   2.381
46029W        W11509  40.507  19.046  14.859
46030W        W11510  31.074  25.568  13.500
46031W        W11511  16.708  19.169  12.495
46032W        W11512  31.537  10.803  14.412
46033W        W11513  15.582  20.107   4.663
46034W        W11514  37.483   7.781  13.382
46035W        W11515  24.591  36.866  10.418
46036W        W11516  40.812  24.522  14.971
46037W        W11517  22.210  24.624   1.712
46038W        W11518   4.804  27.692   4.632
46039W        W11519  10.300  16.190  11.536
46040W        W11520   5.390  41.423   2.355
46041W        W11521  41.931  26.972   0.740
46042W        W11522   3.249   5.881  11.079
46043W        W11523   3.301  24.177  11.084
46044W        W11524  28.607  33.381  14.915
46045W        W11525  28.014  38.472   0.881
46046W        W11526  28.598  27.493  13.988
46047W        W11527  12.625  40.331   4.697
46048W        W11528  42.020  30.650  13.036
46049W        W11529   3.869   6.366   3.264
46050W        W11530   3.899  18.131   1.842
46051W        W11531  13.623   8.674   1.698
46052W        W11532   6.743  40.388  13.412
46053W        W11533  19.096  25.490  12.846
46054W        W11534  11.290   8.399  10.917
46055W        W11535  34.571  38.933   1.227
46056W        W11536  31.406   6.715   4.776
46057W        W11537  24.067   5.865  12.076
46058W        W11538  28.992  25.623  14.380
46059W        W11539  32.462   1.330   1.314
46060W        W11540  43.513  19.055  11.115
46061W        W11541  12.846  11.206  10.430
46062W        W11542   7.360   6.278  13.387
46063W        W11543  15.696  32.975   1.378
46064W        W11544  37.840  42.309   1.240
46065W        W11545  44.441  41.024  12.922
46066W        W11546  44.927  41.525   2.844
46067W        W11547  12.830   5.800   1.358
46068W        W11548  44.800  12.796  10.546
46069W        W11549   9.672  12.246   3.292
46070W        W11550  21.172  21.635  12.393
46071W        W11551   1.858   3.758   3.284
46072W        W11552  11.693  23.534  14.850
46073W        W11553  33.622  16.620  14.881
46074W        W11554  21.075  10.193  12.973
46075W        W11555   1.337  44.977  13.861
46076W        W11556  24.511   0.807  11.440
46077W        W11557  22.220  33.617   3.791
46078W        W11558  24.031  34.384  13.861
46079W        W11559  13.156  23.032  11.075
46080W        W11560   9.176  10.381  13.338
46081W        W11561  23.227   1.414  11.499
46082W        W11562  37.405  37.575   0.851
46083W        W11563  40.411  31.561  11.536
46084W        W11564  23.666   2.924  13.415
46085W        W11565  29.619  20.566   4.647
46086W        W11566  26.677   6.733  12.001
46087W        W11567   6.871  21.221  10.612
46088W        W11568  35.870  35.408   4.290
46089W        W11569   8.735  43.801  13.865
46090W        W11570  44.345   4.825   1.325
46091W        W11571  27.016  29.133   3.238
46092W        W11572  14.212  11.184   4.739
46093W        W11573  13.752  44.295   4.651
46094W        W11574  27.102  29.583   3.259
46095W        W11575  34.877  22.141   0.454
46096W        W11576  27.058  34.047   1.372
46097W        W11577  33.891  44.860   2.248
46098W        W11578  39.531  14.806  11.539
46099W        W11579  32.993  21.630   0.393
46100W        W11580   4.703  31.514   1.790
46101W        W11581   4.287  33.001  13.896
46102W        W11582   6.423  38.897   5.238
46103W        W11583  17.236  11.211   0.834
46104W        W11584  36.854  12.647   2.313
46105W        W11585  20.245   9.871   4.275
46106W        W11586  18.233  12.162  12.830
46107W        W11587   9.809  43.496  13.379
46108W        W11588   1.845  42.331  10.462
46109W        W11589  11.775  28.474  14.031
46110W        W11590  28.667  20.763   4.784
46111W        W11591  43.299  38.849  13.908
46112W        W11592  30.523  16.586  11.077
46113W        W11593  34.097  33.942   4.247
46114W        W11594  39.448  15.781   1.256
46115W        W11595  22.114  24.480  14.471
46116W        W11596  14.815  19.168  11.588
46117W        W11597  17.178   7.907  10.903
46118W        W11598  13.797  33.612   4.803
46119W        W11599   8.698  15.599  11.953
46120W        W11600   4.441  41.395  10.498
46121W        W11601   6.918  12.760  10.629
46122W        W11602  18.758  24.046   0.735
46123W        W11603   7.232  42.308   0.281
46124W        W11604  23.140  12.168  13.314
46125W        W11605  24.687  41.824  13.334
46126W        W11606  37.048  22.227   4.221
46127W        W11607  30.597  17.199  13.024
46128W        W11608  21.721  40.357   1.783
46129W        W11609  31.460  16.634   0.804
46130W        W11610   1.352  17.568   3.757
46131W        W11611  36.931  42.966   0.377
46132W        W11612  23.029  23.130  10.983
46133W        W11613  20.629  12.742  11.859
46134W        W11614  24.501   0.369  11.524
46135W        W11615  27.630  27.009  14.850
46136W        W11616  10.874   8.803   1.821
46137W        W11617  27.118   1.365   4.352
46138W        W11618  23.702  26.596   2.339
46139W        W11619  39.948   0.933   3.868
46140W        W11620  25.070  18.189  13.955
46141W        W11621  22.012  21.610   3.779
46142W        W11622   7.345  43.512   2.891
46143W        W11623   0.326   2.258  13.488
46144W        W11624  16.233  39.351   2.320
46145W        W11625  18.146   6.277   2.365
46146W        W11626  44.935   8.811  14.376
46147W        W11627  42.811  27.967   0.294
46148W        W11628   1.947  23.025  14.410
46149W        W11629  29.452   1.971   0.955
46150W        W11630  11.164  42.827   3.792
46151W        W11631  23.732  30.593   4.769
46152W        W11632  34.522  19.134  13.314
46153W        W11633  40.017  12.682  11.932
46154W        W11634   0.977  44.262   1.270
46155W        W11635  33.001  23.506   3.176
46156W        W11636  15.244  44.961   4.126
46157W        W11637  25.192   0.449   5.208
46158W        W11638  35.389  39.052  11.554
46159W        W11639  35.960  36.962   2.896
46160W        W11640  35.436  11.865  14.327
46161W        W11641  41.003  18.293  13.871
46162W        W11642  37.402  36.975  13.427
46163W        W11643  22.135  38.846   2.331
46164W        W11644  11.687   4.334   1.302
46165W        W11645  33.595  26.667  12.086
46166W        W11646  41.812  13.244   0.326
46167W        W11647  26.679  25.589  10.979
46168W        W11648   8.227  25.188  13.881
46169W        W11649   5.416   4.230  12.525
46170W        W11650  30.657   3.717  12.497
46171W        W11651  33.551  39.393  10.992
46172W        W11652  13.763  18.595  11.573
46173W        W11653  23.206   7.886  14.787
46174W        W11654  25.142   1.446  11.467
46175W        W11655  34.469  26.535  14.996
46176W        W11656  43.366  10.365   2.372
46177W        W11657   7.807  37.936   3.150
46178W        W11658  20.072   7.248   4.335
46179W        W11659  30.095   6.895   4.631
46180W        W11660  14.710   6.297  14.419
46181W        W11661  25.034  31.499  12.931
46182W        W11662  15.756  26.033   3.746
46183W        W11663  41.484   6.783   5.109
46184W        W11664  37.062  38.392  11.027
46185W        W11665  22.714  15.632   2.894
46186W        W11666  13.151   7.865   0.958
46187W        W11667   0.951  14.259   2.278
46188W        W11668  24.668  12.687  11.894
46189W        W11669  25.001  27.096   0.461
46190W        W11670  43.362  22.538   2.266
46191W        W11671  28.015  13.683   1.875
46192W        W11672  23.575  10.689  12.466
46193W        W11673   3.741   1.329   1.721
46194W        W11674  36.997  22.642  14.348
46195W        W11675  23.024  42.322   1.860
46196W        W11676  25.148  42.846   4.166
46197W        W11677  14.117  37.561   0.300
46198W        W11678  24.578  41.832  10.451
46199W        W11679  32.128  13.279   0.264
46200W        W11680  34.103  15.200  10.641
46201W        W11681  11.820   1.837   3.207
46202W        W11682  21.172  21.092   2.377
46203W        W11683   8.869  22.166   4.671
46204W        W11684  11.210  38.410   2.881
46205W        W11685   9.805   7.401   1.276
46206W        W11686  34.020  44.800  11.127
46207W        W11687  16.647  37.403   2.849
46208W        W11688  17.250   3.454   9.945
46209W        W11689  40.497  37.861   0.365
46210W        W11690  10.638  38.336  14.950
46211W        W11691  27.457  35.557   1.333
46212W        W11692  39.960  34.086  14.447
46213W        W11693  44.790  41.915   2.744
46214W        W11694  34.513   9.288   4.212
46215W        W11695  17.703  10.220  10.450
46216W        W11696   5.422  28.523  13.488
46217W        W11697  18.050  11.685   0.289
46218W        W11698  35.954  31.130   1.771
46219W        W11699  31.403   5.404  11.577
46220W        W11700   9.242  42.499  13.487
46221W        W11701  35.077  31.127  13.527
46222W        W11702  13.159  34.556  13.385
46223W        W11703  43.279  27.974  13.481
46224W        W11704  23.127   5.803  11.549
46225W        W11705   9.877  29.567   3.168
46226W        W11706  15.270   4.441   4.331
46227W        W11707  24.018  11.141   0.810
46228W        W11708  44.975   4.842  13.495
46229W        W11709   6.914   5.786   3.195
46230W        W11710  33.118   8.280   1.304
46231W        W11711  17.570  38.027  12.526
46232W        W11712  33.394  13.797  12.930
46233W        W11713  21.613  37.434   1.762
46234W        W11714  38.017   1.248   0.878
46235W        W11715  44.385  28.969   4.763
46236W        W11716   0.809  36.995  14.928
46237W        W11717  18.606  38.832   2.278
46238W        W11718  27.658  33.467  14.848
46239W        W11719   2.472   9.232   2.389
46240W        W11720  33.059  23.046  10.436
46241W        W11721  33.613  43.874  12.439
46242W        W11722  14.109   5.920   4.790
46243W        W11723   5.816  34.904  11.606
46244W        W11724  42.001  22.112  14.475
46245W        W11725  24.019   3.721   4.191
46246W        W11726  30.058  30.605  13.400
46247W        W11727   4.227   5.690   2.194
46248W        W11728  19.212  14.607   0.329
46249W        W11729  42.860   2.311  12.096
46250W        W11730  44.415  15.719   0.920
46251W        W11731  24.637  20.552   4.259
46252W        W11732  15.713   2.386  14.855
46253W        W11733  13.734  35.103  12.393
46254W        W11734  23.230  30.619   1.724
46255W        W11735  26.196   5.240   1.213
46256W        W11736  29.060  21.185  13.515
46257W        W11737  32.584  33.918  10.953
46258W        W11738  41.993  17.145   3.753
46259W        W11739  39.348   7.255  12.014
46260W        W11740  34.116  39.419   5.296
46261W        W11741  20.566  17.258  14.333
46262W        W11742  36.424  30.658   2.190
46263W        W11743  18.786  37.474  10.926
46264W        W11744  35.026  22.507  13.945
46265W        W11745  38.442  28.045   4.672
46266W        W11746  10.640   4.229  14.359
46267W        W11747  29.982  33.095   0.421
46268W        W11748  42.940  11.228   4.604
46269W        W11749  15.319  38.354   4.171
46270W        W11750   7.269   8.330  14.858
46271W        W11751  35.471   7.391  13.977
46272W        W11752  18.198  27.498  12.495
46273W        W11753  33.875  33.503  12.536
46274W        W11754   0.463  38.894   1.367
46275W        W11755  33.049   7.800  12.828
46276W        W11756  41.987  31.099  12.457
46277W        W11757   2.743   1.472  12.442
46278W        W11758  28.984   2.758   2.419
46279W        W11759  41.792  36.570   3.275
46280W        W11760  44.480  25.570  13.801
46281W        W11761  21.181   7.774  13.986
46282W        W11762  19.678   7.216   1.328
46283W        W11763  20.068  24.051   0.767
46284W        W11764  37.830  24.984   1.859
46285W        W11765  44.998  40.462   0.373
46286W        W11766  14.825  19.270  10.614
46287W        W11767  33.939   8.686  13.835
46288W        W11768  11.272   4.365  11.446
46289W        W11769  17.187  30.948  13.454
46290W        W11770   0.893  35.007   3.783
46291W        W11771  20.566  34.489   4.779
46292W        W11772  44.476  31.436   4.809
46293W        W11773  13.742  12.821   0.887
46294W        W11774  23.195  24.189   0.880
46295W        W11775  16.175  42.936  11.424
46296W        W11776  13.257  15.278  10.979
46297W        W11777  17.584   4.218   1.281
46298W        W11778  37.910  34.543   4.808
46299W        W11779  38.502  16.191  11.465
46300W        W11780  28.054  31.596  13.455
46301W        W11781  22.698   2.887   1.865
46302W        W11782  19.625  15.806   3.692
46303W        W11783  15.809  25.988  13.410
46304W        W11784  24.689  16.275  12.474
46305W        W11785   9.890  16.754   1.822
46306W        W11786  28.102  15.237  13.014
46307W        W11787  43.937   6.841  10.641
46308W        W11788  19.616  15.269  13.048
46309W        W11789  28.984  21.588  12.490
46310W        W11790  12.259  16.260   0.849
46311W        W11791   9.256  29.531   1.857
46312W        W11792   9.653   6.381   2.306
46313W        W11793  27.534  12.248   3.273
46314W        W11794  29.171  33.880  13.962
46315W        W11795  39.037  26.640  10.464
46316W        W11796   0.982   5.401   0.256
46317W        W11797   9.395  37.515   4.718
46318W        W11798  38.992   9.770  10.923
46319W        W11799  33.068   0.942   0.778
46320W        W11800  15.613  21.156   0.307
46321W        W11801  15.243  12.842   3.749
46322W        W11802  18.210  21.731  11.521
46323W        W11803  30.925  38.840   9.987
46324W        W11804  19.278   2.830  10.610
46325W        W11805   9.393  44.786  11.533
46326W        W11806  23.233  35.593   0.278
46327W        W11807  17.731  18.071   3.382
46328W        W11808  27.107  29.629  12.435
46329W        W11809   1.333  10.344  11.471
46330W        W11810  26.513  15.636   1.926
46331W        W11811  25.534   8.395   4.761
46332W        W11812  25.038   6.871  11.911
46333W        W11813  19.062  14.607  14.862
46334W        W11814   0.448  31.898  10.898
46335W        W11815  44.938  32.492  11.982
46336W        W11816  17.775  15.196   2.376
46337W        W11817   8.231   3.723   4.814
46338W        W11818  38.835   7.387   2.818
46339W        W11819   6.425  39.977   3.241
46340W        W11820  23.175  37.353   3.262
46341W        W11821  36.425  41.430   5.156
46342W        W11822   0.916  32.970   1.904
46343W        W11823   5.301  40.833  14.800
46344W        W11824  14.202  11.160   3.233
46345W        W11825  21.128  20.195  11.929
46346W        W11826  25.088  12.320  13.951
46347W        W11827  36.424  10.218  11.403
46348W        W11828  24.590  33.465  10.927
46349W        W11829  39.416  26.569  10.525
46350W        W11830  10.803  12.618  12.542
46351W        W11831   8.177  35.997  12.058
46352W        W11832   8.332  20.687  11.415
46353W        W11833  35.389  43.399   0.839
46354W        W11834  27.688  25.027  12.033
46355W        W11835   9.356  38.943   3.163
46356W        W11836  36.896  38.405   0.767
46357W        W11837   2.246  31.102   1.838
46358W        W11838  39.315   6.710   0.480
46359W        W11839  28.612  12.180   3.673
46360W        W11840   4.204  13.223   4.306
46361W        W11841  22.716  38.396   4.710
46362W        W11842  37.029  39.007  12.905
46363W        W11843  31.636   3.932   3.286
46364W        W11844  27.628   8.801  14.312
46365W        W11845  16.124   6.358   3.249
46366W        W11846  24.198  34.941  13.506
46367W        W11847   2.383  17.223   3.675
46368W        W11848  24.715  23.506  11.923
46369W        W11849   1.852  24.193   3.632
46370W        W11850   2.952  40.379   0.829
46371W        W11851  12.639  43.951   0.854
46372W        W11852  30.042  15.811   3.211
46373W        W11853  37.958  23.221   3.240
46374W        W11854   3.305  39.321  13.406
46375W        W11855  15.670  29.999  12.400
46376W        W11856  12.153  15.278   3.652
46377W        W11857  22.640   9.213  12.388
46378W        W11858  24.127  18.615   5.122
46379W        W11859  37.526  36.916  13.852
46380W        W11860  41.997  34.070   1.888
46381W        W11861  39.459  12.358  10.937
46382W        W11862  35.915  35.500   0.933
46383W        W11863  43.840  21.236  14.406
46384W        W11864  40.004  31.495  10.948
46385W        W11865  35.597   6.363   3.326
46386W        W11866  18.678  12.211  14.788
46387W        W11867  41.961   8.368   0.249
46388W        W11868  39.980  20.029  13.914
46389W        W11869  11.724  37.972   2.841
46390W        W11870   3.873   1.854   3.824
46391W        W11871  38.020  24.025   2.785
46392W        W11872  26.464  12.160   0.778
46393W        W11873  30.631  34.905  14.415
46394W        W11874  12.318  29.101  14.474
46395W        W11875   3.755  43.427  11.588
46396W        W11876  42.313   6.725  13.448
46397W        W11877  34.528  33.537  10.896
46398W        W11878  30.488  22.619   0.943
46399W        W11879  28.014  31.426   3.157
46400W        W11880  33.005  22.176   3.738
46401W        W11881   3.742  15.219  11.907
46402W        W11882   2.829  39.878   2.362
46403W        W11883  36.880   1.437   3.722
46404W        W11884  34.920  26.078   0.400
46405W        W11885  11.649  22.702   1.916
46406W        W11886  26.138  12.294   1.220
46407W        W11887  38.514   8.343   1.903
46408W        W11888  44.874  26.525  12.071
46409W        W11889  27.581  41.834   4.612
46410W        W11890  21.121  35.015  11.489
46411W        W11891  44.341  30.516  14.275
46412W        W11892  41.370  38.038   0.450
46413W        W11893   3.813  37.413   3.292
46414W        W11894   5.910   7.782  11.460
46415W        W11895  16.644  22.127  11.113
46416W        W11896  28.011  25.156  13.973
46417W        W11897   0.763  10.233   0.264
46418W        W11898  36.450   6.234  11.002
46419W        W11899   3.887  29.621   0.759
46420W        W11900   6.219  21.546   0.896
46421W        W11901  35.395   2.744  14.778
46422W        W11902  42.858   1.263  13.063
46423W        W11903  32.989  19.175  12.973
46424W        W11904  30.953  12.637   2.711
46425W        W11905  25.701  32.117  14.314
46426W        W11906  30.113  19.710   1.383
46427W        W11907  19.041   7.886   0.385
46428W        W11908  34.564  17.258   3.856
46429W        W11909  14.118  31.153   5.125
46430W        W11910  27.482   5.730  13.431
46431W        W11911  37.076  12.749   4.603
46432W        W11912  20.159  27.138  14.915
46433W        W11913   4.758  41.976   0.407
46434W        W11914  42.518  16.621   2.853
46435W        W11915  17.167  16.667   4.136
46436W        W11916   0.882  25.131   2.754
46437W        W11917  24.513  14.189  14.283
46438W        W11918   6.784  21.630  14.935
46439W        W11919  40.810  34.484  11.608
46440W        W11920   7.196  16.649   1.446
46441W        W11921  38.541  29.571  14.825
46442W        W11922   3.298   9.730   2.896
46443W        W11923  24.616  31.985   2.727
46444W        W11924  12.657  17.800   4.254
46445W        W11925   3.310  27.007   4.741
46446W        W11926  10.737   7.258   2.289
46447W        W11927  36.944  22.725   4.289
46448W        W11928   6.695  26.067  13.429
46449W        W11929  22.630  31.963   1.386
46450W        W11930  33.025  14.160   5.098
46451W        W11931  40.462  20.590   2.809
46452W        W11932  44.841  38.848   4.715
46453W        W11933  20.204  20.265   0.872
46454W        W11934   9.160  39.830  13.937
46455W        W11935  25.036  40.325  14.358
46456W        W11936  13.242  15.679  12.557
46457W        W11937   1.817  19.157   1.708
46458W        W11938  13.798  14.133  11.984
46459W        W11939  14.142  21.525  11.907
46460W        W11940  26.988  24.033   1.700
46461W        W11941  21.100   1.325  13.532
46462W        W11942   0.884   4.321  13.954
46463W        W11943   4.256   0.336  10.585
46464W        W11944   3.769   4.759  14.444
46465W        W11945   8.760  41.788   2.778
46466W        W11946  31.092  16.189   4.664
46467W        W11947  39.809  15.797   0.278
46468W        W11948  38.032  21.237  10.133
46469W        W11949  42.933  33.916   2.852
46470W        W11950   0.311  38.348  13.474
46471W        W11951  42.355  33.609  13.405
46472W        W11952   1.292  25.598  11.993
46473W        W11953  24.618  10.214   4.266
46474W        W11954  43.460  12.324  13.815
46475W        W11955   6.311  12.706  10.159
46476W        W11956  30.912   0.374  11.550
46477W        W11957  30.925  25.676   4.751
46478W        W11958  34.986  10.853   2.233
46479W        W11959   2.797  20.552  11.063
46480W        W11960  18.766   5.397   3.679
46481W        W11961  17.648  39.468   2.878
46482W        W11962  10.243  13.311  13.864
46483W        W11963  19.259  28.650   3.668
46484W        W11964  38.939   4.886  11.586
46485W        W11965  10.178  10.192  11.529
46486W        W11966   1.792  33.012   5.804
46487W        W11967   2.871   9.349  10.489
46488W        W11968  37.887  21.028   4.710
46489W        W11969  17.601  35.444  12.564
46490W        W11970  25.023  42.309   2.798
46491W        W11971   5.202  19.225   3.764
46492W        W11972  28.057  30.421  11.595
46493W        W11973  24.198  23.175  12.021
46494W        W11974  22.031  27.972  10.499
46495W        W11975  36.486   0.764   0.960
46496W        W11976  31.022  22.251   3.668
46497W        W11977   7.402  38.934   0.786
46498W        W11978  42.846  37.941   2.873
46499W        W11979  27.953  34.533   4.222
46500W        W11980   7.867  34.899  13.945
46501W        W11981  23.239  42.408   3.359
46502W        W11982   6.830  22.113   4.806
46503W        W11983  19.159  14.623   1.759
46504W        W11984  24.562  18.585  13.874
46505W        W11985  15.183   3.387  12.934
46506W        W11986  24.618  10.738   0.346
46507W        W11987   5.262  28.613  11.461
46508W        W11988  14.813  32.451   2.755
46509W        W11989  20.182  42.018  14.932
46510W        W11990  10.143  13.789   4.180
46511W        W11991   4.884  30.522  14.817
46512W        W11992  37.019  33.121   1.286
46513W        W11993  41.868  43.471   3.720
46514W        W11994  15.114  11.216   0.403
46515W        W11995   8.725  17.303  12.533
46516W        W11996  14.164  16.744   3.844
46517W        W11997  41.887  26.093  10.900
46518W        W11998  15.641  27.474   2.861
46519W        W11999  26.702   1.851   1.400
46520W        W12000   5.708  17.204  12.074
46521W        W12001   3.722   9.250   0.925
46522W        W12002   2.954  22.562  13.910
46523W        W12003  35.971  16.755  13.314
46524W        W12004   4.255  21.124   2.212
46525W        W12005  17.665  42.955   5.125
46526W        W12006  24.069  27.971   3.321
46527W        W12007  16.607  31.421  11.919
46528W        W12008  26.154  29.668   2.781
46529W        W12009  34.576  12.835  13.836
46530W        W12010   3.290  26.675   4.683
46531W        W12011  42.525  16.697   0.463
46532W        W12012   0.821  19.108  11.460
46533W        W12013  18.166   7.308   0.915
46534W        W12014  24.702   5.803  12.499
46535W        W12015   3.743  36.909   4.191
46536W        W12016  14.610  17.606  13.948
46537W        W12017  44.272  35.932   4.605
46538W        W12018  34.069  34.503  13.842
46539W        W12019  20.648  27.518   4.267
46540W        W12020  10.223  18.123   1.888
46541W        W12021  28.630  24.533   1.897
46542W        W12022  27.630  30.559  11.995
46543W        W12023  12.672  32.590   2.725
46544W        W12024   7.855  18.140   4.118
46545W        W12025   1.826  27.627  10.588
46546W        W12026  26.017  22.620   2.751
46547W        W12027  34.995  29.076   1.366
46548W        W12028  43.441  42.290   2.178
46549W        W12029  35.484  36.081   4.180
46550W        W12030   9.877  13.844   4.676
46551W        W12031  34.081   2.233   4.810
46552W        W12032  42.336  18.754  12.071
46553W        W12033  27.496   7.266   4.774
46554W        W12034  35.389  11.140  10.589
46555W        W12035  25.128  33.555   2.833
46556W        W12036  23.109  33.432   0.258
46557W        W12037  16.628  14.796  14.285
46558W        W12038  33.595  27.179   3.243
46559W        W12039   0.304   4.787   0.453
46560W        W12040  18.106  42.872   3.808
46561W        W12041  41.004  24.131   1.734
46562W        W12042   9.866   1.945  13.320
46563W        W12043   3.779  35.363  14.809
46564W        W12044  25.178   0.368  12.430
46565W        W12045  21.520  33.523  14.865
46566W        W12046  19.210  34.056  14.345
46567W        W12047  39.000   5.374  13.447
46568W        W12048   3.345  29.664  13.444
46569W        W12049  26.527   1.360   2.202
46570W        W12050  18.246  25.149   1.282
46571W        W12051  43.375  20.227   2.227
46572W        W12052  27.537  41.531   2.758
46573W        W12053  32.591  22.240   4.832
46574W        W12054  37.486  15.583   3.637
46575W        W12055  20.143  44.894   1.805
46576W        W12056   2.836  27.034  14.902
46577W        W12057   4.854  23.140  14.378
46578W        W12058  19.271  30.586   0.421
46579W        W12059  27.068  28.496   1.324
46580W        W12060  32.891  34.464  11.041
46581W        W12061   8.777  42.281   3.161
46582W        W12062   8.334  10.864  13.393
46583W        W12063   4.377  33.110   1.872
46584W        W12064  29.976   3.880  11.028
46585W        W12065  25.177  43.446  13.957
46586W        W12066   1.341  40.838   2.372
46587W        W12067  14.738  27.059   1.931
46588W        W12068   0.410  17.637   4.188
46589W        W12069  30.017  35.920  14.362
46590W        W12070   5.432  28.642   0.927
46591W        W12071  35.024  31.472  12.097
46592W        W12072  30.139  38.873   5.250
46593W        W12073  38.061  28.468   1.793
46594W        W12074   7.805  10.197   1.365
46595W        W12075   8.714   8.373   4.283
46596W        W12076  41.035  36.574  11.084
46597W        W12077  34.093  11.713  13.326
46598W        W12078  40.887  24.144   0.943
46599W        W12079  14.149  18.203   2.671
46600W        W12080  27.554  44.828   0.815
46601W        W12081   2.854  17.745  11.477
46602W        W12082  22.102  44.976   1.362
46603W        W12083   0.917  40.968  14.885
46604W        W12084  34.491  43.451  14.983
46605W        W12085   5.409  12.236   1.235
46606W        W12086  18.192  33.625   5.193
46607W        W12087  37.936  33.004  13.436
46608W        W12088  35.071  19.775  11.999
46609W        W12089  17.753  18.185   0.243
46610W        W12090   4.298   9.857  12.877
46611W        W12091  35.589   9.653   0.965
46612W        W12092  15.636   2.940  11.417
46613W        W12093  28.128  31.096   3.147
46614W        W12094   3.730  11.849  11.973
46615W        W12095  37.915  33.117   3.315
46616W        W12096   3.234  39.029   4.836
46617W        W12097  13.682  35.363   3.361
46618W        W12098  25.608  34.374  13.393
46619W        W12099  14.306  38.516   0.738
46620W        W12100  19.251   4.887   0.245
46621W        W12101  13.750  39.008  12.902
46622W        W12102  44.475  14.289  13.972
46623W        W12103  21.065  39.995  13.418
46624W        W12104   8.738  32.413   0.400
46625W        W12105  24.511  11.287  11.911
46626W        W12106  25.055  14.703  13.852
46627W        W12107  19.760  35.428  12.839
46628W        W12108  16.664  43.513  12.020
46629W        W12109  34.969   8.206   2.381
46630W        W12110   3.839  20.241  14.792
46631W        W12111  43.852  12.829  11.376
46632W        W12112   2.933  33.413  14.851
46633W        W12113  37.517  18.295  11.404
46634W        W12114   3.911   7.673  12.456
46635W        W12115  31.596  24.112   1.222
46636W        W12116   4.910   7.853  12.369
46637W        W12117  28.463  39.440  13.353
46638W        W12118  31.954  33.090   0.475
46639W        W12119  39.041  40.885  11.128
46640W        W12120  44.387  27.000   0.315
46641W        W12121  20.606  20.599   3.196
46642W        W12122  35.919  36.982   1.895
46643W        W12123  20.694  29.001  12.984
46644W        W12124  23.991  34.457   4.228
46645W        W12125   4.803  35.996   3.662
46646W        W12126  20.066  10.250   2.816
46647W        W12127  16.793   6.270   4.261
46648W        W12128  26.084  26.033   0.741
46649W        W12129  41.336  22.580   3.693
46650W        W12130  17.170   1.828  12.975
46651W        W12131  43.388   5.792  10.635
46652W        W12132  39.336   8.165  11.430
46653W        W12133  18.770  14.234  10.919
46654W        W12134  40.818  37.975   4.322
46655W        W12135  35.393  31.643  11.569
46656W        W12136  20.070  35.906  11.509
46657W        W12137  27.024  35.556   2.772
46658W        W12138  41.999  15.123   1.399
46659W        W12139   6.207   7.346  10.947
46660W        W12140  36.037  15.290   4.350
46661W        W12141  40.312   0.806  13.392
46662W        W12142  33.086  11.833   2.733
46663W        W12143  29.959  14.173  10.888
46664W        W12144  26.655  20.618  13.332
46665W        W12145  44.298  13.232  11.373
46666W        W12146   1.944  20.748  12.844
46667W        W12147  38.957  15.598  13.534
46668W        W12148  20.135  37.448   0.748
46669W        W12149   9.386  39.393   1.847
46670W        W12150  41.500   1.931   3.374
46671W        W12151   8.684  41.366  14.501
46672W        W12152  21.211  22.590   0.922
46673W        W12153  34.370  31.529   1.259
46674W        W12154  17.235  17.705   4.827
46675W        W12155  11.174  36.378   1.386
46676W        W12156  11.866  17.115  13.931
46677W        W12157  31.482  40.343   3.178
46678W        W12158  39.461   7.187  11.007
46679W        W12159  34.537  28.945  12.390
46680W        W12160  28.062   0.332   4.693
46681W        W12161  42.851  21.521   0.265
46682W        W12162   8.886  26.672   4.282
46683W        W12163  40.020   4.376  13.007
46684W        W12164  32.390  36.015  14.812
46685W        W12165  34.071  32.976  12.367
46686W        W12166   7.678  21.750  11.998
46687W        W12167  23.023   1.452   0.268
46688W        W12168  40.948  22.705   0.246
46689W        W12169  40.022  33.125  12.879
46690W        W12170  13.626  31.928   0.471
46691W        W12171   5.262  15.808  11.032
46692W        W12172  17.262   9.883  12.842
46693W        W12173  41.506  10.656   2.259
46694W        W12174  21.520   9.868  14.328
46695W        W12175  18.115   2.930   3.147
46696W        W12176  35.914  41.007  14.794
46697W        W12177  26.578   1.857  11.417
46698W        W12178  43.435  16.583  11.446
46699W        W12179   2.810  14.096  14.931
46700W        W12180  21.024  35.873   0.261
46701W        W12181  10.224  29.148   9.985
46702W        W12182  19.567  44.984  11.042
46703W        W12183  38.979  21.717  13.327
46704W        W12184  21.080  30.528  11.586
46705W        W12185  44.951  15.609   1.789
46706W        W12186  21.106  33.037   4.629
46707W        W12187  42.309  43.338  14.912
46708W        W12188   2.898  28.555   0.966
46709W        W12189  20.661  39.052  10.978
46710W        W12190  42.284  10.730   2.836
46711W        W12191  39.877  17.089  12.555
46712W        W12192   6.351  39.869  11.452
46713W        W12193  24.642  21.166   1.318
46714W        W12194  31.133   0.862   0.464
46715W        W12195   3.415   3.875  11.077
46716W        W12196  38.944  33.081   2.408
46717W        W12197   4.864   9.806  13.842
46718W        W12198   0.973  31.086  14.967
46719W        W12199  15.094  12.199   0.459
46720W        W12200   6.348  30.463  12.345
46721W        W12201  24.108  17.717  11.091
46722W        W12202  14.589  25.015  11.889
46723W        W12203  39.922  12.794   2.355
46724W        W12204  13.223   0.467   1.738
46725W        W12205  16.696  23.067   2.821
46726W        W12206  34.939  37.934   0.456
46727W        W12207  10.763   5.272   0.760
46728W        W12208  29.979   4.880  10.583
46729W        W12209   3.304   7.366  12.011
46730W        W12210  32.583  23.491   4.780
46731W        W12211  13.659  24.491   0.966
46732W        W12212  11.358  20.084  13.428
46733W        W12213   8.349  36.548  14.432
46734W        W12214  44.886   7.344  10.458
46735W        W12215  25.097  33.102  13.018
46736W        W12216  34.966  42.029   1.253
46737W        W12217   6.789   8.831  11.873
46738W        W12218   8.251  43.473   4.799
46739W        W12219   2.293   3.754   1.312
46740W        W12220  30.907  33.510   1.394
46741W        W12221  36.460  18.728  10.916
46742W        W12222  24.086  43.453   3.749
46743W        W12223  23.242  39.374  13.035
46744W        W12224  43.515  39.460  13.469
46745W        W12225  26.185  15.246  13.866
46746W        W12226  30.573  35.100   2.844
46747W        W12227   0.909  37.555  11.509
46748W        W12228  15.586  44.264   1.242
46749W        W12229   2.421  44.483  11.045
46750W        W12230  32.970  26.027   1.867
46751W        W12231   5.898  14.327   3.640
46752W        W12232  26.165  17.619   4.646
46753W        W12233  26.525  43.860   9.960
46754W        W12234   4.882   8.868  10.154
46755W        W12235  40.951  44.946  12.509
46756W        W12236   4.721  40.960  14.421
46757W        W12237   2.440  42.480  11.033
46758W        W12238  10.774   1.798  11.427
46759W        W12239  33.607  10.237   5.279
46760W        W12240   6.896  39.883   1.391
46761W        W12241   0.351   3.937   2.255
46762W        W12242  44.882   6.402  12.077
46763W        W12243  23.536  31.988   3.158
46764W        W12244  26.106  32.962  14.934
46765W        W12245  33.606   8.372  13.962
46766W        W12246   0.346  26.095  14.863
46767W        W12247  21.121  12.809  11.528
46768W        W12248  12.637  38.456  14.960
46769W        W12249  43.964  40.868   3.326
46770W        W12250   7.374  15.795  10.487
46771W        W12251   7.714  23.071   2.850
46772W        W12252   0.311  29.536  11.919
46773W        W12253  41.323  32.420  11.379
46774W        W12254  42.342  25.132  13.033
46775W        W12255  40.384  38.071   2.747
46776W        W12256  18.228  29.457  14.007
46777W        W12257   7.887  24.599   4.189
46778W        W12258  22.099  18.262  14.890
46779W        W12259   5.869  17.609  10.585
46780W        W12260  14.802  25.474   1.272
46781W        W12261   7.353   3.404   1.317
46782W        W12262  38.923  34.056   1.360
46783W        W12263  23.656  18.556   3.863
46784W        W12264  30.453  25.050  11.454
46785W        W12265  44.998  28.654  13.392
46786W        W12266  20.733  44.831  13.822
46787W        W12267  10.831  24.689   1.429
46788W        W12268   3.950  39.909  12.863
46789W        W12269   7.762  22.108   3.260
46790W        W12270  33.532  17.697  10.096
46791W        W12271  28.144   8.170  14.950
46792W        W12272  11.818   4.743   4.765
46793W        W12273   1.416   2.801  11.418
46794W        W12274  15.761   2.864   4.147
46795W        W12275  15.146   7.257  13.511
46796W        W12276  18.735   9.667   3.830
46797W        W12277   0.959  12.223  14.954
46798W        W12278  35.416  19.637   3.664
46799W        W12279  29.505  36.867   0.325
46800W        W12280  15.719  13.823   3.729
46801W        W12281   8.867  44.290   2.366
46802W        W12282  28.052  26.574   2.253
46803W        W12283  14.129  43.319  13.935
46804W        W12284  27.576  20.652  12.955
46805W        W12285   4.393  24.062   1.321
46806W        W12286  16.751  20.647   4.733
46807W        W12287   6.913  38.425   2.868
46808W        W12288  33.505  12.628  14.367
46809W        W12289  22.134  44.485  11.874
46810W        W12290  23.596  44.794   1.791
46811W        W12291  43.389  31.424  14.414
46812W        W12292  18.186  25.470   1.340
46813W        W12293   4.314  33.987  12.872
46814W        W12294  41.916  18.273   0.878
46815W        W12295  39.412  41.831  10.904
46816W        W12296  38.440  23.698   1.824
46817W        W12297   6.913   3.823   2.714
46818W        W12298  17.673  28.047  13.889
46819W        W12299  39.988  34.917   4.233
46820W        W12300  35.105   9.651   0.737
46821W        W12301  11.830   3.883  11.099
46822W        W12302   5.330  24.070  14.898
46823W        W12303  44.966  20.629  14.508
46824W        W12304   1.289  18.282  14.405
46825W        W12305  44.372  26.700  12.360
46826W        W12306  42.427  42.008   0.365
46827W        W12307  36.040   2.858   3.165
46828W        W12308  42.822  19.568   0.389
46829W        W12309  17.586  38.990   3.185
46830W        W12310  37.438  16.134  12.431
46831W        W12311  17.273  28.020  11.880
46832W        W12312  20.628  20.709   0.785
46833W        W12313  40.894  40.347   0.390
46834W        W12314   8.175   1.797  13.328
46835W        W12315  38.513  14.782  11.520
46836W        W12316  18.669  31.415  12.899
46837W        W12317  43.452  16.688  10.541
46838W        W12318  33.475   6.746  10.618
46839W        W12319  29.484  29.621  11.541
46840W        W12320   4.237   3.921  12.846
46841W        W12321  28.628  31.443   2.353
46842W        W12322  11.746   6.333   4.185
46843W        W12323  20.089   3.262  10.936
46844W        W12324  43.861  27.450   2.758
46845W        W12325  17.732  24.502   4.835
46846W        W12326  42.887   0.299   0.405
46847W        W12327   2.806  15.162   0.342
46848W        W12328  15.256  24.499  11.940
46849W        W12329   4.908  30.920   1.789
46850W        W12330   2.362   6.285  12.984
46851W        W12331  19.686  23.101  11.943
46852W        W12332  20.556  34.445   0.944
46853W        W12333  24.535  43.845  10.112
46854W        W12334  17.712   0.468  14.409
46855W        W12335  34.973  37.554   1.439
46856W        W12336   6.280  30.968   0.922
46857W        W12337  40.979  42.314  12.940
46858W        W12338  29.074   2.363   2.215
46859W        W12339  35.076  20.070  12.434
46860W        W12340  43.951  33.934   1.737
46861W        W12341  18.188  19.641   0.286
46862W        W12342  18.641   9.671   4.826
46863W        W12343  12.318  37.470  11.045
46864W        W12344  13.340  31.646   1.905
46865W        W12345  40.927  35.558   2.302
46866W        W12346   1.811  10.660  12.994
46867W        W12347  39.936  18.735  14.456
46868W        W12348  21.556  32.448   3.369
46869W        W12349  22.533   7.408   3.149
46870W        W12350  18.596  18.609   0.915
46871W        W12351  37.043  38.851  11.560
46872W        W12352  43.367  30.010  14.924
46873W        W12353  15.252  44.966  14.008
46874W        W12354  20.237  16.700   0.463
46875W        W12355  17.764  28.068   1.286
46876W        W12356   1.931  15.651  10.473
46877W        W12357   6.872   7.393  13.403
46878W        W12358  35.469  35.502   0.829
46879W        W12359  38.839  19.621  13.523
46880W        W12360  40.360  32.947  12.021
46881W        W12361  20.689  34.061   0.277
46882W        W12362  42.300  22.674  11.546
46883W        W12363  14.198  35.579   1.261
46884W        W12364  44.338  17.797  11.577
46885W        W12365  35.933  25.137  13.504
46886W        W12366  15.624  21.621   3.849
46887W        W12367  24.163   4.214  11.506
46888W        W12368  26.991  15.168   4.742
46889W        W12369  41.022   3.291  14.498
46890W        W12370  36.459  36.464   0.751
46891W        W12371  30.924   2.231  10.438
46892W        W12372  32.496  31.483   0.396
46893W        W12373  12.323  10.872   3.279
46894W        W12374  30.122  15.205   1.727
46895W        W12375  38.356   9.816   2.667
46896W        W12376  41.027  12.265  10.642
46897W        W12377   1.480  40.040   3.821
46898W        W12378  41.830  16.075  10.483
46899W        W12379   8.245  19.534  12.543
46900W        W12380  30.565  15.768   4.779
46901W        W12381   0.474   1.338  12.005
46902W        W12382  38.427  22.553  12.070
46903W        W12383  41.357  37.899   1.818
46904W        W12384  41.301  40.483   3.163
46905W        W12385  24.025  43.474   4.347
46906W        W12386  39.908  28.466   1.783
46907W        W12387   3.743  27.135  10.921
46908W        W12388  27.538  44.489  12.516
46909W        W12389   1.318  15.735  13.006
46910W        W12390  32.516  19.543  12.985
46911W        W12391   3.421   4.768  11.376
46912W        W12392  25.533   6.910  10.407
46913W        W12393  37.054  33.087  11.557
46914W        W12394  40.523  15.690  10.034
46915W        W12395   5.817  11.706  10.540
46916W        W12396  10.292  31.978   3.232
46917W        W12397  40.502  29.975  14.304
46918W        W12398  36.380  29.047  12.384
46919W        W12399  22.656   4.870  12.979
46920W        W12400  44.371   2.385  12.856
46921W        W12401  10.264  13.342  10.563
46922W        W12402  33.385  28.580  13.947
46923W        W12403  14.268  30.951  11.981
46924W        W12404  12.686  29.517   2.752
46925W        W12405  33.571  30.434  14.336
46926W        W12406   8.213  20.155   0.909
46927W        W12407  33.625   1.343  14.361
46928W        W12408   6.848   8.159  10.434
46929W        W12409  20.264  11.867   2.662
46930W        W12410  21.745  35.424  12.893
46931W        W12411  19.163   4.727  11.383
46932W        W12412  31.558  26.689  11.375
46933W        W12413  31.615  26.068  14.993
46934W        W12414   4.779  17.665  12.953
46935W        W12415  17.100  37.062   2.239
46936W        W12416  44.863  18.232  10.987
46937W        W12417  36.072  34.028   4.754
46938W        W12418  16.660   1.852  14.978
46939W        W12419  29.933   6.777   3.841
46940W        W12420  31.097  23.600  11.035
46941W        W12421  34.606  14.336  10.982
46942W        W12422  34.923  21.547   1.929
46943W        W12423  35.904  39.030   3.174
46944W        W12424  42.974   2.427   3.194
46945W        W12425   8.716  27.190   1.387
46946W        W12426  22.231   2.428  11.394
46947W        W12427   9.301   7.672  11.117
46948W        W12428   4.824  17.650   4.711
46949W        W12429  44.406   4.884  11.489
46950W        W12430  25.023  39.371  10.564
46951W        W12431  34.401  24.147   3.751
46952W        W12432  29.097  16.126  10.967
46953W        W12433  40.521  34.514   3.348
46954W        W12434  21.231   7.908  12.992
46955W        W12435  24.712  40.961  11.119
46956W        W12436  27.149  25.219   3.288
46957W        W12437  11.802  33.953   4.141
46958W        W12438  10.744  15.273   0.880
46959W        W12439  30.618   0.343   2.870
46960W        W12440  28.047  33.027  14.438
46961W        W12441  27.540  17.303  13.841
46962W        W12442  15.264  18.223  10.908
46963W        W12443   8.168  33.559  14.850
46964W        W12444  39.918  26.042   4.623
46965W        W12445  39.357  31.146   3.254
46966W        W12446  17.756  20.700   3.361
46967W        W12447  24.122  12.786   0.335
46968W        W12448  22.519  32.029  13.983
46969W        W12449  32.505  41.005  14.784
46970W        W12450  12.149  28.531   0.839
46971W        W12451  13.147   8.871  13.007
46972W        W12452  36.040  36.947  12.857
46973W        W12453  25.154  42.394   4.227
46974W        W12454  27.056   9.845   0.477
46975W        W12455  18.733   4.733  11.385
46976W        W12456  10.190  17.672   3.843
46977W        W12457   4.337  25.032   2.670
46978W        W12458  17.585  27.659   1.256
46979W        W12459  20.755  33.473  12.861
46980W        W12460  20.261  42.330  12.532
46981W        W12461  15.634  11.852  13.939
46982W        W12462  30.042  20.645  12.049
46983W        W12463   5.429  17.712  11.029
46984W        W12464  16.201  40.352  13.458
46985W        W12465  12.215  29.491   2.199
46986W        W12466  12.815  36.001  14.449
46987W        W12467  27.006  25.157  10.982
46988W        W12468  33.505  25.080  12.914
46989W        W12469  32.545  41.448  10.048
46990W        W12470  16.734  18.632   2.303
46991W        W12471  43.778   9.693  10.937
46992W        W12472  27.942  35.524   3.321
46993W        W12473   2.357  18.653   2.330
46994W        W12474  18.555  10.291   4.149
46995W        W12475  36.392  29.571   1.821
46996W        W12476  14.657  22.997  13.937
46997W        W12477   4.204  35.081  13.860
46998W        W12478   8.857  30.577   1.923
46999W        W12479  36.004  30.982   3.153
47000W        W12480   2.322  30.990   0.937
47001W        W12481  44.990  19.182   0.433
47002W        W12482  37.027  32.956  10.549
47003W        W12483  35.454  30.059  14.451
47004W        W12484   5.361   4.341   3.765
47005W        W12485  40.002   9.331   1.931
47006W        W12486  42.938  34.498   1.725
47007W        W12487  15.159  32.634  12.343
47008W        W12488   6.895  33.495   1.387
47009W        W12489  23.988  30.138  13.044
47010W        W12490  30.122  25.134   4.695
47011W        W12491  36.847   5.289   2.355
47012W        W12492  20.693  12.256   2.882
47013W        W12493  44.472  16.313   0.409
47014W        W12494  35.427   7.401   2.793
47015W        W12495  27.037  14.148   4.797
47016W        W12496  36.352  29.082  11.443
47017W        W12497  18.755  26.616  11.427
47018W        W12498   2.864  29.037   4.737
47019W        W12499  10.168  22.237  12.080
47020W        W12500  23.565  14.229   1.764
47021W        W12501  26.024  33.875   4.331
47022W        W12502   5.313  14.714  11.079
47023W        W12503   6.386  34.520   4.694
47024W        W12504  18.771  40.377   4.716
47025W        W12505  16.751   3.296   0.464
47026W        W12506  44.832   2.867   4.676
47027W        W12507  43.461  39.950  10.989
47028W        W12508  36.892  34.048   4.166
47029W        W12509  35.444  15.704   1.851
47030W        W12510  13.785   1.472  11.504
47031W        W12511  12.707   6.832  14.840
47032W        W12512  42.825  19.232   2.663
47033W        W12513   9.686  15.640  11.914
47034W        W12514   7.898  24.660  13.855
47035W        W12515  16.602  12.811   9.997
47036W        W12516  35.070   5.370   4.615
47037W        W12517   0.334  23.060   2.326
47038W        W12518  19.164   0.862   2.727
47039W        W12519  25.672  28.003  13.388
47040W        W12520  13.347  44.842   0.881
47041W        W12521   6.883  15.755  12.349
47042W        W12522   6.297  11.816  12.071
47043W        W12523  16.242  42.848   2.235
47044W        W12524  21.115  12.348  14.508
47045W        W12525  11.780  25.529  13.415
47046W        W12526  19.153  42.330  11.059
47047W        W12527   9.377  24.506   0.428
47048W        W12528  27.055  27.046   3.647
47049W        W12529  33.473  10.663  13.508
47050W        W12530   5.779  36.035  12.025
47051W        W12531  20.526   8.818   0.807
47052W        W12532   1.733  23.006   4.603
47053W        W12533  19.161  36.485  12.453
47054W        W12534  13.337  17.076  11.004
47055W        W12535  41.384  10.755   4.228
47056W        W12536  19.071  39.819  12.557
47057W        W12537  16.191  16.749   0.957
47058W        W12538  24.520  38.452  14.974
47059W        W12539  22.601  21.188   1.782
47060W        W12540  13.785  39.960  13.437
47061W        W12541   6.722  14.682   1.342
47062W        W12542  33.926  19.155  14.455
47063W        W12543  28.587   3.765   4.303
47064W        W12544   4.267  21.757   3.272
47065W        W12545  18.225  16.627   0.304
47066W        W12546   7.811  25.148  11.501
47067W        W12547   7.749  30.923  11.128
47068W        W12548   5.720   6.777   0.844
47069W        W12549  15.184   7.860  10.585
47070W        W12550   6.214  12.648   3.807
47071W        W12551  15.198   4.714  13.975
47072W        W12552  43.447  26.157   1.725
47073W        W12553   6.877  27.618  13.400
47074W        W12554  36.897  37.488   3.271
47075W        W12555  14.688   4.397   4.739
47076W        W12556  29.559   9.235   3.820
47077W        W12557  18.664  29.147   3.766
47078W        W12558  43.018   4.853   4.229
47079W        W12559  37.487  42.505  13.307
47080W        W12560  29.161  35.864  14.774
47081W        W12561  36.468  17.667   3.211
47082W        W12562  20.697  37.891   3.163
47083W        W12563  20.125   3.315   0.396
47084W        W12564  20.138  41.817   3.779
47085W        W12565  38.560   8.656  11.029
47086W        W12566  23.576   9.185   3.191
47087W        W12567   5.859  21.560  14.433
47088W        W12568  20.107   1.808  10.968
47089W        W12569  27.183  15.717  12.344
47090W        W12570  22.688  25.163  14.345
47091W        W12571   8.208  15.737   3.842
47092W        W12572   8.379   2.324   1.250
47093W        W12573   1.334  35.440   3.337
47094W        W12574  17.270  13.226   5.627
47095W        W12575  24.175  38.440   0.256
47096W        W12576  32.098  34.105  10.528
47097W        W12577  26.474  38.489   1.305
47098W        W12578  44.389  34.373  14.393
47099W        W12579  27.966  41.509  10.410
47100W        W12580  17.760  34.095  12.837
47101W        W12581  21.612  42.802  11.072
47102W        W12582  17.649   5.394   0.765
47103W        W12583   6.264  33.469   3.697
47104W        W12584  23.720  37.572   4.613
47105W        W12585  44.858  30.977  12.985
47106W        W12586   1.915   3.312   3.366
47107W        W12587  13.737   1.370  13.820
47108W        W12588  32.075  30.571  14.484
47109W        W12589  23.675  15.183  11.478
47110W        W12590   2.762   5.772   3.219
47111W        W12591  28.586   2.722   2.884
47112W        W12592  24.011  35.987   3.674
47113W        W12593   3.244  29.647   4.655
47114W        W12594  16.252  19.284   1.888
47115W        W12595  39.508  33.409  11.081
47116W        W12596  15.105  10.220  12.904
47117W        W12597  41.958  43.882   3.792
47118W        W12598  18.232   2.343   1.793
47119W        W12599  21.719  28.020   2.680
47120W        W12600  43.920  43.484  12.577
47121W        W12601  10.746  38.019  10.457
47122W        W12602  30.474  42.936   4.161
47123W        W12603  30.138  31.568  11.419
47124W        W12604  22.549  22.555   0.886
47125W        W12605  12.323  15.805  11.521
47126W        W12606  35.931  23.619   1.748
47127W        W12607   0.798  31.546   2.310
47128W        W12608  34.419  19.091   4.204
47129W        W12609  21.262  26.575  10.895
47130W        W12610  17.294  35.457  12.936
47131W        W12611   5.393  36.433   2.200
47132W        W12612  18.603  10.237   1.294
47133W        W12613  12.639   5.781   4.350
47134W        W12614  20.707  18.056  11.101
47135W        W12615  37.953   8.666   4.798
47136W        W12616   5.392   8.667  14.356
47137W        W12617   6.761   1.869  10.634
47138W        W12618  36.906  35.892   4.609
47139W        W12619  31.958   9.353   1.902
47140W        W12620  18.642  10.254  11.382
47141W        W12621  22.221  36.087   2.875
47142W        W12622   3.843  26.148   0.854
47143W        W12623  41.016  27.527  10.976
47144W        W12624  11.337   7.372  13.404
47145W        W12625   1.432  42.524  10.579
47146W        W12626   0.981  23.009  11.588
47147W        W12627   5.862  18.226   1.924
47148W        W12628  17.559  28.524  10.975
47149W        W12629  29.006  15.796  10.942
47150W        W12630  10.247  15.262  11.918
47151W        W12631  26.092  16.296  14.442
47152W        W12632  15.293  32.491   1.757
47153W        W12633  18.220  39.839   3.671
47154W        W12634  43.487  13.125   2.346
47155W        W12635  17.098  32.117   2.803
47156W        W12636  11.645  16.664  12.394
47157W        W12637  38.824  37.921  13.363
47158W        W12638  24.204  44.291  13.353
47159W        W12639  15.670  38.984   4.275
47160W        W12640  35.459  27.584  12.978
47161W        W12641  28.127  13.124  12.083
47162W        W12642  22.219  31.639   1.736
47163W        W12643   7.350  19.672  14.960
47164W        W12644  40.328  37.016   0.962
47165W        W12645  18.224   9.770   4.599
47166W        W12646  39.507  26.986  11.537
47167W        W12647  25.097  39.049  14.473
47168W        W12648  33.390  41.951   3.676
47169W        W12649  38.865   7.372  14.898
47170W        W12650   5.718  30.121  14.484
47171W        W12651  18.595  12.688  11.390
47172W        W12652  29.651   0.818  10.912
47173W        W12653  12.210  27.964   1.291
47174W        W12654   9.348   6.704  12.983
47175W        W12655  26.989  16.670  11.964
47176W        W12656  21.097   1.746   2.329
47177W        W12657  40.876  13.814  14.828
47178W        W12658  30.927  10.214   4.747
47179W        W12659   9.308  12.182   0.279
47180W        W12660   3.798  38.981  14.778
47181W        W12661  20.567  37.947  13.836
47182W        W12662  38.348  19.739  13.826
47183W        W12663  26.550  38.540   4.247
47184W        W12664  25.508  40.373   0.859
47185W        W12665  34.449  19.588  13.439
47186W        W12666  25.567  14.143  11.375
47187W        W12667  30.120  31.550   4.779
47188W        W12668  22.066   7.172   5.568
47189W        W12669  35.985  25.169  10.595
47190W        W12670   9.681  31.036  12.480
47191W        W12671  36.955   3.947   0.907
47192W        W12672  16.757  14.308  13.988
47193W        W12673  11.154  27.471   2.405
47194W        W12674  30.955  31.983   3.679
47195W        W12675  12.729  27.954   1.906
47196W        W12676  15.267  18.082   2.294
47197W        W12677  11.324  18.200  13.007
47198W        W12678   0.421  30.062   0.441
47199W        W12679  41.486  20.625   2.241
47200W        W12680  29.935  39.397   2.708
47201W        W12681  19.581  18.767  11.964
47202W        W12682  29.969  16.693  14.339
47203W        W12683  16.077  33.951   0.463
47204W        W12684   2.230  35.464  13.534
47205W        W12685   0.972   4.864   0.337
47206W        W12686  10.726  13.625  14.929
47207W        W12687  13.641  17.568   4.302
47208W        W12688  36.404  20.235   0.856
47209W        W12689  28.666  18.789  14.830
47210W        W12690  32.122  44.006   2.276
47211W        W12691  24.587   2.899   0.832
47212W        W12692  41.928  10.163  14.314
47213W        W12693   5.815  20.642  14.004
47214W        W12694  42.318  30.134   0.820
47215W        W12695  28.078  33.018  13.010
47216W        W12696  34.110  29.970  12.467
47217W        W12697   7.730  44.397  13.039
47218W        W12698  29.621  13.299  11.998
47219W        W12699  12.736  29.004   1.381
47220W        W12700  37.423  41.847   5.241
47221W        W12701  25.184  31.983   2.347
47222W        W12702  33.922  20.065  12.498
47223W        W12703  15.252  40.990   3.744
47224W        W12704  39.051   7.312   0.347
47225W        W12705  21.024  39.413   0.273
47226W        W12706  35.538   1.883  11.437
47227W        W12707  22.651   2.933   1.408
47228W        W12708   3.315   9.281  11.127
47229W        W12709  29.504  38.570   3.673
47230W        W12710  17.709  27.660   2.890
47231W        W12711  10.352  35.020  10.953
47232W        W12712   5.302  24.135   2.345
47233W        W12713  16.085  15.691  10.079
47234W        W12714  26.163  10.830  12.481
47235W        W12715  17.125   4.351   4.352
47236W        W12716  42.819  29.509   0.274
47237W        W12717  38.038  13.604  12.890
47238W        W12718  20.724  19.721   4.345
47239W        W12719   3.411  38.466   4.750
47240W        W12720  23.489   8.246   1.350
47241W        W12721  29.086  36.592   3.338
47242W        W12722  32.487  19.698  13.354
47243W        W12723   8.769  38.429   1.326
47244W        W12724  32.056  32.620  14.495
47245W        W12725  25.055  12.324   4.222
47246W        W12726   1.927   8.665  12.576
47247W        W12727  44.981  17.288  12.065
47248W        W12728  15.295  40.890   4.681
47249W        W12729  24.598  25.506   2.774
47250W        W12730   0.772  34.934   5.273
47251W        W12731  26.997  33.980  14.874
47252W        W12732  27.079  30.451   1.358
47253W        W12733  27.629   9.309   1.253
47254W        W12734  41.503  10.308  13.916
47255W        W12735  13.306   0.921  14.400
47256W        W12736   1.773  28.558  11.537
47257W        W12737  39.995  18.550   2.193
47258W        W12738  17.169  32.077   1.705
47259W        W12739  41.880  21.109  13.917
47260W        W12740  37.361   4.699  11.585
47261W        W12741  15.756  33.023   4.175
47262W        W12742  25.703  26.646   2.272
47263W        W12743  34.535  31.036  12.423
47264W        W12744  16.664   3.795  14.870
47265W        W12745   4.212  21.084   3.747
47266W        W12746  15.182  40.389  13.019
47267W        W12747  27.118  14.209   0.921
47268W        W12748   2.369   7.850   0.959
47269W        W12749  42.858  10.632   2.307
47270W        W12750  33.005  26.537  11.908
47271W        W12751  14.284   9.752  11.070
47272W        W12752  42.311  11.753  11.953
47273W        W12753  26.959  19.063   0.302
47274W        W12754  12.768  36.978   0.419
47275W        W12755  28.095   4.360   1.288
47276W        W12756  35.023  26.468   0.783
47277W        W12757  12.649  20.263  13.019
47278W        W12758  20.603  37.550   0.273
47279W        W12759  13.211  44.967  12.564
47280W        W12760  40.493  42.443   2.339
47281W        W12761  34.902  30.487   4.271
47282W        W12762   4.942   7.402   0.387
47283W        W12763  30.953  21.254  13.383
47284W        W12764  16.255  14.642   1.835
47285W        W12765   1.343  15.107   1.425
47286W        W12766  22.556  10.209  14.779
47287W        W12767  43.800  38.348   4.670
47288W        W12768  17.075   3.350  10.925
47289W        W12769  17.702  20.176   2.377
47290W        W12770   8.281  28.053   0.338
47291W        W12771  27.034   5.869  13.061
47292W        W12772   3.362   5.327   0.280
47293W        W12773   8.303  35.496   3.181
47294W        W12774  17.218  27.137   4.190
47295W        W12775  31.899  26.014  11.089
47296W        W12776  17.649   4.709   1.267
47297W        W12777  18.100  13.255   1.793
47298W        W12778  41.476  40.315   1.880
47299W        W12779  28.005  41.490   5.127
47300W        W12780   8.171  32.560   0.398
47301W        W12781  13.794  12.219  14.892
47302W        W12782  26.541  11.796  13.876
47303W        W12783   1.895   1.878  12.938
47304W        W12784  41.851  33.398  11.879
47305W        W12785  20.142  42.517   1.429
47306W        W12786  13.687   2.844  14.471
47307W        W12787  33.129   4.415  13.968
47308W        W12788  17.703  41.381   2.772
47309W        W12789  15.585  41.312   1.292
47310W        W12790   9.391   2.339   0.753
47311W        W12791   4.792  14.742  13.020
47312W        W12792  43.988  14.599   2.822
47313W        W12793  13.829  26.546   2.712
47314W        W12794   2.387  37.844  12.935
47315W        W12795  18.755  26.087  14.924
47316W        W12796  30.066  34.526   4.834
47317W        W12797  36.918   8.674  13.335
47318W        W12798   9.307  20.524  13.518
47319W        W12799  30.082  16.122  13.005
47320W        W12800  11.320  28.165   4.662
47321W        W12801  34.050  29.927   3.244
47322W        W12802  18.668  28.576  12.891
47323W        W12803   7.373   2.878   2.399
47324W        W12804  22.530  29.645  14.467
47325W        W12805   0.365  32.989   9.634
47326W        W12806  16.631   9.253   0.334
47327W        W12807  35.446  32.486   1.805
47328W        W12808  14.222  21.565  13.365
47329W        W12809   1.750  28.942   0.381
47330W        W12810  36.045  38.488   0.419
47331W        W12811  13.279  17.194  13.889
47332W        W12812   9.238   0.344   2.902
47333W        W12813  25.078   5.838  14.843
47334W        W12814  18.288  16.225  12.444
47335W        W12815  37.410  29.503   3.213
47336W        W12816  16.263  15.310  14.882
47337W        W12817  43.298  34.869  12.975
47338W        W12818  38.058  41.834  11.921
47339W        W12819  38.435  37.027   2.666
47340W        W12820  38.953  21.121  12.087
47341W        W12821  35.950  24.538  13.531
47342W        W12822  23.183  31.106   3.272
47343W        W12823   0.926  42.316  10.553
47344W        W12824  16.739  23.158  11.592
47345W        W12825  34.569  15.693   4.137
47346W        W12826  19.055  39.507   3.316
47347W        W12827  21.518  17.782   3.694
47348W        W12828  40.954  28.087   1.711
47349W        W12829  26.579  11.324   1.293
47350W        W12830   4.886  25.563  12.894
47351W        W12831   5.332  43.385   4.240
47352W        W12832  31.429   8.670  13.340
47353W        W12833   0.429  27.154   0.441
47354W        W12834  19.586  42.022  10.993
47355W        W12835  36.363  40.392   4.118
47356W        W12836   6.735  43.494   1.827
47357W        W12837   7.903  42.298  11.591
47358W        W12838   5.355  11.220  12.372
47359W        W12839  31.592  32.997   3.688
47360W        W12840  35.601  44.941  12.068
47361W        W12841  19.552  24.534  12.998
47362W        W12842  11.232  31.473   0.959
47363W        W12843   1.758  41.039   3.235
47364W        W12844  10.637  28.999  11.578
47365W        W12845  17.722  38.448  12.542
47366W        W12846  17.162  37.347   1.918
47367W        W12847  21.140  16.716   3.696
47368W        W12848  34.401   3.435   3.306
47369W        W12849  40.845  30.559   4.319
47370W        W12850   9.358   2.883  12.047
47371W        W12851  42.873  12.349  14.405
47372W        W12852  37.083  12.129  10.627
47373W        W12853   7.704  12.319   2.396
47374W        W12854  22.707  14.099   1.219
47375W        W12855  11.839  20.044  14.431
47376W        W12856  32.485  10.808   2.836
47377W        W12857  19.170   7.197  13.435
47378W        W12858  44.358  16.183   3.790
47379W        W12859  10.660  34.411  10.617
47380W        W12860  39.009  32.636   0.798
47381W        W12861  42.449  33.122   1.789
47382W        W12862   1.824  11.332   3.665
47383W        W12863  11.661  43.902   3.717
47384W        W12864   0.302  30.081   3.704
47385W        W12865  11.270  24.112   0.817
47386W        W12866  39.438  24.577   0.837
47387W        W12867  10.686  42.901   3.168
47388W        W12868   8.275   3.267  11.506
47389W        W12869  40.306  25.702   3.647
47390W        W12870   0.938  42.296  12.427
47391W        W12871   8.379  41.527   3.856
47392W        W12872   1.924  10.725  13.881
47393W        W12873   6.394  26.972   1.934
47394W        W12874  19.223  33.577  11.030
47395W        W12875  34.552  26.594   2.765
47396W        W12876  12.336  26.596   5.113
47397W        W12877   3.870   8.173   3.351
47398W        W12878   6.332  37.878   4.132
47399W        W12879  22.037  25.083   1.872
47400W        W12880   2.382  24.993   3.729
47401W        W12881  25.493   4.339   3.751
47402W        W12882  38.338   6.778   0.379
47403W        W12883  16.730   0.418   3.719
47404W        W12884  31.049  44.890   1.238
47405W        W12885   5.366   0.443   3.332
47406W        W12886  34.093  29.969   0.872
47407W        W12887   9.330  30.153   0.267
47408W        W12888   6.766  13.345  13.510
47409W        W12889  32.591  31.581  13.986
47410W        W12890  36.369  16.677   1.773
47411W        W12891  15.136   4.270  13.487
47412W        W12892  13.264   3.818  14.837
47413W        W12893  43.955   9.670   1.386
47414W        W12894  30.535  36.450  10.528
47415W        W12895   8.686  21.745   4.655
47416W        W12896  33.621  18.620   2.221
47417W        W12897  16.227   3.858  12.040
47418W        W12898   9.294  36.034  11.112
47419W        W12899  34.437  13.277   3.695
47420W        W12900  38.073  17.168   2.780
47421W        W12901  40.797  38.077   1.436
47422W        W12902   9.646   1.754  14.424
47423W        W12903   7.217  43.831   2.793
47424W        W12904   7.240   7.766   2.900
47425W        W12905   5.310  40.424   1.780
47426W        W12906  20.534  37.885   2.405
47427W        W12907  24.711   8.853  14.792
47428W        W12908  32.495  29.933   0.335
47429W        W12909   7.696  31.645   2.230
47430W        W12910  26.621  29.621   2.689
47431W        W12911  32.617  44.989   2.669
47432W        W12912  11.756  12.803  11.607
47433W        W12913  12.299  30.937  12.003
47434W        W12914  15.813  31.066  12.562
47435W        W12915  41.829   7.208  12.504
47436W        W12916  23.035  22.015  14.509
47437W        W12917  27.632  34.591   3.318
47438W        W12918   8.728  29.570  14.382
47439W        W12919  11.143  37.957  13.924
47440W        W12920  37.480  20.565  12.981
47441W        W12921  17.737  44.264  11.600
47442W        W12922  26.979  39.424  13.444
47443W        W12923   4.886  19.086  10.554
47444W        W12924  44.811   2.315  13.416
47445W        W12925  42.934  31.065   0.420
47446W        W12926  32.397  31.906  12.890
47447W        W12927  21.535   1.460   1.243
47448W        W12928  37.042  12.251  14.919
47449W        W12929  13.277  34.596   1.246
47450W        W12930  21.527   3.739  12.535
47451W        W12931  37.475  37.832  13.474
47452W        W12932  22.014  19.278  13.478
47453W        W12933  19.217  32.633   3.371
47454W        W12934  44.962  38.493  11.421
47455W        W12935  27.172  29.980   2.306
47456W        W12936   5.219   9.692  12.943
47457W        W12937  12.669  15.802   4.676
47458W        W12938  27.044  12.123  12.401
47459W        W12939   4.764   2.321  12.409
47460W        W12940  34.544  27.140   2.417
47461W        W12941  44.856  41.838   1.399
47462W        W12942  34.518  18.117   2.373
47463W        W12943  44.457  32.967   3.767
47464W        W12944  31.529   7.374  12.892
47465W        W12945  18.555  10.186   5.130
47466W        W12946  25.673  41.336   1.721
47467W        W12947   1.752   9.725   1.284
47468W        W12948  44.494   3.735  13.546
47469W        W12949  37.931   6.245   0.862
47470W        W12950  40.920  40.012   2.199
47471W        W12951  10.724   2.919  12.412
47472W        W12952   7.872   3.883   0.417
47473W        W12953   5.302   6.184   4.689
47474W        W12954  30.040  16.670  11.009
47475W        W12955   8.695  14.780  11.563
47476W        W12956  30.632  22.575   5.103
47477W        W12957  11.163  28.068   1.822
47478W        W12958   3.774  20.043  12.527
47479W        W12959  44.340  23.049   2.687
47480W        W12960  29.492  16.571   1.388
47481W        W12961  40.009  13.622  12.576
47482W        W12962  44.977  39.505  13.307
47483W        W12963   4.727  24.057  13.397
47484W        W12964  14.592  34.970   5.734
47485W        W12965   9.390  30.561  13.943
47486W        W12966  43.982  13.206  11.877
47487W        W12967   0.247   7.195   3.292
47488W        W12968  23.625  43.286  14.841
47489W        W12969  21.627   6.709   1.800
47490W        W12970  43.454  41.494   0.444
47491W        W12971  38.506  20.178  13.421
47492W        W12972  10.834   1.858  12.981
47493W        W12973   5.365   1.861   3.310
47494W        W12974  25.029  31.493  12.377
47495W        W12975  17.556  38.906   3.767
47496W        W12976  12.279  33.996   2.842
47497W        W12977   5.236  26.475  13.348
47498W        W12978  13.226   8.237  14.786
47499W        W12979   2.907  35.410   3.865
47500W        W12980   6.321  22.533   4.625
47501W        W12981  40.456  24.644  12.530
47502W        W12982  32.403   7.326  12.376
47503W        W12983  16.774   4.735  11.960
47504W        W12984  32.542  34.579   1.871
47505W        W12985   9.305  38.847  14.356
47506W        W12986  38.462  44.844  13.993
47507W        W12987  19.061  37.503  11.522
47508W        W12988  34.098   4.376  11.039
47509W        W12989  26.182   3.918   3.235
47510W        W12990  17.570  25.117  10.114
47511W        W12991  35.519   9.860   1.378
47512W        W12992  19.547  12.771   3.222
47513W        W12993   2.934   6.728   3.160
47514W        W12994  12.634  17.278   3.237
47515W        W12995  20.744   3.323   0.906
47516W        W12996  44.399  13.732   0.772
47517W        W12997   7.407  35.869   0.890
47518W        W12998  38.047  17.133  10.075
47519W        W12999   1.820  13.114  12.349
47520W        W13000  22.012  13.698  13.495
47521W        W13001   7.345   6.881  14.421
47522W        W13002  16.812  27.005  12.456
47523W        W13003  28.097  18.202  14.354
47524W        W13004   0.408  18.075  13.878
47525W        W13005  26.118  34.109  10.517
47526W        W13006  42.917   7.687  14.006
47527W        W13007  21.032   0.294  10.442
47528W        W13008  32.565   9.350   2.306
47529W        W13009  19.165   9.287   2.806
47530W        W13010  11.266  35.922   2.845
47531W        W13011  40.372  36.534  13.905
47532W        W13012  34.989   9.249  14.500
47533W        W13013  40.046  10.673  12.875
47534W        W13014  32.918  35.511  10.413
47535W        W13015  32.631  29.559  14.323
47536W        W13016  43.931   2.902   0.870
47537W        W13017  30.413   9.695  10.905
47538W        W13018  14.609  13.706   3.712
47539W        W13019   5.332  33.550  14.336
47540W        W13020  10.694  17.264  13.489
47541W        W13021  25.045   6.696  12.905
47542W        W13022   5.403  41.817  14.445
47543W        W13023  31.966  25.666  10.968
47544W        W13024   0.407  36.539  10.524
47545W        W13025  26.163  10.320   1.236
47546W        W13026   5.258  21.624  13.527
47547W        W13027   1.897  28.149   2.730
47548W        W13028  10.348  25.483   4.280
47549W        W13029  31.614  16.311   4.307
47550W        W13030  14.104  16.682  11.595
47551W        W13031  24.033   2.401  12.362
47552W        W13032   5.217  20.633   3.647
47553W        W13033  41.523   4.306   1.412
47554W        W13034  35.037   4.710   2.852
47555W        W13035  14.810  17.112  12.982
47556W        W13036  11.224  35.397   2.248
47557W        W13037  17.086   8.843  11.419
47558W        W13038   5.724  19.700   4.653
47559W        W13039  30.580  30.092   4.277
47560W        W13040  35.562   7.805  14.770
47561W        W13041  41.889  15.636   4.762
47562W        W13042  14.181  19.565  12.344
47563W        W13043  32.597  23.099  12.854
47564W        W13044  24.051   5.851   0.344
47565W        W13045   6.760   0.278  13.432
47566W        W13046  14.792  16.186  12.348
47567W        W13047  27.687   6.325   4.226
47568W        W13048  39.819  42.306  14.324
47569W        W13049  23.536  44.874  10.896
47570W        W13050  26.478   2.420  13.001
47571W        W13051  41.499  35.491   2.371
47572W        W13052   6.905  36.973   4.120
47573W        W13053  12.747  33.442  13.308
47574W        W13054  12.222  32.432  10.602
47575W        W13055  23.541  37.845   1.211
47576W        W13056  37.452   8.860   4.344
47577W        W13057  20.142  16.092   2.358
47578W        W13058  28.058   5.869  12.519
47579W        W13059   6.208  36.497   3.822
47580W        W13060  39.066  35.581  14.336
47581W        W13061  39.011  27.552   1.359
47582W        W13062  22.011  28.499   4.333
47583W        W13063  30.995  10.287  11.044
47584W        W13064  22.587  31.434  10.470
47585W        W13065  37.036  44.753   1.882
47586W        W13066  21.606  12.262   2.401
47587W        W13067  29.105  39.410  12.076
47588W        W13068  32.072  33.463   3.787
47589W        W13069  27.042  21.232  12.035
47590W        W13070   0.463  12.731  13.037
47591W        W13071   6.921  37.557  10.974
47592W        W13072  34.966  21.021   3.794
47593W        W13073  20.085   9.725   2.326
47594W        W13074  12.124  37.883   3.288
47595W        W13075  29.978  36.046  11.883
47596W        W13076  10.819   1.896   4.158
47597W        W13077  31.584  25.965  13.902
47598W        W13078  41.886  44.393   0.345
47599W        W13079  40.043  32.593   0.424
47600W        W13080  36.955  28.529   2.257
47601W        W13081   7.227  20.659  11.930
47602W        W13082  21.684   3.780  14.285
47603W        W13083  44.898  10.155  11.090
47604W        W13084  23.691   9.755   4.350
47605W        W13085  43.366  14.238   0.252
47606W        W13086  11.824   9.292   1.826
47607W        W13087  44.804   3.394  13.529
47608W        W13088  36.355  38.865  13.901
47609W        W13089  39.027   3.823  13.471
47610W        W13090  18.574  24.977   0.296
47611W        W13091  20.095  15.675  13.507
47612W        W13092  35.087  15.588  13.853
47613W        W13093   9.775  11.304  11.938
47614W        W13094  37.449  16.592   3.838
47615W        W13095  43.951  34.423  13.470
47616W        W13096  34.054  39.515   9.460
47617W        W13097   0.276  35.445  10.016
47618W        W13098  20.116  42.436  10.411
47619W        W13099   9.669  28.077  11.535
47620W        W13100  39.551  19.577  13.515
47621W        W13101  17.106  18.696   0.332
47622W        W13102  34.370  17.570  11.057
47623W        W13103  27.599  31.085  13.341
47624W        W13104  20.616  20.058  12.836
47625W        W13105  11.860   7.349  10.994
47626W        W13106   2.228  16.625  14.345
47627W        W13107  16.783  16.086  11.382
47628W        W13108  12.646  39.018  10.533
47629W        W13109  21.698   8.693  14.450
47630W        W13110   7.258  18.714   3.330
47631W        W13111   4.851  22.700  11.500
47632W        W13112  11.250  12.279  11.952
47633W        W13113  32.457  26.179  13.413
47634W        W13114  22.630   4.754  14.923
47635W        W13115  32.071  29.122   3.311
47636W        W13116  32.008   7.897   4.265
47637W        W13117   2.788  40.374  14.278
47638W        W13118  15.254   7.402   4.669
47639W        W13119  11.809  42.514  12.450
47640W        W13120  29.965  32.064  14.976
47641W        W13121  23.107  15.286  12.396
47642W        W13122  22.052  10.837  14.320
47643W        W13123  18.715  20.071   2.773
47644W        W13124  21.535  39.906  14.338
47645W        W13125  15.129  17.080   2.803
47646W        W13126  20.601  34.920   3.213
47647W        W13127  27.075  19.770  12.925
47648W        W13128  24.192  27.494   3.148
47649W        W13129  15.768  31.591   0.446
47650W        W13130  17.162  10.158  14.925
47651W        W13131   9.817  14.704   4.753
47652W        W13132  36.055  10.195  13.426
47653W        W13133  16.215  30.983  12.477
47654W        W13134  36.852  20.551   2.786
47655W        W13135   8.173  41.825   3.671
47656W        W13136   7.680  33.514  12.476
47657W        W13137  30.133   6.306  12.390
47658W        W13138  42.011  33.439   3.285
47659W        W13139  21.523  28.542  11.895
47660W        W13140  33.964   3.394  13.942
47661W        W13141  11.198  23.734  12.913
47662W        W13142  41.903   9.372  10.453
47663W        W13143  25.143  35.459  12.823
47664W        W13144  21.598  28.476   1.242
47665W        W13145   9.757  34.062  14.024
47666W        W13146  41.302  14.333  11.987
47667W        W13147  39.490   2.468  14.348
47668W        W13148   0.464   1.294   4.704
47669W        W13149  12.728  43.915  14.445
47670W        W13150  15.820  41.908   5.712
47671W        W13151   1.314  21.703   2.208
47672W        W13152  20.616   4.227  14.987
47673W        W13153  24.560  40.961   2.272
47674W        W13154  22.619  34.878   3.673
47675W        W13155  39.910  41.898   4.661
47676W        W13156  43.995  28.439  11.006
47677W        W13157   7.796  15.146  13.365
47678W        W13158  26.050  31.635   0.782
47679W        W13159  14.278  29.667  14.025
47680W        W13160  31.411  20.664  13.987
47681W        W13161  26.701  18.687  12.075
47682W        W13162  42.974  26.525  11.930
47683W        W13163  39.837  44.338   1.291
47684W        W13164  33.890  36.592   0.828
47685W        W13165  44.359  44.914   2.372
47686W        W13166  17.594   6.405   1.439
47687W        W13167  25.640  32.616  12.551
47688W        W13168  10.772  43.381  14.962
47689W        W13169  20.111  14.736   4.201
47690W        W13170  42.850   1.804   4.141
47691W        W13171  26.136  13.637   1.721
47692W        W13172  44.335  12.150   1.827
47693W        W13173   3.377   8.888   2.309
47694W        W13174   8.328  15.093   3.284
47695W        W13175   7.800  36.929  13.862
47696W        W13176  26.208   3.223  12.378
47697W        W13177  13.763  16.210   1.306
47698W        W13178  33.555  18.124   4.809
47699W        W13179  30.638  41.852  11.383
47700W        W13180  28.043  27.017  12.840
47701W        W13181  20.190   8.207  12.534
47702W        W13182  32.459  36.994  10.422
47703W        W13183  23.212  20.568  13.813
47704W        W13184  25.471  17.270  14.875
47705W        W13185  41.952  28.013   0.470
47706W        W13186  43.482  10.385  10.968
47707W        W13187  40.490   6.267   4.781
47708W        W13188  39.548   9.342  14.392
47709W        W13189   2.775   0.492   0.471
47710W        W13190  12.181  23.073  14.482
47711W        W13191  13.808  21.715  14.816
47712W        W13192   0.467   8.359  12.550
47713W        W13193  31.436  36.992   0.797
47714W        W13194   7.891   6.771  13.463
47715W        W13195  14.140  44.485   4.729
47716W        W13196   1.440  41.298   2.768
47717W        W13197   8.323   5.723   1.435
47718W        W13198  41.971   0.278   1.314
47719W        W13199  23.600  34.400  12.826
47720W        W13200  12.122  18.269   4.152
47721W        W13201   4.434  43.983  12.872
47722W        W13202  26.016  11.779   2.262
47723W        W13203   8.766  26.571  12.863
47724W        W13204  35.462  36.010  14.855
47725W        W13205  33.615  25.568  10.573
47726W        W13206  19.113  26.193   2.258
47727W        W13207  34.978  11.223  13.527
47728W        W13208  25.523  19.758  14.493
47729W        W13209  37.506  19.104   3.371
47730W        W13210  36.987   2.901  10.891
47731W        W13211  27.039  40.839   3.757
47732W        W13212  20.229  26.529  14.993
47733W        W13213  27.548   9.265   0.305
47734W        W13214  17.671   6.310  13.848
47735W        W13215  40.507  17.748   3.687
47736W        W13216  20.693   8.669   3.164
47737W        W13217  11.801  26.046   0.294
47738W        W13218  19.639   9.859   2.764
47739W        W13219  43.787  41.402   4.627
47740W        W13220  44.416   1.377   4.169
47741W        W13221  30.072  10.807   3.160
47742W        W13222   2.280   7.839  10.431
47743W        W13223  15.823  41.888   4.127
47744W        W13224  34.447  44.431   1.354
47745W        W13225  16.120  31.934   1.799
47746W        W13226  29.449  15.582   1.907
47747W        W13227   9.782  31.077   2.244
47748W        W13228  34.601  41.392   4.217
47749W        W13229  13.288  33.954   4.719
47750W        W13230   3.390  15.108   3.724
47751W        W13231   2.244  12.633  12.078
47752W        W13232   9.311  10.661  11.425
47753W        W13233  14.179   4.757  12.474
47754W        W13234  31.023  36.878   3.331
47755W        W13235  24.106  40.907   3.328
47756W        W13236  17.631   1.249   0.261
47757W        W13237   9.735   4.407  10.959
47758W        W13238  33.532  26.101  11.932
47759W        W13239  24.481  37.559  12.945
47760W        W13240  21.659  29.492  14.463
47761W        W13241  41.319   0.470  11.400
47762W        W13242  10.298   8.363  12.505
47763W        W13243  12.222  35.558  12.885
47764W        W13244  36.351  42.950   5.091
47765W        W13245   7.337   9.751   4.765
47766W        W13246  27.641  35.110   1.865
47767W        W13247  23.987  22.059  14.000
47768W        W13248  32.992  15.812   0.954
47769W        W13249  22.007  26.093   2.344
47770W        W13250   0.911   9.702  11.936
47771W        W13251  20.253  12.850  13.517
47772W        W13252   0.820  41.826   0.922
47773W        W13253  37.491  37.480  13.479
47774W        W13254  36.458  19.228   2.405
47775W        W13255  44.864  17.687  13.974
47776W        W13256  24.579  41.872   1.912
47777W        W13257   1.849  20.619   4.745
47778W        W13258  10.195   0.849  14.965
47779W        W13259  14.673  21.181   3.738
47780W        W13260   5.895  22.201  12.454
47781W        W13261  32.925   9.811   4.115
47782W        W13262   3.739  13.742  12.515
47783W        W13263   5.705  12.141   1.777
47784W        W13264  22.572  19.586   3.782
47785W        W13265   8.738  33.451  14.888
47786W        W13266  39.836  30.577  14.810
47787W        W13267   2.846  13.113   3.724
47788W        W13268   1.947   6.737   3.339
47789W        W13269  40.383  28.071   1.895
47790W        W13270  31.526  43.303   2.832
47791W        W13271  37.860  17.602  14.366
47792W        W13272  43.940  17.739   1.329
47793W        W13273  27.026  25.971   3.849
47794W        W13274  13.311   9.779  10.413
47795W        W13275  32.066  27.028  12.518
47796W        W13276  19.754   2.440  12.518
47797W        W13277   6.261  30.651   4.298
47798W        W13278  30.982  19.540  13.504
47799W        W13279   6.299   4.278  11.582
47800W        W13280   6.184  19.766   0.389
47801W        W13281  20.721   9.336  12.005
47802W        W13282  30.997   3.850  10.927
47803W        W13283  14.816  39.369   1.698
47804W        W13284  16.102  41.339   4.729
47805W        W13285   8.257  17.077  13.970
47806W        W13286   8.252  27.044   2.788
47807W        W13287  33.925  12.667  14.871
47808W        W13288  25.204  20.768  10.955
47809W        W13289   5.242  32.603   3.653
47810W        W13290  10.148  18.748   1.721
47811W        W13291  31.133  32.953   3.637
47812W        W13292  27.067  16.667   0.353
47813W        W13293  17.277  43.508   1.440
47814W        W13294  34.500  32.030   1.903
47815W        W13295  24.697   0.279   3.835
47816W        W13296  25.621  24.188   3.738
47817W        W13297  15.105  42.931  13.923
47818W        W13298  43.957  35.381  10.428
47819W        W13299  31.900  24.084  14.003
47820W        W13300   9.691  28.528   1.365
47821W        W13301  19.562  15.317   0.926
47822W        W13302  11.687  26.642  11.068
47823W        W13303  18.230  10.646  14.329
47824W        W13304  27.139  43.459   3.637
47825W        W13305  17.241   1.342   2.834
47826W        W13306  38.339  44.318  12.457
47827W        W13307  19.654  25.692  13.385
47828W        W13308   6.847  26.513  14.492
47829W        W13309  12.265  30.944   0.474
47830W        W13310  38.508  17.219   2.754
47831W        W13311  20.164  17.261  14.994
47832W        W13312  40.039  24.588   0.890
47833W        W13313   0.298  33.596   4.142
47834W        W13314  26.973   9.887   0.877
47835W        W13315  22.225   5.699   0.951
47836W        W13316  19.183   4.838  10.118
47837W        W13317  38.564  40.920   3.229
47838W        W13318  25.176  41.985  11.890
47839W        W13319  26.143  17.665  14.984
47840W        W13320  18.070  27.962   3.852
47841W        W13321  14.737  34.571   1.398
47842W        W13322  32.124  12.361   1.257
47843W        W13323  18.754  30.002  13.801
47844W        W13324  26.078  11.856  11.920
47845W        W13325  16.718  34.940   5.112
47846W        W13326   1.949  23.703  12.493
47847W        W13327  10.266  33.929   2.662
47848W        W13328  26.089   5.236  13.051
47849W        W13329  40.462   9.255   4.772
47850W        W13330   2.312  34.091   3.214
47851W        W13331  12.762  12.662  12.494
47852W        W13332  27.046  33.525   1.933
47853W        W13333  15.114   2.798  13.348
47854W        W13334  15.118  30.934  10.996
47855W        W13335   3.435  11.130  11.943
47856W        W13336   7.358   8.733  13.484
47857W        W13337  43.301   8.339  11.590
47858W        W13338  21.604  20.647  11.393
47859W        W13339  16.118   4.381   1.402
47860W        W13340   0.954   2.822   3.306
47861W        W13341  31.067  42.918  14.852
47862W        W13342   6.388  12.257  12.874
47863W        W13343  12.343  34.094  12.446
47864W        W13344  33.930   9.745  10.501
47865W        W13345  41.954  20.176   1.794
47866W        W13346  20.585  14.167   0.780
47867W        W13347  14.652  41.446   4.317
47868W        W13348  17.288  35.069   9.976
47869W        W13349  42.878  17.170   4.800
47870W        W13350  24.581  41.511  12.848
47871W        W13351  15.196   7.897   2.819
47872W        W13352  19.266  33.933  14.773
47873W        W13353  23.679  40.497   1.858
47874W        W13354  38.458  12.715   3.147
47875W        W13355  33.097   1.824  12.341
47876W        W13356  32.015  26.151   4.272
47877W        W13357  11.662  42.846   1.728
47878W        W13358  42.981  24.183   2.314
47879W        W13359  18.167   7.725   4.261
47880W        W13360  25.555  34.599   5.087
47881W        W13361   6.371  13.182   3.349
47882W        W13362   6.759  33.441   3.204
47883W        W13363   1.467   8.833   2.838
47884W        W13364  11.792  25.003   5.297
47885W        W13365  41.000  15.769  14.871
47886W        W13366  42.373  43.905  14.993
47887W        W13367  15.687  33.129   5.242
47888W        W13368  37.854   5.705   2.408
47889W        W13369  30.069  26.561   3.157
47890W        W13370   5.368  34.428   3.845
47891W        W13371  25.983  25.207  11.028
47892W        W13372  18.672   5.705  11.542
47893W        W13373  18.692  43.426  14.904
47894W        W13374  10.676  13.740  13.318
47895W        W13375   3.338  28.474   4.679
47896W        W13376  10.667   0.916  11.116
47897W        W13377  19.249  42.920   5.286
47898W        W13378   1.270   8.167  14.838
47899W        W13379  15.226  12.727  11.941
47900W        W13380  10.185  11.818   0.913
47901W        W13381   3.306  41.010   1.374
47902W        W13382  17.666  21.628   0.865
47903W        W13383  28.630  34.582   4.188
47904W        W13384   5.280  34.062   2.273
47905W        W13385  29.036   8.860   0.735
47906W        W13386  21.046  25.576   2.365
47907W        W13387  25.009  33.560  12.517
47908W        W13388  22.603  37.892   2.403
47909W        W13389  33.431  24.514  12.519
47910W        W13390   5.858  15.767  13.544
47911W        W13391   9.228  21.659  11.116
47912W        W13392  16.152   2.245  10.979
47913W        W13393  40.457  28.667   4.268
47914W        W13394  12.814   2.810   0.921
47915W        W13395  14.300   0.286   4.809
47916W        W13396  24.177  12.278  14.398
47917W        W13397  29.939  11.763  14.335
47918W        W13398  40.425  18.666  11.967
47919W        W13399  15.602  14.113  10.063
47920W        W13400  30.129  37.873  11.390
47921W        W13401  20.254  41.364   2.877
47922W        W13402   8.358  43.847   1.236
47923W        W13403  21.134  11.762   2.295
47924W        W13404  43.439  15.172   4.258
47925W        W13405  30.062  35.950  10.461
47926W        W13406  40.014  29.967   0.427
47927W        W13407  19.163  28.447  11.023
47928W        W13408  35.956  43.375   4.223
47929W        W13409  26.490  18.183  11.996
47930W        W13410  11.674   2.268  11.987
47931W        W13411  29.150  37.458  14.412
47932W        W13412  18.083  15.662   1.927
47933W        W13413  14.589  19.065   1.697
47934W        W13414  21.114  38.346  14.983
47935W        W13415  29.515  11.213   4.232
47936W        W13416  17.697  11.803  10.584
47937W        W13417  29.590  43.327  13.856
47938W        W13418  35.912  19.702  14.870
47939W        W13419  34.933  43.952  12.944
47940W        W13420  35.485  16.721   2.678
47941W        W13421  13.813   6.774   1.448
47942W        W13422   8.316  42.342   4.833
47943W        W13423  27.998  16.085  11.944
47944W        W13424  40.916   5.254   0.344
47945W        W13425  34.962   4.268  11.930
47946W        W13426   9.702  15.120  12.368
47947W        W13427  16.173  36.445  11.495
47948W        W13428   2.744  25.139  12.067
47949W        W13429  29.553  11.260   2.268
47950W        W13430  42.005  11.154   3.306
47951W        W13431  41.425  31.010  13.975
47952W        W13432  22.544   3.435   0.273
47953W        W13433  44.972   0.464  10.906
47954W        W13434  20.036  39.509   0.777
47955W        W13435   3.243  24.515  11.109
47956W        W13436  43.443  14.166   3.865
47957W        W13437  37.344  12.178   1.698
47958W        W13438  18.293   4.449  14.023
47959W        W13439   4.708  31.443  13.966
47960W        W13440  33.541  21.147  13.998
47961W        W13441  20.140  19.612  14.392
47962W        W13442  19.188  34.583   2.250
47963W        W13443  10.330  14.632   4.131
47964W        W13444  23.176  39.503  11.380
47965W        W13445  21.530  33.035  14.885
47966W        W13446  17.733  24.990   4.759
47967W        W13447  41.503   6.250   5.148
47968W        W13448  38.343   1.418  13.530
47969W        W13449  33.010  41.800  12.058
47970W        W13450  22.007  43.383   4.831
47971W        W13451  39.038  27.556   2.843
47972W        W13452   5.200  44.326  14.858
47973W        W13453  18.726  40.394  12.431
47974W        W13454  20.632  43.462  12.425
47975W        W13455   7.666  26.107  14.906
47976W        W13456  26.161  14.685   3.278
47977W        W13457  35.402   1.756   4.193
47978W        W13458  22.647   0.281   2.331
47979W        W13459  17.677  26.208   3.177
47980W        W13460  27.658  24.570  12.979
47981W        W13461   4.731   9.775  11.555
47982W        W13462  20.756  22.191  12.055
47983W        W13463  10.781  37.070   2.282
47984W        W13464  30.567  32.409   4.626
47985W        W13465   2.425  13.108   0.297
47986W        W13466   7.353  43.505  13.864
47987W        W13467  29.920  35.879  12.894
47988W        W13468   6.708  31.080  14.991
47989W        W13469  39.934  27.124  14.776
47990W        W13470   4.258  34.100   0.807
47991W        W13471  23.713  16.614   1.933
47992W        W13472  22.715  19.537  11.475
47993W        W13473  22.247  33.432   1.226
47994W        W13474  13.631  15.311  11.435
47995W        W13475  33.462  11.645   5.268
47996W        W13476  17.612  15.725  13.902
47997W        W13477   8.386  19.102   3.192
47998W        W13478  11.815  36.013   0.807
47999W        W13479  37.525  42.312  10.456
48000W        W13480   5.393  27.038   3.756
48001W        W13481  35.382  19.677   1.890
48002W        W13482  30.627  22.115  10.612
48003W        W13483  28.006  20.707  14.468
48004W        W13484  27.489  15.622   2.662
48005W        W13485  30.912  23.683  11.509
48006W        W13486  33.615   7.753  11.035
48007W        W13487  34.974   5.317   1.746
48008W        W13488   5.289  40.453  10.063
48009W        W13489   2.832   5.431  14.404
48010W        W13490  38.422  36.410  11.066
48011W        W13491  37.531  40.946  13.364
48012W        W13492  10.167  24.992   2.755
48013W        W13493  18.660  41.486   0.869
48014W        W13494   5.928  17.276   1.858
48015W        W13495  16.808   6.814   0.807
48016W        W13496   2.876   1.840   1.722
48017W        W13497  13.680  19.118   1.740
48018W        W13498   4.272  26.119   4.779
48019W        W13499  35.083  41.910   0.836
48020W        W13500  30.967  25.515   4.189
48021W        W13501  39.053   2.298  13.474
48022W        W13502   2.304  25.067  12.520
48023W        W13503  39.377  13.147  11.530
48024W        W13504   5.846  17.226  10.444
48025W        W13505  15.584  20.266   1.763
48026W        W13506  12.362  24.703   3.382
48027W        W13507  26.545  13.109   2.313
48028W        W13508   9.382  26.625  12.548
48029W        W13509  29.513  33.517  10.889
48030W        W13510  15.699   1.281   0.866
48031W        W13511  36.896  42.342  10.971
48032W        W13512  36.857  22.117  10.516
48033W        W13513  40.382  10.790  14.845
48034W        W13514  30.061  19.053   3.672
48035W        W13515  42.443  35.985  12.916
48036W        W13516  28.638  19.163  13.858
48037W        W13517  29.442  44.772  12.578
48038W        W13518   7.296   2.275   3.167
48039W        W13519   4.345  19.154   3.691
48040W        W13520  22.048  14.133  13.423
48041W        W13521  33.012  20.596  10.470
48042W        W13522   8.394  23.116   3.782
48043W        W13523  44.848  23.200  13.323
48044W        W13524  23.642  19.539  14.820
48045W        W13525   6.904  24.064   0.362
48046W        W13526  12.729   9.771  14.442
48047W        W13527   0.293  34.995   0.380
48048W        W13528  12.713  34.581   0.902
48049W        W13529   5.832  11.749   2.693
48050W        W13530  12.759  32.897   1.766
48051W        W13531  32.965  12.147   3.234
48052W        W13532  24.526  13.768   4.256
48053W        W13533   8.180  25.483  10.472
48054W        W13534   3.371  25.523   0.763
48055W        W13535   4.215  35.089   2.192
48056W        W13536  34.513  15.190   1.221
48057W        W13537  19.078  27.553   5.259
48058W        W13538  33.902  42.354   1.420
48059W        W13539   3.953  37.064   3.243
48060W        W13540  18.618  40.445   4.167
48061W        W13541  35.026   9.831   3.732
48062W        W13542  16.721  27.594  12.346
48063W        W13543  36.944  21.625  14.779
48064W        W13544  23.528  21.557  14.861
48065W        W13545  27.567  41.805  14.280
48066W        W13546  17.644  42.838   0.869
48067W        W13547  12.346  40.355   3.363
48068W        W13548   5.896   8.770   1.746
48069W        W13549  44.332  21.629   0.769
48070W        W13550  38.841  42.965  10.511
48071W        W13551  20.186  42.457  14.781
48072W        W13552  18.748  26.112  11.908
48073W        W13553   6.232  37.996   1.836
48074W        W13554  14.170  18.748   5.125
48075W        W13555  21.629  11.831  13.862
48076W        W13556  43.822  40.886  13.535
48077W        W13557   6.799  40.538  13.043
48078W        W13558  14.627  28.021   2.668
48079W        W13559   2.357  35.086   4.614
48080W        W13560  10.139  42.791  13.932
48081W        W13561   6.299  34.894  11.580
48082W        W13562  13.176   3.398  11.034
48083W        W13563  42.021  26.579  10.490
48084W        W13564  41.915  24.179   0.272
48085W        W13565  24.552  36.870  14.369
48086W        W13566  12.235  33.984   1.764
48087W        W13567   0.942  40.341   2.741
48088W        W13568  44.006  15.282   3.865
48089W        W13569   6.423  24.569   2.266
48090W        W13570  23.630   1.243   3.715
48091W        W13571  10.323  14.694   1.259
48092W        W13572  33.486   3.291   9.952
48093W        W13573  15.613  27.006  10.618
48094W        W13574  30.024  31.582   3.745
48095W        W13575  20.185  21.570  10.936
48096W        W13576  44.465   7.363   3.804
48097W        W13577  11.291  31.955   2.689
48098W        W13578  11.731  23.149   3.775
48099W        W13579  30.577  30.616   1.880
48100W        W13580  13.737  31.993   1.703
48101W        W13581  22.694  39.364   3.208
48102W        W13582   5.694   9.328   4.241
48103W        W13583  19.222  28.961  13.833
48104W        W13584  44.287  28.011   4.188
48105W        W13585  43.270  11.180   1.403
48106W        W13586  35.436  38.464   0.783
48107W        W13587  44.819  31.050   2.335
48108W        W13588  39.961  33.458  13.327
48109W        W13589   9.305   8.665  14.816
48110W        W13590   3.735  23.553   4.687
48111W        W13591  41.919   8.193  13.820
48112W        W13592   1.477  40.051  12.951
48113W        W13593  28.590  28.591   4.812
48114W        W13594   5.435  17.253   1.260
48115W        W13595  28.995  42.454   2.902
48116W        W13596  12.754  26.014  10.503
48117W        W13597  34.519   8.769   3.377
48118W        W13598   1.899   5.699   0.329
48119W        W13599  36.906   8.853   0.252
48120W        W13600  12.742  11.274   2.356
48121W        W13601  28.999  40.944  11.483
48122W        W13602  23.222  35.572  14.453
48123W        W13603  11.236   9.845  10.908
48124W        W13604  31.092  15.133   2.254
48125W        W13605  40.505   7.851  13.414
48126W        W13606  10.157  10.305  12.919
48127W        W13607  16.172  40.404   0.850
48128W        W13608   4.390  40.415  11.909
48129W        W13609  11.688  39.426  10.406
48130W        W13610   3.432  10.744  10.478
48131W        W13611  14.193  17.096  12.507
48132W        W13612  18.232  15.151   2.377
48133W        W13613   2.915  42.787  13.489
48134W        W13614   0.855   8.704   4.283
48135W        W13615  44.293  30.530   0.378
48136W        W13616  39.378  42.840  13.885
48137W        W13617  13.820  16.633  12.930
48138W        W13618  36.537  43.294   1.355
48139W        W13619  19.627   1.396  11.886
48140W        W13620  17.635  26.691   2.210
48141W        W13621  19.106   6.879   3.318
48142W        W13622  36.848  40.885   0.415
48143W        W13623  36.095  36.431   0.466
48144W        W13624   2.913  44.481   3.245
48145W        W13625  16.596   7.794   4.149
48146W        W13626  17.277  38.948   2.740
48147W        W13627  15.278  10.811  12.006
48148W        W13628  10.343   6.815   2.207
48149W        W13629  19.555   3.342   1.367
48150W        W13630   3.953  42.962   1.739
48151W        W13631  10.765  38.930   4.652
48152W        W13632   9.319  25.526   1.698
48153W        W13633   6.217  10.786   2.710
48154W        W13634   7.910  35.480   4.825
48155W        W13635  16.677  14.191  11.565
48156W        W13636   3.290   3.222  10.939
48157W        W13637   0.779  29.069   2.690
48158W        W13638   3.836  37.976  13.816
48159W        W13639   4.321  32.135   2.819
48160W        W13640  20.091  31.541   1.329
48161W        W13641  13.228   9.697  11.602
48162W        W13642  16.075  44.811  12.988
48163W        W13643   0.392  31.907  12.004
48164W        W13644   3.813  25.020  12.483
48165W        W13645  12.317  31.566  11.579
48166W        W13646  24.555  36.400  11.558
48167W        W13647  34.559  27.047  10.526
48168W        W13648  14.151  40.010   3.387
48169W        W13649  19.149  25.477  12.366
48170W        W13650  21.146  17.115   0.731
48171W        W13651  36.507  20.660   0.440
48172W        W13652   3.950  19.756  11.064
48173W        W13653  14.260  37.412  13.945
48174W        W13654  29.053  19.217   4.720
48175W        W13655  38.885  30.085  14.787
48176W        W13656  29.543  33.407   5.242
48177W        W13657   9.374   3.317  13.860
48178W        W13658  38.944  33.390   3.300
48179W        W13659  41.988  33.912   4.777
48180W        W13660  13.792  13.297  14.313
48181W        W13661   2.467  35.357   0.342
48182W        W13662  31.570  17.610  12.081
48183W        W13663   3.248  12.698   2.361
48184W        W13664  38.836   6.807  11.066
48185W        W13665  38.054  43.497   1.371
48186W        W13666  23.103  30.482  13.992
48187W        W13667  33.582  29.975  12.360
48188W        W13668  17.568  36.067  11.983
48189W        W13669  35.863  17.792  14.366
48190W        W13670   2.398  21.180   1.235
48191W        W13671  43.976  21.243   3.705
48192W        W13672  29.109   3.399   0.730
48193W        W13673  12.706  43.830   5.100
48194W        W13674  24.708  30.121  11.536
48195W        W13675   5.873  32.395   2.672
48196W        W13676  40.914  21.207   4.181
48197W        W13677  30.606  13.719  11.601
48198W        W13678   1.246   3.931   4.617
48199W        W13679  30.653  44.829  13.533
48200W        W13680  19.746  19.685   0.788
48201W        W13681  44.309  23.046  14.892
48202W        W13682  23.726  32.895   2.790
48203W        W13683  16.139   6.838  14.497
48204W        W13684  35.405  17.774  11.503
48205W        W13685  44.471  20.645   4.203
48206W        W13686   8.856  11.276   1.224
48207W        W13687  34.389  27.964   0.744
48208W        W13688  13.719  15.808   3.655
48209W        W13689  26.644  18.659  13.445
48210W        W13690   6.237  44.387  14.920
48211W        W13691  41.475  41.991  11.891
48212W        W13692  29.441  12.694  12.579
48213W        W13693   4.328   3.950  12.565
48214W        W13694   0.767  19.127   4.603
48215W        W13695  39.850  44.347  13.443
48216W        W13696  10.709  18.233  13.982
48217W        W13697  27.655  15.160  13.059
48218W        W13698   6.243  36.944   0.851
48219W        W13699  15.129  31.954  14.893
48220W        W13700  14.263  13.770   0.814
48221W        W13701  11.762  37.399   1.414
48222W        W13702  13.208   6.840  12.355
48223W        W13703  17.791  37.058   4.221
48224W        W13704  40.014  38.404  14.275
48225W        W13705  14.648  41.791  13.540
48226W        W13706  35.882  43.332  11.471
48227W        W13707  11.697  21.577   3.330
48228W        W13708  32.974  12.163  11.900
48229W        W13709  26.002  37.027  14.475
48230W        W13710  42.512  13.818  13.507
48231W        W13711  20.650  23.572   3.232
48232W        W13712  41.901   6.420   3.725
48233W        W13713   5.832  34.963  13.329
48234W        W13714   0.387  24.153  12.440
48235W        W13715  26.985  16.697   3.218
48236W        W13716  17.717  12.754   0.422
48237W        W13717   3.850  32.000  13.930
48238W        W13718  26.152  23.087   0.785
48239W        W13719  21.049   8.402   3.265
48240W        W13720   3.390  20.122  14.976
48241W        W13721  44.768   1.922  10.915
48242W        W13722   2.936  13.126  11.551
48243W        W13723  22.523  33.544   4.750
48244W        W13724  12.788   7.229   4.138
48245W        W13725  16.161  32.019   2.836
48246W        W13726   7.815  35.078   2.181
48247W        W13727  24.195  25.496   1.723
48248W        W13728  29.440  15.647  13.977
48249W        W13729  33.980  17.787  12.500
48250W        W13730  34.928   5.284  13.428
48251W        W13731   1.927  12.347  12.435
48252W        W13732  36.476  14.267   2.179
48253W        W13733  12.834  20.069   0.248
48254W        W13734  29.507  33.962  13.821
48255W        W13735  23.676  37.504   1.297
48256W        W13736  25.161  20.650   4.182
48257W        W13737  29.041  36.451  10.587
48258W        W13738  30.162  38.029   1.401
48259W        W13739  33.894  32.470  14.475
48260W        W13740  32.412   6.278  14.787
48261W        W13741  12.613  38.989  12.490
48262W        W13742   3.720   2.731  14.446
48263W        W13743  14.265   0.266   0.345
48264W        W13744  14.200  40.020  14.846
48265W        W13745  20.076  25.517   2.723
48266W        W13746  40.456   7.288  12.394
48267W        W13747  24.530  29.564   4.819
48268W        W13748  14.171  14.192  14.962
48269W        W13749  29.580  22.114  12.381
48270W        W13750   8.702   0.404  14.920
48271W        W13751  40.879  44.858  14.500
48272W        W13752  30.527   2.449  11.952
48273W        W13753   6.195  17.595  10.638
48274W        W13754   5.285  27.157   1.296
48275W        W13755  13.655   1.254   2.844
48276W        W13756  16.269  13.610  14.893
48277W        W13757  19.270   6.404   1.898
48278W        W13758  37.973  35.986   1.818
48279W        W13759   3.926  18.683  10.640
48280W        W13760  12.354  12.199  13.946
48281W        W13761  33.070  37.069   0.324
48282W        W13762  38.075  25.095   2.213
48283W        W13763  15.786  37.371   0.398
48284W        W13764  23.490  35.101  13.047
48285W        W13765  35.887  28.978   2.364
48286W        W13766  30.992  18.633  13.865
48287W        W13767   7.868  25.488  10.617
48288W        W13768  22.210  41.036   0.335
48289W        W13769  24.539  26.638  14.460
48290W        W13770  21.549  18.159  14.915
48291W        W13771   2.861  41.812   0.309
48292W        W13772  38.409  13.157  14.418
48293W        W13773   7.307  12.348  12.471
48294W        W13774  19.147  32.894   0.268
48295W        W13775  31.055  29.562   2.408
48296W        W13776   4.757   5.434   2.362
48297W        W13777  38.050  11.245   1.243
48298W        W13778  36.584  30.991  11.564
48299W        W13779  14.288   4.796  12.865
48300W        W13780  44.945   1.467  10.455
48301W        W13781  43.484  19.609   5.292
48302W        W13782   9.315  21.064   4.612
48303W        W13783  28.129   0.289   0.316
48304W        W13784  29.097  37.976   1.267
48305W        W13785  10.141   4.724  10.578
48306W        W13786   9.212  20.674   1.260
48307W        W13787  17.691  43.937  14.821
48308W        W13788  19.082  24.608  14.901
48309W        W13789  24.192  14.814   1.819
48310W        W13790  15.116  43.944   2.712
48311W        W13791   1.743  11.623  14.890
48312W        W13792  26.102  26.993  11.941
48313W        W13793  39.883  14.774   2.802
48314W        W13794  31.446   0.945   0.923
48315W        W13795   9.160   7.231   3.301
48316W        W13796  44.976   1.391   3.361
48317W        W13797  24.094  24.196  12.561
48318W        W13798  39.913   1.361   0.391
48319W        W13799  17.559  21.539  13.996
48320W        W13800  25.968  43.010   2.755
48321W        W13801  44.474  41.889  14.785
48322W        W13802  40.849  27.038   2.216
48323W        W13803   1.846  40.413   4.814
48324W        W13804  33.494  34.949   5.108
48325W        W13805  31.147  43.931  14.308
48326W        W13806  30.038  33.953  11.091
48327W        W13807  32.437  29.655   4.252
48328W        W13808  11.268  17.555   1.743
48329W        W13809  16.670  30.573  13.421
48330W        W13810  23.035   0.818   1.713
48331W        W13811  44.765  22.998  12.043
48332W        W13812  40.823   7.797   0.908
48333W        W13813  38.949  38.828  11.874
48334W        W13814   7.695  18.261   3.269
48335W        W13815  17.714  14.666   0.862
48336W        W13816  34.931   3.221   2.878
48337W        W13817  32.491  30.965  14.794
48338W        W13818   6.280   3.351   3.190
48339W        W13819  31.507  15.228  14.760
48340W        W13820   9.208  32.912   0.481
48341W        W13821  32.605  18.288  11.095
48342W        W13822  39.488   1.918  12.990
48343W        W13823   0.904  35.586  13.925
48344W        W13824  43.903   8.726   0.392
48345W        W13825  13.683   0.491  14.485
48346W        W13826  16.706  12.248   3.779
48347W        W13827  24.158   6.330   4.639
48348W        W13828   5.826  11.706  11.901
48349W        W13829   9.158  37.064  12.454
48350W        W13830  22.701  41.788   0.361
48351W        W13831   1.467  23.489  13.307
48352W        W13832  22.131  17.289  11.042
48353W        W13833  34.966  39.824   3.312
48354W        W13834  14.146  12.645  14.340
48355W        W13835  30.163  15.293   4.227
48356W        W13836  33.555  42.309   2.224
48357W        W13837  25.545  27.579   3.752
48358W        W13838  20.561  40.018   2.179
48359W        W13839  27.102  30.046   4.336
48360W        W13840  43.310   2.267   2.299
48361W        W13841  32.568  24.627  12.379
48362W        W13842  26.138  43.866   0.443
48363W        W13843  11.738  31.576  13.856
48364W        W13844  14.297   0.901   0.464
48365W        W13845   2.963  44.797  11.488
48366W        W13846  41.039  39.394  13.861
48367W        W13847  27.667  18.615  11.463
48368W        W13848  15.823  24.691  14.026
48369W        W13849  33.046  35.993  10.631
48370W        W13850  41.958  30.928   3.808
48371W        W13851  17.139  13.825  12.857
48372W        W13852  39.465   0.248   3.740
48373W        W13853   1.804  26.675  12.038
48374W        W13854  41.392  36.386   5.176
48375W        W13855  36.520  10.751  14.392
48376W        W13856   9.383   6.729  14.900
48377W        W13857   1.913  25.507  10.435
48378W        W13858  11.345  36.065  11.426
48379W        W13859  17.120  13.261  10.082
48380W        W13860   8.782   5.266  10.941
48381W        W13861  39.001  28.471   2.404
48382W        W13862  22.542  34.426   1.233
48383W        W13863  19.156  40.479   0.399
48384W        W13864  35.376  34.886   4.144
48385W        W13865   0.362  26.077   0.916
48386W        W13866  21.609  38.047   4.829
48387W        W13867   6.863  28.180   0.960
48388W        W13868   7.392   5.401   2.855
48389W        W13869  18.741  44.783  11.924
48390W        W13870  15.179  43.407   9.607
48391W        W13871  11.758  18.654  12.548
48392W        W13872   7.406  42.507   1.324
48393W        W13873  16.083   8.711  13.428
48394W        W13874  44.437   4.384   0.758
48395W        W13875  33.604   1.955   1.753
48396W        W13876  25.186   2.852  14.469
48397W        W13877  27.573  41.902  11.119
48398W        W13878  10.140  34.912  12.353
48399W        W13879  42.308   7.903  13.524
48400W        W13880  14.331  22.035   3.699
48401W        W13881  17.722   0.417   4.599
48402W        W13882  21.644   7.185   0.953
48403W        W13883  42.881  23.535  11.943
48404W        W13884  30.473   2.445  13.931
48405W        W13885  37.945  38.964   0.271
48406W        W13886  25.200  21.176  10.145
48407W        W13887  13.746  28.649  11.058
48408W        W13888  15.165  36.847  11.085
48409W        W13889  24.133  12.660   1.834
48410W        W13890   3.301  21.153   0.380
48411W        W13891   1.854  17.071  11.062
48412W        W13892  39.004  44.867   3.648
48413W        W13893  35.020  42.924   2.260
48414W        W13894  21.612  40.373   0.912
48415W        W13895  28.528  38.365   3.159
48416W        W13896   1.866  19.651  11.064
48417W        W13897   5.843   3.344  13.935
48418W        W13898   6.242  12.694   2.316
48419W        W13899  27.461  44.907   1.928
48420W        W13900  26.686  22.199   4.161
48421W        W13901  24.704  20.673  11.856
48422W        W13902   2.803  41.364  13.863
48423W        W13903  28.536  23.694   1.391
48424W        W13904  24.109  18.103   1.816
48425W        W13905  44.896  23.640   3.792
48426W        W13906   9.353   6.290   4.816
48427W        W13907   8.683   8.327   0.295
48428W        W13908  18.175  28.156  13.850
48429W        W13909  10.677  43.820   2.846
48430W        W13910  23.489  30.139  12.459
48431W        W13911  16.732   4.943  11.584
48432W        W13912  32.965  22.130   3.146
48433W        W13913  16.073  39.384  11.557
48434W        W13914  14.139  10.315   4.242
48435W        W13915  12.271  35.968  12.093
48436W        W13916  30.480  30.033  11.536
48437W        W13917   5.195  17.191   3.667
48438W        W13918  18.183  43.017   0.319
48439W        W13919   5.920  15.235   2.717
48440W        W13920  38.946   5.866  13.012
48441W        W13921  42.522  18.095  11.611
48442W        W13922  28.681  30.051   1.844
48443W        W13923  41.384  14.615   3.755
48444W        W13924  35.857  29.040  10.974
48445W        W13925  30.508   9.293   1.432
48446W        W13926  25.022  14.213  12.555
48447W        W13927  11.161   1.436   3.387
48448W        W13928   5.274   0.469   1.801
48449W        W13929  30.036  32.984   1.279
48450W        W13930  22.632  15.328   1.439
48451W        W13931   5.838  22.633  13.341
48452W        W13932   2.732  27.174  10.526
48453W        W13933  27.454  31.531   0.831
48454W        W13934  40.997  44.996   3.798
48455W        W13935  42.353  12.787  12.848
48456W        W13936   5.928  26.531  14.406
48457W        W13937  44.451  43.442   3.224
48458W        W13938  14.685  11.344  11.496
48459W        W13939  30.632  32.061   1.850
48460W        W13940  22.232   6.906   3.869
48461W        W13941  26.532  26.459  11.396
48462W        W13942  26.956   0.881  14.293
48463W        W13943   0.340  21.651  10.440
48464W        W13944  40.837  13.775  13.414
48465W        W13945   3.348  12.288   4.165
48466W        W13946   4.823  29.078  12.354
48467W        W13947  37.423  13.131  11.553
48468W        W13948  43.496  35.880   4.224
48469W        W13949  32.590  16.203  10.621
48470W        W13950  43.771  41.901  12.977
48471W        W13951   6.293   8.796   1.704
48472W        W13952  29.127  30.140   3.168
48473W        W13953  28.089  11.160  13.332
48474W        W13954   5.825  40.962  13.961
48475W        W13955  10.855   5.749  12.932
48476W        W13956  20.127  26.503   3.750
48477W        W13957  29.146   8.393   4.218
48478W        W13958  13.308  17.762   2.359
48479W        W13959  44.384  43.912  10.984
48480W        W13960  43.953  40.343   2.687
48481W        W13961  22.066   7.868   4.345
48482W        W13962  40.546   1.860   3.732
48483W        W13963  35.988  21.094   1.697
48484W        W13964  35.464   0.917  12.386
48485W        W13965  36.992  11.216  12.012
48486W        W13966  20.119  23.726   0.905
48487W        W13967  11.844  11.815   0.409
48488W        W13968  14.233   5.841   1.844
48489W        W13969   4.878  16.211  13.317
48490W        W13970  41.817  29.509  13.987
48491W        W13971   1.731  25.481   2.751
48492W        W13972  44.885  39.338  12.905
48493W        W13973  24.592  35.078  14.953
48494W        W13974  42.400  30.432   0.898
48495W        W13975  15.797   3.395   5.186
48496W        W13976  11.808   7.210   2.393
48497W        W13977   9.275   3.893   0.290
48498W        W13978  16.754  41.341  10.970
48499W        W13979  37.013  13.656   1.773
48500W        W13980  42.840   4.328  11.082
48501W        W13981  27.968  37.058   4.196
48502W        W13982  13.242  16.106   0.463
48503W        W13983  38.027  43.350   4.611
48504W        W13984  44.401  42.834   0.455
48505W        W13985  42.430   0.880   2.815
48506W        W13986  36.349  29.533  14.514
48507W        W13987  37.507  40.530   2.261
48508W        W13988  11.218  35.503  12.544
48509W        W13989  27.640   5.753   2.870
48510W        W13990  32.614  34.424  12.006
48511W        W13991  24.499  16.139  13.882
48512W        W13992  15.757  21.090   3.667
48513W        W13993  24.104  20.572  10.455
48514W        W13994  43.859  34.892  11.579
48515W        W13995   0.273  24.685  10.440
48516W        W13996  41.313  35.022   0.901
48517W        W13997   4.257  31.619   2.676
48518W        W13998  16.626  27.506   1.890
48519W        W13999  21.696  18.127   0.351
48520W        W14000  19.089  27.068   2.771
48521W        W14001   6.276  39.330   0.728
48522W        W14002  10.287   4.814   2.730
48523W        W14003  38.888  21.205   4.156
48524W        W14004  10.763  11.240   3.663
48525W        W14005  27.143  17.140  14.775
48526W        W14006  18.108   6.321  12.035
48527W        W14007   5.403  42.361  13.822
48528W        W14008  44.374   7.731  10.643
48529W        W14009  19.117  22.123   0.818
48530W        W14010   7.670  30.601   3.248
48531W        W14011  27.041  38.369   3.832
48532W        W14012  36.574  26.468   1.737
48533W        W14013  31.560  37.034  12.834
48534W        W14014   8.840   7.675   3.733
48535W        W14015  39.886   6.305   4.334
48536W        W14016  31.993   7.212   1.853
48537W        W14017  25.061   6.892  11.455
48538W        W14018  20.691  22.704  11.501
48539W        W14019  30.006  42.333   3.858
48540W        W14020  33.994   1.292  13.959
48541W        W14021  25.677  20.718   1.227
48542W        W14022  31.414  29.657  14.824
48543W        W14023  18.258   7.749   2.412
48544W        W14024  12.215  21.138   3.346
48545W        W14025  33.906   3.755  12.903
48546W        W14026  35.362  30.456  14.887
48547W        W14027  21.173   2.470   4.265
48548W        W14028  19.256   6.218  12.053
48549W        W14029  34.916   4.236   0.884
48550W        W14030   2.276  42.284   0.846
48551W        W14031  10.806  13.129   0.394
48552W        W14032  32.104   5.282   2.827
48553W        W14033  37.998  42.328   0.479
48554W        W14034   0.835  22.051  14.945
48555W        W14035  26.535  33.026   1.435
48556W        W14036  11.131   3.334  10.056
48557W        W14037  43.821  21.724   0.310
48558W        W14038  22.072  18.688   1.397
48559W        W14039   8.190   7.776   4.686
48560W        W14040  21.661   8.797   0.866
48561W        W14041  18.682  24.136  14.932
48562W        W14042  22.665   2.394   1.249
48563W        W14043  27.983  28.525   2.666
48564W        W14044  40.322  12.264   1.783
48565W        W14045  38.548  22.582   3.857
48566W        W14046   1.817  29.480   2.747
48567W        W14047  24.987  39.427  12.450
48568W        W14048   4.905  16.699  12.551
48569W        W14049  40.037   1.792   4.146
48570W        W14050   5.884  18.188   4.754
48571W        W14051  41.891  44.394  10.096
48572W        W14052  22.675  33.550   0.327
48573W        W14053   6.680  13.655  12.824
48574W        W14054  30.618  29.064   3.237
48575W        W14055   0.883  12.678   4.276
48576W        W14056  29.524  13.200   1.286
48577W        W14057   9.717  42.804   0.957
48578W        W14058  15.111   2.926  10.542
48579W        W14059  19.645  27.659   3.357
48580W        W14060  37.455  19.170   2.899
48581W        W14061   8.730   6.272  14.978
48582W        W14062   9.661   3.299  10.595
48583W        W14063   8.375  22.165   3.191
48584W        W14064   3.334  11.276   4.295
48585W        W14065   4.889   2.430  12.944
48586W        W14066  16.675  19.599  12.031
48587W        W14067  44.831  20.623   2.772
48588W        W14068  36.957  30.445   3.723
48589W        W14069  25.114  19.650   1.349
48590W        W14070  16.574  39.946   3.636
48591W        W14071  43.825  21.541  12.998
48592W        W14072  14.191  17.730   2.676
48593W        W14073  14.133  33.950  10.967
48594W        W14074  38.463  20.177   3.166
48595W        W14075  24.182  37.508  11.056
48596W        W14076  22.236  39.900   0.909
48597W        W14077  33.586  14.129   2.369
48598W        W14078  37.907  23.677  12.384
48599W        W14079  22.617   9.260   3.160
48600W        W14080   8.181  39.911  14.965
48601W        W14081   3.229  24.661  14.512
48602W        W14082   9.275  27.955   3.151
48603W        W14083  32.447  27.055   0.886
48604W        W14084  37.855  25.084   0.896
48605W        W14085  41.980  23.598   1.882
48606W        W14086  23.663  41.891  11.408
48607W        W14087  20.096  24.621  14.800
48608W        W14088  43.890  24.161   2.711
48609W        W14089  12.219  11.812  14.842
48610W        W14090  35.422  42.294  12.572
48611W        W14091  19.088  15.308   1.721
48612W        W14092  10.266  18.242  10.605
48613W        W14093  15.713  22.102   5.116
48614W        W14094  18.627  41.312  12.045
48615W        W14095  26.568  36.443   3.255
48616W        W14096  23.103  43.893   1.353
48617W        W14097  26.079  21.194  10.563
48618W        W14098  17.647  11.640  11.861
48619W        W14099  26.592   0.323   1.448
48620W        W14100   4.254  13.112   2.871
48621W        W14101  30.007  23.090   3.349
48622W        W14102  14.601  31.958  14.834
48623W        W14103  18.255  25.074   4.825
48624W        W14104  22.222   9.181   1.214
48625W        W14105  29.067   9.380  13.909
48626W        W14106  17.189  29.559   0.923
48627W        W14107   1.256  36.075  11.402
48628W        W14108  36.565  20.663   2.315
48629W        W14109  23.023  35.366  11.010
48630W        W14110  20.550  18.547   2.316
48631W        W14111  14.334  13.777   3.727
48632W        W14112   7.829  37.404  13.048
48633W        W14113   2.860  43.477   3.704
48634W        W14114  11.625  37.528   0.753
48635W        W14115  11.286  12.660  12.044
48636W        W14116  14.802   0.941   0.289
48637W        W14117  19.647  35.895   3.374
48638W        W14118  40.454  17.182   0.877
48639W        W14119  37.388  30.154   1.385
48640W        W14120  40.492  13.124   3.799
48641W        W14121  36.864  39.334  11.992
48642W        W14122  21.586  38.907  12.534
48643W        W14123  33.025  35.433  11.942
48644W        W14124  20.615   7.677  12.824
48645W        W14125  37.353   4.803   3.785
48646W        W14126  23.706  11.166  13.838
48647W        W14127  11.641  34.415  12.065
48648W        W14128  26.563  33.528   3.236
48649W        W14129  40.418  31.008  12.456
48650W        W14130  10.695  13.744   0.310
48651W        W14131  30.604  33.057  13.523
48652W        W14132  33.023  20.081   4.752
48653W        W14133  19.242   7.292  14.771
48654W        W14134   0.453   1.327  11.391
48655W        W14135  29.569   8.885   3.174
48656W        W14136  35.960  43.463  14.425
48657W        W14137   5.705  27.159  10.487
48658W        W14138  38.997   4.786   9.992
48659W        W14139   9.712  23.083  10.924
48660W        W14140  43.361   7.709  12.385
48661W        W14141  44.864  13.642  12.027
48662W        W14142  31.523  12.852   0.258
48663W        W14143  32.886  33.915   4.805
48664W        W14144   4.258  22.203   4.604
48665W        W14145  19.217  13.607   0.917
48666W        W14146  33.029  26.488   0.787
48667W        W14147  44.777  22.689   4.755
48668W        W14148  41.326  17.687  12.369
48669W        W14149  34.886   3.903  14.395
48670W        W14150  10.327  31.569  10.630
48671W        W14151   9.725  25.544  14.316
48672W        W14152  32.425   2.729   3.724
48673W        W14153  39.457  11.753  12.860
48674W        W14154  37.070  42.515  13.985
48675W        W14155   4.888  35.971   1.807
48676W        W14156  24.150  34.984   2.859
48677W        W14157  13.217  11.638  14.435
48678W        W14158  42.800  37.948  12.542
48679W        W14159  18.689   1.461   2.879
48680W        W14160  29.667  16.225  12.400
48681W        W14161   4.943  22.704   0.856
48682W        W14162   5.693   8.863   0.770
48683W        W14163  24.046   5.323   2.369
48684W        W14164  12.618  43.845   4.354
48685W        W14165   6.367  10.263   3.810
48686W        W14166  10.740  30.528   2.391
48687W        W14167   7.306  38.956   4.709
48688W        W14168  16.163   2.820   4.255
48689W        W14169  15.645  24.652   5.170
48690W        W14170  14.711  35.977   0.868
48691W        W14171   9.167  26.546  14.015
48692W        W14172  35.943   4.719  13.356
48693W        W14173  26.486   4.751   0.404
48694W        W14174  24.675   6.859  10.610
48695W        W14175  16.804  33.492   4.248
48696W        W14176  42.798  43.424  12.043
48697W        W14177  43.792   8.793  11.449
48698W        W14178  29.515  13.776  14.991
48699W        W14179   2.746   4.847   0.930
48700W        W14180  41.036  10.150  10.563
48701W        W14181   3.433  18.714   1.849
48702W        W14182  36.879  31.595   0.390
48703W        W14183  17.297   4.872  11.477
48704W        W14184  21.234   5.214  13.031
48705W        W14185   2.376  22.146   1.773
48706W        W14186  32.049  24.058   2.248
48707W        W14187  18.189  38.841   2.185
48708W        W14188   3.889  32.969  13.414
48709W        W14189  21.194  42.382   1.882
48710W        W14190  23.000   3.893   4.665
48711W        W14191  42.469  26.172  13.001
48712W        W14192   3.416  34.041  13.520
48713W        W14193   0.269  24.043   3.738
48714W        W14194  29.625  11.247   4.805
48715W        W14195  34.417  25.564  13.928
48716W        W14196   5.876  27.992  13.896
48717W        W14197   2.925  17.114   0.939
48718W        W14198  18.093  35.577   3.742
48719W        W14199  32.615  35.866  11.461
48720W        W14200  44.787  11.129   4.745
48721W        W14201  30.450  28.613   4.172
48722W        W14202  11.251  13.843   3.341
48723W        W14203  38.469   0.974   4.803
48724W        W14204  37.476  37.890  14.321
48725W        W14205  30.078  30.431   3.285
48726W        W14206  34.430   3.430   0.355
48727W        W14207  24.056  23.201   0.435
48728W        W14208   3.793  29.579   3.820
48729W        W14209  35.889  23.584   2.870
48730W        W14210  31.609   5.416  12.026
48731W        W14211  10.726  44.317  11.024
48732W        W14212   2.329  39.317  11.932
48733W        W14213  21.203  24.211  14.896
48734W        W14214  35.028  34.504  10.502
48735W        W14215  38.419  30.124   0.366
48736W        W14216  13.232  10.869   4.691
48737W        W14217  35.960   0.365  11.899
48738W        W14218  39.516   6.375  11.997
48739W        W14219  31.928  44.770  11.090
48740W        W14220  30.525  30.441   0.384
48741W        W14221  29.613  43.367  14.379
48742W        W14222  12.156  20.525   2.831
48743W        W14223   9.801  17.592  12.089
48744W        W14224  25.138  34.965  13.006
48745W        W14225   7.820  36.940   2.831
48746W        W14226  20.084  13.665   0.366
48747W        W14227  19.665  19.540  14.800
48748W        W14228  39.013  23.227  11.950
48749W        W14229  27.666  39.036  12.922
48750W        W14230   9.150  37.556  14.507
48751W        W14231  38.995  42.856  10.990
48752W        W14232  20.089  39.920   3.695
48753W        W14233  33.925  36.495   3.794
48754W        W14234  34.910  41.972  14.945
48755W        W14235   8.690  11.325   4.604
48756W        W14236  32.035  14.202   0.752
48757W        W14237  14.279  27.536   4.629
48758W        W14238  26.194  30.460  14.378
48759W        W14239  17.580   0.394  11.120
48760W        W14240  43.489  29.653   0.786
48761W        W14241  25.028  43.778   4.676
48762W        W14242  25.594  30.525   4.820
48763W        W14243  12.704  44.395   0.800
48764W        W14244  18.555  18.712  11.918
48765W        W14245  43.916   6.370   3.680
48766W        W14246  27.013  21.533   4.836
48767W        W14247  27.463  20.535  12.382
48768W        W14248  43.429  22.552   1.723
48769W        W14249  39.371   6.718   4.160
48770W        W14250   3.848  42.336   3.786
48771W        W14251  28.181  28.069   0.867
48772W        W14252  16.668  26.190   0.746
48773W        W14253   0.922  26.472  13.019
48774W        W14254  27.591  14.168  10.971
48775W        W14255  23.714  12.611  12.570
48776W        W14256   9.317   9.362   0.925
48777W        W14257  12.204   6.291  11.595
48778W        W14258  43.827  13.789   0.313
48779W        W14259  38.346   1.248   4.700
48780W        W14260  29.040  42.822  13.822
48781W        W14261  44.905  37.850   1.718
48782W        W14262  15.763  25.598  10.113
48783W        W14263  23.068   3.731   4.302
48784W        W14264  42.458  27.016   3.337
48785W        W14265   9.655  26.992   4.152
48786W        W14266  10.252  29.664   3.863
48787W        W14267   6.214   3.422  10.087
48788W        W14268  36.542  14.667  13.425
48789W        W14269  21.129  26.203  13.795
48790W        W14270  42.439   5.296   2.242
48791W        W14271  31.907  33.120   3.639
48792W        W14272   4.358   3.944  14.889
48793W        W14273  10.871  20.742  11.477
48794W        W14274   4.757  20.248   0.343
48795W        W14275  33.612  40.954  12.509
48796W        W14276  15.603  34.562  11.561
48797W        W14277  25.019  38.390  14.411
48798W        W14278   3.343  44.449  13.459
48799W        W14279  30.988  12.710  12.552
48800W        W14280   2.915  21.512   1.884
48801W        W14281   2.336  26.044   2.369
48802W        W14282  35.513  25.020  14.788
48803W        W14283   1.373  36.370   4.336
48804W        W14284  40.528  20.748   1.764
48805W        W14285  10.244  20.192   5.301
48806W        W14286   9.762  23.164   3.758
48807W        W14287  36.588   6.277  12.909
48808W        W14288  41.361  36.899  10.543
48809W        W14289  25.210  43.822   3.633
48810W        W14290  39.056  25.548  11.450
48811W        W14291   7.838  33.894   3.649
48812W        W14292  23.515   9.219   4.656
48813W        W14293  43.934  35.514   4.132
48814W        W14294  27.033  23.184  10.602
48815W        W14295  42.477  13.169   1.291
48816W        W14296  41.322  10.195   1.795
48817W        W14297  16.266  20.750  10.919
48818W        W14298  24.990   6.715   1.364
48819W        W14299  14.240  38.945   2.282
48820W        W14300  27.172  20.098  13.819
48821W        W14301  19.152   8.661   0.432
48822W        W14302  14.156  29.605   5.302
48823W        W14303  34.882  13.624   4.780
48824W        W14304  14.641   9.189  12.550
48825W        W14305  42.982  42.300  11.541
48826W        W14306  20.523   4.280  14.427
48827W        W14307  19.657  24.540   3.196
48828W        W14308  42.833  36.550  11.952
48829W        W14309  23.208  12.132   0.454
48830W        W14310   2.238  29.438   1.835
48831W        W14311  18.245   4.369   3.194
48832W        W14312  13.654  23.139   1.368
48833W        W14313   8.346   4.264  10.915
48834W        W14314   4.278  27.659   0.283
48835W        W14315   3.410   3.770  12.428
48836W        W14316  12.718  19.161   0.940
48837W        W14317   5.237  16.668  13.439
48838W        W14318  34.443  44.780   2.790
48839W        W14319  16.259   1.770  14.429
48840W        W14320  37.083   6.913   2.739
48841W        W14321  18.083   6.289   0.806
48842W        W14322  43.952  28.162  13.890
48843W        W14323  33.926   7.839  14.296
48844W        W14324   8.827  31.033  10.973
48845W        W14325  16.774  11.220  10.523
48846W        W14326  33.042   6.376   2.279
48847W        W14327   1.792   3.380   4.251
48848W        W14328   2.890  10.634  13.413
48849W        W14329  26.050  41.393   3.632
48850W        W14330  26.688  21.645   1.883
48851W        W14331  25.605   2.301  14.764
48852W        W14332  16.587  10.224   1.899
48853W        W14333  23.584  26.140   3.703
48854W        W14334  37.489  14.266  11.416
48855W        W14335  13.326  36.536   2.710
48856W        W14336   1.872   5.829  14.784
48857W        W14337  43.813  24.563  12.401
48858W        W14338  10.842  32.459   2.690
48859W        W14339  35.516  30.527   4.227
48860W        W14340  25.186  11.352  12.865
48861W        W14341  29.663   4.727  11.972
48862W        W14342   1.388  14.603   4.215
48863W        W14343  40.381  18.056  12.511
48864W        W14344  28.569   1.938  12.545
48865W        W14345  39.558  18.578   0.378
48866W        W14346   4.777  18.069   4.632
48867W        W14347  10.220  37.403  11.000
48868W        W14348  23.688  22.650  11.119
48869W        W14349  12.192  43.975   4.209
48870W        W14350  36.472   8.686   2.330
48871W        W14351  17.113  43.818   0.968
48872W        W14352  22.676   9.376   1.430
48873W        W14353  39.871   5.871   0.768
48874W        W14354  15.824  38.352  11.947
48875W        W14355   9.223  33.076  12.919
48876W        W14356  38.866  13.828  11.380
48877W        W14357   4.417  21.209   4.174
48878W        W14358   1.420   1.358   3.171
48879W        W14359   7.674  25.049   2.396
48880W        W14360  21.521  20.128   3.184
48881W        W14361   4.444   0.966  14.495
48882W        W14362  32.593  19.605  12.075
48883W        W14363  24.643  20.185   0.468
48884W        W14364  16.675  19.202  13.351
48885W        W14365  19.616  26.203   3.305
48886W        W14366  23.040  34.120   0.747
48887W        W14367  44.380  42.927  14.427
48888W        W14368  41.891  28.492  12.035
48889W        W14369  39.922  21.570   2.368
48890W        W14370  22.216  26.527  12.062
48891W        W14371  10.193   6.695   4.322
48892W        W14372  32.088  11.362   3.732
48893W        W14373  42.964  30.522  11.865
48894W        W14374  35.109  32.914  13.346
48895W        W14375  20.675  22.180   4.289
48896W        W14376   0.762   9.820   0.430
48897W        W14377  35.592   3.941   2.880
48898W        W14378   3.323  39.890   1.899
48899W        W14379   8.847   2.410  11.563
48900W        W14380  22.059  20.628  10.569
48901W        W14381  38.366  16.657   1.711
48902W        W14382   2.312  23.178  11.575
48903W        W14383  20.224  25.052  12.553
48904W        W14384  16.636   8.895  14.328
48905W        W14385  22.032   5.299  13.492
48906W        W14386  28.570  12.759  11.897
48907W        W14387  29.079  32.979   4.717
48908W        W14388  24.554   1.470   2.774
48909W        W14389  15.801  29.117   2.866
48910W        W14390  33.960   5.858  11.859
48911W        W14391  23.532  25.175  14.775
48912W        W14392   7.239  17.640   0.273
48913W        W14393   5.898   1.771   2.785
48914W        W14394  29.554   4.789  14.461
48915W        W14395  22.195   4.313   0.788
48916W        W14396  18.746  20.615   2.689
48917W        W14397  40.440   6.239   0.788
48918W        W14398   2.848   4.365  10.482
48919W        W14399  39.870  32.617  13.448
48920W        W14400  37.050  12.825   1.728
48921W        W14401   6.742   7.373   4.214
48922W        W14402  18.152  18.103   3.358
48923W        W14403   0.970   8.659  11.918
48924W        W14404  17.738  38.028   4.231
48925W        W14405  39.436  15.645  12.924
48926W        W14406   5.765  19.773   3.850
48927W        W14407   8.890  23.604   2.693
48928W        W14408   0.440  37.883   3.844
48929W        W14409  25.198   7.252   9.945
48930W        W14410  24.521  34.914   1.805
48931W        W14411  20.161  16.124   3.360
48932W        W14412  31.525  22.694   4.732
48933W        W14413   9.795  44.769  14.982
48934W        W14414  43.931  36.043  14.959
48935W        W14415   6.243  18.185  13.923
48936W        W14416   3.858  16.609  14.376
48937W        W14417  22.206  28.074   4.202
48938W        W14418   7.310  34.927  14.795
48939W        W14419  18.656  14.136   4.193
48940W        W14420  24.129   6.857   0.470
48941W        W14421  35.531  12.653  11.992
48942W        W14422  37.502  14.285  13.354
48943W        W14423  36.860   8.810  10.543
48944W        W14424  31.560  32.942  12.965
48945W        W14425  22.175   0.801   0.346
48946W        W14426  25.654  13.262  12.457
48947W        W14427  43.827   0.399  14.828
48948W        W14428   2.740  22.095  10.979
48949W        W14429  38.475  27.039  12.380
48950W        W14430  44.413  31.428   2.710
48951W        W14431  31.076   6.788   1.891
48952W        W14432  10.815  28.478   2.260
48953W        W14433  27.000   9.261  13.931
48954W        W14434  40.849  29.491  11.930
48955W        W14435  13.281  22.206  12.855
48956W        W14436  38.549  34.117  14.877
48957W        W14437  11.816  31.089  12.908
48958W        W14438  35.398  25.623   0.381
48959W        W14439  35.004   3.402  10.021
48960W        W14440  44.901   6.379  11.001
48961W        W14441  36.538   0.838  14.301
48962W        W14442  28.011  19.241   0.277
48963W        W14443   8.278  28.571   2.902
48964W        W14444  23.734  12.349   3.816
48965W        W14445   0.965  35.034   0.774
48966W        W14446  38.471  22.031   4.346
48967W        W14447   0.759  33.070  10.489
48968W        W14448  17.624   6.884   2.235
48969W        W14449  37.071  11.748  14.959
48970W        W14450  14.754  14.318   2.726
48971W        W14451  40.923  35.872   0.944
48972W        W14452  12.829  19.255  11.467
48973W        W14453  33.459  28.662  11.439
48974W        W14454   1.291  14.303   4.685
48975W        W14455   3.913  40.489   4.683
48976W        W14456  16.135  35.389  13.051
48977W        W14457  10.151  31.408  14.461
48978W        W14458  35.918  11.797   0.251
48979W        W14459  23.044  17.198  11.548
48980W        W14460  22.639   3.913  13.031
48981W        W14461   1.739  28.165   3.324
48982W        W14462  36.903  36.946  10.626
48983W        W14463   6.404  17.254   1.764
48984W        W14464  23.715  12.717  10.518
48985W        W14465  29.591   2.824   4.254
48986W        W14466  43.297  24.681  13.328
48987W        W14467   2.883  43.445   4.645
48988W        W14468  42.349  28.095  10.612
48989W        W14469  33.994  41.430   4.826
48990W        W14470  29.662  12.184   4.269
48991W        W14471  12.835  44.453  10.938
48992W        W14472  23.670  15.593   4.741
48993W        W14473  38.909   1.902   3.852
48994W        W14474   1.883   6.352   3.292
48995W        W14475  23.504  15.185   0.283
48996W        W14476   6.312  27.639  14.777
48997W        W14477  33.009   5.245  12.086
48998W        W14478  29.120  37.445   2.218
48999W        W14479  41.834  26.039  12.384
49000W        W14480  42.422  11.703  12.967
49001W        W14481  21.675   4.237   2.662
49002W        W14482  14.121   7.172  12.073
49003W        W14483  17.305  11.705  13.541
49004W        W14484  32.113   1.295  11.394
49005W        W14485  24.202  12.208   1.446
49006W        W14486  37.929  29.544  12.941
49007W        W14487   7.230   4.928  11.551
49008W        W14488  29.484  37.976  11.412
49009W        W14489  42.801   5.433  11.922
49010W        W14490  12.758  15.786  13.979
49011W        W14491  42.966  37.031  12.914
49012W        W14492   1.286  32.142  12.054
49013W        W14493  42.952  18.268   3.640
49014W        W14494   3.857  16.730  12.873
49015W        W14495  36.874  23.576  12.011
49016W        W14496  10.845  15.723   4.164
49017W        W14497  43.474  27.596  10.464
49018W        W14498  20.122  22.213  11.500
49019W        W14499   7.399  11.867  10.978
49020W        W14500  41.040  20.182   1.767
49021W        W14501  32.965   8.731   2.233
49022W        W14502  33.461  38.331  13.401
49023W        W14503  28.156  26.990   3.189
49024W        W14504   6.303  38.859   3.317
49025W        W14505  31.408   2.449   3.745
49026W        W14506   2.730  44.973   3.661
49027W        W14507  34.970  43.792  13.901
49028W        W14508   4.760   2.241  14.967
49029W        W14509   3.949  26.045  13.322
49030W        W14510  16.796  15.177   0.911
49031W        W14511  17.633   1.972  14.278
49032W        W14512  42.005  35.923  11.978
49033W        W14513  24.184   0.420   0.911
49034W        W14514  19.130  30.011   0.399
49035W        W14515   7.821  24.689  14.985
49036W        W14516  14.099  43.907  14.895
49037W        W14517  23.185  23.722   2.273
49038W        W14518  16.170  11.729  14.312
49039W        W14519  13.747   0.878  13.327
49040W        W14520   6.373  44.830   4.202
49041W        W14521  30.420  22.218   4.261
49042W        W14522   5.924  19.242  12.573
49043W        W14523  23.082  19.645  11.103
49044W        W14524  22.712  32.602  14.898
49045W        W14525  28.640  20.592  10.496
49046W        W14526  35.090  32.498  10.541
49047W        W14527  16.588   0.925   0.949
49048W        W14528  25.611  32.470   2.829
49049W        W14529  22.695   8.403  14.339
49050W        W14530  12.172  35.964  14.498
49051W        W14531  29.100  26.101  12.009
49052W        W14532  14.798  39.925  11.570
49053W        W14533  29.149  14.674  12.026
49054W        W14534  15.284  44.839   2.694
49055W        W14535  42.296  19.662   2.750
49056W        W14536   2.769   9.325  11.434
49057W        W14537   0.258  32.015   9.960
49058W        W14538  42.399  10.255  12.553
49059W        W14539  12.628  22.079   3.194
49060W        W14540  34.392   4.330   1.213
49061W        W14541  10.828  29.493   1.261
49062W        W14542  41.956  19.081  13.476
49063W        W14543  32.472   1.763   4.337
49064W        W14544  16.279  34.873  13.447
49065W        W14545   8.355   3.775  12.027
49066W        W14546  36.097  12.232  13.914
49067W        W14547  11.662  41.457   3.365
49068W        W14548   8.789  29.491   3.740
49069W        W14549  25.653  15.646   1.284
49070W        W14550  29.112  34.875  10.544
49071W        W14551   1.734  12.229   1.718
49072W        W14552   8.323  13.220   4.176
49073W        W14553   4.798   5.235   0.900
49074W        W14554  37.570   4.414   0.920
49075W        W14555  20.122   1.264  10.549
49076W        W14556  43.825  23.524   0.459
49077W        W14557  27.625  18.678  12.448
49078W        W14558  31.149  34.975  13.912
49079W        W14559   1.252  23.024   0.464
49080W        W14560   2.331  41.903  14.502
49081W        W14561  26.987  37.520   0.746
49082W        W14562  18.158  19.602  14.377
49083W        W14563  43.832  40.919  11.090
49084W        W14564  38.906  24.692  13.330
49085W        W14565  20.584   3.949   1.764
49086W        W14566  10.646   8.698   1.381
49087W        W14567  10.193  18.197  12.951
49088W        W14568  39.373  14.130  11.922
49089W        W14569  30.908  11.266  13.362
49090W        W14570  11.371   2.352  14.936
49091W        W14571   7.883  44.280   4.289
49092W        W14572  28.181   7.846   0.780
49093W        W14573  42.926  26.208   3.221
49094W        W14574   6.287  23.676   1.822
49095W        W14575  24.149  12.814  14.986
49096W        W14576  15.607  31.906   0.279
49097W        W14577   2.306   4.395  10.456
49098W        W14578  14.259   2.749  11.380
49099W        W14579  27.544  38.386  12.896
49100W        W14580  13.299  10.161   4.294
49101W        W14581  39.351  14.141   0.732
49102W        W14582  26.189  20.163   4.345
49103W        W14583  40.503  29.652  12.364
49104W        W14584  41.354  44.000  13.408
49105W        W14585  34.039   5.864   4.606
49106W        W14586  18.556  17.173   2.363
49107W        W14587  11.147  20.256   0.804
49108W        W14588   0.477  22.626   1.316
49109W        W14589  38.912  44.831   4.679
49110W        W14590   9.772  25.977  13.834
49111W        W14591  43.359  41.309   1.353
49112W        W14592  42.021  43.959   2.682
49113W        W14593  25.166  31.008   2.301
49114W        W14594   9.683  17.180  11.048
49115W        W14595   0.872   2.935  12.527
49116W        W14596   4.733  13.657  13.048
49117W        W14597  28.977  28.590   1.871
49118W        W14598  11.257  33.026  12.947
49119W        W14599   1.454  10.675   0.930
49120W        W14600  40.016  44.766   4.733
49121W        W14601  21.741  39.455  13.395
49122W        W14602  17.736   7.377  11.040
49123W        W14603  12.808  35.421   2.783
49124W        W14604  39.053  15.681  12.450
49125W        W14605  21.068  27.038  10.596
49126W        W14606  21.101  15.581   1.851
49127W        W14607  12.185  44.967   0.770
49128W        W14608  34.449  12.189  11.596
49129W        W14609  20.219  23.064   2.343
49130W        W14610   6.865  15.288  13.441
49131W        W14611  42.887  11.273  13.365
49132W        W14612  10.143  20.047  11.874
49133W        W14613  25.639  41.498   0.297
49134W        W14614   2.949   2.401   2.677
49135W        W14615   0.842  26.585  13.361
49136W        W14616  10.877   2.257   4.120
49137W        W14617  14.209   7.237   3.673
49138W        W14618  18.258   5.719   3.344
49139W        W14619  15.154  44.485  11.423
49140W        W14620  39.514  43.770  13.810
49141W        W14621  27.649  39.867  11.116
49142W        W14622  36.515   6.307   4.647
49143W        W14623   7.193  25.121   3.818
49144W        W14624  37.516  10.773  12.482
49145W        W14625  27.017   7.223   1.288
49146W        W14626  40.836   9.348  12.966
49147W        W14627  31.461  22.031   0.938
49148W        W14628  42.934  36.529  12.349
49149W        W14629  32.415  18.257   9.926
49150W        W14630  22.550  12.699  13.472
49151W        W14631  40.930  15.175   2.772
49152W        W14632  42.372  32.054  11.564
49153W        W14633   5.213  28.600  14.906
49154W        W14634  44.853  36.367  11.386
49155W        W14635   1.803  36.352   2.330
49156W        W14636  39.911  22.591  11.508
49157W        W14637  20.118   1.313  11.119
49158W        W14638  39.391  37.905  11.391
49159W        W14639  26.149   9.280  10.451
49160W        W14640  36.446  33.094  14.420
49161W        W14641  30.604  28.599  10.992
49162W        W14642  15.735  39.888  14.013
49163W        W14643  19.240  10.659  14.966
49164W        W14644  23.989   7.305   1.889
49165W        W14645  22.194  18.666   0.899
49166W        W14646  43.966  25.578   3.860
49167W        W14647  24.572  39.986  11.971
49168W        W14648  14.701  13.308   2.182
49169W        W14649  17.143   1.916   3.279
49170W        W14650  12.856  28.999   4.223
49171W        W14651  15.125  36.848   3.717
49172W        W14652  34.096  18.066  13.536
49173W        W14653  20.102   0.855  14.383
49174W        W14654  17.076  13.812   2.886
49175W        W14655  14.757  18.557  14.841
49176W        W14656  43.326   8.747   2.309
49177W        W14657  17.151  32.615   1.298
49178W        W14658  42.836  41.848   1.269
49179W        W14659  18.733   4.796   2.227
49180W        W14660   6.205  43.846  11.012
49181W        W14661  29.589  36.346  10.920
49182W        W14662  17.606  10.273   0.431
49183W        W14663   7.877  29.053  10.988
49184W        W14664   9.853  41.800  14.968
49185W        W14665  16.593  43.349   5.710
49186W        W14666  37.884  21.626   3.813
49187W        W14667  15.775  21.158  12.017
49188W        W14668  20.531  23.131  12.351
49189W        W14669  10.138  37.471  14.953
49190W        W14670  13.642  43.918   0.874
49191W        W14671  42.332  19.590   1.435
49192W        W14672  11.702  11.270   2.850
49193W        W14673  26.594  39.500  14.950
49194W        W14674  10.728  33.100   3.745
49195W        W14675   0.406   6.806   4.789
49196W        W14676  11.695   3.241   1.333
49197W        W14677  24.189   3.224  13.530
49198W        W14678  11.348  22.575  12.362
49199W        W14679   6.311  31.517  10.551
49200W        W14680  41.798  26.114   3.339
49201W        W14681   3.888   1.814   4.252
49202W        W14682  36.874  38.952   2.237
49203W        W14683  16.196  40.317  12.828
49204W        W14684  15.689  24.101   1.823
49205W        W14685  30.950  31.086  12.957
49206W        W14686   7.358  29.632   3.858
49207W        W14687   6.698  31.516  12.828
49208W        W14688  10.297  25.045  10.439
49209W        W14689  41.986  21.090  10.524
49210W        W14690  13.675  28.586  11.433
49211W        W14691  41.831  36.550  13.383
49212W        W14692  28.118  37.454  13.514
49213W        W14693   9.727  34.947   2.332
49214W        W14694  16.641  34.486  11.080
49215W        W14695  24.148  11.274  11.448
49216W        W14696  32.407   3.767   1.300
49217W        W14697  17.225  35.540   3.286
49218W        W14698  35.597   8.398   4.760
49219W        W14699  19.555   5.220  12.825
49220W        W14700  18.085  28.627  12.511
49221W        W14701  31.897  37.476   3.284
49222W        W14702  41.336  21.720   2.368
49223W        W14703  22.039   4.778  12.361
49224W        W14704  40.353  12.126  11.034
49225W        W14705  38.820   2.766  14.409
49226W        W14706  43.903  20.113  14.783
49227W        W14707  12.650  12.217   2.872
49228W        W14708  32.912  23.180   0.422
49229W        W14709  39.440  32.023  13.432
49230W        W14710  13.319  44.381  10.418
49231W        W14711  10.823  38.049   0.297
49232W        W14712  23.605  27.963   2.713
49233W        W14713  11.199  27.583  10.407
49234W        W14714  44.985  34.596  12.493
49235W        W14715  27.983   6.830   2.245
49236W        W14716   8.200  28.555  14.403
49237W        W14717   2.820   0.473  12.090
49238W        W14718  19.249  28.609   9.454
49239W        W14719  27.956  30.463  12.832
49240W        W14720  30.458   0.311  11.905
49241W        W14721  20.227  20.176  11.420
49242W        W14722  19.130   6.844  10.925
49243W        W14723  34.118  30.633  13.061
49244W        W14724  41.000  35.958   1.288
49245W        W14725   9.864   4.292   2.721
49246W        W14726  41.024  41.472   0.910
49247W        W14727   5.718  29.492   1.776
49248W        W14728  37.992  27.667   4.130
49249W        W14729   4.887  42.522  11.469
49250W        W14730  29.133  17.274  14.896
49251W        W14731  28.149   2.250  11.495
49252W        W14732   5.788  37.409   4.723
49253W        W14733  11.759  18.243   3.165
49254W        W14734  16.141  34.907   3.637
49255W        W14735  31.503  33.583   4.635
49256W        W14736  10.308  10.229  13.447
49257W        W14737  37.908  23.183   2.417
49258W        W14738  13.272  44.325   2.813
49259W        W14739  24.673  15.819   4.236
49260W        W14740  17.266  38.899  14.511
49261W        W14741  33.528  25.660   1.252
49262W        W14742   0.422   6.362  10.950
49263W        W14743  32.627  20.593   3.794
49264W        W14744  22.118   7.416  13.993
49265W        W14745  29.985  32.566  13.363
49266W        W14746  36.435  33.072  12.857
49267W        W14747  15.720   5.322  12.978
49268W        W14748  17.686  36.561  11.024
49269W        W14749  14.687  22.502  14.389
49270W        W14750  37.997  41.510   3.193
49271W        W14751  17.696  27.109   2.839
49272W        W14752   0.443  18.087  11.550
49273W        W14753  42.482  11.373  12.038
49274W        W14754  41.356  27.537   1.874
49275W        W14755   4.930   5.318   3.866
49276W        W14756  17.591  26.675   2.796
49277W        W14757   5.325  16.589  11.981
49278W        W14758  21.697  37.910  13.485
49279W        W14759  22.718  12.736   3.817
49280W        W14760   3.422  20.530   0.917
49281W        W14761  34.385  15.744   3.287
49282W        W14762  34.054  35.931  12.954
49283W        W14763  15.312  24.170  12.384
49284W        W14764  40.944   2.864  11.390
49285W        W14765  24.558  10.868   4.611
49286W        W14766  31.140  43.293   1.882
49287W        W14767  37.541  14.244   1.219
49288W        W14768   9.261  39.881   0.903
49289W        W14769   7.410  35.569   3.180
49290W        W14770  42.930  37.058   0.443
49291W        W14771   0.977  25.689   2.862
49292W        W14772  14.697  18.641   2.188
49293W        W14773  41.423  43.997   3.266
49294W        W14774  13.259  37.951  13.333
49295W        W14775  31.522  39.546   3.656
49296W        W14776  29.666   7.386   9.964
49297W        W14777  27.164   1.764  10.894
49298W        W14778  33.397  18.715  10.956
49299W        W14779  33.577  40.861   4.217
49300W        W14780  14.708  11.163   1.323
49301W        W14781  43.951  27.036  12.495
49302W        W14782  26.694  11.765  14.833
49303W        W14783   4.737  22.640  12.996
49304W        W14784  37.479  42.792  11.540
49305W        W14785  14.646  34.581  11.604
49306W        W14786  18.273  32.456  10.980
49307W        W14787  22.085  43.316   2.204
49308W        W14788  25.513  26.663  10.098
49309W        W14789  42.816  31.453   3.864
49310W        W14790   6.276  11.348   2.259
49311W        W14791  41.475  29.039  11.535
49312W        W14792  44.364   4.898  13.022
49313W        W14793  37.999  27.946   3.379
49314W        W14794  31.541   9.774   2.843
49315W        W14795  30.559   3.942   4.704
49316W        W14796  12.331  19.556  13.042
49317W        W14797   8.374  21.738   2.807
49318W        W14798  19.638  24.047   2.380
49319W        W14799  20.727   5.781  12.574
49320W        W14800  23.610  24.126  12.085
49321W        W14801  32.616  30.585   2.683
49322W        W14802  39.389  42.826  12.051
49323W        W14803  30.531  43.964   2.845
49324W        W14804  43.864  11.290  12.476
49325W        W14805   5.210  31.031  14.932
49326W        W14806  33.436   5.898  14.903
49327W        W14807  23.521  16.178  12.977
49328W        W14808  14.604  33.037   4.827
49329W        W14809   2.740  30.449  11.492
49330W        W14810  34.467   1.369   3.870
49331W        W14811  44.760  42.933  11.957
49332W        W14812  30.623  37.893   4.802
49333W        W14813  23.032  12.169  14.499
49334W        W14814  26.475  19.156  11.417
49335W        W14815   3.306  24.131   1.310
49336W        W14816  17.580   1.822   4.812
49337W        W14817  35.001   8.331  13.057
49338W        W14818  34.378  10.245  14.373
49339W        W14819  19.213  29.501  13.979
49340W        W14820   3.238  22.681   2.372
49341W        W14821  32.058  34.971  13.361
49342W        W14822  34.591   0.843  13.413
49343W        W14823  16.211   1.836  13.355
49344W        W14824  41.330   1.292   1.278
49345W        W14825  42.915  41.491  13.488
49346W        W14826   0.839   3.759  14.281
49347W        W14827   1.287  18.745   3.800
49348W        W14828  41.847  41.352   5.144
49349W        W14829  18.226  13.838   2.334
49350W        W14830  14.743  36.524   3.773
49351W        W14831  22.591  35.048   2.732
49352W        W14832   3.909  38.015   4.668
49353W        W14833  18.709  27.005   4.190
49354W        W14834  17.774  16.737  14.804
49355W        W14835  24.605  35.895  11.598
49356W        W14836   5.757  34.994   0.743
49357W        W14837  10.215  43.392  14.395
49358W        W14838  41.319  17.564   5.127
49359W        W14839   7.404   4.284  13.366
49360W        W14840  29.001  24.162  14.830
49361W        W14841  23.189  34.608   4.638
49362W        W14842  21.097   1.842  11.404
49363W        W14843   8.354  41.504   1.444
49364W        W14844  33.471  28.107  13.499
49365W        W14845  37.371  39.015   3.295
49366W        W14846  21.259  33.507   3.328
49367W        W14847  31.556  44.363  12.408
49368W        W14848  40.456  12.799  13.838
49369W        W14849  20.055  43.778   4.667
49370W        W14850   1.943  25.562   0.294
49371W        W14851   8.718  25.205   0.965
49372W        W14852   7.676  21.041  13.350
49373W        W14853   9.845  11.719   1.277
49374W        W14854   4.258  30.095  14.905
49375W        W14855  44.865  31.986   0.958
49376W        W14856  35.413   8.260  12.908
49377W        W14857  37.465  16.783  14.878
49378W        W14858  12.127  13.831   0.374
49379W        W14859   8.270   0.945  11.486
49380W        W14860  15.596  38.526  14.921
49381W        W14861  13.794  18.266   2.829
49382W        W14862   7.202  16.689   4.678
49383W        W14863  40.457  19.774   3.311
49384W        W14864  11.183  27.990  10.557
49385W        W14865  32.933  40.004  10.909
49386W        W14866  38.422  26.964  14.875
49387W        W14867  35.523  37.989   2.286
49388W        W14868  36.877  40.839   3.270
49389W        W14869  38.453   3.260   3.745
49390W        W14870  34.037   8.790   4.827
49391W        W14871  24.206  36.892  13.308
49392W        W14872   8.884   4.706  13.329
49393W        W14873  33.470  14.727   2.796
49394W        W14874   8.278  26.561  11.547
49395W        W14875   6.850  43.386   0.770
49396W        W14876  43.417  37.003  11.106
49397W        W14877  24.070  26.085   2.287
49398W        W14878  43.405  43.375   4.710
49399W        W14879  25.516  41.986  12.426
49400W        W14880   1.864  38.465  13.425
49401W        W14881  24.013  29.130   2.696
49402W        W14882   1.379  10.795   4.616
49403W        W14883  32.931  15.244   4.136
49404W        W14884  29.061   9.309   4.799
49405W        W14885  27.611  26.996  13.331
49406W        W14886  33.391   5.311  10.538
49407W        W14887  26.037   2.731  10.921
49408W        W14888  24.591  15.170  10.465
49409W        W14889  36.867  31.443  11.871
49410W        W14890  31.977  27.519  12.506
49411W        W14891  25.656  38.503  12.470
49412W        W14892   1.344  21.041   2.208
49413W        W14893  30.947  32.989   4.681
49414W        W14894   6.259  13.781  12.826
49415W        W14895   0.798  25.051   0.833
49416W        W14896  39.432   0.351  10.482
49417W        W14897   1.464  42.456   3.809
49418W        W14898  37.889  26.970  10.935
49419W        W14899  24.180   4.333  14.877
49420W        W14900   2.920  31.571  10.473
49421W        W14901  11.128  35.485   3.354
49422W        W14902  12.756  15.612  14.404
49423W        W14903  12.613  15.259  11.571
49424W        W14904  33.892  37.032   3.366
49425W        W14905  26.092  32.440   2.828
49426W        W14906  39.319  42.353  12.901
49427W        W14907  27.038  10.363  13.922
49428W        W14908   3.233  17.750  13.504
49429W        W14909  23.541   0.747   3.155
49430W        W14910  32.996  38.893  13.471
49431W        W14911  26.683   3.318  10.926
49432W        W14912  38.387  26.972  13.422
49433W        W14913  20.148  11.630   9.938
49434W        W14914  29.922  29.067  13.988
49435W        W14915  14.257  15.249  13.372
49436W        W14916  39.503   7.289  14.964
49437W        W14917  13.755  34.895  13.354
49438W        W14918  23.193  20.088  13.448
49439W        W14919   3.277  18.585  10.898
49440W        W14920   8.900   2.433   4.732
49441W        W14921  31.037  26.467  12.448
49442W        W14922  44.807  15.618  12.873
49443W        W14923  18.268  37.391  14.303
49444W        W14924   7.224  30.983   3.348
49445W        W14925  23.490  30.098  10.508
49446W        W14926  20.152  19.145   3.220
49447W        W14927   2.369  24.581   1.399
49448W        W14928  19.204  38.001  11.856
49449W        W14929  21.201  12.837   4.166
49450W        W14930  28.456  21.646   3.855
49451W        W14931  36.549   7.180  13.855
49452W        W14932   5.316  37.018   3.254
49453W        W14933  20.271  24.087   0.416
49454W        W14934   4.777  19.046  14.022
49455W        W14935  32.579  39.503  11.899
49456W        W14936  31.598  11.235   3.158
49457W        W14937  29.023  12.203   2.759
49458W        W14938   1.336  44.932   2.679
49459W        W14939  38.392  38.437   2.844
49460W        W14940  16.207  42.364  13.315
49461W        W14941  42.283  42.330  14.397
49462W        W14942   8.884   2.432   2.730
49463W        W14943  35.040   6.427  14.988
49464W        W14944  19.651  17.169  10.934
49465W        W14945  29.554  29.011   4.716
49466W        W14946   1.246  44.391   3.663
49467W        W14947  29.496  25.151   3.800
49468W        W14948  31.592  22.603  10.939
49469W        W14949  10.319  43.945  13.950
49470W        W14950  23.503  39.474  12.840
49471W        W14951   8.660  38.505  13.975
49472W        W14952  25.995  26.201   0.350
49473W        W14953  37.563  17.643  11.412
49474W        W14954   6.407  19.578  14.292
49475W        W14955   3.832  12.782   3.824
49476W        W14956  15.124  24.702   0.373
49477W        W14957  29.638  13.778   1.379
49478W        W14958   6.848  36.090  12.900
49479W        W14959  43.345  19.214  11.572
49480W        W14960  11.781  41.845  12.093
49481W        W14961   0.911  42.963   0.847
49482W        W14962  19.574  22.720   4.248
49483W        W14963  22.523  34.555   1.782
49484W        W14964  17.300   1.846   1.422
49485W        W14965  16.172   4.758  13.008
49486W        W14966  25.066   1.428   4.666
49487W        W14967  22.652  26.534  11.588
49488W        W14968  39.453  19.593   2.226
49489W        W14969  25.610  42.868   3.800
49490W        W14970  28.034  24.624  14.379
49491W        W14971   7.330   3.864  12.832
49492W        W14972  25.094  14.658  10.626
49493W        W14973  15.682  25.109  10.507
49494W        W14974  22.662   7.277  11.610
49495W        W14975  35.548  26.534   0.328
49496W        W14976  43.393  18.683   4.315
49497W        W14977  32.412  23.695   3.162
49498W        W14978  29.498  18.209  13.844
49499W        W14979  15.680  41.813  11.958
49500W        W14980  17.204  23.991   1.740
49501W        W14981  15.157  37.373  11.861
49502W        W14982  28.143   4.754  14.322
49503W        W14983   0.784  22.724  10.468
49504W        W14984   5.349  30.981  14.374
49505W        W14985  10.716   6.404   3.354
49506W        W14986  20.134   7.236  11.558
49507W        W14987  41.337  16.164  12.866
49508W        W14988  38.432  43.832   4.688
49509W        W14989  43.500  10.711  13.500
49510W        W14990  19.251  26.628  13.992
49511W        W14991  29.526  15.712   3.231
49512W        W14992  26.663  43.514  11.871
49513W        W14993  15.590  23.241   3.372
49514W        W14994  25.483   6.840  13.536
49515W        W14995   2.444  23.008   0.371
49516W        W14996  26.470   3.710  14.992
49517W        W14997   0.270  11.857  13.479
49518W        W14998  13.648  38.494  13.430
49519W        W14999  27.516  36.974  13.800
49520W        W15000  13.814  10.784  11.538
49521W        W15001  35.087  30.043  14.442
49522W        W15002  21.626  35.038  10.917
49523W        W15003  40.958  37.072   4.738
49524W        W15004  24.529  34.868  12.486
49525W        W15005  15.630  20.266  11.386
49526W        W15006  22.135  13.727   0.314
49527W        W15007  37.919  41.398   0.843
49528W        W15008  29.502  43.000   3.813
49529W        W15009  28.439  43.810  10.975
49530W        W15010  38.947  36.975   2.397
49531W        W15011   5.787  11.292   1.889
49532W        W15012   0.395  25.547   3.684
49533W        W15013  33.455  38.961  13.444
49534W        W15014   8.358  30.966   3.766
49535W        W15015  20.592  10.306  12.360
49536W        W15016  19.045   4.346   4.331
49537W        W15017   2.787  10.179  14.832
49538W        W15018   8.897  37.345   2.183
49539W        W15019  20.145  16.772   3.769
49540W        W15020  32.995  29.458  13.798
49541W        W15021  23.666  30.040   0.420
49542W        W15022  15.784  34.891   2.762
49543W        W15023   7.308  38.560  14.939
49544W        W15024  35.385  20.139  10.942
49545W        W15025  43.397  35.012  14.294
49546W        W15026  11.649  28.605   3.336
49547W        W15027  13.651   8.307  14.783
49548W        W15028  18.263   9.295  11.074
49549W        W15029  25.708   6.778   0.867
49550W        W15030   3.266  32.051  12.539
49551W        W15031  12.121  21.106  11.896
49552W        W15032  34.515  40.989   3.694
49553W        W15033  30.484  23.674  13.981
49554W        W15034  13.811   6.894  11.412
49555W        W15035  27.057  35.052   4.738
49556W        W15036  13.157   4.788   4.311
49557W        W15037   3.349  27.634   0.765
49558W        W15038  20.172  25.024  12.032
49559W        W15039   9.180  23.693   3.715
49560W        W15040  31.572  19.226   3.196
49561W        W15041   2.938  35.052  12.453
49562W        W15042  43.407  44.877   0.418
49563W        W15043   7.754  25.998   2.351
49564W        W15044  14.747  30.445   3.663
49565W        W15045   3.383  19.570  12.384
49566W        W15046  39.052   0.897   3.860
49567W        W15047  15.170  10.645   2.816
49568W        W15048  15.327  22.747   3.651
49569W        W15049  33.504  29.157   1.704
49570W        W15050  32.069  17.672  13.392
49571W        W15051  22.501  17.202  11.422
49572W        W15052   4.372   1.966   3.210
49573W        W15053   7.399   6.800   3.740
49574W        W15054  35.922   8.789  14.933
49575W        W15055  37.017  10.680   1.215
49576W        W15056  29.462  43.943   2.717
49577W        W15057  28.106  26.069   0.403
49578W        W15058  36.466  40.026   2.715
49579W        W15059  21.575  15.107  12.449
49580W        W15060  19.110  31.549  10.423
49581W        W15061  44.833  31.451  11.960
49582W        W15062  21.225  11.159  14.447
49583W        W15063   9.797  37.919   0.338
49584W        W15064  15.817  21.634   2.291
49585W        W15065  24.484  31.631   4.769
49586W        W15066  30.972   7.266   2.321
49587W        W15067  35.470  33.887  11.530
49588W        W15068  25.215  31.489   4.339
49589W        W15069  25.471   0.353  10.015
49590W        W15070  23.571  21.710   3.263
49591W        W15071  41.875   2.946   3.787
49592W        W15072  22.686  43.475   9.982
49593W        W15073   2.966  11.249   2.892
49594W        W15074  26.632  21.581  11.069
49595W        W15075  10.350   8.774  13.898
49596W        W15076  25.112  38.337  11.109
49597W        W15077  42.282  29.437  13.510
49598W        W15078  18.103  35.084  14.018
49599W        W15079  17.693  39.993   2.410
49600W        W15080  32.058  31.504   2.770
49601W        W15081   4.391  33.974  12.553
49602W        W15082  19.612  28.638   1.933
49603W        W15083  17.625  44.277  11.921
49604W        W15084   3.775  37.033   2.318
49605W        W15085   0.350  10.697   1.902
49606W        W15086   0.266  34.582  11.884
49607W        W15087   1.902  23.212   1.819
49608W        W15088  11.151  36.528  11.000
49609W        W15089  39.952   0.249  13.877
49610W        W15090  33.431  32.009  10.051
49611W        W15091  33.445  40.475  14.503
49612W        W15092  28.589   3.846   3.868
49613W        W15093   3.229  29.666  11.510
49614W        W15094  27.549  36.438  11.563
49615W        W15095  14.232  21.629   2.876
49616W        W15096  35.405  22.668  11.590
49617W        W15097  20.539  25.537   5.255
49618W        W15098   9.380  29.037  14.401
49619W        W15099   9.272  25.994   0.377
49620W        W15100   2.948  36.440   1.413
49621W        W15101   4.212  20.725  13.345
49622W        W15102  39.503  24.201  11.417
49623W        W15103   7.906  19.258   1.239
49624W        W15104  18.264  36.538  13.373
49625W        W15105  24.057  17.276   1.897
49626W        W15106  30.412  15.697  11.382
49627W        W15107  33.980  31.094   0.755
49628W        W15108  19.688  29.649   3.288
49629W        W15109   5.430  19.232   4.654
49630W        W15110  23.203   4.250   1.401
49631W        W15111  14.692  38.354  13.983
49632W        W15112  10.741  21.513   0.257
49633W        W15113  29.588  16.096   3.303
49634W        W15114  31.144  10.229  12.465
49635W        W15115  28.531   2.850  11.407
49636W        W15116  29.973   4.878  12.096
49637W        W15117  36.064   1.841  11.969
49638W        W15118  24.562  37.472   1.284
49639W        W15119  10.156   0.918   2.197
49640W        W15120  32.545  43.854  13.827
49641W        W15121  41.942   7.723   1.255
49642W        W15122  29.020  23.238  11.099
49643W        W15123  31.970  11.689  13.430
49644W        W15124  28.659  17.138   2.413
49645W        W15125  36.353   1.410   1.305
49646W        W15126  37.955  13.105   0.873
49647W        W15127   6.904  40.337  11.518
49648W        W15128   9.837  35.456  10.561
49649W        W15129  16.718  38.397   2.279
49650W        W15130  34.609  23.703   4.135
49651W        W15131   3.896   7.669  10.513
49652W        W15132  27.591  18.589  13.407
49653W        W15133  12.348  38.053   1.865
49654W        W15134  23.531   6.335   3.196
49655W        W15135  26.969  26.000  10.621
49656W        W15136  35.429  36.896  13.887
49657W        W15137  29.927  36.426  10.984
49658W        W15138  22.602   2.263   0.763
49659W        W15139   8.176  20.552  12.033
49660W        W15140  35.907  41.534   3.284
49661W        W15141  26.012   5.333   4.716
49662W        W15142  28.101  34.935  14.374
49663W        W15143  27.072   9.794  14.816
49664W        W15144  29.466   5.238   0.873
49665W        W15145  37.012  13.633   0.951
49666W        W15146   2.896   1.443   0.470
49667W        W15147   8.218   4.929   3.197
49668W        W15148  25.624   9.208  13.891
49669W        W15149  42.354   1.325   1.341
49670W        W15150   9.283  23.576  13.016
49671W        W15151  25.578  22.240   4.284
49672W        W15152  16.735  35.386   4.245
49673W        W15153   0.798  23.562  10.018
49674W        W15154  19.567  12.193  13.033
49675W        W15155   6.198  14.126   4.145
49676W        W15156   4.741  32.502  11.921
49677W        W15157  23.658   1.937  12.505
49678W        W15158   8.179  13.616  12.429
49679W        W15159  31.057   9.335   0.874
49680W        W15160  33.876  30.590   2.809
49681W        W15161  23.508   6.233  11.966
49682W        W15162  39.953  31.480   3.163
49683W        W15163  41.536  29.955  10.954
49684W        W15164   0.258  23.674   3.149
49685W        W15165  41.484  40.421  12.358
49686W        W15166  15.297  28.488  14.848
49687W        W15167   5.724  27.612   0.440
49688W        W15168  37.358  14.652  13.922
49689W        W15169  16.628   6.698   3.771
49690W        W15170  17.758  41.965   0.373
49691W        W15171  44.306  35.922   3.863
49692W        W15172  26.612  12.241  12.431
49693W        W15173  12.309  18.586  10.615
49694W        W15174  27.023  15.305   2.265
49695W        W15175   7.304  16.272  14.408
49696W        W15176  11.166  43.314   2.195
49697W        W15177  25.668  20.685  13.001
49698W        W15178  10.212  30.950  11.087
49699W        W15179  35.534   0.796  13.049
49700W        W15180  11.757  11.682   2.309
49701W        W15181  15.205  29.504   4.635
49702W        W15182  25.525  33.590   2.233
49703W        W15183  30.161  24.540  10.594
49704W        W15184  24.678  14.327   3.244
49705W        W15185   8.737  28.590  12.825
49706W        W15186  32.064  26.506  12.951
49707W        W15187  29.455  20.556   3.681
49708W        W15188  41.023  27.004   4.346
49709W        W15189  43.445  29.573   2.818
49710W        W15190  44.281   2.285  11.435
49711W        W15191  32.495  21.524   2.276
49712W        W15192  38.037   2.959   0.768
49713W        W15193  43.897  15.577   0.832
49714W        W15194   3.354  14.304  12.842
49715W        W15195  16.640  42.380   3.272
49716W        W15196  23.138  30.914   1.368
49717W        W15197  22.641  22.631   1.930
49718W        W15198   8.731  36.011   3.267
49719W        W15199  21.161  15.135   0.276
49720W        W15200  28.171  17.667  11.424
49721W        W15201   2.377  19.567   1.731
49722W        W15202   4.820   3.287   2.782
49723W        W15203  26.661  33.061   3.292
49724W        W15204  26.518   0.450   2.858
49725W        W15205   5.407  43.966  14.359
49726W        W15206  16.673  16.196  11.894
49727W        W15207  20.050   5.332   3.799
49728W        W15208  29.998   7.766  14.986
49729W        W15209   2.767  28.164   4.631
49730W        W15210   7.334   9.215   4.262
49731W        W15211  29.070   0.857  11.976
49732W        W15212  27.481   3.256  11.521
49733W        W15213   5.251  26.052   2.328
49734W        W15214   2.734  43.444  11.911
49735W        W15215  40.385  17.735   1.265
49736W        W15216  40.917   7.234   4.703
49737W        W15217  30.999  11.307  14.301
49738W        W15218  38.370  21.718   9.941
49739W        W15219   1.320  13.107  13.914
49740W        W15220  22.611  41.800  14.990
49741W        W15221  25.655  30.605   3.840
49742W        W15222   4.426   9.246   3.825
49743W        W15223  22.086  40.825   2.236
49744W        W15224   4.897   2.744   2.845
49745W        W15225   7.836  26.069   0.472
49746W        W15226  22.699   0.312  12.910
49747W        W15227   8.828  18.736   3.232
49748W        W15228   8.851   4.439   1.807
49749W        W15229  38.998  29.612  12.432
49750W        W15230   5.200   4.381   1.765
49751W        W15231   2.783   6.412  13.461
49752W        W15232   8.355  38.524   3.207
49753W        W15233  27.502  13.290  12.845
49754W        W15234   0.339  40.474   3.831
49755W        W15235  34.488   9.388   1.904
49756W        W15236  21.722   1.268   0.360
49757W        W15237  20.182  18.560  11.093
49758W        W15238  18.092   3.813   1.301
49759W        W15239   2.436  12.281   4.691
49760W        W15240   1.438   9.222   1.812
49761W        W15241  17.775   4.723  11.979
49762W        W15242   5.914  42.867  14.862
49763W        W15243   3.714  41.889   2.714
49764W        W15244  22.161  25.017   3.262
49765W        W15245   1.335  27.006  12.929
49766W        W15246  10.319  10.299  13.986
49767W        W15247  39.982  33.110  11.084
49768W        W15248  36.047  17.216  12.542
49769W        W15249   1.845  17.734  14.387
49770W        W15250  29.642  29.566  14.416
49771W        W15251  33.078  22.551  11.100
49772W        W15252   4.851  20.147  12.965
49773W        W15253  42.998  28.440   0.874
49774W        W15254   0.962   5.257  10.589
49775W        W15255  24.482  37.479  11.375
49776W        W15256  10.667   5.737  10.444
49777W        W15257   8.703  25.171   4.324
49778W        W15258  35.864  10.635  12.406
49779W        W15259  29.044  29.150   0.837
49780W        W15260  20.731  14.649   3.309
49781W        W15261  28.010  38.571   2.671
49782W        W15262   1.290   2.808  10.417
49783W        W15263  30.512  41.002  13.906
49784W        W15264  30.605  26.628  11.444
49785W        W15265  18.084   5.332   2.758
49786W        W15266  43.900  35.897   0.872
49787W        W15267  42.977  36.098  13.525
49788W        W15268  44.440   8.400   4.805
49789W        W15269  41.020  14.181  10.458
49790W        W15270   7.413  24.582   4.200
49791W        W15271  26.669  27.168  13.375
49792W        W15272   1.464  16.635  11.476
49793W        W15273  22.024  34.967   2.890
49794W        W15274  11.360   1.763  13.368
49795W        W15275   2.298  27.960  10.904
49796W        W15276  13.655  17.733   3.867
49797W        W15277   4.318  31.035  12.429
49798W        W15278  25.694  42.015   0.901
49799W        W15279  40.946   2.930   2.183
49800W        W15280  12.186  40.514   2.196
49801W        W15281  20.626  29.552  13.452
49802W        W15282  18.759  41.797   3.188
49803W        W15283  20.618  39.375   0.399
49804W        W15284   2.893  37.456   0.293
49805W        W15285  27.179  16.673   2.310
49806W        W15286  41.954   5.728  11.544
49807W        W15287  21.228  26.576   0.877
49808W        W15288  29.116  10.308  12.827
49809W        W15289  17.721  23.625  12.384
49810W        W15290   3.941  11.712   1.832
49811W        W15291  13.829  27.146  12.367
49812W        W15292  37.948   1.821  14.760
49813W        W15293   9.886   8.324  13.008
49814W        W15294  38.989  13.268  11.539
49815W        W15295  39.345  23.655  13.325
49816W        W15296  11.731  25.052   3.855
49817W        W15297   6.201  34.471  10.606
49818W        W15298  29.115   0.791   2.782
49819W        W15299  25.105  23.178   3.659
49820W        W15300   8.389   9.366   0.868
49821W        W15301  25.058  41.803   5.147
49822W        W15302  25.128  42.018  14.401
49823W        W15303  17.649  35.394  13.874
49824W        W15304  17.136  28.038   1.918
49825W        W15305  21.642  29.587   2.396
49826W        W15306  43.353  42.493   3.653
49827W        W15307   6.687   7.905   1.360
49828W        W15308  35.074  24.167   4.654
49829W        W15309  38.962   2.741  11.382
49830W        W15310  21.562  16.115   0.890
49831W        W15311  42.508  27.582  12.003
49832W        W15312  16.731  19.142  10.932
49833W        W15313  22.123   5.883  12.856
49834W        W15314  41.381  37.363  11.926
49835W        W15315   7.776  31.975  12.037
49836W        W15316   9.767  26.592   4.720
49837W        W15317  35.535  12.325   1.733
49838W        W15318  23.149  17.729   2.274
49839W        W15319  25.652  10.669   4.826
49840W        W15320  32.438  29.139  14.933
49841W        W15321   4.429   3.383   1.868
49842W        W15322  28.555  20.573  13.425
49843W        W15323   0.415   4.838   1.801
49844W        W15324   1.340  18.097  13.308
49845W        W15325  25.041   7.773   0.922
49846W        W15326  30.472  10.763   0.886
49847W        W15327   9.316   3.876  12.504
49848W        W15328  23.664  34.554   2.696
49849W        W15329  14.708  21.681  13.454
49850W        W15330  20.656  31.135  14.334
49851W        W15331  38.420  40.870   3.653
49852W        W15332   0.378  35.864  11.444
49853W        W15333  40.821   3.329  11.588
49854W        W15334  36.036  40.031  11.980
49855W        W15335   7.772  23.699   1.876
49856W        W15336  36.471  22.187  14.488
49857W        W15337  20.151  17.728  11.925
49858W        W15338  41.489  33.091  11.491
49859W        W15339  27.527  12.178  11.502
49860W        W15340  23.696  39.829  14.463
49861W        W15341  29.125  44.936   1.307
49862W        W15342   2.416  15.634   0.287
49863W        W15343   6.398  36.999  11.433
49864W        W15344  40.434  20.566  11.911
49865W        W15345  29.617  38.991  10.412
49866W        W15346  41.945  44.994   3.229
49867W        W15347  32.940  33.072  12.353
49868W        W15348  33.440   9.315  11.500
49869W        W15349  41.803  22.129  11.909
49870W        W15350  15.822  38.882   1.327
49871W        W15351   1.773  22.187  10.446
49872W        W15352   7.737  38.509   3.870
49873W        W15353   2.466  30.985  12.950
49874W        W15354  42.290  32.600   2.407
49875W        W15355  11.148  28.566   0.961
49876W        W15356  21.183  39.357   4.253
49877W        W15357  31.074  19.045   4.287
49878W        W15358  41.034   0.878  13.535
49879W        W15359  25.628  27.472  10.946
49880W        W15360  12.310  34.613  12.916
49881W        W15361  24.702  34.370  14.814
49882W        W15362  13.264  17.761   4.317
49883W        W15363   2.886  44.011  11.067
49884W        W15364  27.014   1.797   1.814
49885W        W15365  17.224  16.190  14.497
49886W        W15366   4.938  43.983  10.094
49887W        W15367   0.919  30.588  10.052
49888W        W15368   7.703  44.418  14.991
49889W        W15369  34.559   0.254   4.699
49890W        W15370  43.811  19.244   0.808
49891W        W15371   3.920   0.370   0.326
49892W        W15372  19.546  15.798   1.291
49893W        W15373  11.862  19.141  12.047
49894W        W15374  29.495  44.930  13.919
49895W        W15375  15.723  25.168   1.404
49896W        W15376  24.205  35.864  11.015
49897W        W15377  35.551  26.994  10.515
49898W        W15378  15.589  36.029  11.000
49899W        W15379   1.365  10.719  10.567
49900W        W15380  29.171  22.626   3.698
49901W        W15381  26.529  20.041  10.630
49902W        W15382  34.004  34.930   4.768
49903W        W15383  43.320  42.482   4.769
49904W        W15384   9.209   1.760  13.946
49905W        W15385  24.212   9.295  11.388
49906W        W15386  14.833  42.893   2.836
49907W        W15387  18.617  10.812   3.706
49908W        W15388  24.585  29.610  14.811
49909W        W15389  15.121  17.271   4.811
49910W        W15390  12.362   5.880   1.889
49911W        W15391  16.785  41.019   3.714
49912W        W15392  16.214  35.950  11.086
49913W        W15393  22.092  34.873   1.735
49914W        W15394  21.515  21.513  11.497
49915W        W15395  43.941  14.678   1.286
49916W        W15396  37.978  14.729  11.091
49917W        W15397  12.161  37.858  13.379
49918W        W15398   4.855  21.752   4.145
49919W        W15399  20.630  20.764  13.800
49920W        W15400   2.469   1.953  12.498
49921W        W15401  21.745  34.536   0.358
49922W        W15402  11.185  42.472  14.990
49923W        W15403  22.719  29.638   2.700
49924W        W15404  15.772   5.261   4.644
49925W        W15405  15.291   7.263  14.029
49926W        W15406  30.515  26.494  13.516
49927W        W15407  20.705  26.049  12.350
49928W        W15408   6.240   8.195   1.378
49929W        W15409   2.439  24.158  13.917
49930W        W15410  16.100  23.638  10.520
49931W        W15411  11.286  13.663   1.834
49932W        W15412   1.771  29.440  11.548
49933W        W15413   8.672  29.428  14.875
49934W        W15414   4.763   3.245   0.766
49935W        W15415  27.030  22.587   1.704
49936W        W15416  13.705  13.181   5.086
49937W        W15417  39.374  44.386   4.239
49938W        W15418  23.668  21.704  12.068
49939W        W15419   9.300  25.647   3.348
49940W        W15420  44.782  21.519   0.867
49941W        W15421   6.783  15.598  14.857
49942W        W15422  10.657  11.728   3.800
49943W        W15423  12.798  29.941   3.708
49944W        W15424  39.350  13.640   4.597
49945W        W15425   8.406   8.212   2.805
49946W        W15426   6.250  31.957  11.451
49947W        W15427   2.250  21.076  12.503
49948W        W15428   5.771  18.664  12.461
49949W        W15429  23.712  22.623  13.341
49950W        W15430   7.409  40.861   4.762
49951W        W15431  35.522  38.901   4.721
49952W        W15432   7.684   3.866  11.064
49953W        W15433  14.108  42.329  11.543
49954W        W15434  14.731  26.697  11.446
49955W        W15435   7.727  15.083   2.259
49956W        W15436  14.190  12.141  13.848
49957W        W15437   0.900  41.833   1.857
49958W        W15438  21.756  36.862   2.367
49959W        W15439   8.183   2.864   0.960
49960W        W15440  40.887  44.366   4.308
49961W        W15441  16.811  35.091  13.897
49962W        W15442  18.551  20.534   0.436
49963W        W15443  25.499  13.691   4.224
49964W        W15444   2.234  42.029   3.668
49965W        W15445   5.362   4.815  11.992
49966W        W15446  44.896  37.348  14.813
49967W        W15447  21.046  13.128  14.424
49968W        W15448  34.902  41.021   4.167
49969W        W15449   4.772  30.645   0.250
49970W        W15450  27.081  23.503  10.611
49971W        W15451  36.040  14.308  10.949
49972W        W15452  17.675   2.234   2.293
49973W        W15453  10.152  21.159  14.994
49974W        W15454  36.432   6.772   4.748
49975W        W15455  38.946  14.604   2.861
49976W        W15456  18.162  22.233  11.527
49977W        W15457  20.559  26.683  11.460
49978W        W15458  32.008  29.491   4.772
49979W        W15459  34.064   4.746   2.859
49980W        W15460  28.042   7.207   2.889
49981W        W15461   1.392  39.522  12.891
49982W        W15462  43.279   3.925  12.049
49983W        W15463  37.368  29.583  10.955
49984W        W15464  21.095   2.726   0.304
49985W        W15465  25.076  17.065   5.170
49986W        W15466   9.653  15.261  11.970
49987W        W15467   6.745  26.023  10.577
49988W        W15468  26.155  25.696  14.284
49989W        W15469  21.573  40.508  13.451
49990W        W15470  12.659  21.517  12.347
49991W        W15471  31.061   3.926   0.764
49992W        W15472  23.001  42.483  11.856
49993W        W15473  18.080  33.992  14.784
49994W        W15474   3.215  36.376  14.862
49995W        W15475   0.396   2.875   1.753
49996W        W15476  44.328  26.063  12.424
49997W        W15477  16.729  10.214  13.036
49998W        W15478   2.872  43.333   4.295
49999W        W15479  34.073  38.830  12.847
50000W        W15480  21.060  23.574   3.859
50001W        W15481  43.872  30.126  10.513
50002W        W15482   0.878   1.827  10.933
50003W        W15483  26.482  30.919  11.503
50004W        W15484   9.233  39.907  12.351
50005W        W15485  25.626   5.258  13.854
50006W        W15486  30.468   8.709   0.940
50007W        W15487   7.191  23.573  12.951
50008W        W15488  41.965  19.201  13.976
50009W        W15489  30.970   1.938   1.438
50010W        W15490   9.268  31.046   1.839
50011W        W15491  18.597  14.694   0.412
50012W        W15492  39.446   7.328   3.853
50013W        W15493   0.780  44.947  14.998
50014W        W15494  12.738   4.345  12.490
50015W        W15495  21.534   3.304   2.779
50016W        W15496   0.283   7.838   1.408
50017W        W15497   0.918  29.965   3.220
50018W        W15498  13.320  37.456  12.939
50019W        W15499  28.079   7.850   4.114
50020W        W15500  13.742  43.475  11.865
50021W        W15501  26.142  30.475   1.268
50022W        W15502  29.003   1.791  12.017
50023W        W15503  34.001  39.910  11.990
50024W        W15504   6.789   0.432   4.766
50025W        W15505   0.912  41.342  13.003
50026W        W15506  37.047  42.346  11.955
50027W        W15507  17.098  12.819   5.150
50028W        W15508  28.121  27.672   2.268
50029W        W15509  19.248  19.619  14.415
50030W        W15510  34.517  43.485   4.260
50031W        W15511   8.202  11.252   0.919
50032W        W15512  20.178  13.132  11.898
50033W        W15513  44.997  34.575   1.752
50034W        W15514  22.158  11.222  14.444
50035W        W15515  11.356   9.693   2.881
50036W        W15516   2.965  23.148   1.339
50037W        W15517  11.774  40.319   0.750
50038W        W15518  29.459  15.166   1.918
50039W        W15519  31.480   2.347  14.459
50040W        W15520  18.728  44.858   1.898
50041W        W15521  20.087  21.158   4.326
50042W        W15522  20.265  29.476  11.875
50043W        W15523  16.698   9.707   2.292
50044W        W15524  38.367  12.632   4.748
50045W        W15525  30.565   6.232   4.693
50046W        W15526   2.268  27.197  14.400
50047W        W15527  35.053   0.961   1.311
50048W        W15528  36.483   6.815   1.743
50049W        W15529  27.063   7.404   2.297
50050W        W15530  22.591  30.084   3.833
50051W        W15531  10.351   8.702   2.665
50052W        W15532  34.878   4.830  14.376
50053W        W15533   8.865  33.504   4.154
50054W        W15534  44.800  13.111   0.276
50055W        W15535  21.732  18.275  11.018
50056W        W15536  32.533   6.406  11.385
50057W        W15537  35.948  17.661   1.288
50058W        W15538  44.988  39.334  10.438
50059W        W15539   0.263  17.294  12.449
50060W        W15540   5.833  33.876   2.323
50061W        W15541  10.809  15.226   0.435
50062W        W15542  33.050  43.919   3.354
50063W        W15543  14.225  18.293   0.883
50064W        W15544  18.617  26.511   3.787
50065W        W15545   7.887  16.265  12.835
50066W        W15546   6.337  26.981  14.392
50067W        W15547   4.769  44.815  11.986
50068W        W15548   4.836  28.500   2.212
50069W        W15549  40.395  36.363  13.539
50070W        W15550  33.492  11.181   0.756
50071W        W15551  18.770  18.789  10.143
50072W        W15552   9.302  17.627   1.935
50073W        W15553  12.138   2.242  10.445
50074W        W15554  33.579  43.987   2.409
50075W        W15555  33.470  39.413   0.880
50076W        W15556  18.559   8.243  14.450
50077W        W15557  28.111  43.309  14.938
50078W        W15558   4.356  38.982   0.944
50079W        W15559  40.951  26.978   0.346
50080W        W15560  34.888  18.106  13.013
50081W        W15561  11.229   5.358  11.902
50082W        W15562   0.963  27.056   4.768
50083W        W15563  36.855  39.438   4.307
50084W        W15564  23.171   5.874  10.472
50085W        W15565  36.963   3.412   2.342
50086W        W15566  41.031   2.387  12.008
50087W        W15567  34.372   0.828   0.251
50088W        W15568  34.000  41.448  10.455
50089W        W15569  39.961  24.018  12.869
50090W        W15570   4.740  41.949  12.470
50091W        W15571  25.159  29.942  14.856
50092W        W15572  37.042  23.005  10.572
50093W        W15573  17.166  35.067   1.335
50094W        W15574   3.384  14.633   3.378
50095W        W15575  18.094   0.369   2.304
50096W        W15576  33.009  24.027  13.507
50097W        W15577   2.881   0.344   3.767
50098W        W15578  43.982  14.754  11.090
50099W        W15579   5.800  36.411  12.890
50100W        W15580   8.283  28.511   1.910
50101W        W15581  24.563  28.072  13.888
50102W        W15582   9.756   5.328   4.217
50103W        W15583  22.157  12.614   1.838
50104W        W15584  40.879  17.276  14.920
50105W        W15585  13.806  43.816   0.371
50106W        W15586  44.829  21.204   0.388
50107W        W15587  22.210  34.432  12.070
50108W        W15588   2.371  31.904  12.931
50109W        W15589  24.652  43.923   1.863
50110W        W15590  11.734  40.344  11.379
50111W        W15591  23.615  16.765   3.678
50112W        W15592  19.061  26.519   3.791
50113W        W15593   1.482  38.984  13.507
50114W        W15594  15.244   5.762   4.349
50115W        W15595  42.428   5.923  14.847
50116W        W15596  19.177  18.683  14.797
50117W        W15597  28.103   3.949  12.549
50118W        W15598  34.878  14.144  12.089
50119W        W15599  10.218   2.241   0.351
50120W        W15600  12.288  19.694  11.954
50121W        W15601  41.943  30.908   1.318
50122W        W15602  25.545  35.391  13.325
50123W        W15603  15.274   5.403   3.714
50124W        W15604  33.476  22.997  12.444
50125W        W15605  19.248  21.697  13.348
50126W        W15606   4.821   9.662   4.123
50127W        W15607  23.621   2.450   4.688
50128W        W15608  39.842  21.749  12.935
50129W        W15609   8.377  20.749   4.304
50130W        W15610  17.728   9.235  12.872
50131W        W15611  31.132  34.477  14.794
50132W        W15612  29.603   5.918  14.428
50133W        W15613  28.107  39.930  13.957
50134W        W15614   7.817  44.842  12.018
50135W        W15615   1.756  18.120  11.966
50136W        W15616  30.947  14.738   4.342
50137W        W15617  11.183  39.529  11.549
50138W        W15618  25.567  24.156   4.642
50139W        W15619   6.880  43.815   3.674
50140W        W15620  40.932  34.042  11.482
50141W        W15621  33.597  42.786   1.306
50142W        W15622  36.951  12.344   3.242
50143W        W15623  12.692  37.076   2.887
50144W        W15624   7.309  24.196  14.337
50145W        W15625  40.924  35.380   0.273
50146W        W15626  20.726   0.853   1.819
50147W        W15627  30.540  17.674  14.278
50148W        W15628   9.220  11.281  11.926
50149W        W15629  15.186  44.405  13.433
50150W        W15630  24.637  29.048   0.786
50151W        W15631  42.301   3.409  12.002
50152W        W15632   7.403  34.977   0.788
50153W        W15633  19.680   9.354   4.671
50154W        W15634  39.031  34.950  13.530
50155W        W15635  44.851  41.506  13.791
50156W        W15636  16.792   3.798  13.838
50157W        W15637  27.135  38.038   1.288
50158W        W15638  19.646  12.746   4.236
50159W        W15639  36.489  41.492  10.090
50160W        W15640  17.063   2.911  12.377
50161W        W15641  13.196  31.591  14.916
50162W        W15642  40.376  39.812   1.338
50163W        W15643  24.159   5.853  12.356
50164W        W15644  21.754  22.524  14.402
50165W        W15645  29.120  26.647  12.075
50166W        W15646  12.127   0.332   4.170
50167W        W15647  41.359   3.273   5.133
50168W        W15648  18.132  26.969   3.834
50169W        W15649  28.009  33.929   1.824
50170W        W15650  38.354   6.851  12.917
50171W        W15651  24.591  29.520   3.285
50172W        W15652  42.867  19.056  14.496
50173W        W15653  40.513  34.987  14.865
50174W        W15654  26.528  23.551  13.836
50175W        W15655  22.607  13.814   3.295
50176W        W15656  36.963  13.783  14.358
50177W        W15657  37.908   4.761  10.044
50178W        W15658  37.035  36.348  13.003
50179W        W15659  42.417  10.336   2.381
50180W        W15660  23.228  17.235  10.555
50181W        W15661  26.085   3.718   1.433
50182W        W15662  18.224  10.755   0.446
50183W        W15663   7.393   0.412   3.308
50184W        W15664   3.436   1.270  13.469
50185W        W15665  11.664  39.527   3.363
50186W        W15666  37.462  33.620   2.270
50187W        W15667  17.176  38.373   1.884
50188W        W15668  30.624  20.256  14.980
50189W        W15669  23.117   9.859   2.288
50190W        W15670  21.686  25.025   1.392
50191W        W15671  34.113  29.495  13.506
50192W        W15672  38.017  10.658   2.676
50193W        W15673  32.974  19.682  13.832
50194W        W15674   5.425  15.735  13.419
50195W        W15675  11.179  36.466  13.439
50196W        W15676  44.905  25.210   4.182
50197W        W15677   6.407  23.537  10.977
50198W        W15678   4.235  23.636  12.430
50199W        W15679  27.621  17.701   4.815
50200W        W15680  28.541   0.422  14.426
50201W        W15681  24.576  19.218   1.436
50202W        W15682  41.027  38.343   1.357
50203W        W15683   0.800  39.532  11.525
50204W        W15684  20.680  39.384  14.024
50205W        W15685  16.241   4.928  11.548
50206W        W15686  16.633  28.586   0.274
50207W        W15687   7.272  14.657   0.314
50208W        W15688  26.466  16.750   3.807
50209W        W15689  33.578  12.806   2.709
50210W        W15690  38.945  17.704  10.578
50211W        W15691  23.143  15.159   1.288
50212W        W15692   5.893  35.975  14.936
50213W        W15693   4.795  35.492   4.311
50214W        W15694   2.364   9.243   3.831
50215W        W15695   2.458   8.687   2.292
50216W        W15696  32.136  37.356   0.401
50217W        W15697  43.934   6.356  11.874
50218W        W15698  20.668   1.862  11.984
50219W        W15699  14.740  18.222   4.294
50220W        W15700  37.930  31.428   2.743
50221W        W15701  19.539  34.912   3.371
50222W        W15702  21.525  33.507   9.923
50223W        W15703  44.934  25.711  14.279
50224W        W15704  16.216  12.221  13.366
50225W        W15705  32.018   6.299   4.189
50226W        W15706  12.119  18.157  12.484
50227W        W15707  25.686  21.091   4.336
50228W        W15708  36.049  22.074   2.704
50229W        W15709  25.468  34.878   3.225
50230W        W15710  28.612  33.047  12.384
50231W        W15711  43.439  44.268  12.555
50232W        W15712   6.303  41.901  14.894
50233W        W15713  27.041  44.443   0.447
50234W        W15714   1.784   3.215  14.968
50235W        W15715  40.427  24.115   3.719
50236W        W15716   9.818  16.181   3.209
50237W        W15717  16.650   0.864   3.793
50238W        W15718  43.001   0.975  11.534
50239W        W15719   9.390  10.642  13.460
50240W        W15720  31.407  16.184  13.416
50241W        W15721  29.448  34.558   1.740
50242W        W15722  41.972   7.228  14.933
50243W        W15723  19.153  10.284  13.875
50244W        W15724  13.739  27.029  14.417
50245W        W15725  24.038  37.848   4.238
50246W        W15726  19.764   0.746  14.884
50247W        W15727  19.585  33.510  12.491
50248W        W15728  29.662  27.027  11.898
50249W        W15729   7.670  44.779  13.333
50250W        W15730  10.871  43.376   4.815
50251W        W15731  31.014   6.744   3.767
50252W        W15732  36.057  11.683  11.577
50253W        W15733  25.499   9.839  14.950
50254W        W15734  38.464   9.723  10.445
50255W        W15735  27.991  41.415  12.406
50256W        W15736  23.723  11.205   3.309
50257W        W15737  23.692   0.854   4.144
50258W        W15738  21.689  16.300   4.144
50259W        W15739  34.594  12.216   0.848
50260W        W15740  13.792  30.996   4.208
50261W        W15741  21.118  20.749  13.901
50262W        W15742  34.873  25.092   0.298
50263W        W15743  27.076  23.000  13.898
50264W        W15744  34.030  17.645   2.901
50265W        W15745   4.297   2.785   2.902
50266W        W15746  36.390  39.432  11.030
50267W        W15747  18.723   2.244   4.767
50268W        W15748  19.108   7.782   5.207
50269W        W15749  29.996  25.994  13.388
50270W        W15750   6.385  29.978  11.092
50271W        W15751  24.086  11.849  12.355
50272W        W15752   0.445  34.569   4.673
50273W        W15753   8.252  25.684   4.736
50274W        W15754  33.028  24.144  12.838
50275W        W15755   8.894  34.496  11.942
50276W        W15756  14.771   5.886   3.384
50277W        W15757  13.188   0.962   4.806
50278W        W15758   6.301   6.687  12.079
50279W        W15759  15.240  24.535  10.925
50280W        W15760  16.745   3.878   1.213
50281W        W15761   2.797  31.542  14.981
50282W        W15762   4.709  21.023  12.929
50283W        W15763  35.424   6.784  11.541
50284W        W15764  28.028   0.916   3.696
50285W        W15765   0.292  17.702  12.451
50286W        W15766  11.185  42.476   4.699
50287W        W15767   4.818  35.559  12.577
50288W        W15768  30.927   5.811  13.052
50289W        W15769   9.725  43.458  11.113
50290W        W15770  35.540  10.300  10.581
50291W        W15771   8.326  20.701   1.908
50292W        W15772  31.405  21.576  12.872
50293W        W15773  17.759  31.424   3.382
50294W        W15774  10.179   1.328   1.840
50295W        W15775  21.163  19.071   4.763
50296W        W15776  34.575  11.788  14.967
50297W        W15777   3.949  42.344   0.304
50298W        W15778  19.767  42.445   2.671
50299W        W15779  18.580  36.355   0.760
50300W        W15780  20.047  18.164   2.799
50301W        W15781  14.737  32.438  10.638
50302W        W15782   2.350  10.243   1.367
50303W        W15783  43.919  27.674   0.352
50304W        W15784   5.726  38.492   4.212
50305W        W15785  15.807  34.929  12.041
50306W        W15786  37.395   3.885  14.276
50307W        W15787  20.067  44.949   1.414
50308W        W15788  14.745  27.488   4.675
50309W        W15789  33.104   5.371   1.860
50310W        W15790  25.106  18.088  10.931
50311W        W15791  28.500  39.442  10.580
50312W        W15792  16.691  39.850   3.303
50313W        W15793  11.281   8.810   2.706
50314W        W15794  10.707  13.745   1.375
50315W        W15795  31.951  30.092   2.841
50316W        W15796  32.631  14.772  10.918
50317W        W15797  34.507  21.192   2.398
50318W        W15798  16.655   1.818  10.601
50319W        W15799  27.671  28.068   1.384
50320W        W15800   3.723   1.934   4.612
50321W        W15801  26.655   6.345  12.443
50322W        W15802   0.280  35.994   4.242
50323W        W15803  27.562  39.042   0.947
50324W        W15804  25.575  31.523   0.780
50325W        W15805  14.835   4.370   1.697
50326W        W15806  25.106  28.519   2.773
50327W        W15807  17.623  40.989  10.409
50328W        W15808   0.986  18.730   4.772
50329W        W15809  43.478  39.490  11.110
50330W        W15810   3.439  34.052   0.955
50331W        W15811  30.937   2.760   1.422
50332W        W15812   0.746   0.937   1.714
50333W        W15813  16.722  34.089  14.803
50334W        W15814  24.075  36.585  12.937
50335W        W15815  17.261  21.105  12.355
50336W        W15816  10.258   5.361   2.184
50337W        W15817   3.803   9.349  12.913
50338W        W15818  18.210  29.585   0.439
50339W        W15819   6.688   1.325  11.448
50340W        W15820  22.248   6.850   5.246
50341W        W15821  25.072   0.947  12.037
50342W        W15822  12.855  17.685   4.723
50343W        W15823  13.715  11.838   2.279
50344W        W15824  15.238  36.045  13.050
50345W        W15825  28.126   0.391   9.949
50346W        W15826  32.926  34.409   2.744
50347W        W15827  13.252  44.338   3.822
50348W        W15828  25.008  10.190  11.418
50349W        W15829  12.803  40.926  12.963
50350W        W15830   9.797  31.998   4.190
50351W        W15831  37.913  37.960   0.884
50352W        W15832  25.686  32.946  10.895
50353W        W15833  12.757  35.517   1.407
50354W        W15834   6.316  21.062   2.251
50355W        W15835   9.779   4.299  14.348
50356W        W15836  15.670  15.319   5.127
50357W        W15837  24.196  17.305  10.145
50358W        W15838   3.865   3.404  14.330
50359W        W15839  16.246  35.053  11.501
50360W        W15840   1.850  34.568   0.766
50361W        W15841  43.354  17.136  13.820
50362W        W15842   0.754  40.899  13.907
50363W        W15843  16.192  44.386  14.835
50364W        W15844  40.815  11.300   4.213
50365W        W15845  10.337  40.852  11.425
50366W        W15846  44.855  34.077   1.713
50367W        W15847  12.834  38.437   3.238
50368W        W15848  30.937  21.155   4.655
50369W        W15849   5.434  30.101   1.896
50370W        W15850  31.630  42.956   5.224
50371W        W15851   4.273  17.760   3.684
50372W        W15852   5.868  37.996   4.351
50373W        W15853  25.190  13.671   2.832
50374W        W15854  10.290  42.856   1.846
50375W        W15855  35.375  43.355  12.363
50376W        W15856  29.151  18.198  12.076
50377W        W15857  19.551  11.740  12.973
50378W        W15858  14.620   5.306   2.850
50379W        W15859  13.125   9.665   2.736
50380W        W15860  26.510  35.052   3.342
50381W        W15861  11.764   9.678  11.052
50382W        W15862  14.167  23.218   4.265
50383W        W15863  13.188  12.128   1.221
50384W        W15864  40.810  34.096   1.344
50385W        W15865  18.712  16.568   0.298
50386W        W15866   3.328  36.849  12.364
50387W        W15867  33.611   5.368  13.821
50388W        W15868  15.319  32.110   1.897
50389W        W15869  17.562  22.744   0.950
50390W        W15870  43.792  44.007   3.169
50391W        W15871  43.402  28.140   4.171
50392W        W15872   1.360  35.028   2.305
50393W        W15873  43.381  12.729  14.340
50394W        W15874  22.665  33.998  11.576
50395W        W15875  15.190  22.045  14.935
50396W        W15876  39.850  12.135  11.099
50397W        W15877  13.779   2.233  10.527
50398W        W15878   0.784   9.356  11.923
50399W        W15879  24.998  10.348   3.312
50400W        W15880  40.965  18.784   2.358
50401W        W15881  11.319  40.541  11.107
50402W        W15882  42.473   6.241   1.885
50403W        W15883  25.507  17.670  12.555
50404W        W15884  38.421  22.188  12.444
50405W        W15885   9.247  32.971  13.361
50406W        W15886  19.254  36.969   0.424
50407W        W15887   6.868  34.435  10.626
50408W        W15888  44.505  20.256   4.624
50409W        W15889  15.736  41.339   1.797
50410W        W15890   3.802  38.402   2.295
50411W        W15891  23.595  33.607  13.989
50412W        W15892  38.445  20.104  11.956
50413W        W15893  34.464  35.102  14.834
50414W        W15894  21.612   3.340   0.263
50415W        W15895   8.752  41.300   2.682
50416W        W15896  21.731  24.214  10.926
50417W        W15897  16.122  15.654   3.776
50418W        W15898  22.095  26.649  14.975
50419W        W15899  26.695  21.199  12.034
50420W        W15900  31.054  32.394   0.365
50421W        W15901   2.868  31.558  13.351
50422W        W15902  22.024  12.708  12.928
50423W        W15903  40.464  34.924  12.984
50424W        W15904  15.219  42.960   1.781
50425W        W15905  43.852   8.784  13.974
50426W        W15906  16.089  29.085  13.486
50427W        W15907  38.855  23.635   0.907
50428W        W15908  27.621  28.929   1.451
50429W        W15909  18.788  16.731   1.723
50430W        W15910  30.034  11.752   4.199
50431W        W15911  17.200  25.526   3.169
50432W        W15912  26.642   9.866   1.238
50433W        W15913   8.714  29.068  12.458
50434W        W15914  22.644   0.471   2.870
50435W        W15915  39.061  15.737   4.610
50436W        W15916  43.982  17.167   0.813
50437W        W15917  14.313  34.530   0.299
50438W        W15918   3.409   1.256   0.356
50439W        W15919  30.536  29.445   2.278
50440W        W15920   0.483  13.712   3.343
50441W        W15921   4.752  16.717  14.279
50442W        W15922   8.322  16.267   2.394
50443W        W15923  37.926  19.634  10.938
50444W        W15924   8.883  24.012  11.602
50445W        W15925   3.891  22.188   2.696
50446W        W15926   6.383  41.400   5.272
50447W        W15927  12.318  29.479   4.699
50448W        W15928   8.191   1.266  12.899
50449W        W15929   7.808  22.124  11.526
50450W        W15930   5.418  43.901   1.264
50451W        W15931   7.258  33.903   2.399
50452W        W15932  35.410  26.068  11.474
50453W        W15933  35.594  31.005   4.263
50454W        W15934  25.962  43.440   0.915
50455W        W15935  42.862  18.093  14.968
50456W        W15936   9.799   0.951   1.223
50457W        W15937   6.340  32.950  11.389
50458W        W15938  24.578  34.384   1.928
50459W        W15939  27.635  13.329   2.289
50460W        W15940  22.062  24.499   4.674
50461W        W15941  33.539  38.509  12.349
50462W        W15942  12.807   8.719   3.663
50463W        W15943  20.623  21.747  11.091
50464W        W15944  36.047  13.199  13.821
50465W        W15945  14.742  21.650   1.220
50466W        W15946  11.209  35.542   0.391
50467W        W15947  21.043  21.580   1.743
50468W        W15948   4.921  32.913   1.751
50469W        W15949  13.806   7.778  12.991
50470W        W15950   7.200  25.659   0.320
50471W        W15951  37.428  15.776   1.397
50472W        W15952  13.144   8.763   0.397
50473W        W15953   1.825  30.499   4.739
50474W        W15954  30.073  16.312   3.174
50475W        W15955  28.067  25.125  10.086
50476W        W15956   9.751  27.659   4.315
50477W        W15957  25.470   3.441  13.037
50478W        W15958  43.952  42.850   4.334
50479W        W15959  42.410  41.788  14.915
50480W        W15960   4.928  26.661   4.131
50481W        W15961  38.973  26.512   4.323
50482W        W15962  38.367  21.537   2.780
50483W        W15963   3.421  43.464   1.709
50484W        W15964  44.457  29.668  12.508
50485W        W15965  10.177  38.519   3.663
50486W        W15966  41.472   6.379   4.690
50487W        W15967  18.551  12.628  13.003
50488W        W15968  43.790   2.354   0.889
50489W        W15969  17.123  28.534   0.365
50490W        W15970  14.761  40.985   9.940
50491W        W15971  21.165  34.039   0.291
50492W        W15972   2.454  41.488   5.276
50493W        W15973   0.480  35.367  11.446
50494W        W15974  28.502   2.352   2.771
50495W        W15975   9.882   6.803  13.917
50496W        W15976  11.798   5.304   3.366
50497W        W15977   8.293  18.101   0.327
50498W        W15978  23.101   2.792   2.868
50499W        W15979  34.545  10.753   2.731
50500W        W15980  25.688  32.885  11.531
50501W        W15981  19.571  16.605   1.702
50502W        W15982  16.676  30.482   4.766
50503W        W15983  27.041  32.498  12.944
50504W        W15984  15.779  40.034   0.823
50505W        W15985  16.081  27.607   3.311
50506W        W15986  23.104   7.758   3.332
50507W        W15987  14.255  18.100  14.343
50508W        W15988   2.896  38.454   2.778
50509W        W15989  24.112  21.227   1.857
50510W        W15990   4.714   0.849   3.216
50511W        W15991  26.514  17.113  11.012
50512W        W15992  18.262  18.082  10.405
50513W        W15993   4.734  19.772   3.260
50514W        W15994   9.762  10.235  13.956
50515W        W15995   3.450  17.693  13.937
50516W        W15996  15.121   3.788  10.410
50517W        W15997  36.425   0.349   0.895
50518W        W15998  29.454  22.089   3.791
50519W        W15999  44.300  18.246   9.974
50520W        W16000   0.900  20.045   2.353
50521W        W16001   2.343   9.334   3.347
50522W        W16002  14.676  44.847  13.377
50523W        W16003  18.682  14.330  14.797
50524W        W16004  38.902   2.396   4.255
50525W        W16005   0.846  25.132   3.806
50526W        W16006  44.438  27.447  14.809
50527W        W16007  18.663  44.298  14.834
50528W        W16008   6.791  24.491  12.868
50529W        W16009   9.150  17.600  14.968
50530W        W16010   3.857  12.701   2.338
50531W        W16011   0.416  20.752   4.771
50532W        W16012  39.983  19.652   0.919
50533W        W16013  35.387  40.983  12.856
50534W        W16014  25.015  18.781  12.002
50535W        W16015   4.206  30.118  12.343
50536W        W16016   9.190  14.277  12.891
50537W        W16017   6.779   1.847   1.437
50538W        W16018  28.092  14.337   0.411
50539W        W16019  33.399  16.769  10.610
50540W        W16020  14.101  43.886   1.890
50541W        W16021  31.032   2.320  12.845
50542W        W16022  25.060  28.024  11.483
50543W        W16023  25.196  39.031  12.466
50544W        W16024  40.958  20.156  11.570
50545W        W16025  43.953  30.601  13.862
50546W        W16026  32.625  27.546   3.339
50547W        W16027  30.042  28.477   1.295
50548W        W16028  14.732  44.766   0.913
50549W        W16029  43.472   1.958   1.295
50550W        W16030   2.456   4.767   3.805
50551W        W16031   9.323  17.196   4.252
50552W        W16032  25.148  16.636  11.579
50553W        W16033  38.546   7.728  12.480
50554W        W16034   2.345   3.746   2.301
50555W        W16035  39.810  26.067  10.576
50556W        W16036  13.725  21.580   4.772
50557W        W16037   6.290  35.912  14.947
50558W        W16038  24.509  32.563  14.897
50559W        W16039   5.748  21.659   1.408
50560W        W16040  14.325  11.832  14.316
50561W        W16041  34.608  28.990   2.753
50562W        W16042  35.893   9.311   3.198
50563W        W16043  37.835   1.884   4.184
50564W        W16044  33.994  21.623  12.381
50565W        W16045   8.766  35.602  11.091
50566W        W16046  23.014  39.508   3.776
50567W        W16047  19.705  44.808   5.260
50568W        W16048   8.664  13.841   3.857
50569W        W16049   8.393   9.243   4.240
50570W        W16050  19.152  41.031  12.913
50571W        W16051  31.580  15.124  11.389
50572W        W16052  12.824  33.925   4.214
50573W        W16053   4.733  24.617   3.200
50574W        W16054  38.022  28.513   3.825
50575W        W16055  24.508  26.660   2.706
50576W        W16056   1.323  28.533  12.036
50577W        W16057  41.406  28.160  10.591
50578W        W16058   4.205  35.536   3.310
50579W        W16059   5.439   7.225   2.788
50580W        W16060  11.711   0.911   5.228
50581W        W16061  40.010  19.535  13.985
50582W        W16062  11.860  32.601   1.918
50583W        W16063  29.435  41.877  11.467
50584W        W16064   9.220  35.978   0.339
50585W        W16065  15.326  31.023   3.810
50586W        W16066  12.696  18.061   1.866
50587W        W16067  28.496  18.738  12.925
50588W        W16068   7.308  20.211  13.801
50589W        W16069   2.347   3.247  10.908
50590W        W16070  35.566   4.276  11.541
50591W        W16071  19.618  18.598   1.748
50592W        W16072  16.698   5.807   4.758
50593W        W16073  21.170  20.568  12.926
50594W        W16074   9.329  18.196  11.013
50595W        W16075  33.623   3.732   1.789
50596W        W16076  16.207  21.231  10.985
50597W        W16077   7.796   8.266  12.350
50598W        W16078  41.433  19.267   1.275
50599W        W16079  41.959  31.150  10.477
50600W        W16080   2.841   9.759  14.831
50601W        W16081  11.265   8.243   1.853
50602W        W16082  20.218  14.783  12.885
50603W        W16083  37.023  25.522   1.257
50604W        W16084  33.877   1.410  10.572
50605W        W16085   2.239  36.395   0.792
50606W        W16086  15.689  21.263  10.936
50607W        W16087   1.755  39.853  13.041
50608W        W16088  44.342  32.520  14.916
50609W        W16089  16.725  35.912   4.144
50610W        W16090  44.758  32.022   4.754
50611W        W16091  26.587   0.286  13.958
50612W        W16092   5.324   8.370   4.703
50613W        W16093  31.533  35.581   3.382
50614W        W16094  10.297   5.715   4.273
50615W        W16095  42.323  18.594  13.368
50616W        W16096   9.163  25.052   1.287
50617W        W16097  20.695  16.647   1.325
50618W        W16098  21.571   8.659   2.884
50619W        W16099   4.868   0.829   2.217
50620W        W16100  12.136  16.695   4.752
50621W        W16101  33.477  24.688  12.883
50622W        W16102  21.027  15.580   4.679
50623W        W16103  27.624  14.153  14.345
50624W        W16104  33.519  18.119  14.279
50625W        W16105  13.759  36.012   2.278
50626W        W16106   2.247   0.751  11.960
50627W        W16107  26.649  31.613   3.737
50628W        W16108  33.388   9.251   2.339
50629W        W16109   0.391  25.705  12.554
50630W        W16110   4.874  29.498   1.228
50631W        W16111  28.156  21.126  14.836
50632W        W16112  14.261  39.558  12.042
50633W        W16113  39.901  37.581  13.817
50634W        W16114  44.438  38.511   1.372
50635W        W16115  26.643  31.952   9.993
50636W        W16116  20.213  33.414  12.571
50637W        W16117  33.058  23.170   3.346
50638W        W16118  25.569  36.370  12.986
50639W        W16119  30.451  41.309   1.278
50640W        W16120  37.442  40.395  10.952
50641W        W16121   9.872  23.727  10.634
50642W        W16122  15.705  29.158   3.240
50643W        W16123   6.342   2.881  11.029
50644W        W16124  25.162   6.312  11.937
50645W        W16125  31.517   2.875  11.577
50646W        W16126  27.477  41.793  10.507
50647W        W16127  17.737   7.247  14.341
50648W        W16128  18.749   7.886   4.832
50649W        W16129  13.214  31.896   3.205
50650W        W16130   5.354  22.136  10.531
50651W        W16131  29.627  17.595   3.208
50652W        W16132  23.212   1.903   0.806
50653W        W16133  15.300   3.933   2.182
50654W        W16134  15.771  24.048   0.372
50655W        W16135  36.890   5.430  13.480
50656W        W16136  23.228  40.860  10.596
50657W        W16137   8.783  15.286  14.879
50658W        W16138  18.058   9.232  11.501
50659W        W16139  28.052  20.544   0.812
50660W        W16140  37.462  19.560  13.810
50661W        W16141  25.605  43.481  14.770
50662W        W16142   9.707  31.936  13.009
50663W        W16143  21.571  25.136   0.312
50664W        W16144  39.389  15.301   3.192
50665W        W16145  21.731  19.188  14.003
50666W        W16146  24.535  26.098  13.826
50667W        W16147  24.094   6.206   2.271
50668W        W16148  36.510  35.882   3.280
50669W        W16149  29.108  23.125  13.064
50670W        W16150  10.832   0.894   3.251
50671W        W16151  34.458  15.752   0.864
50672W        W16152  43.387  27.171  13.821
50673W        W16153  18.202  11.793   4.161
50674W        W16154  32.139   4.250   4.674
50675W        W16155  10.206  36.854   0.828
50676W        W16156  36.067  11.182  10.417
50677W        W16157   5.861  13.778  14.287
50678W        W16158  11.738  12.808  12.913
50679W        W16159  14.204  10.176  12.988
50680W        W16160  44.932  11.696  14.852
50681W        W16161  40.892  39.975  14.818
50682W        W16162  14.106   8.165  12.382
50683W        W16163  20.134   5.847   4.113
50684W        W16164  16.120  26.015  14.858
50685W        W16165  25.157  34.017  13.991
50686W        W16166  30.651   2.251   4.199
50687W        W16167   3.387  32.411   0.941
50688W        W16168  11.685  16.249  10.447
50689W        W16169   0.934  25.559  14.467
50690W        W16170  37.017   7.292  10.926
50691W        W16171  34.413  38.542  12.385
50692W        W16172   8.845   7.237   2.207
50693W        W16173   8.175  13.693  10.963
50694W        W16174  35.403   1.420  13.948
50695W        W16175  42.967  33.097  11.073
50696W        W16176  27.619  19.192  10.561
50697W        W16177   5.358  44.412  10.152
50698W        W16178  42.389   3.723  13.354
50699W        W16179  20.196  40.051   2.242
50700W        W16180  24.642  34.455  13.486
50701W        W16181  10.315  22.556   4.259
50702W        W16182   5.273   0.377  10.962
50703W        W16183   1.944  28.584   1.391
50704W        W16184  27.058  17.268   1.822
50705W        W16185  17.151   5.237  13.913
50706W        W16186  43.928  44.855   1.214
50707W        W16187   5.833  13.704  12.427
50708W        W16188  21.087  26.183   0.850
50709W        W16189  34.076  33.082   1.255
50710W        W16190  28.168  28.615  11.520
50711W        W16191  25.141  40.393  11.106
50712W        W16192   6.768   5.282  11.549
50713W        W16193  21.733   0.794   2.382
50714W        W16194  10.653   3.383  14.810
50715W        W16195   4.293  15.777  11.084
50716W        W16196  20.071  11.647  13.042
50717W        W16197  18.181  24.072  13.311
50718W        W16198   0.889  10.332   0.741
50719W        W16199  33.555  26.673  12.478
50720W        W16200   0.402  27.026   2.662
50721W        W16201  40.437  13.632  11.503
50722W        W16202  41.967  15.651  14.516
50723W        W16203  28.545  12.146  10.564
50724W        W16204   3.752   7.674   0.928
50725W        W16205  36.963   7.221   3.727
50726W        W16206  21.227   5.895   0.435
50727W        W16207  39.922  43.513  13.317
50728W        W16208  32.970   3.931   3.775
50729W        W16209  15.757  23.612   1.797
50730W        W16210  37.369  15.134   2.384
50731W        W16211  21.699  14.278  14.320
50732W        W16212  32.920  15.280   1.289
50733W        W16213  41.897  41.867  10.635
50734W        W16214  41.811  28.670   3.783
50735W        W16215   2.829  23.555  10.507
50736W        W16216  15.303  17.590   4.719
50737W        W16217  28.475  39.957  12.868
50738W        W16218   8.778  36.582  14.393
50739W        W16219  14.757   9.740   1.422
50740W        W16220  15.293  18.095  13.326
50741W        W16221   4.368  43.313  12.946
50742W        W16222  12.163   4.276  11.421
50743W        W16223   1.343   3.860   3.153
50744W        W16224  41.472  17.686  10.976
50745W        W16225  24.982  15.676  15.000
50746W        W16226  23.507  38.055   0.902
50747W        W16227   0.984  23.638  13.958
50748W        W16228  31.035   8.326   0.824
50749W        W16229  24.544  34.414   2.414
50750W        W16230   5.703  21.162  10.464
50751W        W16231  25.680  42.384  12.856
50752W        W16232  43.318  13.769   4.683
50753W        W16233  24.988   1.948   3.269
50754W        W16234  27.499  12.250   4.734
50755W        W16235  17.610  28.022   2.207
50756W        W16236  18.732   7.399   0.367
50757W        W16237   8.666  41.908  12.085
50758W        W16238  44.389  12.759   0.754
50759W        W16239  30.477  15.798  12.427
50760W        W16240  43.447   9.702  13.511
50761W        W16241  19.085  17.798  14.438
50762W        W16242  42.879  20.100  14.786
50763W        W16243  14.180  11.773  11.393
50764W        W16244  35.069   9.668  13.826
50765W        W16245  28.526  14.188   4.143
50766W        W16246  34.997  27.104  14.368
50767W        W16247  43.511  35.568  13.450
50768W        W16248  31.507  35.940  14.433
50769W        W16249  16.573  26.519   3.807
50770W        W16250  25.142  29.962  13.869
50771W        W16251  11.780  15.604  10.134
50772W        W16252  37.397  34.118   0.758
50773W        W16253  12.120   8.324   1.436
50774W        W16254  23.081  15.192  14.414
50775W        W16255  37.384   2.832  10.445
50776W        W16256  11.868  21.567  14.805
50777W        W16257  34.546  41.536   2.367
50778W        W16258  17.713  24.034  10.100
50779W        W16259  33.570   0.921   2.858
50780W        W16260  38.015  27.489   3.689
50781W        W16261   1.878  11.166  14.961
50782W        W16262  32.959  43.984  12.062
50783W        W16263  37.541  16.246   4.775
50784W        W16264   5.928  40.871   4.730
50785W        W16265   9.173  14.240   3.260
50786W        W16266  37.542  22.083  11.582
50787W        W16267   3.790  37.387   0.339
50788W        W16268  16.143  27.161  13.415
50789W        W16269  28.594   5.877   3.234
50790W        W16270  43.866  43.019  11.027
50791W        W16271  42.464   1.733  12.420
50792W        W16272   7.377  38.467   4.722
50793W        W16273  42.792  36.413   1.441
50794W        W16274  36.496  39.511   1.756
50795W        W16275  32.527   9.182  13.501
50796W        W16276  19.171   7.787   1.305
50797W        W16277  19.600   9.802  14.305
50798W        W16278  30.081   5.358  12.084
50799W        W16279   8.880  29.949   4.167
50800W        W16280  14.740  30.162   3.772
50801W        W16281  17.247  17.243  13.479
50802W        W16282  39.020   2.417  12.838
50803W        W16283  30.025  22.249   3.829
50804W        W16284  12.679  33.577  13.029
50805W        W16285  30.659   4.924  10.445
50806W        W16286   1.320   2.403  14.304
50807W        W16287  19.775   7.877  10.964
50808W        W16288  41.445  10.640  14.426
50809W        W16289  32.053   6.187  10.585
50810W        W16290  39.855  11.825  14.821
50811W        W16291  42.805  17.800   4.765
50812W        W16292  20.584  22.233  11.495
50813W        W16293  34.939   6.794   2.889
50814W        W16294   0.461   7.416   4.224
50815W        W16295  20.256  28.973  11.399
50816W        W16296  41.364   6.680   2.259
50817W        W16297  18.215  24.014   4.697
50818W        W16298  30.916   3.359  12.937
50819W        W16299  20.546  41.305   3.378
50820W        W16300   5.892   2.283  12.946
50821W        W16301  10.259  13.120   4.218
50822W        W16302  22.573  26.169   1.928
50823W        W16303  26.593   2.937  10.437
50824W        W16304  25.586  35.890   9.922
50825W        W16305  39.988   7.213  11.965
50826W        W16306  30.988  10.144   2.780
50827W        W16307  39.509  33.411   4.217
50828W        W16308  28.456   9.154   3.826
50829W        W16309  44.479   5.328  11.000
50830W        W16310  36.441  27.549  12.916
50831W        W16311  13.819  40.936   0.418
50832W        W16312  11.638   3.369  10.972
50833W        W16313  44.276   5.821   1.269
50834W        W16314  31.408  36.579  13.454
50835W        W16315  21.544   8.312  13.828
50836W        W16316   3.843   7.670  14.799
50837W        W16317  14.320  15.130  13.047
50838W        W16318  27.131  28.038  12.556
50839W        W16319  25.602  26.511   0.762
50840W        W16320  23.197   7.851  12.940
50841W        W16321   5.772  43.373  14.800
50842W        W16322  36.502  34.067   4.673
50843W        W16323  30.449   0.365   3.235
50844W        W16324  28.053  44.397  12.895
50845W        W16325  41.867  22.501   5.192
50846W        W16326  34.110   8.709  11.560
50847W        W16327  23.223  40.029  14.895
50848W        W16328  12.267  29.174   1.857
50849W        W16329  34.942   4.330  13.050
50850W        W16330  40.913  32.437   4.117
50851W        W16331  34.380   7.288   2.334
50852W        W16332  22.227  42.995  14.007
50853W        W16333  36.973   2.402   4.835
50854W        W16334  20.619  21.045  11.025
50855W        W16335  33.105  20.042  10.545
50856W        W16336  26.138   2.951   1.449
50857W        W16337  10.801  28.039  14.328
50858W        W16338  16.184  25.107  11.421
50859W        W16339   3.314  30.424  12.028
50860W        W16340  31.414  38.870   2.731
50861W        W16341   3.874   7.216  14.985
50862W        W16342  18.270  21.149  11.961
50863W        W16343  10.281  42.389  12.909
50864W        W16344  24.034  43.853   3.709
50865W        W16345  35.954  13.664  12.519
50866W        W16346  40.538  33.599   2.871
50867W        W16347  42.792  13.830  12.057
50868W        W16348  28.595  29.094   4.707
50869W        W16349  36.458  18.586  10.070
50870W        W16350  32.451  24.036   2.220
50871W        W16351  33.405  11.155  10.489
50872W        W16352  20.129  10.823  13.850
50873W        W16353  23.699  39.539  14.946
50874W        W16354  18.680  24.496  10.595
50875W        W16355  31.546   9.172  12.436
50876W        W16356  30.586  39.326   0.952
50877W        W16357  22.642  13.751  12.082
50878W        W16358  15.133  21.070  11.529
50879W        W16359   1.845  31.927   3.225
50880W        W16360   0.396  11.687  13.866
50881W        W16361  20.522  13.330  12.394
50882W        W16362  43.012  22.037  13.374
50883W        W16363  27.644  36.426  13.842
50884W        W16364  16.212  24.203   1.430
50885W        W16365   9.748   7.716   0.451
50886W        W16366  11.189  20.628  13.480
50887W        W16367  15.818  13.200  11.538
50888W        W16368  35.056  32.034  10.052
50889W        W16369  19.038  18.285  11.916
50890W        W16370  15.307  28.076   2.316
50891W        W16371   8.255   3.902   2.690
50892W        W16372  36.093  12.751  11.422
50893W        W16373  25.642   2.786   1.793
50894W        W16374  38.346   0.347  13.308
50895W        W16375  13.205  41.525   4.636
50896W        W16376  10.293  22.724  11.925
50897W        W16377  32.466   2.411  14.391
50898W        W16378   8.405  44.794   3.669
50899W        W16379   6.724  14.102  14.785
50900W        W16380  10.753  32.973   0.411
50901W        W16381  25.120   2.764  11.861
50902W        W16382  26.174   9.650   2.901
50903W        W16383   4.321  43.377   0.436
50904W        W16384  36.550  16.226  10.581
50905W        W16385  41.789   2.967   2.282
50906W        W16386  41.479  10.278   2.701
50907W        W16387  26.975  27.180  11.430
50908W        W16388  20.599  36.847  11.523
50909W        W16389  10.151  22.022   0.344
50910W        W16390  10.192  13.186   4.675
50911W        W16391  33.992  34.458   1.237
50912W        W16392  22.713   3.232  10.012
50913W        W16393  41.347  24.139   1.268
50914W        W16394  11.205  31.916   2.365
50915W        W16395  15.633  37.001  13.957
50916W        W16396   0.356  21.215  14.011
50917W        W16397   8.738   2.378   4.207
50918W        W16398  20.573  25.653   2.208
50919W        W16399  34.439  13.797   0.842
50920W        W16400  42.893  11.373   2.760
50921W        W16401  36.851  28.509  13.804
50922W        W16402   9.303  14.262   3.847
50923W        W16403  28.114  26.637  12.442
50924W        W16404  30.947  25.549  14.823
50925W        W16405  29.094  29.423  10.919
50926W        W16406  30.606  11.837   1.285
50927W        W16407  20.269  40.044   0.868
50928W        W16408  11.140  11.180   3.340
50929W        W16409  11.200  33.386  12.396
50930W        W16410  43.395   8.194  14.831
50931W        W16411  32.611  14.150   4.766
50932W        W16412  12.776  24.113   4.329
50933W        W16413  38.357  14.254   3.745
50934W        W16414   6.728  34.498   2.671
50935W        W16415  28.450  16.291   4.820
50936W        W16416  44.423  14.133   3.637
50937W        W16417  18.157  33.887  13.407
50938W        W16418  24.025  15.610  10.960
50939W        W16419   4.428  41.398   4.789
50940W        W16420  29.663   8.720  14.021
50941W        W16421  39.486  31.938   2.820
50942W        W16422  24.098  43.894   1.794
50943W        W16423  36.495  24.489   2.898
50944W        W16424   8.198  14.340   4.741
50945W        W16425   4.845  31.938  13.431
50946W        W16426  19.098  38.416   3.382
50947W        W16427   6.212  25.488   4.737
50948W        W16428  39.546  12.148   0.900
50949W        W16429  30.635  24.201  14.421
50950W        W16430  42.471  15.091  11.022
50951W        W16431  30.950  16.812  14.795
50952W        W16432   7.831  11.718   0.290
50953W        W16433  29.162  22.033   0.906
50954W        W16434  16.570  39.850  12.084
50955W        W16435  44.486  11.821   1.225
50956W        W16436  34.509  14.631  13.020
50957W        W16437   5.272   2.300  13.965
50958W        W16438  28.658   3.772  10.929
50959W        W16439  38.934  44.946  10.949
50960W        W16440  37.452   2.459   2.269
50961W        W16441  35.097  38.935   4.741
50962W        W16442  10.204  40.987  10.620
50963W        W16443   9.369   4.252  13.883
50964W        W16444  33.905   6.718  10.497
50965W        W16445  43.369   5.324  14.301
50966W        W16446  36.015   4.805  13.852
50967W        W16447   2.257  34.473  14.288
50968W        W16448  15.269  26.176  11.074
50969W        W16449  17.777  32.521   3.791
50970W        W16450   1.931  24.112  11.505
50971W        W16451  29.030  26.487   5.270
50972W        W16452  43.487  29.174  13.492
50973W        W16453  14.131  39.907   4.132
50974W        W16454  13.828  41.826  10.949
50975W        W16455  35.493  15.778   3.712
50976W        W16456  33.544  36.036   5.146
50977W        W16457   8.371  37.938   0.808
50978W        W16458  15.626  38.441   3.332
50979W        W16459  25.118   0.373  11.879
50980W        W16460  37.335  32.407   5.200
50981W        W16461  30.482  15.166  12.458
50982W        W16462   5.281  38.357   0.899
50983W        W16463  28.098  44.895  14.828
50984W        W16464  20.653  36.887   1.885
50985W        W16465  38.900  14.217   2.247
50986W        W16466  32.016  24.625  10.964
50987W        W16467  25.183  18.228  14.921
50988W        W16468  16.670  15.784   1.284
50989W        W16469   5.433  35.060  12.404
50990W        W16470  15.235  31.074   4.837
50991W        W16471  12.849   6.381  11.437
50992W        W16472   8.337  16.702   0.350
50993W        W16473  19.556  42.401  13.435
50994W        W16474  14.664  25.594  12.088
50995W        W16475  40.474  30.504   3.781
50996W        W16476  34.091  30.653   3.365
50997W        W16477  29.582   1.385   4.297
50998W        W16478  10.802  23.192  12.870
50999W        W16479  30.984  14.790  11.409
51000W        W16480  11.128  21.757  12.003
51001W        W16481  26.070  28.581  11.911
51002W        W16482   5.868   7.312  13.366
51003W        W16483   3.812  19.253   4.228
51004W        W16484   2.826  24.172   2.184
51005W        W16485  23.089  29.156  11.045
51006W        W16486  35.090  15.686  14.798
51007W        W16487  16.710  24.515   1.786
51008W        W16488   0.255  12.680   1.226
51009W        W16489  29.168   5.247   3.770
51010W        W16490  30.482  23.536   3.721
51011W        W16491  19.278  42.023  13.349
51012W        W16492  34.545  28.485  11.456
51013W        W16493  42.487   7.680  14.937
51014W        W16494  22.548  19.152   1.315
51015W        W16495   4.249  19.752   4.717
51016W        W16496  36.512  13.640   1.896
51017W        W16497  29.044  28.944   3.698
51018W        W16498  17.207  32.136  11.944
51019W        W16499  11.671   4.850   0.745
51020W        W16500  32.504  12.292  13.449
51021W        W16501  26.646   4.924   4.276
51022W        W16502   2.866  20.034  14.921
51023W        W16503   2.805  20.065  12.364
51024W        W16504  13.613  40.986  13.386
51025W        W16505  26.596   5.312  11.050
51026W        W16506  18.675  40.853  12.342
51027W        W16507  40.496  36.097  10.419
51028W        W16508  23.166  24.102   2.756
51029W        W16509  24.642  24.209   0.381
51030W        W16510  20.230  33.064   4.754
51031W        W16511  33.998  17.625  11.444
51032W        W16512  16.204   3.273  14.434
51033W        W16513  32.480  31.064   2.413
51034W        W16514  12.115   1.461  13.536
51035W        W16515  23.191  27.152   4.716
51036W        W16516  38.460  36.912  11.489
51037W        W16517  37.841   1.881  13.358
51038W        W16518  31.639  30.624  13.810
51039W        W16519  40.806  37.507   4.189
51040W        W16520   3.329  22.623   0.936
51041W        W16521  30.597  14.820   1.334
51042W        W16522  27.015  19.223  11.065
51043W        W16523  10.339   0.919  11.116
51044W        W16524  13.232  14.628   1.720
51045W        W16525  32.980   7.398  13.000
51046W        W16526  29.440  35.396   0.927
51047W        W16527  14.165  21.719   3.283
51048W        W16528  13.734  21.100   1.834
51049W        W16529  18.068  33.958   1.913
51050W        W16530  31.108  40.842   1.222
51051W        W16531  31.112  42.479   0.815
51052W        W16532   5.759   1.426   4.173
51053W        W16533  19.172  36.347  12.093
51054W        W16534  33.525  32.930  13.893
51055W        W16535  41.314   4.932   4.599
51056W        W16536  17.175  39.362  11.970
51057W        W16537  16.704  38.951   3.235
51058W        W16538   1.904  31.896   2.260
51059W        W16539   6.425  10.367  13.941
51060W        W16540  22.250  20.666  10.892
51061W        W16541  16.750  30.651  10.500
51062W        W16542  24.553  19.706   4.819
51063W        W16543   1.867  12.776  12.408
51064W        W16544  27.620  39.328  12.409
51065W        W16545  34.564  16.613   1.900
51066W        W16546   8.170   7.885   2.892
51067W        W16547  20.642  41.468  11.952
51068W        W16548  35.045  23.190  12.421
51069W        W16549  22.120  11.671   3.650
51070W        W16550  25.135  34.479  12.069
51071W        W16551  26.004  42.345   4.661
51072W        W16552  15.810  23.689   4.206
51073W        W16553  44.397  29.168  12.076
51074W        W16554  11.864  30.434  13.815
51075W        W16555  38.063  16.655  12.858
51076W        W16556  26.579  18.173   5.215
51077W        W16557  32.571  11.196   3.223
51078W        W16558  24.600  34.023   2.881
51079W        W16559   5.355  16.304  10.440
51080W        W16560  25.054   5.196   1.908
51081W        W16561  41.845  34.918  10.017
51082W        W16562  12.801  29.643  11.543
51083W        W16563  34.377  33.925   3.206
51084W        W16564  41.985  16.702  14.990
51085W        W16565  17.788  11.719   2.214
51086W        W16566  36.921   6.701  14.440
51087W        W16567  21.638   6.269   4.188
51088W        W16568  30.915  43.804  11.974
51089W        W16569  44.921  13.836  14.942
51090W        W16570   7.295  22.515   4.336
51091W        W16571   7.326  38.053  10.639
51092W        W16572   0.477  23.186  14.810
51093W        W16573  13.602  29.549   4.679
51094W        W16574   8.331  44.394   3.315
51095W        W16575  19.278   5.236   1.799
51096W        W16576   0.786  25.703   0.453
51097W        W16577  34.076  34.936   4.306
51098W        W16578  15.780   0.260   1.432
51099W        W16579  31.530  14.698  10.511
51100W        W16580  24.613  25.480  13.424
51101W        W16581   9.321  23.569   2.287
51102W        W16582   6.223  35.936   3.795
51103W        W16583  18.784  15.093  12.978
51104W        W16584  43.464  44.898  14.811
51105W        W16585  21.028  29.148   2.698
51106W        W16586  11.850  26.510  13.539
51107W        W16587   5.331  26.206  11.963
51108W        W16588   8.775  16.795   3.808
51109W        W16589  33.527  16.766  12.033
51110W        W16590  12.300   7.367   4.216
51111W        W16591  33.606   7.903  14.479
51112W        W16592   1.741  19.547  14.405
51113W        W16593  29.984  40.855   1.247
51114W        W16594  42.380  19.161   0.929
51115W        W16595   9.267   6.704  11.881
51116W        W16596  28.180  17.254  14.846
51117W        W16597  18.222   8.197   2.349
51118W        W16598  42.420  16.301  12.924
51119W        W16599  38.388  11.626   0.911
51120W        W16600  18.625  33.472   1.786
51121W        W16601   8.344  33.016   1.445
51122W        W16602  25.024  41.461   1.873
51123W        W16603   2.470  28.065   3.149
51124W        W16604   3.793   0.935   4.701
51125W        W16605  43.450   5.393   2.253
51126W        W16606  26.028  42.843  10.595
51127W        W16607  38.458  18.085   1.899
51128W        W16608   9.277  42.502  12.364
51129W        W16609  32.947   7.286   2.863
51130W        W16610  27.538  35.991   0.364
51131W        W16611  41.521  21.726  11.985
51132W        W16612   8.188   7.727  14.934
51133W        W16613   5.336  42.910   1.862
51134W        W16614   7.769  25.012   3.327
51135W        W16615  21.240  14.222   2.207
51136W        W16616  34.516   8.755   4.679
51137W        W16617  35.362  15.670  14.912
51138W        W16618   5.736  11.261  10.525
51139W        W16619  22.631  36.527   2.380
51140W        W16620  31.934  30.123  11.525
51141W        W16621  38.876   8.351  12.532
51142W        W16622  34.377  24.681  12.505
51143W        W16623  41.931  25.121  14.784
51144W        W16624  33.482  17.094  14.315
51145W        W16625  15.106  10.304   1.730
51146W        W16626  16.119  17.611  14.462
51147W        W16627  27.682  11.221  11.497
51148W        W16628  30.127  43.365  11.926
51149W        W16629  20.199  44.815   2.292
51150W        W16630  20.129  41.973  11.077
51151W        W16631  30.620  29.037   0.909
51152W        W16632   2.857  35.573  10.487
51153W        W16633   6.372  12.141   1.228
51154W        W16634  42.482   3.314   0.282
51155W        W16635  33.106  25.703   2.854
51156W        W16636  22.213  42.995   3.686
51157W        W16637  11.219   9.660  12.900
51158W        W16638  18.218  41.804  11.105
51159W        W16639  12.730  30.912   2.680
51160W        W16640  13.692   0.405   1.729
51161W        W16641  14.119  28.530  14.029
51162W        W16642  23.631  17.615  14.839
51163W        W16643   3.439  23.575  12.390
51164W        W16644  19.543  14.157   2.231
51165W        W16645  30.652  44.477  13.385
51166W        W16646  38.518  25.598   2.842
51167W        W16647  39.416   8.293   4.175
51168W        W16648  12.740   9.705   3.260
51169W        W16649  10.282   9.882  11.387
51170W        W16650   7.902  16.108  11.896
51171W        W16651   5.366  18.089  13.927
51172W        W16652   0.458  16.178   4.637
51173W        W16653   7.268   5.276   1.757
51174W        W16654  30.427  14.621   2.710
51175W        W16655   5.300  33.597  14.024
51176W        W16656  35.596  24.070  12.565
51177W        W16657  28.131  20.662  13.327
51178W        W16658  23.223  37.550   0.908
51179W        W16659   1.274  16.110   3.794
51180W        W16660  10.847  30.579   3.779
51181W        W16661  36.519  11.220  13.915
51182W        W16662   7.677  22.095   2.296
51183W        W16663   8.238  44.402  14.378
51184W        W16664  39.318   5.784   4.332
51185W        W16665  14.808  11.182   4.284
51186W        W16666  44.878  19.623  11.898
51187W        W16667  41.367  37.060   1.310
51188W        W16668  31.581   8.387  11.589
51189W        W16669  31.923   6.710   2.291
51190W        W16670  19.771   9.229   1.819
51191W        W16671  15.720  33.533  12.433
51192W        W16672  10.257  34.463  14.941
51193W        W16673  25.986   5.233  11.051
51194W        W16674  18.058  42.296   0.942
51195W        W16675  39.372  30.131   4.306
51196W        W16676  14.687  30.589  13.833
51197W        W16677  42.500   4.285   0.927
51198W        W16678  32.504   0.935  11.515
51199W        W16679  19.669   7.892   3.852
51200W        W16680   0.900  30.562  13.439
51201W        W16681  14.208  18.131   4.622
51202W        W16682  11.150  31.430  11.954
51203W        W16683  32.525   2.740  13.990
51204W        W16684  40.428  42.968   3.644
51205W        W16685  41.296   3.219   4.316
51206W        W16686  25.026  19.117   2.759
51207W        W16687  32.962  14.687  13.041
51208W        W16688   0.434  43.392   3.372
51209W        W16689  34.602  28.542  12.023
51210W        W16690  21.642  11.625   1.702
51211W        W16691  32.044  16.306  11.925
51212W        W16692  22.162  14.181  14.910
51213W        W16693  17.618  19.562   4.265
51214W        W16694   9.823  36.582  13.479
51215W        W16695  17.719  16.697  14.358
51216W        W16696   6.726  18.055  13.837
51217W        W16697   2.739  14.814   1.749
51218W        W16698  16.640  31.941  13.055
51219W        W16699   8.840   8.820  12.041
51220W        W16700  26.684  14.269   3.811
51221W        W16701  34.922   8.796  13.325
51222W        W16702  32.570   4.870  11.068
51223W        W16703  20.522  28.065  13.866
51224W        W16704  42.780   0.745  14.383
51225W        W16705  26.951   2.893  13.932
51226W        W16706  13.218   5.399   1.259
51227W        W16707   1.783   9.840  14.516
51228W        W16708  31.132  12.160   4.298
51229W        W16709  31.533   6.877   0.335
51230W        W16710   0.298  21.661   3.373
51231W        W16711  26.596  25.006  10.573
51232W        W16712  13.771   0.832  13.950
51233W        W16713  30.994  41.882   2.221
51234W        W16714  11.639  16.151   1.258
51235W        W16715   7.890  18.729   3.641
51236W        W16716  30.040  28.122  12.855
51237W        W16717  43.465  21.686  12.933
51238W        W16718  20.087  12.774   3.194
51239W        W16719  21.635  43.493   3.368
51240W        W16720   0.743  39.829  10.028
51241W        W16721  24.524  33.070  14.277
51242W        W16722  27.564  17.140   3.755
51243W        W16723  32.624  27.107  11.416
51244W        W16724  41.308   5.852   4.721
51245W        W16725   6.284   4.318   4.259
51246W        W16726   5.898   9.367  10.525
51247W        W16727  29.579  24.617  14.284
51248W        W16728  40.801  13.757   0.256
51249W        W16729  43.478  20.256   4.652
51250W        W16730  42.352  34.593  11.110
51251W        W16731  31.426   5.705   0.934
51252W        W16732   4.935  26.977  14.473
51253W        W16733  34.919  21.253   2.709
51254W        W16734  38.050  30.952   3.754
51255W        W16735   9.822  42.909   3.349
51256W        W16736   9.726  40.360   3.318
51257W        W16737  12.784   5.303   4.626
51258W        W16738  35.903  15.223  11.539
51259W        W16739   9.682  24.508   4.161
51260W        W16740  24.211  32.490   4.343
51261W        W16741  40.000  15.221   1.396
51262W        W16742  40.041  35.955   4.703
51263W        W16743  11.781  16.676   0.361
51264W        W16744   5.690  36.862   2.369
51265W        W16745   4.713   3.867   4.149
51266W        W16746  17.608  23.572   4.742
51267W        W16747  16.740  15.092  11.605
51268W        W16748  36.049  22.049  14.402
51269W        W16749  10.723  10.727   0.409
51270W        W16750  31.445  26.646  13.961
51271W        W16751  29.106  38.335  13.869
51272W        W16752  14.218  38.910  10.417
51273W        W16753  36.022  38.878  11.589
51274W        W16754  32.524  42.855   0.276
51275W        W16755  32.979   3.340   1.790
51276W        W16756  13.237  41.986  12.935
51277W        W16757  11.688  41.998   0.936
51278W        W16758  12.803  14.725   1.393
51279W        W16759  39.375  41.362   2.750
51280W        W16760  44.776  22.504  11.962
51281W        W16761  25.708  11.717  14.301
51282W        W16762  17.287  21.661  12.573
51283W        W16763  40.987  44.862  13.983
51284W        W16764  30.151   5.756   1.756
51285W        W16765  10.803  25.506   4.731
51286W        W16766  12.322   1.377   2.295
51287W        W16767  36.395   6.266  14.032
51288W        W16768  29.461  36.907  12.877
51289W        W16769  40.465  31.098  11.099
51290W        W16770   3.741  14.595   2.730
51291W        W16771  17.656   0.809   3.822
51292W        W16772  38.926  39.447  12.014
51293W        W16773  24.551  29.142   3.696
51294W        W16774  40.016  29.529  14.761
51295W        W16775  18.096  42.399   4.667
51296W        W16776  32.599  26.570   4.276
51297W        W16777  40.499  31.997  10.595
51298W        W16778  34.402  22.558  13.886
51299W        W16779  41.481   8.866  13.965
51300W        W16780  33.906  30.443   3.729
51301W        W16781  26.064  30.059   4.613
51302W        W16782  43.500   6.229   1.310
51303W        W16783  26.560  44.274  14.921
51304W        W16784  13.784   7.184  13.338
51305W        W16785  12.174  10.352   2.788
51306W        W16786  15.685  25.686  13.458
51307W        W16787  18.182  16.205   1.371
51308W        W16788  27.105  41.031   1.915
51309W        W16789  38.548   1.752   1.874
51310W        W16790  35.982  21.221   4.736
51311W        W16791  41.896  22.529   1.367
51312W        W16792  13.804  14.206  13.008
51313W        W16793  34.905  24.622   2.851
51314W        W16794  34.537  35.099  11.574
51315W        W16795  14.592   6.822   3.178
51316W        W16796  34.883  32.626  13.827
51317W        W16797  28.041  28.572   4.205
51318W        W16798  15.101  23.542  10.996
51319W        W16799  38.462  13.213  12.391
51320W        W16800  34.118  31.528   0.818
51321W        W16801   9.713  43.021  10.431
51322W        W16802   1.346   5.756  14.432
51323W        W16803  38.922  38.973   1.747
51324W        W16804  26.642   7.346   4.143
51325W        W16805  29.925  19.574  12.095
51326W        W16806  38.931   4.419  10.559
51327W        W16807  20.180   3.427   3.856
51328W        W16808   6.330  33.448  14.512
51329W        W16809  13.629  43.297  13.016
51330W        W16810  43.404   4.218  13.056
51331W        W16811  18.785  14.165  12.561
51332W        W16812  33.994  10.319  11.922
51333W        W16813   2.386  27.024   0.793
51334W        W16814  35.045  21.627   3.221
51335W        W16815  35.004  34.902  14.758
51336W        W16816  33.440   9.879  13.394
51337W        W16817  10.642  10.298   4.783
51338W        W16818  33.006  42.376  13.455
51339W        W16819   9.165  37.049  12.877
51340W        W16820  20.641   6.743   4.698
51341W        W16821   4.291  18.581   2.382
51342W        W16822  30.616  23.095   0.854
51343W        W16823  44.813  10.694  12.377
51344W        W16824   4.819  25.492   3.698
51345W        W16825  17.227   3.871   1.747
51346W        W16826  31.425  16.721   1.697
51347W        W16827  14.709  40.917  14.327
51348W        W16828  42.437  10.189   0.437
51349W        W16829  19.260   3.824   3.277
51350W        W16830  41.385   3.423   4.811
51351W        W16831  15.217   5.253   1.889
51352W        W16832   7.335  21.515   1.241
51353W        W16833   1.882  21.259  13.450
51354W        W16834  14.812  28.948  10.494
51355W        W16835   1.387   7.265  10.622
51356W        W16836  40.537  42.439  10.457
51357W        W16837   5.805   6.192   2.850
51358W        W16838  23.153   0.298   4.344
51359W        W16839  11.184  39.404   2.272
51360W        W16840  43.885  22.151  10.975
51361W        W16841  28.678  15.655   4.635
51362W        W16842  10.843  39.853  13.330
51363W        W16843  12.164  16.779   1.210
51364W        W16844  37.434  33.900  10.993
51365W        W16845  19.696  11.221  12.398
51366W        W16846   6.189  36.019   4.279
51367W        W16847  38.479  14.709   4.203
51368W        W16848  30.508  20.161  11.507
51369W        W16849  18.577   6.830   4.162
51370W        W16850  32.490  14.748  12.481
51371W        W16851  22.249  40.973  14.461
51372W        W16852  13.754  27.582   0.415
51373W        W16853  28.952  19.583  11.990
51374W        W16854  28.510  20.640  14.779
51375W        W16855  33.471  23.643  14.503
51376W        W16856  27.946  22.539   2.324
51377W        W16857   4.253  31.648   2.301
51378W        W16858  27.025  35.555  12.398
51379W        W16859   2.820  25.493   3.695
51380W        W16860  22.689  37.533   9.997
51381W        W16861  15.635  22.721  14.887
51382W        W16862   7.896  17.183   4.190
51383W        W16863  38.844  22.168   3.304
51384W        W16864  14.206  25.048  10.619
51385W        W16865  24.013   2.921  12.416
51386W        W16866  32.067  42.358  11.601
51387W        W16867   3.909   0.277  11.014
51388W        W16868  26.085  36.529   3.649
51389W        W16869   6.315  17.680  11.900
51390W        W16870  38.555  30.419   0.370
51391W        W16871   1.915  40.880   1.326
51392W        W16872  30.519  43.405  10.416
51393W        W16873  41.851   3.716   3.639
51394W        W16874  21.218  20.113   0.815
51395W        W16875  31.624  13.817  12.839
51396W        W16876  20.115  35.985   4.217
51397W        W16877  14.821  20.187   2.733
51398W        W16878  23.654  34.443  14.934
51399W        W16879   5.240   7.858   4.718
51400W        W16880  13.754  15.700  11.483
51401W        W16881  30.918  23.212  14.003
51402W        W16882  26.191   9.165  12.861
51403W        W16883  17.778  28.035  10.518
51404W        W16884  36.569  33.507  12.546
51405W        W16885  11.214   8.853   2.286
51406W        W16886  35.576   0.923  10.584
51407W        W16887  26.548   5.828  10.474
51408W        W16888   2.768  43.011   3.662
51409W        W16889  41.302  22.996   4.321
51410W        W16890  14.819   5.396  11.462
51411W        W16891  30.040  19.230   4.769
51412W        W16892  35.901  34.575   0.732
51413W        W16893  14.745   4.724   0.472
51414W        W16894  24.080   2.787   4.747
51415W        W16895  40.308  27.168  14.004
51416W        W16896  29.592   3.324  13.041
51417W        W16897   8.308  44.918   1.801
51418W        W16898  36.445   9.716   2.249
51419W        W16899  40.944  15.616  11.036
51420W        W16900  40.860  13.276  14.379
51421W        W16901  38.955  18.202   4.158
51422W        W16902  40.820   6.734   2.370
51423W        W16903  25.165   0.357   2.757
51424W        W16904  21.597  44.317  12.948
51425W        W16905  39.967  15.092  13.436
51426W        W16906   4.843  18.672  12.082
51427W        W16907  39.859   6.863   3.831
51428W        W16908  39.817   8.352  12.019
51429W        W16909  31.510   9.297  14.321
51430W        W16910  34.426  34.932  11.109
51431W        W16911  24.559  43.309  10.582
51432W        W16912  29.667  23.494  10.508
51433W        W16913   9.859  33.448  11.542
51434W        W16914  36.016   8.201   0.253
51435W        W16915  24.527  38.495  12.831
51436W        W16916   4.216  43.880   2.268
51437W        W16917  20.068  18.078   0.479
51438W        W16918  27.967  21.111  13.412
51439W        W16919  31.405  29.941  14.408
51440W        W16920  21.039   3.755  13.932
51441W        W16921   4.204  10.725  14.338
51442W        W16922   7.365  18.708  10.957
51443W        W16923   0.818   8.719   3.659
51444W        W16924  16.290  29.080  12.351
51445W        W16925   7.291  40.364   0.480
51446W        W16926   3.268  40.006   2.237
51447W        W16927  28.619  44.867   2.419
51448W        W16928  43.793  32.902  14.499
51449W        W16929  43.400   8.227  11.047
51450W        W16930  31.606  10.384  12.359
51451W        W16931   6.288  20.130  13.933
51452W        W16932  43.511  31.407   2.888
51453W        W16933  16.571  44.852   4.606
51454W        W16934   3.415  37.459  14.926
51455W        W16935  21.638  10.836   2.210
51456W        W16936  36.970  11.167  12.341
51457W        W16937  25.548  34.574  12.425
51458W        W16938   6.203  44.886   3.791
51459W        W16939  41.506  20.061   1.292
51460W        W16940   7.179  42.964  12.396
51461W        W16941   5.224  33.037  10.912
51462W        W16942  10.814  36.997  13.324
51463W        W16943  17.136   4.823  12.347
51464W        W16944  27.119  25.658  14.511
51465W        W16945  43.355  41.303  12.000
51466W        W16946  39.551   3.773   3.795
51467W        W16947   7.789   9.833   4.742
51468W        W16948  16.178   2.870  11.432
51469W        W16949  15.725  12.815  13.408
51470W        W16950   6.807   5.320  13.321
51471W        W16951  28.056  28.096  13.381
51472W        W16952   0.471  28.561  11.885
51473W        W16953  10.336  23.727   2.797
51474W        W16954  35.995  42.386  14.761
51475W        W16955  27.952  44.285  14.391
51476W        W16956  28.483  28.943   2.818
51477W        W16957  44.816  24.722  12.444
51478W        W16958  19.590  43.401   0.334
51479W        W16959  33.533   7.873   0.476
51480W        W16960  26.572  40.321   1.898
51481W        W16961   8.831   1.395  14.410
51482W        W16962  34.117  43.501  12.464
51483W        W16963   2.422  32.078   3.695
51484W        W16964   7.395  32.102  11.393
51485W        W16965  11.785  36.898   2.756
51486W        W16966  15.136  35.409  14.502
51487W        W16967  24.644   1.897  11.454
51488W        W16968  34.086  22.663  13.843
51489W        W16969  14.674   1.827  13.502
51490W        W16970   8.717   0.288   3.769
51491W        W16971  39.950  20.044   2.325
51492W        W16972  27.642   1.792   0.916
51493W        W16973  37.076  39.317  10.981
51494W        W16974   3.736  14.790  14.858
51495W        W16975   0.380  13.121   3.152
51496W        W16976  28.087  25.605   2.377
51497W        W16977  44.264  30.449   3.643
51498W        W16978  15.328  20.566   4.310
51499W        W16979  26.526  24.538  10.612
51500W        W16980   3.869   6.270   2.316
51501W        W16981  17.587  23.509  14.512
51502W        W16982  17.650  39.835  10.966
51503W        W16983  26.116  42.328   2.673
51504W        W16984  23.069   3.289   4.214
51505W        W16985  31.580  21.134  13.809
51506W        W16986  11.654  31.105   0.857
51507W        W16987  30.526   1.364   1.737
51508W        W16988   0.862  10.168  11.440
51509W        W16989  34.584   4.770  13.463
51510W        W16990  25.532  32.013  14.779
51511W        W16991  23.690  31.014   0.870
51512W        W16992  42.887  15.603   0.429
51513W        W16993  23.611  25.146   2.789
51514W        W16994  14.246  22.132  10.966
51515W        W16995  36.007  30.113   4.644
51516W        W16996  14.148  30.007   2.206
51517W        W16997  33.585   1.444  11.556
51518W        W16998  28.478  33.546   3.729
51519W        W16999   7.212  39.386   1.432
51520W        W17000  32.518  25.474   1.908
51521W        W17001  17.728  16.207   4.814
51522W        W17002  32.435   1.873  10.977
51523W        W17003   2.839  21.104  11.966
51524W        W17004  18.086  43.354   4.339
51525W        W17005  34.378   8.316   4.218
51526W        W17006  30.022  19.680  12.906
51527W        W17007   3.839   5.259   0.964
51528W        W17008  19.632  23.577   1.723
51529W        W17009  43.820  39.358  11.457
51530W        W17010  26.634  13.112   3.794
51531W        W17011  17.795  27.989  14.507
51532W        W17012  24.632  41.314  14.794
51533W        W17013  32.006  10.261   1.215
51534W        W17014   4.210  28.675   4.724
51535W        W17015  38.497   2.883   1.386
51536W        W17016   2.760  39.482  10.515
51537W        W17017  25.195   7.824  14.946
51538W        W17018   8.851  23.102  12.517
51539W        W17019  13.705   4.404  14.994
51540W        W17020  30.553  38.481  11.028
51541W        W17021   3.385  28.648  10.449
51542W        W17022   0.760   7.266  14.413
51543W        W17023  26.678  22.624  10.405
51544W        W17024  24.151  27.084  11.858
51545W        W17025  42.960   0.901  11.959
51546W        W17026  25.606  11.276   2.348
51547W        W17027  43.886  29.612  12.491
51548W        W17028  25.551  14.130  14.292
51549W        W17029   4.764  41.894  11.912
51550W        W17030   6.876  32.948   3.776
51551W        W17031  42.993  34.026   1.293
51552W        W17032  30.515  16.076   0.357
51553W        W17033   2.863  18.182   2.842
51554W        W17034   3.430  43.467   4.169
51555W        W17035  25.145  14.798  12.374
51556W        W17036   3.945  27.042  14.785
51557W        W17037   8.671   8.762  10.476
51558W        W17038  39.400  15.727   4.808
51559W        W17039  33.546   9.770   3.769
51560W        W17040  13.152  11.688  13.370
51561W        W17041  41.927  18.769  11.951
51562W        W17042  22.140  23.093  10.948
51563W        W17043   4.247   0.768  10.893
51564W        W17044  11.708  21.022   1.757
51565W        W17045  10.354  22.721  11.501
51566W        W17046   8.224  15.751  10.455
51567W        W17047  30.433  37.539  10.976
51568W        W17048  42.384   0.386  10.415
51569W        W17049  34.390  19.153  11.009
51570W        W17050   6.365  37.478  10.459
51571W        W17051  29.552   4.271  11.936
51572W        W17052  17.128  14.141   3.805
51573W        W17053  13.671   2.466   3.695
51574W        W17054  44.295  27.628   4.666
51575W        W17055   1.329  41.538   4.331
51576W        W17056  21.152   6.746  10.531
51577W        W17057   4.805   1.483  12.980
51578W        W17058  33.107  18.058   0.850
51579W        W17059  24.066  39.960  14.275
51580W        W17060   1.930  44.326  12.854
51581W        W17061  29.445  19.676  11.909
51582W        W17062  17.303  41.410   4.773
51583W        W17063   5.908   9.683  13.963
51584W        W17064  16.813  12.718  14.409
51585W        W17065   7.325  36.031  13.979
51586W        W17066  37.080  26.061   0.842
51587W        W17067  12.177  22.692   4.240
51588W        W17068  29.550  32.414   0.934
51589W        W17069  25.189   6.273  13.497
51590W        W17070  27.692  17.114   2.869
51591W        W17071  25.616  17.801   3.736
51592W        W17072  30.066  25.968   1.754
51593W        W17073   8.729  16.171   1.852
51594W        W17074  42.005  34.523  11.082
51595W        W17075  40.535  42.972  13.342
51596W        W17076  43.932  35.539   0.445
51597W        W17077  32.453  18.601  14.309
51598W        W17078  20.620  23.675  13.442
51599W        W17079  39.861  10.180   2.863
51600W        W17080  37.021  40.342  12.516
51601W        W17081  37.079  27.952  14.310
51602W        W17082  13.665  21.118   4.252
51603W        W17083  23.168   3.266  13.976
51604W        W17084  28.107  31.407  12.860
51605W        W17085  31.648   0.832  10.550
51606W        W17086  34.073  21.619   2.678
51607W        W17087  38.495  32.599   2.876
51608W        W17088  34.502  19.725  12.438
51609W        W17089  34.602   2.808   3.791
51610W        W17090   9.728  28.547   3.854
51611W        W17091  41.491  44.842   3.330
51612W        W17092   9.167  11.789   1.842
51613W        W17093  19.202  17.098  13.906
51614W        W17094  23.097   6.811   1.297
51615W        W17095  15.778  11.137   0.750
51616W        W17096  18.681  42.818  11.451
51617W        W17097   1.908  29.037   0.793
51618W        W17098  43.340  20.145  12.033
51619W        W17099   0.936   4.916  12.367
51620W        W17100   6.284   3.351  12.874
51621W        W17101  26.619  41.457  10.889
51622W        W17102  16.234  19.276  11.605
51623W        W17103   4.890  25.116  13.017
51624W        W17104  26.604  32.563   0.332
51625W        W17105  41.808  41.300   4.734
51626W        W17106  36.489   7.678  14.353
51627W        W17107  17.658  42.404   2.268
51628W        W17108  21.736  31.443   1.841
51629W        W17109  20.610  13.838  14.373
51630W        W17110  35.467  41.498  13.927
51631W        W17111  20.160  19.766   4.324
51632W        W17112  22.654  39.357   1.901
51633W        W17113   4.302  28.626   3.151
51634W        W17114  39.546  23.667  13.996
51635W        W17115  41.406  17.083  11.906
51636W        W17116  40.391  36.548   3.721
51637W        W17117   6.312   1.241   1.923
51638W        W17118  40.543   6.220  13.928
51639W        W17119  16.694   6.882   0.313
51640W        W17120  34.975  10.219  12.985
51641W        W17121  22.574  39.455  10.484
51642W        W17122  34.425  38.495   3.172
51643W        W17123  41.468  28.998  10.578
51644W        W17124  32.134  22.697  10.492
51645W        W17125  42.353   5.859   1.324
51646W        W17126  23.157  26.515   1.804
51647W        W17127   5.714  15.587  10.412
51648W        W17128   3.953  34.977   4.671
51649W        W17129  32.017  37.885  13.899
51650W        W17130  44.398   2.749   2.254
51651W        W17131  23.595   0.400   1.853
51652W        W17132  19.760  41.517   4.120
51653W        W17133  11.217  22.101  13.409
51654W        W17134  10.158  38.444   0.345
51655W        W17135   3.876  24.655  10.430
51656W        W17136   0.385  23.131   4.318
51657W        W17137   5.270   8.777   3.802
51658W        W17138  28.631  17.613  11.865
51659W        W17139   0.835   7.290  13.930
51660W        W17140  12.682  23.238  12.377
51661W        W17141  27.065  29.516  14.935
51662W        W17142  42.412  29.123   0.910
51663W        W17143  22.186   0.902  14.418
51664W        W17144   8.692  12.741   2.325
51665W        W17145  39.039  41.790  11.424
51666W        W17146  10.256  21.235   4.331
51667W        W17147  21.688  39.413  14.464
51668W        W17148   7.407  27.024   5.256
51669W        W17149  14.167  34.547   3.788
51670W        W17150  43.372  18.292   0.430
51671W        W17151  25.503   9.675   4.273
51672W        W17152  24.975  15.174  14.031
51673W        W17153  34.044  28.637  14.409
51674W        W17154  39.466  14.158   3.303
51675W        W17155   6.917  40.396  11.083
51676W        W17156  10.861  26.700   0.921
51677W        W17157  11.238   8.897   0.348
51678W        W17158   3.312  18.758  11.551
51679W        W17159   3.711   5.746  14.300
51680W        W17160  37.519  20.125  13.363
51681W        W17161  35.428  40.366   4.324
51682W        W17162   0.987  20.060  13.359
51683W        W17163   4.930  14.210  14.978
51684W        W17164  19.192  42.779   3.840
51685W        W17165  24.689   9.717  13.880
51686W        W17166  44.504  37.425   0.483
51687W        W17167  18.731   1.909   2.325
51688W        W17168  12.358  42.492   9.627
51689W        W17169  24.724  12.741   1.308
51690W        W17170  10.357  31.640  13.953
51691W        W17171  39.360  14.174   5.212
51692W        W17172  16.179   1.814  11.552
51693W        W17173  30.493  20.123   3.223
51694W        W17174  17.221   2.445  10.404
51695W        W17175  44.867  26.031   0.726
51696W        W17176  39.858  13.728   0.912
51697W        W17177  32.958  17.703  11.476
51698W        W17178   5.831  14.142  10.948
51699W        W17179   9.366  33.997  10.945
51700W        W17180  26.048   5.702  10.959
51701W        W17181  37.943  40.870   4.216
51702W        W17182  15.761  44.310   1.888
51703W        W17183  44.821  10.225  12.463
51704W        W17184  22.179   5.322   4.837
51705W        W17185  22.594  24.681   2.220
51706W        W17186  10.647   0.911   1.231
51707W        W17187  23.191  32.433   2.380
51708W        W17188  32.930  11.367   3.217
51709W        W17189  11.246  37.338  14.843
51710W        W17190  22.998  35.031   0.343
51711W        W17191   0.843  16.660  12.005
51712W        W17192   3.269  39.040   4.132
51713W        W17193  35.883  42.486   3.730
51714W        W17194  18.663  12.224   4.658
51715W        W17195  31.999   0.957  14.298
51716W        W17196   1.346  37.833  11.384
51717W        W17197   8.720  31.472   2.208
51718W        W17198  43.780   3.257   3.277
51719W        W17199  18.126  35.424  11.411
51720W        W17200  43.837  26.191  14.477
51721W        W17201  31.917  18.064  14.288
51722W        W17202  42.320   1.469   0.815
51723W        W17203  36.077  17.191  11.544
51724W        W17204  16.804  29.453  12.063
51725W        W17205  40.321  24.118   5.105
51726W        W17206   2.263  20.669   0.310
51727W        W17207  25.613  23.546   0.416
51728W        W17208   2.428  26.999  14.925
51729W        W17209  29.103  33.085   0.872
51730W        W17210   7.392  18.278   2.903
51731W        W17211  30.598  36.096  11.889
51732W        W17212  16.249  20.632  11.600
51733W        W17213  19.194   1.406  14.817
51734W        W17214  17.640  13.640  14.504
51735W        W17215   4.726   6.393  14.450
51736W        W17216  20.601  33.614   1.767
51737W        W17217  11.191  28.531   2.798
51738W        W17218  40.383   5.388   1.280
51739W        W17219  30.530   1.355   3.290
51740W        W17220  10.140  24.982  10.970
51741W        W17221   3.278  38.039   0.913
51742W        W17222   6.250  29.163  14.346
51743W        W17223  10.632  24.062  14.846
51744W        W17224  37.881   6.808  13.477
51745W        W17225  21.747  25.581  12.038
51746W        W17226  13.236  14.692   4.192
51747W        W17227  13.819  30.070  14.934
51748W        W17228  44.441  38.866   3.731
51749W        W17229  19.111  10.345  13.327
51750W        W17230  23.119  13.227  10.508
51751W        W17231  28.007  29.437  14.330
51752W        W17232   4.841   8.900  14.278
51753W        W17233  19.059  12.642   1.420
51754W        W17234  10.222   5.297  12.900
51755W        W17235  26.992   6.218  10.996
51756W        W17236   7.706   1.871  13.995
51757W        W17237  42.344  17.158  11.440
51758W        W17238  37.543  32.980   1.328
51759W        W17239  16.700  28.980  13.340
51760W        W17240  37.077  32.055  12.525
51761W        W17241  13.194  21.598  13.347
51762W        W17242  32.044  21.035  14.476
51763W        W17243  36.002   5.365  12.392
51764W        W17244  12.353   6.327   1.267
51765W        W17245  23.535  16.715   2.774
51766W        W17246   0.259  41.982  13.526
51767W        W17247  43.460   5.918  10.954
51768W        W17248  11.226  22.030  11.575
51769W        W17249   1.344  44.476   0.897
51770W        W17250  19.633  25.628   1.344
51771W        W17251  14.721  39.946   4.339
51772W        W17252  44.502  36.051  10.631
51773W        W17253  13.671  33.453  14.964
51774W        W17254  40.978  32.443  11.023
51775W        W17255  13.834  37.391  11.098
51776W        W17256  26.097  32.037  13.346
51777W        W17257  39.888  31.104  14.903
51778W        W17258  32.607  19.283  13.020
51779W        W17259  28.983  36.591  14.463
51780W        W17260  14.204  33.569  10.929
51781W        W17261  22.723  37.478   4.115
51782W        W17262  31.420   0.367  11.467
51783W        W17263  17.088  22.548  14.513
51784W        W17264  18.655   6.313  10.604
51785W        W17265  11.269  27.471  11.870
51786W        W17266  28.181  13.137   3.228
51787W        W17267  35.458  40.828   1.747
51788W        W17268   9.209   7.842   3.687
51789W        W17269  12.267  31.988   3.728
51790W        W17270  37.343  44.348   1.445
51791W        W17271  19.663  42.401  12.436
51792W        W17272   5.387   7.850   3.637
51793W        W17273  25.714  28.104   5.140
51794W        W17274  20.524  33.497   3.235
51795W        W17275  42.993   3.916   0.851
51796W        W17276  23.719  22.145   0.440
51797W        W17277  10.801   7.795  12.089
51798W        W17278  38.388  15.810   2.280
51799W        W17279  33.522  24.035  10.913
51800W        W17280  15.088  40.029   3.677
51801W        W17281  11.150  30.546  13.347
51802W        W17282   6.692  44.888   1.379
51803W        W17283  27.166  14.217   1.919
51804W        W17284  32.962  32.622  10.501
51805W        W17285  16.788  11.327   1.918
51806W        W17286  16.683  43.786  10.604
51807W        W17287  32.605  31.639   4.249
51808W        W17288  21.078  15.792  12.004
51809W        W17289  38.363  12.789  12.565
51810W        W17290  38.441   5.215  13.058
51811W        W17291  36.466   3.813   0.925
51812W        W17292   7.385  23.560  14.002
51813W        W17293  18.157  17.168  11.491
51814W        W17294   2.779  43.352  14.885
51815W        W17295  27.084  39.419   4.795
51816W        W17296  35.916  17.169  14.027
51817W        W17297   8.721  17.757  10.424
51818W        W17298   3.947  35.512   4.664
51819W        W17299  10.655   4.929   0.756
51820W        W17300  10.826  15.667   0.760
51821W        W17301  18.169  20.562  12.070
51822W        W17302  32.435  29.444  14.997
51823W        W17303  20.642  32.440  14.983
51824W        W17304  44.358  37.422  10.475
51825W        W17305   7.879  20.533  11.374
51826W        W17306   1.438  31.639   0.893
51827W        W17307  38.892   3.717   0.919
51828W        W17308  44.497  21.676   4.678
51829W        W17309  12.685  15.293  14.315
51830W        W17310  22.631  11.674   4.116
51831W        W17311  35.453  19.183   2.356
51832W        W17312  42.783   4.920  14.355
51833W        W17313   5.933  16.785  11.467
51834W        W17314  15.585  18.200   0.758
51835W        W17315  38.453  22.708  10.945
51836W        W17316   6.278  32.058   3.327
51837W        W17317  13.179  25.069   3.357
51838W        W17318   4.406  16.799  14.022
51839W        W17319  37.543   4.418   1.338
51840W        W17320  34.428   8.297  14.993
51841W        W17321  24.028  33.501  14.470
51842W        W17322  40.535  22.171  10.494
51843W        W17323  23.704  20.195  14.469
51844W        W17324  20.619  15.786   4.773
51845W        W17325  32.560   3.218   3.781
51846W        W17326  15.165  25.512  12.889
51847W        W17327  11.817  12.237   3.639
51848W        W17328  11.836  28.137   1.864
51849W        W17329  35.913  35.867   1.914
51850W        W17330   2.299   6.361  10.512
51851W        W17331   7.225  29.009   4.688
51852W        W17332   9.331  44.303   4.727
51853W        W17333  14.657  36.349  13.907
51854W        W17334  43.488   8.816   0.755
51855W        W17335  28.098  31.940   2.855
51856W        W17336   0.437  39.414  13.019
51857W        W17337  33.517  35.920   0.250
51858W        W17338   9.681  15.636  10.588
51859W        W17339  39.545  18.741  14.303
51860W        W17340  12.293  20.135  13.861
51861W        W17341  18.673  10.775   0.445
51862W        W17342  44.271  28.516   4.807
51863W        W17343  40.953  37.344  13.539
51864W        W17344  25.164  43.278   4.165
51865W        W17345  27.160  18.668  14.454
51866W        W17346  32.424   4.377   4.761
51867W        W17347  27.017  38.893  10.427
51868W        W17348  39.389  44.934   1.405
51869W        W17349  22.167  24.998  13.411
51870W        W17350   5.321   4.788   0.965
51871W        W17351   5.798  44.949   4.115
51872W        W17352  14.119  23.034   2.265
51873W        W17353  14.657  24.974  11.009
51874W        W17354  43.497  32.921   1.923
51875W        W17355   5.697   7.349  14.980
51876W        W17356  26.594  14.642   3.839
51877W        W17357   0.365  27.506  10.506
51878W        W17358  22.547  41.010   0.833
51879W        W17359  35.593  16.210   4.718
51880W        W17360  12.709  18.127  13.902
51881W        W17361  15.644  20.127   0.378
51882W        W17362  25.527  20.072  12.412
51883W        W17363  27.664  22.567  10.561
51884W        W17364  44.977   4.830  11.587
51885W        W17365  39.942  36.885   4.203
51886W        W17366  29.452  36.904  14.506
51887W        W17367  29.173   4.743  13.864
51888W        W17368  34.399  30.602   0.764
51889W        W17369  11.147  11.319  12.881
51890W        W17370  20.212  36.845   3.246
51891W        W17371  42.894   5.845  10.089
51892W        W17372  10.817  17.728   0.362
51893W        W17373  34.487  14.302  12.503
51894W        W17374  12.619  31.984  10.941
51895W        W17375   3.236   5.410  11.407
51896W        W17376  20.177  15.259   1.833
51897W        W17377  21.043  43.783   1.851
51898W        W17378  37.412  27.962   2.414
51899W        W17379  33.460  31.598   3.314
51900W        W17380  26.979   4.731   9.957
51901W        W17381  38.031  19.752   4.803
51902W        W17382  25.665  16.261   0.332
51903W        W17383  11.661   8.844  13.341
51904W        W17384   9.786  32.458  13.028
51905W        W17385  26.060  27.675  11.906
51906W        W17386  21.753   6.253   1.332
51907W        W17387  19.188  19.204  13.373
51908W        W17388  33.508  26.558  13.346
51909W        W17389  37.454  41.302  12.520
51910W        W17390  12.658  14.230  14.319
51911W        W17391  18.286  30.918  14.932
51912W        W17392  27.537  20.057   3.245
51913W        W17393  12.777  16.640   1.722
51914W        W17394  31.077  38.965  12.856
51915W        W17395  28.439   0.433  12.538
51916W        W17396  33.562  43.877  14.985
51917W        W17397   5.888  33.962  14.950
51918W        W17398  19.118  23.532  11.498
51919W        W17399  33.950  16.107   2.854
51920W        W17400  20.267  36.015   5.316
51921W        W17401  17.293  36.588   3.294
51922W        W17402  37.962  27.592   0.825
51923W        W17403   0.960  14.645  13.801
51924W        W17404  42.811   4.337   4.800
51925W        W17405  14.244  21.684   0.351
51926W        W17406  31.010   2.352   0.432
51927W        W17407  43.437  28.930  12.494
51928W        W17408  14.679  19.270  12.523
51929W        W17409   7.229  29.035   2.852
51930W        W17410  27.507  16.636  13.415
51931W        W17411  16.699  24.001   4.150
51932W        W17412  14.282  14.129  14.492
51933W        W17413  12.241  17.196  10.978
51934W        W17414  43.989  28.171  12.383
51935W        W17415  21.605  31.432   3.688
51936W        W17416  34.588  37.845  14.009
51937W        W17417  39.426   9.150   1.903
51938W        W17418  33.469  12.670   1.300
51939W        W17419   3.387  33.503  11.879
51940W        W17420  31.557  16.306  11.551
51941W        W17421   6.392   9.374  12.417
51942W        W17422  41.029  39.028  12.512
51943W        W17423  34.932  29.598   4.806
51944W        W17424   9.360   9.753  12.930
51945W        W17425  30.082   5.763   2.687
51946W        W17426  42.468   9.205  11.041
51947W        W17427  16.809  27.483   0.338
51948W        W17428  33.085  18.082   4.209
51949W        W17429  28.511   9.226  13.429
51950W        W17430  10.361  19.658   4.267
51951W        W17431   2.313  33.507  12.497
51952W        W17432   4.384  36.021  11.071
51953W        W17433  11.683  36.990  13.445
51954W        W17434  25.144  44.406  11.910
51955W        W17435  11.649  29.994   1.924
51956W        W17436  24.016  31.058   1.847
51957W        W17437  16.758  24.546  14.823
51958W        W17438  34.450  43.404  12.006
51959W        W17439  29.173   7.411  12.407
51960W        W17440  30.965  41.813   3.239
51961W        W17441  30.923  36.020  10.901
51962W        W17442  22.134  36.843  13.793
51963W        W17443  19.641  27.067   3.149
51964W        W17444  19.224   5.396   4.739
51965W        W17445  17.103  35.510  14.453
51966W        W17446  32.887  11.623   1.378
51967W        W17447  10.752  15.289   1.242
51968W        W17448   6.732  35.570  14.927
51969W        W17449  28.165  11.845  12.086
51970W        W17450  42.007   2.923   9.979
51971W        W17451   7.303  33.946   0.946
51972W        W17452  42.423   1.264  10.426
51973W        W17453  37.965  21.102   0.921
51974W        W17454  34.374  41.303  14.452
51975W        W17455  36.939  10.353   2.833
51976W        W17456  39.823  39.925   1.773
51977W        W17457   8.371  27.658  12.567
51978W        W17458   8.791  21.117  13.528
51979W        W17459  24.158  27.465  14.026
51980W        W17460  11.225   1.839   0.414
51981W        W17461  10.259  20.060  11.057
51982W        W17462   4.394  12.330  10.450
51983W        W17463   5.301  39.453   2.828
51984W        W17464   0.922  13.710   0.900
51985W        W17465  24.515  18.552  10.432
51986W        W17466  13.823   2.814   2.406
51987W        W17467  42.883   1.968  14.001
51988W        W17468  12.640  24.994   2.279
51989W        W17469  28.604  22.190   2.346
51990W        W17470  42.871  41.882  10.922
51991W        W17471  44.444   9.837   4.196
51992W        W17472   1.345   1.961   3.690
51993W        W17473  34.400   3.431  13.519
51994W        W17474  41.940  42.282  11.573
51995W        W17475  16.751  29.641  10.585
51996W        W17476  35.044  42.467   3.635
51997W        W17477   3.816  40.345  12.481
51998W        W17478  39.469  19.079   2.764
51999W        W17479  33.048  14.710   0.435
52000W        W17480  19.560   6.332   1.703
52001W        W17481  42.948  34.072  12.424
52002W        W17482  15.632   0.763  11.589
52003W        W17483   6.340   7.706   3.633
52004W        W17484  42.449  16.672   1.897
52005W        W17485  38.837  32.622   3.180
52006W        W17486   5.349  32.902  13.956
52007W        W17487  31.153  30.512  11.555
52008W        W17488   6.345  31.097   3.722
52009W        W17489  30.046  31.012   2.391
52010W        W17490   5.400   9.172  10.497
52011W        W17491  21.058   4.267  11.445
52012W        W17492  44.793   6.388   2.406
52013W        W17493  23.634  29.562   3.737
52014W        W17494  33.555  39.944  13.931
52015W        W17495  33.564   8.849   3.281
52016W        W17496  23.099   2.339   4.712
52017W        W17497  43.865   2.249  14.348
52018W        W17498  17.275   5.311  11.996
52019W        W17499  24.211  30.434  13.543
52020W        W17500  10.330  31.577  11.600
52021W        W17501  38.440  26.006   2.780
52022W        W17502  21.113  32.398  12.003
52023W        W17503  31.472  25.145  13.419
52024W        W17504   0.857  12.285  10.415
52025W        W17505   1.396  33.982  14.304
52026W        W17506   2.248  12.221  10.632
52027W        W17507  38.520  25.589   1.328
52028W        W17508  32.117   9.294   3.834
52029W        W17509  23.710   6.823  10.917
52030W        W17510  44.448  43.409  10.513
52031W        W17511   8.829  25.635   0.302
52032W        W17512   8.249  22.165   0.315
52033W        W17513  41.402  34.928   4.331
52034W        W17514  44.391   6.239   0.289
52035W        W17515   3.287  42.850   1.695
52036W        W17516  18.078  41.335  14.965
52037W        W17517  27.622  26.681   4.781
52038W        W17518  19.732  23.006   4.232
52039W        W17519  35.475  12.190  11.586
52040W        W17520  19.246  43.431   0.422
52041W        W17521  44.356  34.397   1.879
52042W        W17522  32.539  26.622   1.732
52043W        W17523  36.010  23.667  13.360
52044W        W17524   4.809  27.022   2.685
52045W        W17525  40.435  13.708   4.300
52046W        W17526  24.646  22.626   0.889
52047W        W17527  37.374  42.014   2.261
52048W        W17528   7.674  19.042   4.332
52049W        W17529  24.590  42.874  14.032
52050W        W17530  42.440  26.529  11.111
52051W        W17531   8.897  27.676  10.612
52052W        W17532  40.909  26.550  13.392
52053W        W17533  43.474  13.176  13.063
52054W        W17534  25.534  36.026   1.924
52055W        W17535  24.538  41.966  14.974
52056W        W17536   6.758  23.515  12.852
52057W        W17537  26.495   0.807  13.404
52058W        W17538  32.572  35.517  13.814
52059W        W17539  22.147   3.730   2.839
52060W        W17540  32.599  24.526  11.527
52061W        W17541  28.150  42.819   2.772
52062W        W17542  16.216  35.939   2.308
52063W        W17543  14.256  17.637  13.421
52064W        W17544   9.157  28.960  12.376
52065W        W17545  17.165  35.052   2.804
52066W        W17546  31.121  41.859   4.285
52067W        W17547  11.233   5.264   1.324
52068W        W17548  12.659   3.868  13.029
52069W        W17549   3.755   7.796   3.302
52070W        W17550  18.123  34.109  14.421
52071W        W17551  16.783  43.304   1.920
52072W        W17552   2.890  29.583   1.215
52073W        W17553   8.196  25.159   4.724
52074W        W17554  34.041  18.284   4.774
52075W        W17555  11.658  38.519   2.264
52076W        W17556  13.652  19.619   1.804
52077W        W17557   1.867  38.977  10.996
52078W        W17558  22.513  10.766   0.406
52079W        W17559  25.528  26.023   0.266
52080W        W17560  15.099  31.956  10.135
52081W        W17561   5.779  24.213   0.289
52082W        W17562   8.390  11.688  13.388
52083W        W17563  31.929  18.696   3.737
52084W        W17564  38.559   9.709   4.742
52085W        W17565   4.228  15.301  10.426
52086W        W17566   1.891   2.324  13.347
52087W        W17567  38.043  19.122  13.308
52088W        W17568   3.947  20.584  13.878
52089W        W17569   2.274  30.982   0.385
52090W        W17570   5.880  32.536   0.457
52091W        W17571  28.019  11.737   5.199
52092W        W17572   9.358  41.916   1.708
52093W        W17573  27.117   8.856   1.224
52094W        W17574  44.920  28.535   1.342
52095W        W17575  42.383  19.598   4.187
52096W        W17576  40.855   1.475  10.576
52097W        W17577  10.169  19.541  14.999
52098W        W17578  43.442  26.100   1.309
52099W        W17579  36.031  18.640   1.393
52100W        W17580   8.233   9.729   2.312
52101W        W17581  29.555  23.071  12.849
52102W        W17582  22.091  31.918  14.853
52103W        W17583   6.278  20.703  10.530
52104W        W17584  43.458  32.592  12.964
52105W        W17585  41.401  12.177   4.158
52106W        W17586  22.998  38.043  13.386
52107W        W17587  17.665   8.183  12.887
52108W        W17588  39.436  40.804   3.652
52109W        W17589  29.591  30.630  13.468
52110W        W17590  13.751   5.896  10.995
52111W        W17591  33.407  26.504   4.792
52112W        W17592  11.250  14.187   0.777
52113W        W17593  37.459  22.580  12.996
52114W        W17594   2.363   7.744  12.019
52115W        W17595  11.782  11.660  12.861
52116W        W17596  37.067  30.444  13.801
52117W        W17597  24.644  14.095   2.789
52118W        W17598  35.086  23.017   0.957
52119W        W17599  36.389  12.843  14.355
52120W        W17600  25.636  35.975  13.442
52121W        W17601  43.889  24.517   3.356
52122W        W17602   1.464  30.157   0.897
52123W        W17603   4.375  37.838   3.828
52124W        W17604   6.420  14.197   1.258
52125W        W17605  23.222  37.057   0.835
52126W        W17606   8.389  25.055  10.561
52127W        W17607   3.263   8.787   4.289
52128W        W17608  23.725  39.040   1.214
52129W        W17609   0.747  25.533   3.265
52130W        W17610   4.824  15.652  11.469
52131W        W17611  33.007   4.237   1.923
52132W        W17612  42.464  11.648  12.535
52133W        W17613  25.509   3.307  10.603
52134W        W17614  39.900  38.007  13.794
52135W        W17615  30.117  34.061   3.659
52136W        W17616  21.048  44.262   1.224
52137W        W17617   4.829   0.404   4.626
52138W        W17618  36.980  36.433   0.953
52139W        W17619  12.823  13.779  14.936
52140W        W17620  31.962  30.011   3.743
52141W        W17621  41.328  13.331   3.162
52142W        W17622  20.107   4.271  11.450
52143W        W17623  42.321  12.314  10.436
52144W        W17624  13.625  34.882   0.407
52145W        W17625  36.978  27.071   3.147
52146W        W17626  43.430  27.543   3.709
52147W        W17627  42.442  36.482  12.536
52148W        W17628   7.224   7.311  14.765
52149W        W17629  12.291   8.717   2.875
52150W        W17630  29.964  37.523   2.184
52151W        W17631  41.871  13.700  11.568
52152W        W17632   5.239  15.275  14.890
52153W        W17633  32.498  15.633   3.640
52154W        W17634  19.680  28.087   1.934
52155W        W17635  13.837   5.741  12.415
52156W        W17636  27.090  20.609  14.990
52157W        W17637  37.377  42.826  12.492
52158W        W17638  23.149  35.864   1.698
52159W        W17639  37.943  36.907   2.383
52160W        W17640  17.562   3.379  11.576
52161W        W17641  10.174  17.644  14.358
52162W        W17642  25.991  29.661  13.325
52163W        W17643  36.039   9.689  14.008
52164W        W17644  42.292  20.603   0.254
52165W        W17645  40.373   5.249   1.747
52166W        W17646  17.068   5.875  14.850
52167W        W17647  32.495  40.916  10.126
52168W        W17648  33.601  27.588  14.339
52169W        W17649  28.649  29.145  10.919
52170W        W17650  13.798   9.744  10.414
52171W        W17651  30.550  26.671  14.401
52172W        W17652  31.628  44.771  13.021
52173W        W17653  37.463  25.650  14.954
52174W        W17654  43.315  44.817  13.345
52175W        W17655  36.080  30.583  14.902
52176W        W17656   9.826  34.474  14.023
52177W        W17657  10.191  30.118   3.376
52178W        W17658  16.197  15.706   2.784
52179W        W17659  23.635  29.616   1.380
52180W        W17660   3.319  27.070   4.181
52181W        W17661   7.279  37.858   4.770
52182W        W17662  30.037  38.507   3.698
52183W        W17663  18.077   2.443  14.788
52184W        W17664  22.223  16.214  14.002
52185W        W17665  38.539  25.008  11.053
52186W        W17666  40.881  30.033  11.458
52187W        W17667  35.553  44.823   2.324
52188W        W17668  10.730   6.900   3.265
52189W        W17669  26.134   9.732   0.438
52190W        W17670  44.344  32.592  12.443
52191W        W17671  38.425  16.230   3.658
52192W        W17672  33.965  29.149   2.185
52193W        W17673  25.606  38.398   0.289
52194W        W17674   4.275  39.951  13.001
52195W        W17675  38.909  42.408  13.942
52196W        W17676  11.131  40.388   0.848
52197W        W17677  12.673  18.251  11.548
52198W        W17678  20.079   1.911  10.422
52199W        W17679  25.962  41.452  10.522
52200W        W17680  42.857  26.115   1.349
52201W        W17681  38.474   6.421   0.408
52202W        W17682  44.894  43.843  14.966
52203W        W17683  17.297  24.631   4.780
52204W        W17684   8.738  31.953   4.814
52205W        W17685   3.861  34.416   1.439
52206W        W17686  33.540  35.371   1.738
52207W        W17687  24.981  13.152   0.321
52208W        W17688  16.768  28.074  13.872
52209W        W17689  38.357  33.981  10.985
52210W        W17690  20.651  40.957   1.725
52211W        W17691   3.843  35.506  11.961
52212W        W17692  41.369  21.220   2.238
52213W        W17693  19.129  34.942   1.411
52214W        W17694  11.836  22.216   3.185
52215W        W17695  26.674  29.935   2.393
52216W        W17696  36.031  31.105   4.658
52217W        W17697  21.579  33.891   4.705
52218W        W17698  20.166  24.542   4.622
52219W        W17699   8.337  26.571   0.382
52220W        W17700   1.813   8.880  10.526
52221W        W17701  28.019   6.210  12.416
52222W        W17702   4.301   7.200  13.522
52223W        W17703  41.508  15.712   0.890
52224W        W17704  16.737  23.596   0.866
52225W        W17705  28.498  30.507   1.450
52226W        W17706  27.485   7.888   1.325
52227W        W17707  24.214  32.050   0.406
52228W        W17708  10.655   8.303  10.980
52229W        W17709  24.169  30.139   1.280
52230W        W17710  30.636  25.652   1.891
52231W        W17711  23.093  31.493   2.736
52232W        W17712  14.674  22.550  12.924
52233W        W17713  13.168  37.470   3.758
52234W        W17714  43.482  23.020   2.844
52235W        W17715  27.449  33.023   0.297
52236W        W17716  12.131   2.327  11.861
52237W        W17717  22.692  17.217  13.817
52238W        W17718  31.529  36.086   3.215
52239W        W17719   1.792  34.385  11.002
52240W        W17720  22.099   1.927   1.835
52241W        W17721   8.848   6.911  10.571
52242W        W17722  19.055  36.564   3.376
52243W        W17723  34.975  29.008  12.559
52244W        W17724  29.462  25.012   0.468
52245W        W17725  29.487   4.844  10.622
52246W        W17726  16.242  43.313  12.977
52247W        W17727  41.465  13.669   4.335
52248W        W17728  43.292  42.821   1.923
52249W        W17729  16.095  15.712   1.247
52250W        W17730  40.323   2.252  14.853
52251W        W17731   0.767  26.630   3.755
52252W        W17732   6.406   5.793   4.798
52253W        W17733  27.037  36.365   3.681
52254W        W17734  21.183  36.575   4.602
52255W        W17735  23.551  13.723  10.993
52256W        W17736   7.727  31.937   9.942
52257W        W17737  35.424  25.560  12.995
52258W        W17738  30.452  21.702   4.674
52259W        W17739  26.556  41.346   1.261
52260W        W17740  11.220  33.519   0.956
52261W        W17741  14.666  33.523   4.355
52262W        W17742  40.001   9.359  11.435
52263W        W17743  33.115  21.598  12.568
52264W        W17744   5.378   0.984  11.934
52265W        W17745  12.120  43.871   1.711
52266W        W17746  12.188   4.209   1.838
52267W        W17747  25.970   3.783   2.865
52268W        W17748  28.047  29.529   5.250
52269W        W17749  16.650   3.355   4.195
52270W        W17750  42.351  26.634  12.516
52271W        W17751  22.573  18.157  10.643
52272W        W17752  33.534  19.191  10.548
52273W        W17753  22.041   5.879  14.429
52274W        W17754  16.276  15.304  13.345
52275W        W17755  18.178  24.557  13.934
52276W        W17756   5.873  12.249  12.436
52277W        W17757   7.219  20.658   1.291
52278W        W17758   1.284  19.126   2.334
52279W        W17759  19.695  37.521  12.933
52280W        W17760  29.965  40.023  11.521
52281W        W17761  20.660  35.991  10.506
52282W        W17762   4.906   6.375   3.198
52283W        W17763   3.935   8.685   2.305
52284W        W17764   4.314  26.457   3.720
52285W        W17765  10.341  26.526  10.997
52286W        W17766   9.669  38.966  14.019
52287W        W17767  19.688   0.983  11.018
52288W        W17768   1.884   2.415  12.507
52289W        W17769  33.540  21.084   1.847
52290W        W17770  33.094   8.315  13.042
52291W        W17771   0.777  41.796   3.647
52292W        W17772  40.319  16.132  13.328
52293W        W17773  15.737  23.209   4.703
52294W        W17774  27.597  30.450   0.730
52295W        W17775   5.276  30.920  11.010
52296W        W17776  41.515   7.268  10.110
52297W        W17777  14.681   1.433   4.295
52298W        W17778  23.525   8.335   2.278
52299W        W17779  44.414  21.656   4.316
52300W        W17780  36.875  38.937   0.798
52301W        W17781  12.257  39.443  10.642
52302W        W17782  40.311  28.148  13.426
52303W        W17783  12.673  17.302   0.869
52304W        W17784  10.692  21.577   3.163
52305W        W17785  42.949   8.748  13.539
52306W        W17786   7.726  16.620  12.918
52307W        W17787  39.369  39.909   0.871
52308W        W17788  31.600   7.322   4.297
52309W        W17789  11.298  34.979   1.810
52310W        W17790  19.559  14.634  11.590
52311W        W17791  17.738   3.874   2.304
52312W        W17792  22.577  21.623   4.117
52313W        W17793  34.485  27.126   0.373
52314W        W17794   7.307  26.037   3.250
52315W        W17795  31.570  12.192   4.228
52316W        W17796  14.675  27.670  13.477
52317W        W17797  28.548  22.723   4.132
52318W        W17798  29.073   9.716   3.258
52319W        W17799  42.376  31.620  14.395
52320W        W17800  16.123  36.347  11.968
52321W        W17801  24.644  31.114  10.982
52322W        W17802  13.311  29.428   4.260
52323W        W17803   0.853   2.244   3.698
52324W        W17804  22.055  31.589  13.041
52325W        W17805  28.485  22.693  11.120
52326W        W17806   3.296  38.821  13.348
52327W        W17807  23.678  27.620   2.896
52328W        W17808   3.275  39.878   1.237
52329W        W17809  43.806  16.134   3.378
52330W        W17810  33.612  12.138   0.384
52331W        W17811  20.559  31.578   0.885
52332W        W17812   8.389  34.119   3.727
52333W        W17813  30.111   3.936   4.620
52334W        W17814   6.382  35.490  13.520
52335W        W17815  35.427   7.810   3.722
52336W        W17816   2.435   3.357   1.286
52337W        W17817  25.539  25.114   3.737
52338W        W17818   3.863   2.292   3.338
52339W        W17819  35.913  24.203   2.891
52340W        W17820  39.544  18.149  12.875
52341W        W17821  17.753  23.191   1.244
52342W        W17822  44.363  12.710  12.418
52343W        W17823  41.882  39.402   0.858
52344W        W17824  35.042  25.662   4.603
52345W        W17825  30.514  16.158  11.083
52346W        W17826   6.914  26.036   2.386
52347W        W17827  10.716  31.523   3.275
52348W        W17828  34.050  21.152  11.121
52349W        W17829  23.490  27.182   3.342
52350W        W17830  30.590  14.638  12.952
52351W        W17831  19.657  39.335   0.344
52352W        W17832   8.698   5.278   0.776
52353W        W17833  31.995  16.575   1.324
52354W        W17834  22.245  31.549  14.954
52355W        W17835   1.369   1.919   1.345
52356W        W17836  36.544  16.680  11.026
52357W        W17837  40.935  24.206  10.919
52358W        W17838  23.123  38.569   4.321
52359W        W17839  29.489  33.128   3.779
52360W        W17840   1.254  15.705   0.831
52361W        W17841  21.070  22.650  14.466
52362W        W17842  40.511  43.818  11.453
52363W        W17843  40.417  26.092   1.326
52364W        W17844  21.155  32.617  11.375
52365W        W17845   5.283  13.652  13.060
52366W        W17846  27.613  41.313   4.166
52367W        W17847  27.598  25.526   3.794
52368W        W17848  34.908  37.514  10.435
52369W        W17849   6.695  18.781   3.313
52370W        W17850  24.561  26.102   3.270
52371W        W17851  44.802  22.216  14.438
52372W        W17852  33.918  40.018   3.230
52373W        W17853  14.233  38.442   2.763
52374W        W17854   4.268  42.033  12.362
52375W        W17855  36.015  29.649   3.214
52376W        W17856   5.343  10.778   2.313
52377W        W17857   6.403  12.759  13.949
52378W        W17858  27.603  21.104   1.799
52379W        W17859  11.785  27.519   1.851
52380W        W17860   6.232  40.313  14.361
52381W        W17861  39.390  10.292  13.805
52382W        W17862  27.075   8.808  10.901
52383W        W17863  28.976  33.586  14.426
52384W        W17864  18.126   2.338   1.263
52385W        W17865  33.084  35.103  11.375
52386W        W17866  16.613  21.579   2.223
52387W        W17867   5.430   9.208   1.333
52388W        W17868  32.436  10.248   1.895
52389W        W17869  30.125  41.039   2.746
52390W        W17870   4.776   8.393   1.900
52391W        W17871   7.257  24.975   4.225
52392W        W17872  36.882   8.844  13.845
52393W        W17873  11.326  11.307  11.076
52394W        W17874  21.186  43.936   1.392
52395W        W17875  38.853  29.624  12.936
52396W        W17876   6.702  29.459  13.876
52397W        W17877  23.094  30.567  14.908
52398W        W17878   2.392  25.051  10.430
52399W        W17879   7.732  18.050  11.918
52400W        W17880  38.926  11.802  14.494
52401W        W17881  43.509  18.659  14.777
52402W        W17882  30.039  33.470  11.503
52403W        W17883   7.248  25.664  14.766
52404W        W17884  32.901  42.372   4.778
52405W        W17885  17.776   9.336  10.502
52406W        W17886  24.551  36.370  10.593
52407W        W17887  32.056  26.540   4.159
52408W        W17888  42.782   7.247  12.470
52409W        W17889   0.943  23.997  11.040
52410W        W17890  26.017  28.646   3.287
52411W        W17891   7.812  15.808   1.415
52412W        W17892  32.111   2.360   1.827
52413W        W17893  13.226  41.945   9.546
52414W        W17894  21.729  40.519   0.276
52415W        W17895   8.787  37.957   3.325
52416W        W17896  39.851  28.006   3.801
52417W        W17897  25.024   0.920   2.287
52418W        W17898   0.462  34.880  13.979
52419W        W17899  20.584   2.816   4.155
52420W        W17900  24.086   1.911   3.702
52421W        W17901  20.163  22.093   3.364
52422W        W17902  33.604  15.621  14.389
52423W        W17903  26.626  36.093   0.743
52424W        W17904   5.717  19.646  14.925
52425W        W17905  33.967   3.846  11.532
52426W        W17906  26.500  39.446   1.282
52427W        W17907  41.805  30.597  12.023
52428W        W17908  25.698  38.970   4.118
52429W        W17909  28.479  31.420   0.901
52430W        W17910  20.176  15.301   4.349
52431W        W17911   8.849  29.122   2.336
52432W        W17912  33.886  28.057  14.795
52433W        W17913  43.330  11.149  12.026
52434W        W17914  29.460  44.927   4.801
52435W        W17915   7.763  19.153  14.401
52436W        W17916  40.984  11.629  11.469
52437W        W17917  20.228  39.518   4.615
52438W        W17918   6.374  32.431  13.406
52439W        W17919   5.748  44.446  12.898
52440W        W17920  43.806  40.423  12.908
52441W        W17921  22.076   0.347  14.949
52442W        W17922   8.826  18.572  13.526
52443W        W17923  13.269  22.567  14.310
52444W        W17924  23.991  30.566  11.434
52445W        W17925  21.644  32.597   1.435
52446W        W17926  26.964   7.748   3.670
52447W        W17927   2.884  24.215  13.948
52448W        W17928  19.591  40.468   0.387
52449W        W17929  32.394   5.347  12.095
52450W        W17930  40.475  43.390   2.687
52451W        W17931  23.654  32.965   1.221
52452W        W17932  40.530  35.105   2.889
52453W        W17933  32.436  11.250   2.384
52454W        W17934  13.351  14.672  12.928
52455W        W17935  17.605  19.135  12.456
52456W        W17936   3.336  10.735  14.922
52457W        W17937   9.773   8.889  12.891
52458W        W17938  18.591  43.371  12.910
52459W        W17939  40.986  25.965   3.775
52460W        W17940   1.247  20.111   3.720
52461W        W17941  24.650  35.933  13.431
52462W        W17942   6.195  14.270   0.847
52463W        W17943   6.321  38.985   0.784
52464W        W17944  10.718  21.722  14.950
52465W        W17945  18.776  23.000  10.997
52466W        W17946  25.030  37.534  14.486
52467W        W17947  42.779  42.475  14.322
52468W        W17948  38.535   8.350   3.814
52469W        W17949  41.378  31.626   2.390
52470W        W17950  42.868  14.591  13.015
52471W        W17951  35.367  20.221   4.311
52472W        W17952   2.794  22.209  14.326
52473W        W17953  10.216  34.474  12.520
52474W        W17954   4.831  11.165   1.316
52475W        W17955   9.271   2.915  12.919
52476W        W17956  10.850  30.486   2.777
52477W        W17957  15.691  39.418  12.375
52478W        W17958  21.623  20.766   2.259
52479W        W17959   9.310   3.321  11.966
52480W        W17960  33.903   2.859  11.121
52481W        W17961   5.389   1.733   2.310
52482W        W17962  16.178  35.961  11.374
52483W        W17963  38.399  19.631  11.580
52484W        W17964  10.256   8.895  13.033
52485W        W17965  40.964  41.462   0.314
52486W        W17966  35.060  25.186   4.735
52487W        W17967  42.935  43.997  14.834
52488W        W17968  21.217  37.470   4.773
52489W        W17969  33.626  36.911  10.419
52490W        W17970  11.845   8.764   5.094
52491W        W17971   1.387  39.864   2.733
52492W        W17972  20.192   5.895  13.333
52493W        W17973  40.542  30.611  11.526
52494W        W17974  13.166  43.862  14.307
52495W        W17975  31.119  10.227  14.375
52496W        W17976   4.294  21.135   3.240
52497W        W17977  20.523  39.014  12.003
52498W        W17978  33.063  43.805   2.406
52499W        W17979  35.905   0.979  12.850
52500W        W17980  42.328  34.918  14.385
52501W        W17981  15.748  25.019  11.968
52502W        W17982  10.311   0.303  10.421
52503W        W17983  19.135  32.413  12.052
52504W        W17984   0.299  36.972  10.904
52505W        W17985  33.454  28.581  13.522
52506W        W17986  34.545   1.740   2.199
52507W        W17987  24.195  24.180   2.828
52508W        W17988  32.495  12.823   1.433
52509W        W17989  14.267  37.041  11.498
52510W        W17990   7.768   2.952  12.370
52511W        W17991  32.052  43.851   1.354
52512W        W17992   4.810  38.373  12.455
52513W        W17993   4.890  44.808   1.807
52514W        W17994  42.957   6.356   0.833
52515W        W17995  41.428  13.631  14.759
52516W        W17996  43.798   4.258  11.119
52517W        W17997  24.601  27.005   2.706
52518W        W17998  29.597  17.650  14.457
52519W        W17999   8.332  42.467   0.887
52520W        W18000  42.937  23.152  13.526
52521W        W18001  17.723   8.352  13.546
52522W        W18002   6.259  15.688   4.830
52523W        W18003  10.341  32.540   4.634
52524W        W18004   5.904  21.656   3.185
52525W        W18005  24.028  12.691  13.861
52526W        W18006   6.342   1.910   4.670
52527W        W18007  11.136  20.177   4.266
52528W        W18008  18.137  37.340  13.973
52529W        W18009  13.294  13.822  11.607
52530W        W18010  44.372  34.075   4.231
52531W        W18011  27.983  33.033  14.954
52532W        W18012  10.267  40.512   4.276
52533W        W18013  16.228  37.883   4.128
52534W        W18014  17.748  28.940   2.715
52535W        W18015   8.406   2.870   4.634
52536W        W18016   7.414  39.555   4.128
52537W        W18017   1.837   2.373   2.677
52538W        W18018   2.942   9.830  13.948
52539W        W18019  30.002   8.784   0.773
52540W        W18020  15.817  18.722  11.957
52541W        W18021   8.397   5.425  13.493
52542W        W18022   9.167  34.875  14.794
52543W        W18023  18.150  15.763   0.424
52544W        W18024  35.365  11.823  10.963
52545W        W18025   2.270  25.131   5.205
52546W        W18026  41.293  44.992  10.982
52547W        W18027   7.756   7.314   0.436
52548W        W18028  31.081  24.682   2.227
52549W        W18029   7.382  31.077  11.388
52550W        W18030  14.156  25.049  11.992
52551W        W18031  38.365  22.092   0.754
52552W        W18032  20.654  29.053  13.530
52553W        W18033  35.502  38.557   1.887
52554W        W18034  30.609  42.391   9.645
52555W        W18035  14.644  12.818  10.992
52556W        W18036   7.175  38.447   3.307
52557W        W18037   3.459  21.063   0.772
52558W        W18038  16.300  40.472   1.932
52559W        W18039  15.823  21.147  13.348
52560W        W18040   7.343   6.331   4.204
52561W        W18041  28.627  25.647   4.709
52562W        W18042   5.270  42.420  11.982
52563W        W18043  43.399   2.903  10.943
52564W        W18044  12.656  24.516  11.903
52565W        W18045  32.446  11.762   2.813
52566W        W18046  28.551  44.276  11.012
52567W        W18047  15.193   7.867  13.829
52568W        W18048  12.646   1.899   3.718
52569W        W18049  23.200  18.666   4.790
52570W        W18050   4.367  28.941  12.883
52571W        W18051  36.089  44.940  13.881
52572W        W18052  42.346  25.051  11.866
52573W        W18053  28.090  22.550  10.450
52574W        W18054  14.678  40.006  12.575
52575W        W18055  20.573  37.365  11.506
52576W        W18056  23.132  36.381  10.964
52577W        W18057  33.530  14.198  13.971
52578W        W18058  13.807  36.916  13.026
52579W        W18059  44.473  30.123  10.503
52580W        W18060   9.169  29.611  14.277
52581W        W18061  13.193   9.712  13.827
52582W        W18062  34.972  44.768   2.664
52583W        W18063  42.300  12.155   1.793
52584W        W18064  24.019  34.906   3.820
52585W        W18065  28.101  32.568   0.886
52586W        W18066   3.915  34.455   3.315
52587W        W18067   1.316  14.700   0.918
52588W        W18068  13.660   0.457  11.582
52589W        W18069  11.221  41.375  14.426
52590W        W18070  32.542  12.319   0.296
52591W        W18071  20.565  19.269   1.882
52592W        W18072  34.524  37.376  14.356
52593W        W18073  16.195  10.752  10.528
52594W        W18074  18.679  22.600  11.535
52595W        W18075  15.728  24.148  11.490
52596W        W18076  42.430  33.474  14.851
52597W        W18077  38.023   5.789  10.422
52598W        W18078  15.189  21.604   3.189
52599W        W18079   0.857  11.699  11.084
52600W        W18080   2.910  15.708  13.906
52601W        W18081   2.343  23.583  12.022
52602W        W18082  35.920  24.541  12.901
52603W        W18083  39.847  20.648   3.172
52604W        W18084  34.439  22.679  13.321
52605W        W18085  19.096  22.064   0.328
52606W        W18086   7.175   4.715   0.422
52607W        W18087   8.187   7.738  12.055
52608W        W18088  37.461  36.396   2.199
52609W        W18089  29.666  28.992  11.549
52610W        W18090   3.769  41.854  11.949
52611W        W18091  11.776  14.783  11.952
52612W        W18092  33.044  14.264   2.820
52613W        W18093  31.068  34.024   3.792
52614W        W18094  36.055   1.420   2.785
52615W        W18095  13.831  11.154  12.342
52616W        W18096  22.099   4.714  10.454
52617W        W18097  19.571  14.629   1.407
52618W        W18098  38.494   5.863   3.227
52619W        W18099   6.224  24.530   0.759
52620W        W18100  31.957   8.661   5.224
52621W        W18101  27.119  31.423   2.664
52622W        W18102   0.261  27.605  13.036
52623W        W18103   4.766  43.386   0.460
52624W        W18104   3.313   8.885   4.774
52625W        W18105  39.475  43.381  13.458
52626W        W18106  27.179   0.346   0.400
52627W        W18107  35.052   5.325  13.818
52628W        W18108  32.462  38.892   0.463
52629W        W18109   2.453   1.478   2.215
52630W        W18110  42.341  19.584   2.382
52631W        W18111  32.090  19.278  11.591
52632W        W18112  21.604  28.504   4.835
52633W        W18113  16.279  10.281  12.368
52634W        W18114  27.107  28.143  12.058
52635W        W18115   4.440  23.684   0.322
52636W        W18116  43.319   8.857   0.340
52637W        W18117   8.370   4.366   1.275
52638W        W18118  36.429  26.629  13.324
52639W        W18119  12.263  31.531  12.420
52640W        W18120   9.367  30.957   3.707
52641W        W18121  31.509  32.979   2.230
52642W        W18122  34.507  33.022  13.970
52643W        W18123  32.561  40.018   2.828
52644W        W18124  44.494  16.620  12.388
52645W        W18125  40.956  35.859  13.904
52646W        W18126  19.208  35.022   2.320
52647W        W18127   8.385  13.800  12.866
52648W        W18128  22.019  10.877   4.734
52649W        W18129  16.261  28.667   1.868
52650W        W18130   5.248  12.633  13.370
52651W        W18131  11.739  28.178   4.319
52652W        W18132  36.412   1.780  10.418
52653W        W18133  18.112  36.926   0.293
52654W        W18134  11.347  37.507   0.372
52655W        W18135  23.560  34.586   3.732
52656W        W18136  15.272  40.542  10.612
52657W        W18137  20.139  37.435  13.935
52658W        W18138  14.599  11.654  12.068
52659W        W18139  28.504  33.544   4.325
52660W        W18140  28.550  26.610   3.817
52661W        W18141  16.073   5.746  11.900
52662W        W18142  10.236  11.139  13.802
52663W        W18143   0.957  15.160  12.957
52664W        W18144  44.827  21.652   0.397
52665W        W18145  15.602   6.906  13.957
52666W        W18146  38.457  38.834  14.434
52667W        W18147   2.808  16.571  13.025
52668W        W18148  34.386  19.538  13.982
52669W        W18149  37.862  18.717   5.101
52670W        W18150  19.577  19.633  13.444
52671W        W18151   5.691  28.046   4.775
52672W        W18152  28.521  32.589   2.729
52673W        W18153   4.366  31.003  11.500
52674W        W18154  26.697   3.795  10.630
52675W        W18155  21.620  10.879   3.870
52676W        W18156   5.855  22.195   2.213
52677W        W18157   1.333  40.886  10.957
52678W        W18158  19.139  43.514  10.963
52679W        W18159  37.483  29.450   1.897
52680W        W18160  26.532  22.067   2.731
52681W        W18161  17.571  37.911   3.711
52682W        W18162  41.956  43.394   2.326
52683W        W18163  38.341  11.173  11.927
52684W        W18164   1.466   1.364   2.738
52685W        W18165  17.612  39.376  11.497
52686W        W18166   6.209   5.872   1.735
52687W        W18167  16.243  15.591   4.266
52688W        W18168  32.548  12.845  13.360
52689W        W18169  39.860  19.066   0.299
52690W        W18170  25.542  25.519   0.279
52691W        W18171   4.826  18.065  10.936
52692W        W18172  39.889   3.219   2.713
52693W        W18173   6.423  26.156   4.333
52694W        W18174   5.824  33.550  12.525
52695W        W18175   0.830  36.430  10.029
52696W        W18176   0.276  42.876  14.949
52697W        W18177  10.767  23.064   0.749
52698W        W18178   3.217  25.025   3.820
52699W        W18179  22.660  28.618  12.013
52700W        W18180  43.365  38.014  11.089
52701W        W18181  33.600  33.984   2.297
52702W        W18182  44.810  41.991   0.895
52703W        W18183  28.162  35.023  11.105
52704W        W18184  33.951  33.909  11.430
52705W        W18185  42.320  42.928  11.120
52706W        W18186  14.691  29.102   4.161
52707W        W18187  34.497   1.325  11.959
52708W        W18188  39.950  12.141  11.949
52709W        W18189  11.722  25.091  10.420
52710W        W18190  18.640  34.446   9.933
52711W        W18191  17.766  43.499  10.944
52712W        W18192  41.946  12.647  10.935
52713W        W18193   4.408  38.527  12.085
52714W        W18194   7.876  36.453   0.961
52715W        W18195  40.444  22.689   2.857
52716W        W18196  15.273  10.665   3.735
52717W        W18197  17.695  30.142  13.441
52718W        W18198   0.383  15.092   0.426
52719W        W18199  35.547  18.689   3.219
52720W        W18200  44.330  26.494   3.652
52721W        W18201  11.241  24.052  14.815
52722W        W18202  20.531  18.747   3.359
52723W        W18203   4.370  40.811   2.788
52724W        W18204  34.908  19.153   0.934
52725W        W18205   3.450  26.623  12.060
52726W        W18206  35.396   4.363   3.251
52727W        W18207  17.689   7.748   0.376
52728W        W18208  26.576   8.387  11.603
52729W        W18209  29.104  15.732   0.839
52730W        W18210  25.962  33.892   1.302
52731W        W18211  18.554  17.139   4.272
52732W        W18212   4.915  33.568   3.649
52733W        W18213  11.349   8.883  11.592
52734W        W18214   6.258  30.036   4.642
52735W        W18215  27.961   5.774  13.514
52736W        W18216  13.756  38.983   2.883
52737W        W18217   7.208   1.354   0.827
52738W        W18218  13.793   0.262  10.601
52739W        W18219  22.069  37.476  13.979
52740W        W18220  41.419   3.714  14.794
52741W        W18221  15.798   9.347   3.817
52742W        W18222  24.577  23.732   1.447
52743W        W18223   0.275  16.245  11.938
52744W        W18224  35.073   4.844  12.824
52745W        W18225  19.078   7.409   2.716
52746W        W18226  39.927  39.955   3.721
52747W        W18227  34.920   3.765   1.902
52748W        W18228   7.349  11.633   3.793
52749W        W18229  30.467  41.000  10.942
52750W        W18230   2.727  37.027   1.761
52751W        W18231   1.243  19.193   2.672
52752W        W18232  21.624  23.714   3.766
52753W        W18233  16.751  37.054  10.412
52754W        W18234  10.848   9.329  12.443
52755W        W18235  21.127  14.608   3.670
52756W        W18236  29.652  21.108  12.917
52757W        W18237  39.053  41.392  14.402
52758W        W18238  35.984  41.482  11.962
52759W        W18239  20.548  32.484   1.883
52760W        W18240  14.682  20.056  10.610
52761W        W18241  28.004  13.336  11.426
52762W        W18242  27.551  15.115  12.029
52763W        W18243  44.930  44.850  13.807
52764W        W18244  33.100  41.864   2.828
52765W        W18245  23.034   3.804  10.926
52766W        W18246  23.002  15.194   0.940
52767W        W18247  34.092  33.382   4.710
52768W        W18248  43.814   9.388   2.724
52769W        W18249  15.150  20.236   2.244
52770W        W18250  26.596  14.302  12.404
52771W        W18251  33.418  31.554  13.891
52772W        W18252  34.894  19.044  11.898
52773W        W18253  33.020  23.656  13.940
52774W        W18254  22.162  39.345  11.517
52775W        W18255  10.674   8.822   2.259
52776W        W18256  24.662   9.351   1.722
52777W        W18257   4.925  40.011  12.079
52778W        W18258  28.948  27.502   1.919
52779W        W18259  27.076  20.128  14.944
52780W        W18260  24.043   2.733  13.924
52781W        W18261  38.000   7.268   2.857
52782W        W18262  12.332  25.054   0.926
52783W        W18263  27.624  26.507  12.022
52784W        W18264  20.094  36.353   3.737
52785W        W18265  22.688   9.278   2.786
52786W        W18266  24.718  21.606   1.832
52787W        W18267   1.816   0.752  13.012
52788W        W18268  34.501  16.790   0.444
52789W        W18269  44.934  25.026  13.921
52790W        W18270  29.024  25.707  12.508
52791W        W18271   5.293   1.755   4.817
52792W        W18272  23.111  13.778  12.360
52793W        W18273  14.683  15.158   4.601
52794W        W18274  39.365   2.956  10.633
52795W        W18275  13.816  23.502  11.033
52796W        W18276  19.649  24.152  13.544
52797W        W18277  26.648   3.888   1.284
52798W        W18278   7.271   1.950   0.935
52799W        W18279  25.486  40.000  11.031
52800W        W18280  40.899   1.321   1.892
52801W        W18281  35.419  18.611   3.814
52802W        W18282  37.341  35.028  11.477
52803W        W18283   0.960  34.460  14.408
52804W        W18284  25.594  18.181  13.444
52805W        W18285  27.106  41.999  11.040
52806W        W18286  14.210  36.092   1.922
52807W        W18287  35.561  38.032  13.509
52808W        W18288  35.519  33.008   4.126
52809W        W18289  17.135  37.009  11.033
52810W        W18290  43.991  26.511  11.576
52811W        W18291  17.151  25.163   3.708
52812W        W18292   1.366  15.754  12.387
52813W        W18293   2.381   8.680  12.881
52814W        W18294   6.901   4.268  12.887
52815W        W18295  14.600  39.369  10.538
52816W        W18296  43.009  15.254  13.311
52817W        W18297  43.944  30.653   2.873
52818W        W18298  38.525   1.952   1.387
52819W        W18299  23.017   9.763   4.341
52820W        W18300  42.979  44.451  12.374
52821W        W18301  16.604  38.400  10.590
52822W        W18302  38.358  33.545   3.153
52823W        W18303  32.138  24.074  11.856
52824W        W18304  38.541  36.529   1.443
52825W        W18305  32.583   3.378  12.865
52826W        W18306  16.677  38.483  13.938
52827W        W18307   2.325  27.014   0.447
52828W        W18308   6.320   3.870  12.569
52829W        W18309   4.798  29.164   4.276
52830W        W18310  29.457  15.746  14.336
52831W        W18311   8.886  25.123   4.672
52832W        W18312  18.225  28.482   2.675
52833W        W18313  39.348  30.472  12.552
52834W        W18314   6.370   8.203   1.803
52835W        W18315  35.562  27.523   2.848
52836W        W18316  38.909  17.774  13.936
52837W        W18317  35.873  32.416  12.826
52838W        W18318  16.658  11.686   4.637
52839W        W18319  33.112  21.698  14.454
52840W        W18320  17.165  18.257  10.903
52841W        W18321  41.389  35.583   1.920
52842W        W18322  30.071  43.310  10.968
52843W        W18323  34.887  11.858   0.821
52844W        W18324  38.830  10.812   3.374
52845W        W18325  40.884  40.957   3.217
52846W        W18326   3.877   3.872   4.205
52847W        W18327  35.908   9.315   0.419
52848W        W18328  15.269  33.874   0.363
52849W        W18329  16.258  32.019  14.340
52850W        W18330  36.041  30.160  14.860
52851W        W18331  20.139   3.224  12.832
52852W        W18332  24.064  26.564   0.821
52853W        W18333  33.470  27.982  14.972
52854W        W18334  30.088  29.439  14.813
52855W        W18335  29.175  32.432  11.914
52856W        W18336  30.951  14.137  12.580
52857W        W18337  13.826  39.838   4.712
52858W        W18338  37.074   5.210   2.672
52859W        W18339   8.659  34.109   2.305
52860W        W18340  19.776  36.388  10.947
52861W        W18341  34.868  27.524  11.535
52862W        W18342  28.453  36.514  14.303
52863W        W18343  35.540  17.737   1.811
52864W        W18344  19.567  30.916   2.324
52865W        W18345  42.443  10.672  12.095
52866W        W18346  34.464   1.807   0.748
52867W        W18347   0.318  21.640   2.180
52868W        W18348  42.797  30.487   0.895
52869W        W18349  14.140  34.479  12.482
52870W        W18350   7.363  44.282   1.932
52871W        W18351  27.555  29.113  14.487
52872W        W18352  11.204  16.782  14.919
52873W        W18353  20.603  20.215  10.904
52874W        W18354  18.172  28.039   2.237
52875W        W18355  13.709  29.449   3.349
52876W        W18356   2.767  22.655   4.198
52877W        W18357  20.690  37.540  14.831
52878W        W18358  20.744  17.745  13.506
52879W        W18359  29.995  39.061  14.389
52880W        W18360  15.226  31.969   0.402
52881W        W18361  29.438  31.936  13.430
52882W        W18362  44.468  19.742   3.684
52883W        W18363  26.121  24.648  11.013
52884W        W18364  42.489  10.859   3.379
52885W        W18365  11.341   6.891   0.391
52886W        W18366  20.199  37.382   3.340
52887W        W18367  26.583  23.542   1.697
52888W        W18368  19.193  44.825   0.405
52889W        W18369  13.687  31.008   2.663
52890W        W18370  25.108  42.401   3.725
52891W        W18371  41.991  26.010  12.943
52892W        W18372  32.070   9.243  14.502
52893W        W18373   5.385   8.344   2.745
52894W        W18374  40.413  37.411  10.151
52895W        W18375   4.910   8.185   2.204
52896W        W18376   6.425   6.225  10.503
52897W        W18377   3.764   8.753  10.133
52898W        W18378  23.162  19.775  13.872
52899W        W18379  27.491  15.246  14.921
52900W        W18380   1.860  10.858  11.927
52901W        W18381  16.087  41.366  14.971
52902W        W18382  35.083  21.652  10.987
52903W        W18383   6.215   8.735   2.746
52904W        W18384   8.764  37.030   2.741
52905W        W18385  16.797  23.121  14.329
52906W        W18386  41.796  26.546  13.037
52907W        W18387  35.580  33.057   3.333
52908W        W18388  26.535   6.691   4.725
52909W        W18389  19.103  41.423  11.539
52910W        W18390  15.235  40.956   2.375
52911W        W18391  30.026  14.239   4.267
52912W        W18392  17.676  33.454   5.267
52913W        W18393  13.646  30.974   0.910
52914W        W18394  42.406  21.739   0.267
52915W        W18395   2.755   7.822  12.873
52916W        W18396  42.329   8.686  11.418
52917W        W18397  31.075  21.247  14.391
52918W        W18398  36.527  12.320   2.369
52919W        W18399  37.990   0.770   1.893
52920W        W18400  36.492  39.060   0.332
52921W        W18401  33.943  23.120   2.257
52922W        W18402  22.122  32.519   4.651
52923W        W18403  16.643   2.844  10.952
52924W        W18404  32.998  22.576   2.199
52925W        W18405  25.072  18.270  14.338
52926W        W18406  16.646  13.706   1.290
52927W        W18407   7.912  27.529   1.359
52928W        W18408  18.269  27.562   0.264
52929W        W18409  29.506  38.026   1.891
52930W        W18410   3.450  37.067  14.377
52931W        W18411  20.247  14.706   0.261
52932W        W18412  37.462  15.091   4.698
52933W        W18413  37.347   1.934  13.536
52934W        W18414  44.375  38.952   2.322
52935W        W18415  18.255  28.438   0.303
52936W        W18416  20.048  33.496   3.846
52937W        W18417  18.294  22.573   2.672
52938W        W18418   6.816  22.526   2.224
52939W        W18419  10.224  11.672  10.977
52940W        W18420   0.316  29.015   4.797
52941W        W18421  15.240  17.163  13.381
52942W        W18422  30.519  36.404  13.494
52943W        W18423  20.138  42.992  12.574
52944W        W18424  39.351  13.699  11.566
52945W        W18425  27.006  34.475   0.361
52946W        W18426  24.713   1.322  10.591
52947W        W18427   4.748  11.155   5.258
52948W        W18428   8.262  17.723   3.682
52949W        W18429  22.070  13.341  14.462
52950W        W18430  17.618  18.279  11.974
52951W        W18431  20.196   4.842  14.779
52952W        W18432   1.319   0.375  10.431
52953W        W18433  26.545  41.449  14.344
52954W        W18434  31.576  36.583  13.822
52955W        W18435  36.489  44.436   2.417
52956W        W18436  40.356  19.621  12.487
52957W        W18437   1.914  20.722   0.739
52958W        W18438  10.711  32.137  14.009
52959W        W18439  12.792   9.669   2.751
52960W        W18440  25.687  26.180  11.402
52961W        W18441  22.669  27.032  13.796
52962W        W18442  23.079  43.948   4.118
52963W        W18443  44.502   8.752  14.378
52964W        W18444  18.170  28.498  13.980
52965W        W18445  11.297   9.387  14.431
52966W        W18446  42.913  41.533  10.011
52967W        W18447  37.474  14.234  13.050
52968W        W18448   4.848  30.109  14.366
52969W        W18449  31.475   4.701  13.007
52970W        W18450  39.033  42.511   0.399
52971W        W18451  25.066  41.505  10.586
52972W        W18452  35.516  23.520  12.405
52973W        W18453  38.569  27.628   1.419
52974W        W18454  28.664  41.849  12.343
52975W        W18455  17.168  43.277  10.495
52976W        W18456   2.745   4.773  10.565
52977W        W18457  18.179   4.447   2.357
52978W        W18458   5.882  16.684   1.322
52979W        W18459  19.664   7.271   4.600
52980W        W18460  16.218  19.741   4.152
52981W        W18461  32.549  26.532   4.760
52982W        W18462  40.447  28.132  10.424
52983W        W18463   7.303   3.758   2.704
52984W        W18464  34.108  42.848  13.046
52985W        W18465  12.641  29.990  11.985
52986W        W18466  40.972   1.384   4.250
52987W        W18467  38.365   1.959  12.083
52988W        W18468   1.429   4.218  11.910
52989W        W18469  10.208  33.567   1.777
52990W        W18470  33.887  27.508   3.702
52991W        W18471  27.164  21.160   4.687
52992W        W18472  29.947  28.672   4.227
52993W        W18473  23.157  32.628  11.921
52994W        W18474  43.793  18.149   1.705
52995W        W18475  23.516  28.509   0.926
52996W        W18476  11.625   8.236   3.163
52997W        W18477  18.120  23.073  10.999
52998W        W18478  42.410  36.565   3.713
52999W        W18479  30.646  11.250  11.048
53000W        W18480  44.280   8.690  10.567
53001W        W18481   1.949  28.549   4.617
53002W        W18482  40.417  29.652   2.285
53003W        W18483  27.670  32.604  11.098
53004W        W18484  25.200  19.117  14.375
53005W        W18485  30.598  15.606   4.226
53006W        W18486  23.090  43.468   2.232
53007W        W18487  15.758   8.683  11.908
53008W        W18488  34.418  18.618   1.733
53009W        W18489  34.076   6.792   1.725
53010W        W18490  30.920  24.122  13.539
53011W        W18491  44.384  42.437   4.699
53012W        W18492  13.686  41.434  11.089
53013W        W18493  41.026  15.731   1.718
53014W        W18494  34.608  32.943   2.304
53015W        W18495   2.952  21.585  10.542
53016W        W18496  19.055  24.705  13.889
53017W        W18497  28.085  16.791  14.796
53018W        W18498   5.866  16.129   1.864
53019W        W18499  29.626   8.726   4.671
53020W        W18500  44.827  44.358  10.956
53021W        W18501  43.348  38.041   4.642
53022W        W18502  25.565  32.898  14.996
53023W        W18503  28.467   8.753   4.239
53024W        W18504  37.367  38.001   0.744
53025W        W18505   8.717  22.676  14.844
53026W        W18506  22.527  22.606  14.002
53027W        W18507  42.471  42.514  11.504
53028W        W18508  24.714  34.075   3.248
53029W        W18509   7.301   9.710  12.840
53030W        W18510  24.161  43.016  11.606
53031W        W18511   2.884  32.543  10.058
53032W        W18512  30.033  11.791  10.500
53033W        W18513  19.593  21.572  12.008
53034W        W18514  36.491  14.193  13.001
53035W        W18515   3.335  39.040  11.126
53036W        W18516  10.344  39.827   9.936
53037W        W18517  36.918  27.598  10.540
53038W        W18518  39.462  44.385   1.361
53039W        W18519  29.494   2.925   3.673
53040W        W18520  25.685   5.893  11.862
53041W        W18521  34.051  31.019   1.442
53042W        W18522  33.502   0.950  12.918
53043W        W18523  11.648  39.385   4.680
53044W        W18524  15.314  15.255   2.410
53045W        W18525  25.142   7.824  12.870
53046W        W18526  10.723  41.384  11.100
53047W        W18527   7.785  30.139  10.534
53048W        W18528   4.379  37.047  14.882
53049W        W18529  40.410  38.571   1.706
53050W        W18530   7.293  44.968   4.256
53051W        W18531  25.490   4.864   2.194
53052W        W18532  26.062  32.913  14.495
53053W        W18533  37.006   9.334  13.969
53054W        W18534  32.034  29.062   2.228
53055W        W18535  25.124  20.693   4.765
53056W        W18536   8.338  29.002   2.323
53057W        W18537  27.078  22.598  13.525
53058W        W18538  28.663  32.571   0.829
53059W        W18539  31.576  13.640  11.090
53060W        W18540  16.307  32.409   4.300
53061W        W18541  23.167   0.333  10.561
53062W        W18542  23.137  42.805   9.922
53063W        W18543  35.407  19.268   4.125
53064W        W18544  12.786  31.073  12.371
53065W        W18545  39.983  33.122  12.046
53066W        W18546  24.027  41.903  10.535
53067W        W18547  43.359   0.436   4.339
53068W        W18548  32.490   5.284   1.308
53069W        W18549  29.444  15.278   2.814
53070W        W18550  11.236  31.063   2.254
53071W        W18551  23.154  42.352  14.433
53072W        W18552  18.281  19.051   3.704
53073W        W18553  29.011  22.512  10.910
53074W        W18554  39.808   5.781  13.874
53075W        W18555  26.206   9.785  12.570
53076W        W18556  14.770  37.545   2.229
53077W        W18557  24.126  22.519  14.764
53078W        W18558  37.852  42.423   3.861
53079W        W18559  33.112  31.579  11.027
53080W        W18560  10.174  36.940  12.087
53081W        W18561  42.522  19.769  12.904
53082W        W18562  37.943  33.889   2.394
53083W        W18563  35.593  36.567  12.394
53084W        W18564  35.926  19.103   3.781
53085W        W18565  36.944  13.695  13.449
53086W        W18566  14.690   8.721   4.348
53087W        W18567   8.900   1.429   2.306
53088W        W18568  28.553  21.657  11.480
53089W        W18569  35.926  24.670   0.924
53090W        W18570  34.556  25.187   4.299
53091W        W18571  34.033  39.526  11.501
53092W        W18572  27.660   7.757  11.555
53093W        W18573  39.535   8.836   0.951
53094W        W18574  25.535  26.495   3.202
53095W        W18575  15.290  26.631  13.530
53096W        W18576  31.592   3.748   1.438
53097W        W18577   2.347  28.946   0.796
53098W        W18578  28.106  34.027  11.065
53099W        W18579  36.352  35.106   4.649
53100W        W18580  36.007  14.771  13.320
53101W        W18581   5.849   9.799   0.476
53102W        W18582  36.438  12.151  13.465
53103W        W18583  36.034   1.786   0.269
53104W        W18584  15.101  20.073  13.035
53105W        W18585  15.277  13.178   3.262
53106W        W18586   5.339  33.123   4.705
53107W        W18587  26.667  31.014  14.441
53108W        W18588  12.231  43.795  10.541
53109W        W18589  25.676  39.353  12.569
53110W        W18590  15.146  39.340   3.231
53111W        W18591   1.303  29.953   2.212
53112W        W18592  30.029  30.656  13.813
53113W        W18593  37.868  11.658   4.631
53114W        W18594  38.570  35.028   0.351
53115W        W18595  25.102   4.288  14.023
53116W        W18596   6.744  31.993  14.849
53117W        W18597  12.673  27.484   3.334
53118W        W18598   9.184   8.721  10.907
53119W        W18599  16.213  37.342   3.725
53120W        W18600  28.557   9.272  12.073
53121W        W18601  36.856   3.272   4.663
53122W        W18602   2.955  24.093   1.786
53123W        W18603  15.822   8.888   1.259
53124W        W18604   9.186  37.554   9.975
53125W        W18605   6.428  28.498  12.511
53126W        W18606  38.894  29.532  10.445
53127W        W18607  23.088  43.018  14.883
53128W        W18608  13.309  39.395   0.957
53129W        W18609   8.185   8.397   0.437
53130W        W18610  43.842  39.334  12.481
53131W        W18611  41.446  22.158   0.940
53132W        W18612  38.417  13.231   3.773
53133W        W18613  42.840  33.101   0.770
53134W        W18614  21.213  32.027  14.028
53135W        W18615   4.713  35.910   4.133
53136W        W18616  24.078   9.883   2.680
53137W        W18617  28.646  39.395   4.806
53138W        W18618  32.988  35.062  11.988
53139W        W18619   7.755  39.379  10.449
53140W        W18620  19.099  30.421  12.455
53141W        W18621  22.617   6.354   4.646
53142W        W18622   4.807  14.734   4.331
53143W        W18623  12.338  15.311  14.332
53144W        W18624   5.310  29.055  10.452
53145W        W18625  34.502  13.764  13.546
53146W        W18626  15.808  35.530   2.401
53147W        W18627  32.969  38.341   0.762
53148W        W18628  41.458  16.159  10.941
53149W        W18629  16.083   9.740   0.840
53150W        W18630  14.181  20.242  11.535
53151W        W18631  30.163  42.325   4.337
53152W        W18632  30.120  10.377   0.762
53153W        W18633   7.753  18.170   3.727
53154W        W18634  39.493   3.411   4.630
53155W        W18635  19.728  12.720  11.450
53156W        W18636   4.446  34.940  14.963
53157W        W18637  34.585  36.557  12.389
53158W        W18638  34.047  43.463  10.890
53159W        W18639  14.775  34.108  11.876
53160W        W18640  35.992  13.163  13.537
53161W        W18641  43.867  32.494   1.874
53162W        W18642  34.994  41.918   2.278
53163W        W18643   1.865  35.528   3.258
53164W        W18644  15.140  15.692   0.473
53165W        W18645   3.358   7.811   1.846
53166W        W18646   4.356  43.854  10.437
53167W        W18647   7.346   5.913   4.781
53168W        W18648   8.785  34.035   2.783
53169W        W18649  21.601  13.219  12.870
53170W        W18650  23.730  30.444   5.220
53171W        W18651   5.382   5.852   3.677
53172W        W18652  32.943  32.422  11.029
53173W        W18653   6.921  26.687   0.334
53174W        W18654  38.903  36.556  10.939
53175W        W18655   5.392  34.036  12.998
53176W        W18656  27.162   6.256   2.849
53177W        W18657  17.724  17.252  10.894
53178W        W18658  35.036  19.090  14.891
53179W        W18659  40.811  16.678  12.497
53180W        W18660  41.462  17.727   2.313
53181W        W18661  44.968  26.529  11.114
53182W        W18662  30.115  14.312  14.299
53183W        W18663  23.137   4.778  12.401
53184W        W18664  36.390  44.000   0.804
53185W        W18665  24.974  39.321   0.965
53186W        W18666   1.919  13.218  10.969
53187W        W18667  25.202  31.626   3.263
53188W        W18668  43.400   4.315  10.073
53189W        W18669  18.689  41.839  12.551
53190W        W18670  29.438  24.987  10.899
53191W        W18671   1.776  13.238   5.226
53192W        W18672  30.430  15.811  10.503
53193W        W18673  37.974  26.527   4.296
53194W        W18674  23.496   9.870   3.252
53195W        W18675  25.593  40.413   3.347
53196W        W18676  17.561  34.468  13.998
53197W        W18677  17.783  25.471  13.469
53198W        W18678   4.825   2.881   0.358
53199W        W18679   8.767   9.352  13.019
53200W        W18680  32.902  17.294  10.959
53201W        W18681  15.700   3.456   3.755
53202W        W18682  37.524  36.528  10.554
53203W        W18683  15.734  12.623  10.597
53204W        W18684  38.902  17.752  11.453
53205W        W18685  12.248  31.411   0.779
53206W        W18686  25.508  27.678  12.048
53207W        W18687   8.795  17.799  13.348
53208W        W18688  16.160   0.879   3.219
53209W        W18689   9.163  43.361  11.394
53210W        W18690  20.584   4.326  11.398
53211W        W18691   4.279  38.898  13.042
53212W        W18692  14.328  14.302  11.970
53213W        W18693  39.895  44.769   3.800
53214W        W18694  38.067  15.286   2.755
53215W        W18695  19.065   0.894  10.425
53216W        W18696  11.798  31.922  13.317
53217W        W18697  10.657  25.104  13.361
53218W        W18698  25.213   0.468   1.753
53219W        W18699   3.950   5.833   4.706
53220W        W18700  38.330  29.459   0.465
53221W        W18701  10.181  12.119  14.761
53222W        W18702  20.691  19.124  13.019
53223W        W18703  22.024  35.396   1.355
53224W        W18704  29.943   7.266   2.361
53225W        W18705  23.726  14.604  11.531
53226W        W18706   6.803  11.128  12.530
53227W        W18707  15.714   1.912   3.152
53228W        W18708  23.237  36.088   3.320
53229W        W18709  35.373  43.400   3.312
53230W        W18710   6.221  38.567  11.584
53231W        W18711  18.112   0.290  11.542
53232W        W18712   4.323  39.533  12.837
53233W        W18713  34.932  27.522  14.917
53234W        W18714  26.681  25.609  11.378
53235W        W18715  38.056  22.502  10.585
53236W        W18716  37.533   5.783   4.318
53237W        W18717  21.679  31.954  13.016
53238W        W18718  25.214  39.025  13.920
53239W        W18719  10.709  22.130   0.820
53240W        W18720  36.390  26.960  10.452
53241W        W18721  27.051  11.327   4.648
53242W        W18722  25.664  21.661   2.732
53243W        W18723  27.011  27.601  10.888
53244W        W18724   0.953  36.428   4.245
53245W        W18725   8.864  42.026   4.742
53246W        W18726   3.765  28.651  14.449
53247W        W18727  12.822   3.259  14.990
53248W        W18728  43.504  33.060   1.440
53249W        W18729   3.445   0.818   3.332
53250W        W18730  23.223  40.867  12.927
53251W        W18731  28.673  42.400  13.367
53252W        W18732   2.872  17.752   4.774
53253W        W18733   7.692  11.306   2.693
53254W        W18734   3.905  39.973  14.855
53255W        W18735   5.277  43.912  10.619
53256W        W18736   9.305   5.856  11.593
53257W        W18737  11.205  31.077   2.774
53258W        W18738  31.491  25.199  12.907
53259W        W18739  11.295  41.365   2.871
53260W        W18740  24.692  35.509  13.346
53261W        W18741   8.817  16.712  14.376
53262W        W18742   7.860  43.278   1.916
53263W        W18743  25.993   9.159   4.744
53264W        W18744  17.101  29.969   3.323
53265W        W18745   8.817   1.777   4.211
53266W        W18746  42.814  35.535  11.611
53267W        W18747  38.985  11.739   3.637
53268W        W18748  18.742  32.492  12.372
53269W        W18749  18.565   4.751   1.848
53270W        W18750  25.675  32.564  13.946
53271W        W18751  20.635   7.265  10.551
53272W        W18752   4.758  39.963  10.124
53273W        W18753  21.650  43.802   1.718
53274W        W18754   0.813   2.966  13.433
53275W        W18755  34.985  10.282  13.435
53276W        W18756  11.249  36.506   2.873
53277W        W18757  14.741  41.303  13.370
53278W        W18758  37.999   6.208  14.319
53279W        W18759  38.877  44.260  12.848
53280W        W18760   7.711  31.065  11.388
53281W        W18761  44.940   8.161  14.423
53282W        W18762  39.329  23.058   1.886
53283W        W18763  15.217  10.242   4.326
53284W        W18764  16.810  29.507   1.243
53285W        W18765  38.938  27.055  13.940
53286W        W18766  25.213  21.044  14.952
53287W        W18767  27.605  30.139  13.407
53288W        W18768  10.717  37.079  12.561
53289W        W18769  17.663  43.412  11.450
53290W        W18770   6.916   0.912  11.979
53291W        W18771  27.072   6.233  10.486
53292W        W18772  41.440  31.956   0.952
53293W        W18773  13.743  39.549  10.988
53294W        W18774  27.583   4.711   0.881
53295W        W18775  12.167   6.354   0.864
53296W        W18776  12.643   1.332  13.390
53297W        W18777  21.079  25.640   3.781
53298W        W18778  38.060  35.575   4.190
53299W        W18779  36.879  15.653   2.841
53300W        W18780   7.792  30.508  12.870
53301W        W18781  28.647  37.581   3.283
53302W        W18782   7.831  30.024   3.726
53303W        W18783  42.429  14.686   2.195
53304W        W18784  34.441  16.093  12.543
53305W        W18785  37.562  41.870  12.876
53306W        W18786  14.241  21.027   4.722
53307W        W18787  31.444   3.236   4.306
53308W        W18788  39.905  11.636   1.908
53309W        W18789  44.372  13.623   2.250
53310W        W18790  11.799  42.780  10.618
53311W        W18791  26.596  32.552  14.513
53312W        W18792  37.417  33.951   4.791
53313W        W18793  24.615  24.144   1.851
53314W        W18794   2.227  11.767   4.284
53315W        W18795  23.554  38.329   4.622
53316W        W18796  18.106  22.699   3.280
53317W        W18797   7.891  15.602  11.914
53318W        W18798   4.732  10.305   0.935
53319W        W18799  13.682  21.148  11.958
53320W        W18800   2.313  37.994  12.451
53321W        W18801  41.804  39.314  13.512
53322W        W18802  35.376   1.889  14.508
53323W        W18803  43.362  24.112   4.347
53324W        W18804  38.481   2.887   0.847
53325W        W18805   6.733  15.733   0.732
53326W        W18806  28.956  41.894   0.247
53327W        W18807  28.136  22.159  10.554
53328W        W18808  30.475  38.842   0.806
53329W        W18809  22.656  10.670  13.800
53330W        W18810  32.489  20.647  12.915
53331W        W18811  39.390  11.783  10.149
53332W        W18812  43.497   1.456  13.941
53333W        W18813  24.681  38.905  14.778
53334W        W18814  36.587  25.531   2.206
53335W        W18815  32.031  43.467   2.707
53336W        W18816  24.608  24.523   0.884
53337W        W18817  35.584  22.642  10.900
53338W        W18818  28.520   9.873   3.795
53339W        W18819  18.600  19.699   4.800
53340W        W18820  29.649   1.752   3.766
53341W        W18821  41.940  13.187   4.751
53342W        W18822  32.636  22.097   3.212
53343W        W18823  43.958  42.304  13.812
53344W        W18824  18.552   6.885  11.871
53345W        W18825  14.595  25.205  10.586
53346W        W18826   5.197  35.929  14.318
53347W        W18827   0.967  24.493  12.449
53348W        W18828  36.055  12.774  13.319
53349W        W18829  36.579  19.711   3.202
53350W        W18830  18.598  43.840   2.885
53351W        W18831  42.394   8.697   0.251
53352W        W18832  31.152   4.721  14.351
53353W        W18833  18.106   8.782   0.942
53354W        W18834   8.871  29.976  11.949
53355W        W18835   9.645  10.322  14.393
53356W        W18836   7.269   1.815   3.203
53357W        W18837   0.863   5.416  13.871
53358W        W18838  18.086  42.454  11.890
53359W        W18839  28.593   1.415   2.317
53360W        W18840  23.656   6.338  12.541
53361W        W18841  43.444  35.976   0.839
53362W        W18842  12.192  30.988  10.540
53363W        W18843  28.128  27.597   4.728
53364W        W18844  15.122  22.023  11.089
53365W        W18845  36.577  14.283   0.275
53366W        W18846  23.548  29.161  10.608
53367W        W18847   9.291  11.777   2.328
53368W        W18848  36.919  32.889  14.978
53369W        W18849  44.473  29.605  11.554
53370W        W18850  34.483   8.377  11.002
53371W        W18851   7.409  12.657   4.795
53372W        W18852  13.227  44.469  14.983
53373W        W18853  20.221   9.353  12.886
53374W        W18854   8.245  14.326  11.041
53375W        W18855  31.622  31.611   4.211
53376W        W18856  26.648  39.534   2.816
53377W        W18857  18.554   2.398  12.378
53378W        W18858  28.460  32.567   1.807
53379W        W18859  35.543  27.543   3.330
53380W        W18860  41.437   3.901  10.976
53381W        W18861  22.028  30.457   4.611
53382W        W18862  23.182  40.013   1.872
53383W        W18863  17.217  19.053   1.381
53384W        W18864  22.692  18.578   2.732
53385W        W18865   3.461  12.226  12.897
53386W        W18866  11.769  15.607  11.401
53387W        W18867   4.851  18.646  11.373
53388W        W18868  35.906  36.972  14.349
53389W        W18869  11.644  11.626  11.523
53390W        W18870  44.278  24.053  14.363
53391W        W18871  40.370   8.818  11.044
53392W        W18872  15.749  30.595   4.181
53393W        W18873  32.131  17.571   0.346
53394W        W18874  35.977  13.340   0.414
53395W        W18875  12.760  22.130   3.788
53396W        W18876   4.769   8.747   0.742
53397W        W18877  20.665  14.770  13.979
53398W        W18878   8.279  18.064   4.225
53399W        W18879   9.654   8.225  13.355
53400W        W18880   8.762  21.213   0.407
53401W        W18881  37.440  26.083   1.900
53402W        W18882   9.739  22.561  11.401
53403W        W18883  35.510   7.736   1.230
53404W        W18884  37.403  37.413   3.683
53405W        W18885  24.482  14.604   3.328
53406W        W18886  14.630  35.411  11.427
53407W        W18887  21.748  38.871  10.474
53408W        W18888   6.869  26.640   3.698
53409W        W18889  25.091   1.451   0.410
53410W        W18890  27.095  14.820   2.774
53411W        W18891  35.923  25.112  12.004
53412W        W18892  37.432  23.113  11.378
53413W        W18893   9.779  26.121  11.944
53414W        W18894  36.072  32.436  13.825
53415W        W18895  26.191  28.520  11.520
53416W        W18896  19.681  33.015  13.953
53417W        W18897  22.641  24.104  12.345
53418W        W18898  14.787  28.031   0.966
53419W        W18899  17.660  23.595   0.782
53420W        W18900  30.071  22.035   4.812
53421W        W18901  13.664   3.911  11.856
53422W        W18902  10.234  41.813   0.468
53423W        W18903   3.354  23.678   1.450
53424W        W18904  30.490  29.555  14.480
53425W        W18905   0.485   0.964  12.513
53426W        W18906   9.350  40.830   3.685
53427W        W18907  13.114  44.766  11.026
53428W        W18908   5.394  44.450   1.250
53429W        W18909   5.226  31.900  10.068
53430W        W18910  40.987  41.882   0.796
53431W        W18911  43.960  35.896  12.381
53432W        W18912  35.092  21.206   4.712
53433W        W18913  18.123  28.641  11.089
53434W        W18914  25.597  34.906   2.241
53435W        W18915  16.281  29.549   4.194
53436W        W18916  29.576  15.247   3.262
53437W        W18917  38.837  25.584   3.785
53438W        W18918  28.455  10.707  11.065
53439W        W18919   6.715   7.740  13.337
53440W        W18920  39.482  34.101  12.911
53441W        W18921  37.031   7.311  11.414
53442W        W18922  15.822   2.918  12.867
53443W        W18923  11.821   0.856   1.317
53444W        W18924   7.760   2.267  12.967
53445W        W18925  33.005  23.128   1.389
53446W        W18926  29.931   7.869  12.382
53447W        W18927  22.526  21.741  12.382
53448W        W18928   1.931  18.693   0.755
53449W        W18929  37.406  42.819  14.010
53450W        W18930  15.800  24.717  14.998
53451W        W18931  19.713  43.510  11.004
53452W        W18932  27.003  24.222  11.543
53453W        W18933   0.961  11.717   1.846
53454W        W18934  23.087  16.671   1.329
53455W        W18935  22.248   2.304  10.478
53456W        W18936  22.639  40.512   3.743
53457W        W18937  18.215   9.727  11.979
53458W        W18938   0.842   2.867   3.679
53459W        W18939  14.161   9.329  12.084
53460W        W18940  28.681   0.462  13.846
53461W        W18941   1.420  17.743  13.064
53462W        W18942   5.291  31.449  13.045
53463W        W18943   4.702  23.182   0.349
53464W        W18944   7.715  36.878  14.430
53465W        W18945  15.212  15.302  10.612
53466W        W18946  27.617  37.830  11.881
53467W        W18947  11.642  18.074   2.357
53468W        W18948  29.935   7.806   4.353
53469W        W18949  44.818   5.888   3.343
53470W        W18950  35.919  19.181  10.892
53471W        W18951  18.092  33.476  13.547
53472W        W18952  40.930  28.490   1.377
53473W        W18953  13.725   4.785   4.763
53474W        W18954  39.043  41.496   3.153
53475W        W18955  33.075  29.514  10.500
53476W        W18956   5.323  17.293  10.026
53477W        W18957  19.168  13.704  12.485
53478W        W18958   9.851  33.479  10.424
53479W        W18959   8.177  39.396   0.751
53480W        W18960  23.692  29.451   4.687
53481W        W18961  30.988  22.719  11.068
53482W        W18962   6.369  27.188   2.700
53483W        W18963  29.440  33.883  13.007
53484W        W18964   2.750   8.669   4.707
53485W        W18965  22.582  21.663   0.291
53486W        W18966  22.522  34.879  12.483
53487W        W18967  41.361   7.749  10.960
53488W        W18968  30.507   3.813   3.725
53489W        W18969  20.631  36.433   0.760
53490W        W18970  21.112   8.177  11.396
53491W        W18971  24.081  20.750   1.817
53492W        W18972  22.106  28.132  13.017
53493W        W18973  19.768  31.078   0.367
53494W        W18974  13.746   2.804   1.366
53495W        W18975  31.404  37.889  12.955
53496W        W18976  19.724  28.981   2.233
53497W        W18977  39.895  29.936  12.441
53498W        W18978  17.199   8.846   0.429
53499W        W18979  18.679   0.317   4.767
53500W        W18980  34.889  37.426  10.964
53501W        W18981  14.155   6.788   3.221
53502W        W18982   2.230  10.737   1.738
53503W        W18983   3.861  20.119  10.548
53504W        W18984  30.559  19.278   3.694
53505W        W18985   6.428   5.413   0.874
53506W        W18986   0.251  36.906   3.337
53507W        W18987  10.208  10.212   0.354
53508W        W18988  13.651  36.862   2.262
53509W        W18989   4.423  16.227  10.487
53510W        W18990  10.725  42.775  13.040
53511W        W18991  23.176  27.521   4.165
53512W        W18992  10.313   3.260   9.994
53513W        W18993  20.207  20.704  14.893
53514W        W18994  21.219   2.373  13.967
53515W        W18995  41.940  41.322   0.861
53516W        W18996  22.109  20.641  13.889
53517W        W18997  21.746  29.152  11.122
53518W        W18998   4.713  23.088   0.917
53519W        W18999  38.325  30.998   2.267
53520W        W19000  18.157  11.149  13.318
53521W        W19001  35.007  43.784  14.975
53522W        W19002  17.287  10.257   4.644
53523W        W19003  25.045  26.136   0.842
53524W        W19004  14.744  34.514  14.966
53525W        W19005  27.192  15.712  11.486
53526W        W19006  20.115  44.269  13.899
53527W        W19007  21.180  18.203   4.689
53528W        W19008  19.237  23.570   5.237
53529W        W19009  11.237  17.196   2.705
53530W        W19010  19.147   7.377  11.969
53531W        W19011   4.915  41.401   0.826
53532W        W19012  36.439  33.409   1.218
53533W        W19013   4.912   5.871   0.391
53534W        W19014   4.372  20.557   4.339
53535W        W19015  36.472  31.547  14.844
53536W        W19016  38.533  10.303  13.353
53537W        W19017  34.541  17.571  12.944
53538W        W19018   0.788  18.622  14.027
53539W        W19019  25.494  16.112  13.903
53540W        W19020  32.586  38.883   0.965
53541W        W19021  11.274  19.166  12.860
53542W        W19022  18.166  17.656  14.412
53543W        W19023   0.941  16.698  14.031
53544W        W19024  31.454   6.801  10.959
53545W        W19025  27.049   6.294  12.371
53546W        W19026  19.763  11.798  14.020
53547W        W19027   5.792  10.298   4.287
53548W        W19028  19.656  14.302  14.023
53549W        W19029  43.494  15.273  12.533
53550W        W19030  35.961  10.750  12.851
53551W        W19031  18.146  37.979   1.266
53552W        W19032  33.935  42.480  12.512
53553W        W19033  25.135  26.134   0.250
53554W        W19034  28.506  16.138   2.873
53555W        W19035  33.033  43.905   1.424
53556W        W19036   0.414  21.582  13.344
53557W        W19037  40.329  20.654  13.361
53558W        W19038   7.760   7.386   1.405
53559W        W19039  10.689  43.438   0.811
53560W        W19040  17.578  18.553  13.493
53561W        W19041   4.295  17.187   0.959
53562W        W19042  35.053  39.989   2.179
53563W        W19043   1.891  29.084  11.027
53564W        W19044  43.498  32.431   1.927
53565W        W19045  38.570  22.612  12.579
53566W        W19046  22.018  34.073  13.018
53567W        W19047  23.567  29.502  13.951
53568W        W19048  42.515   9.268   0.895
53569W        W19049  26.097   4.912  12.481
53570W        W19050  20.269  11.680   1.213
53571W        W19051   6.354  13.324  13.830
53572W        W19052  44.456  37.533   4.764
53573W        W19053   2.792  35.593  12.562
53574W        W19054   4.924  37.971  13.547
53575W        W19055  25.578  21.048  10.480
53576W        W19056  44.447  25.692   1.421
53577W        W19057  30.592  22.638  11.962
53578W        W19058  26.519  25.156   2.734
53579W        W19059  18.697   8.302  13.841
53580W        W19060   5.916  11.299  14.797
53581W        W19061  19.207  39.960   1.306
53582W        W19062   2.358  39.849  14.841
53583W        W19063  27.614  39.867  11.908
53584W        W19064   3.730  12.623   4.670
53585W        W19065  30.559  39.330  12.480
53586W        W19066   6.386  23.598   9.999
53587W        W19067   8.746   9.704   3.308
53588W        W19068  39.876  35.878  11.025
53589W        W19069  10.376  21.528  12.481
53590W        W19070  17.180   9.663  12.369
53591W        W19071  29.035  33.552   3.647
53592W        W19072  28.526  37.453   0.870
53593W        W19073  25.009  11.306  10.900
53594W        W19074  41.303  13.276  14.282
53595W        W19075   9.261  26.963   3.366
53596W        W19076  11.333  28.536   4.283
53597W        W19077   4.891  21.719   2.847
53598W        W19078  29.663  33.512   2.875
53599W        W19079  35.404  37.374  14.362
53600W        W19080   4.767  30.642   2.326
53601W        W19081  41.335  14.221   3.184
53602W        W19082  12.167  33.516   0.823
53603W        W19083   6.301   0.371  11.517
53604W        W19084  11.639  29.141  10.944
53605W        W19085   2.294  30.065   1.908
53606W        W19086  22.229   9.249  13.378
53607W        W19087  11.176  26.966  13.346
53608W        W19088  23.011  44.315  13.995
53609W        W19089  17.734  42.303   0.797
53610W        W19090  16.629  24.052   0.470
53611W        W19091  31.424   1.778   3.715
53612W        W19092  43.484   1.846  11.499
53613W        W19093  32.397   8.752   2.219
53614W        W19094  18.691   8.812  12.471
53615W        W19095  10.747  33.047   4.609
53616W        W19096  19.047   0.371   4.712
53617W        W19097   3.265  40.889   0.885
53618W        W19098  32.918  26.201   2.815
53619W        W19099  12.758  24.623   3.326
53620W        W19100  44.328   4.814  14.389
53621W        W19101  12.154  36.366   0.408
53622W        W19102  28.642  20.096  11.471
53623W        W19103  15.691   6.907  12.493
53624W        W19104  22.652  28.161  13.520
53625W        W19105   4.939  27.683   1.328
53626W        W19106  17.796  37.557   2.276
53627W        W19107  11.156  29.548   4.269
53628W        W19108  24.990   7.866   2.899
53629W        W19109  15.252  40.046   4.666
53630W        W19110  15.126  12.119   5.634
53631W        W19111   8.692   3.340  12.990
53632W        W19112   8.886  37.915  13.874
53633W        W19113  14.319   1.407  11.457
53634W        W19114  39.825  42.007  12.936
53635W        W19115  10.661  15.256  12.860
53636W        W19116   5.904   6.838  10.971
53637W        W19117  25.701  26.136   1.859
53638W        W19118   2.398  10.240  13.388
53639W        W19119  16.698  27.584  12.837
53640W        W19120  14.738  18.135   0.852
53641W        W19121  29.648  31.052   3.332
53642W        W19122   2.738  33.525   2.801
53643W        W19123  42.927  15.771   2.243
53644W        W19124  43.386   7.820   4.749
53645W        W19125  24.224  29.536   2.849
53646W        W19126  19.110  13.276   1.705
53647W        W19127  37.913  44.280  12.980
53648W        W19128  23.701  43.766   1.715
53649W        W19129  17.601  21.632  11.085
53650W        W19130  29.033  41.990  14.825
53651W        W19131  42.841  19.274   1.367
53652W        W19132  11.813  31.969  12.414
53653W        W19133  18.657   0.952   4.693
53654W        W19134  13.636  15.238  11.034
53655W        W19135   8.291  28.016   2.215
53656W        W19136  34.505  24.558  11.092
53657W        W19137  41.450  11.255   3.861
53658W        W19138  25.090  42.338  10.618
53659W        W19139  29.954  36.977  10.417
53660W        W19140  24.625  15.189   3.282
53661W        W19141  41.973  17.162   2.811
53662W        W19142  25.041  33.457  14.834
53663W        W19143  15.631   6.418  14.391
53664W        W19144   8.728  10.301  13.380
53665W        W19145  34.516  13.765   1.867
53666W        W19146   3.739  11.846  12.861
53667W        W19147  11.716   8.198  11.879
53668W        W19148   8.864  42.402  13.497
53669W        W19149  22.096  24.042  14.363
53670W        W19150  33.924   2.844   1.223
53671W        W19151  35.948  38.925   0.368
53672W        W19152  39.861  35.962  14.798
53673W        W19153  39.435   4.776   3.158
53674W        W19154  31.997   0.388  11.996
53675W        W19155  15.182   7.209   1.367
53676W        W19156  10.866  33.383  12.534
53677W        W19157  15.268   0.855   0.966
53678W        W19158  24.142  27.057  10.471
53679W        W19159  21.116  11.653   2.785
53680W        W19160  16.614  34.018  13.060
53681W        W19161  35.489  41.881  11.417
53682W        W19162  40.922  30.987   0.396
53683W        W19163  14.142  14.215   1.822
53684W        W19164  41.342  22.205   2.322
53685W        W19165  11.209   5.735   2.289
53686W        W19166  23.710   6.709  14.904
53687W        W19167  27.034   3.352  12.041
53688W        W19168  18.236  14.220   0.870
53689W        W19169   0.269  25.664  12.092
53690W        W19170  43.947  34.492   3.868
53691W        W19171  18.257  27.056  13.350
53692W        W19172  35.895  16.161   0.846
53693W        W19173   4.799  22.227  13.806
53694W        W19174   4.364   0.958  14.906
53695W        W19175   3.342  23.645  14.472
53696W        W19176  17.088  36.453   4.692
53697W        W19177  15.108   3.233   3.278
53698W        W19178  34.093  35.561   2.398
53699W        W19179  29.164   8.716   4.757
53700W        W19180  41.016  12.225  14.879
53701W        W19181  36.054   2.273  14.382
53702W        W19182   4.721   8.761  13.018
53703W        W19183  19.732  19.176   2.377
53704W        W19184  27.953  37.458   4.752
53705W        W19185  44.884  38.069  14.800
53706W        W19186  41.524  16.763   4.653
53707W        W19187  24.069  41.510   0.939
53708W        W19188  37.023  27.169  14.397
53709W        W19189  18.163  37.521   1.840
53710W        W19190  15.138  13.279   0.966
53711W        W19191  19.283  24.110   0.474
53712W        W19192  25.676  14.679  14.955
53713W        W19193  36.381  36.912  14.959
53714W        W19194  18.288  13.344  10.031
53715W        W19195  19.211  26.203  11.374
53716W        W19196   7.852  27.532   0.846
53717W        W19197  18.290  24.068  11.897
53718W        W19198   5.324   0.298  12.360
53719W        W19199  31.590   9.364  13.869
53720W        W19200  29.156   0.338   4.292
53721W        W19201  13.146  30.976   3.242
53722W        W19202  13.248  15.160  12.539
53723W        W19203  24.569   3.293   1.761
53724W        W19204   7.314  17.599  12.456
53725W        W19205  11.257  24.515  11.602
53726W        W19206  20.113  37.432   2.836
53727W        W19207  33.502   2.270  13.918
53728W        W19208   7.767   9.351  13.418
53729W        W19209   2.866  11.820   3.699
53730W        W19210  36.552  28.162  13.341
53731W        W19211  25.147  23.551   2.761
53732W        W19212   9.714  18.130  14.492
53733W        W19213  38.046  20.056   1.382
53734W        W19214  39.409  29.567  10.464
53735W        W19215  34.923   5.759  11.103
53736W        W19216  38.327   4.901  13.913
53737W        W19217  17.204  43.291   4.188
53738W        W19218   8.259  32.410   2.359
53739W        W19219  23.132  29.140   2.878
53740W        W19220  15.121   8.890   1.851
53741W        W19221  23.037  16.714  14.792
53742W        W19222   4.886   2.895   3.171
53743W        W19223  31.027  23.710   0.265
53744W        W19224  26.701  44.501  12.928
53745W        W19225  15.195   3.750   0.766
53746W        W19226   3.739  20.273   2.707
53747W        W19227  14.201  19.208  10.572
53748W        W19228  14.208  16.689  12.528
53749W        W19229   0.877  18.092   2.787
53750W        W19230   5.916  43.774  12.985
53751W        W19231  23.605   4.209   0.452
53752W        W19232   3.401  21.204  13.927
53753W        W19233   5.393  27.991   2.262
53754W        W19234  30.473  39.868  13.028
53755W        W19235   8.336  12.183   0.746
53756W        W19236  31.489  27.133  14.317
53757W        W19237  14.140  40.487  11.888
53758W        W19238  28.008  17.103  10.528
53759W        W19239  42.798   6.890   4.807
53760W        W19240  24.157   7.754  11.066
53761W        W19241  39.421  20.675   4.301
53762W        W19242  37.432  21.747  10.916
53763W        W19243  14.120  42.365   0.771
53764W        W19244   8.382   1.783  13.791
53765W        W19245  18.212  17.274   3.248
53766W        W19246  23.021   4.237   2.341
53767W        W19247  10.189  27.121   3.742
53768W        W19248  39.932  12.190  13.899
53769W        W19249  12.266  34.369  12.570
53770W        W19250   5.270  44.314   4.819
53771W        W19251  22.113  42.991  11.073
53772W        W19252  29.105   6.183  10.467
53773W        W19253  26.055  12.159  12.825
53774W        W19254  21.191   6.410  11.467
53775W        W19255  42.414  27.096  14.430
53776W        W19256  41.341  26.195   3.641
53777W        W19257  21.751  36.540  14.005
53778W        W19258  34.922  13.197  14.779
53779W        W19259  41.481  39.473   4.666
53780W        W19260   2.862   9.766  11.866
53781W        W19261  30.088  30.948  11.568
53782W        W19262   4.259  44.417  11.000
53783W        W19263  29.020  37.034   1.308
53784W        W19264   9.811  22.121   4.641
53785W        W19265  10.296  11.157  12.003
53786W        W19266  22.619  39.389  11.884
53787W        W19267  31.018  28.107   2.364
53788W        W19268   0.896   6.213   4.655
53789W        W19269  22.656   8.764  14.348
53790W        W19270  44.962  21.031   1.440
53791W        W19271  42.514   8.338  10.547
53792W        W19272   4.802  34.036  12.062
53793W        W19273  24.121  37.982   0.925
53794W        W19274  22.732  17.250   3.354
53795W        W19275   8.266   8.688  12.923
53796W        W19276  44.808  11.789  12.410
53797W        W19277  28.939  11.671   2.353
53798W        W19278   8.895  19.110  13.450
53799W        W19279  34.380  12.800   2.894
53800W        W19280   4.260  26.638   0.923
53801W        W19281  17.671   2.849  14.478
53802W        W19282  44.290  37.887   0.907
53803W        W19283   9.256  14.803   4.771
53804W        W19284  43.932  31.593  11.459
53805W        W19285  19.713  16.174  11.483
53806W        W19286  35.995  22.745   1.764
53807W        W19287  22.610   2.390  12.881
53808W        W19288  34.567   7.292  10.463
53809W        W19289  16.665   1.793  12.079
53810W        W19290  21.532  32.043   4.198
53811W        W19291  28.990  13.201   1.845
53812W        W19292  27.047  41.517   0.820
53813W        W19293  43.830  31.520  11.030
53814W        W19294   9.743  28.543   0.954
53815W        W19295  30.067  33.554   4.320
53816W        W19296  36.037  27.094   4.728
53817W        W19297  41.328  12.323  13.479
53818W        W19298   2.929   2.327  13.362
53819W        W19299  27.097  31.945  12.976
53820W        W19300  36.401  26.670  12.893
53821W        W19301   3.450  22.700  11.384
53822W        W19302   3.342  20.643   0.293
53823W        W19303  40.930  12.772   1.327
53824W        W19304  27.557  39.343   4.714
53825W        W19305  14.301  18.581   1.347
53826W        W19306  41.401  39.495  12.077
53827W        W19307  34.019  43.866   0.947
53828W        W19308   2.247  20.597   4.205
53829W        W19309  41.466  35.365  11.101
53830W        W19310  30.448  19.047   0.352
53831W        W19311  11.293  27.451  11.496
53832W        W19312  20.731  24.093   1.410
53833W        W19313  30.604   9.291   4.294
53834W        W19314  35.900  16.192   4.668
53835W        W19315   9.709  36.910   3.753
53836W        W19316  20.554  22.536  14.445
53837W        W19317  20.698  19.707   2.728
53838W        W19318   7.284  37.084   1.855
53839W        W19319  29.513   1.249  10.551
53840W        W19320  23.556  21.586   3.744
53841W        W19321  22.184  30.583  14.383
53842W        W19322   1.247  20.154   3.378
53843W        W19323   1.295  36.419  14.316
53844W        W19324  10.817  39.931   4.114
53845W        W19325  44.382  21.110  14.952
53846W        W19326  11.687   0.871   4.752
53847W        W19327   4.332   6.888   4.615
53848W        W19328  37.478  21.682  12.936
53849W        W19329   0.251  29.935   0.912
53850W        W19330  28.439   8.228  12.990
53851W        W19331   4.764  27.010   1.777
53852W        W19332  29.949  30.575  12.024
53853W        W19333   3.295  41.815  10.931
53854W        W19334  20.045   7.900   2.218
53855W        W19335   0.876  28.125   4.833
53856W        W19336  43.794  14.242   0.916
53857W        W19337  39.421  33.440   2.412
53858W        W19338  23.657  10.645  14.461
53859W        W19339  42.285  35.439   3.866
53860W        W19340  29.097   8.893   2.185
53861W        W19341  24.695  19.705  12.488
53862W        W19342  26.556  20.128  12.578
53863W        W19343  21.599  34.950  13.364
53864W        W19344  34.405  41.811   2.235
53865W        W19345  31.059  18.586  10.100
53866W        W19346  31.556  10.323  11.475
53867W        W19347  18.768   6.879   1.854
53868W        W19348   4.881  39.988   0.360
53869W        W19349  30.023   4.439  13.936
53870W        W19350  41.839   6.855  11.911
53871W        W19351  26.068   8.666  11.114
53872W        W19352   1.857   5.346  14.359
53873W        W19353   6.817  36.954  11.046
53874W        W19354  43.478  33.993  14.285
53875W        W19355  32.087   4.369  10.546
53876W        W19356  24.997  43.360  11.446
53877W        W19357  21.698  23.042   1.417
53878W        W19358  10.175  38.892   0.941
53879W        W19359  13.242  27.013   3.631
53880W        W19360  37.989  36.505   1.777
53881W        W19361  10.698   3.853  10.986
53882W        W19362  13.141  11.754   4.807
53883W        W19363  11.282  10.661   0.307
53884W        W19364  27.955  28.073  10.645
53885W        W19365  36.381  36.482  12.506
53886W        W19366  12.673  27.116   1.314
53887W        W19367  43.389   0.332   0.457
53888W        W19368  34.409  25.631   3.674
53889W        W19369   7.826  31.455   2.849
53890W        W19370  25.053   9.653  12.030
53891W        W19371  23.575  34.373  14.470
53892W        W19372  25.976   6.903  12.978
53893W        W19373  31.643  39.957   1.315
53894W        W19374  16.585  36.093  11.110
53895W        W19375  21.220  32.000   0.964
53896W        W19376  33.030  36.873  14.783
53897W        W19377  26.573  18.639   2.822
53898W        W19378  16.627  42.358  13.819
53899W        W19379  12.141  16.174   4.241
53900W        W19380   5.375  42.950  11.464
53901W        W19381  16.116   4.822  14.348
53902W        W19382  17.274  40.529   4.313
53903W        W19383  18.545  42.417  10.933
53904W        W19384   8.770  29.952   3.198
53905W        W19385  20.113  18.180  12.846
53906W        W19386  20.599  21.531   2.369
53907W        W19387  19.237  31.542  12.032
53908W        W19388   7.230  20.706   1.734
53909W        W19389  36.440  34.583  11.416
53910W        W19390  39.851  14.305  12.997
53911W        W19391  23.504  19.698   3.813
53912W        W19392   2.870  31.959  14.824
53913W        W19393  25.194   9.779  11.525
53914W        W19394   4.936  13.624  10.938
53915W        W19395   5.348  29.497   4.341
53916W        W19396   6.820  13.117  10.469
53917W        W19397  20.115   9.668  14.941
53918W        W19398  19.050   1.804  14.007
53919W        W19399  19.159  25.184   2.733
53920W        W19400  12.785  21.039   1.801
53921W        W19401   3.447  36.553   2.314
53922W        W19402  20.207   1.258  11.547
53923W        W19403  41.377  20.750   3.836
53924W        W19404  20.203  17.767   2.315
53925W        W19405  22.614  35.960   4.240
53926W        W19406  10.753  24.067  13.524
53927W        W19407   9.712  13.338  13.820
53928W        W19408   5.805  43.283  13.465
53929W        W19409  28.492  12.843   3.802
53930W        W19410  22.724   5.241  11.540
53931W        W19411   9.319  24.996   2.242
53932W        W19412  24.020   7.368   0.952
53933W        W19413  43.359   0.832   0.803
53934W        W19414   5.715  44.386   1.726
53935W        W19415  14.735  44.279   1.803
53936W        W19416  41.376   5.356  13.840
53937W        W19417  40.544  42.912   0.410
53938W        W19418  13.107  22.138   0.931
53939W        W19419   0.916  35.528  10.499
53940W        W19420  31.941  44.408  13.403
53941W        W19421   6.824  40.311   1.258
53942W        W19422   7.877  28.528   3.832
53943W        W19423   9.354   2.295  12.034
53944W        W19424  22.536  11.371   0.288
53945W        W19425  38.064  21.143  10.532
53946W        W19426  35.493  27.078   3.655
53947W        W19427   8.209  17.217  14.866
53948W        W19428  19.240  44.955  12.389
53949W        W19429   7.291   6.684   3.197
53950W        W19430   6.851  36.503  11.452
53951W        W19431   7.313   0.792  12.444
53952W        W19432  41.888  43.016   3.338
53953W        W19433  41.519  37.501   0.935
53954W        W19434  22.195  31.493   4.790
53955W        W19435   9.359   4.262   4.278
53956W        W19436   8.863  18.766  11.926
53957W        W19437  10.735  32.933  13.892
53958W        W19438   5.734  16.169  14.854
53959W        W19439  40.309  18.607  11.419
53960W        W19440  21.159   8.714  11.932
53961W        W19441  23.027  14.133  12.509
53962W        W19442  27.661  42.375   1.904
53963W        W19443  37.037  35.512  13.522
53964W        W19444  38.410  14.768  13.520
53965W        W19445   9.654  32.423   0.387
53966W        W19446  13.621  39.808   1.336
53967W        W19447  35.535  40.459  12.857
53968W        W19448  21.692  30.108   2.323
53969W        W19449  32.562  39.813   3.721
53970W        W19450   3.300  16.612   2.311
53971W        W19451  44.984  28.990   2.414
53972W        W19452   4.264  41.990  11.076
53973W        W19453  12.163  38.467   4.345
53974W        W19454   2.738  21.634  14.509
53975W        W19455  24.590   9.363  12.992
53976W        W19456  31.444  10.685  12.554
53977W        W19457  44.785   3.273   0.345
53978W        W19458  25.145  31.942  13.525
53979W        W19459   6.416  25.127  13.870
53980W        W19460   8.736   5.826   2.337
53981W        W19461  14.155   7.906   1.438
53982W        W19462  18.669  43.505   3.779
53983W        W19463  10.665  33.430  10.896
53984W        W19464  20.161  28.976   2.769
53985W        W19465  32.908  24.204   0.440
53986W        W19466   5.356  22.206   3.299
53987W        W19467  22.622  16.622   0.727
53988W        W19468  36.522   8.841  10.625
53989W        W19469  43.338  10.270   3.871
53990W        W19470  15.610  23.071   0.745
53991W        W19471   5.302  30.579  12.377
53992W        W19472  26.535   2.339   4.639
53993W        W19473  11.231  42.941  13.397
53994W        W19474  32.105  22.040  13.041
53995W        W19475  25.504   6.273  14.990
53996W        W19476  36.383   0.914   3.239
53997W        W19477  27.083  34.087  11.996
53998W        W19478   7.274  23.190  11.372
53999W        W19479   8.191  12.220  11.008
54000W        W19480  23.092  28.010   3.251
54001W        W19481   0.943  37.394   2.780
54002W        W19482  30.512  34.983   4.733
54003W        W19483  40.896  42.478   0.312
54004W        W19484   4.719  35.501  14.861
54005W        W19485   6.699  20.033   3.339
54006W        W19486   1.933   8.231  11.990
54007W        W19487  36.044  13.269   3.634
54008W        W19488  18.731  21.649  13.912
54009W        W19489  24.547  16.106   0.428
54010W        W19490  37.480  16.257  14.764
54011W        W19491  18.296   7.667   2.687
54012W        W19492  37.371  42.835   0.476
54013W        W19493  26.523  27.105  13.920
54014W        W19494  31.040   6.183   1.855
54015W        W19495   3.757  19.066  14.882
54016W        W19496  10.331  13.344   3.156
54017W        W19497  19.211  18.544  13.993
54018W        W19498  33.465  22.654  14.926
54019W        W19499  12.761   2.732   3.364
54020W        W19500  15.115   6.302   2.865
54021W        W19501  24.027   0.362  13.888
54022W        W19502  21.517   0.940   3.181
54023W        W19503   8.327  44.881  12.555
54024W        W19504  37.339  35.421  12.512
54025W        W19505  23.640   1.962   3.284
54026W        W19506  24.621  23.549   1.708
54027W        W19507  21.204  10.844  11.961
54028W        W19508  21.246   4.315   4.838
54029W        W19509   2.377  16.171  13.035
54030W        W19510  12.232  40.340   1.394
54031W        W19511  16.080  43.416   0.850
54032W        W19512   9.173  42.865   3.214
54033W        W19513  12.152   3.881  10.945
54034W        W19514  42.282  21.036   4.219
54035W        W19515  26.476  19.743  14.997
54036W        W19516  14.145  28.107   2.881
54037W        W19517  41.384   1.873   0.421
54038W        W19518  35.005   8.352   2.762
54039W        W19519  15.671  20.212   3.212
54040W        W19520  13.806  24.504   3.184
54041W        W19521  41.801   2.850   1.930
54042W        W19522  19.702  28.948   0.776
54043W        W19523  21.633   8.348  12.472
54044W        W19524  10.844   5.718  12.433
54045W        W19525  39.834  27.108   4.305
54046W        W19526   8.767   2.780   1.293
54047W        W19527  36.092  43.306  12.033
54048W        W19528  31.087   6.906  11.460
54049W        W19529  31.013   7.359  14.993
54050W        W19530   3.865   9.740  10.623
54051W        W19531  32.097  38.993  11.535
54052W        W19532   4.773  43.916  14.818
54053W        W19533  38.350  44.477   3.275
54054W        W19534  41.906   1.241   3.706
54055W        W19535   0.949  33.986   3.672
54056W        W19536  39.055  26.524  13.059
54057W        W19537  38.901  20.067  14.286
54058W        W19538  15.768  22.188  14.306
54059W        W19539  40.480  14.732   4.188
54060W        W19540  34.605  28.094  11.077
54061W        W19541  13.603  38.390   2.900
54062W        W19542   5.266  36.571   1.301
54063W        W19543  10.668  24.053  13.835
54064W        W19544   5.210   9.742  14.929
54065W        W19545  22.654   1.818   4.354
54066W        W19546  10.337  19.732  11.103
54067W        W19547  35.922  32.505  10.568
54068W        W19548   9.743  28.021   1.885
54069W        W19549  30.021  21.629  10.609
54070W        W19550  41.307  36.494  13.340
54071W        W19551  38.514   0.297  11.525
54072W        W19552  17.265  43.979  14.820
54073W        W19553  34.414  12.823  14.851
54074W        W19554   6.686  18.180   1.235
54075W        W19555  41.423  20.056   5.704
54076W        W19556   5.280  20.616  14.476
54077W        W19557   2.762  29.924   2.405
54078W        W19558  41.504  15.329   2.777
54079W        W19559   0.485   5.731   3.729
54080W        W19560  21.088  31.969   4.781
54081W        W19561  20.244  30.950  10.945
54082W        W19562  19.753   7.808  14.293
54083W        W19563  17.187   8.883   4.739
54084W        W19564  39.990  34.604  14.784
54085W        W19565  23.589   5.774  10.889
54086W        W19566   4.380   1.847   0.441
54087W        W19567  26.199  29.042  10.408
54088W        W19568  37.050   2.835  13.354
54089W        W19569  18.193  16.753   4.344
54090W        W19570  34.478  44.495  14.979
54091W        W19571  29.436   0.930   4.192
54092W        W19572   5.346   2.840   4.131
54093W        W19573  21.057  42.342   3.639
54094W        W19574  43.442   9.211   1.321
54095W        W19575  41.472   4.931  13.393
54096W        W19576  37.404  19.119  14.805
54097W        W19577  22.143  32.498   4.251
54098W        W19578   6.239  43.408  12.545
54099W        W19579  15.155  17.741  11.522
54100W        W19580  33.413  42.023  11.509
54101W        W19581   6.746  27.952  12.561
54102W        W19582  12.619  28.148  13.843
54103W        W19583  19.196  11.263  13.906
54104W        W19584  13.110  18.574  10.532
54105W        W19585  35.094  11.720  11.087
54106W        W19586  38.853   8.175   2.404
54107W        W19587  35.400  34.570  14.425
54108W        W19588  40.852  18.247  12.047
54109W        W19589  44.936  32.562  10.510
54110W        W19590  41.385   9.351  10.943
54111W        W19591   6.232  43.956  10.522
54112W        W19592  31.065  15.648   3.355
54113W        W19593  18.602  39.497  12.056
54114W        W19594   8.392  11.302   0.392
54115W        W19595   8.289  27.569   2.359
54116W        W19596  39.825  36.415  13.020
54117W        W19597  39.327  26.548  13.854
54118W        W19598  34.046  11.324   4.156
54119W        W19599  40.812  39.817  10.887
54120W        W19600  40.880   1.815   2.350
54121W        W19601  36.543   0.340  13.057
54122W        W19602   5.744  14.269  11.597
54123W        W19603  21.757   5.820  14.937
54124W        W19604  35.862  38.828   2.754
54125W        W19605   0.279  15.617   1.760
54126W        W19606  24.527   1.966  13.371
54127W        W19607  28.166  37.844   4.168
54128W        W19608  16.141  21.614   0.476
54129W        W19609  20.091  15.180  13.378
54130W        W19610  19.730   5.825  13.429
54131W        W19611  36.512  38.825  11.578
54132W        W19612  22.236   3.817  12.550
54133W        W19613  37.385  44.328   3.351
54134W        W19614  29.137  42.886   4.348
54135W        W19615  39.457  17.796  12.376
54136W        W19616  38.959  30.023   2.666
54137W        W19617  36.070  26.679   2.698
54138W        W19618  32.565  37.033  12.864
54139W        W19619   3.227  42.341  12.470
54140W        W19620  23.598  17.185  13.894
54141W        W19621  42.495  35.510   4.137
54142W        W19622  29.549  41.428   1.246
54143W        W19623  34.104  24.561  11.067
54144W        W19624  44.367  43.858  11.609
54145W        W19625  21.638  23.552  14.275
54146W        W19626  15.162   7.901  14.330
54147W        W19627  18.243   3.941   0.359
54148W        W19628  35.457  28.639  12.394
54149W        W19629   9.850  31.533   2.333
54150W        W19630  15.200  39.849   2.272
54151W        W19631  40.395  21.138   1.319
54152W        W19632  14.804  38.977   5.119
54153W        W19633  11.826  24.648  10.437
54154W        W19634  24.514  16.090  14.956
54155W        W19635  28.086  38.448  10.916
54156W        W19636  18.722  30.592  13.502
54157W        W19637  40.018  13.309   1.313
54158W        W19638  30.975   7.857  12.533
54159W        W19639  34.586  10.287  10.979
54160W        W19640  15.815  22.515   4.720
54161W        W19641   3.913  27.098   2.786
54162W        W19642   4.217  42.413  11.915
54163W        W19643   3.268  28.083  10.526
54164W        W19644  32.903   6.811   2.812
54165W        W19645  41.845  15.578  11.881
54166W        W19646   8.352   4.230   4.712
54167W        W19647  33.530  36.050  10.098
54168W        W19648  32.453  25.487   2.209
54169W        W19649   3.778  27.104  13.981
54170W        W19650  39.938  26.205  12.919
54171W        W19651   1.276  42.973  12.446
54172W        W19652  39.038   5.224  10.999
54173W        W19653   1.806  18.113  10.449
54174W        W19654  36.593  22.205   0.298
54175W        W19655   8.328  38.346  11.939
54176W        W19656  19.771  33.452  14.785
54177W        W19657  25.097   0.415  10.477
54178W        W19658  20.264   7.260  13.500
54179W        W19659  35.934  38.478  14.989
54180W        W19660   1.340  14.775  11.559
54181W        W19661  28.101   7.876  10.569
54182W        W19662   1.412  27.036  14.335
54183W        W19663  30.453  39.442  13.371
54184W        W19664  29.133  16.615  14.958
54185W        W19665  26.166  43.925   2.802
54186W        W19666   7.848  31.506  11.572
54187W        W19667  41.385  11.295  10.551
54188W        W19668  20.125  41.787  13.378
54189W        W19669  18.237  32.041   3.762
54190W        W19670  12.697  33.891  10.491
54191W        W19671   0.312  23.090   4.839
54192W        W19672  24.687  13.766   4.663
54193W        W19673  24.211  24.578  14.416
54194W        W19674  40.440  10.794  14.429
54195W        W19675  39.476  43.936  11.539
54196W        W19676  21.721  20.161  14.313
54197W        W19677  24.176  31.136   0.287
54198W        W19678  40.447  44.352   3.793
54199W        W19679   1.370   9.724  13.459
54200W        W19680   4.910   4.901   2.410
54201W        W19681  36.593  32.948   4.704
54202W        W19682  34.389  10.695   4.300
54203W        W19683  37.912   0.335  10.535
54204W        W19684  41.822  11.671   5.233
54205W        W19685  20.062  35.951   1.789
54206W        W19686  42.476  31.415  12.884
54207W        W19687   1.266  16.195   4.646
54208W        W19688  23.553  19.779   2.327
54209W        W19689  34.558  28.572   1.320
54210W        W19690   2.722  35.980   4.598
54211W        W19691  14.727  21.055   2.228
54212W        W19692  22.723  42.997  13.815
54213W        W19693  29.522  11.848  12.065
54214W        W19694   3.312  34.392  13.327
54215W        W19695   7.200  11.335   0.428
54216W        W19696  39.861  35.552  14.412
54217W        W19697   2.895  16.744   1.776
54218W        W19698  15.182  15.815   4.791
54219W        W19699  15.327  31.465   3.221
54220W        W19700  39.844  29.918  11.610
54221W        W19701  30.569  44.488   3.756
54222W        W19702  11.798  27.982  13.323
54223W        W19703   7.400  40.507   3.261
54224W        W19704  28.146  19.248  10.969
54225W        W19705  44.368  40.312  11.566
54226W        W19706  30.020  24.186   3.717
54227W        W19707   1.389  12.828  11.105
54228W        W19708  34.948  44.904  12.037
54229W        W19709  27.554  18.106  14.304
54230W        W19710  40.444  17.642  10.588
54231W        W19711  11.794  40.405  12.511
54232W        W19712  26.960   7.251  11.437
54233W        W19713  38.555  22.665  13.370
54234W        W19714  39.365  29.493   1.229
54235W        W19715  33.590  34.596   3.863
54236W        W19716  43.993   2.260   4.786
54237W        W19717  17.660  33.534   0.872
54238W        W19718   5.851  24.708   4.764
54239W        W19719  29.959   7.266  13.927
54240W        W19720  35.390  26.201  14.375
54241W        W19721   1.352  30.464  14.835
54242W        W19722   3.446  29.448  10.580
54243W        W19723   9.806  24.688  11.446
54244W        W19724   6.405   0.323   2.396
54245W        W19725  17.079  43.818  10.107
54246W        W19726   3.747   0.490   1.810
54247W        W19727  10.320  27.643  11.870
54248W        W19728  43.893  14.309  14.821
54249W        W19729  27.150  39.393  11.022
54250W        W19730  13.126  27.525  10.408
54251W        W19731   4.858  16.272  10.455
54252W        W19732  19.655  42.029  12.844
54253W        W19733  27.079  44.764   3.761
54254W        W19734  37.959   5.731   0.959
54255W        W19735   3.422  28.510  12.979
54256W        W19736  39.442   1.463   4.141
54257W        W19737  24.506   3.823   1.245
54258W        W19738  41.805  15.693   3.223
54259W        W19739  14.833   4.794  13.459
54260W        W19740   3.417  30.963  11.028
54261W        W19741   1.847   2.292  14.388
54262W        W19742  14.747  28.513   4.701
54263W        W19743  21.067  32.130  11.551
54264W        W19744  16.731  14.267  14.950
54265W        W19745  22.601   9.878  12.870
54266W        W19746  41.016  36.968  10.991
54267W        W19747  22.060  39.548   0.745
54268W        W19748  20.185  44.488  10.988
54269W        W19749  27.662  30.583   4.837
54270W        W19750  25.575  15.216  11.047
54271W        W19751  33.878   1.481  14.350
54272W        W19752  34.465  14.681   4.299
54273W        W19753  41.973  35.949  13.523
54274W        W19754   1.237  43.950  12.454
54275W        W19755  39.559  30.500   4.831
54276W        W19756  20.274  10.687   1.329
54277W        W19757  13.701   9.656   2.732
54278W        W19758   3.435  16.728   0.746
54279W        W19759  10.740  38.904   0.355
54280W        W19760  34.094  10.800  13.802
54281W        W19761  36.989   7.391  12.351
54282W        W19762  33.525  29.525  10.044
54283W        W19763  12.702  35.077  10.571
54284W        W19764  32.500  10.870  13.418
54285W        W19765  21.531  19.198  10.455
54286W        W19766  39.896  23.103  14.791
54287W        W19767  33.052  35.998   4.632
54288W        W19768  32.624  20.673   1.430
54289W        W19769   6.351  25.577  10.552
54290W        W19770  13.163  14.218  11.440
54291W        W19771  34.918  27.173  13.314
54292W        W19772   2.262  22.551   1.436
54293W        W19773   6.911  19.064   3.671
54294W        W19774  27.476  44.792  14.943
54295W        W19775  34.542  34.953   4.806
54296W        W19776  42.002  25.651  13.544
54297W        W19777  43.007  42.340   1.304
54298W        W19778   3.950  44.805   3.243
54299W        W19779  30.142   8.186   0.917
54300W        W19780  44.783   6.817   4.771
54301W        W19781  11.814  33.027   3.378
54302W        W19782   1.395  25.982   1.271
54303W        W19783  39.517  34.581   2.801
54304W        W19784  42.479   4.745   0.786
54305W        W19785  21.589  40.917  13.919
54306W        W19786  14.832  28.025  12.550
54307W        W19787  26.630  13.814   2.279
54308W        W19788  20.617   0.894  13.853
54309W        W19789  28.558  17.160  13.889
54310W        W19790   0.956  29.497  10.956
54311W        W19791  29.554  10.697   1.310
54312W        W19792  25.472  39.921  14.474
54313W        W19793  44.878  21.649   4.811
54314W        W19794   0.879  21.200  12.401
54315W        W19795  30.588  25.070   3.178
54316W        W19796   3.404  43.342  14.971
54317W        W19797  18.651  34.508   3.792
54318W        W19798  32.896  30.630  11.116
54319W        W19799  37.372  18.615   4.823
54320W        W19800  19.128  31.950   3.682
54321W        W19801  33.475  39.947  12.452
54322W        W19802  38.868   5.710   0.311
54323W        W19803  23.548  17.256  10.582
54324W        W19804  31.550  37.542   3.692
54325W        W19805  30.568  11.702  12.925
54326W        W19806   4.445  38.486  13.457
54327W        W19807  24.496  22.145   3.665
54328W        W19808   4.842   9.852   4.807
54329W        W19809  32.008   7.880   4.712
54330W        W19810  22.615  33.435  11.597
54331W        W19811  22.137  37.077   3.283
54332W        W19812  32.459   3.912   2.828
54333W        W19813  42.336   7.731  14.318
54334W        W19814  28.676  13.607   0.395
54335W        W19815  13.761  41.044   2.319
54336W        W19816  14.265  33.570   3.784
54337W        W19817  39.999  21.155   1.715
54338W        W19818  20.699   9.890   2.730
54339W        W19819  36.353  10.852   4.772
54340W        W19820   3.769  44.992   0.821
54341W        W19821  16.181  43.411  14.343
54342W        W19822  34.469  25.063   2.759
54343W        W19823  21.719  24.050   2.257
54344W        W19824  12.779  24.165  12.012
54345W        W19825  32.894  12.647   3.650
54346W        W19826  25.034   4.850  10.480
54347W        W19827  23.518  16.188   0.325
54348W        W19828  27.047  26.956   2.692
54349W        W19829  10.748  39.318  12.966
54350W        W19830  40.537  14.285   1.442
54351W        W19831  32.015  23.667   2.727
54352W        W19832  43.336  23.579  11.885
54353W        W19833  19.077   1.253  14.447
54354W        W19834  32.058  11.700  12.443
54355W        W19835  28.935  42.290  12.551
54356W        W19836   7.337  31.091   2.357
54357W        W19837  27.684  29.138  13.450
54358W        W19838   8.737  38.453  14.348
54359W        W19839  15.735  28.176   1.795
54360W        W19840  40.429   9.329   2.360
54361W        W19841  26.522  16.665   2.793
54362W        W19842  42.301  43.290   4.602
54363W        W19843  19.672   2.354  10.511
54364W        W19844  27.528   1.777   3.377
54365W        W19845  17.700  11.267   2.826
54366W        W19846  40.478   2.812  10.912
54367W        W19847  17.638  38.390   1.899
54368W        W19848  26.072  34.999  11.445
54369W        W19849  40.476  44.489   2.733
54370W        W19850  24.068  16.086  12.046
54371W        W19851   5.197  28.135  12.994
54372W        W19852   0.460  13.642  11.589
54373W        W19853  41.515  22.512  12.828
54374W        W19854  43.982  22.118   0.840
54375W        W19855   2.329  33.580  11.414
54376W        W19856   6.757  18.216  12.959
54377W        W19857  36.488   2.768   2.252
54378W        W19858   6.833  37.042  14.787
54379W        W19859  20.140  20.602  11.491
54380W        W19860   5.745  19.226   4.825
54381W        W19861  22.198   6.685  12.921
54382W        W19862  32.096   0.343   2.223
54383W        W19863  27.181  41.874   3.167
54384W        W19864  13.319  33.979   2.894
54385W        W19865  31.455  31.551   0.452
54386W        W19866  30.911  35.050  12.546
54387W        W19867  23.171  39.829   0.349
54388W        W19868  39.048  27.106  13.005
54389W        W19869   2.405  41.403  10.074
54390W        W19870   8.243  44.825   2.206
54391W        W19871  32.509  25.194  12.825
54392W        W19872  43.996   7.338   3.686
54393W        W19873  43.411  10.283   0.324
54394W        W19874  10.269   2.255  12.990
54395W        W19875   2.264  44.864  14.014
54396W        W19876   9.669  26.610  13.797
54397W        W19877  26.015  31.497   1.866
54398W        W19878  40.949  41.449   2.821
54399W        W19879   8.220  26.659  14.921
54400W        W19880  10.641  37.832  14.467
54401W        W19881  13.793  20.710   3.776
54402W        W19882  44.324  42.453  14.813
54403W        W19883   8.663  40.359   2.814
54404W        W19884  14.824  31.108   2.192
54405W        W19885  27.988  24.707  12.893
54406W        W19886  17.713  40.807   4.117
54407W        W19887   9.393   0.453   1.354
54408W        W19888  39.532  41.949  10.532
54409W        W19889  21.258  30.423   4.337
54410W        W19890  22.665   0.884   4.179
54411W        W19891   2.371  37.933  14.860
54412W        W19892  28.558  10.188  14.445
54413W        W19893   1.790  11.769   0.255
54414W        W19894  33.110  29.534  11.916
54415W        W19895  33.011   5.851  10.448
54416W        W19896  27.640   0.256  14.801
54417W        W19897  10.180  37.498   1.913
54418W        W19898  44.920  31.974  11.888
54419W        W19899   0.285   6.869  11.917
54420W        W19900  28.518  13.246   2.209
54421W        W19901   7.719   9.797  13.471
54422W        W19902  40.929  36.590  12.068
54423W        W19903   0.366  26.544  11.488
54424W        W19904  36.883  23.220   2.285
54425W        W19905  12.631  19.043  12.047
54426W        W19906  33.088  29.963  14.021
54427W        W19907  34.536   2.306  12.508
54428W        W19908  26.959  24.688   0.865
54429W        W19909  29.559  23.143   3.379
54430W        W19910   2.339  27.642   2.202
54431W        W19911  36.353  40.450   1.288
54432W        W19912  15.252  30.029  10.518
54433W        W19913  27.037  19.132   2.371
54434W        W19914  23.636  12.125   1.876
54435W        W19915  19.573  14.311   4.779
54436W        W19916  22.175  14.719  13.357
54437W        W19917   1.976   6.184  10.920
54438W        W19918   9.731  38.378   0.445
54439W        W19919  33.023  22.725   2.741
54440W        W19920   6.682   5.934   0.851
54441W        W19921  28.133   1.249   3.262
54442W        W19922  35.925  21.191   0.959
54443W        W19923  19.086   0.893  12.383
54444W        W19924   4.362  37.344  11.056
54445W        W19925  21.547  18.637   2.871
54446W        W19926   3.913   4.753  10.017
54447W        W19927   4.737  11.131  12.561
54448W        W19928  21.222  30.008  14.013
54449W        W19929   8.685  41.004  11.527
54450W        W19930   8.167  32.022  14.366
54451W        W19931  42.924   6.314   1.928
54452W        W19932  30.539  31.600  14.844
54453W        W19933  14.692  29.923  13.992
54454W        W19934  23.725   3.952   2.726
54455W        W19935   2.368  38.054   4.234
54456W        W19936   8.667  18.171   2.196
54457W        W19937  19.051   0.865   1.895
54458W        W19938  38.544  26.057  12.000
54459W        W19939   9.359  43.280  13.513
54460W        W19940  38.999   3.864  14.467
54461W        W19941   2.853   4.934   4.328
54462W        W19942  10.378  30.993  13.906
54463W        W19943   5.706  39.830  11.872
54464W        W19944  19.197   0.303   0.784
54465W        W19945  31.007  26.027  10.434
54466W        W19946   1.465  24.165   2.256
54467W        W19947  25.152  22.183  11.124
54468W        W19948  29.491  35.094  13.043
54469W        W19949   0.344  37.503   4.254
54470W        W19950  23.631  39.877   4.738
54471W        W19951  34.488  23.660   0.329
54472W        W19952  35.573  15.748  13.509
54473W        W19953  17.704   6.681   0.270
54474W        W19954  17.747  42.909  14.470
54475W        W19955   5.253  14.775  10.490
54476W        W19956  38.432  27.035   1.697
54477W        W19957   8.231  24.981  11.427
54478W        W19958  22.592  34.040  13.335
54479W        W19959  29.111  20.725  11.887
54480W        W19960   2.263  23.019   2.762
54481W        W19961   4.289  35.960  14.774
54482W        W19962   2.348  13.762  14.452
54483W        W19963  34.440   7.888  10.619
54484W        W19964  42.872  13.758  13.336
54485W        W19965   9.349  16.278  11.080
54486W        W19966  24.709  42.943   0.285
54487W        W19967   9.777  37.485   3.261
54488W        W19968  24.054  41.524   2.828
54489W        W19969  18.697  26.566   3.303
54490W        W19970   0.814   6.257   3.788
54491W        W19971  31.457  37.377   1.214
54492W        W19972  37.991  39.360  10.540
54493W        W19973  38.513  17.608   3.183
54494W        W19974  28.184  18.739   3.736
54495W        W19975  44.929  31.528  14.781
54496W        W19976  43.289  38.333  11.022
54497W        W19977  21.208  18.704   4.267
54498W        W19978  17.250  38.439  11.469
54499W        W19979   5.364  39.852  11.445
54500W        W19980  17.208  10.336   4.116
54501W        W19981   3.787  43.867  11.592
54502W        W19982   4.392   3.895  13.499
54503W        W19983  42.967   1.847  10.156
54504W        W19984  42.413  23.082  12.898
54505W        W19985  17.190   5.741  12.949
54506W        W19986  35.988  39.033  13.897
54507W        W19987  17.291  43.440   3.771
54508W        W19988  33.130  22.219  12.002
54509W        W19989  16.767  41.494  13.914
54510W        W19990   3.939  23.140  12.911
54511W        W19991   7.852  30.982  13.810
54512W        W19992  34.001  20.541  10.490
54513W        W19993  21.587  19.059  11.071
54514W        W19994  22.156  15.175   3.339
54515W        W19995  30.510   6.689  14.828
54516W        W19996  34.112  19.199  10.572
54517W        W19997  38.031  25.025   0.420
54518W        W19998  10.633  19.556   3.280
54519W        W19999  14.759  17.088  13.438
54520W        W20000   6.246  33.400  13.835
54521W        W20001   0.358  43.019   1.422
54522W        W20002   8.356  11.730   2.897
54523W        W20003  38.364   2.316  12.876
54524W        W20004  35.431  15.146  10.931
54525W        W20005  12.709  25.526   3.374
54526W        W20006  41.298  22.034   1.873
54527W        W20007  33.949  41.873  11.453
54528W        W20008  38.830  16.636  12.496
54529W        W20009   4.731  28.578  13.406
54530W        W20010   6.686  33.415  11.430
54531W        W20011  12.132  32.946   0.436
54532W        W20012   8.821  11.369   0.887
54533W        W20013  17.728  15.726   0.821
54534W        W20014  40.012  32.519  14.327
54535W        W20015  40.502  38.947  10.140
54536W        W20016  31.060   4.847   1.838
54537W        W20017  15.706  29.110   2.333
54538W        W20018  20.664  35.873   1.386
54539W        W20019   9.695  43.474   4.342
54540W        W20020  26.153   3.744  13.889
54541W        W20021  39.870  29.645  13.527
54542W        W20022  16.749  15.671   1.876
54543W        W20023  25.996  25.501  11.050
54544W        W20024  38.414  23.665  10.513
54545W        W20025   9.658  18.097  14.945
54546W        W20026   6.771   8.288  12.024
54547W        W20027  38.395  24.992  12.912
54548W        W20028  27.031  31.540   1.777
54549W        W20029  24.664  28.663   2.350
54550W        W20030   1.334  34.057  11.591
54551W        W20031  26.180   0.940  11.566
54552W        W20032  15.685  43.463  11.114
54553W        W20033  39.910  25.089  11.551
54554W        W20034   6.241  39.920   1.449
54555W        W20035  11.353  19.244  13.910
54556W        W20036  16.766  28.445   3.870
54557W        W20037   8.332  40.961  11.918
54558W        W20038   2.371  26.456   0.262
54559W        W20039   5.415  19.269  13.415
54560W        W20040  32.613  40.322   1.424
54561W        W20041  11.211  41.436   1.899
54562W        W20042  34.399  19.276   0.894
54563W        W20043   4.722  19.076   1.794
54564W        W20044  38.068  40.050  12.889
54565W        W20045   0.284  35.534  10.472
54566W        W20046  42.399  44.857   0.284
54567W        W20047  23.700  14.712   0.377
54568W        W20048  39.555  44.967  13.939
54569W        W20049  27.531  12.616   1.220
54570W        W20050  33.926  21.683   1.707
54571W        W20051   7.716  36.092   3.315
54572W        W20052   9.808   6.182  12.509
54573W        W20053  18.628  11.734  10.587
54574W        W20054  26.044  33.615  12.558
54575W        W20055  40.844  23.996  13.364
54576W        W20056  17.604  13.107  10.636
54577W        W20057  41.018  44.773   1.250
54578W        W20058   2.305   7.238   0.417
54579W        W20059  38.825  31.463   2.413
54580W        W20060   9.213  25.040  12.464
54581W        W20061   8.666  35.433   3.307
54582W        W20062  39.846  39.469   3.704
54583W        W20063  35.466  41.403   4.247
54584W        W20064  42.281  17.266  12.534
54585W        W20065   9.356  39.818  10.568
54586W        W20066   8.842  17.628   1.336
54587W        W20067  41.382   7.207  14.971
54588W        W20068  18.051   0.423  13.983
54589W        W20069   0.931  31.004   1.827
54590W        W20070  40.404  35.599  13.475
54591W        W20071  42.451  33.530  14.402
54592W        W20072  29.942   5.409  11.099
54593W        W20073  21.201  15.590  12.422
54594W        W20074   1.402  31.991   3.824
54595W        W20075  20.596   1.892  11.570
54596W        W20076   9.207  21.064   2.193
54597W        W20077   5.228  34.483  11.990
54598W        W20078  35.502  26.703   1.431
54599W        W20079  41.817  25.155   0.257
54600W        W20080  17.278  43.414   2.837
54601W        W20081  29.510  25.172  11.860
54602W        W20082  11.364  10.770   3.310
54603W        W20083  40.453   4.931   2.829
54604W        W20084  26.497   7.392  14.477
54605W        W20085  22.204  38.880   4.802
54606W        W20086   4.219   8.800   1.220
54607W        W20087  36.921  11.147   3.306
54608W        W20088  10.282   9.693  10.593
54609W        W20089  44.948  44.430  14.368
54610W        W20090  26.683   6.255  11.408
54611W        W20091  29.462  28.958  14.322
54612W        W20092   1.369  14.212   1.791
54613W        W20093   3.460  12.323   3.868
54614W        W20094  29.965  21.174  12.390
54615W        W20095  42.451   2.249   1.899
54616W        W20096  41.525  32.538   2.354
54617W        W20097  15.794   1.356  13.366
54618W        W20098  13.197   9.767   3.313
54619W        W20099  41.346  30.472   0.400
54620W        W20100  31.528  20.627   2.263
54621W        W20101  40.980  25.594   4.821
54622W        W20102   5.206   5.409   3.706
54623W        W20103   3.800   8.845   4.242
54624W        W20104  20.187  40.349   4.268
54625W        W20105  33.593  41.807   1.383
54626W        W20106  44.379  14.617   3.257
54627W        W20107   1.901   1.933   2.859
54628W        W20108  20.747   6.846   3.369
54629W        W20109  18.152  37.431   3.676
54630W        W20110   0.851   2.309  12.912
54631W        W20111  44.954  19.592  11.609
54632W        W20112   5.853   1.844   2.306
54633W        W20113  30.139  20.237  12.544
54634W        W20114  28.605  31.943  11.863
54635W        W20115  16.679  22.239   4.817
54636W        W20116  10.851  38.961  13.919
54637W        W20117  39.862   0.322  14.405
54638W        W20118  35.855  13.764  10.524
54639W        W20119   9.183   9.375  12.529
54640W        W20120  41.302  18.752  13.822
54641W        W20121  27.553  42.439   2.391
54642W        W20122  27.095  13.273  11.060
54643W        W20123  32.904  15.234  13.897
54644W        W20124   4.835   1.745   3.338
54645W        W20125  16.594  16.723   0.815
54646W        W20126  36.398   5.364  11.985
54647W        W20127  19.134  13.192   1.332
54648W        W20128   0.380  29.456   1.793
54649W        W20129  15.157  11.365   2.244
54650W        W20130  22.687  44.829   3.687
54651W        W20131  44.373  38.007  12.484
54652W        W20132   4.707  19.548  10.422
54653W        W20133  27.565  24.527   1.911
54654W        W20134  43.278   0.870  12.537
54655W        W20135  12.302  40.944  12.390
54656W        W20136  17.142  31.904   4.677
54657W        W20137  38.543   6.277  11.521
54658W        W20138  28.626  15.226   0.346
54659W        W20139  38.519   6.755   1.382
54660W        W20140  23.170  34.868   2.396
54661W        W20141  30.574  24.609  12.856
54662W        W20142   4.247  37.554  13.539
54663W        W20143  32.518   5.920   3.245
54664W        W20144  32.448  21.527  13.536
54665W        W20145  26.179  43.018  12.389
54666W        W20146  43.875  12.744  13.918
54667W        W20147  23.597  43.803   0.425
54668W        W20148   9.284  11.861  11.595
54669W        W20149  11.228  41.358  10.126
54670W        W20150  42.930   9.322   4.291
54671W        W20151   9.225  14.825   3.235
54672W        W20152   8.400  13.308  12.051
54673W        W20153  16.677  16.239  10.915
54674W        W20154  11.780   8.242   4.241
54675W        W20155  18.670   2.880   0.420
54676W        W20156   8.899  16.200   0.858
54677W        W20157  36.037  38.324   3.198
54678W        W20158   4.439  25.004  12.423
54679W        W20159   6.311  42.922   2.358
54680W        W20160  14.105  13.217   0.863
54681W        W20161  38.996   7.900   3.164
54682W        W20162  37.441   9.793   1.248
54683W        W20163  28.512  33.110   2.720
54684W        W20164  38.359   3.954  10.063
54685W        W20165   1.423  18.177  14.800
54686W        W20166  42.419  40.406  10.425
54687W        W20167   3.906  38.879   2.414
54688W        W20168   0.450  11.749   1.774
54689W        W20169  24.174  20.590   2.804
54690W        W20170   3.831  15.694  14.846
54691W        W20171  44.969  24.033   0.468
54692W        W20172  34.463   7.363   4.255
54693W        W20173  28.983  22.701  14.823
54694W        W20174  27.986  19.119   2.663
54695W        W20175  37.511  41.803  10.565
54696W        W20176  18.265  16.617   0.793
54697W        W20177  25.591  37.539  12.551
54698W        W20178   1.948  43.936   1.331
54699W        W20179  26.032  25.147  13.791
54700W        W20180  44.485   8.201  12.019
54701W        W20181   3.235  16.288   1.805
54702W        W20182  35.914  34.478   4.173
54703W        W20183   4.813  32.423  11.529
54704W        W20184   9.225  31.506   4.275
54705W        W20185  30.503   6.317  11.525
54706W        W20186  13.755  19.661  13.431
54707W        W20187  29.059   2.463   3.190
54708W        W20188   1.379  10.225   2.198
54709W        W20189  37.879  29.660  12.365
54710W        W20190   6.755  27.030  10.931
54711W        W20191  14.629  37.520  14.017
54712W        W20192  16.251  22.195   3.749
54713W        W20193   3.432   0.880  12.837
54714W        W20194  18.667  32.064  12.429
54715W        W20195   2.850  35.066   4.669
54716W        W20196   4.309  33.046  14.763
54717W        W20197  35.507  33.107   2.213
54718W        W20198  16.295  28.654  11.484
54719W        W20199  30.945  16.699   0.914
54720W        W20200  38.340  22.252  13.914
54721W        W20201  27.596  13.180   0.943
54722W        W20202   1.737  26.186   0.411
54723W        W20203   1.958  12.761  11.892
54724W        W20204  40.345  12.686  11.100
54725W        W20205   5.881   4.884  12.000
54726W        W20206  28.997  38.073   2.682
54727W        W20207   7.900  25.143  12.841
54728W        W20208  18.685  44.893   4.209
54729W        W20209  13.622  30.934   2.244
54730W        W20210  17.676  37.403  10.018
54731W        W20211  25.693  39.405  12.917
54732W        W20212  28.504  20.716  14.434
54733W        W20213   6.740   2.860  12.441
54734W        W20214  36.392  37.361   1.845
54735W        W20215  40.452  27.674   2.301
54736W        W20216   7.233  40.370   4.616
54737W        W20217  16.735  18.728   0.840
54738W        W20218  18.558  34.898   0.338
54739W        W20219  24.589   6.259  13.371
54740W        W20220  35.371  38.939   0.826
54741W        W20221   3.840  28.957   2.811
54742W        W20222  20.711  27.960  14.934
54743W        W20223  31.648  19.123   4.650
54744W        W20224  28.676   2.952   3.291
54745W        W20225  11.841  42.366  11.428
54746W        W20226  19.604  18.674   0.849
54747W        W20227   5.782  13.824   0.457
54748W        W20228   5.357  42.984   2.297
54749W        W20229  24.166   6.792   1.875
54750W        W20230  18.151  33.963  10.627
54751W        W20231  40.995  36.482   2.711
54752W        W20232   9.810  14.799   2.856
54753W        W20233  23.728  15.755   3.860
54754W        W20234  27.511  43.319  12.073
54755W        W20235   9.364  19.592   5.272
54756W        W20236  10.683  39.371  13.443
54757W        W20237  33.588   0.408   0.765
54758W        W20238  17.301  38.845   3.805
54759W        W20239   6.240  18.198   3.324
54760W        W20240   5.850  18.131  14.015
54761W        W20241  35.963  35.896  11.012
54762W        W20242   0.790  24.708  14.469
54763W        W20243  36.909  37.989   4.608
54764W        W20244  12.218   7.672  12.526
54765W        W20245  29.942  22.703  12.978
54766W        W20246  31.537  37.076  13.846
54767W        W20247  34.069  15.262   2.231
54768W        W20248  24.581  21.721  12.055
54769W        W20249   2.735  18.704  13.323
54770W        W20250  18.572  11.696   3.383
54771W        W20251   0.387  23.234   3.208
54772W        W20252  23.140  41.833  11.926
54773W        W20253  41.040   2.824  12.351
54774W        W20254  33.481   5.405   2.715
54775W        W20255   7.398  21.525  11.100
54776W        W20256   2.275  42.017   4.757
54777W        W20257   5.875  26.082   0.317
54778W        W20258   9.712  21.518   0.928
54779W        W20259  34.939  39.444   1.726
54780W        W20260  42.526  25.537  12.496
54781W        W20261  12.659  35.941   4.810
54782W        W20262  21.175  23.490   2.715
54783W        W20263   8.356   6.402  14.435
54784W        W20264  23.590   1.875  14.943
54785W        W20265   5.772  17.646   2.694
54786W        W20266  14.307  31.994   2.876
54787W        W20267   8.303   9.357  13.340
54788W        W20268   5.768   6.770  13.451
54789W        W20269  10.240  32.889   4.722
54790W        W20270  22.136  21.565  10.575
54791W        W20271   2.291  30.614  12.491
54792W        W20272  13.178   1.375  12.022
54793W        W20273  22.577  35.929  10.083
54794W        W20274  10.852  29.517  10.618
54795W        W20275   6.795   7.746   2.819
54796W        W20276  28.040  27.047   2.346
54797W        W20277  16.786  28.501  13.851
54798W        W20278  23.062  18.557   2.248
54799W        W20279  25.220  43.441   0.340
54800W        W20280  35.390  19.060   3.682
54801W        W20281  32.976  28.532   4.166
54802W        W20282  28.004  35.031   3.856
54803W        W20283  38.007  18.554   0.417
54804W        W20284   1.402  10.194   0.777
54805W        W20285  22.554   9.176   4.823
54806W        W20286  11.827  20.098   1.700
54807W        W20287  43.281  28.974   4.796
54808W        W20288  15.125  34.112  14.339
54809W        W20289  25.099  40.305  12.042
54810W        W20290  20.161   6.360   4.662
54811W        W20291  43.983  39.870   3.688
54812W        W20292  31.148  21.583  14.850
54813W        W20293  35.398  19.230   2.750
54814W        W20294  40.430  19.197  13.371
54815W        W20295  28.083  18.639   0.319
54816W        W20296  44.426  35.576  10.534
54817W        W20297  30.131  18.718   3.788
54818W        W20298   2.838   8.852  10.418
54819W        W20299   0.490  16.241  13.512
54820W        W20300   2.364   9.233   0.306
54821W        W20301  16.616   2.260   1.807
54822W        W20302  24.500   4.388  10.644
54823W        W20303  43.497  38.433  12.438
54824W        W20304  29.081  36.079   0.858
54825W        W20305   7.210  23.726  12.434
54826W        W20306   9.348  27.512   0.283
54827W        W20307  26.202  44.433  12.340
54828W        W20308   1.745  24.680   4.332
54829W        W20309   4.932  16.679   4.710
54830W        W20310  33.594  24.092  12.355
54831W        W20311  25.671   3.227  14.938
54832W        W20312  33.905  38.853  14.794
54833W        W20313  20.142   9.186   0.259
54834W        W20314  13.611  12.158   3.630
54835W        W20315  36.441  25.072   4.258
54836W        W20316   8.161  36.486  11.117
54837W        W20317  29.436   3.853  14.450
54838W        W20318  31.441  30.454   0.856
54839W        W20319  40.053  34.919   2.260
54840W        W20320  38.058  27.024  11.488
54841W        W20321  10.337  29.919   4.227
54842W        W20322  35.001  32.416  14.355
54843W        W20323  39.335  27.041   2.263
54844W        W20324  23.993  21.218  11.045
54845W        W20325  25.027  12.328  12.894
54846W        W20326  22.717  36.588   4.641
54847W        W20327  26.982   3.783   4.644
54848W        W20328  24.675  19.253  13.328
54849W        W20329   7.387  18.762  12.571
54850W        W20330  36.886  15.201  12.842
54851W        W20331  39.387  25.629  11.882
54852W        W20332  17.680  34.026  14.835
54853W        W20333   9.282  24.031  12.474
54854W        W20334  33.077   1.347   1.745
54855W        W20335   9.192  40.895   4.227
54856W        W20336   1.813  11.142  14.480
54857W        W20337   4.235  33.101   3.208
54858W        W20338  23.239  23.644   0.955
54859W        W20339   0.300   1.740  12.934
54860W        W20340  22.647   4.321   1.924
54861W        W20341  31.604   4.896   1.213
54862W        W20342  22.628  25.608  14.318
54863W        W20343  35.862   5.894  13.980
54864W        W20344  13.172  23.649  14.888
54865W        W20345  10.155  14.613   2.807
54866W        W20346  30.998   6.763  13.965
54867W        W20347  34.595  21.605   0.337
54868W        W20348  23.065  26.497   3.698
54869W        W20349   8.707  14.163   2.339
54870W        W20350  41.931  34.433   0.410
54871W        W20351  33.052  36.593  13.327
54872W        W20352  44.904  18.693  10.509
54873W        W20353  12.349  40.546   4.221
54874W        W20354  23.609  37.339   3.374
54875W        W20355  12.345  36.419  10.634
54876W        W20356  29.935   5.289  13.479
54877W        W20357  13.241  36.538  11.573
54878W        W20358  38.049  19.212  11.440
54879W        W20359  21.030  10.194  14.024
54880W        W20360  34.476  25.076   3.353
54881W        W20361  13.268  34.442   4.230
54882W        W20362  39.014   0.965  13.410
54883W        W20363  12.177   9.721  14.811
54884W        W20364   9.841  38.569  13.523
54885W        W20365  39.812  27.531  11.009
54886W        W20366  43.771  11.182  14.455
54887W        W20367  35.889  44.288  13.019
54888W        W20368  17.228  11.251  11.449
54889W        W20369  32.056  28.057   0.393
54890W        W20370  30.144  21.193   1.385
54891W        W20371  44.422  16.270  13.344
54892W        W20372  21.557  35.505  11.936
54893W        W20373  16.220  36.859   1.776
54894W        W20374  19.111  14.207  14.897
54895W        W20375  37.445  17.240   1.353
54896W        W20376  43.816  27.945  14.397
54897W        W20377  12.663  24.486  14.807
54898W        W20378  35.088  24.017  13.541
54899W        W20379  15.680   9.258  14.320
54900W        W20380   6.375  40.368  13.844
54901W        W20381  24.161  42.032   4.755
54902W        W20382  14.204  31.577   1.745
54903W        W20383  33.596  11.252  13.856
54904W        W20384  20.123  26.571  11.533
54905W        W20385  28.475  16.592  11.107
54906W        W20386  27.068  41.976  12.365
54907W        W20387  36.087  26.634  14.349
54908W        W20388  14.327  41.391  12.407
54909W        W20389  11.720  39.981   0.431
54910W        W20390  35.402  29.170   4.787
54911W        W20391  35.082  10.832   1.915
54912W        W20392  17.227   9.346   4.331
54913W        W20393   1.769  21.237  13.975
54914W        W20394  14.113  15.816   0.855
54915W        W20395  34.492  30.009   0.899
54916W        W20396  36.854  21.049  10.139
54917W        W20397  28.577  34.075  12.008
54918W        W20398  25.684  17.630  10.980
54919W        W20399   8.187  27.519   0.839
54920W        W20400  44.863  12.744   0.358
54921W        W20401  26.466   8.805  14.478
54922W        W20402  18.154   5.847  13.062
54923W        W20403   1.870  16.248  14.321
54924W        W20404  44.274  44.412  11.054
54925W        W20405   6.787  21.232   0.293
54926W        W20406   7.210  44.299  14.990
54927W        W20407  22.246  13.619   3.661
54928W        W20408  37.885  34.908   3.803
54929W        W20409  20.034  10.697  11.971
54930W        W20410  23.582  40.974   1.774
54931W        W20411   0.780  39.975  11.889
54932W        W20412  19.246  41.026   2.286
54933W        W20413  29.458  30.575  14.970
54934W        W20414   9.679  33.430   4.288
54935W        W20415  20.738  17.791   4.651
54936W        W20416  44.407  15.601  12.527
54937W        W20417   3.385  15.266   3.219
54938W        W20418  16.708  23.149   0.802
54939W        W20419  23.133  10.746   1.408
54940W        W20420  25.196  34.003   4.329
54941W        W20421  36.954  25.984   1.296
54942W        W20422   5.894  28.990  14.470
54943W        W20423   7.243  21.086   2.847
54944W        W20424  29.164  21.258  11.425
54945W        W20425  30.611  19.090   2.684
54946W        W20426  26.540  38.990  10.448
54947W        W20427  38.919  42.378   1.287
54948W        W20428  16.294  21.756  14.805
54949W        W20429   6.830   4.232  11.598
54950W        W20430  16.251  44.756  12.057
54951W        W20431  22.239   7.683  13.518
54952W        W20432  19.232  41.880   0.851
54953W        W20433  40.885  38.000  11.550
54954W        W20434  15.174   3.299  13.939
54955W        W20435  29.989  11.323   4.717
54956W        W20436  42.019   3.439  14.945
54957W        W20437   1.819  22.138  11.429
54958W        W20438  41.797  32.915  13.061
54959W        W20439  15.101  29.550   2.265
54960W        W20440   9.803  18.082  10.452
54961W        W20441  42.031  31.041   1.850
54962W        W20442  21.576  38.398   1.698
54963W        W20443   7.890   7.711   0.906
54964W        W20444  34.069  44.931  13.315
54965W        W20445  42.950  40.949   2.358
54966W        W20446  42.855  32.978   9.952
54967W        W20447  37.858  33.441   1.698
54968W        W20448   7.889   1.739   1.857
54969W        W20449  33.571  20.168   3.804
54970W        W20450   7.255  24.635  11.439
54971W        W20451  26.095  17.211  10.958
54972W        W20452  34.066  22.226   2.863
54973W        W20453  18.659  14.640   4.148
54974W        W20454  32.405   9.757   0.768
54975W        W20455  12.203   4.759   0.357
54976W        W20456  15.589   7.408   1.725
54977W        W20457  40.026  27.966  12.921
54978W        W20458  17.772  29.169  12.027
54979W        W20459  23.135  31.058  12.830
54980W        W20460   4.344  21.029  13.378
54981W        W20461  37.530  28.669  13.448
54982W        W20462  31.029  37.430  13.533
54983W        W20463  20.100   4.818   3.356
54984W        W20464   7.252  14.599  14.321
54985W        W20465  26.632  17.284  14.768
54986W        W20466   6.905  20.677   3.176
54987W        W20467  22.503  30.048   0.343
54988W        W20468   5.384  18.120   0.839
54989W        W20469  14.611  35.990   4.735
54990W        W20470  27.548  28.068   0.895
54991W        W20471   8.273  41.459  12.071
54992W        W20472  32.086  35.070   1.780
54993W        W20473  14.167  32.126   3.164
54994W        W20474  29.923   7.682  11.506
54995W        W20475  24.722  11.194   0.426
54996W        W20476   9.338  43.802  12.972
54997W        W20477  28.439  30.423  14.771
54998W        W20478  14.769  35.381   0.857
54999W        W20479  15.260  31.112   0.444
55000W        W20480   4.243  41.939  14.508
55001W        W20481  13.662  14.633   2.214
55002W        W20482  29.937  10.307  12.868
55003W        W20483  32.431  44.407  11.430
55004W        W20484   0.351   9.155  13.447
55005W        W20485  32.463  36.037   0.809
55006W        W20486  39.315  40.481  13.348
55007W        W20487  24.987  26.673  11.005
55008W        W20488  43.480  18.187   2.828
55009W        W20489  44.477  28.032  11.090
55010W        W20490  22.506  20.741   3.782
55011W        W20491  19.132  21.716   3.760
55012W        W20492  19.589   7.408  14.287
55013W        W20493  24.485  10.169   4.731
55014W        W20494  21.135  32.898  13.872
55015W        W20495  28.629  29.963   3.682
55016W        W20496   9.245  20.219   2.222
55017W        W20497  39.936  23.203  11.487
55018W        W20498  30.659   4.837  11.604
55019W        W20499   8.235   5.252   1.919
55020W        W20500  23.094  42.298  11.100
55021W        W20501   5.338  29.042  12.826
55022W        W20502  24.133  35.955  12.501
55023W        W20503   5.812  22.107   1.899
55024W        W20504  27.547  23.730   2.384
55025W        W20505   7.858  14.141   3.372
55026W        W20506  37.408  22.509   0.791
55027W        W20507   6.216  10.721   1.859
55028W        W20508  44.959  39.492   4.113
55029W        W20509   5.253  16.692  12.408
55030W        W20510  36.358  41.945  13.831
55031W        W20511   8.723  22.531  11.058
55032W        W20512  19.652  37.918   0.865
55033W        W20513  12.754  42.809   0.883
55034W        W20514   3.428  29.151   1.279
55035W        W20515  10.335  14.694  14.505
55036W        W20516  26.044  34.482  13.018
55037W        W20517  22.631  42.951  11.385
55038W        W20518   0.809  14.833   3.741
55039W        W20519   9.253  17.703  12.879
55040W        W20520  12.323  19.227   4.164
55041W        W20521  12.317  27.500   4.353
55042W        W20522  20.676   0.777  14.402
55043W        W20523  42.527  13.160  11.995
55044W        W20524   2.415   6.382  11.874
55045W        W20525  31.044   9.716  12.546
55046W        W20526  16.243  25.511  14.312
55047W        W20527   8.280   6.240  12.873
55048W        W20528  34.416   4.796   2.260
55049W        W20529  12.239  16.700  11.504
55050W        W20530  28.582   3.289   0.377
55051W        W20531  36.370   2.922  11.532
55052W        W20532  34.406  26.544   5.081
55053W        W20533  10.278   7.839   0.438
55054W        W20534  25.688  42.399  12.454
55055W        W20535  23.621  20.198   0.822
55056W        W20536  40.865   8.720   0.446
55057W        W20537   2.411  28.145  13.375
55058W        W20538  30.929   6.898  14.428
55059W        W20539  19.729  34.021   2.376
55060W        W20540  26.605  28.581   4.616
55061W        W20541   4.415  11.148  12.385
55062W        W20542  16.793  13.828   3.809
55063W        W20543  44.276  26.091   4.161
55064W        W20544  22.698  38.992  10.545
55065W        W20545  34.390  32.137   0.313
55066W        W20546  18.287  29.147  14.017
55067W        W20547  37.847  39.841  14.382
55068W        W20548  30.975  14.212   4.636
55069W        W20549  37.032  40.512   0.351
55070W        W20550   8.747  16.104  11.373
55071W        W20551  10.657   9.266   1.869
55072W        W20552  14.690  18.107  11.384
55073W        W20553  35.060  30.090   0.921
55074W        W20554  23.059   3.231  12.517
55075W        W20555  27.452  28.024  10.451
55076W        W20556  39.436  39.353   3.870
55077W        W20557   7.807  18.675  11.125
55078W        W20558  41.407  19.681  14.768
55079W        W20559  17.782  23.198   2.202
55080W        W20560  11.633   1.365   1.738
55081W        W20561   7.708  42.465  14.897
55082W        W20562  10.678  41.950   1.241
55083W        W20563  18.726  13.197  12.907
55084W        W20564  13.601  44.879   4.326
55085W        W20565  41.454  25.142   1.832
55086W        W20566   8.712  21.089  12.380
55087W        W20567  11.134   5.832  13.823
55088W        W20568   4.316  37.924  12.421
55089W        W20569  41.821  13.205   1.884
55090W        W20570  27.624  23.610   3.327
55091W        W20571  24.599  25.076   0.931
55092W        W20572  18.136  31.648  11.427
55093W        W20573  19.726  40.021  12.456
55094W        W20574  41.406  21.249  12.030
55095W        W20575  30.581  10.222  11.099
55096W        W20576  42.321  24.480  13.890
55097W        W20577  42.282  41.831  12.863
55098W        W20578  12.855  10.776   2.764
55099W        W20579  37.882  28.178   1.902
55100W        W20580   7.284  13.172  13.461
55101W        W20581  38.044  41.868  12.834
55102W        W20582  36.887  36.082   3.719
55103W        W20583   0.471  15.602  11.387
55104W        W20584   3.922   1.312   4.625
55105W        W20585  23.029  20.189  14.351
55106W        W20586   0.981  31.901   4.619
55107W        W20587   2.301  18.591  14.412
55108W        W20588  25.164   7.902   3.642
55109W        W20589  22.650  12.341  10.106
55110W        W20590  16.266  36.999   4.633
55111W        W20591  43.909  42.993   0.908
55112W        W20592  40.379  31.003  13.452
55113W        W20593  18.091  21.131   4.649
55114W        W20594  15.169  23.527  11.520
55115W        W20595  26.514  21.030   2.696
55116W        W20596  30.996  38.394  10.951
55117W        W20597  33.111  35.027  13.907
55118W        W20598  21.558  41.522  11.889
55119W        W20599  27.456  21.074  12.894
55120W        W20600   6.245  33.454  11.559
55121W        W20601  33.924  31.568  13.354
55122W        W20602   9.807   8.819   2.298
55123W        W20603  23.116  20.233  12.492
55124W        W20604  35.080   0.783   1.760
55125W        W20605  17.636  23.530   3.193
55126W        W20606  29.612  12.170  13.356
55127W        W20607  39.542  19.070   4.223
55128W        W20608  37.341  26.552  10.149
55129W        W20609   0.814  17.749  12.847
55130W        W20610  32.961  29.432   1.353
55131W        W20611  42.382  29.048   4.252
55132W        W20612   8.739  40.404  14.986
55133W        W20613  29.040   1.741  14.777
55134W        W20614  16.761  29.993  14.401
55135W        W20615  43.404   9.677   4.223
55136W        W20616  10.169  15.141  12.898
55137W        W20617  43.420   8.160   0.908
55138W        W20618  12.799  20.701  14.778
55139W        W20619  38.347   3.880  13.482
55140W        W20620  17.072  22.527  14.768
55141W        W20621  35.527  33.599   3.380
55142W        W20622  16.789  28.156   0.937
55143W        W20623  16.171   3.896  11.502
55144W        W20624  40.918   2.463   5.199
55145W        W20625  41.363  41.513   4.125
55146W        W20626  18.747  44.461   2.321
55147W        W20627   6.749  22.232   2.273
55148W        W20628  35.573  14.642   4.725
55149W        W20629  24.084  14.811  12.015
55150W        W20630  30.449   0.959   3.829
55151W        W20631   9.674  22.661   1.776
55152W        W20632  31.000   7.321  13.449
55153W        W20633   2.835  28.453   0.459
55154W        W20634   7.368   4.854   3.727
55155W        W20635  21.527  34.469   2.796
55156W        W20636  11.359  16.735   1.258
55157W        W20637  25.575  23.661   4.218
55158W        W20638  33.506  30.046   2.869
55159W        W20639  13.346   0.406   1.379
55160W        W20640  20.665  15.654   1.216
55161W        W20641   9.282  35.544  12.855
55162W        W20642  34.437   2.795  10.992
55163W        W20643  36.574  23.729  11.504
55164W        W20644  20.686  12.685   1.887
55165W        W20645  28.632  12.197   0.291
55166W        W20646  39.473  23.495   3.783
55167W        W20647  22.014   6.794   4.784
55168W        W20648  32.429  41.892  12.838
55169W        W20649  42.443   2.289  12.992
55170W        W20650  24.207  40.041  11.064
55171W        W20651  25.191  44.382   0.868
55172W        W20652  40.525   2.317  11.967
55173W        W20653  28.605  18.743   3.796
55174W        W20654  12.354  34.372  14.760
55175W        W20655  32.619  22.180   0.775
55176W        W20656  35.431   4.413  12.902
55177W        W20657  35.888  41.815  11.855
55178W        W20658  41.992  43.336   4.346
55179W        W20659  23.220  32.444  12.424
55180W        W20660  36.027  43.829  12.433
55181W        W20661   4.223  39.559  10.519
55182W        W20662  23.598  34.608  11.886
55183W        W20663  21.165  40.432   4.166
55184W        W20664   7.756  27.164  10.555
55185W        W20665  23.567   1.357   4.120
55186W        W20666  41.912   3.457  10.090
55187W        W20667   7.847  14.661  11.394
55188W        W20668  17.253  27.033  12.542
55189W        W20669  12.795   0.417  12.840
55190W        W20670  19.259  38.035   0.301
55191W        W20671   6.247  41.448  14.859
55192W        W20672   5.759  36.066  13.415
55193W        W20673   2.393  13.118   4.795
55194W        W20674   7.862  22.595  10.122
55195W        W20675   7.287  26.077   4.661
55196W        W20676  13.130   9.157  10.517
55197W        W20677  30.438  18.694  13.326
55198W        W20678  14.829   9.188   3.287
55199W        W20679  18.615  19.117  12.455
55200W        W20680  22.717  38.825   3.746
55201W        W20681  27.455  27.011  10.974
55202W        W20682  29.483  34.559   5.190
55203W        W20683  13.324   3.255   1.722
55204W        W20684  37.923  16.097   3.242
55205W        W20685  29.591  20.704  11.547
55206W        W20686  11.670   4.881  12.051
55207W        W20687  33.402  30.093   0.781
55208W        W20688   3.746  25.040   1.373
55209W        W20689  30.023   1.371   3.283
55210W        W20690  25.043  15.115  13.503
55211W        W20691  23.611  19.215  11.019
55212W        W20692  28.672  19.714  12.913
55213W        W20693  20.107  22.249  12.362
55214W        W20694  10.283  40.831   0.949
55215W        W20695  20.686  39.930   0.363
55216W        W20696  21.521  38.447  14.986
55217W        W20697  26.577  44.011  14.403
55218W        W20698  37.867  22.743  14.441
55219W        W20699  23.072   6.278   0.879
55220W        W20700  20.221  19.057  10.513
55221W        W20701  35.506  44.329  10.531
55222W        W20702   4.441  20.102  13.050
55223W        W20703   7.237  18.286   3.286
55224W        W20704  30.052  41.320  13.348
55225W        W20705  42.340  42.868   1.257
55226W        W20706  26.594   7.731   3.262
55227W        W20707  13.305  10.773  10.492
55228W        W20708  36.430  11.366  10.501
55229W        W20709  20.635  13.678  14.871
55230W        W20710  35.951  40.825   1.763
55231W        W20711  25.128  13.125  12.369
55232W        W20712  30.996  34.420   0.415
55233W        W20713  13.109  33.955  13.375
55234W        W20714  43.362  30.030   3.287
55235W        W20715   7.789  32.419  13.960
55236W        W20716  43.320  35.501  12.841
55237W        W20717  37.084  27.998   3.268
55238W        W20718  18.184  42.927   4.792
55239W        W20719  16.600  26.110  14.298
55240W        W20720  13.167   3.338   5.256
55241W        W20721   3.955  13.648   1.280
55242W        W20722  20.731   7.884   1.867
55243W        W20723   4.360  22.172   0.406
55244W        W20724  18.104  41.315  11.504
55245W        W20725   8.843   8.755   5.264
55246W        W20726   6.267  38.475   0.403
55247W        W20727  38.541   1.307   0.323
55248W        W20728  37.861  22.735  10.146
55249W        W20729  29.975  32.577   4.678
55250W        W20730   2.917  16.269   0.933
55251W        W20731  40.399  32.020   0.933
55252W        W20732  25.993  19.638   0.877
55253W        W20733  13.154  43.439   1.862
55254W        W20734  21.580  12.613   4.130
55255W        W20735   9.787   0.347  12.960
55256W        W20736   2.359  21.622  14.496
55257W        W20737  30.063  13.837   4.125
55258W        W20738  36.512  25.043  13.910
55259W        W20739  43.439  15.307   1.768
55260W        W20740  18.156  23.215   3.150
55261W        W20741   6.280  28.135  13.008
55262W        W20742  42.783  36.552   3.174
55263W        W20743  38.524  34.003   2.203
55264W        W20744  16.177  39.060   1.717
55265W        W20745  14.162  12.154  11.894
55266W        W20746  28.608  10.857  12.383
55267W        W20747  40.886   3.932  12.052
55268W        W20748   7.416  30.543   3.318
55269W        W20749   4.309   1.951  14.370
55270W        W20750  33.446  28.520   4.218
55271W        W20751  42.900   2.426  10.526
55272W        W20752  11.735  16.776  12.979
55273W        W20753  22.020  26.111  14.805
55274W        W20754  40.389  18.143  10.416
55275W        W20755   8.405  27.473   4.619
55276W        W20756  26.482  26.089   3.869
55277W        W20757  35.057  16.296  12.477
55278W        W20758  16.147  12.350  12.866
55279W        W20759  17.135  11.317   3.648
55280W        W20760   5.237   1.866   3.814
55281W        W20761  28.180  33.507  14.985
55282W        W20762  22.188  42.392   2.271
55283W        W20763  20.760  30.960  11.884
55284W        W20764  23.226  37.369  11.424
55285W        W20765  31.980  23.563  13.468
55286W        W20766  30.029  11.652  11.055
55287W        W20767  44.769  41.872   3.354
55288W        W20768  31.937  11.327  14.515
55289W        W20769  26.194   0.894   3.773
55290W        W20770  36.412  20.687   3.257
55291W        W20771   6.399  31.628   1.796
55292W        W20772  30.088   0.979   2.319
55293W        W20773  32.933   5.277   2.207
55294W        W20774   7.280  22.227  14.392
55295W        W20775  38.933  31.644  13.022
55296W        W20776  17.567  20.171  12.080
55297W        W20777  32.434   3.400  14.489
55298W        W20778  38.053  17.576  14.014
55299W        W20779   1.779   6.293   1.220
55300W        W20780  26.139  32.124   3.167
55301W        W20781  42.430  39.508  11.860
55302W        W20782   9.742  13.811   2.876
55303W        W20783   9.279  15.261  11.882
55304W        W20784  41.332  33.416   0.271
55305W        W20785   7.365  21.563  13.970
55306W        W20786  27.024  41.405  10.978
55307W        W20787  30.062  30.592  14.361
55308W        W20788  32.021  35.073  11.554
55309W        W20789  30.543   8.817   4.315
55310W        W20790   3.314  25.590  14.798
55311W        W20791  35.919  44.315  11.535
55312W        W20792  22.063  38.425  12.894
55313W        W20793  31.934  30.163   4.238
55314W        W20794  33.072   0.439  12.900
55315W        W20795  10.671   0.768  13.537
55316W        W20796  20.577  43.346  13.798
55317W        W20797  24.502   5.274   3.763
55318W        W20798  33.472  12.721  12.829
55319W        W20799  33.900   9.854  13.797
55320W        W20800   2.739  25.692  12.096
55321W        W20801  26.047  13.224  14.000
55322W        W20802  43.891   9.284  13.024
55323W        W20803  27.451  43.467  12.901
55324W        W20804  22.211  44.825  12.043
55325W        W20805   6.799   9.358   3.203
55326W        W20806  21.556  27.491   4.618
55327W        W20807  37.904  41.371   5.161
55328W        W20808   8.817  16.241   3.382
55329W        W20809   9.884  39.388  12.933
55330W        W20810  44.893  44.003  13.982
55331W        W20811  33.040  24.034   3.771
55332W        W20812  35.031  16.619   4.653
55333W        W20813  13.795  44.481  13.325
55334W        W20814  12.696  33.610  11.896
55335W        W20815   3.405  34.950   4.785
55336W        W20816  35.454  20.187   1.743
55337W        W20817  25.001  16.094  14.275
55338W        W20818  21.073  21.096  13.958
55339W        W20819   6.413  26.047  14.492
55340W        W20820   8.213  23.164  12.491
55341W        W20821  11.150  19.689   0.818
55342W        W20822   7.417  27.485   2.344
55343W        W20823  11.700   8.675  14.023
55344W        W20824   0.804  14.651  10.941
55345W        W20825  26.595  20.252  12.833
55346W        W20826  39.325  38.008   1.236
55347W        W20827   2.917  43.882   1.248
55348W        W20828   0.252  44.299  12.458
55349W        W20829  16.785  19.270  14.471
55350W        W20830  42.868  25.989   0.771
55351W        W20831  36.351   9.300   0.408
55352W        W20832   7.348   6.842   4.784
55353W        W20833  23.544  41.887   1.718
55354W        W20834  28.454  25.025  12.869
55355W        W20835   4.715   5.211  13.544
55356W        W20836  35.106  33.512   3.200
55357W        W20837  31.072  13.196  11.451
55358W        W20838  26.703  20.149   1.375
55359W        W20839  21.130  11.823  10.532
55360W        W20840  27.688  35.890  14.929
55361W        W20841  38.837  39.535   9.951
55362W        W20842  40.957  31.153   2.887
55363W        W20843  41.922   7.218   4.303
55364W        W20844  43.339   6.396   2.355
55365W        W20845   1.479   9.821  13.877
55366W        W20846  25.987  43.937   1.357
55367W        W20847  16.587  17.751   0.824
55368W        W20848  11.762  26.199  11.128
55369W        W20849   7.729  10.700   1.698
55370W        W20850  30.931   7.767   2.681
55371W        W20851  33.425  22.210   0.857
55372W        W20852  23.153  38.332   3.342
55373W        W20853  41.931  20.683   1.304
55374W        W20854  43.911  10.336   1.412
55375W        W20855  22.687  10.322  10.621
55376W        W20856   8.865  35.040  13.006
55377W        W20857  34.979  38.005  11.891
55378W        W20858  40.932   4.294  12.468
55379W        W20859   9.220  12.142  14.960
55380W        W20860  29.000  21.757   3.865
55381W        W20861  30.090  20.140   3.707
55382W        W20862  29.603  13.675   3.804
55383W        W20863  10.745  14.121  10.432
55384W        W20864   0.810  35.053  13.057
55385W        W20865  24.988   3.284   2.392
55386W        W20866   9.827  31.618   4.126
55387W        W20867  21.608  37.346   4.285
55388W        W20868  15.767  19.656   4.274
55389W        W20869  33.074   3.292   1.443
55390W        W20870  15.769  14.648   3.634
55391W        W20871  25.012  32.507   2.865
55392W        W20872  40.876  25.494   4.190
55393W        W20873  10.659  36.928   3.845
55394W        W20874   8.339   3.942   3.681
55395W        W20875  27.163   0.427   3.208
55396W        W20876   0.810  27.456   0.922
55397W        W20877  28.978  12.352  11.951
55398W        W20878   4.212  13.223  12.558
55399W        W20879  29.149  20.272   3.215
55400W        W20880  32.059  31.465  10.473
55401W        W20881  30.450  23.116  11.088
55402W        W20882  43.020   8.254   4.605
55403W        W20883  25.217  42.017   1.291
55404W        W20884  39.997   8.683   0.909
55405W        W20885   6.845  37.838  13.970
55406W        W20886  20.646  24.689  13.023
55407W        W20887   4.266  15.235  13.038
55408W        W20888   0.780   8.722  14.024
55409W        W20889   4.307  18.640  13.477
55410W        W20890  12.649   6.334  13.317
55411W        W20891  10.763  40.844  11.604
55412W        W20892  41.872   2.800   0.390
55413W        W20893  20.528  43.800  12.454
55414W        W20894  35.405  28.063  12.471
55415W        W20895  44.364  20.256  11.110
55416W        W20896  24.128  18.230  11.506
55417W        W20897   8.749   3.459   1.831
55418W        W20898  13.172  22.245  12.570
55419W        W20899  18.599  27.550  12.468
55420W        W20900  39.908  34.084   1.442
55421W        W20901  13.129  35.869   3.765
55422W        W20902  24.977  18.549   4.221
55423W        W20903  33.504  11.328   1.355
55424W        W20904  10.821  31.943  11.485
55425W        W20905  21.757  30.911  14.311
55426W        W20906  12.665  17.590   2.325
55427W        W20907  18.601   0.385   3.638
55428W        W20908   6.826   9.807  11.940
55429W        W20909  17.738  11.361  11.083
55430W        W20910  26.044  20.271   1.334
55431W        W20911  14.681  32.063   3.255
55432W        W20912   3.409  37.948   4.812
55433W        W20913  30.529  24.089  13.996
55434W        W20914  36.552  37.544  11.013
55435W        W20915  18.689  31.982   0.357
55436W        W20916  40.920   3.359  10.927
55437W        W20917  38.000  35.557  11.028
55438W        W20918  33.606  20.628  13.455
55439W        W20919  21.575  15.202   4.652
55440W        W20920  10.659  32.486  12.552
55441W        W20921  10.640  19.091  11.500
55442W        W20922  17.606   5.280   1.353
55443W        W20923  17.660  34.589  14.446
55444W        W20924  24.105  22.123  13.009
55445W        W20925  25.537   0.834  11.955
55446W        W20926  39.516   1.838   0.385
55447W        W20927  17.601  42.441  10.479
55448W        W20928   2.407  32.445  13.455
55449W        W20929   0.797  16.186  12.395
55450W        W20930  32.495   5.211   2.405
55451W        W20931  42.983   1.358  11.931
55452W        W20932  43.901  32.894  14.795
55453W        W20933  17.170  38.396  11.074
55454W        W20934   5.710  11.745   3.658
55455W        W20935  35.558   8.263   2.282
55456W        W20936  13.191  25.548   0.947
55457W        W20937  27.646  44.834  14.454
55458W        W20938  27.629   3.856   0.431
55459W        W20939  30.585   5.837  13.884
55460W        W20940  27.988  39.502  11.008
55461W        W20941  27.663  36.589   1.368
55462W        W20942  43.473   1.752   3.720
55463W        W20943   5.264  41.912  13.921
55464W        W20944   7.344   9.740   0.379
55465W        W20945  21.739  27.163   3.251
55466W        W20946  32.479  32.973   1.279
55467W        W20947  30.943  30.096  10.437
55468W        W20948  22.573  44.983   2.194
55469W        W20949  16.652  12.713   3.163
55470W        W20950  27.122  25.202  13.800
55471W        W20951  28.164  31.472   0.483
55472W        W20952  42.978  28.931   2.801
55473W        W20953  20.526  22.692  13.817
55474W        W20954  35.388   6.779  10.954
55475W        W20955   5.772   8.351  10.508
55476W        W20956  12.753  15.729   1.915
55477W        W20957  34.870   2.841   1.212
55478W        W20958  10.233  41.012   3.382
55479W        W20959   7.812  15.086  14.879
55480W        W20960  11.657  39.842   4.617
55481W        W20961  12.619   8.183  13.034
55482W        W20962  17.164  31.435   5.123
55483W        W20963   1.872   3.775  13.049
55484W        W20964  16.746  36.449   3.841
55485W        W20965  20.711  26.508  12.960
55486W        W20966  34.575   2.871  13.450
55487W        W20967  14.683  24.651  10.630
55488W        W20968  11.775  26.578   5.268
55489W        W20969  20.667  26.699   1.390
55490W        W20970  33.550  15.230  14.421
55491W        W20971  15.084  10.227  13.951
55492W        W20972  12.278   0.846  11.096
55493W        W20973   3.329  14.320  13.347
55494W        W20974   1.883  22.232   0.405
55495W        W20975  26.645  12.199   3.158
55496W        W20976  18.725  19.620   2.339
55497W        W20977  38.378  41.913   3.745
55498W        W20978  32.135  33.534  10.888
55499W        W20979   7.885  12.684   2.878
55500W        W20980  24.059   4.298   1.314
55501W        W20981  32.550  40.865   1.391
55502W        W20982  44.810   9.674   3.216
55503W        W20983  27.194  19.694  10.427
55504W        W20984  37.523  23.634   1.718
55505W        W20985   5.931   3.884   3.631
55506W        W20986   6.391  12.121  12.419
55507W        W20987   3.947  11.858   1.287
55508W        W20988   6.352  23.651   4.247
55509W        W20989  21.237  27.188   4.789
55510W        W20990   0.779   7.770   4.621
55511W        W20991  16.670   8.757   4.775
55512W        W20992  19.728  42.808   4.812
55513W        W20993  15.593  27.036  11.525
55514W        W20994  30.512   1.895   4.266
55515W        W20995  19.552   5.814  12.070
55516W        W20996  12.213   3.773   2.887
55517W        W20997   2.239  28.633  14.997
55518W        W20998  35.935  13.605  11.088
55519W        W20999  23.669  13.674   3.770
55520W        W21000  40.011   4.328   1.441
55521W        W21001  39.491  24.610  13.349
55522W        W21002  28.495  20.620  13.863
55523W        W21003  19.570  22.505   1.307
55524W        W21004   0.428  35.002  12.910
55525W        W21005  33.541  16.276   4.659
55526W        W21006  16.581  20.129   2.196
55527W        W21007  31.648  12.342  14.901
55528W        W21008  11.246  10.788  14.422
55529W        W21009  32.077   3.433   0.855
55530W        W21010   8.819  30.108  14.766
55531W        W21011  17.705  31.934   3.164
55532W        W21012   7.821  42.335   4.773
55533W        W21013  43.412   2.436  10.412
55534W        W21014  10.338  19.748  10.093
55535W        W21015   1.951   5.426  12.893
55536W        W21016  23.118   8.284  14.358
55537W        W21017  20.089  39.064   4.146
55538W        W21018  17.635   2.814   2.665
55539W        W21019  30.975  39.414   1.748
55540W        W21020  10.842  16.231   0.743
55541W        W21021  18.107  29.578   3.192
55542W        W21022  29.667  33.966  10.463
55543W        W21023  19.142  12.811   0.732
55544W        W21024   3.243  38.076  14.443
55545W        W21025  11.260   2.360   1.229
55546W        W21026   4.876   8.806   3.706
55547W        W21027  29.445  31.993  14.404
55548W        W21028  18.612  35.487   0.465
55549W        W21029  43.443   2.888  13.420
55550W        W21030  21.578  19.064   4.673
55551W        W21031  39.527  11.228  12.431
55552W        W21032  30.412  35.000  13.420
55553W        W21033  39.515  37.429  12.963
55554W        W21034  38.907  15.224   0.744
55555W        W21035  42.309  11.780  14.355
55556W        W21036  28.009  30.465  14.958
55557W        W21037  16.244  37.910  11.544
55558W        W21038  27.546  36.421  10.462
55559W        W21039  35.467  13.816   0.458
55560W        W21040  29.466  38.453   4.144
55561W        W21041  41.938  30.600   1.215
55562W        W21042   0.435  28.523   2.744
55563W        W21043  29.133  26.583   2.410
55564W        W21044  22.562  42.288  14.022
55565W        W21045  11.352  13.625   4.657
55566W        W21046  17.615  40.995   3.166
55567W        W21047  12.672  10.256  12.449
55568W        W21048  14.152  19.129  12.869
55569W        W21049  35.869   2.958  11.056
55570W        W21050   3.803  19.753  13.837
55571W        W21051  23.189  34.107   0.410
55572W        W21052  37.557  12.674  14.472
55573W        W21053   7.777  28.082   0.429
55574W        W21054  42.390  35.390  10.925
55575W        W21055  26.508  16.105  12.988
55576W        W21056  21.720  23.633  10.594
55577W        W21057  25.206  39.866  12.526
55578W        W21058  42.317  20.572  12.407
55579W        W21059   0.906   7.792   3.185
55580W        W21060   4.777  23.687  13.051
55581W        W21061   0.310  28.028   2.779
55582W        W21062  13.228   2.924  11.862
55583W        W21063  26.175  13.108   4.651
55584W        W21064  38.440  34.614   4.254
55585W        W21065  32.567  33.055  12.406
55586W        W21066  37.926   3.351  11.467
55587W        W21067  31.936  28.598   2.252
55588W        W21068  31.938  43.469  12.491
55589W        W21069  40.339  15.585   2.711
55590W        W21070   6.797   3.767   0.832
55591W        W21071  14.664   1.835   5.090
55592W        W21072  37.930  34.448  12.433
55593W        W21073  25.526   1.242  12.413
55594W        W21074   4.817   7.852   0.739
55595W        W21075   3.433  39.526  14.808
55596W        W21076  17.800  22.105  12.085
55597W        W21077  19.238   3.721   2.307
55598W        W21078  31.074  39.036   2.746
55599W        W21079  10.721  42.960  12.407
55600W        W21080   0.389  31.928  14.323
55601W        W21081   1.247  40.524  12.088
55602W        W21082  40.803  39.011   0.908
55603W        W21083   1.394   7.909  14.837
55604W        W21084  38.462  35.498   2.366
55605W        W21085  28.512  13.191  13.340
55606W        W21086  21.140   5.754   0.821
55607W        W21087  30.457   4.240   2.798
55608W        W21088  22.712  11.825   3.700
55609W        W21089  41.351  40.436  13.407
55610W        W21090  40.020  33.916  13.537
55611W        W21091  26.131  39.454   4.727
55612W        W21092   9.333  22.719  11.576
55613W        W21093  20.729  39.485   3.187
55614W        W21094  27.196   5.333  11.383
55615W        W21095  30.568   2.239  10.961
55616W        W21096   5.277  10.816  12.534
55617W        W21097   4.210  14.234  14.470
55618W        W21098   0.976  20.187   4.145
55619W        W21099  16.721  26.161   1.329
55620W        W21100  23.060  42.453   4.609
55621W        W21101  23.202  11.290   2.390
55622W        W21102  43.481  21.225  12.384
55623W        W21103  15.102   0.850   0.301
55624W        W21104  25.519  25.052  13.887
55625W        W21105  30.047  36.044   0.947
55626W        W21106   4.366  42.420   1.231
55627W        W21107   8.684  43.964  14.847
55628W        W21108  31.608  21.156  11.410
55629W        W21109  11.199   9.168   2.756
55630W        W21110  33.056  20.055  11.117
55631W        W21111  17.185  27.002   1.259
55632W        W21112   5.281  14.674  13.041
55633W        W21113   8.310  28.995   4.792
55634W        W21114  14.666  12.777  10.055
55635W        W21115  18.692  40.536  13.352
55636W        W21116  33.990  41.962   4.741
55637W        W21117  32.966  24.008   3.363
55638W        W21118  39.997  16.618   3.323
55639W        W21119  37.062  43.806   2.336
55640W        W21120  26.961  42.449   2.807
55641W        W21121  32.624  17.300  10.524
55642W        W21122  35.994  11.169  14.878
55643W        W21123  22.109  26.990   4.715
55644W        W21124  35.492  31.429   1.425
55645W        W21125  18.142  18.117   1.283
55646W        W21126  39.821  39.830   1.262
55647W        W21127  35.104   4.734   4.298
55648W        W21128  36.014  29.529  11.867
55649W        W21129  17.228  20.247  14.385
55650W        W21130   7.340   0.396   2.663
55651W        W21131   1.397  17.709   4.793
55652W        W21132   4.717   6.681  12.411
55653W        W21133  28.135  25.625   1.919
55654W        W21134  28.495   9.889   1.696
55655W        W21135  37.054  38.839   2.832
55656W        W21136  35.397  33.610  12.071
55657W        W21137  17.087  20.143  12.412
55658W        W21138  30.552  23.067  14.431
55659W        W21139  38.979   7.740  14.282
55660W        W21140  15.624   7.243  10.994
55661W        W21141  22.600  14.672   0.749
55662W        W21142  10.745  33.561   4.638
55663W        W21143  13.718  30.066   4.326
55664W        W21144   5.874   8.654   0.296
55665W        W21145  12.771  42.941  11.453
55666W        W21146  22.679  39.486  11.437
55667W        W21147  21.655  26.030  12.065
55668W        W21148  40.012  10.667  14.477
55669W        W21149  14.265  38.355   4.816
55670W        W21150  40.431   3.431   4.210
55671W        W21151  20.690  24.699   0.950
55672W        W21152  27.105  31.897   1.387
55673W        W21153  22.739  29.599  14.833
55674W        W21154  35.863  15.224  13.944
55675W        W21155  20.696   2.876  14.855
55676W        W21156  19.145  41.483  10.506
55677W        W21157  15.235   4.435  12.951
55678W        W21158  27.962  10.859   0.254
55679W        W21159  13.261  20.086  12.990
55680W        W21160  13.669  18.170   3.758
55681W        W21161  19.571   4.257   3.189
55682W        W21162  34.428  22.588   1.731
55683W        W21163   2.863  35.439  11.925
55684W        W21164  22.156  32.408   3.239
55685W        W21165  18.070   4.734   4.697
55686W        W21166   9.868  27.535  11.926
55687W        W21167  43.272  15.606  10.537
55688W        W21168  28.040  25.149  14.968
55689W        W21169  13.180  11.782   9.960
55690W        W21170   9.691  41.532   1.727
55691W        W21171  18.784  28.095   5.770
55692W        W21172  43.967  31.402  12.522
55693W        W21173  27.690  44.961   4.679
55694W        W21174  29.016  11.720   4.318
55695W        W21175  20.704  25.546  13.402
55696W        W21176  27.458  18.610   3.716
55697W        W21177  40.490  18.699   3.363
55698W        W21178  20.263   0.866  11.396
55699W        W21179   5.728  33.884  11.912
55700W        W21180  43.423  34.489   0.743
55701W        W21181  40.436  40.441  11.930
55702W        W21182  38.411  32.116  14.355
55703W        W21183   3.757  29.991   3.711
55704W        W21184  17.234  41.040  11.120
55705W        W21185  16.279  33.969  14.505
55706W        W21186  35.951  31.548  11.591
55707W        W21187  18.628  24.489   4.134
55708W        W21188  30.908  36.957  14.859
55709W        W21189  31.472   8.329  10.588
55710W        W21190  29.547  26.554   1.805
55711W        W21191  42.848  40.457   1.272
55712W        W21192  18.130  40.416   4.241
55713W        W21193  36.585  36.427   3.689
55714W        W21194   8.686   0.774   2.338
55715W        W21195  14.153  31.474  13.875
55716W        W21196  40.937   2.437  13.942
55717W        W21197  43.334  22.501  12.844
55718W        W21198   5.389  14.191  13.836
55719W        W21199   7.180  29.093   1.285
55720W        W21200   9.267   0.395  11.571
55721W        W21201  24.165  18.164   4.799
55722W        W21202   8.670  41.799   4.261
55723W        W21203  10.817  27.004  14.456
55724W        W21204  11.143  31.444   1.409
55725W        W21205   6.330  23.714  12.502
55726W        W21206  31.966   9.761   3.769
55727W        W21207  39.487  17.625  12.038
55728W        W21208  16.618   7.895  12.069
55729W        W21209   5.422  26.087  11.394
55730W        W21210  14.803  28.030  14.465
55731W        W21211  41.815  24.591  11.911
55732W        W21212  38.011  22.533   1.911
55733W        W21213  30.510  16.789  13.448
55734W        W21214   2.920   3.875   0.468
55735W        W21215  26.599  33.538   0.321
55736W        W21216  14.258  34.992  14.375
55737W        W21217  33.102  20.718  12.838
55738W        W21218  18.638  26.644   1.809
55739W        W21219   2.722   3.305  12.487
55740W        W21220  26.116   8.865  10.521
55741W        W21221  13.790  26.485   0.369
55742W        W21222  11.303  10.728   0.870
55743W        W21223  36.592   1.312   1.755
55744W        W21224   9.226   8.209  12.466
55745W        W21225  21.120  34.024  11.411
55746W        W21226  21.123   0.285   2.202
55747W        W21227  34.563  32.435   3.835
55748W        W21228  29.430  34.964  10.527
55749W        W21229  22.049   0.424   0.939
55750W        W21230   0.967  11.736   0.775
55751W        W21231  29.656  35.100  11.466
55752W        W21232   6.695  11.660  11.044
55753W        W21233  32.926   9.262   1.305
55754W        W21234   3.710  11.805  10.927
55755W        W21235  11.687  36.874  12.423
55756W        W21236  23.628  24.664  12.406
55757W        W21237  36.454  29.498   1.413
55758W        W21238  21.022  38.933  11.884
55759W        W21239  24.998  30.087  12.853
55760W        W21240   4.828  30.015   3.665
55761W        W21241   1.755  19.106  12.355
55762W        W21242   5.787  31.483   4.739
55763W        W21243   6.362  32.128   1.422
55764W        W21244  40.965  10.350   4.353
55765W        W21245  15.208   9.165  12.864
55766W        W21246  23.580  42.809   0.325
55767W        W21247   6.286  39.030  13.052
55768W        W21248  23.580  21.096  13.870
55769W        W21249   1.968  43.429   4.699
55770W        W21250   9.366   0.274  13.400
55771W        W21251  29.480  31.564  14.356
55772W        W21252  42.456  23.179   1.879
55773W        W21253   5.767  20.058   4.318
55774W        W21254  26.048  20.743   3.340
55775W        W21255  40.403  37.856   1.842
55776W        W21256  37.937  36.861  11.451
55777W        W21257   7.296  27.636  13.902
55778W        W21258   5.305  25.631   0.436
55779W        W21259  35.403   9.198   0.458
55780W        W21260  24.525  40.005  12.376
55781W        W21261  39.386  28.038   4.318
55782W        W21262  34.436   1.403   4.346
55783W        W21263  26.208  41.505   4.679
55784W        W21264  40.411  17.190  12.470
55785W        W21265   8.278  32.565  11.118
55786W        W21266  41.023  10.182  13.506
55787W        W21267  21.094  21.240  10.449
55788W        W21268  14.307  18.252  11.935
55789W        W21269   1.249  27.630  11.090
55790W        W21270  35.596  42.851   1.810
55791W        W21271  42.028   0.362   3.768
55792W        W21272  20.680   3.226  14.809
55793W        W21273  20.210   2.394  12.551
55794W        W21274  44.877   8.161   2.370
55795W        W21275   5.865  38.072  10.576
55796W        W21276   4.288   5.400  11.382
55797W        W21277   7.852  20.654  12.012
55798W        W21278  25.213  27.092   4.177
55799W        W21279  29.440  41.021  13.920
55800W        W21280   7.226  13.826  10.640
55801W        W21281  24.654  29.072  14.377
55802W        W21282  12.715  36.938   1.213
55803W        W21283   0.408  41.787  10.515
55804W        W21284   9.312   3.751   2.264
55805W        W21285  28.508   5.221  10.923
55806W        W21286  39.063  24.214   4.260
55807W        W21287   8.394  41.520   3.159
55808W        W21288   6.683  25.206  13.871
55809W        W21289   1.414  12.675   1.384
55810W        W21290  13.324   4.741  12.829
55811W        W21291   0.897   7.757  13.915
55812W        W21292   0.951  20.561   2.685
55813W        W21293  28.939  35.955  13.316
55814W        W21294   6.897  11.649  11.400
55815W        W21295  30.984  24.651   3.272
55816W        W21296  23.203  28.544   3.669
55817W        W21297  39.843  11.292   1.283
55818W        W21298  42.990  16.247  10.641
55819W        W21299  35.446  32.416  12.895
55820W        W21300  33.018  43.956   2.697
55821W        W21301  37.486   9.178   4.802
55822W        W21302  29.173   1.795   2.774
55823W        W21303  32.457   6.322   4.648
55824W        W21304  39.545   7.819   9.927
55825W        W21305  28.458  29.990  13.418
55826W        W21306  18.096  24.146   3.183
55827W        W21307  44.936   0.901   2.323
55828W        W21308  14.644  32.121  12.862
55829W        W21309  34.895  23.141   1.322
55830W        W21310  43.948  21.129   3.189
55831W        W21311   8.295  39.953  11.382
55832W        W21312   5.390  25.023  14.403
55833W        W21313  42.312  23.608  14.403
55834W        W21314  26.105  27.144  14.331
55835W        W21315  11.213  33.609  11.869
55836W        W21316   8.326  41.988  13.852
55837W        W21317  18.199  34.865   0.916
55838W        W21318   6.713  42.505   1.927
55839W        W21319  11.842   2.366   2.673
55840W        W21320  37.555   3.924   1.350
55841W        W21321  40.418  19.058  10.941
55842W        W21322   2.244  39.546  13.013
55843W        W21323  33.936  17.631  12.888
55844W        W21324  35.358  43.458  12.997
55845W        W21325  25.571  15.279   0.405
55846W        W21326  14.656  25.154   5.264
55847W        W21327  23.130  20.247  11.439
55848W        W21328  28.989   3.240   2.735
55849W        W21329   0.390  26.473   4.802
55850W        W21330  14.815  42.431   3.767
55851W        W21331   3.219  33.530  10.505
55852W        W21332  24.540  25.514  12.031
55853W        W21333   1.952  12.824  11.125
55854W        W21334   2.422  14.211   3.331
55855W        W21335  41.808  30.504   4.817
55856W        W21336   7.809  35.594  12.828
55857W        W21337  30.508  11.868  11.861
55858W        W21338  35.873   3.283  14.892
55859W        W21339  35.418  14.265  14.471
55860W        W21340   2.754  25.504   1.413
55861W        W21341  23.099  17.591   4.814
55862W        W21342  25.609   0.744  14.380
55863W        W21343  20.674  18.279   1.731
55864W        W21344  43.994  22.094  14.784
55865W        W21345  39.477  43.464   4.190
55866W        W21346  39.021  25.571  11.061
55867W        W21347  14.828  33.403  10.507
55868W        W21348  43.860   1.786  12.456
55869W        W21349  33.943  16.732  10.413
55870W        W21350  16.141  31.403   4.180
55871W        W21351  41.855   6.775  13.902
55872W        W21352   3.319  20.762   3.670
55873W        W21353  18.269  44.425   1.383
55874W        W21354  35.921  32.976  11.512
55875W        W21355   0.379   2.468   1.825
55876W        W21356  40.954  38.985  11.003
55877W        W21357   9.693  37.024  10.637
55878W        W21358  15.620  39.063   4.609
55879W        W21359  35.948  42.461  12.516
55880W        W21360  39.915  30.476   0.752
55881W        W21361  28.140   4.415  10.599
55882W        W21362  42.322  35.062   0.967
55883W        W21363  30.998  17.246  10.492
55884W        W21364  28.938  12.345   4.676
55885W        W21365   0.275  10.750   3.785
55886W        W21366  36.023  22.627  13.848
55887W        W21367  27.036  25.471  12.028
55888W        W21368  35.052  38.826  11.515
55889W        W21369   7.237  38.461  11.401
55890W        W21370  18.231  23.546  14.383
55891W        W21371  39.007  16.657  13.532
55892W        W21372  36.371  13.788  14.898
55893W        W21373  23.109  29.439   2.874
55894W        W21374   3.809   0.263  12.030
55895W        W21375  39.402  25.002  13.363
55896W        W21376  39.007  39.912   1.353
55897W        W21377   2.327   1.245   0.329
55898W        W21378   7.825  16.702   2.769
55899W        W21379  40.328  25.613  13.810
55900W        W21380   4.754  21.134   3.248
55901W        W21381  23.548  17.292   1.915
55902W        W21382  37.045  43.926  14.478
55903W        W21383   9.286  27.448   2.189
55904W        W21384  17.303  42.519   4.319
55905W        W21385   6.233  40.903  12.948
55906W        W21386  40.362  41.024  11.038
55907W        W21387  18.098  24.143  14.498
55908W        W21388  39.359  11.196  11.521
55909W        W21389  37.882  22.704  14.954
55910W        W21390  31.080   2.313   2.773
55911W        W21391   5.890   5.323  14.772
55912W        W21392  33.083  31.608  13.506
55913W        W21393  22.686  32.914   1.905
55914W        W21394   0.905  18.062   3.642
55915W        W21395  15.122  20.190   2.671
55916W        W21396  32.575   6.867  13.489
55917W        W21397  21.735  21.125  11.438
55918W        W21398  42.386  31.480   0.460
55919W        W21399  31.104  31.553   3.171
55920W        W21400  44.468   5.852   3.369
55921W        W21401  13.152  34.941   1.294
55922W        W21402  30.656  41.359   2.190
55923W        W21403  15.627   6.708   1.257
55924W        W21404   4.291  36.392  12.057
55925W        W21405  16.568  29.943   4.291
55926W        W21406   6.289  21.025  13.401
55927W        W21407  10.843  12.736  13.420
55928W        W21408   4.740  16.185  12.472
55929W        W21409  30.424  42.411  12.041
55930W        W21410   9.261  13.270  12.401
55931W        W21411   2.426  21.194  13.959
55932W        W21412   6.378  25.494  11.396
55933W        W21413   9.765  17.715  14.437
55934W        W21414  39.056  34.553  11.011
55935W        W21415  16.604  35.021  14.949
55936W        W21416   0.350  13.805  13.421
55937W        W21417  21.104  34.061   4.351
55938W        W21418   2.375  20.216   2.713
55939W        W21419  39.919  34.453  11.434
55940W        W21420   3.321  25.576   3.210
55941W        W21421  25.619  42.997  12.414
55942W        W21422   1.256  20.142   2.408
55943W        W21423  40.828  18.630   3.728
55944W        W21424  25.962   6.720  14.431
55945W        W21425   0.339  37.493   0.968
55946W        W21426  24.548  24.615   4.785
55947W        W21427  35.537   5.783   0.744
55948W        W21428   2.783   0.970  11.463
55949W        W21429  41.364   1.732  12.068
55950W        W21430  14.248  22.099  11.972
55951W        W21431   9.193  42.996  13.859
55952W        W21432  30.454  38.051  13.868
55953W        W21433   0.322   1.887  12.398
55954W        W21434  38.919   0.985   0.444
55955W        W21435  19.670  32.105  13.911
55956W        W21436   8.206  19.082  11.584
55957W        W21437  22.234  16.807   0.829
55958W        W21438   6.772  29.637   1.333
55959W        W21439  19.570  32.496   3.799
55960W        W21440  20.144  23.659  10.498
55961W        W21441  11.704  18.728  11.089
55962W        W21442  21.747   3.835  14.777
55963W        W21443  33.880  40.307   2.879
55964W        W21444  20.766  24.155   3.243
55965W        W21445  10.736   6.183  13.821
55966W        W21446  13.180   0.474  14.983
55967W        W21447   0.942  23.536   0.275
55968W        W21448  26.139  22.174   3.289
55969W        W21449   5.241   5.752  12.529
55970W        W21450  32.526  26.471   3.824
55971W        W21451  40.820  39.464  11.549
55972W        W21452  33.895   2.804   3.840
55973W        W21453   6.768   6.265   0.385
55974W        W21454  41.944  33.400  13.437
55975W        W21455   9.745  38.988   0.435
55976W        W21456  16.678  11.730  12.350
55977W        W21457  32.440   8.739  13.830
55978W        W21458  10.725  25.972   4.203
55979W        W21459   0.412   0.891  13.946
55980W        W21460   0.768  35.013   1.380
55981W        W21461  21.131  25.990  12.830
55982W        W21462  37.418  41.027  10.442
55983W        W21463  12.118   0.837   1.254
55984W        W21464   5.746  27.981  14.291
55985W        W21465   3.765  37.038  10.521
55986W        W21466  22.676  29.603  12.924
55987W        W21467  21.708   9.231  14.814
55988W        W21468  18.646   8.197   0.742
55989W        W21469  13.617  38.355   4.732
55990W        W21470   9.217  15.282  12.488
55991W        W21471  28.515  31.611  11.487
55992W        W21472  38.536  24.528   2.704
55993W        W21473  33.105  36.395  10.528
55994W        W21474  27.573   6.724  11.087
55995W        W21475   8.761  15.106   1.409
55996W        W21476  34.591  32.459  14.800
55997W        W21477   8.196  33.050  12.354
55998W        W21478  37.476   7.178   2.256
55999W        W21479  28.020  23.057  12.397
56000W        W21480   0.326  32.075  14.991
56001W        W21481  18.238  37.537  10.926
56002W        W21482  39.056  35.085   4.150
56003W        W21483  12.273   9.151  14.927
56004W        W21484  21.204   0.361   1.360
56005W        W21485  41.308   1.340   4.119
56006W        W21486  32.051  19.139  13.528
56007W        W21487  43.458   3.375  10.630
56008W        W21488  42.431  40.880  10.894
56009W        W21489  23.649  11.866  12.864
56010W        W21490  14.786  35.931  13.426
56011W        W21491   9.768  12.260  12.000
56012W        W21492   4.766  33.066  13.915
56013W        W21493  19.769  27.148   9.477
56014W        W21494   2.428  11.331  12.432
56015W        W21495  44.295  31.903  10.445
56016W        W21496  35.000  14.284   2.752
56017W        W21497   2.850   6.715   2.235
56018W        W21498  15.703  11.672   1.843
56019W        W21499  19.774  30.082   4.149
56020W        W21500  36.969  41.862  11.513
56021W        W21501  21.255   1.846  12.834
56022W        W21502  36.404  29.452   4.617
56023W        W21503   7.224  34.501   2.679
56024W        W21504  36.547  32.541  10.419
56025W        W21505  34.941  34.939  13.378
56026W        W21506  34.458  21.703  12.008
56027W        W21507  24.012  41.826  13.537
56028W        W21508  27.596  41.940   5.789
56029W        W21509  27.603   5.784   3.280
56030W        W21510  42.013  14.749   4.650
56031W        W21511  36.463  13.704  11.395
56032W        W21512  19.746   2.805   2.822
56033W        W21513   0.493   8.396   0.260
56034W        W21514   6.873  43.400  13.480
56035W        W21515   4.227  27.031  14.013
56036W        W21516  21.074  33.991  12.401
56037W        W21517  17.066  11.782  14.789
56038W        W21518  15.166  34.584   2.697
56039W        W21519  40.379  33.970   3.837
56040W        W21520   3.953  35.960   1.425
56041W        W21521   2.250  38.347  13.309
56042W        W21522  15.111  12.717   1.846
56043W        W21523  13.110  42.443   2.712
56044W        W21524   2.369   7.771   2.352
56045W        W21525  16.240  32.032   3.651
56046W        W21526  17.291  28.999  11.058
56047W        W21527  34.085  14.720   3.319
56048W        W21528   2.250  10.761   2.384
56049W        W21529   1.400  13.605  14.509
56050W        W21530  34.390  30.415  10.419
56051W        W21531  14.309  19.280  10.910
56052W        W21532   6.236  24.057   3.735
56053W        W21533  22.555  35.873  10.645
56054W        W21534   3.882  16.805   0.413
56055W        W21535  31.014  36.450  13.454
56056W        W21536  22.593  21.705   2.848
56057W        W21537  16.080  30.009  13.949
56058W        W21538  24.508  39.882  10.437
56059W        W21539  41.376  11.722  10.415
56060W        W21540  20.245  24.146  11.008
56061W        W21541  17.136  31.931  14.428
56062W        W21542   6.299  18.220  13.394
56063W        W21543  33.560  15.113  11.866
56064W        W21544  13.841   7.734   4.806
56065W        W21545  44.816  35.495   2.722
56066W        W21546  10.345  35.372   4.318
56067W        W21547   0.895  36.460   1.239
56068W        W21548   8.720  35.578   3.771
56069W        W21549  32.612  13.698  10.902
56070W        W21550  15.168  42.857   1.414
56071W        W21551   1.883   4.439   1.247
56072W        W21552  40.971  26.677  12.502
56073W        W21553  14.619  43.828  11.963
56074W        W21554  19.147  25.066  10.590
56075W        W21555  24.605  44.965  14.471
56076W        W21556  16.078  44.900   0.923
56077W        W21557  24.120  13.638  13.046
56078W        W21558   5.881  17.228  10.966
56079W        W21559   5.309  10.151  12.909
56080W        W21560  38.981  11.835   4.303
56081W        W21561  26.157   6.881  11.897
56082W        W21562  13.177   1.887  13.874
56083W        W21563  15.773  10.822   0.335
56084W        W21564  27.522   9.394  14.892
56085W        W21565   5.879  28.029   3.634
56086W        W21566   6.212  33.093   2.371
56087W        W21567  15.110  10.242  14.513
56088W        W21568  44.452  44.383   2.235
56089W        W21569  17.171  27.124  13.870
56090W        W21570   4.395   7.395   3.694
56091W        W21571  41.376  27.448  13.493
56092W        W21572  23.492  35.074  11.397
56093W        W21573  29.506  11.801  12.512
56094W        W21574   8.750   6.754   2.318
56095W        W21575   5.687  16.753   1.740
56096W        W21576  17.768   5.200   2.675
56097W        W21577  34.524  36.470   2.289
56098W        W21578  17.681  23.678   4.273
56099W        W21579  40.311  10.736   0.394
56100W        W21580   0.745   0.822   4.751
56101W        W21581  29.110  36.414   1.928
56102W        W21582  26.082  29.613   4.206
56103W        W21583  37.512  38.026  11.109
56104W        W21584  36.378  19.239   1.783
56105W        W21585  21.115  40.430  12.501
56106W        W21586  28.983  31.545  12.980
56107W        W21587   0.387  37.983  13.480
56108W        W21588  35.445  37.569  11.031
56109W        W21589  42.349  21.532  14.952
56110W        W21590  43.982  39.529   3.265
56111W        W21591  29.107  36.968   2.842
56112W        W21592   8.870  42.468  14.873
56113W        W21593  25.500   1.312   1.878
56114W        W21594  16.676   9.182  12.426
56115W        W21595  22.998   1.931   4.692
56116W        W21596  26.525  34.502   4.320
56117W        W21597   1.829  20.194  14.377
56118W        W21598   8.678  24.583   2.790
56119W        W21599   9.870  39.891  14.320
56120W        W21600  37.526  14.604  14.290
56121W        W21601  28.147  24.701   2.287
56122W        W21602  43.512  36.423  11.530
56123W        W21603  15.227  43.964  12.864
56124W        W21604   9.191  36.976   0.249
56125W        W21605  16.656  44.955  10.600
56126W        W21606  21.216  27.452  14.783
56127W        W21607  32.481  14.191  12.426
56128W        W21608  35.521  37.847   3.819
56129W        W21609  25.606  23.124  12.867
56130W        W21610  19.713  35.436   4.144
56131W        W21611  37.085  26.078   3.646
56132W        W21612   6.862  15.590  10.555
56133W        W21613  24.639  16.684  12.862
56134W        W21614  25.606  44.955   5.168
56135W        W21615  25.116  17.123   1.279
56136W        W21616  22.057  43.944  12.491
56137W        W21617  12.137  36.943  11.443
56138W        W21618  37.898  22.662   3.642
56139W        W21619  36.498   2.452   1.420
56140W        W21620  15.117  28.159  11.543
56141W        W21621  23.573   8.177  14.951
56142W        W21622  17.750  17.656  13.406
56143W        W21623   4.413  37.905   1.850
56144W        W21624  40.989  38.368   4.336
56145W        W21625  31.445  27.108  12.546
56146W        W21626  36.035  19.103  10.533
56147W        W21627  25.963   7.805  14.320
56148W        W21628   1.238  18.631  12.986
56149W        W21629  17.693  24.615  12.857
56150W        W21630  37.509   1.444   4.152
56151W        W21631  18.052  17.650   4.822
56152W        W21632   5.755  23.105  10.434
56153W        W21633   3.282  13.319   4.831
56154W        W21634  20.137  26.144   2.399
56155W        W21635  17.652   5.318   3.723
56156W        W21636   9.152  14.333   2.683
56157W        W21637   8.733  36.982   3.793
56158W        W21638  23.002   9.754   1.800
56159W        W21639  30.506   9.296   4.676
56160W        W21640  38.075  25.206   4.625
56161W        W21641  34.944  23.117   0.294
56162W        W21642  31.578   4.433   3.740
56163W        W21643  32.459  11.340  10.489
56164W        W21644  17.266  11.216   3.290
56165W        W21645  33.983  31.062  11.926
56166W        W21646  33.420  37.530  13.913
56167W        W21647   9.275  36.943  11.383
56168W        W21648   7.718  21.252   5.322
56169W        W21649  27.650  32.506   0.773
56170W        W21650  20.108   3.266  13.964
56171W        W21651  16.235  20.077   2.318
56172W        W21652  34.558  20.542   1.905
56173W        W21653  27.460   6.845   0.813
56174W        W21654   9.733   5.280   4.637
56175W        W21655  38.821  39.335   2.699
56176W        W21656  13.654   2.765   1.787
56177W        W21657  25.620  16.794   2.698
56178W        W21658   4.306  15.190  11.598
56179W        W21659  31.474  14.149  11.947
56180W        W21660  25.127  27.129   2.743
56181W        W21661  30.055   0.386   3.275
56182W        W21662   5.214  18.620  10.894
56183W        W21663  38.056  21.117  12.030
56184W        W21664  31.405   6.714   3.310
56185W        W21665  26.624  26.170   2.247
56186W        W21666  43.516  31.914   0.384
56187W        W21667   1.428  18.154   2.798
56188W        W21668   8.375   4.252   0.362
56189W        W21669  17.256  10.218   5.244
56190W        W21670   6.307  26.567   2.327
56191W        W21671  31.061  41.922  14.464
56192W        W21672  39.883  35.591   4.120
56193W        W21673  41.474  25.112   1.401
56194W        W21674  23.620  33.923   3.229
56195W        W21675  16.237  10.366  10.565
56196W        W21676  44.887  32.930   4.204
56197W        W21677  43.890  33.485   4.305
56198W        W21678  29.623   7.291   3.375
56199W        W21679   2.401   5.872   2.214
56200W        W21680  17.254  44.308   1.337
56201W        W21681  42.011  29.551   0.877
56202W        W21682  13.277  42.451  13.004
56203W        W21683  26.475  16.790  11.902
56204W        W21684  12.798  39.552   3.282
56205W        W21685  10.250  19.716  11.598
56206W        W21686  41.380  15.632  14.809
56207W        W21687  12.848   9.873   3.729
56208W        W21688  33.389  15.676   1.755
56209W        W21689   7.288  20.134  10.915
56210W        W21690  10.267   6.240  10.071
56211W        W21691   7.766   2.927   4.624
56212W        W21692  43.370  29.599   3.720
56213W        W21693  26.963  28.668  13.314
56214W        W21694  37.086   5.403   4.693
56215W        W21695  37.337   2.776  10.973
56216W        W21696   5.211   7.211  13.500
56217W        W21697  29.991   5.246   3.770
56218W        W21698   8.889  38.830  14.444
56219W        W21699  18.220  29.011  14.509
56220W        W21700  26.020  24.629   4.636
56221W        W21701  26.079   2.318   1.726
56222W        W21702  29.994  36.098  11.531
56223W        W21703  27.454  42.438   3.238
56224W        W21704  38.421   5.354  12.046
56225W        W21705   1.398  24.130  13.367
56226W        W21706  39.341  17.257  13.032
56227W        W21707  38.553   9.383  11.408
56228W        W21708  18.778   6.408  12.983
56229W        W21709  30.912  28.485   0.806
56230W        W21710  39.864   4.440  11.915
56231W        W21711  15.228   0.308  11.874
56232W        W21712  40.829   5.896  12.978
56233W        W21713  14.631  31.940  12.015
56234W        W21714   1.892  18.210   0.334
56235W        W21715  30.090  37.566   4.831
56236W        W21716  36.466  20.523  13.994
56237W        W21717  32.567  36.946  12.052
56238W        W21718  20.083  11.706   0.855
56239W        W21719   4.825   6.319  14.917
56240W        W21720  22.661   8.756   0.770
56241W        W21721  27.178   0.276  12.955
56242W        W21722  30.417  26.140   0.833
56243W        W21723  20.680   3.825  12.366
56244W        W21724  27.098  18.613  10.619
56245W        W21725   5.244   2.790  11.999
56246W        W21726  36.084  15.816   3.852
56247W        W21727  29.923  35.534   2.736
56248W        W21728  24.651  43.924   1.213
56249W        W21729  35.928   3.903   0.426
56250W        W21730  19.203   8.363   2.899
56251W        W21731   2.805  31.909   4.274
56252W        W21732   1.864  22.590   3.256
56253W        W21733  16.309  12.223  14.788
56254W        W21734  32.905  20.207  11.871
56255W        W21735  42.350  31.153  13.409
56256W        W21736  12.765  40.385   0.729
56257W        W21737  22.651  27.611  11.099
56258W        W21738  44.366  20.527  11.049
56259W        W21739  16.674  16.283  13.057
56260W        W21740  20.145  43.767  10.991
56261W        W21741  17.675  25.969   0.382
56262W        W21742  22.042  43.000   4.738
56263W        W21743  39.914  31.522   3.666
56264W        W21744  29.563  43.833  12.490
56265W        W21745  35.939  37.400  10.073
56266W        W21746  33.966  30.121   2.790
56267W        W21747   3.889  28.004  12.088
56268W        W21748  41.816   4.861  12.094
56269W        W21749   2.407  41.518  14.004
56270W        W21750  43.020   5.932   0.296
56271W        W21751   1.792  43.987   1.823
56272W        W21752  23.726  42.420  12.422
56273W        W21753   4.747  21.261   2.728
56274W        W21754  22.152  37.539  12.973
56275W        W21755   8.867  24.995  11.912
56276W        W21756  41.888  12.689   2.878
56277W        W21757  31.453  36.019  11.558
56278W        W21758  23.695  25.612  14.337
56279W        W21759  20.041  12.646   0.416
56280W        W21760   7.806  33.039  11.950
56281W        W21761  15.683  35.980  14.912
56282W        W21762   6.372  12.315  13.391
56283W        W21763  12.817  11.704   4.732
56284W        W21764  36.870  17.717   0.852
56285W        W21765   7.300  38.963  13.479
56286W        W21766   5.924  20.563   1.252
56287W        W21767  21.665  23.159  10.477
56288W        W21768  27.665   3.891  14.438
56289W        W21769  37.467  12.193   0.786
56290W        W21770  26.955  38.943   0.811
56291W        W21771  28.139  37.920   1.438
56292W        W21772  24.618  30.438  11.125
56293W        W21773  36.379  39.055  11.884
56294W        W21774  21.121  39.008  14.438
56295W        W21775  35.572  28.094   2.852
56296W        W21776   5.394  30.032  12.504
56297W        W21777  29.028  27.556   0.793
56298W        W21778  39.458  42.812   0.410
56299W        W21779  23.546   8.161   3.792
56300W        W21780  33.091   0.898   1.243
56301W        W21781  15.224  12.298  12.906
56302W        W21782   0.355  32.053   3.637
56303W        W21783  35.015  27.122   0.390
56304W        W21784   9.748  38.993  14.488
56305W        W21785  23.174   8.710  13.490
56306W        W21786  28.080   2.315   2.885
56307W        W21787  37.520  33.468   3.662
56308W        W21788  26.973  18.778   2.676
56309W        W21789   4.881  13.171   5.285
56310W        W21790  40.857   0.253   2.375
56311W        W21791  41.906  30.597  11.541
56312W        W21792  33.059  23.651  12.086
56313W        W21793  41.874  12.348  12.431
56314W        W21794  42.510  16.301  14.811
56315W        W21795  24.985  13.604  12.076
56316W        W21796  15.158  29.517  13.419
56317W        W21797  12.259  41.415  10.909
56318W        W21798   7.287  10.672  13.468
56319W        W21799  20.127   1.366  13.988
56320W        W21800  24.520   0.747   0.967
56321W        W21801  23.688  36.091  14.282
56322W        W21802  41.332  34.118  11.122
56323W        W21803  33.067  37.392   4.314
56324W        W21804  31.075  18.213  14.942
56325W        W21805   6.767  36.933  13.474
56326W        W21806  34.599  25.619  11.878
56327W        W21807  11.778  31.407   3.178
56328W        W21808  29.140   8.797   0.270
56329W        W21809  38.858  35.988  14.447
56330W        W21810   1.261  13.170   4.758
56331W        W21811  40.963  33.412  14.384
56332W        W21812   1.950  32.130   4.143
56333W        W21813  15.675   3.869   3.275
56334W        W21814  13.207  40.400   3.373
56335W        W21815  25.657   1.239  14.476
56336W        W21816  36.863  22.103  12.995
56337W        W21817   4.817  27.067   3.212
56338W        W21818  26.130  31.556   2.662
56339W        W21819  41.519  14.676  13.480
56340W        W21820  26.121  30.061  14.967
56341W        W21821   6.238   6.370   3.310
56342W        W21822  17.568  28.662  14.829
56343W        W21823   8.177   7.715  13.812
56344W        W21824   6.723   0.434  13.005
56345W        W21825  12.340  42.823  13.337
56346W        W21826  33.948  12.202   1.828
56347W        W21827  20.632  21.707   4.736
56348W        W21828  24.162   6.361   1.408
56349W        W21829  35.385  10.693  12.505
56350W        W21830   5.691   7.401   4.720
56351W        W21831  32.957  36.397   4.333
56352W        W21832  15.762   5.764   4.668
56353W        W21833  39.503   8.880   0.339
56354W        W21834  18.564  25.693   0.788
56355W        W21835  16.606  18.279  10.428
56356W        W21836  40.397  43.861   1.251
56357W        W21837  19.735   2.288   1.703
56358W        W21838  10.316  24.506   0.939
56359W        W21839  39.531  34.971  12.932
56360W        W21840  25.595  15.301  11.475
56361W        W21841  12.709   3.442   4.738
56362W        W21842  26.641   2.405  13.341
56363W        W21843  14.676  30.658   3.184
56364W        W21844  33.463  24.993  10.128
56365W        W21845  38.006   4.231  12.378
56366W        W21846  22.696  20.061   0.327
56367W        W21847  28.962  33.033   3.344
56368W        W21848  29.061   5.695   2.234
56369W        W21849  39.882   2.360  12.521
56370W        W21850  44.947  42.363  13.986
56371W        W21851  15.676  13.142   1.415
56372W        W21852  17.580  44.290   4.318
56373W        W21853   1.348  10.858   4.237
56374W        W21854  23.099   6.911  14.460
56375W        W21855   8.264  22.181  14.470
56376W        W21856  36.955   6.251  13.455
56377W        W21857  10.771  17.800  14.391
56378W        W21858  31.550  14.731   1.265
56379W        W21859  17.652  29.617   3.165
56380W        W21860  16.653  26.978   2.329
56381W        W21861  44.339  44.318  14.936
56382W        W21862  25.059  29.501   1.777
56383W        W21863   3.778  26.010   3.769
56384W        W21864   5.688  41.523   4.141
56385W        W21865  17.579  20.030   2.764
56386W        W21866  20.149   8.264   1.272
56387W        W21867  30.465  32.426   2.350
56388W        W21868  29.617  32.608  12.568
56389W        W21869  11.281  35.978  10.520
56390W        W21870  42.997  21.713   2.850
56391W        W21871  15.596   2.807  11.952
56392W        W21872   2.415   9.767   3.239
56393W        W21873  13.696  25.703   4.616
56394W        W21874  38.487  10.731   3.375
56395W        W21875   7.249  19.270   1.867
56396W        W21876  37.997  25.150  14.454
56397W        W21877  19.756   7.684   1.250
56398W        W21878  18.117  18.747  11.926
56399W        W21879  20.614  14.138  10.985
56400W        W21880   5.923   2.958   0.825
56401W        W21881  18.562  41.323  13.962
56402W        W21882  11.343  15.250  10.430
56403W        W21883  15.815   2.248   4.261
56404W        W21884   7.703  17.730   3.259
56405W        W21885  12.142  38.878  14.774
56406W        W21886  28.471   4.383   1.910
56407W        W21887  42.979   9.735  10.072
56408W        W21888  30.437  14.638  11.534
56409W        W21889  38.513  25.610  11.391
56410W        W21890  23.657  25.033  12.902
56411W        W21891  15.103  36.007   1.348
56412W        W21892  14.763  25.621   0.272
56413W        W21893  42.863   8.319  13.468
56414W        W21894  36.042  36.003   1.371
56415W        W21895  39.844  42.990   0.737
56416W        W21896   1.407  31.095  12.020
56417W        W21897  34.380   4.274  12.402
56418W        W21898   2.463   2.735   2.843
56419W        W21899  44.827  17.107  13.424
56420W        W21900  20.544  15.222   4.794
56421W        W21901  33.405  30.120   2.370
56422W        W21902   5.874  34.083   0.788
56423W        W21903   8.814  12.742   3.803
56424W        W21904  26.957  30.102   0.774
56425W        W21905   2.350  17.718   4.349
56426W        W21906   4.275  13.831   4.203
56427W        W21907  39.043  24.081   5.216
56428W        W21908  42.466  29.591   1.836
56429W        W21909  26.664  20.160   4.603
56430W        W21910   0.896   9.329  14.863
56431W        W21911   1.733  33.111   1.745
56432W        W21912   2.411  18.675  13.396
56433W        W21913   6.304  38.895  11.419
56434W        W21914  40.890  15.670   3.366
56435W        W21915   7.213   4.332   4.607
56436W        W21916  35.950  16.768   4.607
56437W        W21917  29.976  30.478   0.298
56438W        W21918   5.366  23.617   1.717
56439W        W21919  37.036  13.106  10.959
56440W        W21920  30.093  35.084   4.803
56441W        W21921  15.783  19.562  12.854
56442W        W21922  22.710  10.815  14.800
56443W        W21923  26.113  23.051   4.621
56444W        W21924  20.740  28.968   0.936
56445W        W21925  26.642  40.938   1.256
56446W        W21926  12.734  29.092   3.298
56447W        W21927  27.466  28.039   3.671
56448W        W21928  18.636  40.026   3.271
56449W        W21929  28.019  30.446  10.941
56450W        W21930  11.360  13.697  10.644
56451W        W21931  24.585  40.879  10.411
56452W        W21932  38.370   4.368   3.385
56453W        W21933  27.140   3.409  10.915
56454W        W21934  19.144  11.239  12.464
56455W        W21935   0.961  40.927   3.222
56456W        W21936  36.399   1.439  14.969
56457W        W21937  36.846  28.068   1.331
56458W        W21938  31.968  33.065   4.274
56459W        W21939  36.403  30.530   3.676
56460W        W21940   6.726  14.104  14.433
56461W        W21941   8.213  42.282  13.949
56462W        W21942  13.808  36.948   0.839
56463W        W21943  11.839  38.982   2.279
56464W        W21944   0.828  39.522  13.340
56465W        W21945  36.033  24.212   0.342
56466W        W21946   5.844  18.119   2.322
56467W        W21947  10.215  39.884   4.319
56468W        W21948  23.515  30.504   4.143
56469W        W21949  33.570   5.309   4.347
56470W        W21950  38.831  44.809   2.796
56471W        W21951   4.233  17.771  12.944
56472W        W21952   5.911  41.481   1.347
56473W        W21953   5.876  40.414   1.827
56474W        W21954  23.050  32.106   1.791
56475W        W21955  34.588  34.497   3.727
56476W        W21956  12.143  32.007  11.108
56477W        W21957  26.687  43.853  13.791
56478W        W21958  21.186  22.998   2.709
56479W        W21959  19.727  12.765  11.093
56480W        W21960  19.540  16.627   0.949
56481W        W21961  10.869   5.310  11.560
56482W        W21962  36.468   3.334   2.812
56483W        W21963   7.912   3.832  13.800
56484W        W21964  30.573   1.323  14.338
56485W        W21965  28.978  37.521   1.813
56486W        W21966  24.979  24.664  11.114
56487W        W21967  18.679  40.951   3.321
56488W        W21968   6.803  41.365   0.880
56489W        W21969  15.115   2.436  14.849
56490W        W21970   6.298  12.169   1.934
56491W        W21971  29.573  11.743  11.030
56492W        W21972  32.467  13.631  14.336
56493W        W21973   6.204  14.828   2.673
56494W        W21974  37.581   2.906   2.359
56495W        W21975  33.110  25.703  11.961
56496W        W21976   9.849  32.946  10.956
56497W        W21977  23.566   4.837   3.650
56498W        W21978  18.745  30.538   1.362
56499W        W21979   2.880  22.080  10.451
56500W        W21980  38.339  35.536   0.340
56501W        W21981   6.786  32.580   2.823
56502W        W21982  31.586  18.772  14.930
56503W        W21983  23.504  28.162  12.935
56504W        W21984  25.640  10.770   1.241
56505W        W21985   0.293  33.498  12.577
56506W        W21986  33.118  12.319  10.405
56507W        W21987   6.697  12.694   0.821
56508W        W21988  28.551  10.232   1.891
56509W        W21989   5.390   8.368   0.823
56510W        W21990  31.458  28.642   2.823
56511W        W21991  32.018  32.505  13.541
56512W        W21992  23.231   7.747   0.274
56513W        W21993  15.820   2.915  12.373
56514W        W21994   5.259  30.563   3.683
56515W        W21995  32.107  22.550   3.639
56516W        W21996   7.784   0.806  12.966
56517W        W21997  34.880  16.608  10.103
56518W        W21998  28.554  10.779   1.374
56519W        W21999  36.029  37.985   4.820
56520W        W22000  38.569  44.777   4.649
56521W        W22001  17.744  25.150  14.484
56522W        W22002  12.157  19.284   3.306
56523W        W22003  28.609  17.695  14.341
56524W        W22004   2.763  27.528  14.340
56525W        W22005  22.632  14.674  13.481
56526W        W22006  15.098  18.122   1.256
56527W        W22007  14.312  16.162   1.402
56528W        W22008   9.269  30.052   3.223
56529W        W22009  15.150  29.499   1.845
56530W        W22010  16.122  14.600   0.797
56531W        W22011  39.969  25.640  13.791
56532W        W22012  36.370   6.364   2.400
56533W        W22013  11.822   7.736   0.812
56534W        W22014  29.481  28.105  10.613
56535W        W22015  22.107   1.831  10.448
56536W        W22016  24.698   5.693  11.927
56537W        W22017  37.346  29.555  14.824
56538W        W22018  18.587  20.604  12.046
56539W        W22019   3.241  29.176  13.819
56540W        W22020   4.444  23.150   4.665
56541W        W22021  12.253  21.082   0.883
56542W        W22022   5.758  17.176   4.166
56543W        W22023  12.170  40.862  12.999
56544W        W22024  20.691   8.816  13.398
56545W        W22025  41.844   7.744  11.447
56546W        W22026  42.483  43.784   3.366
56547W        W22027  11.287  27.015   0.275
56548W        W22028   7.694  20.542   1.853
56549W        W22029  11.334  16.636  13.883
56550W        W22030  19.095  20.130   3.702
56551W        W22031  36.361  34.008  12.995
56552W        W22032   5.421  13.280   2.738
56553W        W22033  24.553  30.105  14.324
56554W        W22034  26.170  38.005  14.371
56555W        W22035   5.793  38.970   2.804
56556W        W22036  26.679  36.940  11.049
56557W        W22037  13.746  43.356  13.390
56558W        W22038   5.723   1.923  12.874
56559W        W22039  30.532  41.411  10.160
56560W        W22040  24.074   0.972   1.248
56561W        W22041  14.253  13.298  12.829
56562W        W22042  11.693  11.690  13.956
56563W        W22043  39.536  28.640   4.644
56564W        W22044  14.133   1.478  14.309
56565W        W22045  25.581  44.952   2.678
56566W        W22046  20.164  32.548   1.423
56567W        W22047  19.665  18.593  10.511
56568W        W22048  16.212  13.256   1.900
56569W        W22049  31.536  22.132  11.562
56570W        W22050   8.695  21.722   3.198
56571W        W22051  29.078  20.676   3.640
56572W        W22052  40.424   6.912   1.711
56573W        W22053   5.286  11.302   0.747
56574W        W22054  19.108  10.331  12.955
56575W        W22055   2.430  24.186  12.551
56576W        W22056  25.077  23.043   1.769
56577W        W22057  43.835  25.697   2.182
56578W        W22058   5.907  25.109   5.158
56579W        W22059  24.084  17.735   1.750
56580W        W22060  38.552   5.286   2.803
56581W        W22061  17.281   4.788  12.962
56582W        W22062  25.185   3.777   0.812
56583W        W22063  22.711  44.887   0.341
56584W        W22064  22.718  42.281   9.970
56585W        W22065   6.339   8.363  14.422
56586W        W22066  25.968  14.127  13.481
56587W        W22067  43.900  14.208  12.023
56588W        W22068  13.727  19.693  11.507
56589W        W22069   6.347   0.488   1.214
56590W        W22070  34.875  32.577   0.369
56591W        W22071  40.463  20.742  11.380
56592W        W22072   7.271   7.255  11.011
56593W        W22073  19.227  41.377   3.778
56594W        W22074   1.381  16.272   4.173
56595W        W22075   9.649  39.016   1.425
56596W        W22076  30.916   3.839  14.923
56597W        W22077  40.921   5.760   3.732
56598W        W22078  40.890  21.608   1.237
56599W        W22079  32.981  41.795   2.268
56600W        W22080  11.838  39.372   1.321
56601W        W22081  38.020  44.894   2.381
56602W        W22082  29.430   4.351  13.901
56603W        W22083  10.794  37.956   2.408
56604W        W22084  15.598  16.091   2.371
56605W        W22085  39.878  42.873   3.849
56606W        W22086  12.187  10.819  12.497
56607W        W22087  33.091  40.865  14.465
56608W        W22088  15.755  25.148   3.663
56609W        W22089   3.943  23.661  14.794
56610W        W22090   2.814  37.545  14.323
56611W        W22091  19.062  30.495   1.922
56612W        W22092  29.149  16.318  11.398
56613W        W22093  33.512  31.035   2.223
56614W        W22094  13.721  26.126   0.757
56615W        W22095  40.799   0.484  10.643
56616W        W22096  23.170  17.731   3.793
56617W        W22097  28.511  33.874  14.866
56618W        W22098  12.264  21.062  13.937
56619W        W22099  32.551  31.908  14.473
56620W        W22100   9.172  31.627   0.928
56621W        W22101  27.171  31.064  12.017
56622W        W22102  32.094  18.136  10.962
56623W        W22103   1.949   1.884  14.409
56624W        W22104  35.981  23.114  14.419
56625W        W22105  19.149   5.381   0.812
56626W        W22106   5.907  42.318  10.899
56627W        W22107  16.792  36.355   4.136
56628W        W22108  27.153  10.351  14.892
56629W        W22109  41.334  13.788   0.747
56630W        W22110  38.374  14.810   3.687
56631W        W22111  32.473  38.932   9.932
56632W        W22112  19.661  17.626  13.009
56633W        W22113  20.075   6.800  10.565
56634W        W22114  31.014   0.938   2.734
56635W        W22115   9.265  16.675   0.439
56636W        W22116  31.466  32.635  11.486
56637W        W22117  42.473  12.346  11.995
56638W        W22118  44.916   9.162   2.283
56639W        W22119  12.256  41.944  12.939
56640W        W22120  17.765  11.268   3.287
56641W        W22121  31.963  18.650  11.508
56642W        W22122   1.872  28.677  10.428
56643W        W22123  27.549  40.395  14.390
56644W        W22124  44.458   4.878  14.814
56645W        W22125  21.237  15.218  10.145
56646W        W22126  35.397  40.354   4.756
56647W        W22127   2.321  13.289   4.279
56648W        W22128  35.945  17.721   3.725
56649W        W22129  25.509  22.124  14.856
56650W        W22130  31.959   8.176  10.430
56651W        W22131  32.054  41.420  11.484
56652W        W22132  16.604  36.567  11.589
56653W        W22133  30.516  38.027   5.222
56654W        W22134  17.075   5.348   2.778
56655W        W22135  11.178  25.551  11.461
56656W        W22136  26.106  13.641   3.152
56657W        W22137  39.540  28.654  12.961
56658W        W22138  37.044  27.599  10.961
56659W        W22139  26.044  40.857   1.221
56660W        W22140  15.316  11.334   1.892
56661W        W22141  27.645  17.094  11.014
56662W        W22142  41.372   8.870  12.826
56663W        W22143   6.794  43.337   2.898
56664W        W22144  24.986  21.598   4.318
56665W        W22145   2.769  33.970   0.833
56666W        W22146  17.063  35.096  13.395
56667W        W22147  23.207  13.317   0.813
56668W        W22148  37.990   9.383   4.126
56669W        W22149  22.727  22.237   2.750
56670W        W22150   7.681  12.797   2.246
56671W        W22151   9.838   4.252  11.920
56672W        W22152  30.910   4.721  14.920
56673W        W22153   0.915  24.031  13.793
56674W        W22154  41.360  18.155   1.373
56675W        W22155   9.270  11.205  11.481
56676W        W22156  43.975  44.942  13.803
56677W        W22157  33.466  33.122   3.788
56678W        W22158  39.041  26.186  14.799
56679W        W22159  31.567  34.408  11.872
56680W        W22160  14.767   1.257  11.906
56681W        W22161  14.102  32.636   4.655
56682W        W22162  11.806  41.418  13.511
56683W        W22163  10.330  26.151  12.839
56684W        W22164  19.045  39.005   3.834
56685W        W22165  30.104  39.040   0.784
56686W        W22166  17.643  21.141   1.931
56687W        W22167   3.291  17.283   0.467
56688W        W22168  15.724   4.314   3.356
56689W        W22169  42.322  33.477   3.716
56690W        W22170  44.278  24.689   5.309
56691W        W22171  41.853  23.234  11.395
56692W        W22172  10.842   9.360  11.923
56693W        W22173  31.625  38.866  13.398
56694W        W22174  25.062  43.335  10.543
56695W        W22175   1.476  27.459  10.492
56696W        W22176  22.233   1.404  14.792
56697W        W22177  29.647  31.084   2.404
56698W        W22178  37.917   1.289   4.136
56699W        W22179  41.889  29.493   2.864
56700W        W22180   7.307   4.797  14.283
56701W        W22181  21.732  12.166   0.388
56702W        W22182  29.598   9.229   3.291
56703W        W22183  14.209  37.556  12.931
56704W        W22184   1.456  15.281   3.698
56705W        W22185   2.860  44.977   0.803
56706W        W22186   8.882   8.707   0.811
56707W        W22187  34.458  16.662   2.894
56708W        W22188   9.802  32.440   0.895
56709W        W22189  43.369  21.681   0.320
56710W        W22190  36.535  42.449   2.793
56711W        W22191  24.707  22.168  13.465
56712W        W22192   0.279  10.320  10.898
56713W        W22193  32.485  12.211   1.870
56714W        W22194  30.517   2.449   4.714
56715W        W22195   5.336  10.734   4.822
56716W        W22196  25.647  24.668  13.478
56717W        W22197  16.707  44.785  13.410
56718W        W22198  32.552  29.605  12.012
56719W        W22199   8.239  16.182  13.026
56720W        W22200  44.797  31.071  13.397
56721W        W22201  20.573  26.034  10.934
56722W        W22202   5.317  32.392   0.252
56723W        W22203   5.831  24.116  14.804
56724W        W22204  39.024  10.793   5.246
56725W        W22205  10.219  15.230  12.368
56726W        W22206  18.213  10.377   0.326
56727W        W22207   3.359  29.569  13.872
56728W        W22208  36.936   1.962  12.415
56729W        W22209  26.126  38.435   3.720
56730W        W22210  30.020  25.697   3.648
56731W        W22211  10.731  23.047  11.583
56732W        W22212  42.504  19.237   1.868
56733W        W22213  34.429  14.693   3.790
56734W        W22214  10.216  24.029  14.950
56735W        W22215  39.819   0.760   4.190
56736W        W22216  20.695   5.891   2.790
56737W        W22217  32.991  37.976  11.606
56738W        W22218   2.889  22.686  12.855
56739W        W22219  11.316  11.780  13.432
56740W        W22220  16.633  30.584   1.441
56741W        W22221  36.513  36.536  12.848
56742W        W22222  11.740  19.543  12.056
56743W        W22223  33.600  23.614   4.308
56744W        W22224   5.265  30.044  13.041
56745W        W22225  11.211  20.733  13.807
56746W        W22226  39.380  35.053   1.260
56747W        W22227  34.411   0.329  11.906
56748W        W22228   3.897  21.264  12.876
56749W        W22229  28.074   3.818  10.417
56750W        W22230  17.176  15.784   4.310
56751W        W22231   9.330  18.707  12.936
56752W        W22232   3.307   0.272  14.984
56753W        W22233  11.351  29.055  11.971
56754W        W22234  25.163  43.444   2.230
56755W        W22235  19.182   1.399   2.864
56756W        W22236  26.039   8.235   2.744
56757W        W22237  24.602  10.858   9.991
56758W        W22238   7.874  31.050   2.405
56759W        W22239  34.545  26.541  11.922
56760W        W22240  20.191  33.087   2.377
56761W        W22241  14.215  27.545  14.893
56762W        W22242   4.416  15.609   2.218
56763W        W22243  12.198  36.495  14.799
56764W        W22244   2.789   2.396  12.972
56765W        W22245  15.762  20.029  12.460
56766W        W22246  26.508   4.714   4.611
56767W        W22247  30.570  27.479   3.758
56768W        W22248  36.930  13.289   0.899
56769W        W22249  40.913  11.136  14.908
56770W        W22250  11.699   0.795  12.079
56771W        W22251  32.090  17.236  11.991
56772W        W22252  40.318   9.874  12.035
56773W        W22253   7.842  36.053   0.907
56774W        W22254  13.315  18.629   2.783
56775W        W22255  11.213  31.139  12.955
56776W        W22256  25.514  36.858   2.306
56777W        W22257   0.901  41.340  11.546
56778W        W22258  14.254  30.917  11.383
56779W        W22259   4.228  19.577   3.674
56780W        W22260  26.613  26.701   5.298
56781W        W22261  36.886  20.218  11.411
56782W        W22262  10.375  26.574  11.559
56783W        W22263  23.231  29.495  13.922
56784W        W22264  33.515  40.467   3.199
56785W        W22265  13.650  21.136   2.781
56786W        W22266  37.912  21.187   3.792
56787W        W22267   0.349  26.189  13.457
56788W        W22268   1.315  37.577   1.775
56789W        W22269  28.439   0.774  14.022
56790W        W22270  21.748  40.987   2.205
56791W        W22271  14.203  26.149  12.372
56792W        W22272  10.379  13.163   5.297
56793W        W22273  18.711  12.180   3.283
56794W        W22274  37.907  15.726  13.012
56795W        W22275  38.835  37.913  14.926
56796W        W22276   1.899  30.537   1.869
56797W        W22277  24.517  36.555   3.750
56798W        W22278  42.449  40.471  12.094
56799W        W22279   6.783   2.440  14.762
56800W        W22280  27.647  19.606  10.939
56801W        W22281  12.145  10.651  11.533
56802W        W22282  14.813  11.858  14.923
56803W        W22283  13.677  20.558  13.522
56804W        W22284  21.021  30.614   3.710
56805W        W22285  15.109  41.492  13.865
56806W        W22286  10.333  30.148  12.012
56807W        W22287  38.369  17.687  13.044
56808W        W22288   8.290  43.992  14.004
56809W        W22289  35.400  40.345   0.434
56810W        W22290  43.768  28.117  12.979
56811W        W22291  43.297  16.261   0.834
56812W        W22292  20.540  24.980   0.770
56813W        W22293  23.140   3.951  12.082
56814W        W22294  30.528  38.330  14.944
56815W        W22295  38.545   7.719  11.044
56816W        W22296  35.451  11.207   1.245
56817W        W22297   4.944   8.807  12.394
56818W        W22298  12.774  22.144  14.939
56819W        W22299  36.067  35.035  11.979
56820W        W22300  16.726  23.143   2.332
56821W        W22301  17.716   0.364  12.481
56822W        W22302  28.102  43.930  12.872
56823W        W22303  13.248   5.857  13.873
56824W        W22304  21.584  14.780   4.240
56825W        W22305  29.609   5.406   0.436
56826W        W22306  17.569  19.146   1.356
56827W        W22307  17.105  17.176  14.324
56828W        W22308  44.380   7.855   1.240
56829W        W22309  39.855   5.793  13.470
56830W        W22310  18.150  36.922   1.425
56831W        W22311  33.920  41.040   0.298
56832W        W22312   8.735  28.993   3.181
56833W        W22313  36.912   8.735  11.455
56834W        W22314  43.492  39.873   4.248
56835W        W22315  21.131  21.573  14.841
56836W        W22316  35.453  11.635   2.214
56837W        W22317  40.425  36.095   1.875
56838W        W22318   9.245   3.892  14.425
56839W        W22319  42.365  40.003   4.217
56840W        W22320  43.772  37.502   4.341
56841W        W22321  15.781  23.999   4.618
56842W        W22322  31.058  40.356   2.837
56843W        W22323  11.655   3.311  11.957
56844W        W22324  31.413  15.329   4.797
56845W        W22325   7.753  37.993  13.425
56846W        W22326   6.706  12.193   0.746
56847W        W22327   6.801  16.769   0.811
56848W        W22328  20.555  31.429  12.393
56849W        W22329  41.867   4.752   2.259
56850W        W22330  20.218  18.275  12.065
56851W        W22331  29.634  12.126   0.730
56852W        W22332  24.514   3.757   4.339
56853W        W22333  13.295  15.618   1.446
56854W        W22334  24.723  22.747  14.313
56855W        W22335  12.301  10.321   1.930
56856W        W22336  11.361  19.162  14.946
56857W        W22337   6.911   3.944   4.726
56858W        W22338  41.389  21.546   1.424
56859W        W22339  44.421   6.803   4.251
56860W        W22340  41.500  37.559  12.848
56861W        W22341  28.464  14.594   1.404
56862W        W22342  34.544  44.892   2.239
56863W        W22343  10.275  38.975  11.062
56864W        W22344   7.382  29.559   0.319
56865W        W22345  29.954  37.450  14.828
56866W        W22346  21.017  17.737  14.994
56867W        W22347  44.450  19.043  12.980
56868W        W22348  14.774  14.700   1.888
56869W        W22349   7.791  28.115  14.789
56870W        W22350  35.066   3.888   3.161
56871W        W22351  16.676  34.593   1.418
56872W        W22352  37.024  12.256   1.393
56873W        W22353  22.236  27.489   2.738
56874W        W22354  44.940  30.041  13.444
56875W        W22355  39.506  27.659  10.462
56876W        W22356  22.507  40.957  11.468
56877W        W22357  19.204  26.527  14.892
56878W        W22358  27.168  20.678  13.505
56879W        W22359   3.291  41.495  13.461
56880W        W22360  24.574  32.893  13.923
56881W        W22361   2.319  17.107  10.010
56882W        W22362  38.821   0.352   2.389
56883W        W22363  11.776   6.753  12.847
56884W        W22364  43.507  17.155   1.899
56885W        W22365  12.755  37.851  14.814
56886W        W22366  18.116  27.127   2.700
56887W        W22367  17.191  38.482  12.351
56888W        W22368   6.902  21.077  12.372
56889W        W22369  17.737  32.019  11.065
56890W        W22370  40.930  42.434  14.441
56891W        W22371   5.394  42.490   0.950
56892W        W22372  41.808  23.577   3.334
56893W        W22373  43.022  20.757   1.240
56894W        W22374   7.354  40.868  10.927
56895W        W22375  18.157  19.172  14.876
56896W        W22376  24.087  17.135  10.996
56897W        W22377   7.341   0.358   1.836
56898W        W22378  14.239  25.165   1.384
56899W        W22379   9.208  10.879  13.865
56900W        W22380  30.600  17.715  12.835
56901W        W22381  40.548  39.463   0.295
56902W        W22382  37.879  42.395   4.809
56903W        W22383  29.472  10.688   4.773
56904W        W22384  40.480   2.318   4.350
56905W        W22385   6.878  17.100  10.421
56906W        W22386  43.351   3.300  13.828
56907W        W22387  38.888  22.013  10.003
56908W        W22388  11.831  25.171   4.807
56909W        W22389  24.543  26.464  12.575
56910W        W22390  15.691  21.228   5.188
56911W        W22391  43.425  18.222  13.906
56912W        W22392  33.446  29.030  12.869
56913W        W22393  43.004   8.381  11.550
56914W        W22394  10.276  39.808  13.862
56915W        W22395  35.940   9.217   1.390
56916W        W22396  40.511  20.149   2.778
56917W        W22397   6.867  35.552   1.274
56918W        W22398  23.061   2.266   4.216
56919W        W22399   1.298  36.410  11.606
56920W        W22400  15.773   1.955  12.385
56921W        W22401  18.064  16.212  10.610
56922W        W22402   7.291   6.742  11.603
56923W        W22403  39.025  11.306  11.565
56924W        W22404  26.104  11.783  11.471
56925W        W22405  39.368  36.468  11.960
56926W        W22406  43.441   9.239  13.885
56927W        W22407  12.330  19.548   5.291
56928W        W22408  41.920  40.549  10.563
56929W        W22409  28.003  35.451   1.430
56930W        W22410   3.459  26.183   1.828
56931W        W22411  11.164  35.993   4.349
56932W        W22412  35.884  43.855   2.250
56933W        W22413  16.075  25.539  12.415
56934W        W22414  37.876   6.282   3.861
56935W        W22415   1.773  44.971  14.450
56936W        W22416  24.189  25.490   3.712
56937W        W22417  12.718  18.197  13.343
56938W        W22418  39.546  12.119   4.727
56939W        W22419  43.907  35.033   0.771
56940W        W22420   7.177  23.189  12.580
56941W        W22421  27.597  18.645   0.398
56942W        W22422  15.168  33.474   5.213
56943W        W22423   7.912   6.757  11.880
56944W        W22424  11.245  32.062  14.959
56945W        W22425   3.218  17.160  13.019
56946W        W22426   9.687  35.531  11.050
56947W        W22427  17.282  30.988  11.503
56948W        W22428  10.266  10.145   1.393
56949W        W22429  29.551  23.061  13.792
56950W        W22430  43.003  30.634  10.911
56951W        W22431  27.082  44.438  10.432
56952W        W22432  17.767   8.230   2.416
56953W        W22433   2.310  27.499  14.363
56954W        W22434  12.265  16.763  12.055
56955W        W22435  38.441   3.749  12.478
56956W        W22436  39.835  22.043  14.447
56957W        W22437  41.536  16.176  14.310
56958W        W22438   5.777  19.058   4.195
56959W        W22439  38.460   3.239   0.289
56960W        W22440  33.558  41.472   3.381
56961W        W22441  37.049  40.322  11.069
56962W        W22442  38.561  23.736   2.728
56963W        W22443  12.137   5.717  14.956
56964W        W22444   9.308  14.655   0.243
56965W        W22445  13.321  27.661   3.862
56966W        W22446  18.646  44.872  11.092
56967W        W22447   1.427  12.158  12.433
56968W        W22448  22.105  29.444  13.986
56969W        W22449  14.647  32.509  11.566
56970W        W22450  32.099   3.759   2.786
56971W        W22451   7.787  34.931  12.023
56972W        W22452  10.292  26.079   4.709
56973W        W22453  24.067  33.074   2.296
56974W        W22454  12.174  25.515  13.363
56975W        W22455  19.568  39.541   3.666
56976W        W22456  30.046  15.580  10.102
56977W        W22457  33.880  22.035  10.502
56978W        W22458  36.441  17.614  11.472
56979W        W22459   1.916   1.295  13.333
56980W        W22460  12.789  41.825  14.872
56981W        W22461  21.263  27.648   2.345
56982W        W22462  33.448  17.758  13.503
56983W        W22463  10.273  16.578   2.307
56984W        W22464  26.989  34.430   3.288
56985W        W22465  10.837  23.557   1.872
56986W        W22466  17.258  14.271   2.666
56987W        W22467  12.164  44.007   3.280
56988W        W22468  34.074  12.327   0.933
56989W        W22469   5.699  12.293  10.998
56990W        W22470  38.521  12.319  10.634
56991W        W22471  23.569  27.549  13.857
56992W        W22472  42.301  37.916  11.480
56993W        W22473  21.031   7.400  12.026
56994W        W22474  25.612   7.308  13.063
56995W        W22475  10.230  13.156  10.154
56996W        W22476  21.752  16.217   3.721
56997W        W22477  15.277  42.424   0.815
56998W        W22478   8.828  37.361   3.813
56999W        W22479  44.757  16.131  11.383
57000W        W22480   1.950  26.544   3.192
57001W        W22481  14.241  39.402   2.362
57002W        W22482   5.767   4.276   0.433
57003W        W22483  38.350  30.524  13.495
57004W        W22484  14.649  12.327   2.667
57005W        W22485  30.637  16.571  12.540
57006W        W22486  10.684  43.840   4.181
57007W        W22487   2.842  24.996  12.484
57008W        W22488  43.830  36.579  11.932
57009W        W22489   3.911  37.379  12.824
57010W        W22490  10.874  28.106  12.485
57011W        W22491  38.905   2.761  11.074
57012W        W22492  24.675  20.708  14.793
57013W        W22493   6.291  36.399   3.267
57014W        W22494  41.885  11.669   0.753
57015W        W22495   9.210  41.438   5.113
57016W        W22496  11.149   4.708  10.441
57017W        W22497  32.583  25.520  12.931
57018W        W22498  39.034  17.631  13.435
57019W        W22499  24.127   1.239  14.971
57020W        W22500  15.614   6.769   3.806
57021W        W22501  10.284  19.652   2.240
57022W        W22502  21.550  10.707  13.058
57023W        W22503  16.800  30.969   1.703
57024W        W22504  44.500  29.114   1.424
57025W        W22505  33.583  21.642  14.468
57026W        W22506  32.403  33.116   4.350
57027W        W22507   5.754   9.211   3.804
57028W        W22508   4.868  30.502   0.843
57029W        W22509   3.380  12.835   0.277
57030W        W22510  11.759  14.812  12.825
57031W        W22511   8.193  25.529   0.416
57032W        W22512  19.538  26.995   2.198
57033W        W22513  13.329  30.993  10.491
57034W        W22514  42.949  14.802   1.778
57035W        W22515  35.548  43.450   2.829
57036W        W22516  41.874  24.592  14.768
57037W        W22517   8.181  11.621  12.013
57038W        W22518  10.202  31.011   0.254
57039W        W22519  18.253  25.993   3.378
57040W        W22520  20.033  31.472  10.512
57041W        W22521   6.869   1.285   2.801
57042W        W22522   0.843  25.049   2.355
57043W        W22523   2.316  30.451  13.465
57044W        W22524  17.594  21.530   1.356
57045W        W22525   4.299  42.909   1.259
57046W        W22526  13.747   1.366   5.768
57047W        W22527  41.984  21.517  11.045
57048W        W22528  13.112  44.371  13.811
57049W        W22529   4.844   4.353  10.466
57050W        W22530  13.308  13.233   3.148
57051W        W22531   1.932   9.675   3.187
57052W        W22532  42.474  23.069   3.155
57053W        W22533   5.737  39.424  11.913
57054W        W22534  22.234  13.173  12.423
57055W        W22535  39.399  30.048  14.801
57056W        W22536  20.144  14.122  13.386
57057W        W22537   1.976  17.741  11.020
57058W        W22538  18.745  31.928  13.454
57059W        W22539  20.605  26.168   0.338
57060W        W22540   3.269  27.646  11.564
57061W        W22541   3.367  40.937   4.134
57062W        W22542  13.809  20.194   3.693
57063W        W22543  28.932  34.405   1.281
57064W        W22544  33.379  38.395   2.875
57065W        W22545   3.395  38.475   9.951
57066W        W22546  31.089  13.107   0.755
57067W        W22547   8.774  28.112  14.474
57068W        W22548  27.175  28.974   3.646
57069W        W22549   8.181  43.953   2.735
57070W        W22550   9.663  18.235   4.248
57071W        W22551  20.206   0.494  14.802
57072W        W22552  25.468   8.889   3.378
57073W        W22553   9.766   5.762   2.376
57074W        W22554  17.664  19.636  14.785
57075W        W22555   8.837  24.708  12.425
57076W        W22556   3.301   3.781   1.302
57077W        W22557  41.347   3.709  13.962
57078W        W22558   6.415   3.348  12.426
57079W        W22559  42.303  25.508  11.438
57080W        W22560   1.964  34.503   3.226
57081W        W22561  31.553  23.624   0.897
57082W        W22562  10.868   8.392   2.314
57083W        W22563  28.462  42.450  11.993
57084W        W22564   1.894  29.957   4.273
57085W        W22565  35.073  35.547   1.872
57086W        W22566   8.899  36.883  11.477
57087W        W22567  17.179  37.991  12.359
57088W        W22568  30.957  44.403   2.246
57089W        W22569  12.197   1.928   4.655
57090W        W22570  28.502   8.788   3.665
57091W        W22571  38.934  37.886  14.369
57092W        W22572  38.570   1.912   3.752
57093W        W22573  11.219  34.390  11.606
57094W        W22574  16.205  19.666  12.536
57095W        W22575  27.163  27.070  14.857
57096W        W22576  42.492   8.833   1.765
57097W        W22577  14.241   7.830  14.030
57098W        W22578  19.187   2.919   1.832
57099W        W22579  20.165  25.171  14.779
57100W        W22580   7.382  32.079  14.334
57101W        W22581  42.844  35.875   4.135
57102W        W22582  25.495  36.930  13.434
57103W        W22583  44.292  15.295   3.343
57104W        W22584  29.640  24.206  12.082
57105W        W22585  30.914   2.894   2.227
57106W        W22586  21.683  26.075   2.385
57107W        W22587  40.025  35.054   0.417
57108W        W22588  32.893   3.775  12.414
57109W        W22589  21.060   5.785   1.710
57110W        W22590  27.082   4.858  11.077
57111W        W22591   1.455  42.514  14.299
57112W        W22592  26.129  16.631   0.414
57113W        W22593  21.588  23.698  12.005
57114W        W22594  40.012  41.991   0.310
57115W        W22595  32.593  38.530  13.946
57116W        W22596  41.534  24.547  11.039
57117W        W22597  16.119  14.253   1.696
57118W        W22598  29.606   0.926   1.896
57119W        W22599  21.575  17.690  10.552
57120W        W22600  38.913  11.236   2.826
57121W        W22601   5.781  44.777   2.205
57122W        W22602  40.316  20.748  14.876
57123W        W22603  41.526  43.448  13.309
57124W        W22604  29.616  10.308   3.693
57125W        W22605   6.802   0.766  13.963
57126W        W22606  20.036  11.174  14.464
57127W        W22607  22.501   9.786  14.373
57128W        W22608  37.011   4.323  14.348
57129W        W22609  34.380  19.061  12.554
57130W        W22610   8.181  17.131   2.207
57131W        W22611   9.854   2.344  12.014
57132W        W22612   7.762  11.137   3.192
57133W        W22613  35.414  10.167  11.559
57134W        W22614   5.731  28.616   1.430
57135W        W22615  14.146   6.335  12.045
57136W        W22616  19.224  13.329  14.994
57137W        W22617   2.740   4.292   4.249
57138W        W22618  29.667  12.744   2.287
57139W        W22619   7.246  15.155  13.014
57140W        W22620   5.842  16.295   4.722
57141W        W22621   4.795  22.022  12.842
57142W        W22622  12.840  16.121  11.094
57143W        W22623  43.364   5.833  11.967
57144W        W22624  30.107   7.334   2.891
57145W        W22625  31.067  37.346   0.822
57146W        W22626  15.153   7.873  14.912
57147W        W22627  21.110  19.569   2.201
57148W        W22628  41.422   1.410   1.853
57149W        W22629  30.443  23.591  10.960
57150W        W22630   0.462  40.929  11.989
57151W        W22631  26.979  25.533   3.224
57152W        W22632  29.940   5.333   2.720
57153W        W22633  20.564  22.198   0.878
57154W        W22634   7.825  37.343   0.852
57155W        W22635  42.393   3.748  10.948
57156W        W22636  12.221  33.925   4.657
57157W        W22637  30.562  15.806   3.271
57158W        W22638  37.553  29.922   0.451
57159W        W22639   5.694   8.200   3.753
57160W        W22640  32.009  41.511  12.573
57161W        W22641  16.202   6.227  10.441
57162W        W22642  12.618  18.684  14.996
57163W        W22643  28.016  41.469  14.819
57164W        W22644  14.815  22.549  14.004
57165W        W22645  21.102  27.584  12.467
57166W        W22646   0.743  17.741  11.094
57167W        W22647   9.674  22.197   2.249
57168W        W22648   9.744  27.054   1.231
57169W        W22649   3.219  18.089   3.761
57170W        W22650  13.823  15.784  12.075
57171W        W22651  16.640  37.380   4.185
57172W        W22652  13.672  22.088  14.980
57173W        W22653  25.190  18.691   5.250
57174W        W22654   1.475   5.801  10.577
57175W        W22655  20.248  31.063   1.284
57176W        W22656  12.182  25.708   1.213
57177W        W22657   5.195  19.682   5.311
57178W        W22658  32.075  24.131   1.248
57179W        W22659   6.719   3.879  14.810
57180W        W22660  38.068   1.366  11.882
57181W        W22661  24.184   8.287   0.819
57182W        W22662  20.130  21.641   3.731
57183W        W22663  34.400   3.289   1.763
57184W        W22664  30.603  17.737   4.623
57185W        W22665   3.711  10.669   2.771
57186W        W22666  30.592  13.257   1.307
57187W        W22667  29.013  35.358   2.841
57188W        W22668  24.194  15.668  12.865
57189W        W22669  41.443  32.402   3.748
57190W        W22670  32.904   8.291   2.799
57191W        W22671  35.965   4.389  10.979
57192W        W22672  39.531   6.378   2.868
57193W        W22673  11.291   0.901  14.819
57194W        W22674  43.513   3.325   0.918
57195W        W22675  26.999   3.918  10.978
57196W        W22676  17.159  16.208  13.529
57197W        W22677   4.408  27.607  13.828
57198W        W22678  17.181  25.471  14.490
57199W        W22679  17.193  39.982  10.496
57200W        W22680  26.558  15.691  12.460
57201W        W22681  36.463   5.900   1.405
57202W        W22682  44.756  33.009  12.547
57203W        W22683  10.688  35.002  10.438
57204W        W22684   9.870  19.715  13.386
57205W        W22685   9.305  25.522  10.959
57206W        W22686  43.764  29.492   4.683
57207W        W22687  14.774  35.906  11.069
57208W        W22688  34.031  10.369   3.223
57209W        W22689  13.701  17.795   1.388
57210W        W22690  24.705   0.965   9.937
57211W        W22691  13.769   3.219   0.251
57212W        W22692  23.233  18.726  11.459
57213W        W22693  42.436  28.111   4.227
57214W        W22694  24.509   5.231  11.938
57215W        W22695   5.689  17.774   3.799
57216W        W22696  25.061  38.920   3.757
57217W        W22697  14.740   4.359  12.376
57218W        W22698   2.256   8.867   5.303
57219W        W22699  41.363  41.791   1.924
57220W        W22700  20.147   1.354  11.857
57221W        W22701  33.407  38.970   2.682
57222W        W22702  42.503  44.898  13.799
57223W        W22703  36.097  18.084  11.499
57224W        W22704  30.609  24.108  13.425
57225W        W22705  34.966  33.491  11.425
57226W        W22706  34.037  25.686   4.204
57227W        W22707  36.035   5.829  13.369
57228W        W22708  26.485  15.710  10.579
57229W        W22709  21.664  43.341   4.815
57230W        W22710  43.908  31.902   2.348
57231W        W22711  20.610  21.589  14.827
57232W        W22712  21.704   2.256   0.258
57233W        W22713  34.070  38.502   2.308
57234W        W22714  28.533  30.099  14.945
57235W        W22715  43.788  12.333   0.417
57236W        W22716  42.370   1.336  13.976
57237W        W22717  16.569   4.758   3.824
57238W        W22718  18.697   1.351   3.168
57239W        W22719   7.171   8.292  13.497
57240W        W22720  44.828   0.903  13.406
57241W        W22721  37.873  37.509   0.922
57242W        W22722  29.043  44.295   0.443
57243W        W22723  39.506   2.464  12.916
57244W        W22724  29.641  17.556   2.670
57245W        W22725  20.190   5.734  14.872
57246W        W22726  33.920   6.693   3.354
57247W        W22727   2.872  42.522   1.906
57248W        W22728  26.137  44.298   2.886
57249W        W22729   3.265   0.976   4.631
57250W        W22730  15.760  33.076   2.374
57251W        W22731  25.144  28.498  14.319
57252W        W22732   3.400   2.889  11.991
57253W        W22733  11.818  31.485  12.941
57254W        W22734  18.103  22.232   1.328
57255W        W22735  36.400   5.231  14.804
57256W        W22736  13.130  18.591   4.767
57257W        W22737  30.445  41.817   1.822
57258W        W22738  43.507   8.770  11.442
57259W        W22739  19.619  19.648   3.651
57260W        W22740  11.828  18.723  10.073
57261W        W22741  29.140  42.996   1.448
57262W        W22742  34.507  37.406   3.662
57263W        W22743  25.014  28.143  14.840
57264W        W22744  20.598  20.214  11.870
57265W        W22745  23.094  38.360  10.550
57266W        W22746  38.450  40.901   4.820
57267W        W22747   0.780  28.968   1.902
57268W        W22748  38.519   6.301  13.954
57269W        W22749  27.669   7.391   4.338
57270W        W22750   1.320  17.577  10.547
57271W        W22751   3.390  15.779   5.228
57272W        W22752  23.023  31.137   2.772
57273W        W22753  12.187  39.925  14.311
57274W        W22754   1.260  23.995   1.439
57275W        W22755  43.330   6.752   2.316
57276W        W22756  14.650  33.591  12.924
57277W        W22757  38.853  27.452  13.365
57278W        W22758  18.610  37.528   3.182
57279W        W22759  33.959   5.271   3.329
57280W        W22760   8.683  39.866  12.897
57281W        W22761  43.828   9.347  12.413
57282W        W22762  19.643  15.733   3.337
57283W        W22763  19.168  36.496   2.342
57284W        W22764  20.117  22.107   2.265
57285W        W22765  40.475  44.877  11.898
57286W        W22766   1.365  37.894   4.709
57287W        W22767   7.788  36.568   3.691
57288W        W22768  36.975  20.078   2.304
57289W        W22769  21.586  20.734   3.852
57290W        W22770  42.815  41.482   2.818
57291W        W22771  14.699  29.141  11.397
57292W        W22772  44.462  42.288   4.225
57293W        W22773  25.475  39.404   0.850
57294W        W22774  32.976  30.988  11.983
57295W        W22775   9.231  12.767  14.415
57296W        W22776  23.044   7.196   3.754
57297W        W22777  36.060  43.924   0.316
57298W        W22778  43.774  28.559   1.320
57299W        W22779  22.638   9.336  13.992
57300W        W22780   4.813  41.345   1.775
57301W        W22781  29.040  30.927  14.939
57302W        W22782   4.859   1.780   2.767
57303W        W22783  20.766  29.491   0.878
57304W        W22784  26.482  40.415  11.913
57305W        W22785  18.585  18.560   4.127
57306W        W22786  31.489   6.748   2.407
57307W        W22787  34.543  17.600  14.492
57308W        W22788   1.426   5.392  13.948
57309W        W22789   1.458  41.404   1.878
57310W        W22790  44.404   0.291  14.984
57311W        W22791   0.919  18.558   0.759
57312W        W22792  10.360  43.903  11.573
57313W        W22793  23.639   5.354   3.671
57314W        W22794  11.646  15.733  14.830
57315W        W22795  35.501  42.352   1.927
57316W        W22796   4.708   6.743   1.891
57317W        W22797  25.659   5.763   2.692
57318W        W22798  34.576  18.054  13.385
57319W        W22799  18.199  13.766   4.739
57320W        W22800   9.327   1.739  11.602
57321W        W22801   5.331  34.382  11.557
57322W        W22802  15.169  36.363   1.341
57323W        W22803  24.222   2.365  13.846
57324W        W22804  22.162   8.805   1.288
57325W        W22805  16.731  26.136   3.333
57326W        W22806   6.365  28.186  11.493
57327W        W22807  13.347  12.771  14.314
57328W        W22808  13.139  14.826  12.403
57329W        W22809  20.123  33.390   0.939
57330W        W22810  15.765  26.141   4.699
57331W        W22811   8.199   8.893   0.786
57332W        W22812  18.665  33.624   0.394
57333W        W22813  34.468  10.158   0.867
57334W        W22814   4.865  39.912   0.792
57335W        W22815  29.435  33.994   1.383
57336W        W22816  13.222  24.659  12.457
57337W        W22817  35.463  14.126   1.451
57338W        W22818  15.175  22.231   1.903
57339W        W22819  12.313  23.206  10.632
57340W        W22820  18.185  30.932   3.252
57341W        W22821  33.130  40.963  11.022
57342W        W22822  37.995   3.278   4.282
57343W        W22823  16.709  18.558  13.791
57344W        W22824  28.178  15.583   4.213
57345W        W22825  10.384  40.529  11.566
57346W        W22826  21.021   1.947   2.867
57347W        W22827  41.391  18.566  13.423
57348W        W22828   0.967  10.372  13.471
57349W        W22829  17.619  23.081   3.257
57350W        W22830  22.706  44.409   2.410
57351W        W22831  17.094  30.625   3.811
57352W        W22832  28.441  11.245  12.373
57353W        W22833  18.220  26.536  11.385
57354W        W22834  19.617   8.210  13.809
57355W        W22835  13.792  44.841  12.879
57356W        W22836  39.011  12.723  11.043
57357W        W22837   8.739   6.383  12.938
57358W        W22838  34.086  36.877   1.283
57359W        W22839  36.927   4.382   1.925
57360W        W22840   2.864  27.452  11.371
57361W        W22841  22.244  14.824   0.920
57362W        W22842  30.915  33.586  13.970
57363W        W22843   5.217  14.242   1.421
57364W        W22844  38.045  12.625  14.324
57365W        W22845  22.198  44.984  12.388
57366W        W22846  21.640  12.773  11.991
57367W        W22847  43.850  21.139   1.251
57368W        W22848  10.363  34.439   1.384
57369W        W22849  40.891  39.946  10.471
57370W        W22850  40.338  12.272  13.383
57371W        W22851  28.162   8.207  13.014
57372W        W22852  35.098  43.490   2.240
57373W        W22853   9.197  41.400   3.675
57374W        W22854   6.862  39.954  13.422
57375W        W22855  24.193  22.093   1.297
57376W        W22856  43.765  29.015  14.877
57377W        W22857  42.945  29.455  10.643
57378W        W22858  19.737   0.252   0.373
57379W        W22859  14.832  20.223   0.270
57380W        W22860   4.786  32.073  13.917
57381W        W22861  41.413  14.227   2.411
57382W        W22862  21.235  23.991  11.591
57383W        W22863  43.855  31.583   3.211
57384W        W22864   2.438  11.758  14.409
57385W        W22865  15.579  19.634   9.986
57386W        W22866  26.146   7.378   1.282
57387W        W22867  42.471  29.034   0.285
57388W        W22868  42.415  12.699   4.631
57389W        W22869  36.575  24.588  11.927
57390W        W22870   6.812  37.425  11.910
57391W        W22871  10.251  37.079   1.222
57392W        W22872   6.273  30.424  14.449
57393W        W22873   4.327  30.462   3.255
57394W        W22874  11.863  21.603  10.445
57395W        W22875   6.328   5.893  13.512
57396W        W22876  32.500   4.904   2.264
57397W        W22877  30.562   6.192   2.879
57398W        W22878  17.070  44.313  11.945
57399W        W22879  42.944   4.234  12.077
57400W        W22880   9.753   4.879   4.277
57401W        W22881  38.397   8.772   0.776
57402W        W22882   6.420  14.283   3.848
57403W        W22883  41.399   8.732   1.235
57404W        W22884  35.857  40.868   0.335
57405W        W22885  37.964  20.652   4.636
57406W        W22886  28.150  16.620  14.329
57407W        W22887  17.667  39.337  10.594
57408W        W22888  23.038  21.086   3.323
57409W        W22889  32.410  13.737   3.843
57410W        W22890  19.218  18.726  12.547
57411W        W22891   8.799  31.462  14.965
57412W        W22892  36.509  38.426  14.320
57413W        W22893  27.670   7.747  10.941
57414W        W22894  18.193  17.223   4.281
57415W        W22895  43.369  23.691   4.184
57416W        W22896  19.750   7.246   4.225
57417W        W22897  34.075   5.824  14.501
57418W        W22898  22.640  20.612  12.528
57419W        W22899  37.380   5.205  14.969
57420W        W22900  27.961   4.853  12.989
57421W        W22901  35.966   9.395   1.899
57422W        W22902  25.141  41.361   2.390
57423W        W22903  13.109  32.955  13.500
57424W        W22904  10.332   8.779   5.093
57425W        W22905  27.104  44.777  11.975
57426W        W22906   5.788   9.719  12.855
57427W        W22907   0.838  40.481   3.381
57428W        W22908  24.183  15.610  14.288
57429W        W22909  25.574  24.652   1.431
57430W        W22910  38.970  27.061   2.883
57431W        W22911  32.132   4.812  11.089
57432W        W22912   8.293  13.156   2.260
57433W        W22913  28.542   6.386  14.794
57434W        W22914  40.546  37.875  11.596
57435W        W22915  35.407  39.326   0.737
57436W        W22916   0.788  29.482   4.344
57437W        W22917  43.281  17.288   0.348
57438W        W22918  39.849  23.603   0.299
57439W        W22919  24.057  16.701   4.147
57440W        W22920  36.023  27.155   3.183
57441W        W22921  21.136  41.462   0.481
57442W        W22922  44.774  14.789   4.655
57443W        W22923  11.851  15.297   2.265
57444W        W22924  32.114  28.146  12.468
57445W        W22925   3.370  37.375  11.897
57446W        W22926   0.427  10.202  12.443
57447W        W22927  15.188  34.888   2.664
57448W        W22928  18.553   9.692  13.441
57449W        W22929  12.310  42.376   1.428
57450W        W22930  39.425   1.732  14.925
57451W        W22931  18.223  22.684   4.162
57452W        W22932  17.674  15.234  13.943
57453W        W22933  30.583  32.092   3.729
57454W        W22934  22.721   7.822  11.554
57455W        W22935   2.281   3.830  11.462
57456W        W22936  15.584   0.261  14.375
57457W        W22937   4.767  32.044  14.863
57458W        W22938  18.697  43.284  11.521
57459W        W22939  14.195  30.570  14.865
57460W        W22940  36.004  27.005   1.749
57461W        W22941   4.784   0.796   3.633
57462W        W22942  31.541  32.010  12.902
57463W        W22943  31.051   1.970  10.443
57464W        W22944   3.853  27.049   1.876
57465W        W22945  14.628  44.806  10.552
57466W        W22946   6.854  17.602   2.350
57467W        W22947  12.330  18.762   1.701
57468W        W22948  12.147  41.461   3.166
57469W        W22949  22.704  16.144   2.877
57470W        W22950  20.560  23.606  14.454
57471W        W22951  29.573  44.331   4.618
57472W        W22952  43.905   0.333   4.158
57473W        W22953   0.792  35.859  13.458
57474W        W22954  15.222  19.054   2.253
57475W        W22955  31.132  32.467   4.336
57476W        W22956  14.211  27.625  13.009
57477W        W22957  27.034  17.118   4.219
57478W        W22958  28.635  38.869  13.419
57479W        W22959  19.708   5.419   2.199
57480W        W22960   0.472  37.418   0.347
57481W        W22961  39.007  24.480   2.239
57482W        W22962  11.689  30.015  10.128
57483W        W22963  24.644  25.620   4.709
57484W        W22964  15.197  13.685   3.160
57485W        W22965  44.900  15.299   0.853
57486W        W22966  13.672  36.509  11.039
57487W        W22967  23.215  31.137  13.406
57488W        W22968  13.790  12.314  12.458
57489W        W22969  34.017  36.582   0.307
57490W        W22970  34.088  26.635  12.492
57491W        W22971   4.389  19.211  14.803
57492W        W22972  28.547  10.300  11.372
57493W        W22973  29.973   5.366   0.373
57494W        W22974  24.055  20.266  12.045
57495W        W22975  30.038  38.520   4.689
57496W        W22976  15.623   8.683  13.313
57497W        W22977   2.456  29.085   2.339
57498W        W22978  38.881   1.290  13.805
57499W        W22979  28.609  38.549   2.351
57500W        W22980  24.099   7.413  12.946
57501W        W22981  27.181  32.467  13.937
57502W        W22982  41.478   4.853  11.873
57503W        W22983   7.731   0.768  11.919
57504W        W22984  31.987  37.368  12.919
57505W        W22985  12.344  44.427  11.539
57506W        W22986  28.959  42.311   1.896
57507W        W22987  12.664  27.566  11.114
57508W        W22988   0.824  16.692   1.301
57509W        W22989  10.312  22.062   2.286
57510W        W22990  16.742  19.725   2.675
57511W        W22991  28.046   6.233   0.867
57512W        W22992  39.026   3.866  11.929
57513W        W22993  36.092  19.680  12.022
57514W        W22994  40.896  10.813  12.911
57515W        W22995  28.665  29.008  13.894
57516W        W22996  43.274  21.087   2.846
57517W        W22997  20.683  12.239  12.946
57518W        W22998   6.372  29.060  12.531
57519W        W22999  24.659  13.319  12.548
57520W        W23000  32.635  38.969   1.374
57521W        W23001  31.012  24.072  12.472
57522W        W23002  19.053  31.151   3.635
57523W        W23003   5.419  34.593   3.358
57524W        W23004  44.781   5.333  11.588
57525W        W23005  44.282   0.941   0.331
57526W        W23006   9.296   4.833  11.077
57527W        W23007  16.200   5.809   1.918
57528W        W23008  19.566  37.879  11.083
57529W        W23009  43.437  34.058   1.385
57530W        W23010  40.503  37.409  14.977
57531W        W23011   3.893  44.880  11.610
57532W        W23012  37.044  10.150  11.945
57533W        W23013   9.855  15.807  14.979
57534W        W23014  41.904  23.200   3.325
57535W        W23015   8.688  14.319   4.625
57536W        W23016  33.511  24.529  13.895
57537W        W23017  30.538  19.754   0.930
57538W        W23018  17.291  43.505  13.797
57539W        W23019   4.937  36.358  11.868
57540W        W23020  17.192  43.800   1.802
57541W        W23021   6.906  43.998   4.331
57542W        W23022  22.197   0.834  10.422
57543W        W23023  12.320  38.861   3.376
57544W        W23024  16.206  10.268   4.179
57545W        W23025  18.089  35.997   0.383
57546W        W23026   4.411  38.556   4.835
57547W        W23027   4.926  14.639  14.478
57548W        W23028  44.789  36.418  12.374
57549W        W23029   0.872   6.251  10.150
57550W        W23030  29.645  42.848   1.827
57551W        W23031  13.116   0.971  12.879
57552W        W23032  10.846  27.483  11.999
57553W        W23033  37.541  42.922  12.892
57554W        W23034  22.204  10.727   2.211
57555W        W23035  23.192  31.017  14.995
57556W        W23036  22.198   0.479   0.313
57557W        W23037  25.673  43.871  12.376
57558W        W23038  26.063   8.365  11.026
57559W        W23039  23.235  43.476   9.932
57560W        W23040  18.789   6.253   0.345
57561W        W23041  33.470  18.160   0.243
57562W        W23042  18.174  28.930  11.538
57563W        W23043  15.310   1.763   0.928
57564W        W23044  26.511   5.296   4.186
57565W        W23045  33.132  35.910   4.152
57566W        W23046   9.643  33.439   1.411
57567W        W23047  24.664  27.631   3.833
57568W        W23048  15.811  36.896   3.295
57569W        W23049  19.205  10.355  12.362
57570W        W23050   8.726  40.825  12.973
57571W        W23051   9.852  17.767   0.840
57572W        W23052  37.975  25.578  13.950
57573W        W23053   7.843  31.004  10.530
57574W        W23054  39.978  11.373  10.588
57575W        W23055   8.737  10.879   3.780
57576W        W23056  16.654  25.667   5.106
57577W        W23057  19.087   5.380   3.366
57578W        W23058  24.511  18.116   2.817
57579W        W23059  36.021   2.367   1.268
57580W        W23060  22.047  40.854  11.109
57581W        W23061  36.065  25.140  11.582
57582W        W23062  11.846   5.819   2.695
57583W        W23063  34.032  42.473  14.835
57584W        W23064  27.970  32.072   0.345
57585W        W23065   8.231  22.539  13.327
57586W        W23066  11.859  34.953   1.787
57587W        W23067  41.521  15.253  12.528
57588W        W23068  13.698  39.029  13.400
57589W        W23069  36.046  42.523   0.840
57590W        W23070  39.856  39.401   0.356
57591W        W23071  14.290  37.986  14.349
57592W        W23072  32.514   9.738   2.406
57593W        W23073   5.721  35.581   3.201
57594W        W23074   3.740  13.106   3.667
57595W        W23075  44.480  13.844  10.417
57596W        W23076  17.585   7.277   0.459
57597W        W23077   7.240  38.867   2.840
57598W        W23078  38.511  30.639  11.599
57599W        W23079  38.446  42.958   4.619
57600W        W23080  18.729  13.160   0.462
57601W        W23081  31.101  13.727  14.832
57602W        W23082  14.729  10.228   0.858
57603W        W23083  19.116   6.381  13.044
57604W        W23084  29.968   3.728  13.335
57605W        W23085  29.565   4.231   0.315
57606W        W23086  26.492  14.102   1.707
57607W        W23087  20.090  40.993   3.714
57608W        W23088  38.326  16.731   1.269
57609W        W23089  32.567  38.950   4.786
57610W        W23090   5.922  35.014   2.272
57611W        W23091  15.280   0.906  12.422
57612W        W23092   1.837  19.701   4.745
57613W        W23093  33.566  28.013   4.136
57614W        W23094   1.259  40.917   3.164
57615W        W23095  18.753  13.600   1.326
57616W        W23096  32.622  28.471   1.827
57617W        W23097  21.601   9.268   3.864
57618W        W23098  40.817  44.426  13.938
57619W        W23099  20.060  19.602   3.193
57620W        W23100   5.710  13.813  11.944
57621W        W23101  11.336  40.473   2.698
57622W        W23102  31.899  30.116   4.785
57623W        W23103   8.854  38.544  12.845
57624W        W23104  22.537   6.764   1.419
57625W        W23105  39.826  22.541  13.042
57626W        W23106  32.585  14.166  11.590
57627W        W23107  16.207  33.550  11.126
57628W        W23108  24.582  15.182   4.257
57629W        W23109   3.322   5.713  14.984
57630W        W23110   8.192   0.852   3.742
57631W        W23111  17.742   9.656   0.338
57632W        W23112  11.162  33.971   2.746
57633W        W23113  36.439  20.050  13.839
57634W        W23114   3.715  16.682  10.049
57635W        W23115  19.155  16.301  10.943
57636W        W23116  29.944  17.683  12.543
57637W        W23117  22.652  19.239  14.275
57638W        W23118  37.905  26.123   1.889
57639W        W23119  12.322  19.186  11.492
57640W        W23120   9.856   9.790  10.557
57641W        W23121  36.560   9.652  11.546
57642W        W23122   9.718  37.027   2.414
57643W        W23123  32.136  20.045   2.396
57644W        W23124  30.499  30.924  11.020
57645W        W23125  42.834  22.006   3.774
57646W        W23126  21.045   1.243  13.808
57647W        W23127  36.002  23.552  10.415
57648W        W23128  32.632  41.838  12.530
57649W        W23129  15.753  33.883   3.311
57650W        W23130  10.662  43.988  13.957
57651W        W23131  42.374   6.860   0.481
57652W        W23132  21.643   7.863   1.430
57653W        W23133   3.321  42.990   2.842
57654W        W23134  35.558  26.958   2.885
57655W        W23135  34.459   3.726   3.374
57656W        W23136  41.387   5.274  11.546
57657W        W23137  31.520  19.777  11.925
57658W        W23138  13.146   9.698  14.764
57659W        W23139   3.847  17.788  12.409
57660W        W23140  40.549  16.715   4.166
57661W        W23141   4.215  35.603   0.955
57662W        W23142  22.079  43.904   3.811
57663W        W23143  41.797  15.212  12.875
57664W        W23144  26.200  39.999   1.694
57665W        W23145   0.944   4.409   1.380
57666W        W23146  31.131  11.151  13.916
57667W        W23147  16.140  22.108   0.930
57668W        W23148   5.788  43.440   1.410
57669W        W23149  22.049  10.802   1.830
57670W        W23150  32.581   1.267   2.745
57671W        W23151  29.667  33.438  14.967
57672W        W23152   9.351  14.211  14.944
57673W        W23153  18.255  10.350  11.567
57674W        W23154  19.176  26.680   0.393
57675W        W23155  44.962  30.609  10.462
57676W        W23156  21.057  43.860  14.828
57677W        W23157  16.234  38.479   4.168
57678W        W23158  10.379   4.370  11.393
57679W        W23159  32.537  24.679   3.846
57680W        W23160  44.818  23.121  10.471
57681W        W23161  16.195  40.349  12.472
57682W        W23162  24.139   8.868  11.885
57683W        W23163  20.069  35.930  14.919
57684W        W23164  25.137  28.521   1.437
57685W        W23165   8.203  10.710  11.944
57686W        W23166  25.167  40.925   2.360
57687W        W23167  36.909  31.638  12.482
57688W        W23168  18.779   4.426   0.283
57689W        W23169   7.819  10.257  14.474
57690W        W23170  28.168   5.902   3.302
57691W        W23171   2.938  14.833  13.005
57692W        W23172  21.569  35.074  14.886
57693W        W23173  29.171  34.422   0.315
57694W        W23174  38.440  42.015  11.967
57695W        W23175   8.277  22.624  11.103
57696W        W23176  44.321   3.765  13.043
57697W        W23177  11.315  24.533   3.721
57698W        W23178   9.834  24.544   3.718
57699W        W23179  10.753  28.069  13.953
57700W        W23180  27.576  20.569   0.368
57701W        W23181  14.722  37.077  14.843
57702W        W23182  36.043  15.620   0.355
57703W        W23183  36.858   7.814  12.060
57704W        W23184  18.736   6.743   3.168
57705W        W23185  22.091  42.328  12.494
57706W        W23186   2.415  14.259   0.844
57707W        W23187  24.194  14.287  13.038
57708W        W23188   6.404  42.340   1.799
57709W        W23189  29.434  25.705   1.363
57710W        W23190  18.599  32.612   1.392
57711W        W23191  34.554  40.537   2.408
57712W        W23192  17.763   2.438  10.628
57713W        W23193  16.742  27.523   0.827
57714W        W23194  36.959  27.637  13.871
57715W        W23195  21.193   7.294   2.699
57716W        W23196  32.048  14.729  14.771
57717W        W23197  37.045  32.057   2.859
57718W        W23198  21.548   3.822   1.286
57719W        W23199  36.422  31.629  13.801
57720W        W23200   2.407  24.646  12.434
57721W        W23201  10.166  35.538  11.995
57722W        W23202   7.776   8.227  11.595
57723W        W23203   9.701  29.113   1.920
57724W        W23204  27.008  15.123  12.432
57725W        W23205  43.325   1.317   2.317
57726W        W23206   1.898  41.405   1.334
57727W        W23207   6.353   0.487   3.768
57728W        W23208  19.188   7.353   1.417
57729W        W23209   9.295  21.636   4.265
57730W        W23210  39.500  28.931   0.909
57731W        W23211  17.227  37.495   5.138
57732W        W23212  17.736  39.348  13.339
57733W        W23213  30.635  31.000  13.834
57734W        W23214   7.693   8.842   1.221
57735W        W23215  25.070  17.661   2.278
57736W        W23216  15.616  16.718   3.385
57737W        W23217  10.354  37.488  12.871
57738W        W23218  40.883   5.281   1.903
57739W        W23219  33.472  36.001   1.718
57740W        W23220   5.786  16.314   1.448
57741W        W23221  22.175   1.967  14.992
57742W        W23222  17.768  14.318   3.858
57743W        W23223   7.738   9.706  14.016
57744W        W23224   4.944  32.127   3.300
57745W        W23225  16.789  21.255   2.837
57746W        W23226  29.934  19.540   3.733
57747W        W23227  21.020  32.597   1.764
57748W        W23228  30.912   4.901   1.402
57749W        W23229  33.064  40.344   3.333
57750W        W23230  14.812  31.639   4.334
57751W        W23231  24.491   6.922  12.465
57752W        W23232  16.285   7.749   1.442
57753W        W23233  42.410  10.286   0.861
57754W        W23234   0.779  16.589  14.982
57755W        W23235   9.732  19.210   2.835
57756W        W23236  20.075  31.545   4.830
57757W        W23237  21.627  19.729  13.380
57758W        W23238  21.232  24.626   2.763
57759W        W23239  37.503   4.715   0.930
57760W        W23240  37.087  13.137   0.278
57761W        W23241  26.050  30.055   3.277
57762W        W23242   6.321  30.594  10.141
57763W        W23243  40.323   5.729   1.281
57764W        W23244  16.629  37.374   3.868
57765W        W23245  25.713  44.438  12.491
57766W        W23246   7.368  43.014   0.776
57767W        W23247  12.748   5.915  11.092
57768W        W23248  21.216  20.122   1.782
57769W        W23249   5.308  29.493   1.416
57770W        W23250  22.246  34.587   2.231
57771W        W23251   5.846  40.429  13.424
57772W        W23252  34.446  17.764  10.496
57773W        W23253   3.407  27.944   0.439
57774W        W23254  30.118  12.795   3.156
57775W        W23255  10.758  36.013  13.804
57776W        W23256   7.890  26.491   4.681
57777W        W23257  10.291  36.437   5.197
57778W        W23258   8.736  18.097  12.462
57779W        W23259   0.967   1.332   0.937
57780W        W23260  33.998   7.303   2.826
57781W        W23261  24.690  26.167   1.278
57782W        W23262  23.501  15.708  11.098
57783W        W23263  25.018  38.002   0.276
57784W        W23264   0.374  28.083  12.061
57785W        W23265  41.990  12.325   0.309
57786W        W23266   5.307  31.955  10.493
57787W        W23267  44.268  31.913   4.599
57788W        W23268  11.351   8.331  10.460
57789W        W23269   2.294  28.950   4.337
57790W        W23270  19.102  37.550   4.658
57791W        W23271  32.455  40.963   2.681
57792W        W23272  44.804  26.135   2.213
57793W        W23273   6.885  39.429  13.458
57794W        W23274  35.014  41.457  13.916
57795W        W23275   7.802  16.768   3.284
57796W        W23276  28.615   7.325   0.425
57797W        W23277  30.613  33.915  12.464
57798W        W23278  18.627  43.909  11.519
57799W        W23279  17.657  33.081   4.283
57800W        W23280  27.160  18.207  11.101
57801W        W23281  40.475  24.504  12.937
57802W        W23282  33.563  10.740   2.788
57803W        W23283  37.554  38.967   1.871
57804W        W23284  10.338  17.189   1.787
57805W        W23285  24.082  11.631   0.835
57806W        W23286  12.640   4.330   1.443
57807W        W23287  26.978  22.110   3.632
57808W        W23288  10.369  29.059   2.745
57809W        W23289  18.587  21.082   3.252
57810W        W23290  15.261  40.839  12.517
57811W        W23291  20.679  38.023  14.413
57812W        W23292  11.749  26.183  11.438
57813W        W23293  32.610  15.103   0.264
57814W        W23294  11.748  26.604   4.804
57815W        W23295   8.800  36.536  12.889
57816W        W23296   4.763  29.512   2.837
57817W        W23297  20.549   9.319  11.415
57818W        W23298  20.625  37.003   3.258
57819W        W23299  30.446  30.039   2.417
57820W        W23300  16.673  21.090  10.555
57821W        W23301   7.343  13.798   2.205
57822W        W23302  43.911   4.859   1.447
57823W        W23303  27.088   5.862   0.343
57824W        W23304  13.813  28.140   0.440
57825W        W23305   3.227  20.087   4.265
57826W        W23306  38.451   1.892  14.807
57827W        W23307   2.363   4.301  14.973
57828W        W23308   8.313  41.813  13.418
57829W        W23309  36.385   9.658   4.238
57830W        W23310  38.354   2.414   4.259
57831W        W23311  13.282  18.068   2.893
57832W        W23312  24.623  22.704   3.222
57833W        W23313  14.102  20.601   1.444
57834W        W23314   0.808  37.961  13.022
57835W        W23315  12.634  44.754   1.829
57836W        W23316  27.542  17.715   1.772
57837W        W23317  29.523  36.567  12.823
57838W        W23318  15.824  15.701   4.178
57839W        W23319  16.748  36.395   1.400
57840W        W23320  20.694  11.724   2.742
57841W        W23321  37.079   8.224  13.510
57842W        W23322  17.664  21.745  10.466
57843W        W23323  19.186   9.159   2.317
57844W        W23324  27.661  23.211  10.585
57845W        W23325  10.382  15.248  13.796
57846W        W23326  25.654  23.037   2.309
57847W        W23327  41.994  32.015  14.993
57848W        W23328  30.015  34.375   0.850
57849W        W23329  10.199  21.221   0.839
57850W        W23330  12.777  23.669  14.306
57851W        W23331  27.181  38.888  14.473
57852W        W23332   2.467   0.434   0.246
57853W        W23333  18.122  18.604  14.439
57854W        W23334  10.663   0.354   0.820
57855W        W23335  34.908  30.532  11.129
57856W        W23336   4.920   4.218  11.904
57857W        W23337   8.863  20.708  13.809
57858W        W23338  44.769  44.867  11.044
57859W        W23339   5.788   8.763   5.100
57860W        W23340   2.938  30.161   3.358
57861W        W23341  20.768   6.913  10.623
57862W        W23342  29.648  33.537  12.870
57863W        W23343  29.635  23.570   2.859
57864W        W23344   7.393  34.996   2.811
57865W        W23345   2.825  27.080   4.672
57866W        W23346  35.593  29.483  12.023
57867W        W23347  18.104  41.015  12.390
57868W        W23348  11.863   4.341  13.058
57869W        W23349  40.374  34.580  12.485
57870W        W23350  15.587  22.512  14.444
57871W        W23351   1.345   3.358  10.987
57872W        W23352  35.448  17.615  13.524
57873W        W23353  29.602  27.173  13.484
57874W        W23354  44.381  16.167   4.780
57875W        W23355  10.709   9.170  11.084
57876W        W23356   7.233  23.227   4.305
57877W        W23357  38.854  20.576   4.160
57878W        W23358  18.122  34.423  12.372
57879W        W23359  10.664  25.584  11.038
57880W        W23360   6.785   7.728   3.781
57881W        W23361  28.478  44.776   0.819
57882W        W23362   0.964  38.493   1.701
57883W        W23363  43.388  21.127  11.444
57884W        W23364  42.400  35.028   4.624
57885W        W23365  19.075  36.558  12.849
57886W        W23366  17.087  13.351   2.796
57887W        W23367   7.265  26.981   1.729
57888W        W23368  32.064  29.945  14.835
57889W        W23369  17.190  12.678  14.780
57890W        W23370   1.823  21.709  14.816
57891W        W23371  14.140  11.300   5.305
57892W        W23372   6.269  29.624   4.275
57893W        W23373  11.241  31.587  11.069
57894W        W23374  10.652   2.372   1.366
57895W        W23375   3.261  44.414  14.906
57896W        W23376   7.817  40.492  14.017
57897W        W23377  28.464  18.778  11.384
57898W        W23378  40.526  34.893  14.460
57899W        W23379  19.561  29.994   2.751
57900W        W23380  22.176  16.211  11.477
57901W        W23381  32.033  34.907  14.432
57902W        W23382  27.617  32.036   5.250
57903W        W23383  28.502  13.639  11.971
57904W        W23384  28.099   7.265   3.307
57905W        W23385   4.928   7.788   1.932
57906W        W23386  17.077  40.438   3.317
57907W        W23387   1.798  43.015  12.014
57908W        W23388  13.191   0.782   5.237
57909W        W23389  37.909   3.387  13.530
57910W        W23390  34.453   3.909  10.957
57911W        W23391   5.412   9.293   0.771
57912W        W23392  26.182  35.954  10.984
57913W        W23393  16.723  44.318   1.706
57914W        W23394  41.509  41.381   0.909
57915W        W23395   5.390  24.111  13.876
57916W        W23396  26.580   0.845   2.868
57917W        W23397  38.542  27.681  14.967
57918W        W23398   9.853  26.619  10.569
57919W        W23399  39.427  35.586  11.004
57920W        W23400   1.300  44.299   1.440
57921W        W23401  14.228  13.720   3.325
57922W        W23402  11.285  33.922   2.308
57923W        W23403  40.842  32.517  12.451
57924W        W23404   4.712   9.708  10.955
57925W        W23405  43.774  43.374   0.377
57926W        W23406  14.276  12.666  13.864
57927W        W23407  41.328   8.864   2.342
57928W        W23408  28.660   2.279   0.762
57929W        W23409  34.496  38.478  14.420
57930W        W23410  38.945   5.397   3.749
57931W        W23411  40.483  21.048  12.951
57932W        W23412  13.820  17.293  14.909
57933W        W23413  40.871  42.471   0.761
57934W        W23414  24.097  43.857   0.807
57935W        W23415  41.916  19.273  12.461
57936W        W23416  38.966  40.407   3.214
57937W        W23417  37.064   3.810  10.953
57938W        W23418  36.412  29.000  11.067
57939W        W23419  34.088  15.113   4.720
57940W        W23420  33.594  43.946  12.823
57941W        W23421  38.359  37.920   2.346
57942W        W23422  39.887  33.482   2.664
57943W        W23423  41.812   0.748  14.865
57944W        W23424  44.430  37.339  13.909
57945W        W23425  22.054  27.017  14.444
57946W        W23426   7.782  26.205   3.255
57947W        W23427  18.573  28.667   1.450
57948W        W23428  24.219  42.798   1.432
57949W        W23429   8.666  30.009  13.511
57950W        W23430  26.498  33.990  11.438
57951W        W23431  25.641   7.780  12.031
57952W        W23432   6.255   4.779  14.311
57953W        W23433   9.714  22.506   3.674
57954W        W23434  27.473  28.117   4.698
57955W        W23435  27.974  18.673   4.631
57956W        W23436  43.336  37.400  13.955
57957W        W23437  38.386  34.105  14.328
57958W        W23438  27.601  26.016   1.410
57959W        W23439  26.076   0.796   0.455
57960W        W23440  41.397  29.519  13.479
57961W        W23441  19.146  25.032  12.948
57962W        W23442  20.670  42.819   1.275
57963W        W23443  14.288   3.352  14.772
57964W        W23444  38.354  27.679  11.114
57965W        W23445   6.268  10.806   1.447
57966W        W23446   3.902  15.693   4.722
57967W        W23447  30.956   1.349   3.239
57968W        W23448   0.316  26.140   0.251
57969W        W23449  14.692   6.738  11.027
57970W        W23450  37.059   5.833   0.773
57971W        W23451   0.363   7.233   4.750
57972W        W23452  23.629  42.947  12.898
57973W        W23453  33.105  23.508  13.058
57974W        W23454   5.822  30.480   1.253
57975W        W23455   7.911  42.862   4.750
57976W        W23456   3.284   9.226   0.249
57977W        W23457  44.441  39.531   2.180
57978W        W23458  43.003  23.666   4.169
57979W        W23459  32.029  32.130  11.375
57980W        W23460  38.042   0.855   3.652
57981W        W23461  11.851  43.490   3.750
57982W        W23462   1.478  37.899   0.453
57983W        W23463  26.172  16.691  12.505
57984W        W23464   8.259  26.086  14.361
57985W        W23465   1.897   9.198  14.934
57986W        W23466   5.730  17.252  14.942
57987W        W23467  37.078  31.626   3.212
57988W        W23468  23.167  27.989  11.398
57989W        W23469  21.022  23.691   4.213
57990W        W23470  30.064  21.223  13.464
57991W        W23471  10.230  10.697   0.339
57992W        W23472  36.886  10.362  13.327
57993W        W23473  26.533  42.889  12.379
57994W        W23474  23.573   0.801   3.673
57995W        W23475   9.744  33.963   2.724
57996W        W23476  16.302  11.348   4.716
57997W        W23477  28.580  27.531   4.220
57998W        W23478  23.009  10.821   5.316
57999W        W23479  13.244   7.846   2.401
58000W        W23480   5.376  21.660  11.124
58001W        W23481  28.536   1.461  10.926
58002W        W23482  36.589  11.355   3.865
58003W        W23483  18.053  22.554  11.002
58004W        W23484   3.436  17.178   4.275
58005W        W23485   6.746   8.899  14.830
58006W        W23486  30.532  20.102   0.925
58007W        W23487  43.324  20.173   0.432
58008W        W23488  14.110  39.406   3.792
58009W        W23489  16.189  43.782  12.353
58010W        W23490  28.620  26.994   3.306
58011W        W23491  33.114   2.373  11.019
58012W        W23492  18.120   8.681  10.557
58013W        W23493  39.389  39.001   1.337
58014W        W23494   2.412  12.724   4.314
58015W        W23495  21.207  39.425  12.064
58016W        W23496   3.836  30.035  13.536
58017W        W23497   8.229  38.916  13.426
58018W        W23498  39.516  23.543  12.968
58019W        W23499  23.564   3.755   4.774
58020W        W23500   5.244  35.008  13.523
58021W        W23501   6.189  40.043  12.985
58022W        W23502   5.423  27.451   0.449
58023W        W23503  14.779  39.017   9.964
58024W        W23504  15.742   5.780   2.673
58025W        W23505  41.883  39.002   4.707
58026W        W23506  31.571  27.688   2.751
58027W        W23507   8.269  23.556   0.445
58028W        W23508  25.581  15.699   0.309
58029W        W23509  33.962   8.352  14.478
58030W        W23510  38.538  35.539   1.726
58031W        W23511  18.224  36.882  14.281
58032W        W23512  14.779  34.498   3.306
58033W        W23513  10.221  13.120   1.734
58034W        W23514  15.199   7.687  11.575
58035W        W23515  22.238   9.889   2.665
58036W        W23516  14.147  26.085   4.317
58037W        W23517  11.751   6.279  10.595
58038W        W23518  22.718  30.107   1.795
58039W        W23519   1.425  11.702  10.549
58040W        W23520  42.793  29.925  12.978
58041W        W23521  27.610  10.147   0.460
58042W        W23522   5.318   0.875   4.278
58043W        W23523  37.410   8.332  11.952
58044W        W23524  14.732   6.267   4.821
58045W        W23525  31.496  40.913  12.067
58046W        W23526  42.481  39.990  14.942
58047W        W23527  44.927  31.979  14.506
58048W        W23528  14.297  25.062   0.458
58049W        W23529  28.503   0.253  11.527
58050W        W23530   9.172  11.753  14.329
58051W        W23531  41.957  10.330  14.947
58052W        W23532  38.851  15.265   2.858
58053W        W23533  38.830  14.777  14.379
58054W        W23534  34.095  37.961   0.342
58055W        W23535  25.042  31.576  14.971
58056W        W23536  17.105  17.094  12.907
58057W        W23537  29.655  35.360  12.907
58058W        W23538  19.245  32.632   2.822
58059W        W23539  39.060  26.643   9.950
58060W        W23540   9.325  32.956   3.379
58061W        W23541   8.749  24.616   1.389
58062W        W23542  33.500  36.002   1.310
58063W        W23543  28.976  44.262  14.374
58064W        W23544  25.981   1.376  10.963
58065W        W23545  38.331  10.760   1.871
58066W        W23546  18.085  38.558  10.890
58067W        W23547   9.831  20.532  12.955
58068W        W23548  17.100  44.865  11.916
58069W        W23549  35.092  12.279  14.459
58070W        W23550   2.451  36.015  11.583
58071W        W23551  21.253  35.457   2.263
58072W        W23552  41.528  38.883  10.417
58073W        W23553  32.029  18.718   2.709
58074W        W23554  13.798   6.407   4.202
58075W        W23555   3.416  35.085   5.296
58076W        W23556  21.591  13.173   0.328
58077W        W23557  35.069   8.722   2.849
58078W        W23558  22.546  24.527  13.310
58079W        W23559  23.022  41.365  12.096
58080W        W23560  24.582  29.469  13.470
58081W        W23561  21.227  19.079   2.756
58082W        W23562  16.220  44.465   1.725
58083W        W23563  29.166   0.391  12.414
58084W        W23564  44.977  39.334   0.927
58085W        W23565  31.642  15.138  13.902
58086W        W23566  41.394  10.816  12.391
58087W        W23567  20.224  44.903  12.064
58088W        W23568  29.443  18.240   3.725
58089W        W23569  33.523   8.655   0.379
58090W        W23570  36.553  42.909   3.175
58091W        W23571  24.582   0.907  13.064
58092W        W23572  35.518  11.137  12.869
58093W        W23573  39.859  12.754  14.925
58094W        W23574   3.723   4.245  12.998
58095W        W23575  35.583  25.180  11.433
58096W        W23576   3.749  27.688   0.463
58097W        W23577  42.352   9.746  12.895
58098W        W23578  21.726   2.433   3.861
58099W        W23579   6.734  37.987  12.479
58100W        W23580  25.611  27.532  13.947
58101W        W23581   0.761  25.708   3.716
58102W        W23582   6.676   1.443   1.301
58103W        W23583  10.789  20.061   0.842
58104W        W23584  44.274  35.468   0.298
58105W        W23585  37.028  10.646  12.450
58106W        W23586  34.868  15.815   2.734
58107W        W23587  11.252  22.040  14.394
58108W        W23588  41.809  39.044  12.089
58109W        W23589  44.840  19.580   0.395
58110W        W23590  17.559  15.752  12.340
58111W        W23591  32.995  26.494  12.403
58112W        W23592   7.206  12.706  10.598
58113W        W23593  32.446  39.354  11.048
58114W        W23594  43.332  19.634  11.951
58115W        W23595  17.286  11.220   0.415
58116W        W23596   6.282  38.944   4.262
58117W        W23597  22.229   8.710   3.655
58118W        W23598  41.427   0.272  14.877
58119W        W23599  25.483   2.344  13.426
58120W        W23600  35.960  38.344  13.380
58121W        W23601  14.642   2.779   1.450
58122W        W23602  40.498   7.900   0.403
58123W        W23603   3.431  19.166   3.700
58124W        W23604   7.376  22.226  12.485
58125W        W23605  25.079   8.699   9.980
58126W        W23606   7.191   8.782  12.983
58127W        W23607   8.763  26.172   3.851
58128W        W23608   3.860  28.151   1.396
58129W        W23609  29.486   5.318  13.982
58130W        W23610  40.049  22.510  13.954
58131W        W23611   5.284  42.830   4.200
58132W        W23612   4.903   5.758  14.776
58133W        W23613   9.332  25.580  10.468
58134W        W23614  15.740  40.855   4.134
58135W        W23615  43.806  43.411  11.874
58136W        W23616   3.343  11.372  14.937
58137W        W23617  26.195  40.371   1.221
58138W        W23618   3.454  29.086   0.318
58139W        W23619  25.565  39.887  11.857
58140W        W23620  15.802  25.175  14.807
58141W        W23621  19.270   6.195  11.405
58142W        W23622   5.847  32.607  10.474
58143W        W23623  38.498  30.417   4.829
58144W        W23624  13.622  26.633  10.458
58145W        W23625  10.374  21.205   2.250
58146W        W23626  39.993   6.298  13.027
58147W        W23627  30.500  33.924  14.913
58148W        W23628  16.269  27.612  11.064
58149W        W23629   4.448  30.456  14.933
58150W        W23630   1.933   9.152   4.342
58151W        W23631  19.065  11.763   2.255
58152W        W23632  15.611  23.235  14.362
58153W        W23633  18.262   6.227   3.200
58154W        W23634  22.156  15.115  12.463
58155W        W23635   0.410  27.091  11.418
58156W        W23636  17.097  23.033  11.089
58157W        W23637  11.179   9.154   3.847
58158W        W23638  24.707  42.523   4.667
58159W        W23639   1.456  26.676  10.889
58160W        W23640  32.441  10.339   2.204
58161W        W23641  23.098  28.122   3.770
58162W        W23642   7.883  34.877  12.515
58163W        W23643   3.828   6.813   0.810
58164W        W23644  19.540  24.671   1.271
58165W        W23645  10.282  17.114   4.272
58166W        W23646  37.535  10.229   0.929
58167W        W23647   9.691   2.767   1.711
58168W        W23648   5.296  42.789  13.884
58169W        W23649   3.804  44.448   0.904
58170W        W23650  18.102  37.380   3.337
58171W        W23651  13.808  26.109   2.860
58172W        W23652  36.556  23.055   1.356
58173W        W23653  41.460   5.220  14.805
58174W        W23654   6.889   7.284   0.746
58175W        W23655  29.076   1.389  10.490
58176W        W23656  33.101  15.174   2.894
58177W        W23657  26.170  12.622  10.414
58178W        W23658  28.663  13.214   3.331
58179W        W23659  21.206  15.680   0.438
58180W        W23660   2.919  31.494   1.787
58181W        W23661  25.614  10.831  14.871
58182W        W23662  44.766  28.584   0.856
58183W        W23663  19.221  17.653  14.010
58184W        W23664  11.224  40.812   3.373
58185W        W23665  18.076  17.137  12.970
58186W        W23666  29.040  17.737  12.530
58187W        W23667  20.669  10.646  13.355
58188W        W23668  11.789   5.846   4.270
58189W        W23669  28.144   3.274   2.800
58190W        W23670  24.598  38.368   3.699
58191W        W23671  25.496   9.682   0.442
58192W        W23672  34.419  30.021   3.309
58193W        W23673  44.851   8.334   3.630
58194W        W23674  16.702  44.006  13.862
58195W        W23675   0.862  28.979  14.835
58196W        W23676  16.199  43.812   2.267
58197W        W23677  16.199  16.292   0.248
58198W        W23678  15.189  12.185  11.485
58199W        W23679  41.519  11.761  11.055
58200W        W23680  14.110  38.870  12.383
58201W        W23681  27.093  13.318   4.199
58202W        W23682  25.097  25.514   5.273
58203W        W23683  24.547  25.625  14.820
58204W        W23684  27.476  23.720   3.708
58205W        W23685  37.482  18.083   4.140
58206W        W23686   7.281  26.505  14.809
58207W        W23687   6.914  13.202   2.777
58208W        W23688  29.126  36.059   2.727
58209W        W23689  28.182  44.988   4.809
58210W        W23690  25.584  42.813  12.932
58211W        W23691   1.353  27.053  13.979
58212W        W23692  43.803  22.673  12.074
58213W        W23693  35.521   6.406  11.555
58214W        W23694  25.077   2.765  13.826
58215W        W23695   7.244  35.536   1.801
58216W        W23696   5.925  21.592  13.927
58217W        W23697  29.573  41.962  13.529
58218W        W23698  20.678  43.440  12.086
58219W        W23699  16.262   4.343  10.644
58220W        W23700  34.543  33.380  14.474
58221W        W23701  44.864  44.828  13.411
58222W        W23702   7.748   6.217   4.121
58223W        W23703  10.830  14.314  14.423
58224W        W23704  10.165   7.834  11.067
58225W        W23705  34.529   6.348   2.796
58226W        W23706  16.286  36.389  12.972
58227W        W23707  32.118  44.842  12.963
58228W        W23708  36.027   6.256  14.852
58229W        W23709   2.285   1.863   3.853
58230W        W23710  18.111   1.426   0.729
58231W        W23711  33.414  33.568   3.263
58232W        W23712  24.531  18.271   3.236
58233W        W23713   5.792  21.078  13.971
58234W        W23714  34.435  13.235   3.301
58235W        W23715  16.654  38.052   4.145
58236W        W23716  29.545  20.133   1.787
58237W        W23717  34.911   6.778  10.473
58238W        W23718  40.930   7.736   1.867
58239W        W23719  30.986  33.407  12.350
58240W        W23720  20.113  20.649  11.018
58241W        W23721  19.766  10.719   2.845
58242W        W23722  38.920  29.065  10.945
58243W        W23723  27.663   0.404  14.325
58244W        W23724  41.402  25.628   1.218
58245W        W23725  29.513  25.644  11.890
58246W        W23726   5.312   1.901   0.886
58247W        W23727  35.945  40.317  11.113
58248W        W23728  11.622  34.454  14.358
58249W        W23729   3.912  21.650   1.886
58250W        W23730  17.799  44.412  10.912
58251W        W23731  38.478  32.500  14.943
58252W        W23732  32.405  19.113   4.197
58253W        W23733  35.060  34.587   0.942
58254W        W23734   3.766  22.708   0.362
58255W        W23735  25.663  27.499  11.405
58256W        W23736  19.064  34.614   0.732
58257W        W23737  33.482  36.403  13.064
58258W        W23738  29.655  10.196   3.224
58259W        W23739  30.947  37.342   2.352
58260W        W23740  22.571   4.744   0.874
58261W        W23741  12.362   3.792  12.352
58262W        W23742   0.752  24.569   2.188
58263W        W23743  11.711  36.523   1.337
58264W        W23744  29.572  20.720  13.384
58265W        W23745  18.607  35.109   3.200
58266W        W23746   8.798   7.897   1.318
58267W        W23747  18.196  44.423  10.531
58268W        W23748   0.346  15.614   3.289
58269W        W23749   5.379  42.791  14.779
58270W        W23750  33.442  14.294  11.485
58271W        W23751  18.131  20.081   0.306
58272W        W23752  22.124  34.427  12.506
58273W        W23753  25.573  26.998  11.403
58274W        W23754  30.522  40.971  11.909
58275W        W23755   3.844  28.069  14.469
58276W        W23756   8.786  17.085   3.711
58277W        W23757  44.960  26.504   4.166
58278W        W23758  31.529  26.998   4.291
58279W        W23759  12.338  43.502   0.963
58280W        W23760  26.515  31.585   2.754
58281W        W23761  18.558   5.743   1.373
58282W        W23762  29.454  22.177  10.548
58283W        W23763   3.307   2.422   2.194
58284W        W23764   7.348  27.045  11.543
58285W        W23765  32.509  13.744  11.459
58286W        W23766  22.182  26.005  10.629
58287W        W23767   3.314  38.520   0.791
58288W        W23768  18.122  31.477   1.794
58289W        W23769   9.846  31.109   4.181
58290W        W23770  15.214   4.434  14.447
58291W        W23771  23.140  10.867  14.442
58292W        W23772  21.654  37.511  11.601
58293W        W23773  20.524   7.395   4.135
58294W        W23774   4.909  41.298   2.410
58295W        W23775   7.716  25.182   5.161
58296W        W23776   4.290  22.038  12.372
58297W        W23777  37.473  12.191   4.748
58298W        W23778   6.826   8.866  10.461
58299W        W23779   5.377  11.749  14.430
58300W        W23780  29.113  31.908   2.877
58301W        W23781  13.732  18.608   0.467
58302W        W23782  20.238  31.644   2.743
58303W        W23783  37.998  21.252  11.475
58304W        W23784   3.837  43.458  14.891
58305W        W23785  43.812  25.199  14.492
58306W        W23786  29.106  25.548  11.088
58307W        W23787  13.624  32.001   3.227
58308W        W23788  38.552  15.251  11.099
58309W        W23789  20.208  24.044   3.836
58310W        W23790   6.183  18.735   4.188
58311W        W23791  34.535  41.895   4.119
58312W        W23792  15.199  33.610  12.870
58313W        W23793  22.038   3.951   4.270
58314W        W23794  23.511  14.208   2.300
58315W        W23795  33.414  38.848   0.248
58316W        W23796  44.422  10.327  14.433
58317W        W23797  11.207  25.607  11.937
58318W        W23798  28.107  29.469   0.932
58319W        W23799  22.706  13.303  10.889
58320W        W23800  39.930  20.525   0.258
58321W        W23801  29.645  44.381   3.865
58322W        W23802  33.000  30.626   2.879
58323W        W23803  23.529  29.523  11.594
58324W        W23804  42.026   1.940   0.355
58325W        W23805  40.965  34.440   3.651
58326W        W23806  17.774  36.039   2.682
58327W        W23807   7.200  10.835   0.462
58328W        W23808   8.770  32.443   5.130
58329W        W23809  23.029  32.587   3.666
58330W        W23810   8.181  34.916  12.373
58331W        W23811   5.265  24.525  12.824
58332W        W23812  16.622  15.697   3.259
58333W        W23813  29.439  39.013  14.325
58334W        W23814  30.913   3.374  11.579
58335W        W23815  30.503  21.599   2.721
58336W        W23816   1.808   8.896  14.442
58337W        W23817  11.826  34.051  12.858
58338W        W23818  25.497  25.499   3.310
58339W        W23819   9.714  39.552  12.530
58340W        W23820  27.067   9.276   0.833
58341W        W23821  14.679  28.525  12.983
58342W        W23822  30.046  24.172  13.849
58343W        W23823  13.274  28.949   2.817
58344W        W23824  26.605  10.730  13.487
58345W        W23825  13.157  16.705   3.864
58346W        W23826   2.405   8.830   4.766
58347W        W23827  22.591  17.285  14.430
58348W        W23828  43.329  12.314   2.381
58349W        W23829   2.337   2.348  14.495
58350W        W23830  18.668  14.311  12.993
58351W        W23831  28.946   0.942   4.768
58352W        W23832  42.303  26.070   1.368
58353W        W23833   7.337  17.791  11.050
58354W        W23834   9.685  14.124   1.451
58355W        W23835  43.866  37.364   1.241
58356W        W23836   0.933   3.771  10.429
58357W        W23837   1.951  43.799  11.584
58358W        W23838  28.096  27.079   0.424
58359W        W23839  25.984  33.549   3.264
58360W        W23840  40.979   6.916   0.898
58361W        W23841  34.569   6.689   1.848
58362W        W23842  44.912   2.808  10.473
58363W        W23843   2.384   6.225  14.976
58364W        W23844  33.537  29.017   1.338
58365W        W23845  22.605   3.460   2.331
58366W        W23846  39.469  18.693   3.667
58367W        W23847   5.229  40.806  13.831
58368W        W23848  11.176  41.344  10.576
58369W        W23849  36.098  12.727   3.360
58370W        W23850  38.405  37.521  13.537
58371W        W23851  38.954  24.198   4.723
58372W        W23852  12.307   9.236   4.599
58373W        W23853  24.020  19.759  11.501
58374W        W23854  43.455  11.274   2.822
58375W        W23855  16.802   0.483  10.523
58376W        W23856  41.910   8.364  13.459
58377W        W23857   5.282  39.495   3.164
58378W        W23858   2.401  25.597   3.814
58379W        W23859  25.198  41.822   3.241
58380W        W23860  17.670  43.834  13.546
58381W        W23861  14.790  36.551  11.122
58382W        W23862  28.055  36.360  14.958
58383W        W23863  23.987  18.716   1.892
58384W        W23864  28.656  31.617   3.350
58385W        W23865  44.764   4.856   4.797
58386W        W23866   6.874   4.922   4.686
58387W        W23867  33.570   4.256   1.703
58388W        W23868   1.389  22.656  13.803
58389W        W23869  25.037   1.781   4.311
58390W        W23870  35.437   9.344  11.105
58391W        W23871  40.513   6.900   4.787
58392W        W23872  28.501  41.037  13.034
58393W        W23873   8.671  20.104   4.199
58394W        W23874  23.694  24.525  10.928
58395W        W23875  21.250  38.936  11.087
58396W        W23876  44.288  17.636  12.531
58397W        W23877  14.703  33.099   3.208
58398W        W23878  19.761  19.147  10.499
58399W        W23879  15.136  19.670   3.635
58400W        W23880  35.599  27.073  11.982
58401W        W23881  35.410  44.338   1.304
58402W        W23882  14.658  40.470  14.357
58403W        W23883  14.588   8.289   3.152
58404W        W23884  34.614  37.031   4.118
58405W        W23885  41.433  35.517  10.550
58406W        W23886  34.901  29.999  11.372
58407W        W23887  12.617  12.647   4.784
58408W        W23888  37.054   2.830   0.821
58409W        W23889  12.767   5.862   3.656
58410W        W23890  40.874  14.261   2.266
58411W        W23891   8.877   7.778   1.859
58412W        W23892  30.426  20.727   3.145
58413W        W23893  27.646  40.420  12.985
58414W        W23894  18.077   4.302  13.428
58415W        W23895  19.746  44.801   1.343
58416W        W23896   1.284  10.242   0.282
58417W        W23897  36.076   9.714   1.267
58418W        W23898  10.748  18.720  12.459
58419W        W23899  43.382  15.648   0.886
58420W        W23900  40.367  36.400  10.897
58421W        W23901   5.784  35.492   1.216
58422W        W23902   1.457  19.146  14.339
58423W        W23903  15.138  42.287   3.288
58424W        W23904  23.729  11.626  14.012
58425W        W23905  24.987  42.800   0.367
58426W        W23906  38.394  38.077   1.710
58427W        W23907  33.000   2.785  10.453
58428W        W23908  10.165  11.717  11.392
58429W        W23909  21.151  41.367   3.641
58430W        W23910  24.069  16.101  11.099
58431W        W23911  44.907  10.857  11.601
58432W        W23912  23.149  26.202  12.844
58433W        W23913   4.907  29.070   4.650
58434W        W23914  21.206  39.836   1.768
58435W        W23915  12.212  16.095  12.508
58436W        W23916  37.348  41.788   4.159
58437W        W23917   6.347  44.401   1.811
58438W        W23918  12.355  40.881   1.262
58439W        W23919  36.531  32.496  12.873
58440W        W23920  17.692  22.078  14.813
58441W        W23921  36.512  37.447  14.373
58442W        W23922  14.818   3.731   3.150
58443W        W23923  40.007  13.153   0.348
58444W        W23924   8.286  30.966  10.993
58445W        W23925  27.521  37.448  14.802
58446W        W23926  28.002  17.690  10.451
58447W        W23927  18.078   3.811   1.869
58448W        W23928  22.663  24.639   2.745
58449W        W23929   0.369  21.119  14.358
58450W        W23930  21.701  34.439  12.891
58451W        W23931  10.747  31.566  11.043
58452W        W23932  19.071  41.307   1.430
58453W        W23933  44.008   3.790   0.922
58454W        W23934   4.710  15.684   2.370
58455W        W23935  18.255  20.617  10.623
58456W        W23936   7.733  23.708  15.000
58457W        W23937  43.862  23.152   0.374
58458W        W23938  22.530  14.663   0.341
58459W        W23939  41.443  31.941   3.713
58460W        W23940  30.079  14.131  10.519
58461W        W23941  32.965  30.554  10.595
58462W        W23942  17.635  24.489  11.031
58463W        W23943  17.640   1.900  13.317
58464W        W23944  12.686  13.142  13.900
58465W        W23945  14.636  20.578  12.969
58466W        W23946  16.146  27.627   9.502
58467W        W23947  40.355  43.932   4.166
58468W        W23948  18.066  33.977   0.387
58469W        W23949  20.695  29.476   4.829
58470W        W23950  37.339  40.482   3.862
58471W        W23951  38.564   4.708  14.443
58472W        W23952  26.640   3.888   2.201
58473W        W23953  36.843  25.100  12.340
58474W        W23954  33.884  12.825   2.379
58475W        W23955  18.124  25.095   5.749
58476W        W23956  11.240   9.847   4.315
58477W        W23957   8.742  35.060  13.792
58478W        W23958  44.759  16.081  13.960
58479W        W23959  27.946   5.712   0.880
58480W        W23960  19.602  15.259   3.363
58481W        W23961  34.083  44.458  13.925
58482W        W23962  26.030  32.986   2.373
58483W        W23963   7.371  42.493   4.691
58484W        W23964  24.641  26.608   0.254
58485W        W23965  15.137  24.632   4.818
58486W        W23966  26.697  26.572  10.634
58487W        W23967  37.875   5.922  14.977
58488W        W23968   1.444   9.323   3.781
58489W        W23969  39.400  10.242   4.661
58490W        W23970  22.609  14.195  10.999
58491W        W23971   7.415  20.635  14.423
58492W        W23972  40.364  24.647   1.718
58493W        W23973  39.434  32.636  11.998
58494W        W23974  29.164  25.603  11.586
58495W        W23975  12.677  43.963  12.839
58496W        W23976  17.718   9.838   0.810
58497W        W23977  25.084  22.601  10.956
58498W        W23978   3.266   1.754   3.727
58499W        W23979  32.992  18.664   0.825
58500W        W23980  24.712  38.446   4.781
58501W        W23981  39.514  12.684   1.276
58502W        W23982  30.074   7.803   3.187
58503W        W23983   6.229  41.947  10.902
58504W        W23984  30.508   5.362  14.876
58505W        W23985  10.332   9.751   0.909
58506W        W23986  14.616   7.726  13.431
58507W        W23987  22.177  33.991  11.065
58508W        W23988   8.899   4.278   2.412
58509W        W23989   9.779  19.676   3.862
58510W        W23990   7.670   7.370  11.531
58511W        W23991   0.770   4.267   3.209
58512W        W23992   5.210  37.383   2.699
58513W        W23993  43.004  44.486   3.832
58514W        W23994   3.738  43.445   4.647
58515W        W23995  38.443  30.156  14.963
58516W        W23996   4.289  18.264   2.229
58517W        W23997  23.123  43.350  11.409
58518W        W23998  29.030  22.995  10.584
58519W        W23999  38.995   7.410   1.898
58520W        W24000  40.046  20.047   5.143
58521W        W24001  31.922  43.859   2.723
58522W        W24002  12.686   7.736  12.054
58523W        W24003  11.243  22.225   2.840
58524W        W24004  31.547  18.233   0.451
58525W        W24005  19.159  33.116   1.912
58526W        W24006  41.470  31.933  13.437
58527W        W24007   5.887  12.133  13.883
58528W        W24008  41.331  36.959   4.154
58529W        W24009  38.350  39.477  14.986
58530W        W24010  14.760  29.455  10.965
58531W        W24011   6.415  16.200  12.043
58532W        W24012   7.193  19.142  10.587
58533W        W24013  19.664   0.752   2.346
58534W        W24014  22.586  21.674  11.954
58535W        W24015   1.972  30.623  10.482
58536W        W24016  33.901  12.231  11.549
58537W        W24017  31.987  35.949   3.728
58538W        W24018  39.464  38.433  13.858
58539W        W24019  26.989   4.411   1.734
58540W        W24020  40.400   2.363  14.312
58541W        W24021  11.793  41.401   2.774
58542W        W24022  35.378  36.851   1.226
58543W        W24023   8.275  39.967   0.289
58544W        W24024  42.450  28.990   2.415
58545W        W24025  20.596  17.598   1.742
58546W        W24026   5.833  30.914  14.989
58547W        W24027  42.783  40.969  12.010
58548W        W24028  43.955  19.256   3.227
58549W        W24029  39.963   9.178   0.303
58550W        W24030  22.208  32.885   0.462
58551W        W24031  42.884   1.850   2.885
58552W        W24032  34.914  33.971  14.388
58553W        W24033  38.821  33.934  13.321
58554W        W24034  44.442  25.203   3.752
58555W        W24035  38.479  35.100   2.237
58556W        W24036  20.585  20.673  10.940
58557W        W24037   6.282  41.022  11.466
58558W        W24038  38.024  23.147   0.962
58559W        W24039  20.603   1.813   4.198
58560W        W24040  23.598  29.592   4.124
58561W        W24041  41.806  31.645   2.662
58562W        W24042  43.360  17.719   0.449
58563W        W24043  38.952  26.143   5.150
58564W        W24044  21.116  10.633   2.808
58565W        W24045  44.422   1.826  11.547
58566W        W24046   6.334   6.774   4.828
58567W        W24047  24.026  37.464  14.851
58568W        W24048   8.364  18.613  14.018
58569W        W24049   0.883  44.937   2.411
58570W        W24050   9.157  19.085   0.735
58571W        W24051  38.466  14.824  10.529
58572W        W24052  15.657   9.764  12.929
58573W        W24053  44.413  10.332  13.821
58574W        W24054  36.951  19.703  12.005
58575W        W24055  29.591  41.308   3.774
58576W        W24056   8.369  14.171   3.272
58577W        W24057  44.757  16.642   2.304
58578W        W24058   9.785  36.587   3.250
58579W        W24059  39.935  17.250  14.395
58580W        W24060   3.410  22.135  11.585
58581W        W24061  26.960  41.014  12.566
58582W        W24062  42.424  14.319  10.537
58583W        W24063  10.663  41.388  13.464
58584W        W24064  18.613  14.222  10.536
58585W        W24065   1.456  18.621  14.375
58586W        W24066   4.308  27.678   2.824
58587W        W24067  43.499   8.716  13.518
58588W        W24068  43.399  35.481  11.974
58589W        W24069  17.572   9.244   3.244
58590W        W24070  26.692  12.687   5.269
58591W        W24071  26.479   4.363   3.841
58592W        W24072   4.268  27.535   1.855
58593W        W24073  37.083   8.276   1.840
58594W        W24074  41.988  20.645   0.752
58595W        W24075  32.543  44.845  13.944
58596W        W24076  15.158  43.467   3.260
58597W        W24077  10.818  39.829   0.862
58598W        W24078  22.670  26.050  13.000
58599W        W24079  32.042  11.295   2.261
58600W        W24080  32.885  26.011  10.976
58601W        W24081  32.067   7.800   3.850
58602W        W24082  32.442  20.690   0.815
58603W        W24083  30.150  24.492   2.669
58604W        W24084  37.008   3.366  14.415
58605W        W24085   5.694  10.850   0.952
58606W        W24086  36.391  19.090   1.398
58607W        W24087   3.883  41.829  11.563
58608W        W24088  30.128  38.431   1.230
58609W        W24089  30.610  13.729   1.852
58610W        W24090   3.254  21.716  13.931
58611W        W24091  40.972  35.034  11.547
58612W        W24092  14.282  35.999   0.321
58613W        W24093  11.702  21.216   2.823
58614W        W24094  34.608  36.005  13.332
58615W        W24095   7.283  16.638  11.527
58616W        W24096   7.670  33.883   2.392
58617W        W24097  29.978  17.664   0.429
58618W        W24098  33.045  42.371   1.740
58619W        W24099  21.105  44.482  14.878
58620W        W24100   9.698  17.140   3.198
58621W        W24101  12.330  30.416   4.313
58622W        W24102  41.031  12.630   0.312
58623W        W24103  30.996  32.926   4.253
58624W        W24104  13.262   2.736   1.297
58625W        W24105  25.714  38.333   4.736
58626W        W24106   1.807  18.664   1.774
58627W        W24107  30.588  15.636   3.729
58628W        W24108  25.208  26.534   0.360
58629W        W24109  27.117  22.226  12.082
58630W        W24110  22.079  43.834  14.827
58631W        W24111  24.549  23.667   0.766
58632W        W24112  15.217  35.396  11.485
58633W        W24113  38.070  40.878   1.327
58634W        W24114  39.918  18.173  14.284
58635W        W24115  21.246  32.069   9.942
58636W        W24116   1.840  15.620  13.916
58637W        W24117  27.591   2.268   0.363
58638W        W24118  19.594  28.019   3.354
58639W        W24119  26.011  10.714  11.888
58640W        W24120  41.383  35.572   4.326
58641W        W24121  38.841  23.698   2.194
58642W        W24122  40.041  37.848   4.224
58643W        W24123  40.830  19.097   1.741
58644W        W24124   9.706  12.772   3.845
58645W        W24125  30.536  24.025   3.162
58646W        W24126  30.462  40.999   2.711
58647W        W24127   0.963  10.847   3.373
58648W        W24128  18.782  37.058   4.335
58649W        W24129  37.942  15.817  10.112
58650W        W24130   1.880   5.808  12.005
58651W        W24131   9.751  30.518   3.259
58652W        W24132  11.254  39.406  11.112
58653W        W24133  38.327   4.433   0.908
58654W        W24134  16.256   7.892   0.370
58655W        W24135  41.022   2.925   3.298
58656W        W24136   8.355  30.959  12.973
58657W        W24137  30.965   1.363  11.051
58658W        W24138  30.498  26.025  10.897
58659W        W24139  14.222  17.122  11.064
58660W        W24140  37.470   9.180   3.381
58661W        W24141  10.144  13.666  12.972
58662W        W24142  18.767  39.532  13.513
58663W        W24143  33.993  13.322  11.080
58664W        W24144  14.220  25.013  14.871
58665W        W24145  42.932  10.677  10.610
58666W        W24146  32.118  26.048   3.208
58667W        W24147  25.640  26.571   2.791
58668W        W24148   0.986  13.339   3.826
58669W        W24149  16.293  19.140  10.532
58670W        W24150  33.506  11.756  13.511
58671W        W24151  13.655  23.692   2.857
58672W        W24152  14.247  26.957   1.300
58673W        W24153  12.756   4.941  11.447
58674W        W24154  42.871   4.832   3.346
58675W        W24155  34.432  29.625  13.035
58676W        W24156  43.394  28.510  11.041
58677W        W24157  34.887  12.821  14.348
58678W        W24158  21.105   4.309  10.550
58679W        W24159   0.902   3.943  12.521
58680W        W24160  42.483  40.841  12.899
58681W        W24161   1.825  16.709   3.842
58682W        W24162   0.797  11.731   5.143
58683W        W24163  21.633   2.284   0.791
58684W        W24164  24.151  43.339  14.854
58685W        W24165   2.377  44.343  10.097
58686W        W24166  36.032  12.674   1.394
58687W        W24167  34.581  17.100   2.709
58688W        W24168   3.723   8.893  11.998
58689W        W24169  22.582  31.531   4.705
58690W        W24170   7.818   0.318  13.372
58691W        W24171  30.946  19.080   1.882
58692W        W24172  31.500   0.485   3.364
58693W        W24173   9.356   6.364   1.852
58694W        W24174  12.726  17.283  14.502
58695W        W24175  27.607  19.084   4.127
58696W        W24176   8.721  36.020   4.719
58697W        W24177  21.217  13.637  10.890
58698W        W24178   3.367  38.016  11.934
58699W        W24179  41.806  39.495   3.326
58700W        W24180  37.578   1.881   1.843
58701W        W24181  16.149  10.862   0.748
58702W        W24182  44.866  13.202  11.504
58703W        W24183  35.084  19.573  14.953
58704W        W24184  27.478  15.760   0.806
58705W        W24185  19.169  14.732  13.548
58706W        W24186  17.701  18.095   1.786
58707W        W24187  29.503   1.482  11.971
58708W        W24188  31.417  35.388  12.937
58709W        W24189  43.811  33.937   3.682
58710W        W24190   5.392  22.732   2.725
58711W        W24191  39.962  18.074   0.448
58712W        W24192  30.577   8.323   4.216
58713W        W24193  38.057  17.708   3.350
58714W        W24194  35.483  23.101   1.394
58715W        W24195  10.747   6.733  11.888
58716W        W24196  29.629   5.745  12.573
58717W        W24197  29.562  11.763   4.345
58718W        W24198   0.342  40.537  13.035
58719W        W24199  34.434  21.134   0.440
58720W        W24200  30.571  32.591  13.310
58721W        W24201  24.725  37.890  10.917
58722W        W24202  39.850  17.763   0.353
58723W        W24203   6.328  38.061  10.610
58724W        W24204  20.720  41.476   3.637
58725W        W24205  23.614  37.931   3.840
58726W        W24206  43.989  21.688   0.921
58727W        W24207  21.160  40.887   4.327
58728W        W24208  25.099   7.212  13.494
58729W        W24209  44.775   0.797   0.862
58730W        W24210   8.874   3.220  10.983
58731W        W24211  15.257  24.022  13.478
58732W        W24212  11.732  43.999   2.360
58733W        W24213  41.973  39.873   1.311
58734W        W24214  13.655  27.529  13.880
58735W        W24215  13.718  30.496   4.796
58736W        W24216  21.657   6.898  12.519
58737W        W24217  36.937  26.522   2.870
58738W        W24218  39.863  32.959   4.600
58739W        W24219   1.387   7.807   4.603
58740W        W24220  32.594  41.402  14.827
58741W        W24221  35.452  17.239   0.913
58742W        W24222  30.001  16.665  13.357
58743W        W24223  44.951  23.632  10.588
58744W        W24224  38.949  42.523  10.507
58745W        W24225  24.196  30.936  14.899
58746W        W24226  25.669   9.384  10.038
58747W        W24227  28.984  16.783  13.404
58748W        W24228   2.462   3.902   4.230
58749W        W24229  29.475  41.894  11.095
58750W        W24230  16.107  28.675   4.295
58751W        W24231   7.736  35.094   3.378
58752W        W24232  36.925  41.535   3.279
58753W        W24233  43.806   2.360  12.420
58754W        W24234  30.920  41.503  13.359
58755W        W24235  28.643  26.088  14.961
58756W        W24236  43.977  18.637   0.917
58757W        W24237  11.128  44.870   1.797
58758W        W24238  10.363   3.231   4.212
58759W        W24239  42.511  14.172  12.000
58760W        W24240  33.967  33.419  13.522
58761W        W24241  34.407  13.781   0.252
58762W        W24242  30.930  15.770  11.109
58763W        W24243  43.381   1.409  12.415
58764W        W24244   6.422  10.634   2.350
58765W        W24245  27.182  13.204  12.356
58766W        W24246   1.813  36.954  12.567
58767W        W24247  14.676  44.467  11.053
58768W        W24248   5.711   6.223   4.160
58769W        W24249  33.996  30.091   4.268
58770W        W24250  27.978  18.269   4.826
58771W        W24251  17.275  16.688  11.402
58772W        W24252  25.164   1.340  12.388
58773W        W24253  21.078  28.617  11.483
58774W        W24254   1.746   3.310  13.030
58775W        W24255  19.661  41.480  13.381
58776W        W24256   0.818   0.781   0.325
58777W        W24257  41.506   7.756  14.869
58778W        W24258   9.288   9.288  11.121
58779W        W24259  22.024  29.061  11.978
58780W        W24260   5.293  32.490  13.974
58781W        W24261  36.454  43.428   4.749
58782W        W24262  20.643  43.358  14.446
58783W        W24263   4.416  12.727   3.375
58784W        W24264   5.269  41.322  13.933
58785W        W24265  40.326  44.872  11.418
58786W        W24266  43.893  32.515   3.653
58787W        W24267  13.151  22.545  12.515
58788W        W24268  38.975  25.151  14.819
58789W        W24269   4.335  14.154   4.719
58790W        W24270  39.892  20.039   1.813
58791W        W24271   7.261   0.400  14.993
58792W        W24272  23.527   3.921  12.553
58793W        W24273  33.388   1.286   0.924
58794W        W24274   6.226  13.804  10.601
58795W        W24275  29.030   7.225   3.700
58796W        W24276  27.156  26.038   3.379
58797W        W24277  13.157  25.668  11.557
58798W        W24278  32.994  35.446   0.899
58799W        W24279   5.693  26.206   4.598
58800W        W24280  34.370  36.888   2.718
58801W        W24281  10.777   5.892  14.875
58802W        W24282  43.362  11.795  14.355
58803W        W24283  34.451  42.841   3.689
58804W        W24284  44.386  19.141   3.331
58805W        W24285  35.444  41.502  12.408
58806W        W24286   0.820  35.522  12.939
58807W        W24287  41.862  15.592  14.989
58808W        W24288   1.895   2.728   4.116
58809W        W24289  42.327  11.294  12.439
58810W        W24290  44.009  25.498   0.401
58811W        W24291   5.392  36.964  13.428
58812W        W24292  29.669   1.826  14.368
58813W        W24293  21.210  26.513   3.810
58814W        W24294   6.788  22.087   1.832
58815W        W24295  34.607   1.756   1.750
58816W        W24296   8.403  32.026   2.298
58817W        W24297  27.164   9.160  12.045
58818W        W24298   2.852  26.954   3.201
58819W        W24299   7.831  25.125   0.356
58820W        W24300  10.720  27.980  14.972
58821W        W24301   7.720  39.023   0.945
58822W        W24302  42.432   5.851   2.311
58823W        W24303  44.896  37.919  12.939
58824W        W24304  41.484   4.884   3.778
58825W        W24305   5.709  32.896   2.688
58826W        W24306   0.850  42.985  12.009
58827W        W24307  15.158   9.229  13.524
58828W        W24308  30.468  41.787  13.821
58829W        W24309   3.736   6.711   1.927
58830W        W24310  11.168  24.073   1.935
58831W        W24311   2.736  14.251   0.263
58832W        W24312   0.361  41.431   4.234
58833W        W24313  33.432  41.485   2.698
58834W        W24314  28.505   9.191  10.471
58835W        W24315  30.125  36.911   2.212
58836W        W24316  15.724  19.232  13.465
58837W        W24317  18.235  25.216   2.888
58838W        W24318  44.329  21.516  11.491
58839W        W24319  40.879   6.354  13.401
58840W        W24320   5.917   5.371   1.210
58841W        W24321  11.127  33.887   3.839
58842W        W24322  21.740   8.817  12.384
58843W        W24323  23.139  33.611  14.968
58844W        W24324  19.631  28.169   0.946
58845W        W24325  25.637  14.791   1.411
58846W        W24326   7.854  10.379  12.341
58847W        W24327  22.568  33.527  14.812
58848W        W24328  28.119   1.802  12.930
58849W        W24329   1.315  35.034   3.323
58850W        W24330   2.391   1.246   1.697
58851W        W24331  29.593  37.352   5.318
58852W        W24332  17.744  26.637  14.021
58853W        W24333   0.273  44.755  14.824
58854W        W24334  28.651  21.142  10.434
58855W        W24335   1.884  31.624  11.869
58856W        W24336   1.318  15.136  13.865
58857W        W24337  17.228  30.927   2.244
58858W        W24338  17.143  15.272  10.617
58859W        W24339   9.816  26.021   0.967
58860W        W24340  33.043  21.567   4.736
58861W        W24341  13.684  13.237   9.988
58862W        W24342  13.725  35.575  10.986
58863W        W24343   2.958  31.981  11.030
58864W        W24344  25.685  37.420  12.002
58865W        W24345  36.954  38.951   3.789
58866W        W24346  37.559  40.378  12.546
58867W        W24347  37.893   0.924  13.402
58868W        W24348  23.996   7.407  12.505
58869W        W24349  27.525   8.365  11.401
58870W        W24350  22.252   5.919   1.812
58871W        W24351   7.252  13.724   1.309
58872W        W24352   3.410  21.579  14.485
58873W        W24353  13.692  14.752  14.493
58874W        W24354  41.843  43.339  13.351
58875W        W24355  25.115  28.027  14.371
58876W        W24356  41.792  19.189  11.466
58877W        W24357  16.316   9.648  10.460
58878W        W24358  25.504   8.719   2.247
58879W        W24359   7.196  32.596   4.241
58880W        W24360  13.826   6.882  12.557
58881W        W24361   9.837  20.583  10.447
58882W        W24362  29.478   4.850   4.229
58883W        W24363  16.590  41.916  13.514
58884W        W24364  36.548  35.987   4.241
58885W        W24365  22.735  32.057   5.213
58886W        W24366  25.671  14.094  10.069
58887W        W24367  22.539  33.487  13.482
58888W        W24368   9.680  40.859   4.809
58889W        W24369  27.603  23.703  14.997
58890W        W24370  18.684   6.852  13.541
58891W        W24371  12.193  18.744  14.336
58892W        W24372   1.289   9.730   3.744
58893W        W24373  43.291   9.742   1.408
58894W        W24374   9.828   2.253   4.631
58895W        W24375  11.783  43.413  14.378
58896W        W24376  41.301   8.191   3.212
58897W        W24377  16.578   5.723  12.899
58898W        W24378  13.768   2.918  13.811
58899W        W24379  35.910  28.137   0.832
58900W        W24380  11.129   0.443  12.039
58901W        W24381  43.839   0.905   1.822
58902W        W24382  20.610  26.985  12.516
58903W        W24383  10.206  24.596  13.454
58904W        W24384  39.923  14.710   3.327
58905W        W24385  20.106  33.609  11.586
58906W        W24386   4.722  33.123   2.892
58907W        W24387  33.930  19.739  14.375
58908W        W24388  40.519   4.757   0.918
58909W        W24389  30.072   6.730   0.828
58910W        W24390  17.282  16.671   1.809
58911W        W24391  23.111  32.582  10.928
58912W        W24392  31.572  17.156   3.368
58913W        W24393   1.357   0.271  10.910
58914W        W24394   2.404  11.791   0.276
58915W        W24395  13.646  16.094  12.536
58916W        W24396  13.723  32.637  13.382
58917W        W24397   5.689  38.991   0.250
58918W        W24398  18.192   3.236   4.316
58919W        W24399  34.066  39.982   0.484
58920W        W24400  37.976  24.180   0.462
58921W        W24401  13.645   6.302   3.330
58922W        W24402  29.597  36.939  14.002
58923W        W24403  36.393  25.149  12.479
58924W        W24404  10.713  23.729   0.744
58925W        W24405  40.977  37.847  14.855
58926W        W24406   9.267  25.554   2.707
58927W        W24407  40.415  16.743   0.324
58928W        W24408  29.012  33.020  13.529
58929W        W24409  27.028   1.460  14.832
58930W        W24410  28.989  40.878  14.303
58931W        W24411  33.425  32.905  11.969
58932W        W24412  25.050   6.387  14.374
58933W        W24413  33.946   1.856  11.917
58934W        W24414  29.173  34.472  14.498
58935W        W24415  13.148  19.243  13.022
58936W        W24416   7.865  18.551  10.500
58937W        W24417  25.631  23.161   0.320
58938W        W24418   8.271  16.317  11.479
58939W        W24419   0.983  28.585   0.733
58940W        W24420  29.573  16.134   4.350
58941W        W24421  21.550   8.747  12.017
58942W        W24422   9.311  19.228  10.532
58943W        W24423  33.019   9.203  10.896
58944W        W24424  36.999  27.469   1.312
58945W        W24425  41.958   7.694  10.046
58946W        W24426  15.696  38.383  10.926
58947W        W24427   0.359  14.103  12.538
58948W        W24428   3.254  33.039   9.591
58949W        W24429  29.979  11.665  12.579
58950W        W24430  38.034   1.305  13.045
58951W        W24431   6.426  16.799   3.305
58952W        W24432   6.711   4.390  10.448
58953W        W24433  28.533  37.407  13.898
58954W        W24434  39.416  26.537  12.000
58955W        W24435  44.776   1.971  12.470
58956W        W24436  40.383  10.223  12.062
58957W        W24437  34.593  15.596  11.894
58958W        W24438  21.234  10.755  13.944
58959W        W24439  23.214  43.310   4.138
58960W        W24440  35.512  28.078   4.204
58961W        W24441  24.510  40.507  10.614
58962W        W24442  15.113  19.609  10.900
58963W        W24443  36.057  35.495   2.217
58964W        W24444   4.449  34.923   1.831
58965W        W24445  13.233  19.703   4.648
58966W        W24446  35.390  14.206   1.700
58967W        W24447  30.450  43.990   1.908
58968W        W24448  26.966   6.371   1.811
58969W        W24449  18.587  17.567   1.402
58970W        W24450   3.403   3.911   0.835
58971W        W24451   8.365   3.782  12.823
58972W        W24452  33.391  29.980   4.645
58973W        W24453   9.366  36.397   3.639
58974W        W24454  28.057   8.214   2.330
58975W        W24455  27.067  23.674  11.124
58976W        W24456  29.564  43.344  12.909
58977W        W24457  15.616   8.861  12.994
58978W        W24458  43.475  37.513  10.502
58979W        W24459  15.101  16.178   4.277
58980W        W24460  41.388   0.381   2.860
58981W        W24461   8.312  40.036   3.206
58982W        W24462  17.714  28.148   4.272
58983W        W24463  41.027  30.607   3.642
58984W        W24464   4.360  35.051  13.034
58985W        W24465  44.914  13.228  14.954
58986W        W24466  18.594  23.569  14.005
58987W        W24467   3.248  18.284   1.236
58988W        W24468  14.148  27.171  10.632
58989W        W24469  32.561  29.559  10.428
58990W        W24470  35.437  40.994  14.362
58991W        W24471  33.558   4.712  13.805
58992W        W24472  20.571  34.014   3.208
58993W        W24473   3.444  13.610  10.522
58994W        W24474  34.884  17.118  10.964
58995W        W24475  37.866  16.103  14.849
58996W        W24476   4.865  26.118  10.945
58997W        W24477  37.024  28.571   1.890
58998W        W24478  41.913  25.629  13.849
58999W        W24479  29.005  20.746   2.202
59000W        W24480   8.310  15.240   4.781
59001W        W24481  13.149  13.634  13.462
59002W        W24482  32.459  14.178  13.312
59003W        W24483  22.745  26.138   3.177
59004W        W24484  19.096   5.727  12.087
59005W        W24485  11.725   1.271   4.195
59006W        W24486  42.459  31.969   0.731
59007W        W24487  42.879  18.578   3.859
59008W        W24488  16.593  33.389   1.701
59009W        W24489  26.055  30.032  11.385
59010W        W24490  43.774   3.926   3.708
59011W        W24491   8.867  30.626  11.891
59012W        W24492  22.088  13.342  13.494
59013W        W24493  42.354  44.384   4.776
59014W        W24494   9.184  42.851   5.320
59015W        W24495  18.711   8.771  13.025
59016W        W24496  18.703  22.026   1.702
59017W        W24497  11.666  20.110   1.440
59018W        W24498  31.453  30.544  13.417
59019W        W24499  14.764  16.715  10.970
59020W        W24500  43.287  14.636  11.593
59021W        W24501  38.385  32.619  13.979
59022W        W24502   6.392  37.042  10.444
59023W        W24503  16.227  38.831  14.495
59024W        W24504   1.325  40.476  13.825
59025W        W24505  36.872  12.220  13.440
59026W        W24506  36.554   9.784  13.855
59027W        W24507   0.934   5.906  13.976
59028W        W24508  19.754  42.859  14.932
59029W        W24509  27.977   4.800  10.934
59030W        W24510  33.880  42.841   5.121
59031W        W24511  16.617  39.852  14.327
59032W        W24512   0.877  28.003   3.707
59033W        W24513  14.245  42.017  14.447
59034W        W24514  30.059   1.266  12.041
59035W        W24515  18.262  10.336  10.057
59036W        W24516  20.655  41.380   1.232
59037W        W24517  41.436   7.333   2.204
59038W        W24518  36.586  11.260   4.691
59039W        W24519  13.745  42.885  14.304
59040W        W24520   4.373  22.561  13.801
59041W        W24521   7.744  25.217  14.858
59042W        W24522   0.957  16.629  12.427
59043W        W24523  39.487  11.733   2.813
59044W        W24524  31.988   3.415  12.539
59045W        W24525   3.711  20.672  12.081
59046W        W24526   7.388  33.560   2.256
59047W        W24527   8.295  37.532  13.484
59048W        W24528  39.336  35.402   1.928
59049W        W24529  10.272   1.473   2.370
59050W        W24530  36.866  33.530  13.897
59051W        W24531  20.247  20.214   4.811
59052W        W24532  39.837  33.093  14.860
59053W        W24533   6.889   7.220  14.804
59054W        W24534  19.721  43.427   3.381
59055W        W24535   2.897  20.110   1.397
59056W        W24536  25.665   4.703  10.898
59057W        W24537  29.120  26.204   2.837
59058W        W24538  33.019  27.465   4.328
59059W        W24539  18.778  37.390  10.489
59060W        W24540   8.804  10.735  12.827
59061W        W24541  38.975  42.457  12.487
59062W        W24542  16.667  10.819  10.538
59063W        W24543   9.267  41.362   1.798
59064W        W24544  34.915   1.899   1.337
59065W        W24545  41.394  31.590  13.954
59066W        W24546  22.044  39.995  12.828
59067W        W24547  10.787  10.369   3.806
59068W        W24548  35.570  22.651  12.883
59069W        W24549  40.837  28.055   2.370
59070W        W24550  36.372  36.415  13.952
59071W        W24551   6.234   5.355  13.391
59072W        W24552  20.197  18.706   2.735
59073W        W24553  37.339   2.771   3.725
59074W        W24554  30.132  11.286  10.606
59075W        W24555  12.306  18.746   4.636
59076W        W24556  40.479  42.852  11.899
59077W        W24557  42.778  33.439   3.369
59078W        W24558   5.899  44.902   1.402
59079W        W24559  12.225  24.604  11.563
59080W        W24560  28.472  16.087  14.869
59081W        W24561  15.811  18.176  10.536
59082W        W24562  41.475  13.114   1.411
59083W        W24563  16.241  25.591   4.114
59084W        W24564  37.437   1.437  14.774
59085W        W24565  18.081  36.577  11.377
59086W        W24566  15.615  29.980   1.446
59087W        W24567  21.081   6.401   4.636
59088W        W24568  20.194   2.230  10.436
59089W        W24569  17.199  31.635   4.139
59090W        W24570  30.561  42.459  12.998
59091W        W24571  18.734  11.204   1.422
59092W        W24572  38.432  31.995   3.712
59093W        W24573  35.582  34.442   2.334
59094W        W24574  38.870  32.418   1.404
59095W        W24575  17.742  24.004   5.110
59096W        W24576   1.387  19.700  12.535
59097W        W24577  11.822   3.416   5.305
59098W        W24578  28.672  39.888  14.929
59099W        W24579  10.148  18.077  13.898
59100W        W24580   6.279  31.987   1.833
59101W        W24581  13.751  38.065  10.509
59102W        W24582   1.901   6.184  12.445
59103W        W24583  39.419  40.434   3.186
59104W        W24584  18.284   3.430  11.896
59105W        W24585  35.359  38.944   4.164
59106W        W24586   2.348  19.120   3.312
59107W        W24587  26.145  23.588   4.278
59108W        W24588  15.294  11.641  14.947
59109W        W24589  22.720  40.955   2.844
59110W        W24590  37.933  15.625   2.735
59111W        W24591  31.035  37.958   4.187
59112W        W24592  33.618  32.517   3.169
59113W        W24593  40.424  24.584  11.878
59114W        W24594  25.704  21.531   0.304
59115W        W24595   1.731   1.833  11.390
59116W        W24596  17.640   5.887  12.060
59117W        W24597  26.138  24.208  14.292
59118W        W24598  11.310  15.610   0.267
59119W        W24599  27.149  39.823   4.257
59120W        W24600  26.593  35.033   1.924
59121W        W24601  12.361  10.144   5.253
59122W        W24602   9.828  27.620   1.773
59123W        W24603  29.067  14.205   1.920
59124W        W24604   4.819  12.841   5.201
59125W        W24605  43.779  14.735  11.551
59126W        W24606  27.606   3.458  14.828
59127W        W24607   5.437  17.783  13.033
59128W        W24608  33.557  35.448   4.743
59129W        W24609   4.333  37.438  10.541
59130W        W24610  44.389   7.197   4.599
59131W        W24611   2.956  26.000   0.410
59132W        W24612  21.176  31.543   4.251
59133W        W24613  10.702   7.834  14.516
59134W        W24614  14.789   5.732  12.826
59135W        W24615  42.451   9.256  13.457
59136W        W24616   9.746  21.065   1.867
59137W        W24617  21.257  31.579   1.240
59138W        W24618  28.132  44.425   5.315
59139W        W24619  11.279   5.402   1.899
59140W        W24620   0.828  16.609   1.828
59141W        W24621   1.422  26.182   2.372
59142W        W24622  23.027  21.055   0.333
59143W        W24623  24.181  30.116   1.784
59144W        W24624  31.022  15.760  10.051
59145W        W24625   4.417  25.485  12.001
59146W        W24626  37.983  26.175   3.725
59147W        W24627  24.045  11.268   3.635
59148W        W24628  36.971  36.451   1.777
59149W        W24629   7.796   5.347   3.298
59150W        W24630  30.008  38.063  10.501
59151W        W24631   9.260   5.900   0.960
59152W        W24632  37.057  22.681   0.341
59153W        W24633  40.308  34.607  13.871
59154W        W24634  21.221  23.997  11.859
59155W        W24635  23.667  44.908   2.244
59156W        W24636  24.146  40.331   1.820
59157W        W24637  37.024  13.795   2.756
59158W        W24638  14.104  31.576  14.972
59159W        W24639  12.700  32.404   0.389
59160W        W24640  20.241  10.161   3.340
59161W        W24641  42.846  25.038   1.303
59162W        W24642  30.939  33.024  12.511
59163W        W24643  33.501  28.645  14.474
59164W        W24644  43.456  24.619  14.798
59165W        W24645  20.168   6.715  14.336
59166W        W24646  23.065  34.601  12.460
59167W        W24647  14.103  32.435  13.041
59168W        W24648  13.199  38.500   2.261
59169W        W24649  41.408  23.032   0.415
59170W        W24650  39.411  34.477  14.901
59171W        W24651   4.799  11.824  10.998
59172W        W24652   7.403  26.098   3.839
59173W        W24653  15.283  18.287   0.786
59174W        W24654  26.202  21.247  11.957
59175W        W24655  15.706  32.397   2.352
59176W        W24656  36.950   8.297  10.923
59177W        W24657   1.971  22.158  12.504
59178W        W24658  44.437   6.313   5.224
59179W        W24659  20.667  11.286  11.055
59180W        W24660  16.192  44.500   4.142
59181W        W24661  37.858   3.236   0.298
59182W        W24662  43.276  23.085  11.466
59183W        W24663  18.085  33.125  11.485
59184W        W24664  34.396  12.251   4.640
59185W        W24665  25.020  16.626   3.796
59186W        W24666  36.473  39.556   3.859
59187W        W24667  27.689  11.361   3.186
59188W        W24668  19.643  14.762  13.499
59189W        W24669  15.804  14.742  13.354
59190W        W24670   0.366  40.326   4.676
59191W        W24671  39.427   1.783  14.360
59192W        W24672  23.052  22.683   2.416
59193W        W24673  32.397   1.753  12.053
59194W        W24674  31.530  27.485  12.496
59195W        W24675   8.327   8.697   2.680
59196W        W24676  23.620  13.217  10.519
59197W        W24677  34.374   1.434   0.379
59198W        W24678  41.904  30.101   2.248
59199W        W24679  25.658  19.770  12.936
59200W        W24680   0.952  19.229   0.754
59201W        W24681  19.123   2.231   3.789
59202W        W24682  42.486   5.267   1.255
59203W        W24683   6.200   4.817  10.073
59204W        W24684   6.890  16.773  10.430
59205W        W24685  37.023  36.007   2.339
59206W        W24686   0.359  35.567   3.679
59207W        W24687  16.687  28.968   3.181
59208W        W24688   5.766  19.757  12.826
59209W        W24689  17.128  17.223   5.143
59210W        W24690  22.075   3.849   1.917
59211W        W24691  22.529  11.798   2.245
59212W        W24692  11.750  13.336   0.765
59213W        W24693  37.889  13.183   2.892
59214W        W24694   3.371  20.073  13.881
59215W        W24695  20.249  34.907   2.868
59216W        W24696  35.993  24.604   4.745
59217W        W24697   4.284  23.166   1.856
59218W        W24698  21.048  37.907  12.351
59219W        W24699   2.767   1.854   0.289
59220W        W24700  12.626   8.791  11.597
59221W        W24701  35.449  26.578  13.386
59222W        W24702  21.512   8.287   2.367
59223W        W24703   5.693  28.020   1.762
59224W        W24704  36.049  39.557  12.832
59225W        W24705  27.647  39.863  14.966
59226W        W24706  34.060  27.643  10.435
59227W        W24707   0.773  13.767   0.409
59228W        W24708  33.545  18.082  13.486
59229W        W24709  19.625   0.285  13.956
59230W        W24710  26.542  28.599   4.269
59231W        W24711  15.175   3.845   0.364
59232W        W24712  17.557  18.779   3.837
59233W        W24713  34.471   5.245   1.732
59234W        W24714  26.106  33.022  11.895
59235W        W24715  16.610  37.857   2.210
59236W        W24716  35.947  26.502  11.873
59237W        W24717  13.307  18.691  12.933
59238W        W24718   2.455  31.490   2.208
59239W        W24719   4.884  21.039   4.199
59240W        W24720  34.438  19.286   2.398
59241W        W24721  26.578   3.285  12.882
59242W        W24722  13.208  21.091   4.139
59243W        W24723  14.623  43.824   5.209
59244W        W24724  26.552  37.513  14.392
59245W        W24725  22.115  40.321   1.406
59246W        W24726  27.629   1.342   4.284
59247W        W24727   5.257  18.628  11.981
59248W        W24728  29.082  19.574  14.405
59249W        W24729  43.422   2.750   0.375
59250W        W24730  30.607  26.603   3.233
59251W        W24731  35.092  21.220  10.965
59252W        W24732  28.448  24.139   2.812
59253W        W24733  24.062   6.872   2.362
59254W        W24734   8.354  35.967  11.506
59255W        W24735  26.061  43.789   4.119
59256W        W24736  12.854  10.646  12.535
59257W        W24737  17.111   9.702   0.756
59258W        W24738  23.597  18.573   2.720
59259W        W24739  32.049  14.109   0.466
59260W        W24740  15.208  39.970  13.509
59261W        W24741  28.511  20.655   3.354
59262W        W24742   8.350  39.479   0.271
59263W        W24743  23.556  33.077  13.491
59264W        W24744  44.976  23.671   0.418
59265W        W24745   0.271   7.295  12.907
59266W        W24746   0.406  37.415  13.833
59267W        W24747   6.363  29.972   1.839
59268W        W24748  37.518  39.843   1.387
59269W        W24749  11.254  18.665   1.256
59270W        W24750  22.228  10.750   5.310
59271W        W24751  17.073  12.315  12.012
59272W        W24752  34.940  26.115   4.681
59273W        W24753  12.134   5.202   1.859
59274W        W24754  42.871  37.573   4.137
59275W        W24755   6.892  25.107   3.866
59276W        W24756  26.074  15.315  13.358
59277W        W24757  27.448  17.287  10.412
59278W        W24758  27.026  24.510  14.464
59279W        W24759  40.380   3.867   1.780
59280W        W24760  11.659   4.931  11.089
59281W        W24761   0.808  10.789  11.565
59282W        W24762  29.089  14.712   2.393
59283W        W24763  11.265  15.104   0.323
59284W        W24764  34.577  10.640  14.998
59285W        W24765  35.395  19.159  14.313
59286W        W24766  21.033  32.459  13.512
59287W        W24767  10.709  38.498   4.308
59288W        W24768  21.056   8.185   1.290
59289W        W24769   5.754  43.418   0.801
59290W        W24770   0.403   4.761   2.722
59291W        W24771   1.448  17.647  13.964
59292W        W24772  35.409  43.764   4.773
59293W        W24773  13.623  15.248   2.402
59294W        W24774  23.635  33.065   3.819
59295W        W24775  19.278  11.644  12.917
59296W        W24776  34.886  12.635   0.751
59297W        W24777  37.060  25.134  14.990
59298W        W24778  20.133  32.006   0.812
59299W        W24779   4.760  19.625   2.795
59300W        W24780  22.552   8.369  12.349
59301W        W24781  22.591  20.065   4.283
59302W        W24782  23.630  22.170   1.450
59303W        W24783  13.122  38.948   3.842
59304W        W24784  26.504  32.903   4.351
59305W        W24785  20.131   7.815   3.180
59306W        W24786  16.660  28.648   4.817
59307W        W24787   1.363  44.950  14.397
59308W        W24788  19.538  24.559   2.253
59309W        W24789  11.751  44.862   1.264
59310W        W24790  17.781  22.571  10.557
59311W        W24791  24.537  16.571   2.878
59312W        W24792  27.450  40.338   4.152
59313W        W24793  26.676  41.864   0.832
59314W        W24794  13.765  28.957   0.734
59315W        W24795   3.769  15.726  10.090
59316W        W24796   8.329  39.337   1.892
59317W        W24797   8.735  38.941   4.701
59318W        W24798  32.109  34.387  12.824
59319W        W24799  14.298  23.603  10.928
59320W        W24800  31.484  39.966  12.934
59321W        W24801   0.921  21.230   3.854
59322W        W24802   7.306  32.078   3.333
59323W        W24803   2.291  34.592   2.264
59324W        W24804  35.377  26.170  10.607
59325W        W24805  43.301  24.507   4.631
59326W        W24806  43.909  32.107   1.280
59327W        W24807   5.243  12.668  14.857
59328W        W24808  38.974  30.063   3.744
59329W        W24809   0.257   0.317  11.001
59330W        W24810   9.690  44.501   1.367
59331W        W24811  42.448  39.947  10.991
59332W        W24812  25.964  22.165   4.312
59333W        W24813  11.353   7.354  12.386
59334W        W24814  30.116  13.665   0.408
59335W        W24815  11.631  24.645   2.229
59336W        W24816  35.003  22.673  13.388
59337W        W24817  38.487   3.876  11.609
59338W        W24818  24.105  16.795   2.705
59339W        W24819  17.736  16.224  12.963
59340W        W24820   5.842  20.135   3.361
59341W        W24821  31.066  23.180   0.325
59342W        W24822  10.256   2.844  12.927
59343W        W24823   3.283  21.081   4.151
59344W        W24824  15.237  30.128   4.820
59345W        W24825   3.837  19.554  14.877
59346W        W24826  24.181  18.705  11.043
59347W        W24827  27.543   9.787  14.797
59348W        W24828  14.203  28.136  13.985
59349W        W24829  18.633  38.831  12.018
59350W        W24830  28.953   9.869  11.511
59351W        W24831  44.371  32.964  13.531
59352W        W24832   8.700  37.484  13.310
59353W        W24833  30.584  10.233   4.189
59354W        W24834  20.215   5.838  11.111
59355W        W24835  31.010  40.884   4.338
59356W        W24836   8.388  14.249   1.748
59357W        W24837   0.924  29.975   2.810
59358W        W24838   9.852   5.207  13.433
59359W        W24839  14.226  15.617   0.343
59360W        W24840  17.080   6.258  12.464
59361W        W24841  31.405  19.076  12.849
59362W        W24842   5.364   5.220   2.778
59363W        W24843  40.541  23.658  14.401
59364W        W24844  38.928  19.126  13.488
59365W        W24845   9.815   4.699  12.529
59366W        W24846   2.283  32.627  10.912
59367W        W24847   1.278  18.546  13.857
59368W        W24848  14.285  20.606  12.541
59369W        W24849  23.228  24.546   0.405
59370W        W24850   6.370   6.226   3.647
59371W        W24851  34.388  40.818   2.887
59372W        W24852  39.047  40.526  12.835
59373W        W24853  18.128  39.811  12.016
59374W        W24854  34.864   9.329  13.512
59375W        W24855  16.594  42.823   5.251
59376W        W24856  44.937  28.085  12.053
59377W        W24857  37.378  37.342  12.866
59378W        W24858  26.571   1.930   0.938
59379W        W24859  43.493  18.119   4.217
59380W        W24860   4.810   6.747  12.919
59381W        W24861  27.006  29.483  13.527
59382W        W24862   0.759  23.008   2.196
59383W        W24863  10.320  35.597  11.452
59384W        W24864   4.907  19.760   3.662
59385W        W24865  31.910  21.098  10.143
59386W        W24866   7.796  38.883  12.073
59387W        W24867  38.429  21.259   0.465
59388W        W24868  26.482  19.751   4.760
59389W        W24869   4.413  34.589  14.010
59390W        W24870  42.526  39.873   0.434
59391W        W24871  23.156   8.873   0.390
59392W        W24872   3.896  35.873   1.770
59393W        W24873  28.130  35.494   0.366
59394W        W24874  35.468  36.384   1.393
59395W        W24875  28.632  43.314   1.407
59396W        W24876  36.509  43.943  10.561
59397W        W24877  41.827  38.838  11.448
59398W        W24878  31.133  37.077  10.950
59399W        W24879   2.459  30.458  14.305
59400W        W24880  27.599  33.494   3.214
59401W        W24881  17.573   7.876   4.329
59402W        W24882  25.967   8.393   0.293
59403W        W24883  31.452   4.797  11.950
59404W        W24884  12.156   8.325  13.834
59405W        W24885  11.206  23.084   3.242
59406W        W24886  18.171   8.343   3.811
59407W        W24887  43.326  38.551  13.337
59408W        W24888  38.944   5.787  11.459
59409W        W24889  20.658  27.494   0.960
59410W        W24890  44.385   3.769   4.820
59411W        W24891  24.987  22.061  14.804
59412W        W24892  40.469  37.983  10.409
59413W        W24893  34.548  38.061   2.763
59414W        W24894  41.299   3.393  11.892
59415W        W24895  42.471  10.782  11.534
59416W        W24896  19.596  21.263   1.812
59417W        W24897  32.451  10.174   3.283
59418W        W24898  43.510  38.058  13.332
59419W        W24899   7.218   5.214  11.405
59420W        W24900  35.408   7.352  10.405
59421W        W24901  42.931  33.395   4.341
59422W        W24902  24.100  10.741   2.208
59423W        W24903  19.678  21.752   4.228
59424W        W24904  18.196  23.627  10.960
59425W        W24905  30.559  41.913  12.374
59426W        W24906  32.453  37.544   0.746
59427W        W24907  32.116  39.838   1.447
59428W        W24908  15.800  39.366  11.071
59429W        W24909  32.409  38.071  12.936
59430W        W24910  10.760  43.317   2.305
59431W        W24911  42.282   2.387  11.903
59432W        W24912  37.986  18.699   3.718
59433W        W24913  22.688  32.437   4.119
59434W        W24914   7.386  18.135  11.992
59435W        W24915   2.276  25.499   0.929
59436W        W24916   1.857  37.069  14.956
59437W        W24917  44.426   9.884   3.796
59438W        W24918  31.411  34.117   1.392
59439W        W24919  21.201  23.147  12.568
59440W        W24920  29.475  17.642  10.584
59441W        W24921  42.800  31.142  13.817
59442W        W24922   5.311  30.582   0.727
59443W        W24923  22.008  12.706   3.813
59444W        W24924   1.255  28.561   0.281
59445W        W24925  19.740  27.007   2.853
59446W        W24926   3.445   7.763   3.187
59447W        W24927   1.431  34.602  12.437
59448W        W24928  27.014  41.336   2.777
59449W        W24929  37.541  44.768  13.814
59450W        W24930  44.483  37.835  12.883
59451W        W24931   4.877  21.519  13.450
59452W        W24932  37.076  19.760  14.923
59453W        W24933   6.330  42.296  14.415
59454W        W24934   2.799  36.066  12.051
59455W        W24935  17.745  20.222  13.537
59456W        W24936  32.497  25.703  11.030
59457W        W24937   1.458   0.980  10.469
59458W        W24938  26.697  42.385   0.441
59459W        W24939  42.983  15.154  11.477
59460W        W24940  37.998  43.850  12.963
59461W        W24941  37.081  19.657  14.476
59462W        W24942  18.708  13.649   1.834
59463W        W24943  23.152  41.373   3.865
59464W        W24944  20.652   2.417  12.550
59465W        W24945  35.080  18.768   5.235
59466W        W24946  28.564  44.313  10.479
59467W        W24947  41.520  33.423   0.767
59468W        W24948  31.418  34.446   0.410
59469W        W24949   0.309  43.992  11.569
59470W        W24950  43.394  38.565   2.706
59471W        W24951   0.423  28.616   1.706
59472W        W24952  18.099  18.759   2.822
59473W        W24953  24.659  12.616   0.332
59474W        W24954   8.350  10.821  11.608
59475W        W24955   5.344   0.407  12.863
59476W        W24956  13.736  35.399  14.863
59477W        W24957  40.474  17.565   0.299
59478W        W24958  33.046  41.463   4.684
59479W        W24959  39.328  26.670   0.863
59480W        W24960  43.456  30.587   1.438
59481W        W24961  25.975  42.411  13.829
59482W        W24962   7.365  12.640   0.962
59483W        W24963  42.413   4.762  11.573
59484W        W24964  44.333  44.393   5.269
59485W        W24965  20.271   5.218   2.223
59486W        W24966   0.310  10.324  13.335
59487W        W24967  41.891  25.487   0.729
59488W        W24968  36.543   1.954  13.393
59489W        W24969  37.444   7.252   2.694
59490W        W24970  18.573   3.785   4.237
59491W        W24971  27.179  41.994  12.985
59492W        W24972   4.397  24.089  12.446
59493W        W24973  11.308  33.086   3.651
59494W        W24974  30.598  31.511  13.856
59495W        W24975  44.768  34.412  12.029
59496W        W24976   0.849  30.425   4.202
59497W        W24977   4.794  36.509   0.423
59498W        W24978  11.719  15.086   1.826
59499W        W24979  20.155  22.609   0.271
59500W        W24980  18.115  19.260   2.902
59501W        W24981  32.058  27.090  11.461
59502W        W24982   5.362   9.387  13.848
59503W        W24983   8.259  11.228   1.747
59504W        W24984  15.329  23.229   3.737
59505W        W24985  11.725  12.794  10.040
59506W        W24986  31.136  32.994   0.299
59507W        W24987   0.254   6.782  14.024
59508W        W24988  13.809  41.928  14.966
59509W        W24989   8.252  18.765  13.392
59510W        W24990  38.474  23.160   4.617
59511W        W24991  32.070   7.756   0.369
59512W        W24992  28.961  11.791  10.411
59513W        W24993  21.077  22.607  14.986
59514W        W24994   9.339   6.359   1.358
59515W        W24995  28.607   4.781   1.237
59516W        W24996  32.078  35.462  13.364
59517W        W24997  27.004  24.020   4.145
59518W        W24998  33.073  21.126  14.426
59519W        W24999  21.181  37.361  12.485
59520W        W25000   3.251   1.809  14.431
59521W        W25001   5.844  30.947   3.166
59522W        W25002  31.632  25.648   3.198
59523W        W25003   1.897  30.510  14.808
59524W        W25004  14.254  43.838   5.577
59525W        W25005  23.050  29.044  12.929
59526W        W25006   2.374   4.782   0.361
59527W        W25007  35.887   8.263  14.882
59528W        W25008  38.829  27.629   3.680
59529W        W25009  24.655  40.352  12.437
59530W        W25010  36.067  12.674   4.720
59531W        W25011  23.096  36.078  14.460
59532W        W25012   0.436  39.403  13.847
59533W        W25013  27.115  22.582  12.396
59534W        W25014  38.549  23.047  14.000
59535W        W25015  36.876  14.256   2.785
59536W        W25016  15.288  16.582   5.687
59537W        W25017  42.426  24.672  14.866
59538W        W25018  29.535   5.873   1.243
59539W        W25019  25.020  18.287  12.473
59540W        W25020  38.909  23.154   4.202
59541W        W25021  21.624  32.447  11.959
59542W        W25022  12.322  33.522  11.102
59543W        W25023   8.829  14.650  13.817
59544W        W25024  37.875  10.242   0.802
59545W        W25025  24.515  34.416  10.528
59546W        W25026  39.947  33.385   3.185
59547W        W25027  16.737  41.497  10.624
59548W        W25028  11.233  43.911  11.454
59549W        W25029  30.078   0.253  12.991
59550W        W25030  28.588  24.061  10.638
59551W        W25031  13.610  39.864  11.951
59552W        W25032  38.932  25.097  12.485
59553W        W25033  12.330  13.784  13.937
59554W        W25034  32.959  24.073   1.213
59555W        W25035   3.709  40.933  14.427
59556W        W25036  39.050   5.889   1.253
59557W        W25037  41.441  40.935  10.515
59558W        W25038  32.140  43.921  11.089
59559W        W25039  32.409  34.929   2.289
59560W        W25040  40.822  21.616   5.178
59561W        W25041  21.753   6.364  14.385
59562W        W25042  30.456  43.909   4.236
59563W        W25043  31.114  29.559  13.006
59564W        W25044  24.200  28.059   0.808
59565W        W25045  33.515  24.138  12.843
59566W        W25046  13.682  36.569  14.802
59567W        W25047  36.072  26.113   2.340
59568W        W25048  20.657   5.250   2.322
59569W        W25049   1.791  14.685  13.536
59570W        W25050  24.159  40.854   2.882
59571W        W25051  22.657  10.823   9.974
59572W        W25052  32.428  26.970   2.320
59573W        W25053  23.652  28.599   0.362
59574W        W25054  42.428  15.158   3.658
59575W        W25055  27.574  12.140  13.824
59576W        W25056  34.530  17.608  11.515
59577W        W25057   7.848  36.590   0.422
59578W        W25058   6.276  16.146   0.430
59579W        W25059  32.405  28.056  14.348
59580W        W25060  14.283  12.341  14.407
59581W        W25061  38.395  13.742  14.379
59582W        W25062  12.803  40.032  14.933
59583W        W25063  15.181  26.652   3.219
59584W        W25064  36.987  29.160   4.125
59585W        W25065   3.281  43.007   4.181
59586W        W25066  20.239   0.447   1.377
59587W        W25067  20.065  34.993   0.435
59588W        W25068   6.221  24.201  12.076
59589W        W25069  10.853  25.534  11.422
59590W        W25070  36.923  24.639  13.959
59591W        W25071  37.895  43.001   1.905
59592W        W25072  44.929   2.858  12.553
59593W        W25073   7.259  13.622   2.829
59594W        W25074  27.097  32.893   0.935
59595W        W25075   4.336  36.976  10.545
59596W        W25076  35.859  26.204  12.862
59597W        W25077  27.196  14.774   1.779
59598W        W25078  26.126   9.154  11.462
59599W        W25079  32.122  19.665  13.519
59600W        W25080   9.645  33.922  10.945
59601W        W25081  16.695   6.692  14.471
59602W        W25082  11.767  14.616  13.422
59603W        W25083  33.475  25.964   1.768
59604W        W25084  20.228  18.122  13.814
59605W        W25085  25.576  43.307   4.266
59606W        W25086  19.150   3.361  12.015
59607W        W25087   7.685  23.633   2.876
59608W        W25088  35.465  31.418   0.328
59609W        W25089  27.531  33.391   0.852
59610W        W25090   7.669  37.417   4.787
59611W        W25091  22.037  19.679  12.934
59612W        W25092  42.511  25.052  11.474
59613W        W25093  18.056  19.629  11.946
59614W        W25094   3.760   2.267   0.473
59615W        W25095  17.754  26.987   2.361
59616W        W25096  33.896  44.994  14.946
59617W        W25097  23.240   0.841   3.307
59618W        W25098  12.670   9.869   0.867
59619W        W25099  43.782  30.015   1.418
59620W        W25100  17.727  24.033   1.917
59621W        W25101  33.122  11.210   4.301
59622W        W25102  30.066  16.637   0.246
59623W        W25103  34.866  30.450  14.030
59624W        W25104  16.721  21.568  12.454
59625W        W25105  21.658   2.816   1.881
59626W        W25106  38.499  14.628  13.022
59627W        W25107  14.734  24.657  13.859
59628W        W25108   3.249  43.460  11.009
59629W        W25109   7.257  27.185   2.762
59630W        W25110  22.721   7.221  12.866
59631W        W25111  39.860  13.613  11.519
59632W        W25112   5.375  34.879   3.745
59633W        W25113  13.208  13.351  12.512
59634W        W25114  40.967  38.941  11.992
59635W        W25115  10.756  15.803  13.308
59636W        W25116   2.765  27.198  12.087
59637W        W25117  40.843   4.331   4.223
59638W        W25118  35.857   0.393   1.414
59639W        W25119  17.580   3.790   0.734
59640W        W25120   2.900  22.731  13.522
59641W        W25121  38.009  18.689  14.427
59642W        W25122  30.092  40.307   0.752
59643W        W25123  37.373   8.263   2.787
59644W        W25124  40.440  39.384   2.896
59645W        W25125  38.828  24.199  13.471
59646W        W25126  12.361   0.310   1.738
59647W        W25127  19.660  36.963   3.658
59648W        W25128  40.863  16.295   3.742
59649W        W25129  12.797  43.973   3.697
59650W        W25130   9.255  11.635   3.278
59651W        W25131  33.073  10.694   3.675
59652W        W25132   9.219  28.524   2.341
59653W        W25133  26.528  43.908  11.118
59654W        W25134  16.184  20.176  13.320
59655W        W25135   1.932   6.700  14.328
59656W        W25136  28.516  23.110   4.838
59657W        W25137  33.006  39.489  10.903
59658W        W25138  30.115  17.237   0.436
59659W        W25139  42.783   3.226  11.908
59660W        W25140   3.792  39.040   0.391
59661W        W25141   4.817  16.162  12.843
59662W        W25142  37.867  38.423   0.476
59663W        W25143   5.900   6.301   4.772
59664W        W25144  18.051  26.030  11.932
59665W        W25145  11.685  21.043   9.957
59666W        W25146   8.874  11.311   2.270
59667W        W25147  43.479   2.934  12.393
59668W        W25148   0.420  28.623  14.491
59669W        W25149  29.114  17.783   4.269
59670W        W25150  30.532  32.080  13.970
59671W        W25151   3.304   8.274  10.538
59672W        W25152  22.711   4.808  13.959
59673W        W25153  22.027   0.787  13.393
59674W        W25154  25.697  44.337   9.674
59675W        W25155  31.975   3.905   1.298
59676W        W25156  40.367  29.453  11.565
59677W        W25157  44.772  14.747   2.864
59678W        W25158   1.750  17.636  12.957
59679W        W25159  23.709  36.372   1.882
59680W        W25160  19.629  19.283   0.438
59681W        W25161  29.140   1.391   1.393
59682W        W25162   5.810  36.401  13.540
59683W        W25163  19.724  41.354   0.743
59684W        W25164  43.858  19.154  12.084
59685W        W25165  39.976  24.205  11.420
59686W        W25166  24.049  42.416   0.362
59687W        W25167   1.368  20.693   3.669
59688W        W25168   1.263  16.121  12.001
59689W        W25169   8.874  31.477   0.783
59690W        W25170  41.835   5.370  10.554
59691W        W25171  12.180   2.775  14.847
59692W        W25172  17.649  18.274  12.349
59693W        W25173  33.381  32.548  12.368
59694W        W25174   2.400   0.899  13.465
59695W        W25175  22.526   7.295  12.572
59696W        W25176   2.832  30.493   2.391
59697W        W25177   0.293   3.868   4.227
59698W        W25178  31.552  42.382  13.791
59699W        W25179   0.779   4.378  11.575
59700W        W25180  43.838  21.511  13.810
59701W        W25181   9.692  44.413   2.858
59702W        W25182  32.909  14.188  12.445
59703W        W25183   6.292  27.679   1.247
59704W        W25184  24.574   4.841  12.345
59705W        W25185  34.037  39.824   3.863
59706W        W25186  28.953  42.485   3.244
59707W        W25187  34.540  35.107   3.347
59708W        W25188   3.347  26.472  13.497
59709W        W25189   8.270  14.605  11.456
59710W        W25190  31.508  44.478   4.713
59711W        W25191  24.613  10.368  12.360
59712W        W25192   3.269  32.627  14.276
59713W        W25193  35.106  39.539  12.340
59714W        W25194  19.549  13.697   4.145
59715W        W25195   7.402  33.926  11.889
59716W        W25196  16.629  26.517   1.781
59717W        W25197  42.305  43.484  12.375
59718W        W25198  18.720  12.168   1.812
59719W        W25199   7.868  39.869   4.181
59720W        W25200  32.028  18.732   3.215
59721W        W25201  10.755  29.933  11.588
59722W        W25202  10.718   7.895  13.428
59723W        W25203   9.268  28.068   2.406
59724W        W25204  37.367  35.031   0.796
59725W        W25205  10.732  22.506  12.577
59726W        W25206  30.559   4.361   0.337
59727W        W25207  32.637  15.207   1.378
59728W        W25208   2.728  34.987  10.506
59729W        W25209  39.452  27.449   0.956
59730W        W25210   0.319  20.687  13.881
59731W        W25211  37.940  11.709  14.805
59732W        W25212  13.112  35.363   4.667
59733W        W25213  42.822  35.084  12.480
59734W        W25214  17.684  31.031   0.398
59735W        W25215  27.503  40.467   1.224
59736W        W25216  12.838   6.813  14.489
59737W        W25217  28.521  42.941  11.385
59738W        W25218  32.620  19.598   1.265
59739W        W25219  21.082  20.182  11.091
59740W        W25220  42.828   6.242   5.176
59741W        W25221  41.443   0.289   3.790
59742W        W25222  24.032  37.846   0.340
59743W        W25223  44.912  21.575  11.484
59744W        W25224  39.396  39.332  12.437
59745W        W25225  32.043  17.661  11.120
59746W        W25226  12.258  21.240   1.701
59747W        W25227  26.542  16.138   2.215
59748W        W25228  26.688  15.147   1.775
59749W        W25229  42.329  23.630   1.442
59750W        W25230  25.492  29.601  12.553
59751W        W25231  44.834  30.532  13.494
59752W        W25232  34.465   6.214   3.864
59753W        W25233  33.009  34.568  11.400
59754W        W25234  33.970  40.893   1.338
59755W        W25235  14.323  22.154  14.779
59756W        W25236  15.131   5.839  12.947
59757W        W25237  40.019  16.317  12.036
59758W        W25238   7.229   0.946  13.329
59759W        W25239  25.685  37.922   3.213
59760W        W25240  42.863  37.930   4.254
59761W        W25241  18.052  40.893   4.153
59762W        W25242  29.041  33.079  11.598
59763W        W25243   4.727  31.430  14.822
59764W        W25244  15.327   1.733   3.789
59765W        W25245  29.971  42.810   2.380
59766W        W25246  18.554  39.814  12.372
59767W        W25247  38.328  40.862   0.439
59768W        W25248   5.345  26.171   4.222
59769W        W25249   0.407  35.548  12.045
59770W        W25250  43.415   3.927  10.445
59771W        W25251  40.376  32.435  11.907
59772W        W25252  39.811   0.938   2.752
59773W        W25253  14.161  32.420   1.346
59774W        W25254   9.808   5.306  14.418
59775W        W25255  15.265  20.766  14.322
59776W        W25256  41.948  21.073  14.902
59777W        W25257  25.620  20.047   2.716
59778W        W25258   9.265  34.592   3.770
59779W        W25259   9.390  21.076   3.244
59780W        W25260  38.389  10.247  12.403
59781W        W25261  44.454  35.051  13.800
59782W        W25262  38.074  31.631  12.842
59783W        W25263  25.995  11.327   2.369
59784W        W25264  40.327  40.933  11.539
59785W        W25265  26.697  43.986  12.074
59786W        W25266  34.400  11.779  13.417
59787W        W25267  19.618  17.196   3.669
59788W        W25268  11.775  31.099   1.451
59789W        W25269  16.289  15.699  11.871
59790W        W25270  36.537  28.111   1.710
59791W        W25271  10.232  26.165  10.613
59792W        W25272  41.365  26.001  12.036
59793W        W25273  42.329   3.894  10.456
59794W        W25274  26.026  13.663  14.961
59795W        W25275  28.453  21.556   4.786
59796W        W25276  13.217  23.166   3.763
59797W        W25277   5.800  29.445  14.508
59798W        W25278  42.006  23.532   5.303
59799W        W25279   6.748  28.484  14.852
59800W        W25280  18.137  12.811  14.868
59801W        W25281  43.927  21.732   3.843
59802W        W25282  25.667  15.810  13.828
59803W        W25283   9.794  22.128   1.818
59804W        W25284  10.879  14.704  14.339
59805W        W25285   3.236  30.546  13.348
59806W        W25286  26.041  20.196   2.393
59807W        W25287  13.611   8.345  13.850
59808W        W25288   5.292  12.298  13.869
59809W        W25289  44.985  42.980   2.402
59810W        W25290   4.763  29.633   3.347
59811W        W25291  44.774   8.746  14.006
59812W        W25292  26.536  30.655  11.524
59813W        W25293  35.523  30.436  14.398
59814W        W25294   5.914  44.987   0.797
59815W        W25295  25.474  20.089   3.221
59816W        W25296  42.912  18.059  11.579
59817W        W25297  34.419  41.502  12.410
59818W        W25298  43.991   6.414  13.859
59819W        W25299  32.001  36.865   3.863
59820W        W25300  15.094  44.921   0.424
59821W        W25301   1.290  32.519   2.854
59822W        W25302  23.574  34.550   1.419
59823W        W25303   4.416  36.927   3.797
59824W        W25304  41.810  27.180   4.142
59825W        W25305  18.115  17.788  13.025
59826W        W25306  34.984  20.112  13.836
59827W        W25307   0.790  28.453  10.966
59828W        W25308  44.896  31.517  13.970
59829W        W25309  19.611   3.346  10.542
59830W        W25310   8.372  17.753   3.285
59831W        W25311   1.415  30.014  11.071
59832W        W25312   7.848  27.535  10.475
59833W        W25313  32.505  44.959  13.473
59834W        W25314  25.487  22.706  13.463
59835W        W25315  33.987  29.603   0.437
59836W        W25316  34.084   7.860   1.318
59837W        W25317  23.605   4.231  13.342
59838W        W25318  13.757  34.106   2.689
59839W        W25319  20.146  20.196   1.773
59840W        W25320  40.903   6.400   1.281
59841W        W25321  32.108  19.665   3.269
59842W        W25322  22.676  15.709   5.170
59843W        W25323  24.511  37.936   2.354
59844W        W25324   8.176  18.696   0.784
59845W        W25325  34.866  30.992   1.271
59846W        W25326  37.006  14.302  12.360
59847W        W25327   2.363  28.495  11.980
59848W        W25328  36.474  11.827  13.439
59849W        W25329  12.354  18.686   3.747
59850W        W25330  30.609  38.440   9.580
59851W        W25331  11.759  25.685   0.903
59852W        W25332  34.076   3.249   1.895
59853W        W25333  27.106   4.786   0.844
59854W        W25334  25.988  10.162   0.442
59855W        W25335   8.655  32.895  14.017
59856W        W25336  22.158  35.042   3.738
59857W        W25337  30.998  10.291  10.056
59858W        W25338  40.440  42.443   4.634
59859W        W25339  30.597  32.119  10.892
59860W        W25340   5.330   0.846   1.286
59861W        W25341  30.614  37.862  12.349
59862W        W25342  23.149   8.175  14.792
59863W        W25343   4.894  36.358  14.880
59864W        W25344  23.578   2.902  11.455
59865W        W25345  21.589   5.689  12.492
59866W        W25346  28.014  20.053  10.008
59867W        W25347   4.204  39.024  10.471
59868W        W25348  24.201  19.607   1.280
59869W        W25349   2.787  19.659  11.858
59870W        W25350  43.767  15.701  10.911
59871W        W25351  22.542  42.442  11.062
59872W        W25352  39.387  21.548   3.185
59873W        W25353  25.129  13.240  12.881
59874W        W25354  18.180  41.354   2.288
59875W        W25355  44.945   0.943   3.287
59876W        W25356  34.369  24.177  11.595
59877W        W25357  20.238   8.793  11.515
59878W        W25358  41.821  17.716   1.814
59879W        W25359  12.646  39.375   0.947
59880W        W25360   5.839   0.377   3.826
59881W        W25361  20.536  27.532  10.963
59882W        W25362  20.559  38.070   4.233
59883W        W25363   3.946  42.032   3.195
59884W        W25364  37.459  34.933   4.621
59885W        W25365  35.569  43.854  11.082
59886W        W25366   6.760   5.434  14.345
59887W        W25367   0.793  41.976  10.421
59888W        W25368   0.437   5.252   4.291
59889W        W25369  39.495  37.979  13.049
59890W        W25370  15.314  42.005   9.523
59891W        W25371  12.814  20.539   0.934
59892W        W25372  34.910   2.425   1.269
59893W        W25373  36.530  44.361   0.833
59894W        W25374  29.542  28.444   3.223
59895W        W25375   7.731  16.707  12.355
59896W        W25376  17.588  22.111   2.741
59897W        W25377  35.534  18.109  11.484
59898W        W25378  36.005  20.043  10.574
59899W        W25379  33.399  37.942   0.963
59900W        W25380  43.385  34.488   4.794
59901W        W25381  24.524  22.085   0.891
59902W        W25382  11.185  24.670   4.662
59903W        W25383  33.408  13.813   2.894
59904W        W25384  21.734  15.272   3.825
59905W        W25385   0.843   7.289   1.902
59906W        W25386  33.445  39.346   2.311
59907W        W25387  42.932  14.324  11.974
59908W        W25388  29.008  33.077   4.346
59909W        W25389  18.093  34.956   2.799
59910W        W25390  27.992  45.000   1.722
59911W        W25391  33.004   7.753  10.517
59912W        W25392  26.651  28.005   0.291
59913W        W25393  42.011  19.766  13.865
59914W        W25394  13.769   0.405   3.235
59915W        W25395  20.227  29.473  10.009
59916W        W25396  41.310  19.662   2.419
59917W        W25397  35.399   4.338   1.273
59918W        W25398  38.861  32.916  11.866
59919W        W25399  11.662  10.774  11.067
59920W        W25400   2.250  37.978   0.851
59921W        W25401  26.463  33.397  12.084
59922W        W25402  41.347  22.107  10.955
59923W        W25403   4.220  25.196  14.402
59924W        W25404  40.019  41.915  12.510
59925W        W25405   0.391   9.347   4.650
59926W        W25406  44.321   8.784   4.145
59927W        W25407  25.710  11.661   0.900
59928W        W25408   4.300   6.743  11.904
59929W        W25409  32.589  39.887  12.470
59930W        W25410  38.983   1.283   1.889
59931W        W25411  12.328  44.816  11.490
59932W        W25412   5.922  33.889  10.415
59933W        W25413  31.067  19.720   3.373
59934W        W25414  44.928  18.053  13.349
59935W        W25415  12.297  22.561   1.287
59936W        W25416  24.184  30.912  11.911
59937W        W25417  27.450   1.404  11.898
59938W        W25418   9.356  19.157   2.881
59939W        W25419  35.557   9.817  13.944
59940W        W25420   7.700  31.420  10.957
59941W        W25421  30.995  26.008  10.901
59942W        W25422  33.503  26.514  10.618
59943W        W25423   7.201  19.673  13.914
59944W        W25424  22.234  11.706   0.342
59945W        W25425  20.612  21.751  12.392
59946W        W25426  35.104  32.974  14.997
59947W        W25427  39.360  25.644   3.859
59948W        W25428  39.421  40.832   3.368
59949W        W25429  12.225   9.152  13.312
59950W        W25430  43.905   9.332   3.380
59951W        W25431   6.348  44.924   0.827
59952W        W25432  26.556   2.745  14.829
59953W        W25433   2.296  17.183  10.974
59954W        W25434  43.302  39.985   2.833
59955W        W25435  35.495  17.169   1.722
59956W        W25436  10.165  37.031   4.751
59957W        W25437   5.243  26.101   3.319
59958W        W25438  31.103   4.752  13.874
59959W        W25439  41.985  25.652  14.477
59960W        W25440  16.179  33.418   1.263
59961W        W25441  12.241  19.755   2.762
59962W        W25442  25.214  19.667  12.005
59963W        W25443  32.974  10.858  10.549
59964W        W25444  30.119  18.204   2.291
59965W        W25445  14.199  11.813   0.296
59966W        W25446  15.579  31.079  11.936
59967W        W25447  29.518  12.674   1.872
59968W        W25448  12.193  39.512  12.383
59969W        W25449   9.747  21.057  13.839
59970W        W25450  12.184  30.485  10.624
59971W        W25451  39.034  29.511  12.022
59972W        W25452  28.087  21.675  14.972
59973W        W25453  18.267   4.219   1.873
59974W        W25454  25.551   5.411   3.310
59975W        W25455  13.649  30.952  11.045
59976W        W25456  42.407   1.246  14.480
59977W        W25457  14.150   3.244  12.094
59978W        W25458  39.487  18.204   4.824
59979W        W25459  12.790  28.021   3.308
59980W        W25460  32.885  21.060   4.281
59981W        W25461  26.002  36.887  14.971
59982W        W25462   3.278   7.686  13.967
59983W        W25463  12.266  14.787   3.328
59984W        W25464   5.252  11.665  13.350
59985W        W25465  29.609   8.853   0.461
59986W        W25466  34.535  10.800  14.487
59987W        W25467  32.607  12.853  11.612
59988W        W25468  32.634  26.199  12.992
59989W        W25469  12.785  38.966  12.012
59990W        W25470  26.011  32.445  12.007
59991W        W25471   9.759  15.702   4.715
59992W        W25472   2.780   3.263  13.861
59993W        W25473  31.135  28.037   0.784
59994W        W25474  31.017  21.566   2.692
59995W        W25475  32.063   9.726  11.878
59996W        W25476   3.398  39.525  11.102
59997W        W25477   4.353  44.906  12.462
59998W        W25478  31.101   7.739  14.505
59999W        W25479  32.561  41.828   4.256
60000W        W25480  19.051  33.582  11.503
60001W        W25481   0.387  23.510  12.423
60002W        W25482  39.866  18.586  14.831
60003W        W25483  22.537   4.421  11.916
60004W        W25484   4.302  22.998  13.395
60005W        W25485   2.795  43.476  12.891
60006W        W25486  39.830  21.554   2.786
60007W        W25487  39.315   3.921  14.789
60008W        W25488  23.192  24.080  14.991
60009W        W25489  12.797  37.843   3.373
60010W        W25490  29.081  34.581  12.851
60011W        W25491  15.774  19.645   2.308
60012W        W25492  33.990   8.269   1.804
60013W        W25493  21.677  42.999   2.211
60014W        W25494  26.087  44.811   4.808
60015W        W25495  22.024  38.847  14.351
60016W        W25496   6.379  11.664  12.943
60017W        W25497  39.491  32.947   3.675
60018W        W25498  23.234  10.856   9.644
60019W        W25499   2.440   4.881   4.752
60020W        W25500  41.015   2.943   1.211
60021W        W25501   8.844   4.785  14.349
60022W        W25502   8.800  42.988   2.733
60023W        W25503   4.440  36.419   1.744
60024W        W25504  38.520  35.441  14.952
60025W        W25505  12.317   5.823   0.766
60026W        W25506  33.416   1.844   3.274
60027W        W25507  32.396  12.678  12.915
60028W        W25508   3.793  13.757   0.314
60029W        W25509  30.421   3.726   0.329
60030W        W25510  38.977  24.221   2.689
60031W        W25511  38.976  38.412   4.801
60032W        W25512   6.426  14.613  14.976
60033W        W25513  38.872  19.678   0.826
60034W        W25514  23.219   7.292  11.509
60035W        W25515  32.406   2.285  11.958
60036W        W25516  14.793  37.567  11.031
60037W        W25517  19.720  28.564   3.351
60038W        W25518  44.775  37.893  11.106
60039W        W25519   3.262   0.398  10.156
60040W        W25520  43.330  36.466  12.458
60041W        W25521  30.981  44.414   4.805
60042W        W25522  36.042  10.706   1.422
60043W        W25523  18.112  14.744  11.880
60044W        W25524   5.226  11.177   3.860
60045W        W25525  18.720  34.008   4.701
60046W        W25526  27.524  26.108  11.041
60047W        W25527  19.713  34.904  13.985
60048W        W25528  36.576  35.099  11.461
60049W        W25529  10.276  42.922   3.863
60050W        W25530   9.779   2.452   3.776
60051W        W25531   8.657  19.643   4.118
60052W        W25532  19.534  33.514   3.210
60053W        W25533   9.680   6.283   0.895
60054W        W25534  26.664  24.643  11.030
60055W        W25535  43.459  31.922  13.430
60056W        W25536  42.423  12.663   1.243
60057W        W25537  33.402  25.615  12.416
60058W        W25538  44.393  42.832   3.216
60059W        W25539   7.266   5.887  14.781
60060W        W25540   2.843  43.439   1.811
60061W        W25541  22.606  23.719  13.465
60062W        W25542  40.036  19.657   2.324
60063W        W25543  12.303  19.049  13.417
60064W        W25544  44.456  18.146  13.988
60065W        W25545  29.014  30.158   4.786
60066W        W25546   7.415   0.378  10.907
60067W        W25547  25.642  35.424   3.747
60068W        W25548  15.238  35.062   2.274
60069W        W25549  28.182  17.302   0.264
60070W        W25550  37.518   5.894  14.377
60071W        W25551   0.417  38.477   1.873
60072W        W25552   3.231  10.826   3.687
60073W        W25553  18.207  29.078  12.956
60074W        W25554  13.606  31.056  12.575
60075W        W25555  40.360  36.590   1.383
60076W        W25556  17.762  42.471   3.281
60077W        W25557   7.675  32.614   4.213
60078W        W25558  34.456  33.547   2.383
60079W        W25559  33.473   1.978  12.041
60080W        W25560  36.848  17.735   2.756
60081W        W25561  29.029  18.101  10.450
60082W        W25562   2.848   6.223   4.717
60083W        W25563  38.907  13.706   2.738
60084W        W25564  27.689   2.928   4.598
60085W        W25565  34.999  15.583  12.063
60086W        W25566  21.595  25.589  14.872
60087W        W25567  15.725  36.585  10.491
60088W        W25568  21.711   5.821  10.042
60089W        W25569   3.805  31.407  10.592
60090W        W25570  15.718   8.284  12.513
60091W        W25571  26.555  16.730   1.254
60092W        W25572  33.991   4.379   4.744
60093W        W25573   6.817  31.420  13.958
60094W        W25574  18.232  24.520  12.450
60095W        W25575  32.570  14.672   4.217
60096W        W25576  40.917  23.725  10.532
60097W        W25577  40.993  40.873  14.911
60098W        W25578  11.278  25.571   1.874
60099W        W25579  41.532  29.557  11.121
60100W        W25580   4.439  39.907  12.505
60101W        W25581  29.476   8.225  10.530
60102W        W25582  36.039  32.473   3.191
60103W        W25583  44.282  43.801   3.361
60104W        W25584  38.031  16.761  13.807
60105W        W25585  34.072  29.006  14.851
60106W        W25586  13.335   3.328  11.885
60107W        W25587  31.067  27.508  12.530
60108W        W25588  27.022  20.714  10.508
60109W        W25589  41.291  26.674  10.931
60110W        W25590  12.138  28.159  14.846
60111W        W25591  28.045  39.516  13.841
60112W        W25592  43.951   7.887   2.328
60113W        W25593   5.345  44.302   0.865
60114W        W25594  21.527  31.559   1.236
60115W        W25595  21.540   7.795   2.378
60116W        W25596  23.028  31.536  14.765
60117W        W25597   9.720   9.334   0.813
60118W        W25598  31.127  19.186   4.806
60119W        W25599   6.378  10.238  11.462
60120W        W25600   1.843   4.371   0.862
60121W        W25601   3.381  17.700  14.853
60122W        W25602  16.294   7.301  11.557
60123W        W25603  30.089  36.891  13.511
60124W        W25604  44.904  12.154  12.978
60125W        W25605  14.636  24.101   1.762
60126W        W25606  12.768   7.223   2.184
60127W        W25607  29.446   6.349   2.394
60128W        W25608  37.346   8.740  14.498
60129W        W25609   8.231   9.375  12.036
60130W        W25610  17.200  38.907   3.384
60131W        W25611  39.983  20.078  14.392
60132W        W25612  20.264   0.362  14.352
60133W        W25613  32.011   8.674  10.451
60134W        W25614  35.533  25.555  11.900
60135W        W25615  10.773  31.458  12.933
60136W        W25616   0.795  17.098  12.350
60137W        W25617  37.486  12.673   0.814
60138W        W25618  38.462  14.639  12.044
60139W        W25619   5.708  27.999   2.705
60140W        W25620  32.071  28.483   1.213
60141W        W25621  10.293   7.216   0.756
60142W        W25622  36.950  27.686   4.657
60143W        W25623   5.349   2.393   0.434
60144W        W25624  44.450  28.022   2.331
60145W        W25625  31.913  34.980  12.091
60146W        W25626  31.593  26.594  14.831
60147W        W25627  22.655  34.606   3.171
60148W        W25628  15.228  17.121   2.310
60149W        W25629  38.009  14.199   0.386
60150W        W25630  27.594  10.322  12.826
60151W        W25631   9.775  39.892   1.316
60152W        W25632   1.956  13.638   4.236
60153W        W25633  37.996   6.232  10.902
60154W        W25634  12.300  29.079   4.183
60155W        W25635  30.580  12.651  11.436
60156W        W25636  40.891   0.794  12.534
60157W        W25637  29.927  15.245  10.485
60158W        W25638  18.119  26.652  14.287
60159W        W25639  35.033  12.143   0.457
60160W        W25640  22.007  31.902  13.998
60161W        W25641  34.068  32.022   1.911
60162W        W25642  26.663  41.975   3.188
60163W        W25643  35.546  35.965  13.882
60164W        W25644   2.385  15.176   2.693
60165W        W25645  27.012  31.550   4.696
60166W        W25646  26.136  13.686  12.091
60167W        W25647  14.763  11.849   3.236
60168W        W25648  41.919  28.457   1.386
60169W        W25649  12.732  39.955  13.353
60170W        W25650   3.902  11.861   4.330
60171W        W25651  38.438   3.419   2.690
60172W        W25652  37.844  37.402  10.146
60173W        W25653   8.771  15.113  12.071
60174W        W25654  17.307   4.759   1.742
60175W        W25655   8.839   8.857  14.953
60176W        W25656  20.187  40.482   1.239
60177W        W25657  40.494  36.355  12.945
60178W        W25658  12.280  28.083  12.946
60179W        W25659  14.760  25.643   4.754
60180W        W25660  12.128   0.485   0.966
60181W        W25661  22.999  19.642   4.296
60182W        W25662  41.899  21.605  14.845
60183W        W25663  27.478  44.328   2.411
60184W        W25664  13.774  14.650   1.323
60185W        W25665  17.588   8.790   4.667
60186W        W25666  27.164  28.104  12.926
60187W        W25667  24.001  41.414   4.824
60188W        W25668  30.465   2.378  11.503
60189W        W25669  21.132  42.512   0.370
60190W        W25670  11.347  43.863  14.765
60191W        W25671  30.436  22.554   2.896
60192W        W25672   9.198  25.557  12.919
60193W        W25673  20.096  37.911   3.840
60194W        W25674  34.601  35.070   1.292
60195W        W25675  33.091  24.047   4.133
60196W        W25676  13.111  41.365   3.765
60197W        W25677  18.089   5.770   4.180
60198W        W25678  23.617  30.125  13.027
60199W        W25679   8.229  14.326  12.012
60200W        W25680  37.501  28.004  11.596
60201W        W25681   3.272  30.471  14.353
60202W        W25682  20.659  20.183   1.430
60203W        W25683   6.325  41.395  13.963
60204W        W25684   0.915   9.332   0.442
60205W        W25685  15.327  18.732   4.666
60206W        W25686   1.927  19.693  10.601
60207W        W25687  29.479  15.583  11.040
60208W        W25688  26.075  29.529  12.400
60209W        W25689  38.847  28.114  12.509
60210W        W25690  39.929  14.644  10.500
60211W        W25691  40.043  24.569  12.871
60212W        W25692   0.273   1.842  10.567
60213W        W25693  22.240  10.821   1.279
60214W        W25694  20.147  20.210   2.331
60215W        W25695   0.266  37.489  12.547
60216W        W25696   8.671  11.230  10.606
60217W        W25697  39.507  42.485  14.488
60218W        W25698  27.478  27.538  10.437
60219W        W25699  24.039  21.732   2.189
60220W        W25700  10.724  42.815   4.182
60221W        W25701  37.508  20.234  14.485
60222W        W25702  35.484  16.802  11.423
60223W        W25703  23.511   4.397   3.185
60224W        W25704   2.349  20.235  12.414
60225W        W25705  36.515  20.171   2.263
60226W        W25706  29.543  16.706  10.635
60227W        W25707   4.336  26.563   3.189
60228W        W25708   6.193  38.006  12.349
60229W        W25709   6.397  20.637  12.492
60230W        W25710   4.786  37.046  13.899
60231W        W25711  24.096   9.174   3.742
60232W        W25712  11.710  28.654  10.498
60233W        W25713  12.168   8.819  10.941
60234W        W25714  19.103  30.062  11.950
60235W        W25715  40.970   0.787  14.971
60236W        W25716  43.340  41.988  12.535
60237W        W25717  15.823  40.990   2.286
60238W        W25718  25.209  38.459   4.811
60239W        W25719   2.724  40.027   2.769
60240W        W25720  42.464   3.898   1.795
60241W        W25721   4.276  20.259   2.393
60242W        W25722  19.725  11.845   0.814
60243W        W25723   6.277  21.554  11.061
60244W        W25724  28.962  30.559  14.278
60245W        W25725  27.539   9.699   3.631
60246W        W25726  19.671  36.930  14.979
60247W        W25727  33.397  25.083   3.334
60248W        W25728  15.288  30.139  11.400
60249W        W25729  38.960  25.484  12.405
60250W        W25730   7.666  12.642  11.407
60251W        W25731  28.466  27.634  14.766
60252W        W25732   4.783  34.538  13.916
60253W        W25733  42.380  39.064  14.827
60254W        W25734   0.812  43.363   2.345
60255W        W25735  27.142  28.572  14.406
60256W        W25736   6.404  16.789   4.636
60257W        W25737  25.550  17.129   0.451
60258W        W25738   5.714  37.496  13.851
60259W        W25739  28.561  23.630  13.464
60260W        W25740  41.354  20.126  11.946
60261W        W25741  34.912  37.046   4.141
60262W        W25742  34.017  27.956  12.051
60263W        W25743  11.320  44.390   3.347
60264W        W25744  38.348  40.841  11.440
60265W        W25745  26.663  31.912   4.291
60266W        W25746   8.892  26.509  11.877
60267W        W25747  10.637  39.486   0.460
60268W        W25748  29.434  13.331   0.343
60269W        W25749  18.262  25.536   2.858
60270W        W25750  17.603  14.181   0.270
60271W        W25751  16.648  41.991   2.780
60272W        W25752   8.397  14.593   0.363
60273W        W25753  23.109  12.762   2.312
60274W        W25754  21.673  28.455   1.928
60275W        W25755  14.281  29.956   0.478
60276W        W25756   3.792  38.411  11.892
60277W        W25757  20.531  38.437  10.923
60278W        W25758  20.129   2.379   0.914
60279W        W25759  42.402  28.942  13.904
60280W        W25760  40.865  32.977   0.742
60281W        W25761   5.762   5.329  13.026
60282W        W25762  25.092   7.183   0.797
60283W        W25763  11.838   1.815   5.173
60284W        W25764  40.904  31.112  11.036
60285W        W25765  27.123   6.912  13.313
60286W        W25766  28.106  26.674   4.323
60287W        W25767  43.833  27.065  11.889
60288W        W25768   2.240  39.960   0.254
60289W        W25769  15.233  23.033   4.261
60290W        W25770  12.251  42.965   2.703
60291W        W25771  17.098  21.034   1.374
60292W        W25772  35.597  40.834  11.498
60293W        W25773  39.951   9.815   3.851
60294W        W25774   4.800  41.411  12.895
60295W        W25775   8.892  11.808   4.645
60296W        W25776  43.851  33.474   1.352
60297W        W25777  14.237  22.025   2.373
60298W        W25778   1.749   1.869   1.819
60299W        W25779  37.341  31.032  10.503
60300W        W25780   5.292  29.036   0.259
60301W        W25781  22.139  25.648  12.879
60302W        W25782  24.674  32.126  10.996
60303W        W25783  32.584  32.588  14.782
60304W        W25784  13.289  43.917   9.984
60305W        W25785  11.663  25.190   1.289
60306W        W25786  44.009  39.465  14.302
60307W        W25787  30.937  40.526   3.703
60308W        W25788  28.475  43.460   3.291
60309W        W25789   9.659  40.396  13.376
60310W        W25790  38.045  18.196   3.352
60311W        W25791  30.440  44.962   0.351
60312W        W25792   1.948  14.179  12.500
60313W        W25793  30.146   6.321  12.881
60314W        W25794   8.757   5.353  10.520
60315W        W25795  39.923  11.193  11.004
60316W        W25796   5.911  20.678   3.804
60317W        W25797  42.374  20.141  13.938
60318W        W25798  11.129  19.711  13.801
60319W        W25799  27.074  19.711   1.288
60320W        W25800  31.506  40.496   2.757
60321W        W25801  35.475   3.944  13.320
60322W        W25802  21.721  35.879   3.775
60323W        W25803  17.085   0.324   0.859
60324W        W25804  29.645  13.223   4.824
60325W        W25805   6.353  16.592  13.964
60326W        W25806  38.063  41.973  12.340
60327W        W25807  41.936  19.088  12.848
60328W        W25808  43.815   5.266   4.210
60329W        W25809  28.032  26.504  10.547
60330W        W25810   6.904  35.439   3.850
60331W        W25811  22.557  25.098  14.931
60332W        W25812  25.098  38.862   4.610
60333W        W25813  34.116  24.504   2.343
60334W        W25814  26.487   8.813  11.059
60335W        W25815  26.542   9.279  11.994
60336W        W25816   4.256   4.849   0.242
60337W        W25817   2.824   7.281   0.892
60338W        W25818   7.339   2.892   2.830
60339W        W25819   9.389  18.640  11.548
60340W        W25820   5.414   5.355   1.879
60341W        W25821  32.478   3.724   2.259
60342W        W25822   8.745  37.920   0.793
60343W        W25823  17.769  39.510  14.996
60344W        W25824   5.240   1.753   2.699
60345W        W25825  27.014   1.829  11.543
60346W        W25826  12.194  15.724  11.860
60347W        W25827   9.196  35.399   2.867
60348W        W25828   1.288  34.985   0.469
60349W        W25829  12.130   8.296   3.188
60350W        W25830   7.320  32.935   1.805
60351W        W25831  21.540  30.622  14.456
60352W        W25832  15.726  19.122  13.928
60353W        W25833   9.356  20.653   3.710
60354W        W25834  23.716  17.759  12.079
60355W        W25835  10.868  29.151   2.254
60356W        W25836  33.483  17.660   2.818
60357W        W25837   7.809  24.132  14.493
60358W        W25838  10.379   2.944   1.705
60359W        W25839  29.961  23.094   3.631
60360W        W25840  38.974  38.013   1.339
60361W        W25841  44.828  35.912   0.946
60362W        W25842  14.668   0.893  13.062
60363W        W25843  43.272  44.396  11.109
60364W        W25844  26.702  30.433  11.932
60365W        W25845   7.287   3.717   1.386
60366W        W25846   5.247  16.696  13.802
60367W        W25847  33.451  24.496  14.286
60368W        W25848  31.084  39.422  11.571
60369W        W25849   5.888  23.052  13.470
60370W        W25850  32.584  14.680  12.866
60371W        W25851  37.448  43.312  10.558
60372W        W25852  23.583  18.623  12.039
60373W        W25853   0.849  37.482   5.106
60374W        W25854  29.114  35.480  11.444
60375W        W25855  44.386  35.508   1.914
60376W        W25856  11.271  17.184  14.383
60377W        W25857  32.558   8.827   5.096
60378W        W25858  15.110  40.372  11.024
60379W        W25859  44.816  31.919  12.872
60380W        W25860  34.412  22.590  14.451
60381W        W25861  24.227  37.375   1.850
60382W        W25862  41.022   6.763  13.036
60383W        W25863  34.418  31.977   0.921
60384W        W25864   2.889  37.491   5.108
60385W        W25865  40.399  13.757  14.919
60386W        W25866  33.576  33.969  12.946
60387W        W25867  36.592  23.076   3.323
60388W        W25868  38.967  34.499  13.402
60389W        W25869   1.310  31.460   2.345
60390W        W25870  40.351  38.395   3.817
60391W        W25871  29.512  12.660  14.971
60392W        W25872  29.434  23.734   0.286
60393W        W25873  22.670  24.637  11.986
60394W        W25874  33.408   0.747   1.789
60395W        W25875  39.934  16.673  13.417
60396W        W25876  31.961   4.386  13.000
60397W        W25877  10.872  20.716  13.808
60398W        W25878  42.390  41.427   3.738
60399W        W25879  11.295  11.301  13.418
60400W        W25880  16.201  24.674   1.324
60401W        W25881  44.800  13.719   4.708
60402W        W25882  31.432  20.203   0.858
60403W        W25883  44.462  17.280  10.986
60404W        W25884  36.453  18.179  14.515
60405W        W25885  23.550  14.335  14.502
60406W        W25886   3.812  13.237  13.312
60407W        W25887   0.805  42.370   4.619
60408W        W25888   2.905   4.732   1.328
60409W        W25889   2.338  29.471   4.796
60410W        W25890  17.073   9.684   0.278
60411W        W25891  16.617  17.754   2.409
60412W        W25892  39.490  39.354   4.217
60413W        W25893   0.470  30.424  12.568
60414W        W25894  34.106   9.845  14.418
60415W        W25895  31.428  43.348  12.945
60416W        W25896  16.784   0.309   4.827
60417W        W25897  36.944  21.514   3.652
60418W        W25898   8.706  10.815   4.801
60419W        W25899   0.847  10.251   9.924
60420W        W25900  13.611  30.972   3.305
60421W        W25901  16.137  28.539  12.491
60422W        W25902  41.863   9.672   3.229
60423W        W25903  24.529   2.256   1.798
60424W        W25904   2.868   6.230  13.946
60425W        W25905  12.217  11.330   2.718
60426W        W25906  42.884  14.145   0.864
60427W        W25907  23.122  34.396  12.993
60428W        W25908  38.991  42.028   4.318
60429W        W25909  38.522  44.392   4.212
60430W        W25910  35.980  15.098  14.934
60431W        W25911  34.596  42.965  12.553
60432W        W25912  13.158  39.483   0.473
60433W        W25913   3.755  39.397   3.851
60434W        W25914  14.823  18.087  10.960
60435W        W25915  27.497  15.251   0.916
60436W        W25916  34.554  31.461  11.400
60437W        W25917  27.640  38.513   3.301
60438W        W25918  32.451  43.810   0.427
60439W        W25919  19.224   1.408  12.405
60440W        W25920  27.033  31.545  10.439
60441W        W25921  17.077  31.009   0.847
60442W        W25922  13.248   8.755  13.360
60443W        W25923  13.801  29.017  11.551
60444W        W25924  39.910  21.155   3.740
60445W        W25925  36.532   2.398   2.207
60446W        W25926  31.072  13.736   3.636
60447W        W25927  41.524  26.683  12.936
60448W        W25928  40.369  11.680  11.581
60449W        W25929  19.120  42.471   3.845
60450W        W25930  26.063  17.146   3.258
60451W        W25931  44.330  37.511   1.263
60452W        W25932  41.410  42.996  11.395
60453W        W25933  28.030  30.940   2.276
60454W        W25934  26.145   0.842  12.378
60455W        W25935  12.760  16.800   0.269
60456W        W25936  24.051  42.787  14.999
60457W        W25937  25.694  15.232   4.203
60458W        W25938   9.783  25.559   0.794
60459W        W25939  31.483  40.946   0.307
60460W        W25940  37.394  34.058  13.386
60461W        W25941  39.911   3.262   4.311
60462W        W25942  14.732   1.944   3.769
60463W        W25943  42.997  31.964   0.794
60464W        W25944  35.096  38.524  13.052
60465W        W25945  39.862  23.220   3.665
60466W        W25946  15.792  11.339  12.864
60467W        W25947  24.116  13.798  13.471
60468W        W25948  25.618  17.629   4.163
60469W        W25949  31.442   4.699   0.250
60470W        W25950  11.754  37.430   2.786
60471W        W25951  29.620  10.875  11.455
60472W        W25952  17.615  32.436   4.144
60473W        W25953  10.660   8.657  11.032
60474W        W25954  27.642  32.939   4.796
60475W        W25955   2.252  30.143   0.380
60476W        W25956  22.157  34.380   2.852
60477W        W25957   2.439  30.572  14.793
60478W        W25958  17.577   7.205   4.658
60479W        W25959  37.844  19.063   0.838
60480W        W25960  32.079  13.625  14.922
60481W        W25961  27.949   7.727   0.309
60482W        W25962   2.284  39.538  13.457
60483W        W25963  14.152   2.958  13.994
60484W        W25964   4.820   1.978   4.291
60485W        W25965   7.829  22.572   3.195
60486W        W25966  24.612  37.891   1.856
60487W        W25967  11.731   4.229  14.476
60488W        W25968  38.921  28.502  13.934
60489W        W25969  12.177  18.569  13.518
60490W        W25970  26.014   9.337  12.506
60491W        W25971  44.370  12.331  13.905
60492W        W25972  11.314  31.553  10.598
60493W        W25973  17.064   1.900  14.990
60494W        W25974  40.408   0.913  14.352
60495W        W25975  13.662  41.449  14.374
60496W        W25976  10.281  23.159   4.746
60497W        W25977  16.285   0.354   4.803
60498W        W25978  36.369  24.522   4.615
60499W        W25979  12.312  12.653   2.809
60500W        W25980  22.704  42.831   1.751
60501W        W25981   2.437  28.031   0.483
60502W        W25982   4.743  40.992  14.003
60503W        W25983  10.856  18.612   3.265
60504W        W25984  39.900  34.886  11.416
60505W        W25985  40.929   4.377  14.293
60506W        W25986  15.620   7.415   0.776
60507W        W25987   4.426  16.615   2.320
60508W        W25988  32.499  26.689   1.230
60509W        W25989  29.534   9.801   1.257
60510W        W25990  35.028  35.587  11.439
60511W        W25991   0.821  40.324  11.930
60512W        W25992   1.340   1.455  14.801
60513W        W25993  33.516  11.672  10.609
60514W        W25994  14.830  22.135  14.888
60515W        W25995  26.653  20.751  12.564
60516W        W25996  14.112  19.642   3.202
60517W        W25997   4.874  41.867   3.737
60518W        W25998  43.473  42.334  13.366
60519W        W25999  17.226   8.829  14.787
60520W        W26000  21.093  26.038  11.514
60521W        W26001   6.719   3.815   3.831
60522W        W26002  12.269  43.373   3.726
60523W        W26003  35.375   2.415  13.488
60524W        W26004  13.208  44.997  14.956
60525W        W26005  37.394  30.596   4.278
60526W        W26006   2.451   1.424  11.957
60527W        W26007  20.746  16.578  11.911
60528W        W26008  14.331  14.291  12.824
60529W        W26009  32.985  24.573   4.639
60530W        W26010  16.803   6.849  12.400
60531W        W26011  34.614  42.013  14.309
60532W        W26012  31.457  14.604  11.425
60533W        W26013  14.167  24.508  14.494
60534W        W26014  33.937  40.507  14.319
60535W        W26015  44.862  35.388  11.990
60536W        W26016  44.469  24.481   4.176
60537W        W26017  24.642  21.022   0.319
60538W        W26018  14.329  26.168  11.390
60539W        W26019  13.813  15.635   4.837
60540W        W26020   0.433  33.104   0.457
60541W        W26021   0.806   0.962  12.847
60542W        W26022  44.282   7.252  11.579
60543W        W26023   0.266   8.775  11.116
60544W        W26024  35.081  10.803   0.380
60545W        W26025  14.297  44.873   2.711
60546W        W26026   4.770  11.281   1.723
60547W        W26027  15.587   4.922  10.094
60548W        W26028  40.506   4.802   3.831
60549W        W26029  17.769  30.655   3.861
60550W        W26030  14.226   7.409  11.393
60551W        W26031  29.569  19.108  12.892
60552W        W26032  22.115  32.407   1.299
60553W        W26033   8.176  33.922   1.780
60554W        W26034  17.230  20.037   4.680
60555W        W26035   0.844   7.314   3.169
60556W        W26036   1.868  18.217  12.896
60557W        W26037  33.931  19.581  10.581
60558W        W26038  30.424  28.478  14.801
60559W        W26039  14.208   5.842   2.891
60560W        W26040  25.060  10.292   4.755
60561W        W26041  20.162   0.897   0.313
60562W        W26042  19.060   3.410  12.845
60563W        W26043   9.364  25.154  14.983
60564W        W26044  16.218  32.045   4.703
60565W        W26045  16.306  31.075   0.749
60566W        W26046  14.101  24.186  13.541
60567W        W26047  11.245   0.784   1.309
60568W        W26048  15.674   8.221  14.419
60569W        W26049   6.808  38.895  13.841
60570W        W26050  15.295  27.543  10.508
60571W        W26051  22.567  17.691   2.737
60572W        W26052   2.853  22.603  11.452
60573W        W26053   9.182   0.788   3.194
60574W        W26054  41.294   0.362   4.305
60575W        W26055  26.093  16.253  13.981
60576W        W26056  28.056   3.416   1.931
60577W        W26057  11.826  28.035   0.912
60578W        W26058  26.475  35.023  12.486
60579W        W26059  12.196  26.140   2.326
60580W        W26060  34.112  18.587   4.635
60581W        W26061  23.177  20.198  14.919
60582W        W26062  11.826  10.776   2.839
60583W        W26063   0.951  34.570   4.783
60584W        W26064  24.506  16.675  12.038
60585W        W26065   6.295  24.013  12.366
60586W        W26066   5.921  24.725  11.611
60587W        W26067  32.446  24.585  14.315
60588W        W26068  20.151   4.206   2.310
60589W        W26069  17.796  21.532   0.340
60590W        W26070  26.691   7.774  10.978
60591W        W26071  36.971   6.773  12.945
60592W        W26072  12.725  12.291   0.314
60593W        W26073   4.912  21.691  12.946
60594W        W26074   2.259  36.407  11.529
60595W        W26075  13.754  31.062  10.568
60596W        W26076  18.269  20.117   0.763
60597W        W26077  27.079  30.480  10.963
60598W        W26078  29.653  11.815  14.464
60599W        W26079   7.414  38.848  14.958
60600W        W26080  28.969   0.980  14.802
60601W        W26081  33.996  16.751   2.780
60602W        W26082  28.100  30.960  14.506
60603W        W26083  13.307  36.852   3.154
60604W        W26084  10.872  21.643   1.230
60605W        W26085  22.049   2.815   1.850
60606W        W26086  21.172  19.538  11.059
60607W        W26087  20.121  25.218  13.511
60608W        W26088  33.024  42.984  12.888
60609W        W26089  14.234  12.354  10.408
60610W        W26090  20.699   0.759   3.644
60611W        W26091  24.973  29.650   2.826
60612W        W26092   7.692   4.810  13.053
60613W        W26093   3.409  39.553  14.277
60614W        W26094  12.832   8.396   1.715
60615W        W26095  29.051   8.699  11.077
60616W        W26096  14.262  11.802  11.045
60617W        W26097  28.124  41.333  10.009
60618W        W26098   6.290  30.136  12.837
60619W        W26099  37.986  38.357  12.038
60620W        W26100   6.205  21.261   4.195
60621W        W26101   3.737  42.371   2.201
60622W        W26102  36.400   5.873   1.780
60623W        W26103  44.979  15.594   2.264
60624W        W26104  39.329  18.573  14.940
60625W        W26105   3.866   2.245   2.183
60626W        W26106  11.765  25.113   4.139
60627W        W26107   7.239   5.878   3.741
60628W        W26108   1.439  16.235   0.836
60629W        W26109  17.068  24.094  12.449
60630W        W26110  14.736  26.952   1.297
60631W        W26111  21.110  31.477  10.930
60632W        W26112  11.712  37.960  10.948
60633W        W26113   8.754  34.884  13.381
60634W        W26114  13.632   6.246   2.879
60635W        W26115  34.028   6.395   0.959
60636W        W26116  23.616  37.505  11.027
60637W        W26117  31.571  35.077   2.259
60638W        W26118  43.318  25.000  10.522
60639W        W26119  37.377  32.403   0.795
60640W        W26120  13.331  38.893   5.111
60641W        W26121  25.983  17.292   0.429
60642W        W26122   6.358   1.333  11.012
60643W        W26123   9.245  37.860   0.915
60644W        W26124   1.347  15.251  14.275
60645W        W26125  27.616  32.004   1.763
60646W        W26126  37.379   4.334  13.458
60647W        W26127  41.419  15.652  10.923
60648W        W26128   8.269   5.227   2.280
60649W        W26129   7.272   5.848  11.036
60650W        W26130  43.991  40.022   0.804
60651W        W26131  22.136  27.462  10.893
60652W        W26132  42.971  23.985   1.417
60653W        W26133  28.101   9.309  10.500
60654W        W26134   8.666  32.958  12.376
60655W        W26135  25.075  36.965  11.964
60656W        W26136  27.675  21.216   4.239
60657W        W26137  30.964  34.959   1.336
60658W        W26138  29.158  18.567   4.335
60659W        W26139  16.728  15.731  12.844
60660W        W26140  11.735  16.144  12.345
60661W        W26141  22.692  41.336   4.666
60662W        W26142  30.069   1.461   1.371
60663W        W26143  23.174   8.363  10.617
60664W        W26144   8.170  43.316   0.935
60665W        W26145  14.601   0.920  14.905
60666W        W26146   8.678  20.536  12.355
60667W        W26147   2.461  10.199  10.033
60668W        W26148  28.980  14.205   3.343
60669W        W26149  31.450   9.830   4.290
60670W        W26150  16.151  41.491  11.524
60671W        W26151  32.128   6.408  10.996
60672W        W26152  25.529  33.905   2.667
60673W        W26153   4.357  29.661   4.745
60674W        W26154  10.310   6.321   4.222
60675W        W26155   1.802  42.935   1.236
60676W        W26156   3.350  10.150  14.798
60677W        W26157  34.421  26.507   1.340
60678W        W26158  44.839  40.425   4.228
60679W        W26159  26.151  35.490   2.373
60680W        W26160  11.772   9.682  14.364
60681W        W26161  28.589  40.528  14.423
60682W        W26162  16.090   9.309  12.466
60683W        W26163  25.087   5.749   0.317
60684W        W26164  32.095  26.696  12.339
60685W        W26165  29.528   6.821   3.237
60686W        W26166  37.901  24.606  11.020
60687W        W26167   6.708  13.660   3.186
60688W        W26168  41.460  19.697   1.412
60689W        W26169  27.584   0.922  10.541
60690W        W26170   5.808  42.970   2.384
60691W        W26171  18.195  21.209  12.992
60692W        W26172  14.697  26.164   0.962
60693W        W26173   4.305  36.008  12.873
60694W        W26174  22.130  22.030  10.558
60695W        W26175   3.742  21.220  14.293
60696W        W26176  43.926   3.423   2.853
60697W        W26177  37.009  10.773  13.884
60698W        W26178  17.616  15.270  12.937
60699W        W26179   5.835  28.620   0.266
60700W        W26180  29.429  16.649   0.863
60701W        W26181   0.281  15.228   4.608
60702W        W26182  38.361  40.843  11.872
60703W        W26183  41.962  29.112  13.819
60704W        W26184  40.344  24.128  10.608
60705W        W26185  34.586  43.965  12.939
60706W        W26186   5.227  14.283  14.779
60707W        W26187  43.381  22.612   4.260
60708W        W26188  40.802  44.423   1.296
60709W        W26189  36.448  37.036   3.808
60710W        W26190   7.303  14.618  13.507
60711W        W26191  31.917  34.445   2.781
60712W        W26192  20.264   8.755  10.026
60713W        W26193  20.715   8.259   2.351
60714W        W26194   1.267  37.400  14.328
60715W        W26195  43.971  34.895   4.769
60716W        W26196   3.342  12.801  12.848
60717W        W26197   0.396  38.376   4.635
60718W        W26198   4.332   6.254  13.022
60719W        W26199   8.880  33.894   0.890
60720W        W26200  26.548  11.256  10.462
60721W        W26201   5.934  26.525   1.310
60722W        W26202   2.958  22.540   2.831
60723W        W26203  34.527  42.027  14.011
60724W        W26204   7.821   9.769   1.315
60725W        W26205   1.766  21.532  13.044
60726W        W26206  34.864   0.750  12.534
60727W        W26207  30.492  29.965   2.743
60728W        W26208  43.954  35.590   0.950
60729W        W26209  29.595   1.414  11.114
60730W        W26210  42.907  20.248   3.724
60731W        W26211  33.420  10.270   4.731
60732W        W26212  10.357  16.186  11.111
60733W        W26213  28.094   7.869   2.669
60734W        W26214  14.261  13.165   2.392
60735W        W26215  16.783  31.453   0.832
60736W        W26216  40.531   9.381  10.545
60737W        W26217  38.343  12.736   1.430
60738W        W26218  31.406  22.636   1.376
60739W        W26219  13.351  19.240  10.493
60740W        W26220  11.623  19.232  11.400
60741W        W26221  18.182  35.930  14.776
60742W        W26222  10.829  17.258   1.804
60743W        W26223  39.936  28.522  14.488
60744W        W26224  40.026   1.746  13.920
60745W        W26225   6.903  24.123  13.947
60746W        W26226   6.696  28.084   2.787
60747W        W26227   4.753  30.420   4.193
60748W        W26228  41.490  36.888  14.433
60749W        W26229  36.554  41.505  14.990
60750W        W26230  27.104  39.393  12.835
60751W        W26231  30.577  44.815  12.974
60752W        W26232   9.833  11.127  14.863
60753W        W26233  33.617  17.722  14.020
60754W        W26234  24.561  40.865  12.932
60755W        W26235  44.801  19.701  10.499
60756W        W26236   4.940   9.806  14.282
60757W        W26237   4.880  33.433   0.331
60758W        W26238  26.617  36.581   4.180
60759W        W26239  24.989   9.886   0.302
60760W        W26240  25.193  32.630   0.812
60761W        W26241  34.866   1.249  10.921
60762W        W26242   8.244  31.406  14.929
60763W        W26243  15.792  38.476   1.293
60764W        W26244  24.188  44.301   0.740
60765W        W26245  37.423  22.715  13.926
60766W        W26246   0.482  29.118  14.507
60767W        W26247   1.416  40.525   1.277
60768W        W26248  22.578  16.187  12.071
60769W        W26249  22.692  43.880   2.751
60770W        W26250  18.592  13.628  11.016
60771W        W26251  31.114  31.412   3.840
60772W        W26252   5.731  15.280  10.935
60773W        W26253  17.128   3.382   4.197
60774W        W26254  18.586  14.758  13.380
60775W        W26255  25.198  33.017   4.305
60776W        W26256  13.265  15.249  14.990
60777W        W26257  43.445  23.572   3.729
60778W        W26258  12.658   1.466  11.392
60779W        W26259  43.798  14.129  10.640
60780W        W26260  20.644  19.134   2.241
60781W        W26261  35.475  16.305   0.248
60782W        W26262   1.815   9.207  13.512
60783W        W26263   7.860  11.689  11.976
60784W        W26264   4.864  10.832  10.159
60785W        W26265  23.629   3.754  14.422
60786W        W26266  27.662  38.368   4.718
60787W        W26267  17.137  16.758   3.640
60788W        W26268  33.021  24.674   2.813
60789W        W26269  29.633   9.372  13.858
60790W        W26270  15.169  22.574   2.363
60791W        W26271  31.515  35.879  13.959
60792W        W26272   0.955   4.924   3.662
60793W        W26273  25.056  23.014  13.904
60794W        W26274   5.722  31.033   2.336
60795W        W26275  11.349  10.362   4.180
60796W        W26276  20.103   8.723   1.359
60797W        W26277  43.362   3.412   2.194
60798W        W26278  20.049  31.897   2.691
60799W        W26279   4.448  30.920   4.705
60800W        W26280   0.771  35.977  11.091
60801W        W26281   8.394   5.907   1.789
60802W        W26282  34.512  41.460   3.686
60803W        W26283  12.125   1.315   2.894
60804W        W26284   7.229  34.052   4.140
60805W        W26285  29.638   1.746   4.707
60806W        W26286  19.161  20.152   2.198
60807W        W26287  35.406  39.523  13.045
60808W        W26288  40.002   8.195   0.280
60809W        W26289  30.959  33.383  10.125
60810W        W26290  29.167  13.139   2.809
60811W        W26291   0.955  26.074   0.956
60812W        W26292  25.964   0.312  14.991
60813W        W26293   2.746  17.764  13.018
60814W        W26294  39.360   9.885  13.048
60815W        W26295  43.494  37.517  11.566
60816W        W26296  16.176  11.638  13.855
60817W        W26297  19.736  20.724   4.347
60818W        W26298   2.322  26.113  11.093
60819W        W26299   2.403  11.204   1.762
60820W        W26300   1.956   1.279   4.682
60821W        W26301  16.571  24.980  12.372
60822W        W26302   4.718   3.352   1.814
60823W        W26303  32.019  13.800  10.498
60824W        W26304  33.004   7.378   3.267
60825W        W26305   8.381  27.680  11.421
60826W        W26306  42.281  14.164  14.275
60827W        W26307   9.261   4.742   4.343
60828W        W26308  10.765  36.079  13.387
60829W        W26309  32.422  38.954   4.134
60830W        W26310  41.835  29.613   4.632
60831W        W26311  20.135  43.774  13.063
60832W        W26312   1.940   8.702   3.827
60833W        W26313   9.657  11.777   3.833
60834W        W26314  31.982  10.843   2.883
60835W        W26315  33.006  24.139   1.923
60836W        W26316  39.009  23.490  14.806
60837W        W26317  18.562  31.956   4.175
60838W        W26318  42.393  33.946   3.308
60839W        W26319  41.954  44.268   3.783
60840W        W26320  18.080  35.599  10.432
60841W        W26321  32.058  12.719  13.540
60842W        W26322  39.507  37.359  14.998
60843W        W26323  26.558  13.727  11.388
60844W        W26324   8.842  14.159  14.828
60845W        W26325  12.133  19.658   2.392
60846W        W26326  19.770  15.154   2.224
60847W        W26327  22.733  20.711  14.308
60848W        W26328   8.831   5.437  11.551
60849W        W26329  31.547   8.331  11.123
60850W        W26330  16.743  24.530   1.391
60851W        W26331  14.123  43.358  11.899
60852W        W26332  21.542  17.781   4.694
60853W        W26333  24.528  15.643  11.116
60854W        W26334  38.046  16.152  14.332
60855W        W26335   3.324   0.793  13.994
60856W        W26336   0.833  10.811   4.161
60857W        W26337  11.258  14.267  13.546
60858W        W26338  29.491  38.354  13.865
60859W        W26339  29.434   0.821  10.002
60860W        W26340  19.613  10.224  11.038
60861W        W26341  19.579  34.075  10.565
60862W        W26342   4.719  28.935  11.521
60863W        W26343  36.487  15.177   4.601
60864W        W26344  38.838  14.816   1.355
60865W        W26345  24.087  36.476   1.379
60866W        W26346  13.623  38.489   2.378
60867W        W26347  19.721  27.607   2.348
60868W        W26348  13.141  28.675   0.275
60869W        W26349  14.811   7.218  11.587
60870W        W26350  18.777  31.424  11.520
60871W        W26351  10.855  42.502   3.253
60872W        W26352  16.090  18.095   4.756
60873W        W26353  17.154  35.897   5.210
60874W        W26354  36.572  30.543  12.553
60875W        W26355  19.542   9.326   4.181
60876W        W26356  32.025  19.696  10.574
60877W        W26357  16.316   9.735  12.869
60878W        W26358   1.370  43.979  13.912
60879W        W26359  21.642   9.311   9.994
60880W        W26360  37.437  37.385   4.245
60881W        W26361  16.183  17.195   3.311
60882W        W26362   7.874  14.210  11.046
60883W        W26363  41.317   1.735   4.135
60884W        W26364  11.858  39.974  13.049
60885W        W26365  21.727   4.904   2.270
60886W        W26366  17.796   2.814   1.861
60887W        W26367  30.559  42.978   0.959
60888W        W26368  19.177  40.807   2.832
60889W        W26369   2.419  31.540   4.120
60890W        W26370  17.093  38.436  14.934
60891W        W26371  35.486  15.138   0.727
60892W        W26372  39.007  42.835   1.827
60893W        W26373  11.268  42.500   5.768
60894W        W26374  42.892  35.920   4.634
60895W        W26375   3.883  18.646   3.277
60896W        W26376  30.095   1.870   4.650
60897W        W26377  40.391  22.059   1.819
60898W        W26378  34.525  18.613  13.384
60899W        W26379  37.514  22.037  11.046
60900W        W26380  18.649   9.296  11.887
60901W        W26381  24.561   9.720  14.789
60902W        W26382   5.907   2.421   1.853
60903W        W26383   9.180  38.932   1.807
60904W        W26384  21.682  42.787   1.424
60905W        W26385  44.484   1.477  12.825
60906W        W26386  10.150  22.160  10.961
60907W        W26387  20.611  34.031   1.364
60908W        W26388  12.173  35.474  14.471
60909W        W26389  37.031  14.624  11.012
60910W        W26390  32.960   0.821   4.798
60911W        W26391  30.598  40.831   3.297
60912W        W26392  44.875  29.922   0.806
60913W        W26393  39.367  38.940  13.499
60914W        W26394  12.818  27.161  14.939
60915W        W26395  31.559  14.744   4.758
60916W        W26396  21.743   0.861  12.980
60917W        W26397   4.358   7.741  11.506
60918W        W26398  22.252  26.505   4.728
60919W        W26399  38.407  10.660   0.320
60920W        W26400  36.076  39.837   0.906
60921W        W26401  17.164   7.846  10.527
60922W        W26402   5.882  40.006  10.532
60923W        W26403  38.043  35.485  12.910
60924W        W26404  28.959  33.891  11.416
60925W        W26405   7.763  41.489   1.334
60926W        W26406  32.584  36.555  12.423
60927W        W26407   8.663   2.292  13.501
60928W        W26408  23.604  44.373  12.362
60929W        W26409  43.871  33.043  13.360
60930W        W26410  33.992  17.143   0.467
60931W        W26411   0.858  18.118   1.927
60932W        W26412  36.383   3.841  11.940
60933W        W26413  26.050  27.186   2.312
60934W        W26414  12.349  26.202  10.514
60935W        W26415   5.717  32.915  12.429
60936W        W26416   8.864   2.274  12.998
60937W        W26417   9.700  13.601  14.932
60938W        W26418  20.584  11.704  11.554
60939W        W26419  10.312  42.391   2.374
60940W        W26420  39.407  43.860   2.364
60941W        W26421  12.168   1.850   1.351
60942W        W26422  39.873   3.735   0.790
60943W        W26423  26.528  11.181   3.235
60944W        W26424  27.530  37.545  13.360
60945W        W26425   1.460  15.686   1.225
60946W        W26426  41.837   5.918   1.306
60947W        W26427  38.356  43.407   1.368
60948W        W26428  28.062  18.192   9.953
60949W        W26429  20.045  14.706   4.788
60950W        W26430  29.141  34.057  11.053
60951W        W26431  35.928  12.118   0.794
60952W        W26432  31.610  24.481   4.304
60953W        W26433  28.470   5.369  14.880
60954W        W26434  12.303  33.557   4.628
60955W        W26435  25.042   3.302   3.841
60956W        W26436  20.143  16.786   0.944
60957W        W26437  26.202   0.955  13.516
60958W        W26438   1.304  18.181  10.635
60959W        W26439   0.449  14.615  11.099
60960W        W26440  23.685   2.798   0.382
60961W        W26441  11.731  24.560   4.129
60962W        W26442  12.201  14.767  12.924
60963W        W26443  31.546   8.694  14.494
60964W        W26444  37.525   8.877  14.949
60965W        W26445  27.609  30.963  14.452
60966W        W26446  44.844  15.632   0.953
60967W        W26447  15.184  37.373  11.504
60968W        W26448  20.262  14.272  14.484
60969W        W26449   6.835  29.921  10.575
60970W        W26450  24.062  33.979  11.031
60971W        W26451   9.678   4.895  10.430
60972W        W26452  31.588  25.140   1.257
60973W        W26453   0.766  11.772   3.207
60974W        W26454  42.427  21.581  12.891
60975W        W26455  12.818   6.886   2.736
60976W        W26456  25.647   4.447   2.275
60977W        W26457  18.069   2.327   0.425
60978W        W26458  15.711   3.459  12.975
60979W        W26459  28.125  37.384   1.745
60980W        W26460  22.126  25.039   0.279
60981W        W26461  29.666  39.031  12.972
60982W        W26462   9.668  31.923   2.393
60983W        W26463  21.637  26.602  14.788
60984W        W26464   8.370  34.879   4.146
60985W        W26465  32.057  11.666  11.988
60986W        W26466  24.221  13.195   3.802
60987W        W26467  19.130  31.141   0.954
60988W        W26468  16.227  24.525  12.570
60989W        W26469   4.299  39.539   4.353
60990W        W26470  30.505  22.708   4.823
60991W        W26471  11.339   3.284   0.318
60992W        W26472  40.457  21.613   2.257
60993W        W26473  19.075  40.898   1.246
60994W        W26474  44.433  22.127   3.204
60995W        W26475  25.572   7.189   4.826
60996W        W26476  21.086  44.001  12.074
60997W        W26477  22.147  38.982   4.128
60998W        W26478  11.859   5.814   1.694
60999W        W26479  31.064  38.552   4.344
61000W        W26480  23.557  12.843  13.021
61001W        W26481  35.412   9.755  14.916
61002W        W26482  24.120  30.014  11.604
61003W        W26483  15.290   6.786   4.237
61004W        W26484  38.000  39.449   3.779
61005W        W26485  27.955  16.106  13.979
61006W        W26486   9.730  25.600   4.771
61007W        W26487   3.248   5.413   4.812
61008W        W26488  27.082   5.924  11.455
61009W        W26489  42.826  21.554  12.988
61010W        W26490   8.834  13.167  12.082
61011W        W26491   5.306   5.269   4.656
61012W        W26492  40.801   3.729   0.954
61013W        W26493  30.453  18.259  13.415
61014W        W26494   8.267  31.022   2.884
61015W        W26495  35.462  29.453   2.251
61016W        W26496  13.331  30.576  11.466
61017W        W26497   4.307  21.592   4.141
61018W        W26498   0.361   2.303  11.563
61019W        W26499   5.335  24.998   0.771
61020W        W26500  18.696  23.645  13.348
61021W        W26501  29.050  23.517   1.397
61022W        W26502  22.596  31.488  10.951
61023W        W26503  26.961   8.228   3.673
61024W        W26504  38.942  39.387   0.345
61025W        W26505  27.003   1.859   0.789
61026W        W26506  11.262  24.189  10.973
61027W        W26507  22.208  21.751  13.807
61028W        W26508  36.875  19.145  10.501
61029W        W26509  12.823  42.024  10.117
61030W        W26510  25.674  33.532  10.146
61031W        W26511   8.376  37.534  12.369
61032W        W26512  19.245  36.039   0.253
61033W        W26513  12.622  23.689  12.547
61034W        W26514  34.507   1.436  11.392
61035W        W26515  19.044  15.674  13.820
61036W        W26516  17.729  12.783  11.113
61037W        W26517  38.426   3.806   0.761
61038W        W26518  20.168   3.843   1.918
61039W        W26519  10.710  34.895   2.381
61040W        W26520  36.950   2.837   1.871
61041W        W26521   2.842   6.387  11.868
61042W        W26522  29.644   9.663   3.632
61043W        W26523  40.337  32.439   4.118
61044W        W26524   5.743  21.666  12.407
61045W        W26525  39.535  32.613   2.691
61046W        W26526  13.149   6.243   5.223
61047W        W26527   4.366  28.621   2.714
61048W        W26528  34.976  22.065  13.041
61049W        W26529  34.974   8.369   4.636
61050W        W26530  21.222   5.887  14.302
61051W        W26531  19.568  33.059  14.873
61052W        W26532  11.722  25.973  13.886
61053W        W26533  12.347  27.605   1.238
61054W        W26534  37.578  43.338   4.287
61055W        W26535  29.094  27.181   0.838
61056W        W26536  23.229  17.594  13.031
61057W        W26537  15.592  10.756   3.289
61058W        W26538   7.411  37.519   1.756
61059W        W26539  39.375   3.306  12.041
61060W        W26540  40.797   5.228  11.085
61061W        W26541  38.486  25.128   0.854
61062W        W26542   4.208  25.033  13.461
61063W        W26543  25.156  38.016   1.728
61064W        W26544  16.210  37.475   2.404
61065W        W26545  39.504   7.823  13.473
61066W        W26546  21.245  42.018  13.396
61067W        W26547   0.794  28.128   1.414
61068W        W26548  21.697  36.379   1.266
61069W        W26549  22.500  24.689  14.002
61070W        W26550   9.363  38.359   3.742
61071W        W26551  21.174   3.929   2.326
61072W        W26552  11.266  43.428  10.975
61073W        W26553  18.215  20.041  14.412
61074W        W26554  12.677   9.861  14.860
61075W        W26555   5.212  38.062   3.203
61076W        W26556  41.488  38.479  14.925
61077W        W26557  16.103  12.729  10.110
61078W        W26558   4.222  23.233   3.244
61079W        W26559   9.869  31.528  13.804
61080W        W26560   9.160  18.140   3.177
61081W        W26561  25.639   3.286   3.352
61082W        W26562  11.653  11.189   3.279
61083W        W26563   0.257  26.468   0.350
61084W        W26564  14.829  15.819  12.450
61085W        W26565  20.540   0.456  11.467
61086W        W26566  18.071  16.770  11.573
61087W        W26567  25.630  19.683  10.939
61088W        W26568  27.645  25.962  12.449
61089W        W26569   1.421  38.045  13.450
61090W        W26570  24.576  10.804   2.404
61091W        W26571   1.361   1.911   0.407
61092W        W26572   1.301  38.519   2.237
61093W        W26573  32.549   1.409  10.535
61094W        W26574  11.854  10.244   3.715
61095W        W26575  28.942   7.346  12.032
61096W        W26576  42.853  30.096  12.547
61097W        W26577   0.258  44.842  11.942
61098W        W26578   6.348  33.978  12.070
61099W        W26579   8.263  25.496  13.536
61100W        W26580   8.382  37.444  11.971
61101W        W26581  13.659  18.194  14.429
61102W        W26582  10.747  26.033   4.723
61103W        W26583   2.326  18.629   2.869
61104W        W26584  10.804  41.026  13.463
61105W        W26585  13.252  44.893  11.963
61106W        W26586  10.311   3.907   1.892
61107W        W26587  31.906   1.363   1.911
61108W        W26588  15.294  44.295  13.968
61109W        W26589  30.563  21.732  12.445
61110W        W26590   0.345  28.064  14.963
61111W        W26591   2.801  37.917  10.565
61112W        W26592   4.322  21.568   3.721
61113W        W26593  43.989   1.296   2.689
61114W        W26594  38.566  29.579   0.782
61115W        W26595  36.490   0.979  11.430
61116W        W26596  19.576  33.555  10.456
61117W        W26597  10.253  32.534  11.535
61118W        W26598   1.272  32.462  12.029
61119W        W26599  42.329   1.399   1.841
61120W        W26600  28.443  20.704  11.593
61121W        W26601   2.763  44.454   2.186
61122W        W26602  30.085  29.077   4.245
61123W        W26603  15.693  27.684  13.922
61124W        W26604  22.157  29.666   4.791
61125W        W26605  26.542  27.096  14.916
61126W        W26606  12.233   7.204  13.533
61127W        W26607  44.467  37.051  13.490
61128W        W26608  36.993   0.924  10.595
61129W        W26609   3.254  39.047   3.284
61130W        W26610   9.831  14.660  12.889
61131W        W26611  40.546   2.924  12.468
61132W        W26612  31.617  21.124   1.285
61133W        W26613   1.909  28.979   1.419
61134W        W26614  35.443   9.664   2.263
61135W        W26615   3.425  24.713  11.954
61136W        W26616  20.131   5.707   1.407
61137W        W26617  44.768   2.298  14.841
61138W        W26618  15.234   3.392   1.276
61139W        W26619  32.450  17.791  12.918
61140W        W26620  41.830   2.449  10.517
61141W        W26621  17.657  18.657   0.791
61142W        W26622  12.153  39.490   0.367
61143W        W26623   0.250  21.679   1.213
61144W        W26624  27.601   6.888  10.477
61145W        W26625  15.720  38.433   4.319
61146W        W26626  26.182  27.167   4.780
61147W        W26627  39.942  21.700  11.992
61148W        W26628  42.921  25.137  10.487
61149W        W26629  26.648  26.031  13.486
61150W        W26630   3.391  44.799  12.062
61151W        W26631  40.310   5.209   3.698
61152W        W26632  32.394  37.039   1.765
61153W        W26633  20.548  19.586  13.503
61154W        W26634  38.490  31.614   4.334
61155W        W26635  27.493  29.454   1.795
61156W        W26636  15.239  11.647  11.586
61157W        W26637  11.284   7.673   2.197
61158W        W26638  43.954  44.314   3.256
61159W        W26639  13.253   3.926   1.363
61160W        W26640  22.146   2.445   1.376
61161W        W26641  26.023  32.409   2.403
61162W        W26642  29.610  42.302  12.346
61163W        W26643  31.988  27.687  11.597
61164W        W26644  37.500   1.738   2.360
61165W        W26645  23.068  39.815  11.882
61166W        W26646   2.465  30.997  14.446
61167W        W26647  25.153  16.123  14.930
61168W        W26648  27.620  41.422   2.227
61169W        W26649  40.412   9.352   4.234
61170W        W26650  37.364   0.418  10.491
61171W        W26651   6.896  29.519  12.078
61172W        W26652   6.700  41.815  13.435
61173W        W26653  28.659  19.722  12.554
61174W        W26654  20.264  41.892  12.853
61175W        W26655   1.396  10.356   4.834
61176W        W26656  20.224  24.616   3.746
61177W        W26657  32.014   5.718   0.398
61178W        W26658  37.869  27.620   2.288
61179W        W26659  10.244  33.022   4.327
61180W        W26660  19.192   1.366  10.959
61181W        W26661  10.861   9.263   2.689
61182W        W26662  17.672   1.312   1.266
61183W        W26663  20.099  17.658   1.717
61184W        W26664  13.628  12.328   3.333
61185W        W26665  28.546   8.387  13.381
61186W        W26666  24.158  23.234   1.328
61187W        W26667  13.108  40.930   3.735
61188W        W26668  19.537  30.515  10.925
61189W        W26669  17.094   5.318   0.800
61190W        W26670  34.059   3.335  10.953
61191W        W26671  41.003   7.346   1.309
61192W        W26672  21.541  33.001   2.233
61193W        W26673  36.097  39.549  13.806
61194W        W26674  34.384   7.732   2.272
61195W        W26675   6.876  13.193   4.647
61196W        W26676  29.128  28.657   0.453
61197W        W26677  21.241  36.046   0.807
61198W        W26678  25.488  22.172  12.895
61199W        W26679  21.021  12.333   1.742
61200W        W26680  33.501  40.803   3.630
61201W        W26681  41.885  40.915   0.747
61202W        W26682   3.867   5.424   3.757
61203W        W26683  34.471  36.887   0.316
61204W        W26684   4.919  28.609   0.734
61205W        W26685  17.610  18.645  14.762
61206W        W26686  15.623  39.037  13.012
61207W        W26687  44.969  31.136   2.742
61208W        W26688  28.455  11.641   1.260
61209W        W26689  14.702  25.195   1.288
61210W        W26690  24.120  40.903  14.976
61211W        W26691  25.073  37.009   1.239
61212W        W26692  31.139  42.484  14.281
61213W        W26693  20.670  23.539   0.758
61214W        W26694   5.830  24.091   4.338
61215W        W26695  14.147  12.336   1.331
61216W        W26696   3.420  36.468   1.709
61217W        W26697   9.392  24.016   4.208
61218W        W26698  42.805  19.595   3.267
61219W        W26699  41.459   1.303   3.336
61220W        W26700  20.596   3.857  11.477
61221W        W26701  17.137  30.648   1.364
61222W        W26702  15.592  33.615   3.362
61223W        W26703   7.891   7.175   3.771
61224W        W26704  32.534   7.414   3.834
61225W        W26705  35.489  43.841  13.815
61226W        W26706  34.444   5.267   0.290
61227W        W26707  38.995  30.020  14.344
61228W        W26708   0.955  14.235  12.009
61229W        W26709  32.038  29.163   3.646
61230W        W26710  30.989  23.045   1.813
61231W        W26711  28.050  31.906   1.781
61232W        W26712  16.751  37.942  10.417
61233W        W26713  18.295  17.068  14.937
61234W        W26714  39.819  32.557  13.948
61235W        W26715  44.768   1.387   0.409
61236W        W26716  26.500   3.771  10.956
61237W        W26717  38.941  36.482   4.671
61238W        W26718  20.030  10.750  10.456
61239W        W26719  44.427  11.854  11.024
61240W        W26720  42.922  17.084   4.160
61241W        W26721  37.551  40.452  14.361
61242W        W26722  18.689  33.430  12.042
61243W        W26723  40.015  42.796  13.058
61244W        W26724   8.680   3.848   3.662
61245W        W26725  34.381  42.442   4.807
61246W        W26726   2.257  38.533  12.560
61247W        W26727   9.792  34.070  11.468
61248W        W26728  18.145  35.460   0.802
61249W        W26729   4.232  23.108   3.819
61250W        W26730  10.741   4.874   1.899
61251W        W26731  42.003  33.424  14.825
61252W        W26732   5.405  29.505   1.794
61253W        W26733  18.154  16.174   2.270
61254W        W26734  24.649  38.043   1.291
61255W        W26735  31.444   9.243   4.638
61256W        W26736  44.775   4.232   2.307
61257W        W26737  18.101  30.634   0.253
61258W        W26738  13.342   1.859  14.445
61259W        W26739  36.974  17.286   3.818
61260W        W26740  38.965  14.723   1.721
61261W        W26741  13.115   5.801  14.440
61262W        W26742  16.218   2.284  14.312
61263W        W26743  29.449  30.422   3.764
61264W        W26744  20.615   3.883  12.921
61265W        W26745   0.970  22.556  10.933
61266W        W26746  30.048  38.484   0.782
61267W        W26747  18.194   7.241  14.494
61268W        W26748   9.229  32.931   4.335
61269W        W26749  40.541  29.143  14.345
61270W        W26750  19.098   8.290   4.157
61271W        W26751  15.767  35.567  12.919
61272W        W26752  12.733  16.278  13.492
61273W        W26753  37.366   9.286   0.886
61274W        W26754  16.641  23.060   1.910
61275W        W26755  26.583   0.302   3.353
61276W        W26756  41.376   0.445  14.498
61277W        W26757  13.199  13.225  13.049
61278W        W26758  10.823  17.645  14.017
61279W        W26759  20.061  44.259   1.791
61280W        W26760  35.463  14.237  11.376
61281W        W26761  15.301  43.806   2.368
61282W        W26762  13.296  25.013   4.734
61283W        W26763  26.009  38.542   4.331
61284W        W26764  22.121  29.531  10.550
61285W        W26765  39.864  30.613  12.440
61286W        W26766  34.502  12.283   0.469
61287W        W26767   8.400   1.929   4.310
61288W        W26768   6.208  12.155  11.441
61289W        W26769  18.737   3.373  11.962
61290W        W26770   0.913   4.296   1.876
61291W        W26771  20.137  11.687  11.577
61292W        W26772  41.430  36.989   1.863
61293W        W26773  41.411   5.881   4.322
61294W        W26774  11.157   5.904   0.350
61295W        W26775   4.402  37.434   3.227
61296W        W26776  39.503  41.495   1.397
61297W        W26777   2.278   2.867  14.300
61298W        W26778  28.071  37.508  14.332
61299W        W26779  12.131  10.834  10.538
61300W        W26780  34.574  42.916   3.177
61301W        W26781  31.518  33.459   3.151
61302W        W26782  25.199  22.706   0.324
61303W        W26783  12.259   1.381   4.330
61304W        W26784   6.333   9.711  11.876
61305W        W26785  30.431  12.683   0.819
61306W        W26786  15.660   6.288   2.184
61307W        W26787  16.205  39.026  13.943
61308W        W26788  16.691   4.798   3.335
61309W        W26789  25.116  14.791   2.339
61310W        W26790  19.614  25.698  11.386
61311W        W26791  27.188  28.471   2.791
61312W        W26792   3.782  30.566  14.903
61313W        W26793  44.480   4.880  11.084
61314W        W26794  18.145  25.516   0.821
61315W        W26795  13.693  29.574   1.781
61316W        W26796  19.583  36.080   1.743
61317W        W26797  14.601   4.779  14.960
61318W        W26798  31.563  29.175   1.850
61319W        W26799  37.517  31.983  10.519
61320W        W26800  15.774  28.539  10.047
61321W        W26801  38.452   3.242  14.379
61322W        W26802  23.536   7.171   0.961
61323W        W26803  31.512   7.198   1.933
61324W        W26804  34.983  39.959  14.428
61325W        W26805  20.216  10.827  10.985
61326W        W26806  19.772  31.149   2.759
61327W        W26807  36.004  17.715  12.885
61328W        W26808  38.401  39.460   4.266
61329W        W26809   5.201   8.206   1.861
61330W        W26810  31.573  24.226  12.989
61331W        W26811  43.486  44.305  13.861
61332W        W26812  33.019  41.417   2.811
61333W        W26813   0.442   8.715   4.634
61334W        W26814  18.573  11.795   4.316
61335W        W26815  25.083   2.841  13.417
61336W        W26816  31.421  22.200   4.787
61337W        W26817   4.839   5.741   4.322
61338W        W26818  16.163   9.215  14.832
61339W        W26819  17.667   7.319   1.826
61340W        W26820  10.161  10.288   9.996
61341W        W26821   8.399  10.200  10.589
61342W        W26822  11.278   2.365   0.947
61343W        W26823  26.024  32.506  12.934
61344W        W26824  20.115  40.486  13.915
61345W        W26825  13.769  28.077   3.281
61346W        W26826  41.956  24.706   1.881
61347W        W26827   8.836  35.544   2.850
61348W        W26828  17.135  11.346  12.955
61349W        W26829  35.010  23.551   2.397
61350W        W26830  37.867  30.617   5.098
61351W        W26831  23.203  24.991  12.836
61352W        W26832  17.124  18.276  12.508
61353W        W26833  33.408  25.022   2.206
61354W        W26834   2.742  33.606   0.739
61355W        W26835   4.834  27.968  14.279
61356W        W26836  29.983  26.629  12.535
61357W        W26837  42.868  35.942   0.802
61358W        W26838  43.510  32.968  11.993
61359W        W26839  15.752  33.970  12.353
61360W        W26840  25.531   1.887   3.722
61361W        W26841   0.389   2.397   0.864
61362W        W26842   2.444  11.257  10.452
61363W        W26843  40.913   1.967  12.359
61364W        W26844  15.673  28.600  12.501
61365W        W26845  41.439  13.161   1.751
61366W        W26846   6.711  42.843  12.359
61367W        W26847  10.812  40.352   3.693
61368W        W26848  21.643  11.364  10.475
61369W        W26849  11.140  15.716  10.483
61370W        W26850  41.802   0.801   2.868
61371W        W26851   4.436  22.638   0.453
61372W        W26852  27.134  14.171   4.123
61373W        W26853  10.370  29.002   2.332
61374W        W26854   7.339  43.815  13.340
61375W        W26855  26.630  26.654  14.930
61376W        W26856  14.329  16.310  13.491
61377W        W26857  20.709  28.451  12.936
61378W        W26858   8.657  11.734  12.062
61379W        W26859  33.557  34.463  10.895
61380W        W26860  44.365  33.055  10.414
61381W        W26861  24.200  37.499   3.779
61382W        W26862  40.827  27.617  14.899
61383W        W26863   6.197  20.120   4.838
61384W        W26864  42.966  44.815  14.307
61385W        W26865  10.818  43.329   3.685
61386W        W26866  38.426  36.935   1.933
61387W        W26867   0.845   3.252   2.180
61388W        W26868  36.006  32.396  11.383
61389W        W26869  22.695   6.849   1.856
61390W        W26870  13.704  37.958  13.362
61391W        W26871  15.199  31.508  11.504
61392W        W26872   6.356  26.692  11.033
61393W        W26873  15.797   3.416  13.329
61394W        W26874  29.481   2.891  13.315
61395W        W26875  17.068  18.751   1.412
61396W        W26876  32.521   9.862   3.369
61397W        W26877  14.631  41.529  12.896
61398W        W26878  32.632  19.241   0.450
61399W        W26879   1.388  28.521   1.263
61400W        W26880  36.873   9.210   0.910
61401W        W26881  23.228  42.801  13.016
61402W        W26882  19.543  29.137  11.549
61403W        W26883   1.258  11.306  14.903
61404W        W26884  43.315  18.561   1.725
61405W        W26885  38.414  28.600  13.807
61406W        W26886  17.173  33.461  12.981
61407W        W26887  11.733  28.963  10.581
61408W        W26888  25.061  11.657  11.539
61409W        W26889  23.494  26.670  14.798
61410W        W26890   0.802  38.992  11.508
61411W        W26891  33.010   5.422   2.740
61412W        W26892  25.164  22.521   4.194
61413W        W26893   5.835  35.601   1.898
61414W        W26894  39.418  20.731  13.343
61415W        W26895  39.492   9.722  14.312
61416W        W26896  40.051   6.772   3.208
61417W        W26897   0.358  42.847   4.821
61418W        W26898   8.361  43.844  11.920
61419W        W26899  37.030  15.617  12.022
61420W        W26900   4.797  32.631   3.741
61421W        W26901  43.319  26.505  14.512
61422W        W26902  28.484  32.437  10.527
61423W        W26903   1.932   0.448   0.322
61424W        W26904  23.543  14.595  12.418
61425W        W26905  40.892   3.315  12.879
61426W        W26906  28.608  36.010   0.396
61427W        W26907  30.001  30.097   4.309
61428W        W26908   3.913  44.769   3.830
61429W        W26909   1.447  15.270   4.229
61430W        W26910  27.667  36.044   1.836
61431W        W26911  36.974  21.589   2.786
61432W        W26912   1.956   4.307   3.665
61433W        W26913  21.518  38.400  10.495
61434W        W26914  14.340  17.154  11.975
61435W        W26915  23.519  39.002  10.943
61436W        W26916  13.708   2.816   3.197
61437W        W26917  33.895  42.837   1.302
61438W        W26918   5.264  26.066  14.892
61439W        W26919  34.097  34.465   2.838
61440W        W26920   5.778  35.417  14.798
61441W        W26921   3.365  25.054  14.840
61442W        W26922  24.607   4.234   4.298
61443W        W26923   3.445  10.660  13.007
61444W        W26924  20.156   5.245   1.854
61445W        W26925   6.405  21.688  10.580
61446W        W26926  37.573   5.393  11.406
61447W        W26927  35.891  27.646   4.679
61448W        W26928  41.461  36.355  11.856
61449W        W26929  15.705  23.556   0.431
61450W        W26930   8.658  25.997   3.371
61451W        W26931  11.645   4.368   0.479
61452W        W26932   1.340  16.812   4.148
61453W        W26933  10.769  38.886   2.777
61454W        W26934  15.257  12.347   4.344
61455W        W26935  25.475  12.696   1.878
61456W        W26936   8.179  19.074   0.456
61457W        W26937   8.351  21.146   4.272
61458W        W26938  36.584  28.486  13.028
61459W        W26939   4.856  32.138  12.369
61460W        W26940   0.281  19.154  12.463
61461W        W26941  12.354  43.975  11.873
61462W        W26942  19.707  10.273   1.340
61463W        W26943   2.430  16.634   1.445
61464W        W26944   7.761  34.091   1.745
61465W        W26945  36.514  21.077  11.420
61466W        W26946  18.097   5.815  11.055
61467W        W26947  12.811  40.836  13.385
61468W        W26948  16.178  43.280   1.449
61469W        W26949  37.895  15.596   1.269
61470W        W26950   5.214  23.181  12.364
61471W        W26951  10.173  38.073  13.884
61472W        W26952  23.680  11.637  10.533
61473W        W26953   0.760   7.739  12.948
61474W        W26954  15.163  12.637  10.151
61475W        W26955   6.781  17.660  14.977
61476W        W26956  16.596   9.360   1.864
61477W        W26957  13.779   9.879  13.928
61478W        W26958  25.469  44.788  14.423
61479W        W26959  19.758   3.788   4.204
61480W        W26960  40.379  31.996  12.985
61481W        W26961  39.419  22.536  10.466
61482W        W26962  44.879  20.622  10.463
61483W        W26963  14.221  14.620  13.480
61484W        W26964  37.457  31.413  11.468
61485W        W26965   2.851  41.510   3.850
61486W        W26966   1.249  22.234   3.211
61487W        W26967  35.073  17.710  14.815
61488W        W26968  28.122  41.864  12.038
61489W        W26969   4.919  36.847  14.883
61490W        W26970  23.529  29.036  14.509
61491W        W26971  43.018  37.475  10.558
61492W        W26972  18.126  39.926   4.272
61493W        W26973  19.188  43.825  12.370
61494W        W26974  23.999  25.137   5.156
61495W        W26975  13.166   6.381  13.530
61496W        W26976  41.999  39.465   0.262
61497W        W26977  34.908  23.238   4.150
61498W        W26978   4.699   4.851  14.761
61499W        W26979  40.455  29.599   0.438
61500W        W26980  28.167  35.069   0.449
61501W        W26981  16.635  40.381   3.347
61502W        W26982  11.764  32.540  12.885
61503W        W26983   4.372  10.179   3.253
61504W        W26984  29.440  23.230   2.214
61505W        W26985  39.819  27.451   2.890
61506W        W26986  41.921  16.297  13.339
61507W        W26987  41.361   9.650  10.442
61508W        W26988  40.335   9.760   0.473
61509W        W26989  11.292  36.078   0.894
61510W        W26990  17.668  41.425  14.870
61511W        W26991   3.446  11.370   2.757
61512W        W26992  17.119  29.485   0.418
61513W        W26993  19.643  26.565  12.575
61514W        W26994  24.158  31.034  13.805
61515W        W26995  27.479  15.774  12.938
61516W        W26996  11.691  18.181  12.550
61517W        W26997  37.930  34.052  12.946
61518W        W26998  21.675  30.567  12.022
61519W        W26999   9.653  44.763  12.391
61520W        W27000  31.405  16.199  13.002
61521W        W27001   7.366  44.852   1.293
61522W        W27002  37.342  43.282  13.835
61523W        W27003   4.711  11.176   2.675
61524W        W27004  22.198  17.620   0.461
61525W        W27005  24.710  10.715  14.997
61526W        W27006   6.870   2.830   4.221
61527W        W27007  28.086  11.763  13.845
61528W        W27008  41.301  38.909   4.202
61529W        W27009  43.459  24.524   2.796
61530W        W27010  40.030  23.143  12.443
61531W        W27011  17.285  17.575  10.452
61532W        W27012   2.258  24.662   1.839
61533W        W27013  37.944   2.836  13.908
61534W        W27014  28.049  43.888  10.445
61535W        W27015   5.238  43.779  12.373
61536W        W27016  22.566  10.182  14.499
61537W        W27017  34.989  26.467  10.922
61538W        W27018  30.114  44.867  13.482
61539W        W27019  10.166  17.127   2.287
61540W        W27020  16.241   1.400   3.728
61541W        W27021  32.142  23.597   2.214
61542W        W27022  18.625  21.101   2.668
61543W        W27023   5.340  43.293   2.716
61544W        W27024  24.673  39.858  14.833
61545W        W27025  14.830  37.837   2.181
61546W        W27026   5.901  17.259   3.169
61547W        W27027  42.025  24.108   4.756
61548W        W27028   9.190  35.546  11.948
61549W        W27029  36.387   1.789  11.901
61550W        W27030  24.560  40.960  11.498
61551W        W27031   1.825   7.747  10.475
61552W        W27032  36.905  39.350  11.465
61553W        W27033   9.369  24.716   4.717
61554W        W27034  27.679  34.120   4.799
61555W        W27035  28.510   3.910   2.343
61556W        W27036  43.804  39.971  12.520
61557W        W27037  26.586  29.645  12.864
61558W        W27038  15.791   4.272  14.341
61559W        W27039   6.388  27.115  14.970
61560W        W27040  27.953   5.297   4.262
61561W        W27041  32.433  11.372  10.922
61562W        W27042  38.953  16.623  12.066
61563W        W27043  35.423  11.127   3.281
61564W        W27044   5.710  16.781   0.898
61565W        W27045  31.965  24.631  14.951
61566W        W27046  23.220  27.490   0.253
61567W        W27047  23.673   5.397   1.844
61568W        W27048  34.075  43.384  13.521
61569W        W27049  18.093  19.630  11.093
61570W        W27050  30.985  40.548  13.529
61571W        W27051  37.025   2.926   2.753
61572W        W27052  40.334   4.844  14.851
61573W        W27053  16.758   5.892  11.384
61574W        W27054   5.856  42.466  14.324
61575W        W27055  33.008  44.930  13.450
61576W        W27056  30.427  28.027  13.333
61577W        W27057   5.326  27.091   2.721
61578W        W27058  13.685  44.926   0.285
61579W        W27059  29.060  13.278  11.090
61580W        W27060  32.520  28.451  13.315
61581W        W27061  27.473  34.473   1.793
61582W        W27062  13.685  12.678  14.021
61583W        W27063  21.030  29.030  11.043
61584W        W27064  37.029  40.532  14.773
61585W        W27065   6.412   3.276  10.556
61586W        W27066  33.125  31.458   1.845
61587W        W27067   5.235  41.922   3.259
61588W        W27068  44.777  21.045   2.780
61589W        W27069  40.038  33.100   1.406
61590W        W27070   1.865   9.306   1.910
61591W        W27071   8.266  32.926  10.455
61592W        W27072  37.869  23.131  13.948
61593W        W27073   5.719  30.625  12.518
61594W        W27074  23.173   1.321   4.820
61595W        W27075   3.335   0.792   1.887
61596W        W27076   7.393  44.316   1.375
61597W        W27077   7.791  28.533   3.304
61598W        W27078  36.347   0.427  13.449
61599W        W27079   9.237   3.376   4.324
61600W        W27080  16.589  20.624  13.022
61601W        W27081   3.948  24.670  12.041
61602W        W27082   2.934  25.563   4.311
61603W        W27083  14.771   9.190   4.214
61604W        W27084   0.448  23.112  12.572
61605W        W27085  21.705  24.669   2.272
61606W        W27086  37.391  39.463   2.320
61607W        W27087  26.987  37.057  14.348
61608W        W27088  42.414  41.334  11.421
61609W        W27089  17.285  14.330  13.308
61610W        W27090   9.306  19.572   0.261
61611W        W27091  38.445  11.864  11.505
61612W        W27092  37.461  20.133   2.764
61613W        W27093  39.325  38.513   3.261
61614W        W27094  40.314  34.072  14.338
61615W        W27095  30.942   1.428  14.432
61616W        W27096   1.763  13.297  13.891
61617W        W27097  14.821  42.891  11.095
61618W        W27098  13.838  14.629   2.878
61619W        W27099  24.096  17.188  12.472
61620W        W27100  35.410  14.272   4.740
61621W        W27101  24.022  36.395   2.877
61622W        W27102   2.419  26.011  10.515
61623W        W27103  32.073  12.621   5.306
61624W        W27104  24.677  32.077  13.815
61625W        W27105  40.001  42.810   1.722
61626W        W27106   6.701  11.323  10.566
61627W        W27107  38.065  29.987   2.872
61628W        W27108  40.538  27.110  12.950
61629W        W27109  23.584  27.579  12.050
61630W        W27110  26.474   5.753   4.120
61631W        W27111  12.262  10.877   1.805
61632W        W27112   9.774  30.486  14.404
61633W        W27113  18.591  12.138   1.270
61634W        W27114  27.681  30.052   3.191
61635W        W27115  21.101  37.963  13.380
61636W        W27116   4.314   9.270  13.876
61637W        W27117  12.184  44.964   0.434
61638W        W27118  36.905  39.974   4.179
61639W        W27119  41.968   7.893   5.167
61640W        W27120   2.859   0.485   2.248
61641W        W27121  32.473  28.085   3.792
61642W        W27122   0.950  26.121  11.021
61643W        W27123  38.850   7.214  12.418
61644W        W27124  14.298  40.003  12.361
61645W        W27125   5.227  16.599   4.708
61646W        W27126  39.338  42.997  10.955
61647W        W27127  25.978  44.009   1.830
61648W        W27128  39.466  38.550   0.862
61649W        W27129   9.150   9.793  14.279
61650W        W27130  43.318  20.548  11.928
61651W        W27131   5.309  18.671   2.183
61652W        W27132   9.850  14.675   0.773
61653W        W27133   3.307  25.052   0.426
61654W        W27134  41.396   5.910  11.442
61655W        W27135  18.574  34.106  13.377
61656W        W27136  41.881  35.025   1.855
61657W        W27137  11.283  15.690   4.806
61658W        W27138   8.185  15.642   0.879
61659W        W27139  40.018  35.375  12.393
61660W        W27140  40.396  22.123   3.212
61661W        W27141  22.066  15.804  12.524
61662W        W27142  44.850  14.196   3.326
61663W        W27143  32.031  13.628   0.794
61664W        W27144   2.774  41.463  11.113
61665W        W27145  36.981  13.270  11.418
61666W        W27146  16.575   0.792  13.022
61667W        W27147  29.073  30.055   1.309
61668W        W27148  19.539   6.424  14.024
61669W        W27149   4.386  32.490   3.364
61670W        W27150   9.648   7.355   0.802
61671W        W27151  18.239  12.238   1.310
61672W        W27152  22.685  21.045  14.766
61673W        W27153  33.559   2.338  12.529
61674W        W27154  28.541  44.930   3.365
61675W        W27155  35.876  22.133   0.894
61676W        W27156  21.739  31.544   2.769
61677W        W27157  33.943  41.862   1.411
61678W        W27158  16.708  34.891   4.764
61679W        W27159  18.551  10.268   1.754
61680W        W27160  22.524  28.074  12.498
61681W        W27161   7.201  43.844   0.737
61682W        W27162  18.071  33.047   3.797
61683W        W27163  30.537  20.039  14.299
61684W        W27164   2.845  24.589  10.580
61685W        W27165  36.481  19.176   0.794
61686W        W27166  35.069  26.143   1.276
61687W        W27167   1.296  12.707  10.444
61688W        W27168  13.232  14.717   0.452
61689W        W27169  11.752  24.580   1.373
61690W        W27170  41.040  36.884   3.283
61691W        W27171  37.993  28.536  13.038
61692W        W27172  12.182   9.228  13.798
61693W        W27173  32.403   8.203   2.413
61694W        W27174  44.806  41.942  11.469
61695W        W27175  44.356  19.231  10.588
61696W        W27176  18.265  44.266   4.118
61697W        W27177   3.419   8.171  11.497
61698W        W27178  21.671   5.735   1.412
61699W        W27179  20.762   0.987   0.268
61700W        W27180  32.081  34.408  10.458
61701W        W27181  44.821   3.802  13.964
61702W        W27182  20.116  14.805   2.716
61703W        W27183  19.059  29.634  11.076
61704W        W27184  16.610  41.491   0.883
61705W        W27185  28.635   1.965   0.847
61706W        W27186  19.056   1.830   3.803
61707W        W27187  13.296  39.332  12.572
61708W        W27188  20.618   8.756  10.122
61709W        W27189   1.969  34.567   5.093
61710W        W27190  20.200  39.955  14.975
61711W        W27191   2.425  12.725  14.806
61712W        W27192   2.809  12.202   2.348
61713W        W27193  43.773   7.197  12.045
61714W        W27194  32.131  33.479   5.086
61715W        W27195  44.455  36.471   4.746
61716W        W27196  17.800   3.739  14.436
61717W        W27197   2.914  44.771   3.218
61718W        W27198  12.837  37.902  10.482
61719W        W27199  17.153  41.511  13.542
61720W        W27200  12.231  42.920   1.810
61721W        W27201  18.219  30.018   3.211
61722W        W27202  37.946  43.998   3.869
61723W        W27203  10.240  27.169   2.394
61724W        W27204   4.210  39.819   4.784
61725W        W27205  12.644  22.660   4.781
61726W        W27206  34.373  16.098  10.556
61727W        W27207  44.858  41.014  10.618
61728W        W27208  44.283  37.995  11.980
61729W        W27209  25.618   7.323  11.072
61730W        W27210  19.180  19.558   2.305
61731W        W27211   5.328  10.730  11.869
61732W        W27212  44.368   9.732   2.823
61733W        W27213   3.797   6.227  12.930
61734W        W27214  28.436  43.905  11.410
61735W        W27215  25.547   6.844   1.834
61736W        W27216  19.706  18.113  13.018
61737W        W27217  31.577  43.901   2.206
61738W        W27218   2.776  15.322   4.718
61739W        W27219  15.756  42.472  11.105
61740W        W27220  26.985   8.349  11.485
61741W        W27221  35.040  32.531  11.899
61742W        W27222  41.030  29.107   1.436
61743W        W27223  22.610  29.663   3.760
61744W        W27224  12.253   9.174   1.782
61745W        W27225  25.995   0.488   5.568
61746W        W27226   8.324  26.583   4.704
61747W        W27227  38.468  31.536  11.469
61748W        W27228  24.509  23.536  11.033
61749W        W27229  33.916  18.560   1.210
61750W        W27230   0.788   2.318   0.413
61751W        W27231   4.784  29.092  10.522
61752W        W27232  18.668  20.085   4.211
61753W        W27233  29.954  18.107  11.883
61754W        W27234  41.939   4.260   1.805
61755W        W27235  16.580  44.794  11.556
61756W        W27236  11.170  10.678  13.902
61757W        W27237  13.298  20.736  12.404
61758W        W27238  32.975  11.233  11.517
61759W        W27239  26.019   6.418  11.402
61760W        W27240  30.116  13.838  12.358
61761W        W27241  21.645   4.854   0.731
61762W        W27242   0.898  18.584  11.990
61763W        W27243  26.980  24.230  13.365
61764W        W27244   2.309   8.245  13.830
61765W        W27245  33.449   3.728  10.409
61766W        W27246   6.822   5.769  13.861
61767W        W27247  35.405  31.409   3.635
61768W        W27248  42.900   9.731   4.826
61769W        W27249  17.593  21.564  12.379
61770W        W27250  36.084  36.423   2.828
61771W        W27251  16.276  43.980   5.319
61772W        W27252   7.876  33.565  11.400
61773W        W27253  36.092   7.719   1.850
61774W        W27254  21.069  37.540   2.242
61775W        W27255  17.669  37.351  11.994
61776W        W27256   5.421  41.360   3.761
61777W        W27257  33.117  33.121   0.808
61778W        W27258   8.168   5.933  10.554
61779W        W27259  18.071  30.496   2.865
61780W        W27260  37.350  41.426  10.904
61781W        W27261  18.120   0.972  13.874
61782W        W27262   3.923  10.328  10.613
61783W        W27263   9.220   3.328  12.832
61784W        W27264  34.572   2.862   0.436
61785W        W27265   0.755  24.600  14.785
61786W        W27266  13.643  13.654  13.369
61787W        W27267  35.933  31.537  11.101
61788W        W27268   7.244   7.869  14.899
61789W        W27269  20.211  26.599  11.972
61790W        W27270  32.991   2.383   2.283
61791W        W27271  42.299  23.720  13.420
61792W        W27272  27.092  26.990   1.280
61793W        W27273  30.652  16.109  13.916
61794W        W27274   8.399  44.966   3.151
61795W        W27275  30.656   7.838  12.471
61796W        W27276  28.961  11.247   1.767
61797W        W27277  34.547  12.159  13.907
61798W        W27278  43.957   9.154  13.989
61799W        W27279  44.860  30.491  12.490
61800W        W27280  35.888  35.555   4.833
61801W        W27281  28.081  42.922  11.581
61802W        W27282  42.951   1.396   0.328
61803W        W27283  24.213  22.605  13.389
61804W        W27284   4.944  27.569  14.920
61805W        W27285  40.409  15.774   4.224
61806W        W27286  43.513   8.172   0.434
61807W        W27287  25.633   5.222   3.858
61808W        W27288  37.528  19.738   4.210
61809W        W27289  35.994  30.052  10.489
61810W        W27290  36.979  43.940   4.295
61811W        W27291  25.571  33.095   0.881
61812W        W27292   6.377  24.705  11.413
61813W        W27293   0.431  44.909   3.188
61814W        W27294   6.270   9.797  14.384
61815W        W27295  29.016  24.679  14.457
61816W        W27296  23.120  21.018  10.934
61817W        W27297  39.896  41.027  10.504
61818W        W27298   2.887  30.581   3.727
61819W        W27299  28.033   9.372  14.963
61820W        W27300   1.433  44.269  14.311
61821W        W27301  28.983  13.754  13.013
61822W        W27302  16.761  39.840   0.735
61823W        W27303   4.733  35.587  10.521
61824W        W27304  13.222   1.927   3.371
61825W        W27305  22.074  30.924   0.277
61826W        W27306   3.949  27.482   1.400
61827W        W27307  41.011  19.569   0.249
61828W        W27308  40.366  44.848   2.839
61829W        W27309  33.431  29.978  10.065
61830W        W27310  18.739  37.037  12.577
61831W        W27311  12.143  44.464   3.356
61832W        W27312   0.896  20.649  13.013
61833W        W27313  15.246  26.486  14.002
61834W        W27314  24.568   9.696  11.998
61835W        W27315  30.060   3.824   0.848
61836W        W27316  21.200  19.543   2.848
61837W        W27317  40.929  33.492   2.356
61838W        W27318   8.874   5.429  12.480
61839W        W27319  23.059   1.319   2.724
61840W        W27320  23.116   6.252   3.374
61841W        W27321  34.920  40.871   4.822
61842W        W27322  29.625  13.275   0.916
61843W        W27323   0.308  12.161  13.410
61844W        W27324  11.129   6.256   0.861
61845W        W27325  36.469   0.400  13.956
61846W        W27326  31.526  40.308  14.284
61847W        W27327   0.807  40.450  12.881
61848W        W27328  43.319  36.968  12.934
61849W        W27329  16.303   1.320  12.402
61850W        W27330  34.526   5.861   0.914
61851W        W27331   6.279  21.719  13.495
61852W        W27332  38.439  35.508  13.381
61853W        W27333   6.866  30.075   0.408
61854W        W27334   7.763  12.809  13.862
61855W        W27335   8.373  24.674   0.337
61856W        W27336   6.392  20.626   0.858
61857W        W27337  42.790  11.735  11.963
61858W        W27338  24.995  44.336   1.925
61859W        W27339  24.210  12.219  10.503
61860W        W27340  34.507  15.728   1.309
61861W        W27341   5.697  26.193   0.738
61862W        W27342  27.117  44.447  11.390
61863W        W27343   7.666  40.332   3.713
61864W        W27344  10.860  10.875   0.739
61865W        W27345  30.559  37.028  11.042
61866W        W27346  15.606   3.843  10.429
61867W        W27347   6.865  26.698  10.922
61868W        W27348  23.232   1.353   9.982
61869W        W27349  31.108   1.368   2.318
61870W        W27350  14.216  36.363   2.219
61871W        W27351  23.165  21.579  14.898
61872W        W27352  14.273  16.262  14.383
61873W        W27353  27.111  39.557   4.166
61874W        W27354  23.200  13.266  11.524
61875W        W27355  13.687  18.271  13.002
61876W        W27356  42.806  34.564   3.304
61877W        W27357  43.876   7.852  10.602
61878W        W27358  38.849   1.344  13.373
61879W        W27359   6.288  11.325   2.871
61880W        W27360  38.421  10.716  12.086
61881W        W27361  44.993   9.788   3.694
61882W        W27362  41.471  28.064  12.508
61883W        W27363   4.366  35.487  12.038
61884W        W27364   0.437  34.005  11.109
61885W        W27365  12.615  31.933   1.735
61886W        W27366  32.047   0.329  13.904
61887W        W27367  38.908  16.120   0.404
61888W        W27368   4.849   0.342  11.888
61889W        W27369  43.924  12.620   1.857
61890W        W27370  10.163  39.535   4.669
61891W        W27371  32.397  40.923   3.740
61892W        W27372  31.927  17.601   0.867
61893W        W27373  29.625  41.994  12.353
61894W        W27374  13.182  21.162  11.421
61895W        W27375  22.678  27.584   3.731
61896W        W27376   0.884  37.954  11.865
61897W        W27377  29.436   9.706  13.347
61898W        W27378  12.272  44.356   3.656
61899W        W27379   2.227  44.892   1.421
61900W        W27380  16.195  12.126  14.406
61901W        W27381   7.357  22.699   3.330
61902W        W27382  24.043   1.342   2.390
61903W        W27383  40.868   1.932   4.223
61904W        W27384  15.581  38.838   0.390
61905W        W27385   8.798   9.298  12.093
61906W        W27386  36.359  41.787   3.863
61907W        W27387  31.074   2.405   2.344
61908W        W27388  21.065  30.550   9.969
61909W        W27389  30.951   1.828  10.979
61910W        W27390  15.218  41.395   2.832
61911W        W27391  10.670  37.403   2.785
61912W        W27392   4.350   4.802  13.974
61913W        W27393  14.679  35.406  13.531
61914W        W27394  36.080  32.905   0.853
61915W        W27395  12.339  44.288   1.427
61916W        W27396   0.402   5.289   0.386
61917W        W27397  33.419  12.802  10.980
61918W        W27398   8.204   2.244  14.802
61919W        W27399  26.035  39.440   0.271
61920W        W27400  11.830   3.854   2.278
61921W        W27401   2.907   8.886   2.793
61922W        W27402  15.237  30.486  11.127
61923W        W27403  24.075  16.096  10.487
61924W        W27404  15.695   7.826   2.384
61925W        W27405   8.179   7.388   4.129
61926W        W27406  10.323  39.487  11.025
61927W        W27407   8.700  11.287  11.414
61928W        W27408   5.743   3.232  14.915
61929W        W27409  14.221  34.013   2.793
61930W        W27410  43.989  40.816   4.206
61931W        W27411   8.752  29.459  13.508
61932W        W27412  27.941  31.994   5.322
61933W        W27413  42.464  41.400  11.895
61934W        W27414  43.447  40.527  11.127
61935W        W27415  34.566  40.381   3.850
61936W        W27416  11.366  38.352   3.384
61937W        W27417  18.088  27.571   1.697
61938W        W27418  20.638   1.867   1.394
61939W        W27419   1.861  36.522  12.391
61940W        W27420  29.080  11.820   1.853
61941W        W27421  16.078   0.805  12.494
61942W        W27422   5.418  14.095   1.840
61943W        W27423  15.300  39.973  12.978
61944W        W27424  29.535  16.158   2.821
61945W        W27425  36.476  42.887   3.708
61946W        W27426  24.653  38.843   1.910
61947W        W27427  37.342   6.382  13.855
61948W        W27428  17.265  27.157  14.958
61949W        W27429  30.041  19.234  14.832
61950W        W27430  36.531  40.315  12.491
61951W        W27431  44.916  38.385   2.903
61952W        W27432  10.348  40.410  14.913
61953W        W27433   9.346  27.006  13.509
61954W        W27434  41.456  41.792   3.386
61955W        W27435  23.170  39.825  12.515
61956W        W27436  37.551  35.892  10.492
61957W        W27437  40.804  41.800   3.722
61958W        W27438  40.338  28.014   4.715
61959W        W27439  29.168  28.058  14.293
61960W        W27440   7.866  38.909  12.828
61961W        W27441  14.712   6.260   3.149
61962W        W27442  19.167   7.305   3.771
61963W        W27443  10.183  29.600  10.957
61964W        W27444   5.930  13.273  14.334
61965W        W27445  36.449  21.034  10.476
61966W        W27446  16.239  21.521   4.833
61967W        W27447  29.666  37.420   9.926
61968W        W27448  10.770  12.718   4.689
61969W        W27449  21.171  11.353  10.473
61970W        W27450   3.838   3.276   4.725
61971W        W27451   5.898  27.007   3.754
61972W        W27452  28.967  38.932   4.628
61973W        W27453   2.306  12.659  10.005
61974W        W27454   5.391  11.731  12.936
61975W        W27455  44.338  12.292  11.575
61976W        W27456  11.820  23.503   3.813
61977W        W27457  33.499  21.037   4.665
61978W        W27458   0.305  16.792  13.533
61979W        W27459  34.550  42.801  13.879
61980W        W27460  31.014   9.882  14.457
61981W        W27461  32.946  37.948   0.828
61982W        W27462  44.329  18.781   4.600
61983W        W27463   3.253  20.758  11.991
61984W        W27464  26.134  34.471  14.012
61985W        W27465   7.298   3.399  10.493
61986W        W27466   2.283  27.538   0.791
61987W        W27467  13.637  11.626  11.952
61988W        W27468  11.698  35.918   2.821
61989W        W27469  36.423  24.222   0.860
61990W        W27470  23.129  29.536   0.823
61991W        W27471  16.266   2.757   3.252
61992W        W27472  34.408  29.439  14.870
61993W        W27473  20.064   3.848  11.460
61994W        W27474  39.000  19.682  12.339
61995W        W27475  19.229  28.651  10.630
61996W        W27476  26.496  27.059  10.493
61997W        W27477   1.476  31.547  12.903
61998W        W27478  31.538   5.439  10.522
61999W        W27479  11.278   2.917  11.570
62000W        W27480  40.494  15.179   0.269
62001W        W27481  36.485  32.559  14.968
62002W        W27482   1.746  27.591   1.728
62003W        W27483   7.250  25.613  14.311
62004W        W27484  34.451  39.942   2.303
62005W        W27485   3.867   8.283  14.278
62006W        W27486   5.909  44.883  14.012
62007W        W27487  12.793  29.002  11.022
62008W        W27488   0.833  40.318  13.855
62009W        W27489   2.304  32.461  14.296
62010W        W27490  29.618   2.953   1.442
62011W        W27491  34.470  44.843  11.994
62012W        W27492   5.394  32.895  10.550
62013W        W27493  38.961  24.682   3.769
62014W        W27494  38.872   4.824   4.327
62015W        W27495  37.017  31.449   4.825
62016W        W27496  12.768   9.390   4.253
62017W        W27497   3.866   8.782  14.981
62018W        W27498  17.691  32.885   2.356
62019W        W27499  36.849   2.298  14.002
62020W        W27500  31.089  42.939  14.515
62021W        W27501  43.792  42.916   2.699
62022W        W27502  15.675  16.600   5.094
62023W        W27503  10.634   5.759   0.417
62024W        W27504  13.281  38.005   4.616
62025W        W27505  25.136   6.380  13.868
62026W        W27506  35.020  40.369  11.898
62027W        W27507  29.948  17.156  14.870
62028W        W27508  30.909  41.814  13.350
62029W        W27509   8.279  40.031  13.439
62030W        W27510   5.252   8.656  14.772
62031W        W27511  44.418  17.694  12.080
62032W        W27512  32.530   0.877  11.964
62033W        W27513  26.702   6.683  11.589
62034W        W27514  14.667  26.517  12.361
62035W        W27515  23.117  22.707  12.004
62036W        W27516  15.195  36.447   2.813
62037W        W27517  20.037   4.829   0.256
62038W        W27518  16.768  10.262  14.422
62039W        W27519  24.046   0.821   3.332
62040W        W27520   7.341  21.156   3.151
62041W        W27521  42.858  22.513  11.037
62042W        W27522  42.318  38.512  11.515
62043W        W27523  11.248  25.044   0.743
62044W        W27524  28.068  11.316   4.142
62045W        W27525  41.905  41.790  13.483
62046W        W27526  37.960   2.942  10.637
62047W        W27527   7.390  30.969   4.653
62048W        W27528  32.028  22.589  14.353
62049W        W27529   8.364  10.690  12.556
62050W        W27530  43.388  42.856   5.176
62051W        W27531   5.316  19.638  14.869
62052W        W27532  16.266  35.965   1.339
62053W        W27533  19.240  16.638  12.501
62054W        W27534  28.958  25.638   0.380
62055W        W27535  12.117  11.810   0.769
62056W        W27536  13.304  34.889   0.823
62057W        W27537  12.285  24.004   2.846
62058W        W27538  37.881  21.628  10.969
62059W        W27539  41.444  20.238   3.663
62060W        W27540  42.830   1.932   1.708
62061W        W27541   8.702  13.799  13.416
62062W        W27542   7.695   1.740   2.837
62063W        W27543  25.067  33.010   3.709
62064W        W27544  34.506  23.603   3.637
62065W        W27545   8.829  14.313   2.834
62066W        W27546  12.126  42.851   1.423
62067W        W27547   3.215  38.432  12.828
62068W        W27548  28.030  33.480  13.823
62069W        W27549  40.946  44.289  10.934
62070W        W27550   5.393  27.580   3.770
62071W        W27551  42.941  18.111  12.844
62072W        W27552  18.644  40.959   3.655
62073W        W27553  14.831  15.242  14.367
62074W        W27554  38.418   3.248   0.862
62075W        W27555   2.832  16.578  13.395
62076W        W27556   2.377  11.670  11.061
62077W        W27557  25.023  39.815   3.666
62078W        W27558  34.096   5.314   0.393
62079W        W27559   8.161  37.435  11.385
62080W        W27560   7.346  10.246  13.849
62081W        W27561  38.927  41.846   0.337
62082W        W27562  41.021   6.677  13.896
62083W        W27563  28.541  38.407  13.849
62084W        W27564  23.672   2.734  12.497
62085W        W27565  18.091  10.347   2.676
62086W        W27566  12.637  14.321   2.819
62087W        W27567  32.949  22.151  14.501
62088W        W27568  24.033   3.456   0.854
62089W        W27569  39.441  33.576   1.764
62090W        W27570  34.024  27.021  12.853
62091W        W27571   4.287  14.098  10.927
62092W        W27572  26.600   9.295   3.796
62093W        W27573  37.395   2.871   0.463
62094W        W27574  41.381  37.336   4.240
62095W        W27575  22.033  33.034   2.330
62096W        W27576   6.888  31.480   2.202
62097W        W27577  25.985  41.913   0.475
62098W        W27578  11.763  39.835  11.934
62099W        W27579  14.598   3.956  13.913
62100W        W27580  24.504  42.465   0.963
62101W        W27581  39.453  40.366  13.833
62102W        W27582  42.798  14.306   4.806
62103W        W27583  26.986  13.744   2.308
62104W        W27584  44.882  15.824  13.880
62105W        W27585  14.779   2.239  13.921
62106W        W27586  39.491  14.133  12.435
62107W        W27587  43.841  35.891  11.060
62108W        W27588  24.171  30.946  11.379
62109W        W27589  20.567   9.727  12.950
62110W        W27590  31.648  11.705   3.169
62111W        W27591   4.721   7.417   2.291
62112W        W27592  41.538  18.692   1.900
62113W        W27593  29.977   5.909   0.478
62114W        W27594   3.746  26.613  14.765
62115W        W27595  27.980   2.930  13.886
62116W        W27596  21.246  17.740  11.887
62117W        W27597   6.333  26.694   1.429
62118W        W27598  20.217  35.410  11.542
62119W        W27599   5.282  16.639   0.327
62120W        W27600  34.097  43.395   4.256
62121W        W27601  18.653  43.949   1.881
62122W        W27602   0.986   3.716  11.539
62123W        W27603  36.990   2.796  12.891
62124W        W27604  17.110  27.947  14.354
62125W        W27605   2.919  21.161  13.437
62126W        W27606  27.691  23.627   1.704
62127W        W27607   2.346   8.727  13.429
62128W        W27608  18.101   4.262  12.012
62129W        W27609  32.013  37.416   2.198
62130W        W27610  17.082  35.875   5.650
62131W        W27611  22.084  22.736   4.195
62132W        W27612  14.774  44.431  13.386
62133W        W27613   2.404  41.850  12.491
62134W        W27614  14.106  35.568   2.315
62135W        W27615  11.668  32.497   3.341
62136W        W27616  25.019  25.578  14.010
62137W        W27617  16.079  41.990   4.739
62138W        W27618   8.706  17.237   0.813
62139W        W27619   2.917  19.543  12.503
62140W        W27620  26.561  11.803   0.799
62141W        W27621  15.214  35.041   0.796
62142W        W27622   8.297  28.440   1.307
62143W        W27623   8.260   6.194   3.294
62144W        W27624  20.145  42.387  11.481
62145W        W27625   0.960   9.695  12.990
62146W        W27626   7.891  41.533  11.036
62147W        W27627  10.694   7.831  13.906
62148W        W27628  10.236   1.920  13.046
62149W        W27629   2.369  44.994   4.768
62150W        W27630  11.224  36.044   0.276
62151W        W27631   8.237   0.376  12.000
62152W        W27632   8.402  44.993   1.321
62153W        W27633  11.249  39.410  14.361
62154W        W27634   4.810  31.918   1.326
62155W        W27635  24.482  42.375   4.173
62156W        W27636   6.392  32.495  12.454
62157W        W27637  34.491  26.638   1.800
62158W        W27638  19.169   5.687  10.607
62159W        W27639   9.816  19.765   4.152
62160W        W27640  43.799  19.600   3.179
62161W        W27641  12.229  35.500  12.484
62162W        W27642  18.769  19.600   0.316
62163W        W27643  38.429  39.331  12.929
62164W        W27644  12.615  32.984   4.214
62165W        W27645  26.206  24.644  11.433
62166W        W27646  36.555  30.917  13.509
62167W        W27647  19.615  25.663  13.039
62168W        W27648  28.618   8.764   3.233
62169W        W27649  14.274  40.512  13.479
62170W        W27650  41.012  33.425  11.593
62171W        W27651  43.860   0.322   3.206
62172W        W27652  21.623   8.373  12.988
62173W        W27653   8.181  42.524  10.447
62174W        W27654  35.880  43.838   0.921
62175W        W27655  19.734  30.437  14.477
62176W        W27656   4.395   1.782   1.854
62177W        W27657  18.728   2.875  13.516
62178W        W27658  17.769   5.784  11.507
62179W        W27659  31.029  33.475   4.196
62180W        W27660  20.160  19.567  13.435
62181W        W27661  22.531   7.869  13.801
62182W        W27662  43.482  22.233   3.345
62183W        W27663  42.299  10.378  10.995
62184W        W27664   3.459   6.388  12.350
62185W        W27665  44.925  39.866  12.447
62186W        W27666  33.120  30.471   0.462
62187W        W27667   2.914  40.971  14.869
62188W        W27668  32.098  17.560  10.523
62189W        W27669  25.600   5.232  14.855
62190W        W27670  26.637  30.578   0.346
62191W        W27671  36.930  10.678  12.097
62192W        W27672  42.016  32.398  12.076
62193W        W27673   5.845  41.834   4.335
62194W        W27674  44.283   1.873  10.626
62195W        W27675  20.626  30.142   4.257
62196W        W27676  14.146  40.465   5.087
62197W        W27677  30.157  30.953  14.931
62198W        W27678  27.132   9.713  12.964
62199W        W27679  36.410  21.524  11.944
62200W        W27680   3.245   3.893  13.540
62201W        W27681  31.939  39.477   3.796
62202W        W27682  12.117  29.070   2.270
62203W        W27683  34.432  12.296  12.518
62204W        W27684  21.545  25.048  10.528
62205W        W27685  30.159  20.044  13.359
62206W        W27686  43.368  17.618   2.184
62207W        W27687  35.069  36.972   1.337
62208W        W27688  19.775  18.098  13.849
62209W        W27689  15.317  32.611   2.314
62210W        W27690  40.411  42.347  11.545
62211W        W27691  42.351  15.645   3.347
62212W        W27692  42.335  30.542  13.346
62213W        W27693  21.115   7.748   3.265
62214W        W27694  17.658  17.109  11.392
62215W        W27695  30.460   9.729  14.387
62216W        W27696   9.170  23.209  10.888
62217W        W27697  26.563  23.574   2.676
62218W        W27698  28.471  10.139   3.241
62219W        W27699  41.962  40.319   4.312
62220W        W27700  35.583  16.242   3.675
62221W        W27701  39.350  32.511  13.993
62222W        W27702  40.877  31.094  14.324
62223W        W27703  35.521  12.337  13.501
62224W        W27704  13.322  12.613  10.938
62225W        W27705   0.478  27.182   3.379
62226W        W27706  37.487  37.491   5.085
62227W        W27707  19.204   5.813  11.039
62228W        W27708  10.264  31.598  12.575
62229W        W27709  20.082  40.508  14.777
62230W        W27710  30.590  21.567  11.458
62231W        W27711   1.447  35.012  12.437
62232W        W27712   5.415  41.319   3.165
62233W        W27713  43.870   2.372   3.811
62234W        W27714  36.533  19.638  14.372
62235W        W27715  29.170  12.288  13.058
62236W        W27716  25.623   8.220  13.058
62237W        W27717  26.563  19.602   3.153
62238W        W27718  11.226  44.376  11.495
62239W        W27719  31.637   4.297   4.158
62240W        W27720   0.272   7.691   3.356
62241W        W27721  12.273  13.808   0.843
62242W        W27722  40.985  16.077  14.999
62243W        W27723  21.194  38.891   3.376
62244W        W27724  31.996   1.341   3.675
62245W        W27725   3.366  37.925   2.185
62246W        W27726   8.689   8.370   2.860
62247W        W27727   7.686  17.206  14.998
62248W        W27728  28.995  30.966   0.451
62249W        W27729  25.160  24.106   4.829
62250W        W27730  11.215  17.131  12.916
62251W        W27731  35.602  44.861   2.830
62252W        W27732  22.649  42.946  11.870
62253W        W27733  35.381  34.006   4.191
62254W        W27734  23.668  16.793   0.756
62255W        W27735  15.151  21.152  13.024
62256W        W27736  19.263  42.868   0.903
62257W        W27737  24.569  17.563  11.941
62258W        W27738  34.962   1.343  13.415
62259W        W27739  22.085  21.515   4.278
62260W        W27740  39.827  13.248   4.290
62261W        W27741  16.077  34.886   2.763
62262W        W27742  10.178  20.097   3.277
62263W        W27743   0.296  14.283  11.547
62264W        W27744  30.652  39.401  10.142
62265W        W27745  19.615  20.034  14.339
62266W        W27746  34.028   1.273   2.419
62267W        W27747  35.579  30.141  11.078
62268W        W27748  19.541  41.859  12.493
62269W        W27749   9.830  13.209  12.465
62270W        W27750  20.631  25.145  12.470
62271W        W27751  23.574  37.336  12.403
62272W        W27752  16.763  25.632  13.546
62273W        W27753  20.102   5.342   0.418
62274W        W27754  23.199  14.183  13.547
62275W        W27755  15.589   1.405  11.523
62276W        W27756  33.432   2.370  11.047
62277W        W27757  16.130  30.447  13.459
62278W        W27758  42.516  12.682   3.150
62279W        W27759  44.426  32.609  12.985
62280W        W27760  35.441  37.381   3.813
62281W        W27761  34.575  35.488  13.470
62282W        W27762   2.421  22.600  10.574
62283W        W27763   5.413   4.204   3.317
62284W        W27764  33.129  37.547   1.445
62285W        W27765  19.544  43.827  13.530
62286W        W27766  37.414   4.417  12.493
62287W        W27767   9.883  42.906   4.817
62288W        W27768  17.795  37.421  14.903
62289W        W27769   9.715  16.572  13.860
62290W        W27770  36.939  10.874   2.725
62291W        W27771  16.643  11.750   4.197
62292W        W27772  30.954  17.266   0.357
62293W        W27773  37.344  43.311   4.679
62294W        W27774  20.269  34.583   4.170
62295W        W27775  33.883  17.117   4.239
62296W        W27776   9.871  19.694   4.625
62297W        W27777  17.067  21.547   4.653
62298W        W27778  15.731  27.192  14.906
62299W        W27779  28.033   1.351  11.544
62300W        W27780   5.265  35.453  14.374
62301W        W27781  26.459  40.452   2.689
62302W        W27782   6.312  13.275   0.808
62303W        W27783  41.437  21.106   4.283
62304W        W27784  15.692   4.426  11.095
62305W        W27785  20.251   1.885   0.281
62306W        W27786  13.310  42.436   3.788
62307W        W27787  20.662   6.420   4.823
62308W        W27788  19.732  22.069   4.814
62309W        W27789  44.959   7.836   4.186
62310W        W27790  15.703  11.816  11.055
62311W        W27791  29.456  15.603  13.539
62312W        W27792   8.837  21.695  12.377
62313W        W27793   5.387  37.075  13.864
62314W        W27794  38.415  22.072  10.553
62315W        W27795  41.505  36.525   4.759
62316W        W27796  41.907  12.823   4.665
62317W        W27797  31.086  40.533  10.088
62318W        W27798  40.980  40.465  12.014
62319W        W27799  20.270   3.395   5.107
62320W        W27800  14.768  22.016  13.911
62321W        W27801  10.747   2.804  13.317
62322W        W27802  39.005  28.656   1.228
62323W        W27803  43.975  19.651   3.792
62324W        W27804  28.636  35.568   2.695
62325W        W27805  21.112   0.759  13.326
62326W        W27806   5.868  22.998  12.525
62327W        W27807  38.911  33.942  14.322
62328W        W27808   4.263  35.552  12.829
62329W        W27809  35.979   3.821  12.371
62330W        W27810  25.121  37.501  10.429
62331W        W27811  15.577  14.735   3.281
62332W        W27812  26.662  12.723  12.038
62333W        W27813  30.528  23.175   2.874
62334W        W27814  17.271  23.056   0.819
62335W        W27815  23.698  39.011  14.945
62336W        W27816  11.681  23.106   2.191
62337W        W27817   8.168  25.627   4.281
62338W        W27818   5.396  35.593  13.894
62339W        W27819  20.707  34.087  13.450
62340W        W27820  42.434   6.268  14.949
62341W        W27821  17.168  37.515  10.989
62342W        W27822  35.860   4.818   9.980
62343W        W27823  31.960  31.015  14.354
62344W        W27824  33.511   8.775  13.456
62345W        W27825  43.773  31.541   1.433
62346W        W27826   2.939   3.285  14.502
62347W        W27827  25.046  20.100   4.785
62348W        W27828  30.028  14.259   1.306
62349W        W27829  41.987   7.773   4.796
62350W        W27830   0.902  39.369  12.984
62351W        W27831  28.472  43.799  12.389
62352W        W27832  41.946  41.462   0.474
62353W        W27833  42.001  32.031   4.242
62354W        W27834  35.368  13.120   1.254
62355W        W27835  42.921  16.183   0.435
62356W        W27836  40.918  12.728   0.947
62357W        W27837  37.488  12.809  13.053
62358W        W27838   3.920  15.715   4.313
62359W        W27839  30.000  27.516  12.580
62360W        W27840  39.866  23.732   3.321
62361W        W27841  40.016  25.152  14.783
62362W        W27842  36.870  39.422  14.896
62363W        W27843  17.744   4.885  13.491
62364W        W27844  35.506  19.730  13.539
62365W        W27845  26.139  25.131  14.460
62366W        W27846  34.895   6.200  11.867
62367W        W27847  44.323  22.501  10.543
62368W        W27848  38.344   2.912   4.169
62369W        W27849  24.079  20.111   2.361
62370W        W27850  20.031  30.456   3.357
62371W        W27851  33.007   4.859   2.888
62372W        W27852   2.842  13.244   0.950
62373W        W27853  12.201  30.424  11.863
62374W        W27854  11.765  44.799  13.822
62375W        W27855  16.205  33.519  13.542
62376W        W27856  17.077   1.480  10.895
62377W        W27857  38.441  18.579   1.384
62378W        W27858  26.563  15.680  13.314
62379W        W27859  30.519  27.066  12.474
62380W        W27860  38.963  34.439  14.763
62381W        W27861  28.002  23.610  10.934
62382W        W27862   9.262   1.301  13.984
62383W        W27863   5.265   2.251  10.994
62384W        W27864  35.000   6.922   1.931
62385W        W27865  11.147  26.554   4.320
62386W        W27866   4.794  42.024   0.798
62387W        W27867  21.729   1.341  14.940
62388W        W27868  38.422   5.397  14.780
62389W        W27869   1.463  40.320  11.511
62390W        W27870  39.398  22.138  14.436
62391W        W27871  30.002  27.598   3.817
62392W        W27872  40.307  23.201  12.547
62393W        W27873   8.160  39.008   3.259
62394W        W27874  40.850  30.562  11.593
62395W        W27875  34.509  20.762  13.927
62396W        W27876   1.399   3.848  12.012
62397W        W27877  20.586  31.898  12.036
62398W        W27878  44.490  43.515   0.963
62399W        W27879  15.247  35.503  13.538
62400W        W27880  21.636   3.361  14.290
62401W        W27881   5.228  12.299  13.429
62402W        W27882  10.769  11.272  14.983
62403W        W27883   7.799  26.068  11.913
62404W        W27884  24.192  20.530  14.474
62405W        W27885  35.481  13.727  13.909
62406W        W27886  41.309  28.492   2.387
62407W        W27887  34.470  17.086  14.000
62408W        W27888  23.698  35.939  13.844
62409W        W27889   6.208  10.710  11.088
62410W        W27890  33.520  28.082   1.379
62411W        W27891   5.361  12.648   3.278
62412W        W27892  34.533  29.938   2.846
62413W        W27893   4.296  26.014  13.372
62414W        W27894  39.902   9.646   1.344
62415W        W27895  17.129  44.497   0.784
62416W        W27896   6.379   9.355  14.431
62417W        W27897  30.571  40.328  13.939
62418W        W27898  30.571  22.620   2.356
62419W        W27899  15.091  30.578   0.272
62420W        W27900  11.303  17.286  12.061
62421W        W27901  19.686  16.156  14.917
62422W        W27902   4.231   5.251   0.946
62423W        W27903  25.709  37.402   3.635
62424W        W27904  15.801  18.767  12.437
62425W        W27905  22.187  11.804   4.723
62426W        W27906  18.712  22.013  12.836
62427W        W27907  39.932  44.408   2.339
62428W        W27908  23.550  10.240  13.478
62429W        W27909  30.638   6.685   0.440
62430W        W27910  22.538  13.804   2.239
62431W        W27911  26.457  40.488  11.079
62432W        W27912  37.855   3.719  13.807
62433W        W27913  22.208  26.502  14.410
62434W        W27914  29.026  37.991  11.444
62435W        W27915  40.373   9.647  14.281
62436W        W27916  35.452  15.683   3.338
62437W        W27917  39.445  22.548   1.696
62438W        W27918  26.087   6.394  14.300
62439W        W27919  21.133  29.141   0.730
62440W        W27920  14.196  37.936   4.131
62441W        W27921  29.457  38.949  11.423
62442W        W27922  35.594  41.856   1.305
62443W        W27923  16.292  31.494  13.431
62444W        W27924  19.185  28.681   1.302
62445W        W27925   1.418  33.980   1.759
62446W        W27926  20.729  31.419   3.344
62447W        W27927   4.753  27.952  10.996
62448W        W27928  29.134  18.723  10.419
62449W        W27929  43.273   4.745  13.883
62450W        W27930  40.884  20.126   5.272
62451W        W27931  21.205  43.296  12.824
62452W        W27932   7.280  35.592  13.008
62453W        W27933   4.725   6.193   5.219
62454W        W27934  14.141  34.097   1.882
62455W        W27935  29.010  43.409  12.384
62456W        W27936   2.730  39.882   0.808
62457W        W27937  16.576  25.667  14.297
62458W        W27938  19.569  38.052   4.286
62459W        W27939  18.190  17.788   1.230
62460W        W27940  26.062  14.755   3.841
62461W        W27941   8.656   4.823   4.196
62462W        W27942  21.161  28.064   2.692
62463W        W27943  34.975  36.888   4.682
62464W        W27944  18.551  15.717   4.271
62465W        W27945  31.537  21.527   3.327
62466W        W27946  10.654   8.361   4.824
62467W        W27947   0.807  17.294  13.797
62468W        W27948  40.920  12.283   1.846
62469W        W27949   5.746  33.507  14.844
62470W        W27950  12.826  25.700   5.249
62471W        W27951   2.337  34.999   3.732
62472W        W27952  30.098  10.798  10.597
62473W        W27953  15.262  32.425   3.255
62474W        W27954  42.833  30.978   4.618
62475W        W27955  25.088  19.559   2.896
62476W        W27956  37.845  35.548   0.312
62477W        W27957  29.136   9.882   1.797
62478W        W27958   6.312  12.842   0.933
62479W        W27959  30.617   2.925   3.797
62480W        W27960  30.917  39.369  12.548
62481W        W27961   1.402  34.431  12.951
62482W        W27962  27.629  14.143   2.183
62483W        W27963  30.139   6.723  14.010
62484W        W27964   7.251  22.151  13.492
62485W        W27965  17.114  22.125  13.455
62486W        W27966  10.648  27.108   0.789
62487W        W27967  34.415  33.978  12.467
62488W        W27968  31.990  31.140  10.450
62489W        W27969  43.407  18.699  14.028
62490W        W27970  15.123  21.204  13.849
62491W        W27971  40.526  14.166   9.995
62492W        W27972   9.214  31.604  12.833
62493W        W27973  27.197  18.099   1.897
62494W        W27974  19.266  22.143  11.573
62495W        W27975  15.745  40.474  13.854
62496W        W27976  44.850  40.347   1.792
62497W        W27977  20.561   8.262  12.477
62498W        W27978   0.961  37.990  11.509
62499W        W27979  19.664   5.819  11.012
62500W        W27980  21.195  41.022  10.905
62501W        W27981   8.877   4.807   3.163
62502W        W27982   0.938  43.484  12.940
62503W        W27983  41.035  18.276   4.813
62504W        W27984  20.100  31.113  14.473
62505W        W27985  12.141  29.634   0.754
62506W        W27986  38.884   9.804  13.937
62507W        W27987  40.839   3.950  14.288
62508W        W27988   9.848  11.669  14.292
62509W        W27989  41.795  41.871   0.315
62510W        W27990   9.335  16.161  14.365
62511W        W27991  25.499  35.601  12.339
62512W        W27992   9.737  21.185   3.634
62513W        W27993  21.694  22.566  13.821
62514W        W27994  18.133  15.650  13.541
62515W        W27995  28.069  11.801   0.881
62516W        W27996  25.477   7.881   3.781
62517W        W27997  15.200  13.724   3.642
62518W        W27998  23.061  16.193   1.356
62519W        W27999  29.971   9.776   3.662
62520W        W28000   0.758  14.741   2.854
62521W        W28001  10.153  25.537   4.752
62522W        W28002   3.422  17.584   3.771
62523W        W28003  22.252  27.181  11.466
62524W        W28004  37.401   9.371  11.423
62525W        W28005  28.673  44.767   1.758
62526W        W28006   9.181  29.104   2.287
62527W        W28007  27.467  17.231   2.321
62528W        W28008  42.945  16.073   1.300
62529W        W28009  21.717  35.927   3.166
62530W        W28010  27.464  37.976  14.393
62531W        W28011   4.412  15.177   3.707
62532W        W28012   2.397  42.337   1.791
62533W        W28013   1.967  14.227  14.821
62534W        W28014  43.863  37.989  12.366
62535W        W28015  24.981  37.993   3.749
62536W        W28016  29.961  29.654   2.276
62537W        W28017  42.297   9.352   3.715
62538W        W28018  16.096   6.265  10.123
62539W        W28019   5.249  26.612  10.521
62540W        W28020   0.867   6.293  14.776
62541W        W28021   9.765  18.680   2.342
62542W        W28022  21.048  29.535   4.646
62543W        W28023   4.890   9.836  12.437
62544W        W28024  36.959   3.774   2.348
62545W        W28025   7.371  30.488  12.009
62546W        W28026   8.183  25.090  14.917
62547W        W28027  37.030  38.926  11.111
62548W        W28028  42.301  42.416   2.415
62549W        W28029  44.795  24.014   1.321
62550W        W28030  41.464  42.869  12.874
62551W        W28031   0.345  37.503  13.500
62552W        W28032  17.248  27.594   3.290
62553W        W28033  30.139   7.209  11.065
62554W        W28034  42.418   4.373  14.924
62555W        W28035  17.183  11.238  14.446
62556W        W28036  24.198   7.383  13.980
62557W        W28037   9.815   1.340  11.857
62558W        W28038  31.057  11.629  10.596
62559W        W28039  27.493  36.426  13.010
62560W        W28040  34.050   0.317   4.349
62561W        W28041  38.414  28.003  10.521
62562W        W28042  25.600   3.795   0.446
62563W        W28043  39.493   7.832  10.997
62564W        W28044  34.077  41.871  14.392
62565W        W28045   2.743  24.612   3.386
62566W        W28046   0.985   1.322   2.844
62567W        W28047  41.940  40.381   2.217
62568W        W28048  24.601  36.486   4.636
62569W        W28049  10.769  29.553   2.302
62570W        W28050  35.564  28.647   0.858
62571W        W28051   9.296   3.860  10.517
62572W        W28052  23.637  28.040   3.704
62573W        W28053  36.897  41.371   3.829
62574W        W28054  30.627  16.587   0.741
62575W        W28055  29.013   4.435   0.377
62576W        W28056   8.234  33.898   1.367
62577W        W28057  29.942  19.267   2.829
62578W        W28058  38.433  34.112  12.974
62579W        W28059  17.797  16.193   5.299
62580W        W28060  23.058  42.856   1.325
62581W        W28061  42.315  39.897  11.553
62582W        W28062  10.657  42.487   2.397
62583W        W28063   8.317  31.472   1.232
62584W        W28064   2.942  23.179  11.024
62585W        W28065  14.611  38.885  13.380
62586W        W28066  14.230  37.881   1.804
62587W        W28067  26.082   4.361  13.957
62588W        W28068   6.688  11.203  13.890
62589W        W28069  33.507  14.741  12.839
62590W        W28070  42.469  37.374  11.582
62591W        W28071  36.534  20.198  14.316
62592W        W28072   6.898  26.123   0.265
62593W        W28073  27.185   0.831  13.349
62594W        W28074  34.027  29.051   3.677
62595W        W28075  40.352  28.547   3.162
62596W        W28076  17.067  32.608  10.065
62597W        W28077  15.207  38.381   4.773
62598W        W28078   5.396  37.921   0.808
62599W        W28079  17.606   4.889   3.686
62600W        W28080   3.263  23.547   3.372
62601W        W28081  12.656  39.446  12.558
62602W        W28082  34.568  41.847  14.796
62603W        W28083  38.441  32.092   5.128
62604W        W28084  42.281  15.654   3.752
62605W        W28085  17.627   2.229  13.357
62606W        W28086  17.188  21.564  10.956
62607W        W28087  27.990   6.280   4.152
62608W        W28088  25.051   2.270  10.897
62609W        W28089   9.267  14.263   2.281
62610W        W28090  32.889  30.982   0.808
62611W        W28091  35.598  25.116  13.382
62612W        W28092  21.159  20.214   4.664
62613W        W28093  36.878  33.626  11.954
62614W        W28094  21.666  29.950   1.310
62615W        W28095  40.522  26.509  12.965
62616W        W28096  19.104   3.311   4.179
62617W        W28097  41.841  43.402   0.408
62618W        W28098  25.016   5.207   1.403
62619W        W28099  30.622   0.750  12.035
62620W        W28100  32.029  41.810  14.996
62621W        W28101  41.352  12.363   1.415
62622W        W28102   3.911  40.926   1.903
62623W        W28103  38.068  26.999   2.416
62624W        W28104  43.366  20.129   1.929
62625W        W28105  40.436  25.588  12.978
62626W        W28106  34.976  23.504   2.872
62627W        W28107   2.819  17.194  11.410
62628W        W28108   4.746   0.436   3.173
62629W        W28109  37.988  15.284   2.408
62630W        W28110  22.633  29.466  10.983
62631W        W28111  19.123   3.451   1.739
62632W        W28112  38.994  30.596  12.488
62633W        W28113  40.888  32.623   1.230
62634W        W28114  26.652  40.306   3.704
62635W        W28115  20.558   4.811  13.014
62636W        W28116   7.696   4.288   4.350
62637W        W28117  20.077   6.201   0.966
62638W        W28118  39.515  18.118  10.446
62639W        W28119  44.007  40.317  14.274
62640W        W28120  12.843  29.498   4.127
62641W        W28121   2.837  17.178  12.069
62642W        W28122  40.987  17.563   5.279
62643W        W28123  14.712  25.182   2.837
62644W        W28124  38.349  39.399   3.762
62645W        W28125  34.469  37.943  10.626
62646W        W28126  18.072  18.606  11.055
62647W        W28127  13.621  34.887   4.820
62648W        W28128  23.491  43.859  11.574
62649W        W28129  30.144  37.887  12.087
62650W        W28130  11.364  37.505  11.993
62651W        W28131  27.174  12.696  14.479
62652W        W28132  16.751  12.737  12.979
62653W        W28133  36.463  18.566  13.991
62654W        W28134  42.452  28.652   0.363
62655W        W28135  36.895   7.206   4.703
62656W        W28136  36.436  24.026  10.969
62657W        W28137  13.246  13.291   4.217
62658W        W28138  28.550  31.569   1.406
62659W        W28139  43.342  22.705   0.917
62660W        W28140  11.791   6.800   3.718
62661W        W28141  15.759  32.499   1.804
62662W        W28142  24.557  21.556  13.845
62663W        W28143  37.457  24.108   4.709
62664W        W28144   6.887   7.236   2.377
62665W        W28145  24.095  30.945   4.669
62666W        W28146  12.274   3.343   2.307
62667W        W28147  18.770  21.258  12.884
62668W        W28148  16.727  11.228  11.517
62669W        W28149  42.796  32.417  13.989
62670W        W28150  33.593  36.515  13.367
62671W        W28151  37.066  16.097   4.349
62672W        W28152  28.186   0.822   4.148
62673W        W28153  20.714  27.006  10.048
62674W        W28154   2.319  21.642  10.434
62675W        W28155  12.786  37.434  13.530
62676W        W28156  22.512   6.376   3.652
62677W        W28157  25.060  42.509  12.401
62678W        W28158  35.090  31.426  10.474
62679W        W28159   9.251  26.591   1.761
62680W        W28160   4.766  27.193  13.320
62681W        W28161   9.837  10.326   1.807
62682W        W28162   7.373  34.004   3.672
62683W        W28163  13.639  25.556  13.853
62684W        W28164   0.986   7.361   2.716
62685W        W28165   8.779   4.226  13.389
62686W        W28166  20.613  15.714   3.708
62687W        W28167  28.061  13.604   4.624
62688W        W28168  44.478  19.109  13.975
62689W        W28169   7.698  23.594  13.904
62690W        W28170  24.982   2.285  13.484
62691W        W28171  18.052  15.101   3.319
62692W        W28172  31.010  11.368  12.856
62693W        W28173  10.822  17.606   3.163
62694W        W28174  33.971  19.683   0.829
62695W        W28175  27.649  19.628   0.812
62696W        W28176  40.447   9.281  12.985
62697W        W28177   8.897   1.359   3.281
62698W        W28178  32.531  11.672  14.817
62699W        W28179   6.713  44.416   2.399
62700W        W28180  25.469  26.044   1.287
62701W        W28181  26.991   7.232  11.920
62702W        W28182  39.487   0.480   4.349
62703W        W28183  35.976  13.653  11.407
62704W        W28184  35.402  34.867  14.786
62705W        W28185   7.273  26.973  10.947
62706W        W28186  15.768  10.689  14.893
62707W        W28187  40.810  36.899   2.300
62708W        W28188  44.326  18.203   0.866
62709W        W28189  44.481   0.928   2.735
62710W        W28190  35.472   6.368  12.537
62711W        W28191  17.142  34.579   2.698
62712W        W28192  25.081  15.312   2.767
62713W        W28193   5.799  19.225   1.708
62714W        W28194   4.305   3.285  10.604
62715W        W28195  23.082  26.959   1.242
62716W        W28196  28.454  18.206   3.805
62717W        W28197   7.726  26.700  11.537
62718W        W28198  38.937  28.146   1.441
62719W        W28199   3.338  28.176   5.191
62720W        W28200   8.685  21.018   3.658
62721W        W28201  25.103  20.054   2.215
62722W        W28202  33.470  42.852   2.294
62723W        W28203  12.760  36.395  11.456
62724W        W28204   2.341  14.279  12.011
62725W        W28205  20.551  14.134   3.251
62726W        W28206  38.435  40.413   4.256
62727W        W28207  30.954  38.516   0.914
62728W        W28208  37.994  21.561   2.383
62729W        W28209  41.795  23.627   9.950
62730W        W28210  10.874  13.303  11.936
62731W        W28211  39.836  29.174  14.831
62732W        W28212  35.482   9.809  11.456
62733W        W28213  15.810  20.038  14.395
62734W        W28214   0.745  32.127   0.872
62735W        W28215  19.557  14.714   4.160
62736W        W28216   5.434  14.337  11.945
62737W        W28217  29.622  31.630  13.040
62738W        W28218   6.864  19.567   5.302
62739W        W28219  17.677  35.051   0.270
62740W        W28220  38.388  44.840  13.460
62741W        W28221  24.990   7.768   2.216
62742W        W28222   2.388  44.374  14.794
62743W        W28223  10.142  41.980   3.193
62744W        W28224  36.093  29.980  12.917
62745W        W28225   6.915   5.921  12.900
62746W        W28226   7.347  28.618   0.257
62747W        W28227   6.303   9.689   4.186
62748W        W28228  28.663  31.056   0.346
62749W        W28229  26.095  11.831   3.313
62750W        W28230  43.958  14.260  13.857
62751W        W28231  40.894  39.318   4.647
62752W        W28232  36.363   5.825  14.805
62753W        W28233  44.832  33.890  12.399
62754W        W28234  10.364   6.898   1.793
62755W        W28235  42.985  41.900  13.904
62756W        W28236  43.929   5.850   3.369
62757W        W28237   3.365  35.917   2.279
62758W        W28238   3.409  36.365  13.388
62759W        W28239  19.052  14.828  12.384
62760W        W28240  44.270  44.314   4.229
62761W        W28241  26.065  23.551  13.803
62762W        W28242  31.954  29.921  10.472
62763W        W28243  18.122  26.550   2.786
62764W        W28244   4.242  36.401   0.803
62765W        W28245  13.258  38.986  14.411
62766W        W28246  42.327  37.056  10.483
62767W        W28247   4.364  10.227  14.461
62768W        W28248   2.922  35.897  14.329
62769W        W28249  36.084   3.800  13.871
62770W        W28250  28.647  39.536  12.501
62771W        W28251   2.296  43.934   4.194
62772W        W28252   9.778   4.221  11.529
62773W        W28253  28.537  40.846  10.455
62774W        W28254  29.583  37.000   0.768
62775W        W28255  32.124  22.112  10.529
62776W        W28256  15.652  14.108  12.362
62777W        W28257  26.097   1.466   1.862
62778W        W28258  11.741  25.990  12.006
62779W        W28259  31.124   4.879   3.808
62780W        W28260  35.563  26.008   0.393
62781W        W28261   2.823   5.702  13.810
62782W        W28262  35.597  21.246   1.764
62783W        W28263  40.305  15.713  14.768
62784W        W28264  14.106  41.882  12.958
62785W        W28265  14.189  32.960   2.771
62786W        W28266  14.179  31.115  12.829
62787W        W28267  11.251  23.495  14.870
62788W        W28268  42.487   8.894   0.895
62789W        W28269   8.338  42.488   2.410
62790W        W28270   7.740   9.236   1.733
62791W        W28271  27.627  25.197   1.447
62792W        W28272  24.675   7.248  12.873
62793W        W28273  28.503  40.486   0.873
62794W        W28274  11.137  12.351   3.367
62795W        W28275   0.907  13.147  14.483
62796W        W28276   9.884  20.115   3.384
62797W        W28277  32.580  26.593  10.424
62798W        W28278   7.346  23.127  13.394
62799W        W28279   0.483   8.267  13.966
62800W        W28280  44.384  16.722   0.336
62801W        W28281  43.446   2.399  11.389
62802W        W28282   2.828  24.140   2.851
62803W        W28283  23.062  43.768  10.921
62804W        W28284  27.633  12.707  14.372
62805W        W28285  38.980  31.587   1.214
62806W        W28286  37.454  40.913   2.862
62807W        W28287  44.756   6.331   1.447
62808W        W28288  39.341  25.056  10.980
62809W        W28289  12.243  30.599   0.288
62810W        W28290   1.803  35.879  12.961
62811W        W28291  17.232  18.599   4.660
62812W        W28292  44.273   2.330  11.940
62813W        W28293  21.163  32.556   2.339
62814W        W28294  26.494   9.720  13.837
62815W        W28295   7.851  10.238  12.059
62816W        W28296  12.735   0.754  10.438
62817W        W28297  27.022  13.244   0.960
62818W        W28298   5.269  39.317  11.534
62819W        W28299  20.265  25.687  11.104
62820W        W28300  21.129  36.076  13.918
62821W        W28301  28.099  34.072  11.858
62822W        W28302  30.034  33.475   1.817
62823W        W28303  30.948   1.809   3.369
62824W        W28304   4.901  30.492  11.533
62825W        W28305  34.404  14.333   4.782
62826W        W28306   9.707  24.089  12.840
62827W        W28307   1.392   0.845  13.806
62828W        W28308   0.939  44.987   4.228
62829W        W28309  29.135  14.233  12.422
62830W        W28310  44.924  28.036   2.361
62831W        W28311   3.443  36.489   1.379
62832W        W28312   2.310   9.831   2.224
62833W        W28313  26.696  30.908   0.954
62834W        W28314  30.118   3.446   3.751
62835W        W28315   3.250   9.283  13.428
62836W        W28316   5.427  17.199   4.688
62837W        W28317  38.427   4.234  14.861
62838W        W28318   0.454  44.421  13.522
62839W        W28319  13.166  40.529   0.885
62840W        W28320   3.409  15.694  11.394
62841W        W28321   8.875  39.318  14.919
62842W        W28322  11.845  18.093  12.884
62843W        W28323  34.104  13.200  14.980
62844W        W28324  17.198  30.055  10.580
62845W        W28325  17.273  41.935  13.010
62846W        W28326  18.762   7.845  12.087
62847W        W28327   3.801  32.454   0.366
62848W        W28328  29.093  21.072   4.690
62849W        W28329   9.261   8.300   4.227
62850W        W28330  29.097  10.858   2.747
62851W        W28331  44.972  31.408   0.793
62852W        W28332  21.053  11.742  11.565
62853W        W28333  27.477   4.379  14.370
62854W        W28334   2.966  33.413   3.163
62855W        W28335  17.252   1.864   0.856
62856W        W28336  24.604  24.485   3.663
62857W        W28337  33.481  23.560  14.957
62858W        W28338  15.249  38.987   2.307
62859W        W28339   5.909  30.027   0.879
62860W        W28340  30.611  40.987  14.889
62861W        W28341  23.511  23.226  12.954
62862W        W28342  15.616  31.480  10.092
62863W        W28343   1.759  21.087   5.167
62864W        W28344  12.639  37.982   2.179
62865W        W28345  28.140  10.220   1.933
62866W        W28346  18.583   3.825  14.364
62867W        W28347  22.647  36.985  12.518
62868W        W28348   0.796  40.888   1.269
62869W        W28349  10.193  16.727   2.774
62870W        W28350  14.654  14.101  13.035
62871W        W28351  12.785  12.849  13.425
62872W        W28352  14.304  36.086   2.229
62873W        W28353  44.874  25.033   3.271
62874W        W28354   6.340  42.925  11.467
62875W        W28355  17.264  39.053   5.311
62876W        W28356  14.151   9.355  10.584
62877W        W28357  25.102  33.052   0.259
62878W        W28358  12.296  14.754  11.950
62879W        W28359   4.268  31.922  10.638
62880W        W28360  33.920  31.010   3.820
62881W        W28361  37.496  21.212  14.512
62882W        W28362   1.796  23.216  13.062
62883W        W28363  35.963  39.314  14.985
62884W        W28364  26.658  25.638   5.171
62885W        W28365  33.468  29.567   3.296
62886W        W28366  44.901  13.750   4.122
62887W        W28367   6.773  35.488  11.118
62888W        W28368   2.240  12.198  11.373
62889W        W28369  16.609  32.637  14.891
62890W        W28370  29.602  35.901   4.282
62891W        W28371  22.592  25.050  10.407
62892W        W28372  38.393   5.810  14.864
62893W        W28373  32.058  26.564  10.521
62894W        W28374  35.603  23.984   1.359
62895W        W28375   8.655  37.557  12.518
62896W        W28376  11.334  44.404  11.123
62897W        W28377  21.732  44.460   3.211
62898W        W28378  37.043  34.521   0.481
62899W        W28379  13.163  13.655   9.947
62900W        W28380  11.202   8.382   0.767
62901W        W28381   8.216   7.758   3.870
62902W        W28382   8.819  33.469  14.461
62903W        W28383  14.597   2.862  12.450
62904W        W28384  17.763  22.100  13.490
62905W        W28385   7.798  23.579   3.207
62906W        W28386  37.896  30.543   9.977
62907W        W28387  21.709  36.968   4.337
62908W        W28388  17.125   5.708   4.831
62909W        W28389   8.825  13.641   0.911
62910W        W28390  17.575  42.798  11.920
62911W        W28391  11.220  17.248   3.255
62912W        W28392  43.005  38.536   1.366
62913W        W28393  43.375  39.833   1.386
62914W        W28394  29.932  29.949  14.997
62915W        W28395  14.323  30.940  10.532
62916W        W28396  22.586  43.404  10.441
62917W        W28397  29.478  17.785   0.382
62918W        W28398  41.406  12.147   2.242
62919W        W28399  44.329   8.206  11.560
62920W        W28400  25.695  44.967  13.468
62921W        W28401  11.793  44.846  14.877
62922W        W28402  29.065   8.335  13.525
62923W        W28403  14.115  38.345   4.165
62924W        W28404  32.458  35.504  12.554
62925W        W28405  39.977  36.515  14.435
62926W        W28406  24.664  28.177   3.758
62927W        W28407  41.316  33.031   0.423
62928W        W28408   4.305  28.144  12.002
62929W        W28409  23.496  21.687  13.004
62930W        W28410  34.421  11.144  13.985
62931W        W28411  31.140  14.215  10.149
62932W        W28412  43.771  39.518   3.847
62933W        W28413  16.212  23.622   1.760
62934W        W28414  25.005  35.395   0.297
62935W        W28415  25.197  30.582   0.818
62936W        W28416  37.453  10.875   2.273
62937W        W28417   7.728  31.996   5.322
62938W        W28418  25.554  18.650   2.806
62939W        W28419  19.761  12.178   2.330
62940W        W28420  18.250  10.696   0.820
62941W        W28421   9.670  33.046  14.321
62942W        W28422  32.071  22.038   4.137
62943W        W28423   4.861   2.378  13.463
62944W        W28424  25.183   0.964   0.264
62945W        W28425   4.220  34.524  12.979
62946W        W28426  17.235  26.118   0.404
62947W        W28427  26.659  28.933  10.929
62948W        W28428  42.792   0.849  13.330
62949W        W28429  34.489  31.900  14.822
62950W        W28430  15.126  10.145  12.416
62951W        W28431  24.679  43.369   1.860
62952W        W28432  24.606  20.691   2.679
62953W        W28433  27.044  37.907   3.771
62954W        W28434  30.074  30.011  12.362
62955W        W28435  44.328  44.998   2.688
62956W        W28436  11.691  12.134  12.011
62957W        W28437  29.071  37.945   0.264
62958W        W28438  10.248  35.898  10.403
62959W        W28439  20.078  30.564  12.824
62960W        W28440   8.181  32.436   3.335
62961W        W28441   8.171  25.978  10.498
62962W        W28442  27.580  28.948   4.642
62963W        W28443  22.058  37.512  11.470
62964W        W28444   7.699  12.640   3.798
62965W        W28445  22.193  28.136  11.973
62966W        W28446  35.534  20.722  14.999
62967W        W28447  15.148   0.359   2.325
62968W        W28448   6.419  11.149  14.802
62969W        W28449   5.863  27.452   4.281
62970W        W28450  12.185   8.837   1.388
62971W        W28451  29.424  32.570   1.266
62972W        W28452  31.082  21.694  14.435
62973W        W28453  29.436  27.564  11.030
62974W        W28454  18.059  20.592   1.813
62975W        W28455  12.132  30.586  12.398
62976W        W28456  40.053  37.499   3.275
62977W        W28457  35.025  28.941  10.111
62978W        W28458  44.943  31.945   2.787
62979W        W28459  38.465  16.165   1.935
62980W        W28460  43.873  16.599   3.698
62981W        W28461  32.127  36.524   3.648
62982W        W28462   9.378  22.160  13.903
62983W        W28463   7.799  10.860  13.884
62984W        W28464   9.310  12.731   1.708
62985W        W28465  17.130  21.104  11.547
62986W        W28466  24.582  25.059   0.479
62987W        W28467  10.757  18.673  13.927
62988W        W28468  26.008  10.741   0.434
62989W        W28469   8.380  10.289   0.928
62990W        W28470  25.560  40.815  11.382
62991W        W28471  34.926  33.615   4.705
62992W        W28472  34.441  16.804   3.696
62993W        W28473  27.526  40.923   1.435
62994W        W28474  12.758  13.616  11.404
62995W        W28475  16.809   1.272  13.486
62996W        W28476  14.678  31.915   3.639
62997W        W28477   8.390  30.654  12.576
62998W        W28478  41.424  13.194  11.496
62999W        W28479  30.051  39.938   2.861
63000W        W28480   4.285  40.445   0.477
63001W        W28481  31.577  27.691  11.021
63002W        W28482   4.222  13.825   0.816
63003W        W28483  10.155  40.029  10.588
63004W        W28484  18.116   4.244  14.398
63005W        W28485  19.647  35.435  10.643
63006W        W28486  10.282   5.377  11.420
63007W        W28487  15.777  13.756  13.346
63008W        W28488   8.744  19.086   3.802
63009W        W28489  31.577   6.356  13.884
63010W        W28490   7.295   9.347  11.989
63011W        W28491   5.231   5.836  14.835
63012W        W28492  14.611  17.559  12.358
63013W        W28493   1.432  41.473  13.991
63014W        W28494   2.773  27.575   3.795
63015W        W28495  40.472  20.109   2.408
63016W        W28496  21.130   4.246   1.246
63017W        W28497  12.704   2.469  11.097
63018W        W28498   3.282  12.212  10.466
63019W        W28499  27.998  25.994  12.574
63020W        W28500  32.475  20.743   2.889
63021W        W28501  13.279  18.277   1.825
63022W        W28502  31.949  11.271   1.879
63023W        W28503  42.407  26.090   4.331
63024W        W28504  42.445   7.248  14.794
63025W        W28505  13.789  33.547   9.921
63026W        W28506   1.265  13.642   0.759
63027W        W28507  26.076  12.228  14.880
63028W        W28508  33.954  34.962   0.348
63029W        W28509  34.872  15.186  13.497
63030W        W28510  11.176  33.023   1.412
63031W        W28511  17.564   0.976  13.480
63032W        W28512  36.962  34.022   1.312
63033W        W28513  18.168  40.419  10.472
63034W        W28514  23.669  35.972  12.907
63035W        W28515  42.798  21.240  12.420
63036W        W28516  36.472  23.517  11.941
63037W        W28517  38.507   8.667   3.832
63038W        W28518  17.084  43.936   2.333
63039W        W28519  10.759  22.740   4.305
63040W        W28520  41.366  23.726   2.411
63041W        W28521   3.395  42.296   1.406
63042W        W28522  21.633  40.850  13.498
63043W        W28523  43.438  44.000  10.962
63044W        W28524  26.659  28.091   3.263
63045W        W28525  43.390  25.559  13.512
63046W        W28526  44.770   6.219  14.469
63047W        W28527  39.027  35.933  11.967
63048W        W28528  24.009  41.899  12.407
63049W        W28529   8.779  15.725  13.057
63050W        W28530  31.489   8.879  12.922
63051W        W28531   5.867   6.197  12.047
63052W        W28532  43.977   3.953   0.263
63053W        W28533  25.077  36.512  14.021
63054W        W28534   2.895  18.557  11.054
63055W        W28535   0.265   6.334   3.661
63056W        W28536   0.307   1.247  13.415
63057W        W28537  36.042  36.442  10.923
63058W        W28538   6.227  33.597  10.531
63059W        W28539   0.273   2.796  11.038
63060W        W28540  24.491   3.905   0.317
63061W        W28541  14.158  42.309   1.235
63062W        W28542  35.101  14.196  13.548
63063W        W28543  14.810   4.807   2.183
63064W        W28544  33.885  40.959   4.766
63065W        W28545  19.145   6.688   0.822
63066W        W28546  19.045  27.984  11.577
63067W        W28547  29.117  11.178  13.848
63068W        W28548  39.890  43.909   4.142
63069W        W28549  11.293  21.242   2.662
63070W        W28550  42.943  41.430  11.077
63071W        W28551  17.635  11.864   1.404
63072W        W28552  19.118  11.742  14.782
63073W        W28553  34.553  27.580  13.060
63074W        W28554  27.132  23.605   3.271
63075W        W28555  44.431  34.886   1.251
63076W        W28556   1.956  10.183   4.659
63077W        W28557   0.799  43.285   1.242
63078W        W28558  12.655  15.191  12.408
63079W        W28559  24.190  24.584  13.049
63080W        W28560  16.762  40.807   2.772
63081W        W28561  24.131  19.079   1.296
63082W        W28562  42.903  19.597  11.856
63083W        W28563  28.078  24.687  14.807
63084W        W28564  22.185  41.388   4.274
63085W        W28565  39.971  14.797   0.318
63086W        W28566  25.697  37.425  11.087
63087W        W28567  29.469  28.969   0.294
63088W        W28568  10.708   1.449   1.764
63089W        W28569  11.371   2.418   3.825
63090W        W28570  13.143  10.213   0.861
63091W        W28571  33.927  23.657   4.227
63092W        W28572  26.559  13.775  14.408
63093W        W28573  37.033   8.184  12.994
63094W        W28574  28.062  28.126   4.805
63095W        W28575   9.694  10.154  11.934
63096W        W28576  27.511  18.560   0.899
63097W        W28577  32.109   0.788   2.818
63098W        W28578  21.218  23.689  12.865
63099W        W28579  11.185  39.026   9.944
63100W        W28580  22.521  43.776   4.598
63101W        W28581  17.720   2.733   2.385
63102W        W28582  35.598  33.955  11.961
63103W        W28583  31.044   5.277  13.339
63104W        W28584  17.256   6.692   0.470
63105W        W28585  15.652  40.875   0.427
63106W        W28586  32.905  27.097   4.652
63107W        W28587  29.121  39.847   3.194
63108W        W28588  34.053  35.896   4.820
63109W        W28589  21.677  34.463  11.025
63110W        W28590  18.234   6.240   1.235
63111W        W28591  26.147  41.391   1.870
63112W        W28592   2.780  26.094   3.760
63113W        W28593  10.193   3.360   3.224
63114W        W28594  30.148  38.347  11.559
63115W        W28595  31.554  22.743   4.270
63116W        W28596  11.626  19.623   4.274
63117W        W28597  41.500  28.619  14.826
63118W        W28598  28.146   3.273   3.159
63119W        W28599  29.136  20.151   0.413
63120W        W28600  12.235  33.399   3.725
63121W        W28601  25.208  33.501  14.442
63122W        W28602  34.095  44.789  12.371
63123W        W28603   3.238   7.201  10.967
63124W        W28604  42.306  42.471   3.333
63125W        W28605  33.547  42.351   2.700
63126W        W28606   0.442  36.925  13.466
63127W        W28607  33.067  39.870   3.672
63128W        W28608  13.729   3.890  11.081
63129W        W28609  30.488   3.253   3.649
63130W        W28610  14.789  30.142   3.212
63131W        W28611  11.818  41.831   3.835
63132W        W28612   9.842  20.686   0.804
63133W        W28613  23.106   0.953   5.200
63134W        W28614  40.343  13.626  10.571
63135W        W28615  30.995  17.208   4.821
63136W        W28616  19.677  15.655  11.977
63137W        W28617  16.802  24.507   0.467
63138W        W28618  29.516   8.276   1.774
63139W        W28619  41.880  32.607   4.804
63140W        W28620  30.145  37.577  11.373
63141W        W28621  31.507   6.909   0.839
63142W        W28622  32.446  29.948  14.815
63143W        W28623  18.072  11.705   3.801
63144W        W28624  30.157  30.149   3.789
63145W        W28625  30.520  44.857   3.315
63146W        W28626  28.627   7.363  11.487
63147W        W28627   4.218  20.075  14.812
63148W        W28628  16.079   7.243  14.783
63149W        W28629   7.203  13.652   4.719
63150W        W28630   2.270  24.980   4.649
63151W        W28631  28.943  14.676   0.444
63152W        W28632  19.669   6.751   3.760
63153W        W28633  10.811  41.858   4.310
63154W        W28634  17.117   6.724   3.829
63155W        W28635   9.214  41.040  11.997
63156W        W28636  19.040  37.470  10.993
63157W        W28637   5.420   7.725  13.951
63158W        W28638   0.402  32.020  11.596
63159W        W28639  39.057  10.225   2.389
63160W        W28640  19.619  39.065   4.630
63161W        W28641  26.487  38.936   4.831
63162W        W28642  39.024  13.692   1.854
63163W        W28643  19.628  31.466  13.497
63164W        W28644  28.448  43.016  12.847
63165W        W28645   7.703  25.547  12.031
63166W        W28646  33.997  42.904   3.300
63167W        W28647  39.435  32.611  14.452
63168W        W28648   4.439  14.657  10.549
63169W        W28649   6.847  15.211   1.784
63170W        W28650   8.401  36.438   0.729
63171W        W28651  21.091  17.306   5.248
63172W        W28652  24.091  18.221   0.910
63173W        W28653  20.709  29.109  13.870
63174W        W28654  34.572   7.202   3.225
63175W        W28655  22.724  25.024  10.942
63176W        W28656  41.519   3.456   0.325
63177W        W28657  35.604  34.600  11.971
63178W        W28658  42.442  19.758  14.821
63179W        W28659   0.293  34.981  14.971
63180W        W28660   3.271  40.444  10.636
63181W        W28661  18.676  24.706   2.813
63182W        W28662   9.161  31.142  14.329
63183W        W28663   3.822  26.952   1.222
63184W        W28664   2.776  39.422   4.217
63185W        W28665  12.175  27.094   2.743
63186W        W28666  28.461  21.109   1.912
63187W        W28667  29.034  31.578   1.762
63188W        W28668  30.155  36.474  14.890
63189W        W28669  40.895  17.069  13.999
63190W        W28670  39.825   0.289   0.872
63191W        W28671  24.989  33.454   1.751
63192W        W28672  27.641  14.805  13.045
63193W        W28673  36.878  14.296   4.719
63194W        W28674  38.454  26.606  12.378
63195W        W28675  30.506  42.304  10.158
63196W        W28676  44.792  36.843  12.926
63197W        W28677   3.258  13.274  11.528
63198W        W28678   3.350  40.407  11.070
63199W        W28679  18.280  33.429  14.301
63200W        W28680   6.223  21.191   0.870
63201W        W28681  21.108   3.363  10.973
63202W        W28682  44.814  33.554  12.500
63203W        W28683   2.459  37.520   2.805
63204W        W28684  14.134   9.267   1.733
63205W        W28685  30.451  42.029   4.737
63206W        W28686  38.419  16.120   0.254
63207W        W28687  40.520  32.912   1.729
63208W        W28688  13.205  16.579   4.794
63209W        W28689  20.057   4.814   1.723
63210W        W28690  37.402  36.386   0.801
63211W        W28691  13.629   7.703  13.396
63212W        W28692  33.495   2.866  11.442
63213W        W28693   2.454  25.507   2.784
63214W        W28694  17.588  17.084   0.889
63215W        W28695   2.728   6.710  13.043
63216W        W28696  42.340  42.473  12.521
63217W        W28697  22.693  32.958  13.347
63218W        W28698  28.633  20.166  13.361
63219W        W28699  19.125   8.209   2.371
63220W        W28700  10.685  18.604  13.030
63221W        W28701  19.048  12.269  13.901
63222W        W28702  40.900  19.726   1.270
63223W        W28703  35.032  26.083   2.357
63224W        W28704  10.855  37.570  12.916
63225W        W28705  11.858  32.906  13.453
63226W        W28706  30.999  22.677  14.830
63227W        W28707  23.074  22.692  13.547
63228W        W28708  29.951   3.890   2.396
63229W        W28709  16.097  21.541  11.047
63230W        W28710  22.190   9.769   3.382
63231W        W28711  44.940  17.760   2.319
63232W        W28712  38.854   8.247   1.798
63233W        W28713  10.255   1.908   2.215
63234W        W28714  21.696  23.096  13.881
63235W        W28715  22.669   3.338   1.306
63236W        W28716  14.303   5.782   1.354
63237W        W28717  13.729  11.676  14.307
63238W        W28718  30.620  29.443  10.931
63239W        W28719  12.809  27.452   2.677
63240W        W28720  27.046  34.044   0.740
63241W        W28721  28.947  13.290   0.315
63242W        W28722  34.458  30.151  13.827
63243W        W28723  14.822  42.905  12.360
63244W        W28724  31.480  34.940  14.812
63245W        W28725  18.612  27.959   3.772
63246W        W28726  24.659   5.344  14.474
63247W        W28727  13.246  22.091  14.428
63248W        W28728  35.416  11.164   0.464
63249W        W28729   0.859  44.409   5.310
63250W        W28730  20.762  38.460   0.415
63251W        W28731  21.210  25.079  10.459
63252W        W28732  11.712   3.394  14.395
63253W        W28733   0.886   7.410  14.969
63254W        W28734  21.082  39.395   1.342
63255W        W28735  24.595  22.015  13.889
63256W        W28736   7.239  33.493  12.380
63257W        W28737  35.979  17.284  14.485
63258W        W28738  18.164  28.963  12.494
63259W        W28739  30.641   3.313  11.997
63260W        W28740  32.887  18.066   2.727
63261W        W28741  34.483  43.336  14.408
63262W        W28742  14.820  12.148   9.438
63263W        W28743  25.038  15.706   1.374
63264W        W28744  16.780   9.198  11.120
63265W        W28745   5.227  30.604  13.446
63266W        W28746  43.466   8.194   4.320
63267W        W28747  20.099  35.062   0.805
63268W        W28748  42.350  28.122  13.013
63269W        W28749  16.293  34.410  10.956
63270W        W28750   0.827  30.442   0.377
63271W        W28751   8.756  40.908   4.747
63272W        W28752  13.315   4.364   1.757
63273W        W28753  16.129  32.108  12.967
63274W        W28754  18.785  17.594   3.281
63275W        W28755  15.654  15.769  10.566
63276W        W28756  25.643  33.075  12.357
63277W        W28757  20.077   7.323   1.758
63278W        W28758   2.386  42.455   0.296
63279W        W28759  26.137   7.385  12.992
63280W        W28760  39.037  40.037   4.145
63281W        W28761  42.021  23.133  12.882
63282W        W28762  14.705  36.007  14.977
63283W        W28763  43.434   7.172   2.361
63284W        W28764  37.853  16.091   2.360
63285W        W28765  40.991  35.357  13.438
63286W        W28766   6.721  20.048   4.312
63287W        W28767   0.854  41.044  13.454
63288W        W28768   4.729  36.869   0.410
63289W        W28769  31.048  37.982   3.677
63290W        W28770   7.775   7.184  12.835
63291W        W28771  27.990  36.445   4.251
63292W        W28772  11.357  22.622  13.546
63293W        W28773   4.336  25.010   0.245
63294W        W28774   9.871   6.746  11.115
63295W        W28775   1.457  27.940  12.067
63296W        W28776   7.672   3.261  12.047
63297W        W28777  24.698  12.185   4.343
63298W        W28778  32.900   7.748  13.350
63299W        W28779  19.669  12.137  14.300
63300W        W28780  38.886  24.627  11.051
63301W        W28781  36.413  14.600  13.997
63302W        W28782  10.725  15.652   1.768
63303W        W28783  13.741  37.579   5.149
63304W        W28784   6.420  11.151   1.238
63305W        W28785   0.417  31.611   1.360
63306W        W28786  27.523   5.837   3.673
63307W        W28787  14.679  24.030  11.478
63308W        W28788  26.951  20.227  14.479
63309W        W28789  20.264  29.605   0.336
63310W        W28790  30.490   3.868   2.325
63311W        W28791  41.898  23.696  12.872
63312W        W28792   7.823  31.579  12.398
63313W        W28793  16.726   1.436  12.824
63314W        W28794  31.040   4.438  10.580
63315W        W28795   6.255   9.833  13.391
63316W        W28796  28.067   2.387   3.375
63317W        W28797  33.423   3.223   4.614
63318W        W28798  11.275  28.131   2.896
63319W        W28799  41.018   1.960   0.424
63320W        W28800  39.390  31.407  10.409
63321W        W28801   2.235  24.113  10.634
63322W        W28802  15.785   5.882  10.485
63323W        W28803  28.600  23.224  12.529
63324W        W28804  36.989  37.543  14.514
63325W        W28805  33.412  12.186  11.022
63326W        W28806   3.828  21.606   4.808
63327W        W28807  14.111  10.774   3.207
63328W        W28808   3.802   8.214   1.296
63329W        W28809  10.642  23.025   3.199
63330W        W28810  29.032  31.970  14.373
63331W        W28811  41.908  29.510   1.705
63332W        W28812   4.719  29.511  13.910
63333W        W28813  11.130  40.509   3.662
63334W        W28814  26.701  15.717  10.945
63335W        W28815  34.902  10.849  11.866
63336W        W28816   0.478   8.886  10.442
63337W        W28817  26.135  25.108   1.926
63338W        W28818  11.341  37.840   1.855
63339W        W28819   3.859   1.800  13.540
63340W        W28820   2.914  13.262   2.199
63341W        W28821  33.556  11.847  11.601
63342W        W28822   5.267  21.593   0.430
63343W        W28823  37.042  29.453   3.686
63344W        W28824  18.650  36.949   4.620
63345W        W28825  18.769  29.037  10.930
63346W        W28826  42.936  38.362   0.943
63347W        W28827  20.745   1.426  12.376
63348W        W28828   1.349  38.907  12.912
63349W        W28829  34.575  44.406  12.561
63350W        W28830  21.616  25.524  14.500
63351W        W28831  20.103  19.234  13.800
63352W        W28832  41.537   7.299  10.421
63353W        W28833  26.504  12.250   2.350
63354W        W28834   9.824   9.653  13.999
63355W        W28835  12.691  35.065  12.430
63356W        W28836  23.193  11.644  11.085
63357W        W28837  20.650  18.198   3.656
63358W        W28838  37.872  31.044  13.864
63359W        W28839  41.500   4.938   2.356
63360W        W28840  15.640  27.645   9.932
63361W        W28841  25.671  34.906  14.839
63362W        W28842  30.074  25.468  13.380
63363W        W28843  22.115   1.814   3.826
63364W        W28844   9.650  36.406  12.407
63365W        W28845  10.634  23.664  11.522
63366W        W28846  28.942  12.196  13.957
63367W        W28847   0.460  33.052  12.045
63368W        W28848  14.654  43.802  13.314
63369W        W28849  24.159  24.501   0.840
63370W        W28850  25.547  44.754   4.669
63371W        W28851  38.383  14.283   2.759
63372W        W28852  25.028   6.806   2.796
63373W        W28853  16.275  37.883   0.363
63374W        W28854  14.781  42.417   2.814
63375W        W28855  36.858  35.454  13.909
63376W        W28856  13.312  20.149  11.410
63377W        W28857  12.667  20.111  12.482
63378W        W28858  18.115  28.082  11.048
63379W        W28859   0.287  17.782  13.414
63380W        W28860  44.802  13.326  14.442
63381W        W28861  31.472  17.559  14.816
63382W        W28862  21.598   2.345   2.341
63383W        W28863   5.384  37.846  11.127
63384W        W28864  17.634  27.106   1.243
63385W        W28865   9.235  36.440   1.366
63386W        W28866  40.361  36.377   2.793
63387W        W28867  42.864   0.415  12.873
63388W        W28868  15.220  18.754  13.372
63389W        W28869  15.603  39.424   3.265
63390W        W28870  11.822   7.795  11.985
63391W        W28871  21.749  43.795  11.482
63392W        W28872  22.539  28.641  13.859
63393W        W28873  19.164  41.364  14.914
63394W        W28874  25.173  42.447   1.404
63395W        W28875  20.221  38.939   3.378
63396W        W28876  33.989  28.176   0.870
63397W        W28877   0.338  42.930   1.794
63398W        W28878  11.834   9.660  12.366
63399W        W28879  22.660  32.135  13.337
63400W        W28880  24.549  30.601  13.364
63401W        W28881  43.274  15.781   2.742
63402W        W28882  16.206  31.986  10.579
63403W        W28883  24.072   9.381  13.828
63404W        W28884  10.729  19.640   0.426
63405W        W28885  16.079  26.601   3.269
63406W        W28886  18.259  23.570   4.657
63407W        W28887  30.140  13.112  13.894
63408W        W28888  10.157   7.210   9.947
63409W        W28889   1.435  39.883  10.999
63410W        W28890  32.036  35.387  14.497
63411W        W28891   9.792   6.255   3.676
63412W        W28892  21.605  14.131  11.993
63413W        W28893  13.802  13.699  12.389
63414W        W28894  28.961  23.594   4.754
63415W        W28895  34.943   9.768  11.449
63416W        W28896  14.777   0.459   3.824
63417W        W28897   5.293   7.375   1.329
63418W        W28898  16.744  31.564   4.213
63419W        W28899  25.546  41.392   0.732
63420W        W28900  39.526  21.232   0.799
63421W        W28901  35.553  33.896   0.888
63422W        W28902   7.260  40.857   4.187
63423W        W28903  24.000   6.330  13.013
63424W        W28904  44.335  16.083  10.952
63425W        W28905   6.812  31.469   1.833
63426W        W28906  31.029  32.025   0.316
63427W        W28907  38.448   8.251   0.777
63428W        W28908   6.226   4.845   2.722
63429W        W28909  32.919   9.670  11.519
63430W        W28910  22.232  24.122  14.822
63431W        W28911  41.813  17.199  13.976
63432W        W28912  23.603  31.975  11.454
63433W        W28913  34.508  29.076  14.404
63434W        W28914  12.813  23.055  14.452
63435W        W28915  43.952  34.919  13.037
63436W        W28916  24.028  17.601  14.443
63437W        W28917  20.049   9.204   3.724
63438W        W28918  43.364  34.990  13.498
63439W        W28919  28.476  25.470  13.947
63440W        W28920  32.121  44.466  11.507
63441W        W28921  23.725   9.318  14.030
63442W        W28922  17.168  22.063   0.469
63443W        W28923  37.863  25.507  14.998
63444W        W28924  13.315  40.411   0.353
63445W        W28925   9.161  33.993   3.234
63446W        W28926  39.021  25.051  13.819
63447W        W28927  21.606  39.048  11.996
63448W        W28928  41.451  11.259   0.383
63449W        W28929  25.641  36.361   2.834
63450W        W28930  36.869  22.088   3.285
63451W        W28931  37.536   9.195   1.320
63452W        W28932  40.478  20.650  11.109
63453W        W28933  37.340  19.614  10.076
63454W        W28934  43.796  21.715  14.369
63455W        W28935   5.285  28.607   4.714
63456W        W28936   3.421  15.114  12.513
63457W        W28937  10.731  30.479  11.504
63458W        W28938  30.087  18.051   1.792
63459W        W28939  31.953   7.182   0.322
63460W        W28940  28.605  28.071  10.517
63461W        W28941  29.936  13.770  10.611
63462W        W28942  10.715  31.607  12.013
63463W        W28943  18.588  37.886   0.920
63464W        W28944   4.714  42.893  14.004
63465W        W28945  23.494  14.100  10.443
63466W        W28946  25.138  17.253  11.091
63467W        W28947   5.699   0.252   2.892
63468W        W28948   2.858  26.560   2.291
63469W        W28949  34.451  37.048  12.995
63470W        W28950  44.395  35.983  13.850
63471W        W28951   0.957  17.753   1.847
63472W        W28952   0.423   5.845   2.326
63473W        W28953  33.455  20.224   2.767
63474W        W28954  21.678  16.767   4.245
63475W        W28955  22.158  22.240   2.347
63476W        W28956  31.423  39.414   3.255
63477W        W28957  38.074  42.992   4.351
63478W        W28958  10.286   0.949  13.917
63479W        W28959  44.008  44.385   2.702
63480W        W28960  18.672  37.565   0.748
63481W        W28961   2.782  34.398   3.797
63482W        W28962   3.859  17.204  14.415
63483W        W28963   1.820   6.217  12.950
63484W        W28964  23.538  34.911   3.725
63485W        W28965  24.146  30.467  12.068
63486W        W28966  13.691  23.112  14.331
63487W        W28967  30.508  11.273  12.065
63488W        W28968  29.590  24.571  13.819
63489W        W28969   3.802  21.704  13.901
63490W        W28970  17.572  30.469  13.507
63491W        W28971   0.471   3.922  10.542
63492W        W28972   2.316  36.956   3.864
63493W        W28973   0.798  22.552  14.826
63494W        W28974  20.100  15.265  11.540
63495W        W28975  22.218  19.249  13.857
63496W        W28976  40.029  22.018  12.545
63497W        W28977  43.946   1.918  11.426
63498W        W28978   2.803  39.884   1.815
63499W        W28979   3.846   9.245   3.355
63500W        W28980  43.401   0.278  13.053
63501W        W28981  23.671   0.388  11.456
63502W        W28982   3.827  10.827   3.149
63503W        W28983   4.279  44.922  13.907
63504W        W28984   9.360  22.041  12.975
63505W        W28985  35.072   6.735  12.560
63506W        W28986  12.749  35.047   4.816
63507W        W28987  26.643  24.169  12.986
63508W        W28988   1.357   3.341   3.852
63509W        W28989  16.144  39.819   3.781
63510W        W28990  28.606   6.729   3.689
63511W        W28991  27.649  37.504   0.966
63512W        W28992  36.940  15.113   0.357
63513W        W28993  40.510  12.763  11.855
63514W        W28994   9.774  14.718  14.840
63515W        W28995  40.338  29.123   4.257
63516W        W28996  10.181  39.937  14.921
63517W        W28997   1.335  39.012  11.042
63518W        W28998   9.732   5.779  14.832
63519W        W28999   2.729  37.447   4.601
63520W        W29000  16.706  21.693  10.544
63521W        W29001  26.564  40.387   5.283
63522W        W29002  23.641   6.382   1.250
63523W        W29003  43.911  27.516  12.462
63524W        W29004  13.190  19.226   4.204
63525W        W29005   4.376  27.017   3.270
63526W        W29006   6.397  17.801   4.719
63527W        W29007  20.590  20.158  14.010
63528W        W29008  33.591  30.146   4.277
63529W        W29009  41.823  42.414  11.129
63530W        W29010   7.897  10.198   0.274
63531W        W29011   5.196  36.569  12.576
63532W        W29012  30.579   2.956  13.428
63533W        W29013  34.449   2.404  10.544
63534W        W29014  13.240   2.848   2.260
63535W        W29015  40.406  10.168   4.291
63536W        W29016  36.547   2.381   2.663
63537W        W29017  18.689  38.976   1.759
63538W        W29018   5.829  19.722   0.740
63539W        W29019   5.316  32.531  14.361
63540W        W29020  25.674  14.094   1.316
63541W        W29021  28.054  38.892   2.870
63542W        W29022  12.317  10.645   4.344
63543W        W29023  36.474  12.643   1.908
63544W        W29024  24.591   7.777  12.951
63545W        W29025  32.005  14.610  12.058
63546W        W29026  35.898   8.664  14.012
63547W        W29027  21.064  43.991  10.120
63548W        W29028   9.706  18.207   2.811
63549W        W29029  15.782  24.129   4.155
63550W        W29030  16.074  16.134   9.606
63551W        W29031  17.122  35.443  12.389
63552W        W29032  41.307  25.480  11.085
63553W        W29033  12.633  29.470   3.299
63554W        W29034  13.213  44.898  13.999
63555W        W29035  11.134  40.933   0.891
63556W        W29036  39.036  32.903   2.820
63557W        W29037   5.216  33.914  13.999
63558W        W29038  16.186  23.654   2.406
63559W        W29039  39.042  25.973   3.839
63560W        W29040  25.968  20.528  10.921
63561W        W29041   7.411  14.143   3.360
63562W        W29042   3.945  26.205  13.961
63563W        W29043  40.461  42.523  13.970
63564W        W29044  39.924  40.816  13.895
63565W        W29045  34.979  10.772  14.831
63566W        W29046  36.367  43.449   3.841
63567W        W29047  30.163  43.856   1.711
63568W        W29048   6.784  39.836   1.876
63569W        W29049  38.992  42.364   2.682
63570W        W29050  29.994  16.194  13.425
63571W        W29051  33.554  16.292   2.187
63572W        W29052  40.541   7.230  10.548
63573W        W29053  35.432  12.278  14.807
63574W        W29054  36.507  11.166   4.198
63575W        W29055  29.632  31.541  14.901
63576W        W29056  10.798  42.285  14.796
63577W        W29057   3.731  12.329  11.922
63578W        W29058  34.525   5.718  14.875
63579W        W29059  24.180  24.491   2.777
63580W        W29060  13.763  19.150   4.323
63581W        W29061  39.391  24.556  11.374
63582W        W29062  12.342  38.910  12.407
63583W        W29063   0.345  25.686  10.529
63584W        W29064  39.025  24.151  11.493
63585W        W29065  22.620   6.337   1.261
63586W        W29066  33.427  24.217   4.771
63587W        W29067   7.862  15.802  14.419
63588W        W29068  29.166  22.188   1.786
63589W        W29069  27.555  44.964  10.488
63590W        W29070  34.102  42.911   2.851
63591W        W29071  10.771  13.709  13.032
63592W        W29072  38.415  43.870   1.258
63593W        W29073   8.833  39.376   2.830
63594W        W29074  15.236  39.964   0.431
63595W        W29075   4.278   2.436  10.603
63596W        W29076  19.150  11.232  11.091
63597W        W29077  14.771  40.035  13.385
63598W        W29078  21.706  18.625   3.232
63599W        W29079  22.503  38.955  13.824
63600W        W29080  25.068  23.683  14.810
63601W        W29081   8.711   8.215   1.895
63602W        W29082  40.448  27.193  12.084
63603W        W29083  22.553  14.249  14.826
63604W        W29084  20.578  15.807   2.329
63605W        W29085  18.101  24.513   1.704
63606W        W29086  22.010  20.229   3.810
63607W        W29087  26.601  42.331   4.780
63608W        W29088  37.965  36.354  14.276
63609W        W29089   3.360   9.736   0.348
63610W        W29090  27.513   4.739   0.343
63611W        W29091   6.749  21.672   4.799
63612W        W29092  42.524  20.581   4.187
63613W        W29093  27.048  30.483   0.853
63614W        W29094  37.950  39.978  12.496
63615W        W29095  43.379  11.345  12.483
63616W        W29096  34.960  30.513  12.559
63617W        W29097  42.863  13.732  12.496
63618W        W29098  14.242  21.753  14.405
63619W        W29099   9.776  26.632  10.957
63620W        W29100  40.864  25.546  11.571
63621W        W29101  18.780   0.291  11.877
63622W        W29102   1.394  38.009  12.933
63623W        W29103  35.876   1.975  13.402
63624W        W29104   1.737  42.471  11.101
63625W        W29105  44.832  38.942  11.884
63626W        W29106  41.444  30.931  10.585
63627W        W29107   1.957  14.620   0.375
63628W        W29108   0.307  14.232  10.528
63629W        W29109  17.637  19.719   4.642
63630W        W29110   5.244  13.262   3.670
63631W        W29111  33.394  10.196   2.220
63632W        W29112  20.185   8.665   4.246
63633W        W29113   1.416   5.434  14.352
63634W        W29114  21.658   2.764  12.041
63635W        W29115  30.445   1.746  13.026
63636W        W29116  43.355  15.776  14.927
63637W        W29117  38.067  40.336  14.803
63638W        W29118  24.023  27.049   2.827
63639W        W29119  34.078  19.277   3.662
63640W        W29120   9.646   8.672   2.875
63641W        W29121  30.136  33.006  13.524
63642W        W29122  40.351  26.584  11.118
63643W        W29123  29.154  30.613   2.820
63644W        W29124  20.164  19.576   9.984
63645W        W29125  37.931  13.786   4.751
63646W        W29126  10.376  34.599  11.393
63647W        W29127  26.534   9.175  11.559
63648W        W29128   2.903  11.744  11.483
63649W        W29129  10.371  13.741  11.930
63650W        W29130  31.919  25.160   2.715
63651W        W29131  32.588   1.848   0.306
63652W        W29132   9.356  42.469  10.988
63653W        W29133  17.276   1.951   5.225
63654W        W29134  43.967  20.532  11.026
63655W        W29135  23.622  42.985  11.385
63656W        W29136   8.272  19.745  11.912
63657W        W29137   4.769  25.038   5.269
63658W        W29138  23.208  32.045  11.533
63659W        W29139  25.665  31.572   4.242
63660W        W29140   5.843  11.347  11.566
63661W        W29141  27.611   2.368   1.276
63662W        W29142   7.363   9.319  11.047
63663W        W29143  44.399   2.299  10.915
63664W        W29144  38.870  16.713   3.274
63665W        W29145  10.288   6.776  11.125
63666W        W29146  35.958   9.184  12.560
63667W        W29147   8.850   4.243  11.085
63668W        W29148  33.023   1.401  12.972
63669W        W29149  10.354   4.878   3.308
63670W        W29150  32.580  30.934   2.770
63671W        W29151   7.837   8.879   3.313
63672W        W29152  19.559  16.282   3.381
63673W        W29153  28.041  27.992  11.426
63674W        W29154  12.329  38.909  11.528
63675W        W29155  33.988   8.732   3.194
63676W        W29156  13.183  20.168   2.733
63677W        W29157  19.265  19.149  11.102
63678W        W29158  23.536  15.258   3.166
63679W        W29159   1.363  40.045  11.920
63680W        W29160  39.354  40.929   0.774
63681W        W29161  37.930  26.684  14.011
63682W        W29162  40.374  18.222   1.853
63683W        W29163  11.775  13.816  10.516
63684W        W29164  19.742  17.599   1.858
63685W        W29165  13.603  30.482   3.171
63686W        W29166  44.336  43.281  11.609
63687W        W29167   0.916  20.759   2.224
63688W        W29168  19.269  29.106   1.865
63689W        W29169   3.429  21.138  11.995
63690W        W29170  25.215  39.452  14.963
63691W        W29171   1.826  39.922   1.872
63692W        W29172  40.310  43.866  11.085
63693W        W29173  36.413  13.716  10.628
63694W        W29174   7.211  30.528  14.906
63695W        W29175  22.024  15.248   2.715
63696W        W29176  42.382   9.804   4.612
63697W        W29177  44.344  26.576  11.378
63698W        W29178   5.368  20.591   4.705
63699W        W29179  27.648  28.033  14.005
63700W        W29180  42.283  22.633  13.469
63701W        W29181  21.197  36.350  13.459
63702W        W29182  35.955  29.166   1.347
63703W        W29183  10.340  29.956  12.877
63704W        W29184  28.932  23.586   1.802
63705W        W29185   3.215  41.500  14.335
63706W        W29186  20.618   1.804   2.337
63707W        W29187  17.231  37.437  14.999
63708W        W29188  10.676  13.737  11.859
63709W        W29189  27.446  17.263  14.332
63710W        W29190  34.984  15.096  12.524
63711W        W29191  16.298  10.634   1.381
63712W        W29192  25.097  40.871   4.699
63713W        W29193  12.132  27.467   1.720
63714W        W29194   9.707  34.952   1.752
63715W        W29195  35.041  16.569  13.846
63716W        W29196   6.903  26.063   3.870
63717W        W29197  37.859  29.974   3.176
63718W        W29198  12.229  34.082   0.740
63719W        W29199  16.603  42.312  14.308
63720W        W29200  37.874  15.694   4.789
63721W        W29201  38.932  17.261   2.330
63722W        W29202  12.818  30.429   3.793
63723W        W29203  36.086   0.820  10.545
63724W        W29204  43.467  32.483   4.601
63725W        W29205  29.004  36.538   0.334
63726W        W29206  37.875  30.420  13.049
63727W        W29207  25.056  43.973  10.575
63728W        W29208  32.923  43.871  13.989
63729W        W29209  13.696   2.450  11.969
63730W        W29210  11.157  16.295  11.452
63731W        W29211  11.166   9.735  11.383
63732W        W29212  32.629  22.226  13.813
63733W        W29213  44.376   4.358  10.970
63734W        W29214  27.007  34.451   1.348
63735W        W29215  27.124  16.158  10.422
63736W        W29216   5.280  39.344   0.328
63737W        W29217  43.882  40.966   3.835
63738W        W29218  23.549  20.542   3.704
63739W        W29219  35.523  25.008   0.371
63740W        W29220   3.933   2.285  14.323
63741W        W29221  21.101  19.044   0.862
63742W        W29222  25.192   6.389   3.785
63743W        W29223  33.042   1.944  14.025
63744W        W29224  34.966  18.750   4.288
63745W        W29225  37.379  23.543  11.966
63746W        W29226  10.263  26.998  11.530
63747W        W29227   5.299   1.469  14.295
63748W        W29228   7.198  25.561   4.179
63749W        W29229  28.558  28.564   0.254
63750W        W29230  17.147  27.953  12.399
63751W        W29231   6.408  44.440  14.474
63752W        W29232  17.256  20.641  11.983
63753W        W29233  37.366  19.120   3.740
63754W        W29234  23.076   7.394  13.340
63755W        W29235  14.632  14.282   0.754
63756W        W29236   3.801  16.299  11.427
63757W        W29237  32.463   8.346  14.840
63758W        W29238   4.776  43.913   1.773
63759W        W29239  18.122  10.189  10.571
63760W        W29240  39.863  33.969   0.834
63761W        W29241  33.593   4.352   3.271
63762W        W29242  31.409  42.028   3.763
63763W        W29243  25.019  24.681  13.806
63764W        W29244  39.509  36.544  11.545
63765W        W29245  44.350   5.792   2.262
63766W        W29246  22.032  17.588   3.267
63767W        W29247  27.134  33.554   3.797
63768W        W29248  15.205   6.406   0.876
63769W        W29249  43.476  32.563   2.844
63770W        W29250   1.258   3.757   3.658
63771W        W29251   1.427  26.699   4.650
63772W        W29252  34.893  26.480   2.339
63773W        W29253  44.456  26.582   1.873
63774W        W29254   8.262   6.748  11.095
63775W        W29255  37.013  19.661  11.491
63776W        W29256  44.496  33.968  13.441
63777W        W29257  42.960  20.745   0.426
63778W        W29258   1.863  27.954  14.897
63779W        W29259  25.206  12.814  10.953
63780W        W29260  21.185  40.905   1.232
63781W        W29261   8.392  14.201   2.889
63782W        W29262  34.409  25.563  14.804
63783W        W29263  27.553  14.271   1.783
63784W        W29264  40.497  38.480  11.522
63785W        W29265  42.297  20.607  11.576
63786W        W29266  10.309  29.936   2.746
63787W        W29267  14.831  41.304   0.328
63788W        W29268   4.382  43.799   3.822
63789W        W29269  38.947   1.815   4.784
63790W        W29270  36.393  38.453   0.355
63791W        W29271  39.423  29.541  12.089
63792W        W29272   2.875  42.310   2.707
63793W        W29273  31.550  28.031   4.660
63794W        W29274  40.456  23.149  13.329
63795W        W29275  28.639  27.641  12.506
63796W        W29276  25.982   8.180  11.602
63797W        W29277  10.247  28.587  13.468
63798W        W29278  15.632  19.114   0.734
63799W        W29279  36.931  36.513  14.488
63800W        W29280  13.656  40.418  14.800
63801W        W29281  32.564  44.964  14.872
63802W        W29282   9.154   3.376   1.397
63803W        W29283  25.189   1.742  11.562
63804W        W29284  39.021  26.068  12.918
63805W        W29285  32.921  44.499  12.914
63806W        W29286   3.739   3.838   0.827
63807W        W29287  36.058   0.881   1.808
63808W        W29288  10.642  28.551  12.952
63809W        W29289  43.799  30.160   3.334
63810W        W29290  11.289  33.582   4.334
63811W        W29291  37.932  19.639  11.475
63812W        W29292  30.555  28.086   3.695
63813W        W29293  12.673  12.277   3.718
63814W        W29294  14.268  34.976   0.729
63815W        W29295  14.689  30.092   0.361
63816W        W29296  25.530   1.463  13.051
63817W        W29297  27.496  33.032  13.478
63818W        W29298  21.142   5.293  14.761
63819W        W29299  32.129   5.303   4.665
63820W        W29300  15.625  11.350  12.533
63821W        W29301  28.133   0.277   2.247
63822W        W29302  10.346  44.396  12.355
63823W        W29303  13.822  38.549   0.397
63824W        W29304   6.786  24.628   2.765
63825W        W29305  35.966   5.793   3.844
63826W        W29306   7.771  44.293   4.612
63827W        W29307  37.582  12.185   4.273
63828W        W29308  29.429   9.739  11.920
63829W        W29309  29.009  32.529   0.872
63830W        W29310  28.103  24.512  10.498
63831W        W29311  28.644   9.718  13.836
63832W        W29312  31.542  19.136   1.840
63833W        W29313  13.179  40.397   9.986
63834W        W29314  17.299  19.627  11.988
63835W        W29315  16.622  41.994   3.215
63836W        W29316  25.656  33.536   4.711
63837W        W29317   3.779  36.354   2.355
63838W        W29318  24.149  38.415  11.942
63839W        W29319  27.461  11.700  11.860
63840W        W29320  17.087   8.191   0.384
63841W        W29321  41.504  32.923   1.884
63842W        W29322  33.396  16.649   0.904
63843W        W29323  19.629   2.254  13.947
63844W        W29324  17.691  19.643  13.441
63845W        W29325  10.803  25.577  12.927
63846W        W29326  43.345  43.780   0.928
63847W        W29327  21.645  44.917   0.727
63848W        W29328  20.526  37.022  14.323
63849W        W29329   9.745   0.256   4.623
63850W        W29330  18.695   7.819  13.054
63851W        W29331  34.930  40.440   5.237
63852W        W29332  29.471  23.692  10.928
63853W        W29333   4.240  42.288   3.215
63854W        W29334   1.403   1.963  11.023
63855W        W29335  26.034  26.975  12.848
63856W        W29336   9.208  30.613   2.694
63857W        W29337  41.393   0.789   1.754
63858W        W29338  13.679  10.251   1.320
63859W        W29339  25.483  13.843   3.629
63860W        W29340  34.531  26.155   2.848
63861W        W29341  14.170  33.435  10.619
63862W        W29342  38.998  22.537   2.371
63863W        W29343  38.989   5.259   3.174
63864W        W29344  23.668  24.530   4.636
63865W        W29345   0.411  29.168  14.774
63866W        W29346   8.691  39.977  11.894
63867W        W29347  17.671   1.740  13.944
63868W        W29348  19.710  29.468   3.819
63869W        W29349  11.189  41.802  13.372
63870W        W29350  44.448  12.361   0.348
63871W        W29351  27.153  38.884   2.664
63872W        W29352   6.293  29.543   0.380
63873W        W29353  32.428  22.586  12.383
63874W        W29354   5.930  11.186  12.044
63875W        W29355  44.270  39.866   5.133
63876W        W29356  30.451   7.745   0.395
63877W        W29357  25.647   3.318   4.819
63878W        W29358  24.610  35.403   0.298
63879W        W29359  17.602  24.107   3.329
63880W        W29360  21.578  26.978   0.437
63881W        W29361   2.866  28.182   2.419
63882W        W29362  10.191  39.426   2.760
63883W        W29363  23.073  22.542  12.923
63884W        W29364  16.680   8.227   0.786
63885W        W29365  25.035   0.751   0.925
63886W        W29366  11.704  19.686   2.328
63887W        W29367  35.521  13.794   4.237
63888W        W29368  14.787  33.890   9.630
63889W        W29369  10.648   5.354   1.720
63890W        W29370  23.016  32.938   3.845
63891W        W29371   1.938   2.415   4.723
63892W        W29372   7.374  43.497   3.795
63893W        W29373  36.529  33.601  13.981
63894W        W29374  10.294  15.098  14.845
63895W        W29375  38.453  19.755  12.542
63896W        W29376  13.668  43.913   4.774
63897W        W29377  17.190  42.959   4.333
63898W        W29378  43.832  30.585  11.117
63899W        W29379  16.738  32.486  13.376
63900W        W29380  13.645  44.767   2.258
63901W        W29381   9.889  38.006  12.901
63902W        W29382  43.838  44.974   2.290
63903W        W29383  42.499  19.153   0.434
63904W        W29384   4.873   6.716   2.377
63905W        W29385  36.094  20.049   2.690
63906W        W29386   3.260  20.240   1.727
63907W        W29387  22.131  21.188   2.275
63908W        W29388  16.250   1.300   2.382
63909W        W29389  42.998  23.103   0.372
63910W        W29390   9.836  39.986   4.180
63911W        W29391   9.159   6.848  13.475
63912W        W29392  29.610  22.573  10.505
63913W        W29393   9.389  10.687  12.487
63914W        W29394  13.811   0.408   1.232
63915W        W29395   2.963  29.143  12.991
63916W        W29396  27.955   0.393   3.653
63917W        W29397   8.672   9.269   1.393
63918W        W29398  36.994   4.908   0.291
63919W        W29399   9.854  34.477  10.520
63920W        W29400   8.665  27.492  14.877
63921W        W29401  35.924  27.190  13.500
63922W        W29402  12.296   1.750  12.998
63923W        W29403  11.797  21.109   0.463
63924W        W29404  19.247   1.841   0.257
63925W        W29405  33.038  39.865   1.765
63926W        W29406  39.381   0.362  11.441
63927W        W29407  12.159  13.780  12.854
63928W        W29408  26.688  35.963  11.862
63929W        W29409  30.621  41.891   1.377
63930W        W29410  10.869  30.530  13.355
63931W        W29411  13.185  25.700   1.865
63932W        W29412  13.821  43.812  10.475
63933W        W29413  32.014   7.299   2.695
63934W        W29414  18.230  36.421  10.898
63935W        W29415   0.873  11.755  12.553
63936W        W29416   6.756   9.218  11.607
63937W        W29417  13.829   0.346   4.819
63938W        W29418  37.946  36.532   3.189
63939W        W29419   8.665  39.506   2.402
63940W        W29420  41.499   5.874  10.454
63941W        W29421  44.936  43.961   2.187
63942W        W29422  34.377  29.427   1.271
63943W        W29423  24.069  23.199  13.442
63944W        W29424  30.589  13.174   1.707
63945W        W29425   7.711  38.968  13.905
63946W        W29426  24.985  31.126  14.864
63947W        W29427  24.092   0.819  13.919
63948W        W29428  43.321  10.769  12.545
63949W        W29429  18.227  17.162  12.053
63950W        W29430  27.094  20.664  14.429
63951W        W29431  40.414  10.305   2.826
63952W        W29432  26.198  10.161  14.903
63953W        W29433  14.681  31.561   4.747
63954W        W29434  31.410   4.842   2.370
63955W        W29435  41.972  32.536   1.262
63956W        W29436  41.005  24.720  11.092
63957W        W29437  35.371   1.465   1.820
63958W        W29438  24.208  28.496  14.944
63959W        W29439  33.092  31.444   0.346
63960W        W29440  21.514  37.534   4.600
63961W        W29441   7.378  41.402   0.386
63962W        W29442  29.509  34.427   0.289
63963W        W29443  10.827  17.209  10.587
63964W        W29444  28.468  35.981  11.555
63965W        W29445  37.881  16.758   0.370
63966W        W29446   3.930  15.137   2.318
63967W        W29447  40.970  28.038   4.319
63968W        W29448   9.799  18.132  10.904
63969W        W29449  33.626   9.225  14.945
63970W        W29450   0.330  40.881  12.467
63971W        W29451   7.320  40.405  13.037
63972W        W29452   9.819   2.803   0.376
63973W        W29453  28.981   9.315   3.238
63974W        W29454  11.234  22.008  14.991
63975W        W29455   8.322  27.194   4.180
63976W        W29456   1.861  21.050  11.537
63977W        W29457  41.947   1.747  10.609
63978W        W29458   4.758  33.924   2.265
63979W        W29459  12.622  30.584  12.842
63980W        W29460  21.151  20.169   0.457
63981W        W29461  38.404  20.742  10.598
63982W        W29462  31.101  42.968   0.928
63983W        W29463   6.234   7.317  13.445
63984W        W29464  13.311  33.070  12.985
63985W        W29465  37.878  38.489  12.568
63986W        W29466  43.003  31.560   0.284
63987W        W29467   9.733  28.679  13.392
63988W        W29468   3.345   0.787   5.139
63989W        W29469  42.357  22.226   0.344
63990W        W29470   8.347  13.795  13.890
63991W        W29471  22.507   0.832  14.822
63992W        W29472  35.548  23.235   1.739
63993W        W29473  16.304  18.254   1.412
63994W        W29474  39.417  20.103   3.680
63995W        W29475  35.425   8.256  10.523
63996W        W29476  29.117  38.823  13.870
63997W        W29477  43.271  17.732   1.899
63998W        W29478  13.674  41.875  12.532
63999W        W29479  24.693  41.845  12.951
64000W        W29480  23.676   4.376   1.720
64001W        W29481  21.635  27.134  10.892
64002W        W29482  30.541   9.351  12.075
64003W        W29483  34.950  26.578  12.950
64004W        W29484  12.301  26.164   1.223
64005W        W29485   6.771  35.367  13.346
64006W        W29486  42.971  12.774   0.469
64007W        W29487   8.221  22.102   1.806
64008W        W29488  42.945  22.521   4.259
64009W        W29489  31.555  41.960   1.853
64010W        W29490  29.103  26.978   0.375
64011W        W29491  18.664  25.708  12.073
64012W        W29492  13.631  31.406  14.329
64013W        W29493  24.705  10.668  14.401
64014W        W29494  38.864   8.371   2.689
64015W        W29495  29.458   6.846   1.335
64016W        W29496   1.770  16.754   3.304
64017W        W29497  27.080  30.962  12.532
64018W        W29498  22.226  27.660  14.325
64019W        W29499  23.575  35.945   4.673
64020W        W29500   3.441  25.496   3.669
64021W        W29501  33.405   3.808   0.479
64022W        W29502  29.487  27.198   2.746
64023W        W29503  29.944   1.911  12.040
64024W        W29504  42.974   4.395  12.411
64025W        W29505  41.359  16.710   3.739
64026W        W29506  14.109  37.521   1.362
64027W        W29507   5.381  26.623  14.765
64028W        W29508  36.497  25.555  14.763
64029W        W29509   2.458  25.581  13.548
64030W        W29510  26.070  41.965  12.975
64031W        W29511   9.365  36.508  11.019
64032W        W29512  26.498   8.247   4.241
64033W        W29513  20.649  11.333   4.736
64034W        W29514  18.200   2.798   1.718
64035W        W29515  23.222  10.635  11.590
64036W        W29516  11.341  19.048   1.814
64037W        W29517  15.649  11.136  11.449
64038W        W29518   4.717  30.930   1.323
64039W        W29519  38.431  37.480  14.451
64040W        W29520  37.838  13.285   0.457
64041W        W29521  32.015   9.259   0.741
64042W        W29522   4.423   5.338  11.917
64043W        W29523  13.248   6.882  13.544
64044W        W29524   3.301   4.853   0.865
64045W        W29525  41.448  20.184  11.459
64046W        W29526  16.600  43.318   4.715
64047W        W29527  33.419  26.605   3.167
64048W        W29528  13.729  24.698   0.467
64049W        W29529   8.682  36.395   5.152
64050W        W29530  28.623   6.804   4.275
64051W        W29531   5.883  15.173   3.806
64052W        W29532   9.308   3.939  13.995
64053W        W29533  26.468  18.174   1.307
64054W        W29534  25.681  15.261   4.604
64055W        W29535  28.037  11.775   3.277
64056W        W29536  42.428  31.129   0.920
64057W        W29537  29.554  18.566   3.168
64058W        W29538  11.130   0.313   0.443
64059W        W29539  25.564  37.041  10.906
64060W        W29540  30.457  27.503  12.971
64061W        W29541  19.172  44.901  11.457
64062W        W29542   4.327  17.099  11.555
64063W        W29543  16.147  36.517  10.516
64064W        W29544  13.843   3.934   1.709
64065W        W29545  17.130  14.769  10.157
64066W        W29546  20.667  23.615  12.985
64067W        W29547   1.454  35.380   0.964
64068W        W29548   1.364  29.648   3.720
64069W        W29549   4.386  25.035   1.799
64070W        W29550   3.750  16.605  12.095
64071W        W29551   5.424   3.876  13.806
64072W        W29552  11.661  22.022   2.807
64073W        W29553  38.523  20.595  12.978
64074W        W29554  23.548  37.986  13.424
64075W        W29555  23.562  38.520  14.451
64076W        W29556  41.945  29.529  14.304
64077W        W29557  13.129  28.954   9.922
64078W        W29558  31.543  36.885   3.808
64079W        W29559  29.446  28.062   3.815
64080W        W29560   9.276   6.913  13.982
64081W        W29561  41.389  39.361  12.974
64082W        W29562  16.187   9.725  13.330
64083W        W29563  23.642  26.634   0.368
64084W        W29564  44.290   7.231   1.278
64085W        W29565  38.040  31.484   1.719
64086W        W29566   7.760   4.449  13.888
64087W        W29567  31.898  34.093  12.011
64088W        W29568  40.911  39.391   0.440
64089W        W29569  10.146  18.057   2.316
64090W        W29570  40.841  13.146  12.356
64091W        W29571   3.791  41.975   1.758
64092W        W29572   1.972  30.033   4.774
64093W        W29573   0.454  18.665   1.378
64094W        W29574  27.482  20.079  12.539
64095W        W29575  38.870   7.240   3.373
64096W        W29576   7.910   0.472   1.281
64097W        W29577   6.787  23.001   0.269
64098W        W29578  37.831   0.749  13.942
64099W        W29579  41.976   3.837   2.722
64100W        W29580  24.138  13.264   0.901
64101W        W29581  12.797  32.926  12.936
64102W        W29582   3.218  17.561  11.436
64103W        W29583  15.258  12.729   2.222
64104W        W29584   6.204  42.429   0.413
64105W        W29585  36.962   4.809   1.934
64106W        W29586  19.109  43.906  14.768
64107W        W29587  37.577  39.848   3.267
64108W        W29588   3.807  28.435   0.245
64109W        W29589  18.294  22.200   3.842
64110W        W29590   3.430  41.030   4.718
64111W        W29591  12.323  18.055  13.466
64112W        W29592  16.287  15.674   4.805
64113W        W29593  41.295  10.263   3.210
64114W        W29594  26.495  43.945  11.538
64115W        W29595  27.452  18.650  13.992
64116W        W29596   6.238  20.245  14.792
64117W        W29597  31.610   4.311   3.266
64118W        W29598  40.366  31.964  13.844
64119W        W29599   5.241  24.141   1.729
64120W        W29600  14.773  19.723   0.469
64121W        W29601  15.226   1.920  11.569
64122W        W29602  18.202  42.022   3.708
64123W        W29603  36.409  18.546   2.232
64124W        W29604  23.118  39.827  11.394
64125W        W29605  22.140   7.901  13.898
64126W        W29606  20.184  41.373  11.909
64127W        W29607  19.258  22.738   1.437
64128W        W29608  14.804  10.255  12.564
64129W        W29609  20.734  17.748   1.391
64130W        W29610  28.996  25.592  14.920
64131W        W29611   9.328   2.402   0.312
64132W        W29612  43.918   5.837  11.382
64133W        W29613   9.326   1.922  10.483
64134W        W29614  30.050  19.122   4.316
64135W        W29615  26.522  30.984  10.585
64136W        W29616  21.519  22.669  11.030
64137W        W29617  12.774  36.530  12.994
64138W        W29618  26.065   4.291   2.807
64139W        W29619  35.102  35.460   4.620
64140W        W29620  30.545  38.511  12.979
64141W        W29621  28.577  37.015   4.788
64142W        W29622  12.340  40.302   0.763
64143W        W29623  31.444  26.634   1.328
64144W        W29624  23.122   6.871   0.479
64145W        W29625  33.577  26.471  14.504
64146W        W29626  32.538  18.653   0.871
64147W        W29627  17.564  27.042  12.460
64148W        W29628  28.666  16.648  11.941
64149W        W29629  22.580  11.269   2.318
64150W        W29630   7.417  21.078   2.178
64151W        W29631   6.878  39.361  14.500
64152W        W29632  28.007  28.073  11.941
64153W        W29633  34.398  20.040  13.516
64154W        W29634   9.184  41.501   4.826
64155W        W29635   6.781  18.646   2.773
64156W        W29636   4.783  28.143   1.289
64157W        W29637  31.937  40.039   2.178
64158W        W29638   5.868  36.381   1.268
64159W        W29639   0.385  43.818   3.781
64160W        W29640  28.002  18.257  11.434
64161W        W29641  19.145  40.008  10.989
64162W        W29642  40.943   5.835   1.348
64163W        W29643   0.849  27.030   2.682
64164W        W29644   2.288   6.357  12.392
64165W        W29645  22.099  31.414   1.437
64166W        W29646  30.910  36.456  14.956
64167W        W29647   9.188  40.008   0.274
64168W        W29648   8.893  28.652   1.297
64169W        W29649  21.529  14.660   2.710
64170W        W29650  31.543   3.799   4.724
64171W        W29651  29.653  28.089  11.534
64172W        W29652  44.777  20.626  13.509
64173W        W29653  42.527   5.402  10.510
64174W        W29654   8.362  18.187  12.960
64175W        W29655  16.777  10.233   2.739
64176W        W29656  18.762  34.003  14.884
64177W        W29657  20.759  33.388   0.408
64178W        W29658  18.597  39.848   0.963
64179W        W29659  43.404   6.678  11.104
64180W        W29660  24.146  42.780   4.760
64181W        W29661   5.783  32.920  11.867
64182W        W29662  32.543   3.768   3.834
64183W        W29663  24.038  25.490  10.949
64184W        W29664  21.517  43.498  12.557
64185W        W29665  10.246  37.912  11.070
64186W        W29666   4.355  37.056  13.818
64187W        W29667  41.019  37.529   0.813
64188W        W29668   0.352  25.146   1.837
64189W        W29669   3.726  24.993   0.862
64190W        W29670  28.938  20.250  11.117
64191W        W29671  17.178   3.301   1.846
64192W        W29672  18.098  44.895   3.257
64193W        W29673  21.257  31.128  13.310
64194W        W29674   4.373  42.444  12.409
64195W        W29675  39.430  19.624  10.137
64196W        W29676   7.667  35.388   4.352
64197W        W29677   2.285  41.411  13.467
64198W        W29678   7.355  20.762   0.761
64199W        W29679  38.434   0.747  12.964
64200W        W29680   4.330  37.505   4.268
64201W        W29681  23.212   1.832  10.539
64202W        W29682   9.348   6.305  11.600
64203W        W29683  29.061  43.327   0.340
64204W        W29684   1.286  19.066  12.929
64205W        W29685  37.961  41.345   4.627
64206W        W29686  43.870  43.396   3.169
64207W        W29687   5.898  26.999  13.026
64208W        W29688  25.710  38.545   4.197
64209W        W29689  32.496  21.076   1.805
64210W        W29690  10.362  11.827   0.308
64211W        W29691  31.547  28.570  11.913
64212W        W29692  13.317  44.772  11.520
64213W        W29693  29.928  10.826   2.886
64214W        W29694  34.577  43.012  10.609
64215W        W29695  21.749  10.359  10.500
64216W        W29696  12.724  40.323   2.877
64217W        W29697  39.913  42.334   0.448
64218W        W29698   6.381  30.113   0.890
64219W        W29699  42.958  38.517   3.838
64220W        W29700  36.581  11.745   0.770
64221W        W29701  14.641  31.977   1.787
64222W        W29702   7.904   7.757   2.206
64223W        W29703   8.876  16.735   1.364
64224W        W29704  22.032   9.773   5.138
64225W        W29705   5.919  30.933  11.928
64226W        W29706   9.667  41.409   4.255
64227W        W29707  17.208  12.678  14.333
64228W        W29708  14.294  29.525   4.275
64229W        W29709  43.413  15.323  14.798
64230W        W29710   7.319  10.727  11.417
64231W        W29711  38.393  34.560  12.364
64232W        W29712  43.486  37.556   4.821
64233W        W29713  22.734  28.513  14.760
64234W        W29714  44.843   2.441   2.736
64235W        W29715  19.720  12.258  11.531
64236W        W29716  44.934  41.010  14.759
64237W        W29717  16.758  30.910   4.187
64238W        W29718  37.904  32.591  11.541
64239W        W29719  31.628  27.525   1.418
64240W        W29720   0.912  38.062   2.749
64241W        W29721  32.962  12.662   2.370
64242W        W29722   3.456  11.157  14.485
64243W        W29723   3.950  21.202  12.348
64244W        W29724  16.274  35.016  14.947
64245W        W29725   4.730  33.422  14.930
64246W        W29726  22.150   5.421   2.701
64247W        W29727  42.883  37.962  14.454
64248W        W29728  17.200  36.942   3.167
64249W        W29729  44.364  35.983   1.728
64250W        W29730  32.995   7.742   4.620
64251W        W29731   1.811  27.052  14.859
64252W        W29732  17.136  12.788  12.483
64253W        W29733  35.500  43.815  13.414
64254W        W29734  14.126  39.041   4.806
64255W        W29735  21.638  21.531  14.309
64256W        W29736   9.272  17.152  11.611
64257W        W29737  27.670  24.485   2.402
64258W        W29738   4.279  44.417  12.901
64259W        W29739  15.139  14.669  14.317
64260W        W29740  35.561  33.410  14.853
64261W        W29741  41.033  41.929  12.898
64262W        W29742   9.376  25.206   3.712
64263W        W29743  27.660  18.227   2.264
64264W        W29744  11.155   4.925  12.986
64265W        W29745  30.453   8.174  11.068
64266W        W29746  26.158  38.523  10.510
64267W        W29747  17.569  10.190  13.893
64268W        W29748   4.403  38.873  13.488
64269W        W29749  24.632  13.817  12.827
64270W        W29750  35.858  39.332   1.771
64271W        W29751   5.243  19.697   2.369
64272W        W29752  20.148  37.851  10.997
64273W        W29753   7.371  36.407   1.279
64274W        W29754   8.397  11.853   0.957
64275W        W29755  28.120  36.002   0.244
64276W        W29756   9.161   5.827  13.063
64277W        W29757  12.695  28.052  10.487
64278W        W29758  22.216   7.184   2.307
64279W        W29759  30.621  31.089  10.595
64280W        W29760  40.425  17.730   3.330
64281W        W29761  31.478  14.709  12.997
64282W        W29762  43.495  41.513  12.880
64283W        W29763  30.413  14.123   1.396
64284W        W29764  23.594  32.610  10.437
64285W        W29765  26.954  40.946  11.600
64286W        W29766  42.919  36.911  11.043
64287W        W29767   2.737  37.995  11.884
64288W        W29768  40.970  10.671   4.821
64289W        W29769   3.786  32.630   2.362
64290W        W29770  12.210  29.954   4.599
64291W        W29771  31.486  31.121   4.608
64292W        W29772   4.205   8.327   1.743
64293W        W29773  30.996  38.336  13.424
64294W        W29774  26.180   9.670   3.671
64295W        W29775  21.753  28.038  10.412
64296W        W29776  16.169  28.015   1.921
64297W        W29777   4.274   8.174  14.859
64298W        W29778  18.616  17.656  14.835
64299W        W29779   5.290  26.538   0.439
64300W        W29780  22.150  15.709  13.888
64301W        W29781   8.830   6.298   4.751
64302W        W29782  43.968  28.990  12.908
64303W        W29783  22.630  39.856   4.187
64304W        W29784  36.062  44.906   3.148
64305W        W29785  43.978  16.271   0.472
64306W        W29786  25.006  23.027   4.291
64307W        W29787  15.819   4.876   2.807
64308W        W29788  40.356   9.326   1.305
64309W        W29789  15.088  16.743   0.832
64310W        W29790  29.477   7.881   2.664
64311W        W29791  13.110  12.236  12.077
64312W        W29792  17.287  10.779  12.454
64313W        W29793   7.372  36.987  12.076
64314W        W29794  41.009  37.501  12.906
64315W        W29795  37.487   7.705   0.965
64316W        W29796   1.238  34.373   1.850
64317W        W29797  24.011  33.612  10.915
64318W        W29798  17.765  12.284  13.398
64319W        W29799  26.111   0.863   5.180
64320W        W29800  43.376  44.305   2.799
64321W        W29801  33.549   2.796  14.915
64322W        W29802   9.329  39.346   0.911
64323W        W29803   5.243  28.080  11.916
64324W        W29804  11.773  16.280   0.790
64325W        W29805  29.966  27.118   4.765
64326W        W29806   3.301  15.701   0.451
64327W        W29807  41.836  28.566   2.901
64328W        W29808  42.508  18.674   2.353
64329W        W29809   8.311  17.082   0.366
64330W        W29810   1.343  20.200  13.491
64331W        W29811   6.790   7.721  12.413
64332W        W29812   4.821  44.406  14.005
64333W        W29813  26.011  33.625  14.412
64334W        W29814  17.685  14.780   2.796
64335W        W29815  13.145  43.876  14.879
64336W        W29816   8.197  42.817  11.380
64337W        W29817  20.120  26.955  11.003
64338W        W29818  44.499  29.648  11.953
64339W        W29819   2.884  28.959  12.088
64340W        W29820  10.349  29.434   4.736
64341W        W29821  44.486  38.935   3.197
64342W        W29822   8.667   3.893  13.535
64343W        W29823  38.451  40.435  13.521
64344W        W29824  34.414  24.524   0.881
64345W        W29825  43.767   3.764  13.026
64346W        W29826  29.495  12.744   3.804
64347W        W29827  43.468   3.841  14.430
64348W        W29828  15.226  16.771  14.900
64349W        W29829  28.991  43.921   0.923
64350W        W29830  28.460   6.702   4.756
64351W        W29831  12.130  32.403   4.826
64352W        W29832  44.337  44.844   0.446
64353W        W29833  25.997  26.554  12.562
64354W        W29834  20.173  27.691  13.336
64355W        W29835   2.756  15.134  12.902
64356W        W29836  43.469   8.763   4.355
64357W        W29837  36.011  12.648  10.452
64358W        W29838  22.150   6.734   2.685
64359W        W29839  35.936   3.453  14.481
64360W        W29840  34.864   0.483  12.501
64361W        W29841   7.866  33.086  14.941
64362W        W29842  29.130  38.972   2.837
64363W        W29843  39.349   3.955  13.402
64364W        W29844  35.080  39.454  13.324
64365W        W29845  41.832  35.913  12.501
64366W        W29846   7.229  40.978  11.872
64367W        W29847  27.979  19.131  13.340
64368W        W29848  11.150  42.924  11.940
64369W        W29849   8.310  23.013   1.865
64370W        W29850  24.985   5.240   2.407
64371W        W29851   5.302  39.024   3.153
64372W        W29852  39.425  23.731   0.805
64373W        W29853  34.948  19.712   4.218
64374W        W29854  27.981  41.825  14.367
64375W        W29855   6.311   7.365   5.316
64376W        W29856  13.653  23.581   1.747
64377W        W29857  26.074  30.604  12.000
64378W        W29858  13.341  32.998  11.505
64379W        W29859   6.203  17.223   9.955
64380W        W29860  26.977  38.447   0.945
64381W        W29861   3.247  29.132   2.813
64382W        W29862  43.515  20.645   1.858
64383W        W29863  14.304  14.747   1.792
64384W        W29864  12.300  19.668  13.446
64385W        W29865  29.568  32.003  11.105
64386W        W29866  24.097   7.838  14.315
64387W        W29867  25.706   3.323  14.455
64388W        W29868  36.892   4.936   1.230
64389W        W29869   6.741  15.099   1.232
64390W        W29870  44.008  35.081  13.854
64391W        W29871   2.310  35.090   3.169
64392W        W29872   0.918  15.794   5.200
64393W        W29873  28.031  24.668   4.808
64394W        W29874  19.148  13.711   1.417
64395W        W29875  20.721  42.350  13.436
64396W        W29876   6.198  23.212   3.746
64397W        W29877  39.336   6.257  12.973
64398W        W29878  10.878  44.765   2.757
64399W        W29879  30.925  22.209   4.325
64400W        W29880  13.777  31.620  10.443
64401W        W29881  30.644  42.397   5.284
64402W        W29882   1.920  19.581   1.862
64403W        W29883  35.368   3.805   2.386
64404W        W29884  43.409  36.091  14.288
64405W        W29885  27.611   0.392  13.484
64406W        W29886  29.967  18.680  11.510
64407W        W29887  25.212  37.023   1.776
64408W        W29888  17.166  24.537   2.683
64409W        W29889  12.306  31.958  13.834
64410W        W29890   1.356  43.901   2.727
64411W        W29891  36.978  24.511   4.312
64412W        W29892  16.151  40.032  11.024
64413W        W29893  32.625  25.028   4.820
64414W        W29894  32.899  37.875  11.110
64415W        W29895  23.221  26.664  11.992
64416W        W29896  16.624  17.210   1.773
64417W        W29897  14.304  37.481   4.807
64418W        W29898  31.068  34.991   0.889
64419W        W29899   4.729  21.618   3.707
64420W        W29900  26.566  24.229  13.800
64421W        W29901  17.077  23.132  10.410
64422W        W29902  10.744  42.505  10.982
64423W        W29903  42.984  13.313   2.294
64424W        W29904  40.869  41.967  13.493
64425W        W29905  24.103  36.518  14.951
64426W        W29906  36.851  15.178   4.791
64427W        W29907  25.588   1.752   3.151
64428W        W29908  26.967  30.519   3.358
64429W        W29909  27.051  27.113   0.399
64430W        W29910  31.074   9.795  14.017
64431W        W29911   6.883  11.691  14.002
64432W        W29912   0.805  21.640  14.853
64433W        W29913  28.105  15.143  11.041
64434W        W29914  13.834   1.876  11.486
64435W        W29915  43.840  43.878  12.529
64436W        W29916  11.829  28.583   1.335
64437W        W29917  38.484  36.085   0.284
64438W        W29918  20.038   2.348  12.994
64439W        W29919  26.703   3.828   3.748
64440W        W29920  16.642  22.049  12.376
64441W        W29921  32.941  13.778  12.429
64442W        W29922  10.651  40.822   2.242
64443W        W29923  21.048  34.584  14.898
64444W        W29924  19.264   2.905   0.865
64445W        W29925   1.444  12.650   4.716
64446W        W29926  39.393  44.370   3.660
64447W        W29927  31.903   9.776  10.564
64448W        W29928   6.294  17.277   5.315
64449W        W29929   9.754   1.776  12.854
64450W        W29930  30.055  34.892   2.195
64451W        W29931   5.826   8.183  14.019
64452W        W29932  34.051  27.042   3.762
64453W        W29933  13.323  10.282   3.827
64454W        W29934  37.491  24.571  10.952
64455W        W29935  10.853  13.115  10.405
64456W        W29936  30.071  27.641  13.047
64457W        W29937  40.346   1.453   3.838
64458W        W29938  20.679  26.459  13.827
64459W        W29939  35.440  20.571   2.380
64460W        W29940   3.295  39.941  10.940
64461W        W29941   6.327  34.471  13.995
64462W        W29942  40.858  14.337   1.412
64463W        W29943  21.176  43.897   0.383
64464W        W29944  15.290   3.280   4.699
64465W        W29945  23.623   2.737   1.274
64466W        W29946   5.306  25.683   3.803
64467W        W29947  26.573  40.346   4.618
64468W        W29948   9.212  11.178   4.132
64469W        W29949  36.570  16.172  10.959
64470W        W29950   7.315   5.855   2.328
64471W        W29951  15.751  31.640   3.731
64472W        W29952   4.768  40.963   4.706
64473W        W29953  12.661  22.656   3.657
64474W        W29954  25.088  24.539   3.814
64475W        W29955   9.656  40.398   2.236
64476W        W29956  41.857  13.843  14.418
64477W        W29957   2.396   3.783   3.243
64478W        W29958  39.890  11.782  14.023
64479W        W29959  17.080  25.614  12.354
64480W        W29960  17.616  15.222  11.117
64481W        W29961  34.538  36.963  12.037
64482W        W29962   6.846  31.419  12.096
64483W        W29963  31.914  20.157   2.810
64484W        W29964   1.972  16.805  12.944
64485W        W29965  27.959  44.487   3.256
64486W        W29966  31.005  38.038   2.663
64487W        W29967  18.781  33.116  13.368
64488W        W29968  33.503  18.603  14.871
64489W        W29969  18.093  40.950   1.310
64490W        W29970  35.961  34.879  14.773
64491W        W29971   3.443  42.998   5.109
64492W        W29972   8.322   2.469   2.791
64493W        W29973  41.345  29.005   4.652
64494W        W29974   3.333   8.754  14.513
64495W        W29975  12.676  11.158   1.848
64496W        W29976   0.770  16.785  13.483
64497W        W29977   6.871  16.669  11.611
64498W        W29978  38.878  40.529   1.289
64499W        W29979  27.463   4.809   2.743
64500W        W29980  19.278  23.006   2.811
64501W        W29981   4.354  39.980  11.406
64502W        W29982   6.269   2.333  12.385
64503W        W29983  44.941  24.621  12.030
64504W        W29984  17.604  31.610   1.351
64505W        W29985  30.553   6.904  14.364
64506W        W29986  10.215  41.818  13.997
64507W        W29987  28.180  29.002  12.391
64508W        W29988  31.552  28.080  11.090
64509W        W29989  20.199   0.967  12.394
64510W        W29990  32.950  25.570  12.876
64511W        W29991  38.073   7.236  10.404
64512W        W29992  39.544   1.843   1.730
64513W        W29993  17.141  21.113  11.891
64514W        W29994  20.116  37.341  14.984
64515W        W29995  11.706  28.953   2.694
64516W        W29996  44.443  17.109   1.934
64517W        W29997  23.655  33.102   0.305
64518W        W29998  13.618  20.110  13.845
64519W        W29999  44.359   1.467   0.321
64520W        W30000  41.891  39.559   2.745
64521W        W30001  38.931   6.264   1.340
64522W        W30002  22.735   3.453   4.638
64523W        W30003   0.431   2.404   2.181
64524W        W30004  10.338  40.370  10.587
64525W        W30005  25.184  37.377   1.406
64526W        W30006  26.683   5.879  14.857
64527W        W30007  40.984  23.528  12.437
64528W        W30008  12.249  35.965  11.470
64529W        W30009  23.657  19.772   4.731
64530W        W30010  29.169  37.386  13.906
64531W        W30011  30.066  20.269  14.867
64532W        W30012  22.639  42.863  10.522
64533W        W30013  24.680  12.762  11.464
64534W        W30014  32.475  32.947   1.927
64535W        W30015  36.956  31.952   0.466
64536W        W30016  28.064   3.331  13.857
64537W        W30017   5.705   5.741   1.754
64538W        W30018  26.170  38.821  12.490
64539W        W30019  31.957   4.856   5.139
64540W        W30020  10.768  27.050  14.865
64541W        W30021  41.314  38.889  12.927
64542W        W30022  37.046  20.679  14.275
64543W        W30023   0.475  38.067   2.336
64544W        W30024  14.189   8.192   4.124
64545W        W30025   5.847   9.237   1.407
64546W        W30026  23.033  24.545  12.049
64547W        W30027   7.253  29.979   4.153
64548W        W30028  10.649  32.544   0.727
64549W        W30029  11.304  23.726   4.598
64550W        W30030   7.876   1.348  14.791
64551W        W30031   7.727  19.194  13.342
64552W        W30032  10.223  19.199   4.693
64553W        W30033  11.630   6.269  11.889
64554W        W30034  31.562  39.929  12.029
64555W        W30035  34.875  36.868  11.091
64556W        W30036  39.473  30.492  11.922
64557W        W30037  24.019   6.240   2.871
64558W        W30038  30.060   7.226  12.419
64559W        W30039   3.898  22.714  13.834
64560W        W30040  37.378  23.200  14.470
64561W        W30041   2.951  20.671  10.413
64562W        W30042  41.467  42.864  12.356
64563W        W30043  33.051  30.073  14.797
64564W        W30044   4.380   7.299   4.242
64565W        W30045  33.514  34.027  13.917
64566W        W30046  30.161  34.026  13.963
64567W        W30047  28.436  28.626   0.819
64568W        W30048   6.694   4.256   3.678
64569W        W30049  25.562  33.577  12.034
64570W        W30050   6.186   8.797  11.556
64571W        W30051  19.245  27.477   5.569
64572W        W30052   8.356   6.407   2.806
64573W        W30053  21.518  15.321   2.327
64574W        W30054   9.302  37.488   2.786
64575W        W30055  26.600  16.741  14.878
64576W        W30056   6.852  25.987  11.043
64577W        W30057  21.088  43.329   3.720
64578W        W30058  23.597  37.019   3.704
64579W        W30059  16.664  31.909  10.432
64580W        W30060   4.378  20.599  11.582
64581W        W30061   8.885  24.002   2.320
64582W        W30062  35.898   3.385  10.966
64583W        W30063  30.037  32.907   2.226
64584W        W30064  42.449  16.603  12.892
64585W        W30065  42.008  16.195   3.748
64586W        W30066  43.900   1.240  12.368
64587W        W30067  19.165   5.343  13.052
64588W        W30068  17.627  23.688   1.212
64589W        W30069  22.686  18.547  11.402
64590W        W30070  37.970   3.845  14.763
64591W        W30071  17.657  37.866  11.934
64592W        W30072   9.270  23.218   4.197
64593W        W30073  13.126  20.038   3.807
64594W        W30074   4.369  35.098   4.740
64595W        W30075  28.499  15.727  11.962
64596W        W30076   9.268   3.297  12.504
64597W        W30077   9.206  31.571  10.452
64598W        W30078  30.036  31.991  12.004
64599W        W30079  31.418   6.338  12.953
64600W        W30080  34.456  30.051  14.872
64601W        W30081  11.681   7.327   5.293
64602W        W30082   9.724  38.962  14.855
64603W        W30083   2.311   1.481   1.250
64604W        W30084   8.759  31.912   4.214
64605W        W30085   4.797  14.175   3.207
64606W        W30086  19.720   5.242  14.013
64607W        W30087  11.219  28.446   3.837
64608W        W30088  39.497  15.658  14.347
64609W        W30089  17.699  29.432  11.985
64610W        W30090  23.042  29.566  13.336
64611W        W30091  26.119  34.008   2.690
64612W        W30092   4.231  43.798  10.939
64613W        W30093  31.049  35.366  10.943
64614W        W30094  44.995  24.065  10.455
64615W        W30095  41.387  41.998   4.669
64616W        W30096  10.178  31.646   3.356
64617W        W30097  20.664  23.053   0.424
64618W        W30098  25.169  43.786  14.845
64619W        W30099  35.095  30.115  13.329
64620W        W30100   7.842  35.451  13.829
64621W        W30101  31.968  44.483   0.823
64622W        W30102  11.249  19.042   0.452
64623W        W30103  43.930  32.481   0.333
64624W        W30104  10.640   3.722  14.381
64625W        W30105  25.088  35.945  14.464
64626W        W30106   3.298   5.929  14.483
64627W        W30107  13.692  33.602  13.318
64628W        W30108  10.257  40.857   2.811
64629W        W30109  34.937   3.916   4.349
64630W        W30110  40.336  30.653  10.144
64631W        W30111  23.734  23.499   3.690
64632W        W30112  43.872  43.288   1.839
64633W        W30113  13.600  12.237   2.803
64634W        W30114  11.779  43.900   1.828
64635W        W30115   1.305  18.577   4.231
64636W        W30116  27.521  40.323  10.495
64637W        W30117  35.877  43.947  14.918
64638W        W30118  26.652  16.248   2.850
64639W        W30119  31.616  16.105   3.200
64640W        W30120  16.126  21.625   2.804
64641W        W30121  40.480  12.783  10.555
64642W        W30122  30.962  40.901  14.876
64643W        W30123   3.248   0.449   3.750
64644W        W30124  18.706   2.285  11.897
64645W        W30125  13.800  35.461   2.802
64646W        W30126  32.594   7.382   4.614
64647W        W30127  25.064  15.203  14.892
64648W        W30128  27.074   7.205   3.342
64649W        W30129  41.996  37.447   4.318
64650W        W30130   4.918  27.614  13.946
64651W        W30131  18.565  38.497   2.236
64652W        W30132  43.300   6.807   3.289
64653W        W30133  10.289  24.591   2.358
64654W        W30134   7.350  16.618   2.702
64655W        W30135  22.735  13.780   4.721
64656W        W30136  43.507  24.090  11.399
64657W        W30137  24.518  17.577  13.852
64658W        W30138   7.363  32.113  12.073
64659W        W30139  23.218  26.481  10.890
64660W        W30140  38.430  38.886  13.013
64661W        W30141  20.127  23.517   2.854
64662W        W30142  12.233  36.448   2.849
64663W        W30143  20.637  26.139   3.301
64664W        W30144  13.825  19.557   0.405
64665W        W30145   0.751  31.941  11.458
64666W        W30146  11.305  27.664   1.240
64667W        W30147  32.084  14.207   2.300
64668W        W30148  20.097  21.742  11.465
64669W        W30149   0.456  24.080  11.014
64670W        W30150  18.718   2.955   0.933
64671W        W30151  29.636  33.583   3.681
64672W        W30152  38.379  32.469  11.480
64673W        W30153  25.604  28.971   1.347
64674W        W30154   0.968  28.511   2.259
64675W        W30155  42.464  40.826  11.899
64676W        W30156  17.096  40.955  12.534
64677W        W30157  16.175  30.428   3.801
64678W        W30158  23.675  32.513   2.756
64679W        W30159  32.617   7.304  11.547
64680W        W30160  33.028   4.898   3.357
64681W        W30161  39.400   5.328   2.852
64682W        W30162   4.429  36.980  14.392
64683W        W30163  21.601  36.854   0.427
64684W        W30164  28.667   5.284  11.916
64685W        W30165   8.826  27.493   2.820
64686W        W30166  22.545  43.782  13.428
64687W        W30167   7.672  14.144   3.730
64688W        W30168  28.667  25.581   0.921
64689W        W30169  26.976  16.089  14.788
64690W        W30170  20.227  25.136  11.038
64691W        W30171  18.614  16.672  14.407
64692W        W30172  43.322  30.559  14.980
64693W        W30173   1.389   7.817   2.854
64694W        W30174   3.241  35.896   4.172
64695W        W30175  37.056  44.267  13.812
64696W        W30176   1.287  34.611  11.923
64697W        W30177  23.011  20.757   3.716
64698W        W30178  40.470  40.483   1.284
64699W        W30179  23.588   1.759   4.211
64700W        W30180   7.859  43.460   3.219
64701W        W30181  27.476  36.863  12.455
64702W        W30182  24.502  35.531  14.838
64703W        W30183  35.521  36.085  14.374
64704W        W30184  13.632   9.826   2.273
64705W        W30185  11.682  39.551  13.011
64706W        W30186  32.063   7.680   1.389
64707W        W30187  29.637  44.366  14.004
64708W        W30188  26.024  25.020   3.812
64709W        W30189  33.015  29.520   0.874
64710W        W30190  11.794  40.320   4.806
64711W        W30191  39.815  30.444   2.872
64712W        W30192   3.870  20.669   0.440
64713W        W30193  13.622  28.495   0.757
64714W        W30194  31.637  33.046  13.989
64715W        W30195  34.056  32.047  10.931
64716W        W30196   7.779  31.017   0.802
64717W        W30197   6.415  24.634  11.109
64718W        W30198  23.664   1.866  11.610
64719W        W30199  36.929  36.008  13.358
64720W        W30200  24.063  10.745  12.371
64721W        W30201   3.943  12.671   0.778
64722W        W30202  10.224  40.454  12.453
64723W        W30203  33.460  38.012  10.473
64724W        W30204  37.977  35.894   2.260
64725W        W30205  21.684  29.960   3.233
64726W        W30206   9.797   5.794   0.936
64727W        W30207  38.959   6.798   0.421
64728W        W30208  22.247  36.012  12.433
64729W        W30209  13.156  23.681  14.305
64730W        W30210  22.997  17.281  14.505
64731W        W30211  23.626  41.937  10.910
64732W        W30212   3.452  30.040   4.797
64733W        W30213   4.781  42.492  14.978
64734W        W30214  26.032  18.075   2.211
64735W        W30215  40.024   5.857   1.412
64736W        W30216   1.827  23.662  14.758
64737W        W30217  21.702   4.309  14.888
64738W        W30218  38.454  37.372   4.663
64739W        W30219  35.403  28.118   0.806
64740W        W30220  14.278  40.413   9.981
64741W        W30221  44.403  32.529  10.478
64742W        W30222  24.491  18.621   0.864
64743W        W30223  39.061  36.370   9.974
64744W        W30224  33.904  22.081  14.358
64745W        W30225  15.143   4.933  14.474
64746W        W30226  38.021  34.426   4.227
64747W        W30227  31.959  39.047   4.674
64748W        W30228  41.017  13.237   0.425
64749W        W30229   3.344  22.604   0.328
64750W        W30230  39.432  19.646   1.841
64751W        W30231   1.420   4.740  14.911
64752W        W30232  27.102  10.293   2.201
64753W        W30233  23.670  11.730  10.888
64754W        W30234  10.635  29.166   4.307
64755W        W30235  17.665  23.152   4.225
64756W        W30236  27.649  25.985   0.407
64757W        W30237  35.543  11.727  13.524
64758W        W30238  44.456  20.057   2.850
64759W        W30239   1.351  31.018   4.811
64760W        W30240   2.259   6.354   1.909
64761W        W30241   6.842   2.765   0.267
64762W        W30242  27.465  31.481   0.440
64763W        W30243   4.799  27.108   0.913
64764W        W30244  24.655   3.916  14.765
64765W        W30245  26.693  38.911  13.901
64766W        W30246  40.419   4.294  13.427
64767W        W30247  32.018  15.819  10.945
64768W        W30248  40.912   1.280  14.464
64769W        W30249  37.053  14.175  12.863
64770W        W30250  41.877  37.858   1.387
64771W        W30251  15.718   5.894   0.787
64772W        W30252  12.851  23.106   2.776
64773W        W30253  44.762   7.786   0.471
64774W        W30254  20.193   0.338   4.616
64775W        W30255  10.155  38.851  13.013
64776W        W30256   3.245  19.088  11.127
64777W        W30257  11.267  29.174   0.948
64778W        W30258   3.275  12.353   1.297
64779W        W30259   2.734  43.797  10.613
64780W        W30260  30.558  44.261  10.521
64781W        W30261  22.068  39.498   3.655
64782W        W30262  38.047  40.484   1.387
64783W        W30263  31.637   8.786   2.304
64784W        W30264  12.214  24.040  12.995
64785W        W30265   8.726   4.322  11.411
64786W        W30266  28.496  31.049   3.301
64787W        W30267  21.540  27.453  14.995
64788W        W30268  26.522  31.966   3.318
64789W        W30269  13.216   1.891  14.785
64790W        W30270  44.501  19.186   4.789
64791W        W30271  33.090  42.860  11.937
64792W        W30272   6.839  38.327   0.750
64793W        W30273  43.897  43.945   1.315
64794W        W30274  36.350  29.137  10.630
64795W        W30275  22.530  38.069  14.466
64796W        W30276  30.503  39.961   2.771
64797W        W30277  20.525  19.571   1.911
64798W        W30278  40.906  13.192  14.930
64799W        W30279  42.452   3.900   0.871
64800W        W30280  38.501  41.866  13.439
64801W        W30281  40.986  19.233  11.877
64802W        W30282   8.882  34.902   0.242
64803W        W30283  25.607  42.291   2.663
64804W        W30284  41.900  22.676   3.843
64805W        W30285  41.501  16.298   2.800
64806W        W30286  32.961  21.118   3.194
64807W        W30287  28.961  43.771  14.432
64808W        W30288  16.154  10.662  13.947
64809W        W30289   2.371  31.512   2.873
64810W        W30290  22.559  30.097  13.317
64811W        W30291   3.833   7.344  13.354
64812W        W30292  40.422  35.024  12.475
64813W        W30293  18.211  44.414  11.949
64814W        W30294  36.895   9.203  12.371
64815W        W30295  37.049  24.085   0.373
64816W        W30296   0.260  23.102  10.632
64817W        W30297  30.631  19.279   4.676
64818W        W30298  39.941  25.163   4.670
64819W        W30299  41.802  13.837   2.901
64820W        W30300  28.664  28.106   3.145
64821W        W30301  19.773  20.686   4.783
64822W        W30302   7.336  28.045   4.602
64823W        W30303  26.574  26.197  14.286
64824W        W30304  37.338   7.416  10.590
64825W        W30305  12.263   6.833   0.920
64826W        W30306  44.847  41.324   0.903
64827W        W30307  25.000  35.974   1.857
64828W        W30308   9.663  12.219   4.354
64829W        W30309  31.532  13.646  14.914
64830W        W30310   0.957  17.140  11.531
64831W        W30311   7.415  39.487  11.872
64832W        W30312   4.345   4.824   3.778
64833W        W30313   5.749  22.688  11.098
64834W        W30314  10.287   6.912  13.340
64835W        W30315  40.392  33.571  14.765
64836W        W30316  18.240  35.001  12.961
64837W        W30317  38.022  23.567   0.367
64838W        W30318  31.040  10.644   2.851
64839W        W30319  20.242  37.036   0.931
64840W        W30320   8.280  10.849   0.305
64841W        W30321  39.033   2.360   0.458
64842W        W30322   0.899   2.866   2.400
64843W        W30323  29.496  26.496   0.338
64844W        W30324  37.920  31.061   0.382
64845W        W30325  38.007  24.158  14.490
64846W        W30326   3.790   9.158  13.486
64847W        W30327  41.356   6.360  12.879
64848W        W30328   0.253  42.974   0.456
64849W        W30329  30.045   3.940   3.797
64850W        W30330  39.327   3.842  12.995
64851W        W30331  41.814  25.603   4.628
64852W        W30332  37.054  15.142   1.746
64853W        W30333  27.669  36.425   4.773
64854W        W30334  19.172  35.012   1.799
64855W        W30335  10.859  30.493  11.911
64856W        W30336   0.941  17.119  11.946
64857W        W30337  17.292  35.092   0.963
64858W        W30338  17.248  38.003   1.361
64859W        W30339   8.774   7.296   3.234
64860W        W30340  17.683  37.401  11.087
64861W        W30341  41.314  25.605  10.437
64862W        W30342  23.223   8.877   1.399
64863W        W30343   7.868  32.990   0.400
64864W        W30344  41.933  24.028  10.993
64865W        W30345  38.967   9.817  12.476
64866W        W30346   1.350   0.877  11.409
64867W        W30347  42.366  11.689  14.760
64868W        W30348  39.458  31.902   4.170
64869W        W30349  34.073  14.699   0.359
64870W        W30350   6.233  41.823   0.323
64871W        W30351  11.191  24.623   0.843
64872W        W30352  36.423   3.950  14.882
64873W        W30353  41.028  29.115  14.412
64874W        W30354  13.218  11.165   1.332
64875W        W30355  41.848  42.511   2.376
64876W        W30356  17.568  19.690   1.273
64877W        W30357  25.121   9.329  14.894
64878W        W30358  24.011  19.190  11.515
64879W        W30359  16.247  33.033  11.079
64880W        W30360  18.658   3.216   5.315
64881W        W30361  39.818  14.678  14.892
64882W        W30362  11.138  38.360   3.826
64883W        W30363  27.669  15.185  13.336
64884W        W30364  27.642  34.508   3.637
64885W        W30365  35.914  13.698   1.255
64886W        W30366  10.176  14.822  12.952
64887W        W30367  23.547  32.420  13.499
64888W        W30368   5.214  20.232  14.293
64889W        W30369  36.846  13.339   2.359
64890W        W30370  36.862  16.712  14.288
64891W        W30371  19.603   3.328  14.410
64892W        W30372  32.537  31.138   4.644
64893W        W30373  18.656  23.590  12.935
64894W        W30374  14.277  32.528  11.109
64895W        W30375  37.947  33.001   0.290
64896W        W30376  21.661  17.580   2.718
64897W        W30377  27.948  14.202  12.544
64898W        W30378  37.899  17.293  11.445
64899W        W30379  39.857  33.913   0.429
64900W        W30380  35.389  27.986  11.876
64901W        W30381  26.205  15.737  12.927
64902W        W30382  26.186  38.493   4.738
64903W        W30383  42.491  32.599  13.536
64904W        W30384  14.814  39.816   4.731
64905W        W30385  27.115  27.992   1.694
64906W        W30386  30.130  19.687  12.490
64907W        W30387  21.158  21.536  11.998
64908W        W30388  35.912   0.377   2.363
64909W        W30389  10.223  28.569  12.543
64910W        W30390  32.131   2.398   4.688
64911W        W30391  30.920  28.655  10.423
64912W        W30392  19.637  16.579   3.717
64913W        W30393  37.893  44.000   1.264
64914W        W30394  23.495   7.318   9.922
64915W        W30395   0.317   0.329   3.162
64916W        W30396   4.748  14.186  11.998
64917W        W30397   1.438  37.523  13.407
64918W        W30398  16.625  29.048   9.931
64919W        W30399  18.098   6.421   2.832
64920W        W30400  16.293  23.114  11.047
64921W        W30401   2.229  31.449  12.060
64922W        W30402  42.362  31.045  13.936
64923W        W30403  43.932  13.673   3.146
64924W        W30404  19.769  25.141   0.957
64925W        W30405  37.406  37.931  12.393
64926W        W30406  31.616  21.683  12.565
64927W        W30407  12.686  39.988  12.386
64928W        W30408  27.157  26.703  13.029
64929W        W30409  24.218  33.104  11.977
64930W        W30410  39.361  16.074   4.318
64931W        W30411  17.258  44.279  12.541
64932W        W30412  11.739  16.212   3.666
64933W        W30413  17.090  26.621  11.986
64934W        W30414   1.393  44.381  12.864
64935W        W30415  29.639  18.663  13.048
64936W        W30416  25.988  41.007   3.319
64937W        W30417  29.090  26.172  12.925
64938W        W30418  35.053   7.400   4.323
64939W        W30419  44.277  19.614   0.417
64940W        W30420  14.755   7.753  14.377
64941W        W30421  44.759  36.057  14.467
64942W        W30422  22.218  20.270   4.118
64943W        W30423   7.786  31.562   3.276
64944W        W30424  34.987  23.501   0.954
64945W        W30425  30.521   5.899  13.464
64946W        W30426   0.920  40.373  11.425
64947W        W30427  33.490   0.886  14.299
64948W        W30428  25.619   9.706   1.363
64949W        W30429  28.446  12.749  13.887
64950W        W30430  10.215  14.784   0.389
64951W        W30431  43.462  31.508  12.574
64952W        W30432  32.599  41.408   0.359
64953W        W30433   6.899  25.697   2.340
64954W        W30434   2.359   1.955   1.855
64955W        W30435  44.942   5.744  14.437
64956W        W30436  32.500  17.709   3.677
64957W        W30437  43.901  17.209   3.781
64958W        W30438  38.853   7.194  13.874
64959W        W30439  43.930  31.483   3.631
64960W        W30440  24.136  19.102   0.877
64961W        W30441  29.424   1.373   0.863
64962W        W30442  24.676  21.543  10.612
64963W        W30443   6.870  14.793  13.899
64964W        W30444   6.271  24.999   1.820
64965W        W30445  27.170  42.942   5.305
64966W        W30446   2.426  15.232  14.935
64967W        W30447   7.251  20.240   1.287
64968W        W30448  27.629  42.973  14.352
64969W        W30449  25.048  29.996   3.812
64970W        W30450   8.244  41.393  13.993
64971W        W30451  22.211   1.409  11.004
64972W        W30452  15.763  36.980  12.438
64973W        W30453  33.518   9.650  10.914
64974W        W30454   6.336  40.981   3.298
64975W        W30455  13.207   4.808  12.472
64976W        W30456  23.732  44.398  12.009
64977W        W30457   9.879  15.187  13.465
64978W        W30458  42.808   6.702   2.200
64979W        W30459  11.664  14.727  11.038
64980W        W30460   9.882   0.328   3.632
64981W        W30461   6.359  36.035  12.580
64982W        W30462  38.341  16.148  10.966
64983W        W30463  43.967  22.054  11.499
64984W        W30464  12.764  33.483   0.318
64985W        W30465  38.856   0.955  11.872
64986W        W30466  28.625   2.394  14.943
64987W        W30467  43.389  41.010  14.469
64988W        W30468  18.708  39.426  11.065
64989W        W30469  23.511  33.621   4.355
64990W        W30470   4.410  23.576  14.322
64991W        W30471   2.280   4.704   2.368
64992W        W30472  29.934  27.492  11.937
64993W        W30473  29.669  12.338  11.863
64994W        W30474  17.243  43.826   4.625
64995W        W30475   7.874  27.987  11.923
64996W        W30476  29.642  24.075   2.734
64997W        W30477   2.946  26.139  11.929
64998W        W30478  26.592  19.560   4.132
64999W        W30479  40.973  28.990  10.947
65000W        W30480  29.507   3.719   4.282
65001W        W30481  32.574  29.618   4.598
65002W        W30482  35.386  34.049   1.398
65003W        W30483  29.665  41.995  12.839
65004W        W30484   9.778  18.255  12.032
65005W        W30485  21.730  10.655  14.448
65006W        W30486  32.901   8.667   4.292
65007W        W30487  38.879  20.045  13.875
65008W        W30488  44.366   8.355   0.910
65009W        W30489  17.599  25.188   0.947
65010W        W30490  33.491   3.397   2.352
65011W        W30491  16.792  16.648  13.058
65012W        W30492  34.538  26.505   0.754
65013W        W30493  37.446  14.262  11.072
65014W        W30494  41.463  31.515  11.451
65015W        W30495  37.897   6.886   0.308
65016W        W30496  34.011  37.926  11.112
65017W        W30497  12.188  39.955  13.813
65018W        W30498  18.566   0.794   1.236
65019W        W30499  23.541  20.081  10.443
65020W        W30500  42.938  14.635   1.321
65021W        W30501  27.143  22.534  14.415
65022W        W30502   0.989   8.880   2.241
65023W        W30503  39.813  26.600  12.892
65024W        W30504  32.089  24.132   3.655
65025W        W30505  38.407  23.562   2.361
65026W        W30506   4.751  25.608   1.754
65027W        W30507  13.826  36.401  14.394
65028W        W30508  31.405  19.603  10.600
65029W        W30509  34.901   0.870  13.016
65030W        W30510  33.934  38.524   0.314
65031W        W30511  24.674  29.984   1.304
65032W        W30512  41.873  13.147   3.649
65033W        W30513   4.767   9.229  10.148
65034W        W30514  30.132  36.372   3.272
65035W        W30515   9.844  23.051   4.262
65036W        W30516  21.520  32.929  12.538
65037W        W30517   5.326  23.560   3.694
65038W        W30518   9.864  27.672   0.861
65039W        W30519  37.913   8.882  14.449
65040W        W30520  16.084  37.977   0.791
65041W        W30521  43.330  41.527  14.304
65042W        W30522  39.503  33.414  13.020
65043W        W30523   9.315  20.654   0.953
65044W        W30524   2.839  33.904  11.554
65045W        W30525  18.722  15.168   4.124
65046W        W30526   8.283  27.497   1.235
65047W        W30527   1.242  43.424   0.742
65048W        W30528  43.304   4.763   3.698
65049W        W30529  11.327  41.485  11.453
65050W        W30530  26.990  28.488  12.535
65051W        W30531  26.522   9.729   1.891
65052W        W30532  38.046  26.126   0.830
65053W        W30533  41.832   9.697  11.963
65054W        W30534  25.217   4.768   4.272
65055W        W30535  13.819  24.099   2.272
65056W        W30536  32.943  39.904  12.483
65057W        W30537  14.234   8.211  14.871
65058W        W30538  34.983  40.381  14.352
65059W        W30539  23.629  31.915   1.439
65060W        W30540   1.380  32.487  14.961
65061W        W30541  14.134  11.857   4.763
65062W        W30542  29.067  15.815   0.435
65063W        W30543  23.508   5.849  12.578
65064W        W30544  23.666  41.334  12.878
65065W        W30545  16.632   2.871  11.887
65066W        W30546  31.896  34.395  12.073
65067W        W30547  20.533  32.580   0.314
65068W        W30548  39.060  30.018  13.891
65069W        W30549  33.555  36.878  14.350
65070W        W30550  40.963   8.254  11.113
65071W        W30551  28.012  39.460  12.995
65072W        W30552   1.813  30.045  14.888
65073W        W30553  33.992  35.508   1.250
65074W        W30554  36.998  24.199  13.370
65075W        W30555   2.258   4.865   1.822
65076W        W30556  35.387  15.745   4.802
65077W        W30557  37.932   7.410   3.257
65078W        W30558  15.722  32.568   0.896
65079W        W30559  19.725  34.097   1.888
65080W        W30560   8.840  31.510  12.909
65081W        W30561  11.373  24.159   1.295
65082W        W30562  23.034  34.876   4.141
65083W        W30563   5.323   2.742  14.960
65084W        W30564  16.205  20.766   3.737
65085W        W30565  29.555  41.816   1.376
65086W        W30566  41.816   8.214   2.723
65087W        W30567  38.464   3.244   3.285
65088W        W30568  10.216  17.615   0.402
65089W        W30569  23.682  27.530   2.328
65090W        W30570   2.805  18.086  13.822
65091W        W30571  32.420  10.287   0.917
65092W        W30572  43.934  31.087   3.805
65093W        W30573  10.180  16.248  13.053
65094W        W30574  44.975  42.000  14.422
65095W        W30575  14.756  25.677  13.031
65096W        W30576   2.335  10.188   4.817
65097W        W30577   1.793  14.139   4.242
65098W        W30578  42.441  21.021   1.370
65099W        W30579  26.622  16.222   1.359
65100W        W30580   8.200   9.339   3.276
65101W        W30581   0.398  17.625  13.849
65102W        W30582   5.753  14.284   0.362
65103W        W30583   9.723  23.061  14.950
65104W        W30584  20.064  24.162  14.424
65105W        W30585  34.089  16.757   1.844
65106W        W30586   5.747   8.308   0.283
65107W        W30587  39.976   5.926   5.286
65108W        W30588   5.859  27.050  14.792
65109W        W30589  29.455  20.649  10.444
65110W        W30590  15.089   5.394   0.858
65111W        W30591  27.553  40.905  14.354
65112W        W30592  23.519   5.287   0.884
65113W        W30593  14.813  15.174   1.847
65114W        W30594  38.856   4.728   4.700
65115W        W30595  28.104   7.747   5.092
65116W        W30596   1.331  11.825  14.899
65117W        W30597  31.081  23.509   3.834
65118W        W30598   1.260  19.586   2.807
65119W        W30599  14.725  19.669  14.882
65120W        W30600  36.080  41.417   2.746
65121W        W30601   9.722  20.194   4.275
65122W        W30602  31.404  19.597   4.792
65123W        W30603   7.373  39.863  13.423
65124W        W30604  12.769  16.706   0.962
65125W        W30605  23.219   1.316  13.060
65126W        W30606  20.610   8.263  14.991
65127W        W30607  28.494  15.607  12.445
65128W        W30608  36.550  29.640   2.779
65129W        W30609  37.835  24.701  13.376
65130W        W30610  14.294   3.868   3.263
65131W        W30611  32.962  22.158  11.445
65132W        W30612  28.611  16.628   4.724
65133W        W30613  18.715  13.219  11.529
65134W        W30614  33.522   8.825   2.791
65135W        W30615   0.986  18.259  11.460
65136W        W30616  30.652  27.519  14.801
65137W        W30617  27.571  44.755   3.349
65138W        W30618  18.784   3.291   2.828
65139W        W30619  15.733  16.753   1.709
65140W        W30620  26.536  33.945  11.884
65141W        W30621  30.045  39.455  12.405
65142W        W30622  35.387  32.077  13.791
65143W        W30623   6.799   2.923  14.357
65144W        W30624  35.400  31.060   0.877
65145W        W30625  41.423  24.505  14.398
65146W        W30626  20.597  22.664   2.840
65147W        W30627   5.855  33.045   4.197
65148W        W30628   5.283  34.092   1.729
65149W        W30629   8.769  35.412  12.424
65150W        W30630  13.189  15.131  14.427
65151W        W30631  26.056   9.301   4.334
65152W        W30632  25.526   0.453  14.486
65153W        W30633  44.503   1.887  12.930
65154W        W30634  35.044  21.712   2.411
65155W        W30635   5.344  32.495  11.094
65156W        W30636  11.167  36.972  12.986
65157W        W30637  28.159  41.465   3.351
65158W        W30638  15.112  34.453  13.000
65159W        W30639  27.627  27.616  12.556
65160W        W30640  18.758  44.839   2.397
65161W        W30641  21.261  44.297   2.185
65162W        W30642   5.400  36.355  11.455
65163W        W30643  34.511  22.012  11.523
65164W        W30644  28.977  26.668   3.334
65165W        W30645  28.007   6.905  10.605
65166W        W30646  35.501   2.800   1.346
65167W        W30647  44.445   6.858   2.768
65168W        W30648  10.173  33.068  10.606
65169W        W30649  37.528   5.265  12.879
65170W        W30650  11.674  35.058  10.639
65171W        W30651   7.707  23.714  10.522
65172W        W30652  17.134  17.666  13.430
65173W        W30653  43.827  34.567   1.270
65174W        W30654  23.708   2.319   3.808
65175W        W30655   5.888  43.319   4.611
65176W        W30656  41.972  27.666   2.408
65177W        W30657  31.010  37.520  12.832
65178W        W30658  15.320  13.238   1.748
65179W        W30659  22.009  19.714   2.383
65180W        W30660   0.763  27.091  12.412
65181W        W30661   3.366  40.411   2.216
65182W        W30662  11.811  23.529   4.199
65183W        W30663  23.027   3.385  11.585
65184W        W30664  20.150  33.394  13.974
65185W        W30665  28.071  10.364   1.339
65186W        W30666   4.286   6.185  10.470
65187W        W30667  26.166  26.135  14.340
65188W        W30668  38.389  39.354  11.938
65189W        W30669   9.696  10.287   0.359
65190W        W30670  27.570   1.875  14.987
65191W        W30671  19.057  28.574   3.278
65192W        W30672   1.862  21.560   4.817
65193W        W30673  21.581  44.945  11.602
65194W        W30674  42.779  30.617   0.348
65195W        W30675  11.802  16.167   4.649
65196W        W30676  24.707  28.023   1.410
65197W        W30677   6.859   8.172   0.287
65198W        W30678  31.408  33.006  10.978
65199W        W30679   3.455  38.897  14.439
65200W        W30680  37.364   7.396   4.344
65201W        W30681  27.677   7.350   0.415
65202W        W30682  38.957   3.953  10.586
65203W        W30683   7.754   2.777  11.897
65204W        W30684   3.831  22.997   1.218
65205W        W30685  29.143  20.566  14.397
65206W        W30686  10.877  30.967  11.445
65207W        W30687  21.162  35.513  12.088
65208W        W30688  36.411  11.231   1.440
65209W        W30689  27.137  29.574   3.667
65210W        W30690  18.607  23.644   0.350
65211W        W30691   9.714  25.055  12.023
65212W        W30692  21.243  38.958   1.725
65213W        W30693  28.563  26.095  11.925
65214W        W30694  20.144   1.887   4.311
65215W        W30695  30.965  39.546  13.475
65216W        W30696  23.206  40.389   2.800
65217W        W30697  34.044  27.459  12.028
65218W        W30698  12.136  33.945  10.619
65219W        W30699  35.496  42.882   3.187
65220W        W30700  18.074   2.331  13.477
65221W        W30701   0.314  40.423   2.187
65222W        W30702  28.966  16.159  13.910
65223W        W30703  15.105  44.304   2.726
65224W        W30704   4.785  16.632   3.753
65225W        W30705  26.622   7.177  11.431
65226W        W30706  23.629  20.629  14.486
65227W        W30707  20.582  29.922   2.312
65228W        W30708   9.160  28.134  11.015
65229W        W30709  40.840  22.552   1.308
65230W        W30710  30.545  10.799  13.350
65231W        W30711  15.633  43.847   3.310
65232W        W30712  12.653   8.862   1.421
65233W        W30713  34.485  31.946   2.274
65234W        W30714  40.419  38.445  13.485
65235W        W30715   9.190  15.282   0.889
65236W        W30716   6.242  17.303   2.712
65237W        W30717  15.302  19.063  11.416
65238W        W30718   6.861  18.116   2.346
65239W        W30719   4.259   9.667   3.664
65240W        W30720  39.854   4.243  14.998
65241W        W30721  10.760   2.265  10.971
65242W        W30722  35.519  41.855  11.089
65243W        W30723  21.057  18.749   0.855
65244W        W30724   1.368  44.388   3.353
65245W        W30725   6.714  13.328  12.938
65246W        W30726  43.463  18.662  10.058
65247W        W30727  17.186  38.949  10.632
65248W        W30728  39.853  41.466   2.838
65249W        W30729  25.106  31.509  10.896
65250W        W30730   6.310   7.790  14.421
65251W        W30731  10.795  18.265  13.494
65252W        W30732   8.292  10.283  14.937
65253W        W30733  29.095   1.277   0.834
65254W        W30734  17.231  26.660   0.830
65255W        W30735  29.111  15.776  11.489
65256W        W30736  13.636   0.925   4.266
65257W        W30737  22.553   9.688  11.947
65258W        W30738  19.145  39.904   3.788
65259W        W30739  38.510  38.063  13.513
65260W        W30740  36.894  29.654  11.033
65261W        W30741  22.746  28.621   4.170
65262W        W30742  10.324   3.361   2.687
65263W        W30743  37.417  13.223   2.180
65264W        W30744   2.241  26.695  13.849
65265W        W30745   5.353  21.196   4.222
65266W        W30746   3.229  28.466  11.936
65267W        W30747   0.973   6.197  10.560
65268W        W30748   7.232  14.653   2.222
65269W        W30749  30.909  18.102   1.450
65270W        W30750  33.515  32.067   5.192
65271W        W30751  23.069  13.767  12.853
65272W        W30752  14.768  30.594  11.957
65273W        W30753  25.588  33.946   1.446
65274W        W30754  19.777   8.880  11.878
65275W        W30755  22.516  43.478   1.886
65276W        W30756  11.350   9.240   1.243
65277W        W30757  10.791  14.831   4.832
65278W        W30758  21.591  24.016   4.603
65279W        W30759  30.561   1.961  11.960
65280W        W30760  14.817  20.242   4.179
65281W        W30761  39.476  13.166   1.251
65282W        W30762  17.688   5.871   3.231
65283W        W30763  12.349  27.487  13.898
65284W        W30764  13.697   7.339  13.865
65285W        W30765  16.273  17.782   2.732
65286W        W30766   3.371  13.745  12.849
65287W        W30767  23.599  39.336   2.874
65288W        W30768  44.313  12.281  10.550
65289W        W30769   7.336  40.797  12.915
65290W        W30770   5.215   9.662  12.066
65291W        W30771  44.823  42.353  11.032
65292W        W30772  10.192  33.075  12.400
65293W        W30773  10.294  37.921  10.576
65294W        W30774  19.280  12.321   3.676
65295W        W30775   5.198   1.361   2.250
65296W        W30776  18.644  11.184   4.302
65297W        W30777  29.638  20.046   0.319
65298W        W30778  43.932   3.414   0.344
65299W        W30779   6.334  39.376  12.016
65300W        W30780  36.554  23.607  14.027
65301W        W30781  23.537  19.774  11.597
65302W        W30782  18.692  33.971   0.253
65303W        W30783   0.404  33.547  14.468
65304W        W30784   7.828  13.804   1.255
65305W        W30785   7.733  10.846  11.440
65306W        W30786  11.733  28.658   3.664
65307W        W30787  25.992   3.899   2.302
65308W        W30788   4.312  18.773  13.795
65309W        W30789  25.091   1.789   0.740
65310W        W30790   6.268  40.406   4.728
65311W        W30791   2.421  41.854   2.213
65312W        W30792  30.486  13.697  10.440
65313W        W30793  33.932  18.157   3.274
65314W        W30794   1.400   8.323   4.290
65315W        W30795  19.649  17.677  10.479
65316W        W30796  17.744  13.183  14.902
65317W        W30797  32.518  32.411   3.748
65318W        W30798  34.116  19.089   2.355
65319W        W30799  30.027  23.700  10.443
65320W        W30800  10.232  20.681   1.420
65321W        W30801   8.756   9.880   2.743
65322W        W30802  28.105  23.515  13.435
65323W        W30803   2.908   2.761  11.899
65324W        W30804  10.365  31.076  12.928
65325W        W30805   5.876  21.095   2.288
65326W        W30806  17.226   4.377  13.060
65327W        W30807  31.559  33.614  13.860
65328W        W30808  42.397  18.133   3.210
65329W        W30809  14.700  13.689  11.891
65330W        W30810  19.689  17.105  14.899
65331W        W30811  26.489  21.071   3.654
65332W        W30812   1.413  28.165  14.480
65333W        W30813  10.193   4.266  13.308
65334W        W30814  41.505  14.206   0.396
65335W        W30815  24.500  43.333  11.930
65336W        W30816   9.296  30.098  13.997
65337W        W30817   9.687  29.993  13.948
65338W        W30818  41.969  44.804   2.828
65339W        W30819  14.702  20.036  11.061
65340W        W30820  16.666  29.156  12.917
65341W        W30821  21.555   9.887  10.564
65342W        W30822  32.538   3.418   4.705
65343W        W30823  37.465  34.505   3.720
65344W        W30824  43.323  10.263  13.373
65345W        W30825  40.042  23.097   0.267
65346W        W30826  14.776  10.697  10.923
65347W        W30827  43.799   8.335  13.335
65348W        W30828   5.268  12.686  12.061
65349W        W30829  28.129   6.328  14.337
65350W        W30830   7.360  17.186  14.416
65351W        W30831   6.898  39.553  12.488
65352W        W30832  27.516  23.108  14.849
65353W        W30833   4.720  17.202  14.942
65354W        W30834  20.568  13.781  12.915
65355W        W30835  29.428  39.960  11.563
65356W        W30836   9.222  17.062   0.829
65357W        W30837   6.835  18.278  14.837
65358W        W30838  10.688   6.405  14.375
65359W        W30839  37.461  27.156   3.746
65360W        W30840   3.407   5.724  13.983
65361W        W30841  29.637  21.531  12.968
65362W        W30842  28.606  23.698  11.376
65363W        W30843  31.978   5.930   4.704
65364W        W30844   5.420  42.283   4.780
65365W        W30845  24.481  38.332  10.514
65366W        W30846   0.404  37.573   2.849
65367W        W30847  19.072  44.266   1.877
65368W        W30848  20.260  26.533   3.276
65369W        W30849  27.951   1.322   4.197
65370W        W30850   1.903  11.344   2.208
65371W        W30851  38.352  17.231   4.794
65372W        W30852  19.128  15.088  13.349
65373W        W30853  32.027   1.437  13.315
65374W        W30854  33.973  38.381   2.817
65375W        W30855  20.263  37.986  12.430
65376W        W30856  43.791  32.599   4.291
65377W        W30857  21.212   4.728  12.439
65378W        W30858  44.469  28.547   4.123
65379W        W30859  37.422  44.432  12.963
65380W        W30860  29.525   3.320   1.377
65381W        W30861  31.581   1.411   1.773
65382W        W30862  31.058  22.669  12.066
65383W        W30863   3.259  36.435   3.186
65384W        W30864  25.218  16.632   0.777
65385W        W30865   3.953   6.712  14.327
65386W        W30866   0.349   9.199  13.057
65387W        W30867  20.645  12.218  11.045
65388W        W30868  21.069  12.317   3.377
65389W        W30869  28.614  27.615   3.244
65390W        W30870  26.559  23.137   4.164
65391W        W30871  10.237  32.486  10.593
65392W        W30872  31.089  32.101  13.392
65393W        W30873  44.883  35.576   1.321
65394W        W30874   4.392   6.819   2.837
65395W        W30875  21.186  30.982   3.717
65396W        W30876  44.473  36.959  14.390
65397W        W30877  36.041  20.210  12.452
65398W        W30878  34.096  22.146  12.405
65399W        W30879  13.306   1.741   4.217
65400W        W30880   4.732  44.968  14.859
65401W        W30881  30.567  30.509  11.402
65402W        W30882  25.185  29.640  11.530
65403W        W30883  24.040  26.469   5.197
65404W        W30884  12.808  14.798   4.190
65405W        W30885   7.283  25.111   3.226
65406W        W30886   3.934   3.420   2.731
65407W        W30887  35.933   2.250  10.902
65408W        W30888  25.126   0.473   4.649
65409W        W30889  38.422  37.869  12.086
65410W        W30890  22.565  22.014   1.333
65411W        W30891  40.844   5.841  12.375
65412W        W30892   5.708  27.532  10.518
65413W        W30893   9.691   4.790   2.318
65414W        W30894  12.248  32.026   2.399
65415W        W30895  40.496  38.073  11.102
65416W        W30896  15.785  25.590   0.394
65417W        W30897   2.925  22.054   4.164
65418W        W30898   1.333  10.740  14.877
65419W        W30899  18.187  31.977   1.746
65420W        W30900  12.235   5.210   2.807
65421W        W30901   5.200  29.502  12.377
65422W        W30902   6.194  38.449   2.691
65423W        W30903  29.048  11.774  13.358
65424W        W30904  11.269   4.829   4.729
65425W        W30905  17.080   7.387   3.196
65426W        W30906   4.860  43.498   1.735
65427W        W30907  17.117   7.236   1.806
65428W        W30908  42.521  32.118  14.305
65429W        W30909  35.470  19.275  13.791
65430W        W30910  27.077  43.943   2.299
65431W        W30911  41.492  33.996   1.935
65432W        W30912  40.460  17.590  12.575
65433W        W30913  44.906  24.723  14.294
65434W        W30914  10.345  31.926   4.727
65435W        W30915   7.882  34.045   0.800
65436W        W30916   8.374   0.363   4.769
65437W        W30917   2.804   8.192   2.719
65438W        W30918  14.167  29.443   2.743
65439W        W30919  14.762  22.612   2.250
65440W        W30920  10.219   8.388   0.771
65441W        W30921  31.551   5.221   4.717
65442W        W30922  10.691  33.876  13.876
65443W        W30923  10.730  39.953  10.468
65444W        W30924  16.646  35.098  12.424
65445W        W30925   6.221  15.261  13.015
65446W        W30926  30.096  36.010  14.884
65447W        W30927   0.929  17.156   1.714
65448W        W30928  19.171   1.806  13.447
65449W        W30929   2.250  36.893  10.546
65450W        W30930  24.676  37.998   0.750
65451W        W30931  29.654  27.969   1.713
65452W        W30932  23.992   8.704  10.887
65453W        W30933  23.126   5.429  10.521
65454W        W30934  22.230  33.050  14.963
65455W        W30935  41.965  31.925  13.347
65456W        W30936  10.772  30.164   4.126
65457W        W30937  41.015  32.012  12.051
65458W        W30938  41.331   2.750   3.198
65459W        W30939  18.656   4.834   5.226
65460W        W30940  10.141   8.730   4.606
65461W        W30941  24.037   9.244   5.143
65462W        W30942  39.027  14.201   4.757
65463W        W30943  32.902  41.014   2.898
65464W        W30944  22.097   5.847   2.378
65465W        W30945  37.572   5.789   1.725
65466W        W30946   7.244   5.246   0.872
65467W        W30947  31.053  13.781  14.352
65468W        W30948  34.602  19.744   1.881
65469W        W30949   7.270  40.892   3.827
65470W        W30950   8.258  34.380  14.910
65471W        W30951  42.833   7.351   3.360
65472W        W30952  34.994  23.213  14.948
65473W        W30953  44.289  14.798   1.725
65474W        W30954  27.531  16.217  11.904
65475W        W30955   6.822   8.863  12.990
65476W        W30956  33.092   9.676  14.977
65477W        W30957  28.594  26.553  11.601
65478W        W30958  34.401  37.976  10.950
65479W        W30959  15.268  18.188   3.188
65480W        W30960  16.770   9.666  12.484
65481W        W30961   1.956   2.367  11.488
65482W        W30962  22.225  26.055   2.795
65483W        W30963  16.718   9.651   2.757
65484W        W30964  17.641  42.895   2.850
65485W        W30965   1.777  13.605  14.343
65486W        W30966  25.006  42.476   2.408
65487W        W30967  41.415  24.032   0.882
65488W        W30968  15.635   5.408  11.547
65489W        W30969  31.904  25.627   3.349
65490W        W30970  20.742  11.360  12.480
65491W        W30971  36.589   2.455  14.972
65492W        W30972  10.366   4.437  13.002
65493W        W30973  18.103  35.891   0.938
65494W        W30974  24.172  19.172   3.341
65495W        W30975  17.620  29.615  13.337
65496W        W30976  22.720  32.474   3.306
65497W        W30977  12.838  41.878   9.496
65498W        W30978  16.670  28.520   1.872
65499W        W30979   0.779  44.766   0.843
65500W        W30980   6.196   4.375   1.226
65501W        W30981  36.520  33.065   2.677
65502W        W30982  37.876   9.687  13.500
65503W        W30983   6.831  24.086   3.380
65504W        W30984  40.549  12.177   0.827
65505W        W30985  34.418  39.935  13.951
65506W        W30986   7.295  24.148  13.986
65507W        W30987  24.024  24.685   2.270
65508W        W30988  31.927  35.508   4.648
65509W        W30989   3.757  34.106   2.385
65510W        W30990  41.857  36.919   1.410
65511W        W30991  18.185   5.404   3.809
65512W        W30992   8.691   5.422   3.764
65513W        W30993  11.776  43.928  13.829
65514W        W30994  12.835  31.601   0.424
65515W        W30995  42.496  36.002   3.866
65516W        W30996  27.986  39.820   2.286
65517W        W30997  29.481  11.303  13.481
65518W        W30998  37.848   7.266   0.738
65519W        W30999   7.348  11.215   2.751
65520W        W31000  38.935  36.576   3.250
65521W        W31001  10.322   1.386  14.282
65522W        W31002  24.046   2.249  10.633
65523W        W31003   3.343  17.780   2.198
65524W        W31004  42.424   2.442   3.183
65525W        W31005  40.011  23.644   2.265
65526W        W31006  38.415  43.319  13.393
65527W        W31007   9.771  12.810  13.546
65528W        W31008  17.611  18.292  14.886
65529W        W31009   6.351  32.507   1.797
65530W        W31010   0.790   3.336  14.879
65531W        W31011  28.045  30.602   3.215
65532W        W31012   0.360  42.025  14.017
65533W        W31013  10.326  40.431   2.273
65534W        W31014  21.563  11.862  12.935
65535W        W31015  13.174   0.905   0.252
65536W        W31016  32.112  40.475   4.208
65537W        W31017  33.979  41.512  12.066
65538W        W31018  23.135  11.188  12.094
65539W        W31019   6.396  13.623   0.803
65540W        W31020  17.633  33.009   3.256
65541W        W31021  28.171  17.754   0.400
65542W        W31022  41.510  21.075   3.658
65543W        W31023  25.557   8.401  11.554
65544W        W31024  42.937   3.724  14.889
65545W        W31025   4.405  21.640   1.695
65546W        W31026  42.882  34.562   2.367
65547W        W31027  25.540   9.874   1.706
65548W        W31028  23.210  42.885   2.204
65549W        W31029  22.053   9.774  13.917
65550W        W31030   9.809   0.442  12.025
65551W        W31031   8.172   0.892   3.227
65552W        W31032  20.658  12.230  14.468
65553W        W31033  30.458  17.576   3.635
65554W        W31034  17.112  28.498  12.948
65555W        W31035  26.675  19.777  14.427
65556W        W31036  39.385  35.528  13.918
65557W        W31037  35.860  38.338   4.150
65558W        W31038   5.920  20.102  12.827
65559W        W31039  18.171  36.506  14.485
65560W        W31040  34.938  14.639   3.365
65561W        W31041  38.003  12.321   3.365
65562W        W31042  29.032  19.647  12.974
65563W        W31043  36.364  16.629   1.286
65564W        W31044   1.297   6.324   1.882
65565W        W31045  12.689   0.913  11.006
65566W        W31046   3.900   1.267   2.834
65567W        W31047   5.810  22.701  14.506
65568W        W31048   7.882  35.857  11.599
65569W        W31049   2.958   4.292   1.319
65570W        W31050   4.415   8.819   0.914
65571W        W31051  14.789  21.209   5.269
65572W        W31052  37.960   6.820  14.957
65573W        W31053  41.852  25.613   3.288
65574W        W31054  12.808  39.529   3.652
65575W        W31055  37.481  15.754  12.884
65576W        W31056  11.359  37.580   2.412
65577W        W31057   7.306  22.059  10.559
65578W        W31058   4.380   5.896   1.294
65579W        W31059  13.680  19.725  14.322
65580W        W31060  18.579  39.844  14.864
65581W        W31061  20.152   8.734  12.502
65582W        W31062   8.685  23.019   0.306
65583W        W31063  13.772   6.375  14.417
65584W        W31064  16.787  39.464   0.783
65585W        W31065  18.610  39.331   3.239
65586W        W31066  14.112  15.283  12.041
65587W        W31067  26.570   1.457   2.782
65588W        W31068   5.854  24.670  13.330
65589W        W31069  34.485   6.202  10.418
65590W        W31070   5.858  16.296   4.115
65591W        W31071  10.700  42.852  14.365
65592W        W31072  37.935  32.453   1.396
65593W        W31073   5.754  43.881   3.728
65594W        W31074  40.023   8.212  11.502
65595W        W31075  19.254  12.637   3.240
65596W        W31076  32.402  34.458  14.987
65597W        W31077  19.581  25.630  14.448
65598W        W31078  15.259  24.509  13.383
65599W        W31079  25.011  24.055   0.917
65600W        W31080   7.703   8.734   0.289
65601W        W31081  38.552   7.806   4.717
65602W        W31082  35.596  40.989  13.826
65603W        W31083   0.918  42.939   3.265
65604W        W31084  28.121  43.838   0.760
65605W        W31085   2.460  42.895   3.819
65606W        W31086  11.752  10.256  11.941
65607W        W31087  29.508  29.143   0.873
65608W        W31088  39.332  26.620   1.390
65609W        W31089  17.293  28.071   4.320
65610W        W31090  31.125  25.023  13.388
65611W        W31091  15.809  38.407  12.948
65612W        W31092   1.397  40.346  14.438
65613W        W31093  14.763  13.337  14.835
65614W        W31094  19.569  42.341   4.771
65615W        W31095   0.871  21.190   0.272
65616W        W31096  27.148  30.590   2.355
65617W        W31097  36.365   7.321   2.675
65618W        W31098   9.391  30.034   4.599
65619W        W31099  42.031  28.436  12.936
65620W        W31100   9.665  19.258  13.542
65621W        W31101  42.875  29.018  11.495
65622W        W31102  29.141  28.621  13.895
65623W        W31103  13.720  12.163  13.981
65624W        W31104  34.398  39.396   4.681
65625W        W31105  33.607  37.905   2.770
65626W        W31106  17.109  40.425  13.867
65627W        W31107  30.073   2.423   4.245
65628W        W31108  18.249  30.912   2.224
65629W        W31109  33.100  39.052   4.255
65630W        W31110  12.257  37.556   4.686
65631W        W31111   7.332   7.365  13.392
65632W        W31112  36.541  30.566   5.184
65633W        W31113  29.017  42.825  14.988
65634W        W31114  29.132  16.797   2.739
65635W        W31115  26.076  26.203   3.850
65636W        W31116  15.105  38.484  11.480
65637W        W31117  39.471   6.832  12.879
65638W        W31118  33.126   2.281  12.516
65639W        W31119  31.530  11.162  12.472
65640W        W31120  16.232  10.186  10.944
65641W        W31121  24.088  35.604  11.432
65642W        W31122  24.699   8.861   4.293
65643W        W31123  37.542  20.183   3.284
65644W        W31124  26.667  19.252   2.206
65645W        W31125  17.074  21.575  11.510
65646W        W31126  21.183  12.339   4.783
65647W        W31127  13.794   6.283  13.796
65648W        W31128  23.643   5.341  11.892
65649W        W31129  36.582  14.731  12.524
65650W        W31130   2.324   4.922   4.327
65651W        W31131  27.986  34.094  12.945
65652W        W31132  24.573  23.514   4.808
65653W        W31133   6.289  28.981   0.292
65654W        W31134  21.252  29.151  14.364
65655W        W31135   7.862   0.289   3.374
65656W        W31136  14.332  33.474  11.399
65657W        W31137  17.605  44.780   1.728
65658W        W31138   9.697  12.753   0.747
65659W        W31139   8.344  21.717   2.337
65660W        W31140   0.282   6.329   2.367
65661W        W31141  24.005  30.019  11.899
65662W        W31142  18.210  39.917  13.435
65663W        W31143  23.511  30.423   2.277
65664W        W31144  35.913  13.192   1.403
65665W        W31145  19.041  13.219  14.368
65666W        W31146  43.997  44.796  14.510
65667W        W31147  31.619  27.983  12.384
65668W        W31148   3.217  23.164  13.017
65669W        W31149   1.303  33.414   3.836
65670W        W31150   8.271  28.026   4.803
65671W        W31151  30.439  33.956  10.897
65672W        W31152  32.042  18.132   3.708
65673W        W31153  31.441   6.396  14.410
65674W        W31154  10.716   4.381   3.170
65675W        W31155  18.081  37.083  11.057
65676W        W31156  17.184  17.091  13.973
65677W        W31157  30.453  37.982   0.889
65678W        W31158  11.846   3.389   4.306
65679W        W31159   7.854  27.561   3.709
65680W        W31160   6.380  10.212   2.302
65681W        W31161  37.456  37.056   4.636
65682W        W31162  30.602  40.031  11.547
65683W        W31163  12.757  24.701  11.562
65684W        W31164  40.345  36.562  14.283
65685W        W31165  33.523  40.315  13.355
65686W        W31166  43.374   9.705  12.036
65687W        W31167  11.769   4.890  11.511
65688W        W31168   6.392  17.301  11.024
65689W        W31169  19.711  36.590   3.269
65690W        W31170   3.365  21.524  11.974
65691W        W31171  29.006  15.254  11.566
65692W        W31172  12.314  38.917  12.829
65693W        W31173  40.514  25.641  14.960
65694W        W31174  34.438  41.026  10.594
65695W        W31175  20.721  35.411  10.938
65696W        W31176  22.075  19.231   1.746
65697W        W31177  16.264  12.332   1.914
65698W        W31178   2.815  30.976   3.755
65699W        W31179  40.870  14.129   0.421
65700W        W31180   1.279   1.482   1.934
65701W        W31181  28.599  11.254  11.889
65702W        W31182   2.430  39.034  12.967
65703W        W31183   7.692  12.744   1.357
65704W        W31184  26.173   6.899   2.302
65705W        W31185  27.614   9.849  12.865
65706W        W31186  29.105   1.273   4.155
65707W        W31187  13.167  31.436  10.993
65708W        W31188  44.380  26.474  14.292
65709W        W31189  42.906   0.885  13.830
65710W        W31190  24.710  36.887   2.369
65711W        W31191  41.908  16.594  13.853
65712W        W31192  22.041  36.356   2.767
65713W        W31193  19.099   9.835  14.936
65714W        W31194  29.984   2.807  11.060
65715W        W31195  10.229   0.748   3.725
65716W        W31196  19.087  25.011  11.515
65717W        W31197  36.533  27.995  12.871
65718W        W31198   7.867  32.550  13.477
65719W        W31199  12.154   8.853  13.890
65720W        W31200  22.176  37.953   0.856
65721W        W31201  38.058   5.256   4.125
65722W        W31202   9.659  36.949  14.026
65723W        W31203  27.169  27.150   4.317
65724W        W31204   8.272   3.845   4.298
65725W        W31205  27.968  40.860  14.307
65726W        W31206   9.230  13.287   4.350
65727W        W31207  18.570   2.303   2.404
65728W        W31208   6.323  42.364  14.841
65729W        W31209  12.151  10.244  14.781
65730W        W31210  11.722   0.347  14.933
65731W        W31211  35.106  11.809  10.562
65732W        W31212  10.382  23.699  11.926
65733W        W31213  18.673  35.461  14.762
65734W        W31214  23.106  23.701  11.538
65735W        W31215  42.836  43.446  13.841
65736W        W31216  16.180   2.330  11.376
65737W        W31217  22.501  23.022  11.872
65738W        W31218   1.459  32.413   4.727
65739W        W31219  24.684  17.642   0.271
65740W        W31220  32.504  37.053   2.384
65741W        W31221  25.117  14.208   0.300
65742W        W31222  17.568  18.296   1.214
65743W        W31223   5.925  36.079   4.752
65744W        W31224  39.048   1.774  13.377
65745W        W31225   7.732  29.607   2.898
65746W        W31226  21.684  36.035   2.323
65747W        W31227  26.183  13.138   2.860
65748W        W31228  24.217  42.825   3.635
65749W        W31229   2.425  42.462   3.819
65750W        W31230  38.478  29.173  11.494
65751W        W31231   6.345   8.401   3.338
65752W        W31232   1.949  14.311  11.541
65753W        W31233  44.285  12.181  11.910
65754W        W31234   7.680   3.770   1.347
65755W        W31235   1.773   6.206   1.777
65756W        W31236  26.579  13.821   4.298
65757W        W31237  31.567  27.454  11.986
65758W        W31238  17.267   7.724  13.860
65759W        W31239  19.163  23.716  11.912
65760W        W31240  32.030   4.803   2.313
65761W        W31241  26.625  15.203   1.433
65762W        W31242  10.753  20.574   1.377
65763W        W31243  30.954   5.374  13.991
65764W        W31244  38.009  25.057  10.449
65765W        W31245   5.760   0.754   3.381
65766W        W31246  38.468  26.516  14.283
65767W        W31247  15.656  26.191   1.301
65768W        W31248   7.245  11.689   2.837
65769W        W31249  44.759  41.369  14.388
65770W        W31250  38.398  21.251  12.851
65771W        W31251  39.045   3.817   4.237
65772W        W31252   4.705  14.613   4.602
65773W        W31253  30.616  21.132  14.924
65774W        W31254  22.582  44.426  11.560
65775W        W31255  27.074  27.589   0.287
65776W        W31256   8.313  21.720  14.835
65777W        W31257  14.129  23.999  12.398
65778W        W31258   0.353  30.599   2.178
65779W        W31259  37.015  31.914  14.326
65780W        W31260  26.477  27.157   4.337
65781W        W31261  29.172  34.876   4.805
65782W        W31262  27.526  18.764  10.510
65783W        W31263   9.372  39.833   2.673
65784W        W31264   4.941  43.377  11.965
65785W        W31265  26.095  24.012   1.871
65786W        W31266  15.683  39.929   2.359
65787W        W31267  33.545  31.984   2.400
65788W        W31268   6.301  23.623  14.887
65789W        W31269  26.481   1.960  12.067
65790W        W31270   6.846  10.339  14.770
65791W        W31271  12.125  13.833  10.479
65792W        W31272  38.950  42.387  13.062
65793W        W31273  24.587  37.984  10.589
65794W        W31274  35.383  14.247   4.290
65795W        W31275  10.292   6.690   0.939
65796W        W31276   7.300   8.393   4.116
65797W        W31277  38.461  24.017  13.959
65798W        W31278  29.958   9.708   4.685
65799W        W31279  16.076  34.434  13.050
65800W        W31280  35.093  43.442  12.824
65801W        W31281  32.403  24.578   1.775
65802W        W31282  39.530  34.873  11.068
65803W        W31283  35.085  26.599   5.196
65804W        W31284   3.305  40.364  12.880
65805W        W31285  28.591  21.559   2.356
65806W        W31286  29.579  14.166  14.873
65807W        W31287   3.807  23.211  11.956
65808W        W31288   3.709  37.354   3.869
65809W        W31289  26.546  34.377  11.570
65810W        W31290  17.696  36.045   1.255
65811W        W31291  41.028   9.365   4.675
65812W        W31292  31.144   6.747  10.506
65813W        W31293  19.779  20.081   1.420
65814W        W31294  11.319   5.258  13.342
65815W        W31295  41.855  11.724  11.397
65816W        W31296  26.065  26.080  11.014
65817W        W31297  20.160  33.875  14.760
65818W        W31298  35.002   5.792   1.836
65819W        W31299  17.567  29.546   4.150
65820W        W31300  37.425   0.298  14.992
65821W        W31301  38.566  34.516  12.908
65822W        W31302   7.271  11.360   1.869
65823W        W31303  13.762  13.135   9.527
65824W        W31304  15.198   8.370   4.634
65825W        W31305   2.777   0.904   4.266
65826W        W31306  24.074  12.127   3.335
65827W        W31307  12.851  39.852  13.000
65828W        W31308   9.776  10.371   3.205
65829W        W31309   7.372   2.893  10.522
65830W        W31310  23.214   6.873  11.045
65831W        W31311  34.969  36.372  11.611
65832W        W31312  41.298  10.230   0.783
65833W        W31313  29.469  22.251  14.857
65834W        W31314  13.743  19.743   3.860
65835W        W31315  18.737  22.699   0.319
65836W        W31316  38.032  42.349  12.537
65837W        W31317  29.062  13.786   2.824
65838W        W31318  25.185  18.608   0.478
65839W        W31319  35.955   2.958  10.482
65840W        W31320  38.532  19.601   1.416
65841W        W31321  25.570   5.746  12.827
65842W        W31322  42.364   0.455   3.845
65843W        W31323  18.721   4.814  13.492
65844W        W31324  41.494  24.590  10.524
65845W        W31325  23.108  22.122   0.273
65846W        W31326  20.240  18.599   1.415
65847W        W31327   6.393   0.952  13.365
65848W        W31328   1.875  24.566  11.898
65849W        W31329  28.056  26.154  10.561
65850W        W31330  26.159  36.382   2.695
65851W        W31331   5.320  36.002   4.782
65852W        W31332  36.454   3.887  12.580
65853W        W31333  14.721  33.446  14.839
65854W        W31334   7.790   7.310  13.890
65855W        W31335  37.927  28.100  11.908
65856W        W31336  29.440   0.857   3.385
65857W        W31337  11.286  26.183  14.497
65858W        W31338  22.668  13.140  13.473
65859W        W31339   2.312  14.689  13.809
65860W        W31340  42.306   8.201   9.935
65861W        W31341  36.094  33.443   4.835
65862W        W31342  27.661  36.577   4.179
65863W        W31343  25.674  17.293   4.288
65864W        W31344   5.698   6.293  14.515
65865W        W31345  39.973  32.103   3.744
65866W        W31346  16.607  27.604   4.264
65867W        W31347  26.963  37.956  12.027
65868W        W31348  24.984   7.287  11.610
65869W        W31349  30.102  21.170  14.770
65870W        W31350  36.474  29.635   3.312
65871W        W31351  24.646  23.519   3.830
65872W        W31352  15.626  26.026  14.477
65873W        W31353   6.878  22.038  14.816
65874W        W31354  44.797  28.009   3.317
65875W        W31355  40.380  29.174  10.111
65876W        W31356  19.182  12.225  13.453
65877W        W31357  26.544  18.084  10.461
65878W        W31358   0.742  32.135   1.927
65879W        W31359  12.130  21.684   0.756
65880W        W31360   9.379  22.500  13.046
65881W        W31361  35.458  20.031  12.525
65882W        W31362  17.694  17.101  13.412
65883W        W31363  20.252   7.667   4.814
65884W        W31364  31.621   9.680   3.761
65885W        W31365  43.931  19.188  12.491
65886W        W31366  12.718  26.576   4.631
65887W        W31367  38.416  40.039  10.544
65888W        W31368  33.017  15.719  11.500
65889W        W31369  24.053  11.736  14.474
65890W        W31370  21.561  18.584   4.248
65891W        W31371  41.454  26.700  14.924
65892W        W31372   5.776  24.530  10.894
65893W        W31373  35.370   8.367   2.870
65894W        W31374  44.790  10.140  13.873
65895W        W31375  29.931  42.948   0.257
65896W        W31376  10.237  17.774  12.853
65897W        W31377  24.716  10.152  10.967
65898W        W31378  13.323  40.398  13.543
65899W        W31379  27.129  24.544  12.009
65900W        W31380  25.502  15.187   1.343
65901W        W31381  26.159  39.816  12.571
65902W        W31382   2.960   8.388   1.386
65903W        W31383  38.921  25.009  11.578
65904W        W31384  12.239  43.283  11.004
65905W        W31385  18.195   4.865   3.668
65906W        W31386  44.274   4.315  13.535
65907W        W31387   9.810  13.743  12.002
65908W        W31388   1.279  11.746  11.387
65909W        W31389  18.240  32.494   0.907
65910W        W31390  36.959  42.804   0.883
65911W        W31391  39.006  35.951  14.800
65912W        W31392  18.134  16.753  10.414
65913W        W31393   8.740  19.734   1.908
65914W        W31394  39.510  36.431  12.972
65915W        W31395  20.255  25.973   2.782
65916W        W31396   7.890  36.066   3.629
65917W        W31397  10.847   6.246  12.847
65918W        W31398   2.396  11.244  13.484
65919W        W31399  39.948  27.626  14.345
65920W        W31400  28.636   1.915  13.026
65921W        W31401  11.373   6.908   1.242
65922W        W31402  21.682  19.604   3.382
65923W        W31403  15.302  43.967   0.258
65924W        W31404  42.426  22.574   4.752
65925W        W31405   0.254  18.699  13.889
65926W        W31406  13.277   0.956  13.967
65927W        W31407  29.965  35.048   2.839
65928W        W31408  35.024  36.901  10.631
65929W        W31409  28.570  40.472  14.831
65930W        W31410  41.498  32.597   4.333
65931W        W31411  34.004  13.616   1.236
65932W        W31412  12.753  42.809   1.375
65933W        W31413  36.047  34.908   2.762
65934W        W31414  19.210  20.548   3.296
65935W        W31415  33.121  44.280  10.421
65936W        W31416  14.314  19.585  10.913
65937W        W31417  40.964   5.250  12.446
65938W        W31418  30.586  24.011  14.895
65939W        W31419   8.711  18.597   1.291
65940W        W31420  13.664  24.145   1.309
65941W        W31421  20.706  40.918   0.408
65942W        W31422  33.480  44.786  12.527
65943W        W31423  17.270  20.214   2.312
65944W        W31424  10.197   2.382   2.666
65945W        W31425  16.574  29.165  14.472
65946W        W31426  35.391  39.373   4.600
65947W        W31427  15.214  27.561   4.272
65948W        W31428  40.001  27.449  13.539
65949W        W31429  20.696  26.128   2.895
65950W        W31430  32.023  32.487  13.038
65951W        W31431  33.126  12.122   1.235
65952W        W31432  21.066   5.249   1.344
65953W        W31433  16.705  21.179   1.746
65954W        W31434  16.771   7.767  11.448
65955W        W31435  20.223  41.033  12.825
65956W        W31436  37.999   1.265  11.571
65957W        W31437  32.472  28.661  13.908
65958W        W31438  40.998  15.627  13.824
65959W        W31439   8.794  13.246   3.656
65960W        W31440  44.412   9.316   2.386
65961W        W31441   8.833  10.734  14.807
65962W        W31442  10.245  14.591   2.329
65963W        W31443  11.653  41.507   4.160
65964W        W31444  34.923   6.761  13.929
65965W        W31445  30.082   6.194  14.341
65966W        W31446  18.708  18.662   0.390
65967W        W31447  21.098   1.754   3.692
65968W        W31448  12.789  22.685  13.947
65969W        W31449   4.324  42.858  12.565
65970W        W31450   5.905   0.854   4.806
65971W        W31451  30.031  28.164   4.699
65972W        W31452  31.927  34.433   3.341
65973W        W31453  12.617  25.545   0.319
65974W        W31454   5.730  18.774  10.638
65975W        W31455  17.086  34.941   1.746
65976W        W31456  28.655  16.180   0.959
65977W        W31457  34.878   9.784   4.315
65978W        W31458   2.807  29.082   3.629
65979W        W31459  33.496  22.559   4.200
65980W        W31460  16.174  19.702  11.568
65981W        W31461   6.809  33.473  12.904
65982W        W31462   9.804  20.073  12.882
65983W        W31463  17.171  25.077  14.297
65984W        W31464  23.184  27.502  13.357
65985W        W31465  31.568  21.212  10.155
65986W        W31466   1.962   4.931  12.530
65987W        W31467  39.344   7.683   2.307
65988W        W31468  19.138   9.700  11.874
65989W        W31469  34.961   9.773  13.502
65990W        W31470  34.456  13.311  13.794
65991W        W31471  44.786  42.493  13.386
65992W        W31472   0.323  25.072  12.348
65993W        W31473  21.645  41.319   2.384
65994W        W31474  18.591   7.898   3.353
65995W        W31475  33.078  30.921   0.369
65996W        W31476   2.400  41.808   1.767
65997W        W31477  18.184  38.024   1.820
65998W        W31478  40.899   2.231  10.479
65999W        W31479  12.759  35.409   0.910
66000W        W31480  38.837  34.535   1.753
66001W        W31481  33.099  17.186   3.198
66002W        W31482  10.773  41.041  12.999
66003W        W31483   3.217   2.308   4.310
66004W        W31484  25.998  22.212  11.570
66005W        W31485  22.562  23.620   4.304
66006W        W31486  30.478  10.732   2.409
66007W        W31487  16.246  16.192  12.533
66008W        W31488   8.711  42.315   3.815
66009W        W31489  26.488  16.146   4.713
66010W        W31490  31.921  28.625  14.848
66011W        W31491  16.205  29.552   2.670
66012W        W31492   2.724  31.036   0.484
66013W        W31493   5.887  21.103  11.098
66014W        W31494  26.662   3.335   0.345
66015W        W31495  19.058   4.709   2.360
66016W        W31496  29.963  27.639   0.313
66017W        W31497  10.275  10.643   3.357
66018W        W31498   8.782   7.751  12.391
66019W        W31499  24.106  34.106   4.827
66020W        W31500  41.522  13.197   0.285
66021W        W31501   0.888  40.030   2.246
66022W        W31502  28.630  14.615  14.983
66023W        W31503   2.746  20.140   0.428
66024W        W31504  31.122  25.645   3.788
66025W        W31505  26.689   5.856  10.905
66026W        W31506  15.628  28.516   4.803
66027W        W31507  23.702  29.054   1.744
66028W        W31508  43.383   5.779   0.344
66029W        W31509   3.315  36.432  11.985
66030W        W31510  20.098  30.037   2.195
66031W        W31511  18.555  34.575  12.043
66032W        W31512   2.763   6.198   3.302
66033W        W31513  18.168   1.318  13.980
66034W        W31514   6.236   8.274  13.337
66035W        W31515   2.328   1.812   0.456
66036W        W31516  31.981  24.542  13.011
66037W        W31517  37.863  22.512   0.809
66038W        W31518  26.045  39.841   2.318
66039W        W31519  41.365  10.151  11.123
66040W        W31520   0.479  23.733  14.814
66041W        W31521   6.837  20.235   0.859
66042W        W31522  41.360  33.028   3.288
66043W        W31523  25.488   5.917   0.384
66044W        W31524  20.194  12.656   2.224
66045W        W31525  36.414  38.849  10.946
66046W        W31526   0.779  19.551   3.806
66047W        W31527  37.002  14.272  14.278
66048W        W31528  17.752  41.347   1.216
66049W        W31529  40.928   1.399  11.003
66050W        W31530  27.149  18.739  13.903
66051W        W31531   2.341  36.578   3.265
66052W        W31532  36.877  16.118   2.343
66053W        W31533  33.487  13.706  14.994
66054W        W31534  24.502  30.994  11.997
66055W        W31535   3.282  17.593  10.528
66056W        W31536   4.357  31.612   3.281
66057W        W31537  29.449   6.216   3.852
66058W        W31538  21.227   1.411  11.382
66059W        W31539  30.148   2.293   0.780
66060W        W31540  41.914   3.947   1.816
66061W        W31541  31.579  30.096  13.798
66062W        W31542  22.075  22.206   0.934
66063W        W31543  31.927  36.044  14.836
66064W        W31544  31.528  44.795  12.404
66065W        W31545  41.995  33.387   3.801
66066W        W31546  16.245  40.843  11.536
66067W        W31547  30.538  24.051  12.409
66068W        W31548  14.317  24.109   2.849
66069W        W31549  42.957  27.022  14.795
66070W        W31550   0.837  36.350  10.573
66071W        W31551  16.732  20.740   4.120
66072W        W31552  39.408  27.626   1.777
66073W        W31553   8.860   1.831   2.320
66074W        W31554  43.776  33.468  10.942
66075W        W31555  25.485  25.652   3.781
66076W        W31556  40.889  11.670   2.194
66077W        W31557  34.480  23.125  13.902
66078W        W31558   7.668  40.939  13.791
66079W        W31559  38.017  24.099  10.976
66080W        W31560  40.021  44.338  14.793
66081W        W31561  36.974  11.316   1.422
66082W        W31562  35.924  10.382   4.764
66083W        W31563  12.141  20.247   4.781
66084W        W31564  28.000  33.937   2.393
66085W        W31565  24.667  14.312   4.812
66086W        W31566   4.832  38.491   2.285
66087W        W31567  33.066  13.251   1.350
66088W        W31568  40.456  29.652  14.420
66089W        W31569   9.882  34.574  13.426
66090W        W31570  13.725  22.712  14.835
66091W        W31571  13.747  33.574  11.058
66092W        W31572  36.582  34.008   4.302
66093W        W31573  33.475   9.211  12.997
66094W        W31574  26.106  43.338   4.124
66095W        W31575  41.833  34.481   3.378
66096W        W31576  23.079  39.493   4.673
66097W        W31577  27.629  18.250  13.964
66098W        W31578  23.499   7.323  12.375
66099W        W31579  44.910  28.435   2.303
66100W        W31580  20.614  42.933  13.800
66101W        W31581  39.483   5.705   0.388
66102W        W31582   1.300  20.173  13.871
66103W        W31583   5.716   8.347   4.657
66104W        W31584  39.506  26.989  13.957
66105W        W31585  23.687  41.371  13.389
66106W        W31586  42.920  38.526  11.063
66107W        W31587  22.681  10.216   5.146
66108W        W31588  31.938  26.991  10.459
66109W        W31589  11.681   1.852   2.289
66110W        W31590  16.681  20.134  11.397
66111W        W31591  26.975  42.010  11.419
66112W        W31592   3.336  11.847   1.219
66113W        W31593  20.735   9.711  11.114
66114W        W31594   9.319  23.573  10.561
66115W        W31595  36.985  17.710  12.381
66116W        W31596  36.909  22.692  11.006
66117W        W31597   3.760   2.464  12.537
66118W        W31598  44.367  22.662   3.863
66119W        W31599  11.831  41.366   1.785
66120W        W31600  31.596  42.390  11.548
66121W        W31601   7.901  41.920   3.191
66122W        W31602  19.684   8.182  10.996
66123W        W31603  13.312  15.743  14.902
66124W        W31604  43.420  30.593  11.609
66125W        W31605  42.913  39.468  14.977
66126W        W31606  27.125  14.726   1.264
66127W        W31607   8.379  26.143   0.809
66128W        W31608  35.386  12.736   3.272
66129W        W31609   2.331  33.086   2.834
66130W        W31610  37.911   8.336  11.128
66131W        W31611   3.859  25.112  10.553
66132W        W31612  13.139  27.072  14.444
66133W        W31613   8.214   6.904   4.205
66134W        W31614  32.043  31.586  13.403
66135W        W31615  42.914  18.116  10.928
66136W        W31616  21.063   1.738  13.497
66137W        W31617  18.292  43.962   4.761
66138W        W31618  28.182  32.967   4.740
66139W        W31619  13.128  11.706  10.584
66140W        W31620  12.201  17.304   0.800
66141W        W31621  11.819  40.963  12.007
66142W        W31622  39.416   7.758  10.434
66143W        W31623  37.506   3.382  12.498
66144W        W31624  18.116  30.589  11.021
66145W        W31625  13.310  23.654   2.270
66146W        W31626  26.525   3.910  11.582
66147W        W31627  34.032  39.316  10.918
66148W        W31628  44.266  30.584   0.929
66149W        W31629  38.897   8.201   3.221
66150W        W31630   9.197  10.208   3.850
66151W        W31631  27.615  19.104  12.036
66152W        W31632  31.898  32.113   2.393
66153W        W31633  41.829  33.991   3.794
66154W        W31634  14.168  34.925  11.908
66155W        W31635  29.559  21.198  11.009
66156W        W31636   0.266  12.234  14.023
66157W        W31637  27.989  41.869   0.888
66158W        W31638  30.620  44.819   1.212
66159W        W31639  39.491   9.256   2.724
66160W        W31640   6.203   2.315   2.876
66161W        W31641  39.393   6.916  11.504
66162W        W31642  28.164  16.136   2.198
66163W        W31643  13.762  19.261  11.930
66164W        W31644  20.523  21.055  14.931
66165W        W31645  21.204   5.411   2.892
66166W        W31646  38.428  24.998   4.647
66167W        W31647  14.223  19.536   1.321
66168W        W31648  20.154   7.349   9.931
66169W        W31649  28.448   8.799   2.411
66170W        W31650  21.206  33.584   1.856
66171W        W31651  20.703  32.467  10.629
66172W        W31652  31.084  23.513  14.302
66173W        W31653  35.361   6.800   4.625
66174W        W31654  40.916  43.897   3.306
66175W        W31655   1.835  36.885  12.862
66176W        W31656  29.158  11.165  14.816
66177W        W31657  16.598  37.072   1.769
66178W        W31658  14.211  37.523  10.425
66179W        W31659  10.686  22.063   4.632
66180W        W31660   8.171   6.366   4.173
66181W        W31661  14.155  41.929  13.815
66182W        W31662   4.337   5.313   1.706
66183W        W31663   7.730  38.405   1.227
66184W        W31664  29.666  37.041   2.286
66185W        W31665  19.685  16.612  11.864
66186W        W31666  18.584  37.448  13.960
66187W        W31667  34.550  26.606  13.518
66188W        W31668   8.686  22.072   0.803
66189W        W31669  43.437  14.762  12.572
66190W        W31670  34.912  27.653  10.507
66191W        W31671  37.510   2.420   5.190
66192W        W31672  36.368  13.158   2.680
66193W        W31673  16.283  17.576  14.760
66194W        W31674  29.479   8.677  11.445
66195W        W31675   1.383  14.133  11.001
66196W        W31676  35.364  20.653  14.384
66197W        W31677  26.560  27.016  11.030
66198W        W31678  15.238  40.984  13.519
66199W        W31679  34.075  30.021   3.811
66200W        W31680  19.600  35.409   3.217
66201W        W31681   7.347  17.214   1.823
66202W        W31682  38.490   5.363   3.730
66203W        W31683  29.016   5.928  12.382
66204W        W31684   0.450  41.974   0.264
66205W        W31685   6.714  11.686  14.966
66206W        W31686  23.107  32.901  14.313
66207W        W31687  29.067  19.707   4.837
66208W        W31688   7.745   3.311  10.909
66209W        W31689  22.534  43.379   1.232
66210W        W31690  19.768   0.852   4.237
66211W        W31691  14.825  18.669  12.065
66212W        W31692   6.848  44.348  10.556
66213W        W31693  24.686   8.373  13.314
66214W        W31694  36.497  41.358  13.351
66215W        W31695  41.990  32.900  11.579
66216W        W31696  20.732  42.832  11.012
66217W        W31697  27.168   8.254  14.000
66218W        W31698   3.925  38.981  10.607
66219W        W31699  12.673  17.078  10.563
66220W        W31700  10.161  22.995  14.513
66221W        W31701  38.367  25.539   4.811
66222W        W31702  12.214  23.634   1.764
66223W        W31703  31.049   0.261  10.936
66224W        W31704   8.760  20.725   3.160
66225W        W31705   6.679  30.616  13.386
66226W        W31706  10.314  18.674   0.399
66227W        W31707  42.808   2.465   1.738
66228W        W31708  26.584   5.924  13.459
66229W        W31709  35.910  11.292  12.981
66230W        W31710  22.571  36.043  14.860
66231W        W31711  33.900   9.182   3.178
66232W        W31712  14.198  12.794  11.538
66233W        W31713   1.438  10.724  11.935
66234W        W31714  16.637  23.594   1.439
66235W        W31715  43.317   0.413  14.279
66236W        W31716  22.604   7.260   0.874
66237W        W31717  41.487  26.531   5.295
66238W        W31718  15.756   9.667  10.528
66239W        W31719  41.954  28.084   0.757
66240W        W31720  17.698   1.407  14.897
66241W        W31721   7.354  13.718  13.037
66242W        W31722  19.700  23.158   4.651
66243W        W31723  39.419   1.395   1.253
66244W        W31724  39.497   7.264  13.460
66245W        W31725  35.477  36.382  13.832
66246W        W31726  30.434  41.009   3.810
66247W        W31727  23.607  35.560   1.348
66248W        W31728  13.333  32.043   3.819
66249W        W31729  34.473   3.318  13.991
66250W        W31730  36.006  25.606  12.513
66251W        W31731  35.858  35.944  13.832
66252W        W31732  22.116  14.249   2.714
66253W        W31733  42.349  43.944  10.436
66254W        W31734  43.328  33.965   2.377
66255W        W31735  16.202  37.846   9.970
66256W        W31736  36.439  29.038   2.774
66257W        W31737  17.618  12.357   3.246
66258W        W31738  32.521  24.208   0.872
66259W        W31739  37.923  23.578  14.892
66260W        W31740  22.024  10.868  10.604
66261W        W31741  34.564  36.841   1.695
66262W        W31742   8.855  42.991   0.892
66263W        W31743  12.740   2.359  12.886
66264W        W31744  39.476  35.407   3.276
66265W        W31745   3.338  31.473  10.580
66266W        W31746  41.330  28.546   1.699
66267W        W31747  31.623   1.856  14.453
66268W        W31748  35.489  36.346   4.118
66269W        W31749  33.545  20.208  13.929
66270W        W31750  38.949  18.711   3.309
66271W        W31751   8.289  12.330  13.336
66272W        W31752  35.494  18.100   2.195
66273W        W31753  14.303  23.705   3.852
66274W        W31754   6.730  15.752  10.043
66275W        W31755   8.357  17.590  14.995
66276W        W31756  27.489  12.739  10.482
66277W        W31757  12.677  26.591  13.340
66278W        W31758  33.588  40.342   2.767
66279W        W31759  33.073   2.942   4.676
66280W        W31760   8.222   3.717   0.867
66281W        W31761  28.673  29.600   3.858
66282W        W31762  16.699  38.481  14.946
66283W        W31763   1.387  10.841  11.537
66284W        W31764  26.619  43.783   0.773
66285W        W31765   5.912  15.173  12.014
66286W        W31766  31.073   3.384  14.908
66287W        W31767  34.922   5.340   1.318
66288W        W31768   8.824   1.380  11.076
66289W        W31769  16.784  37.573  10.901
66290W        W31770  33.026  12.843  12.851
66291W        W31771   8.833  41.301   3.721
66292W        W31772   9.718  31.003   4.767
66293W        W31773  23.597   2.871   4.835
66294W        W31774  11.317  40.911  12.413
66295W        W31775  34.394  21.062  14.500
66296W        W31776  11.813  27.958   4.693
66297W        W31777  13.727  40.880  11.457
66298W        W31778  20.068  16.671  14.778
66299W        W31779  15.810  42.994  14.305
66300W        W31780  22.119  31.119  13.520
66301W        W31781  20.109  23.119  14.851
66302W        W31782  26.520  16.308   0.966
66303W        W31783  35.595  38.397   0.476
66304W        W31784  18.090   7.738  14.813
66305W        W31785  11.266  33.602   3.830
66306W        W31786  24.578  32.491  10.984
66307W        W31787   0.772  39.949  14.976
66308W        W31788  27.519  37.979   3.752
66309W        W31789   5.317   0.296   4.218
66310W        W31790  36.511  12.668   0.438
66311W        W31791   4.725  19.221  13.340
66312W        W31792  18.127  29.650  11.583
66313W        W31793  33.011  31.524  11.427
66314W        W31794  36.378  19.257   2.753
66315W        W31795  20.698  43.788  13.939
66316W        W31796  10.734  14.757   0.965
66317W        W31797  25.703  34.532   3.696
66318W        W31798  20.050  41.872  11.915
66319W        W31799  38.974  41.365  12.987
66320W        W31800  25.105  38.436  11.463
66321W        W31801  40.869  19.642   5.116
66322W        W31802  29.070  30.966  13.425
66323W        W31803  38.334   1.745   0.375
66324W        W31804  36.439   2.894   3.268
66325W        W31805  37.071  25.678  11.403
66326W        W31806  12.353  21.717  14.333
66327W        W31807  35.909  37.946  11.904
66328W        W31808  12.759  33.880   3.164
66329W        W31809  42.806  18.632   1.313
66330W        W31810  44.768  33.889  11.411
66331W        W31811  22.200  20.101   4.646
66332W        W31812  43.996  35.546  14.401
66333W        W31813  21.089  29.436   4.255
66334W        W31814  25.468  18.715   9.962
66335W        W31815  21.731  26.695  12.878
66336W        W31816  35.877   3.816  11.491
66337W        W31817  31.437  40.916  14.966
66338W        W31818  26.658   0.381  10.124
66339W        W31819   7.763  35.511  13.353
66340W        W31820  11.644  35.583  10.974
66341W        W31821  16.248   0.942   4.163
66342W        W31822  28.636  25.484  11.014
66343W        W31823  17.667  31.642   1.786
66344W        W31824  43.368  22.651  11.555
66345W        W31825   9.226  25.553   0.274
66346W        W31826  22.553  42.520   3.247
66347W        W31827   6.324   0.912   1.720
66348W        W31828   2.333  28.129   1.863
66349W        W31829   8.793  22.238  10.578
66350W        W31830  34.048  17.685  13.989
66351W        W31831  19.565  21.524   1.823
66352W        W31832   0.869  22.731   5.082
66353W        W31833   7.877  31.083  11.877
66354W        W31834   0.336   8.749   1.253
66355W        W31835   0.747  27.077  13.988
66356W        W31836  30.573  35.068  11.587
66357W        W31837   0.437  16.629   3.681
66358W        W31838   3.780  28.539  11.534
66359W        W31839  20.237  37.998  10.412
66360W        W31840  38.431   2.769  11.378
66361W        W31841  26.555  32.440   2.262
66362W        W31842  11.805   3.771   3.158
66363W        W31843   9.744  24.038   4.189
66364W        W31844  43.799   2.873   0.266
66365W        W31845  38.904   8.814   2.232
66366W        W31846  29.957  12.763  14.889
66367W        W31847  31.420  23.104   1.895
66368W        W31848  31.436  35.404   0.904
66369W        W31849   5.197  36.967   4.665
66370W        W31850   0.267  19.641   0.250
66371W        W31851   1.444  37.524   2.393
66372W        W31852  16.687  34.955  10.036
66373W        W31853  31.428  18.203   2.366
66374W        W31854  39.008  28.970  11.562
66375W        W31855   0.459   2.856  14.764
66376W        W31856   6.788   9.785   0.304
66377W        W31857  11.193  16.091  12.856
66378W        W31858   2.391  30.097  14.301
66379W        W31859  44.357  20.655  10.038
66380W        W31860  15.193   7.222  14.908
66381W        W31861  13.223  35.989  11.601
66382W        W31862   7.721   6.814   2.386
66383W        W31863  24.707  21.580   4.290
66384W        W31864  33.960  22.092   1.321
66385W        W31865  23.554  32.989  10.502
66386W        W31866   2.327  44.007  14.280
66387W        W31867  27.563  39.511  11.012
66388W        W31868   8.287  41.365   4.230
66389W        W31869   4.879   9.751   0.768
66390W        W31870  14.623  20.221  13.881
66391W        W31871  32.586  19.535   3.764
66392W        W31872  18.627  27.077  12.904
66393W        W31873  40.045  33.043   4.188
66394W        W31874   8.229  15.673  11.530
66395W        W31875  38.955  25.057  14.461
66396W        W31876   8.698   2.249  10.440
66397W        W31877  15.714  35.950  14.496
66398W        W31878  35.485  14.675   3.719
66399W        W31879  25.577  16.805   0.355
66400W        W31880   8.894  36.053   2.758
66401W        W31881  23.210  37.527  13.992
66402W        W31882  42.932  22.644   3.287
66403W        W31883  35.563   8.222   0.366
66404W        W31884  42.856  29.024  11.941
66405W        W31885  21.619  18.223  14.375
66406W        W31886   3.418  34.577   3.350
66407W        W31887  37.466  42.378   4.205
66408W        W31888  23.718   6.237  13.528
66409W        W31889  19.261  13.731   2.232
66410W        W31890  30.916  41.336   5.199
66411W        W31891  11.334  39.392  11.859
66412W        W31892  32.086   2.808   3.688
66413W        W31893  22.089  36.535  10.440
66414W        W31894  13.617  44.412  11.534
66415W        W31895  16.643  18.659  12.950
66416W        W31896  13.232  33.052  12.449
66417W        W31897   1.438   2.830  11.033
66418W        W31898  34.386  13.670  13.838
66419W        W31899  26.076   6.842   1.244
66420W        W31900  43.771  31.540  14.287
66421W        W31901   0.851   1.412  14.790
66422W        W31902   0.285  43.804  12.029
66423W        W31903  44.003  13.305  12.556
66424W        W31904  12.803   3.765  13.939
66425W        W31905  21.254   1.316   4.722
66426W        W31906  33.994  42.409  13.025
66427W        W31907   2.382  14.608  12.362
66428W        W31908  27.459  12.299  12.867
66429W        W31909  31.914  23.545   1.368
66430W        W31910  39.425   9.183   2.346
66431W        W31911  21.725  30.029   0.789
66432W        W31912   7.236  10.272   4.697
66433W        W31913  34.100   0.879   0.864
66434W        W31914  33.592  15.236  13.002
66435W        W31915   1.832  15.747   1.733
66436W        W31916   3.772  23.640   3.745
66437W        W31917  24.076   4.872   1.904
66438W        W31918  43.317  36.861  10.504
66439W        W31919  17.180  39.555   1.783
66440W        W31920  33.073   9.879  13.890
66441W        W31921  25.194  33.409  13.821
66442W        W31922  19.134  41.912   3.225
66443W        W31923  29.152  35.012  12.922
66444W        W31924  23.698  24.644   0.726
66445W        W31925  13.826  27.506  12.575
66446W        W31926  26.477  10.876  10.472
66447W        W31927  13.638  42.451   0.848
66448W        W31928  32.495  15.602  14.813
66449W        W31929  12.337   4.713  10.544
66450W        W31930   1.747  30.982  11.586
66451W        W31931  31.017  23.119  10.539
66452W        W31932  10.380  36.390  10.464
66453W        W31933  33.113  15.623  13.945
66454W        W31934   2.911  16.796   1.388
66455W        W31935  18.677  34.484   1.376
66456W        W31936  35.958  18.269   4.666
66457W        W31937  24.713   0.446   3.247
66458W        W31938   1.302  14.168   3.230
66459W        W31939   2.253  10.809  13.308
66460W        W31940  38.495  40.052  11.104
66461W        W31941  24.035  32.463   2.358
66462W        W31942  29.138  32.135  12.515
66463W        W31943  15.777   7.383   0.453
66464W        W31944  21.741  15.730  14.781
66465W        W31945  22.596  13.776   2.880
66466W        W31946  37.470  18.293   0.295
66467W        W31947  39.055   4.351  14.915
66468W        W31948   3.416  18.737   4.213
66469W        W31949   8.319   1.926  12.972
66470W        W31950  30.551  10.774   2.777
66471W        W31951  30.590  19.724  11.593
66472W        W31952   5.285   7.347  14.851
66473W        W31953  11.237  29.552   2.384
66474W        W31954   9.730  30.470   1.330
66475W        W31955  22.046  24.999   2.804
66476W        W31956   2.744   3.857  11.072
66477W        W31957  26.016  19.105   4.343
66478W        W31958  22.617   5.842   0.817
66479W        W31959  27.486  33.116   3.352
66480W        W31960   2.929  14.818  13.944
66481W        W31961   7.193  34.944   0.327
66482W        W31962  44.920  21.173   1.749
66483W        W31963   4.432   4.351  12.430
66484W        W31964  26.017  14.609   2.353
66485W        W31965  43.327  19.626   2.864
66486W        W31966  24.699  22.025  11.907
66487W        W31967  35.031  24.599  12.549
66488W        W31968   2.929  35.076   2.663
66489W        W31969  37.546  17.799  11.888
66490W        W31970  29.128  33.531   9.977
66491W        W31971  24.706  30.949  12.417
66492W        W31972  10.802   5.203   1.280
66493W        W31973  32.430  30.151  14.469
66494W        W31974  37.836   7.331   0.254
66495W        W31975  16.590  34.085  12.446
66496W        W31976  40.305   0.985  10.056
66497W        W31977  16.603  32.425  13.932
66498W        W31978   7.711  31.626  12.954
66499W        W31979  24.089  30.469  10.903
66500W        W31980  15.784  20.599   2.359
66501W        W31981  16.587  28.438   1.244
66502W        W31982  13.231  40.522   5.158
66503W        W31983  16.208  40.341   0.466
66504W        W31984  41.878   2.421   3.294
66505W        W31985  29.669   4.338   4.810
66506W        W31986  41.353  35.986   4.172
66507W        W31987  43.834  27.581   1.731
66508W        W31988  44.824  19.057   2.220
66509W        W31989  13.313  29.943  14.895
66510W        W31990  15.312   1.944  14.778
66511W        W31991  27.453  42.443   2.837
66512W        W31992  25.531  23.133   4.155
66513W        W31993   5.808   3.329   0.947
66514W        W31994  30.511  18.755  11.112
66515W        W31995   1.394  39.991   0.851
66516W        W31996   2.346  38.996   1.725
66517W        W31997  32.523  20.163  14.779
66518W        W31998  10.696   3.347  10.901
66519W        W31999  26.144  16.726  11.461
66520W        W32000   5.335  37.396  14.952
66521W        W32001  25.202  35.403   3.827
66522W        W32002  37.423  42.983  14.963
66523W        W32003   0.346  10.716   4.697
66524W        W32004  44.777  19.652  13.044
66525W        W32005   8.807   6.686   0.371
66526W        W32006  13.677  13.165   1.277
66527W        W32007  14.178  10.383   2.318
66528W        W32008  39.556   3.875  11.936
66529W        W32009  18.296  25.663  11.856
66530W        W32010  12.786  11.260  11.929
66531W        W32011  37.853  21.232   2.724
66532W        W32012  24.699   5.740   4.237
66533W        W32013  36.382  44.815   0.911
66534W        W32014  41.402  39.465  13.818
66535W        W32015  32.092  32.468   3.761
66536W        W32016  28.636  11.721   0.733
66537W        W32017  16.316   6.826   3.361
66538W        W32018  28.082  27.476   2.747
66539W        W32019   3.755  25.193   4.742
66540W        W32020  26.700  40.965   2.827
66541W        W32021  33.626  32.971  14.467
66542W        W32022  12.200  43.398   4.129
66543W        W32023  34.499  10.878   3.809
66544W        W32024  16.162  21.676  11.532
66545W        W32025   8.395  12.143   2.186
66546W        W32026   0.378  28.472  14.868
66547W        W32027   8.862   3.360  13.980
66548W        W32028  10.220  37.897  11.387
66549W        W32029   9.294  35.377  11.404
66550W        W32030  18.210  31.489   2.707
66551W        W32031  24.116   9.793  12.027
66552W        W32032  31.467   5.373   0.911
66553W        W32033  38.511  24.526   4.830
66554W        W32034  28.100  33.594   4.338
66555W        W32035  40.862  14.268   3.692
66556W        W32036  19.045  38.491   3.741
66557W        W32037  44.828  25.159  13.470
66558W        W32038  39.996  14.151   3.817
66559W        W32039   3.411  35.106   3.635
66560W        W32040  28.606  14.659   0.952
66561W        W32041  42.984   9.786  13.977
66562W        W32042  12.172   2.856  12.519
66563W        W32043  19.068  22.135  14.500
66564W        W32044  20.553  35.512  11.900
66565W        W32045  15.269   3.898  12.342
66566W        W32046  41.957  17.295  11.015
66567W        W32047  22.500   7.417  14.798
66568W        W32048   8.262   2.864  11.003
66569W        W32049  38.965  34.504   4.316
66570W        W32050   7.700  36.479  11.078
66571W        W32051   3.758  43.809   3.634
66572W        W32052   2.408  32.455   0.951
66573W        W32053  17.175  29.435   3.761
66574W        W32054  40.456  36.911   4.771
66575W        W32055  35.986  23.099  11.401
66576W        W32056  42.482  21.094   0.808
66577W        W32057  12.226  42.299  12.063
66578W        W32058   6.866  10.372  11.083
66579W        W32059  38.546  42.786  13.987
66580W        W32060  32.953   6.195  12.573
66581W        W32061  24.519  42.421   2.841
66582W        W32062  13.715  43.805   1.725
66583W        W32063   3.791  20.581   1.725
66584W        W32064  22.552  26.989  12.916
66585W        W32065  43.920  38.009   1.266
66586W        W32066   3.372  18.775  13.908
66587W        W32067   5.407  39.396  13.452
66588W        W32068  36.033  10.222  11.414
66589W        W32069  18.740  27.167   3.219
66590W        W32070   0.936  28.572   3.757
66591W        W32071  25.622   1.966  11.935
66592W        W32072  11.838   8.345  13.940
66593W        W32073  39.393  29.454   4.758
66594W        W32074  35.589  10.257  14.442
66595W        W32075  20.687   9.686   0.749
66596W        W32076  38.479  29.667   3.376
66597W        W32077  15.602  43.375  14.282
66598W        W32078  28.496  35.050   2.690
66599W        W32079  10.724  36.451   3.795
66600W        W32080  16.754  22.011   0.830
66601W        W32081   8.879  28.120   0.840
66602W        W32082  36.969  39.386  12.463
66603W        W32083  12.701  20.272   1.835
66604W        W32084  37.878   1.925  10.519
66605W        W32085  21.135   0.394  12.516
66606W        W32086   4.306   7.666   1.349
66607W        W32087  34.929   2.932   3.658
66608W        W32088  32.008  24.634   4.347
66609W        W32089   4.421  34.393   1.759
66610W        W32090  23.582  30.560   3.279
66611W        W32091  10.792  19.652   5.087
66612W        W32092  25.539   3.267  13.441
66613W        W32093  32.420  22.525  14.418
66614W        W32094  36.368  21.245  13.987
66615W        W32095  42.822  19.282  13.312
66616W        W32096   2.749  28.057   2.779
66617W        W32097  41.843   2.816  13.853
66618W        W32098  19.217  22.130   4.338
66619W        W32099  14.712   9.693   4.753
66620W        W32100   7.723  31.141  13.046
66621W        W32101   7.779  24.506  11.128
66622W        W32102  32.449  33.443  14.499
66623W        W32103  19.546  12.217  13.813
66624W        W32104  44.988  26.501  10.587
66625W        W32105  35.548  21.565   2.708
66626W        W32106   5.715  10.202   3.231
66627W        W32107   5.729  13.652   4.262
66628W        W32108  14.116  17.301  14.943
66629W        W32109  13.624   8.726  13.797
66630W        W32110   7.792  12.202  12.560
66631W        W32111   1.875  35.996   2.728
66632W        W32112  26.052  11.645  14.884
66633W        W32113  40.548   2.918   0.755
66634W        W32114  35.034  40.432  10.434
66635W        W32115  26.127  17.714   1.711
66636W        W32116   2.929   9.748   4.316
66637W        W32117  16.220  28.131   0.337
66638W        W32118  25.166  38.410  11.860
66639W        W32119  18.100   2.446   4.148
66640W        W32120   9.152  42.867  11.952
66641W        W32121   9.874  36.404   2.679
66642W        W32122  27.604  38.925   1.783
66643W        W32123  36.994  44.296  12.422
66644W        W32124  29.964   4.318   1.888
66645W        W32125  44.358  38.018  13.887
66646W        W32126  34.486   6.729  13.983
66647W        W32127   8.738  29.116   1.748
66648W        W32128  18.618  24.722  10.144
66649W        W32129  29.535  20.737   1.433
66650W        W32130   0.744  40.309   2.353
66651W        W32131   3.340  30.582   0.375
66652W        W32132   4.815  34.598   3.809
66653W        W32133  30.538  27.662   0.335
66654W        W32134  22.617  36.593  14.782
66655W        W32135   4.763   0.878  11.609
66656W        W32136  25.099  14.130   0.747
66657W        W32137   6.222  22.241  12.481
66658W        W32138  19.276  13.228   2.273
66659W        W32139  18.080  11.854   0.787
66660W        W32140  11.345  29.155   0.306
66661W        W32141  41.888  33.509  14.497
66662W        W32142  30.162  40.391  12.537
66663W        W32143   0.784  37.056   3.307
66664W        W32144   8.242   0.429  10.632
66665W        W32145  32.124  22.715  11.502
66666W        W32146  11.282  33.977  13.358
66667W        W32147  44.887  30.474   1.435
66668W        W32148  23.723  13.773   0.282
66669W        W32149  34.906   7.347   4.735
66670W        W32150  19.159   3.763  13.845
66671W        W32151  16.784  24.488   0.909
66672W        W32152   2.944  20.631   3.756
66673W        W32153  44.881  27.948   1.786
66674W        W32154  25.205  25.597  13.323
66675W        W32155   0.367  21.106  10.642
66676W        W32156   8.730  39.419  14.500
66677W        W32157  38.385  17.696  10.952
66678W        W32158  32.496   5.704  11.044
66679W        W32159  23.234   1.802  11.070
66680W        W32160  37.492  20.058   0.367
66681W        W32161  22.527   2.258  11.486
66682W        W32162   5.306  11.839  14.761
66683W        W32163  41.315  14.122   4.714
66684W        W32164  14.303  36.901  14.466
66685W        W32165   2.332  10.768   1.388
66686W        W32166   8.183  35.586  10.598
66687W        W32167  24.592   2.326  11.547
66688W        W32168  29.111  24.711   2.363
66689W        W32169  40.546  38.533   4.780
66690W        W32170   8.297  15.218  11.016
66691W        W32171  31.498  22.246  12.976
66692W        W32172  13.106  38.388  12.023
66693W        W32173  29.432  29.587   4.604
66694W        W32174  18.242  34.392   0.936
66695W        W32175  31.941   7.731  13.316
66696W        W32176   6.411  19.125  12.359
66697W        W32177  23.585   7.290   3.633
66698W        W32178   5.765  16.753   2.356
66699W        W32179  37.428   3.803  12.835
66700W        W32180  15.236  37.892  13.928
66701W        W32181  32.484  13.114   1.353
66702W        W32182  43.833  36.589  13.316
66703W        W32183  37.887  30.525  13.456
66704W        W32184  15.167  14.094   3.784
66705W        W32185   4.436   0.847   2.718
66706W        W32186   4.391  31.424   4.598
66707W        W32187   6.878  25.186   4.783
66708W        W32188  37.424   6.878  11.101
66709W        W32189  40.474  41.322  13.994
66710W        W32190  32.991  35.433   2.240
66711W        W32191  39.403   4.362  12.882
66712W        W32192  22.679   0.295   1.757
66713W        W32193  12.260  24.159  11.986
66714W        W32194  12.790  38.032  14.469
66715W        W32195   8.401  17.167  12.085
66716W        W32196  10.318  13.113   2.313
66717W        W32197  28.678  34.955  14.936
66718W        W32198  17.095  35.931  11.539
66719W        W32199  19.544  28.593  14.775
66720W        W32200   2.270  11.794  12.834
66721W        W32201  24.195  37.931   1.707
66722W        W32202  40.384  26.578   4.244
66723W        W32203  25.590  34.532  11.591
66724W        W32204   1.964  24.135  13.887
66725W        W32205  30.041  28.579  11.501
66726W        W32206  16.688  30.959   2.323
66727W        W32207  38.829   1.338   3.350
66728W        W32208  23.683  18.151  10.937
66729W        W32209  19.133  26.138   2.771
66730W        W32210  24.979  10.638   4.160
66731W        W32211   3.319   7.814   2.833
66732W        W32212  14.236  34.045   2.229
66733W        W32213   0.815  39.509  14.772
66734W        W32214   0.838   9.845  11.387
66735W        W32215  32.483  35.578  11.492
66736W        W32216  12.816  27.044  14.453
66737W        W32217  43.776  11.796   2.805
66738W        W32218   3.843  24.492  12.389
66739W        W32219  27.162  29.148  10.405
66740W        W32220  13.344  27.101  11.899
66741W        W32221  13.652  30.043  10.551
66742W        W32222   8.713  40.415   3.147
66743W        W32223   9.878  24.030  14.473
66744W        W32224  12.235  27.953   0.463
66745W        W32225  19.684  24.130  13.965
66746W        W32226  19.568  26.566  12.831
66747W        W32227   4.222  26.473  11.893
66748W        W32228  25.614  37.054  14.373
66749W        W32229  15.182  18.247  12.449
66750W        W32230   4.357  38.921   3.776
66751W        W32231  12.652  38.930   2.823
66752W        W32232  41.860  21.244  11.478
66753W        W32233  22.149  28.679  14.980
66754W        W32234  38.872  34.902   0.294
66755W        W32235  20.274   6.787  11.377
66756W        W32236  25.105  13.267   4.779
66757W        W32237  19.761  18.781  13.370
66758W        W32238   1.965  25.010  10.536
66759W        W32239  15.798  17.199   0.829
66760W        W32240  27.534  28.640  14.484
66761W        W32241  18.177   3.361  13.026
66762W        W32242  22.643  16.594  11.861
66763W        W32243  33.125  32.596  12.940
66764W        W32244  25.480  14.775  12.922
66765W        W32245  15.274  32.936   0.863
66766W        W32246   4.840  17.101  12.940
66767W        W32247  24.118  32.477  14.822
66768W        W32248  17.279  20.527   2.340
66769W        W32249  44.800   8.718  13.429
66770W        W32250  20.584  39.359   2.206
66771W        W32251  39.851  30.531   3.209
66772W        W32252  20.041   2.782   3.721
66773W        W32253  26.138  24.567  13.034
66774W        W32254   9.800  20.147   2.213
66775W        W32255  17.570  31.041  12.407
66776W        W32256  12.823  10.839   1.870
66777W        W32257  15.303   9.832   1.928
66778W        W32258  29.113  24.979   0.279
66779W        W32259   5.765  28.094  12.840
66780W        W32260  26.001  33.463  13.045
66781W        W32261  15.088  42.387  14.387
66782W        W32262  42.515  25.651   1.378
66783W        W32263  17.588  42.839   4.648
66784W        W32264  14.192  31.536  12.502
66785W        W32265   8.690  10.207  13.987
66786W        W32266  14.123  28.171   0.328
66787W        W32267  32.553  32.901  12.978
66788W        W32268  29.983  22.099  11.513
66789W        W32269  16.664  12.277  11.462
66790W        W32270   6.802   7.323  10.645
66791W        W32271   8.256  37.396  13.933
66792W        W32272  28.064  16.283  11.096
66793W        W32273   9.735   0.315  10.892
66794W        W32274  20.748  25.492  11.002
66795W        W32275  20.645  37.976   4.756
66796W        W32276  44.282   1.283  14.504
66797W        W32277   1.867   7.171   4.208
66798W        W32278  18.598  10.275   0.330
66799W        W32279  23.569  30.018   2.182
66800W        W32280  12.204  31.544  10.641
66801W        W32281  24.666  44.285   0.937
66802W        W32282  29.064   6.314  14.438
66803W        W32283  36.486   4.776  13.344
66804W        W32284  17.260  44.500   2.291
66805W        W32285  43.297  44.449  12.938
66806W        W32286   0.444   0.988  10.959
66807W        W32287  21.242  41.844  14.796
66808W        W32288  35.587   7.259  12.418
66809W        W32289  15.620  17.690  10.970
66810W        W32290  23.607  32.032  12.475
66811W        W32291  43.789  15.262  12.954
66812W        W32292  43.777  14.339  11.449
66813W        W32293  27.454   6.253  12.406
66814W        W32294  39.838  13.128   1.753
66815W        W32295  13.750  20.137  14.978
66816W        W32296   8.173  22.086  11.119
66817W        W32297  28.947  43.422   0.895
66818W        W32298  36.940   4.747  14.798
66819W        W32299  33.022  25.016  13.005
66820W        W32300   9.290  34.965  11.528
66821W        W32301  34.492  20.056  14.784
66822W        W32302   7.728   8.793   4.772
66823W        W32303  20.246  34.390  12.534
66824W        W32304  35.979  21.231  10.462
66825W        W32305   0.344  23.516  10.445
66826W        W32306  22.239  16.092  13.520
66827W        W32307  32.075  43.287   1.770
66828W        W32308  36.383  37.965   0.913
66829W        W32309  19.597  25.204  13.016
66830W        W32310   1.941  19.628  13.389
66831W        W32311  36.587  11.808  12.538
66832W        W32312   8.203   1.843   3.170
66833W        W32313   8.738   9.873  12.547
66834W        W32314  32.399  11.257  11.474
66835W        W32315   6.875  19.622  11.126
66836W        W32316  25.697  41.940  12.916
66837W        W32317   6.868  19.177  10.482
66838W        W32318  39.973   6.868  12.896
66839W        W32319  23.649   5.932  13.887
66840W        W32320  27.690  38.440   2.234
66841W        W32321   4.910  33.492  13.028
66842W        W32322  18.545   1.361  10.555
66843W        W32323  14.134  43.770  13.376
66844W        W32324   7.348  37.053   4.185
66845W        W32325   3.219  43.494   0.805
66846W        W32326  38.890  31.117  14.871
66847W        W32327  43.907  24.060  13.891
66848W        W32328  41.004  12.723   1.754
66849W        W32329  32.095  21.233  12.870
66850W        W32330  15.699  22.139  12.016
66851W        W32331  25.522  10.668  10.645
66852W        W32332  30.608  36.041  14.993
66853W        W32333  25.665  13.195  10.411
66854W        W32334  13.781   8.385  12.573
66855W        W32335   9.830   5.231   1.858
66856W        W32336  24.130  17.571  14.833
66857W        W32337  26.607  26.091  12.836
66858W        W32338  10.758  36.854  12.094
66859W        W32339  20.748   7.755   0.874
66860W        W32340   9.728   7.305   4.352
66861W        W32341   6.874   2.395  12.964
66862W        W32342  34.395   5.887   4.607
66863W        W32343   5.232  27.174  13.917
66864W        W32344   5.852   7.901   1.364
66865W        W32345  42.363  31.463  12.487
66866W        W32346   3.717  19.611  11.873
66867W        W32347  44.330  16.673   3.642
66868W        W32348  27.660  26.519  13.797
66869W        W32349  31.476  32.132  11.020
66870W        W32350  39.818  25.058  11.909
66871W        W32351   9.218   1.432  11.999
66872W        W32352   5.820  44.363   2.703
66873W        W32353  27.463   9.746   4.169
66874W        W32354  44.984  15.161   4.301
66875W        W32355  38.912  21.638  13.045
66876W        W32356  21.140  19.105   3.661
66877W        W32357   4.212  37.429   3.674
66878W        W32358  34.400  12.301  10.637
66879W        W32359   9.681  29.034  11.004
66880W        W32360  38.381  15.108  12.442
66881W        W32361  31.628   1.907  12.561
66882W        W32362  25.566  16.693  10.452
66883W        W32363  21.592  42.491  13.965
66884W        W32364  13.684  28.669   2.761
66885W        W32365  18.076   6.300   4.213
66886W        W32366  22.676  40.890  10.622
66887W        W32367  18.170  40.339  14.335
66888W        W32368  33.465   9.321  11.976
66889W        W32369  12.696  33.020  14.948
66890W        W32370  15.806  10.203  14.344
66891W        W32371   8.691  34.910   1.447
66892W        W32372  35.070   5.856  10.556
66893W        W32373   5.414  31.491   3.262
66894W        W32374  32.116  23.539   4.767
66895W        W32375  26.544  21.071  12.433
66896W        W32376  23.590   7.218   2.787
66897W        W32377  26.040   9.335  10.942
66898W        W32378  38.493  33.447  10.467
66899W        W32379  39.353   8.193  11.981
66900W        W32380   2.465  28.566  10.412
66901W        W32381   6.793  40.402  12.410
66902W        W32382  18.663  17.236   4.717
66903W        W32383  20.642  14.338   3.691
66904W        W32384  12.350  40.965   2.698
66905W        W32385  36.918  43.349   4.162
66906W        W32386  35.405  39.468  11.860
66907W        W32387  38.026   1.396   2.324
66908W        W32388  12.673  23.080  11.036
66909W        W32389   8.792  34.533   4.618
66910W        W32390  37.570  37.484  12.474
66911W        W32391  25.544  17.166   3.249
66912W        W32392   1.869  27.968  12.072
66913W        W32393   0.302   3.332   0.463
66914W        W32394   0.896  41.966  13.803
66915W        W32395  42.861  33.587   5.149
66916W        W32396   5.794  21.627  12.027
66917W        W32397   9.262  39.547   4.737
66918W        W32398  38.475  13.289  13.997
66919W        W32399  19.614  31.604   0.260
66920W        W32400  40.507  14.744  12.508
66921W        W32401  44.474   2.357  13.390
66922W        W32402   2.370  41.443  14.501
66923W        W32403  33.906  43.441  12.972
66924W        W32404  37.420  26.608  10.558
66925W        W32405   6.806  16.244   3.786
66926W        W32406  31.529  15.622  14.937
66927W        W32407   2.262  18.581   0.774
66928W        W32408  25.516  41.951  11.885
66929W        W32409  40.808   0.840  14.275
66930W        W32410  34.916  38.540  14.872
66931W        W32411  14.178  12.622   5.193
66932W        W32412  16.626  39.050  13.367
66933W        W32413   8.817  21.694  14.322
66934W        W32414  44.985  31.069   0.837
66935W        W32415  25.637  32.436   0.823
66936W        W32416  28.459   1.439   3.189
66937W        W32417  37.420  39.942  10.112
66938W        W32418  25.077  33.026  11.445
66939W        W32419  36.908  28.038   1.821
66940W        W32420  36.383  10.293   2.353
66941W        W32421   4.836  30.494  11.967
66942W        W32422  43.361  42.304   3.183
66943W        W32423  40.390  26.008  11.100
66944W        W32424  24.671   2.237  13.497
66945W        W32425   3.303  22.224   1.931
66946W        W32426  27.949   6.418  11.586
66947W        W32427  37.354  12.616   1.724
66948W        W32428  13.697  21.588  13.486
66949W        W32429  39.943  11.712  13.495
66950W        W32430  10.652  25.196  11.055
66951W        W32431  27.632   6.848   1.415
66952W        W32432  29.619   0.402  12.051
66953W        W32433  22.531  23.598  14.285
66954W        W32434   5.861  36.912   2.726
66955W        W32435  22.570  23.069   1.256
66956W        W32436   5.705  33.111   3.690
66957W        W32437  23.689  37.031   2.892
66958W        W32438  25.699  26.473  11.534
66959W        W32439  12.230  17.588   1.719
66960W        W32440   9.724  14.739   3.379
66961W        W32441  38.899  11.688   1.770
66962W        W32442  23.532   8.684   1.836
66963W        W32443   2.464   4.417   1.855
66964W        W32444  33.892  34.452   0.762
66965W        W32445  33.625   6.691   3.704
66966W        W32446  41.861   0.350  10.525
66967W        W32447  27.600  26.642  10.637
66968W        W32448  33.435  23.181  10.544
66969W        W32449   9.738   7.846   2.383
66970W        W32450  35.439  14.822   3.204
66971W        W32451  22.575  31.478  14.988
66972W        W32452  39.062   5.772   4.766
66973W        W32453  18.549  25.570  12.564
66974W        W32454  28.031  39.867   4.333
66975W        W32455   5.425  23.985  11.083
66976W        W32456  38.451  41.391  13.983
66977W        W32457  42.435  10.746   4.783
66978W        W32458   5.269  10.840   0.880
66979W        W32459  44.985  20.637  13.005
66980W        W32460  40.876  43.325   4.321
66981W        W32461  26.001  13.725  11.437
66982W        W32462  44.334  10.705  12.037
66983W        W32463  15.109   2.291  14.388
66984W        W32464  19.096  35.528   0.250
66985W        W32465  32.945  41.493  11.421
66986W        W32466  38.501  18.154   4.819
66987W        W32467   2.746   7.360  14.770
66988W        W32468  20.041  17.184  12.930
66989W        W32469  15.688  41.955   5.247
66990W        W32470  17.294  16.812   2.892
66991W        W32471  30.915  30.476  13.354
66992W        W32472  44.352  24.230  11.374
66993W        W32473  27.685   9.657   0.801
66994W        W32474  30.640  29.036  11.423
66995W        W32475  21.099  33.949  14.375
66996W        W32476  36.420  41.956   0.732
66997W        W32477   6.231  27.947  13.520
66998W        W32478   3.825   6.916   4.832
66999W        W32479  17.602  40.813  13.819
67000W        W32480  24.058  39.942   4.789
67001W        W32481  28.062  24.202  11.123
67002W        W32482   1.841  20.552  12.460
67003W        W32483  24.565   3.882  12.851
67004W        W32484  18.622   7.288  13.335
67005W        W32485  20.657  10.661   4.345
67006W        W32486  17.096   3.948  10.934
67007W        W32487  24.665  30.475   2.900
67008W        W32488   9.329   1.930  11.861
67009W        W32489  40.898  29.431  11.097
67010W        W32490  31.123  24.622  14.452
67011W        W32491  37.078  30.114   2.757
67012W        W32492  32.521  44.454   0.863
67013W        W32493  30.444  13.641   3.326
67014W        W32494  26.592  41.423   3.233
67015W        W32495  36.408  23.199   0.326
67016W        W32496  26.667  42.504  12.036
67017W        W32497  38.992  13.708  12.915
67018W        W32498   8.781  15.167  11.059
67019W        W32499  41.438   1.363  14.906
67020W        W32500  27.476  39.369   1.762
67021W        W32501  15.817   6.288  12.477
67022W        W32502  20.621  34.990   4.699
67023W        W32503  31.936  19.045   2.862
67024W        W32504  25.043  42.455  14.321
67025W        W32505  18.662   2.931  11.385
67026W        W32506  35.057  33.621   1.705
67027W        W32507  34.013  23.043  12.437
67028W        W32508  21.223  35.919   3.338
67029W        W32509  17.646   3.798   0.266
67030W        W32510  35.602  11.822  14.772
67031W        W32511  31.901  19.684  14.494
67032W        W32512  32.101  26.979   3.637
67033W        W32513   4.337  36.088   4.790
67034W        W32514  41.439  34.925   4.765
67035W        W32515   5.252   7.342  11.456
67036W        W32516  34.609  42.360   1.756
67037W        W32517  26.643  42.833   1.723
67038W        W32518  38.552  31.075   1.406
67039W        W32519   8.258  10.265   2.348
67040W        W32520   5.289  19.181   2.405
67041W        W32521   8.252   2.396   0.327
67042W        W32522  20.579  13.222  13.541
67043W        W32523  44.882  40.483  12.438
67044W        W32524  29.957  36.878  14.307
67045W        W32525  23.518  12.744   2.204
67046W        W32526   2.898  20.253   2.201
67047W        W32527  43.794  25.680   1.885
67048W        W32528   5.874   6.334   3.830
67049W        W32529  27.087  10.238  14.398
67050W        W32530  14.820   7.882   1.325
67051W        W32531  13.245  10.340  11.098
67052W        W32532  20.648  26.485  11.913
67053W        W32533  33.970  39.963  14.449
67054W        W32534  23.049  10.265   4.698
67055W        W32535  44.377  36.543   0.949
67056W        W32536  26.602  14.213   4.728
67057W        W32537   2.420   8.662   0.849
67058W        W32538   8.717  24.682  13.930
67059W        W32539  10.215   9.386  10.972
67060W        W32540  25.506  19.701   1.335
67061W        W32541  21.129  35.089   4.604
67062W        W32542  22.162   7.892   1.818
67063W        W32543   2.902  38.057   3.343
67064W        W32544  29.474  34.030   4.831
67065W        W32545   4.799   2.948   4.603
67066W        W32546  12.230  21.646   3.315
67067W        W32547  36.072  26.003   4.720
67068W        W32548  43.841  35.875  10.417
67069W        W32549  41.355   8.332  14.314
67070W        W32550  35.031   4.781  12.031
67071W        W32551  19.553  19.674   5.145
67072W        W32552   6.380  37.541   3.269
67073W        W32553   2.296  26.159   4.143
67074W        W32554  30.052  23.132  10.619
67075W        W32555  43.943  41.997   4.712
67076W        W32556   6.787   8.360  11.097
67077W        W32557   4.395  11.239  12.986
67078W        W32558  32.053  28.582   0.255
67079W        W32559  14.336  10.872   1.747
67080W        W32560  39.007  14.733  12.945
67081W        W32561   3.903   8.680   3.318
67082W        W32562  25.112  44.854  13.004
67083W        W32563  14.683   6.822  13.540
67084W        W32564   4.903  18.724  14.866
67085W        W32565  34.041  32.010   5.278
67086W        W32566  37.987  36.505   4.269
67087W        W32567  20.603  10.784   3.729
67088W        W32568  10.682  30.018   1.820
67089W        W32569   5.398  42.434   2.721
67090W        W32570   7.372  11.207  10.604
67091W        W32571   2.361  16.267   1.867
67092W        W32572  25.111  33.430  13.359
67093W        W32573  24.001  38.059   4.700
67094W        W32574   9.347  34.455  10.585
67095W        W32575  29.107  37.562  12.841
67096W        W32576   6.286  18.710   0.854
67097W        W32577   3.734  11.851  12.539
67098W        W32578  30.040  41.965  11.527
67099W        W32579  33.386  37.389  11.960
67100W        W32580  16.637  14.135   0.859
67101W        W32581   8.826  22.665   1.868
67102W        W32582  39.434  44.955   4.711
67103W        W32583  27.000  30.920   4.119
67104W        W32584   4.320   5.313   3.795
67105W        W32585   4.788  25.519  10.137
67106W        W32586  30.992  44.310   4.297
67107W        W32587  16.776   5.926   2.767
67108W        W32588  43.409  33.592  10.922
67109W        W32589  38.454  37.441   1.260
67110W        W32590  33.084  18.059  14.931
67111W        W32591  11.798  37.451   3.643
67112W        W32592   8.883  40.039   0.953
67113W        W32593  10.743  41.526   1.920
67114W        W32594   1.842  37.495  10.146
67115W        W32595  23.049  25.187  10.970
67116W        W32596   2.354  16.207   2.750
67117W        W32597  13.644  13.247   1.757
67118W        W32598  23.025  43.895  12.417
67119W        W32599  41.035  41.863  11.918
67120W        W32600  21.553  38.892   9.954
67121W        W32601  22.122  36.462   1.930
67122W        W32602  31.402  21.237   0.822
67123W        W32603  40.918  31.438   2.682
67124W        W32604  17.709  43.991  13.855
67125W        W32605  40.413  26.521   3.151
67126W        W32606  25.996  38.933  14.306
67127W        W32607  12.747  15.133   1.735
67128W        W32608  44.501  35.007  14.448
67129W        W32609  25.119  33.983  10.595
67130W        W32610  15.657  32.593  12.456
67131W        W32611  25.644  16.756  13.996
67132W        W32612  27.956  32.055   4.346
67133W        W32613  41.329  44.879  11.470
67134W        W32614   4.393  14.596   0.336
67135W        W32615   0.893  10.175   2.890
67136W        W32616  12.359  10.332  11.576
67137W        W32617   0.837  22.747  13.806
67138W        W32618  29.105   9.251  11.534
67139W        W32619  25.007  25.018  11.411
67140W        W32620  15.310   4.777   3.151
67141W        W32621  10.300  37.343   0.821
67142W        W32622   9.377  15.663  14.940
67143W        W32623   8.175   4.762  12.400
67144W        W32624   9.785  38.421  14.792
67145W        W32625  39.057   5.715  14.472
67146W        W32626  27.656  33.983  10.615
67147W        W32627  27.630  32.608   3.220
67148W        W32628  33.615  38.961   2.329
67149W        W32629  37.471  24.682  12.880
67150W        W32630  41.451  19.659  12.522
67151W        W32631  11.723  30.507  12.516
67152W        W32632  36.409  17.763  11.000
67153W        W32633   2.915  44.459  12.518
67154W        W32634  15.159  34.459   0.450
67155W        W32635  13.845  39.503   1.809
67156W        W32636  31.962  15.136  11.398
67157W        W32637   9.382  21.034  12.504
67158W        W32638   8.292   7.761  10.539
67159W        W32639   9.280   6.316  10.906
67160W        W32640  10.298  21.186   3.299
67161W        W32641  19.221  34.026   9.640
67162W        W32642   2.290  40.308   2.870
67163W        W32643  42.973   3.785  13.056
67164W        W32644  27.566  10.272   1.263
67165W        W32645  34.408  42.023  12.466
67166W        W32646  33.116   5.361  11.071
67167W        W32647   4.382  17.586   1.272
67168W        W32648  20.617  16.260   3.734
67169W        W32649  27.483  29.085  11.526
67170W        W32650  20.092  38.937  11.513
67171W        W32651  43.374   0.796   2.734
67172W        W32652  28.445  35.974   2.401
67173W        W32653  26.143   7.829   1.244
67174W        W32654  22.657   2.947  10.464
67175W        W32655   7.365  22.563   3.792
67176W        W32656  40.955  17.773   9.561
67177W        W32657  38.478  42.464   0.915
67178W        W32658   0.944  25.121  11.968
67179W        W32659  36.053  32.140   4.731
67180W        W32660  18.100  15.785  11.037
67181W        W32661   4.891   6.362  12.437
67182W        W32662  36.853   6.684   3.288
67183W        W32663   8.672  42.979   4.637
67184W        W32664  11.208  14.649  10.465
67185W        W32665  26.679   4.923   2.779
67186W        W32666  36.941  38.556   1.268
67187W        W32667  32.120  38.409  13.982
67188W        W32668  18.254   8.287  13.430
67189W        W32669  41.304  20.247  13.331
67190W        W32670   4.846  11.832  11.567
67191W        W32671   1.439  25.650  14.493
67192W        W32672   0.322   7.887  10.477
67193W        W32673  22.217  18.691  11.591
67194W        W32674  21.249  24.193   2.714
67195W        W32675  24.688  14.284  12.923
67196W        W32676  32.136  24.070   0.341
67197W        W32677  31.056   4.229  13.029
67198W        W32678   1.816  38.892   0.375
67199W        W32679  22.130  36.962  10.504
67200W        W32680  33.906  18.231  10.486
67201W        W32681  37.356  35.517   0.882
67202W        W32682  20.054  16.751   4.745
67203W        W32683  25.553  11.317   4.658
67204W        W32684  26.170  38.842  10.974
67205W        W32685  38.334  15.812  12.984
67206W        W32686  24.072  19.617   3.815
67207W        W32687  42.363   8.879   4.292
67208W        W32688   0.895  41.455  12.068
67209W        W32689  22.512  21.228   0.250
67210W        W32690   4.802  12.211   4.260
67211W        W32691   1.439   5.770  12.413
67212W        W32692   5.436  30.568   1.339
67213W        W32693  37.357  44.792  11.897
67214W        W32694  32.590  33.944  13.060
67215W        W32695   2.960  34.097   3.239
67216W        W32696   1.852  41.417  12.964
67217W        W32697  16.194  38.555  12.398
67218W        W32698  43.887  18.238   0.454
67219W        W32699  33.970  25.101  10.641
67220W        W32700  37.581  13.818  14.503
67221W        W32701  12.158  44.870   1.291
67222W        W32702  29.632  21.218   0.387
67223W        W32703  23.233  10.207  10.152
67224W        W32704  16.580  15.106   2.199
67225W        W32705  38.873   4.792  13.352
67226W        W32706  26.521  33.414   2.250
67227W        W32707  14.163   0.318  12.890
67228W        W32708  35.525  10.303   4.799
67229W        W32709  38.395  38.546  14.990
67230W        W32710  10.655   6.908   4.620
67231W        W32711  27.649  34.082  14.027
67232W        W32712   7.704  44.385   1.351
67233W        W32713  11.630  42.396   4.291
67234W        W32714  34.541  18.653   0.345
67235W        W32715  14.251  22.612  10.628
67236W        W32716  22.189   6.891  11.883
67237W        W32717   0.474   4.934   4.204
67238W        W32718  33.626  22.193   3.248
67239W        W32719  14.308   0.980   1.261
67240W        W32720   8.350  20.203  10.998
67241W        W32721  32.598  29.083   3.812
67242W        W32722  11.320  33.450   2.705
67243W        W32723  26.198  28.071   2.292
67244W        W32724   4.284   6.738  11.046
67245W        W32725  35.093  20.636  11.440
67246W        W32726  35.880  43.832  11.996
67247W        W32727   5.896  36.396   3.257
67248W        W32728  15.124  26.474   2.785
67249W        W32729   1.911  28.106   2.323
67250W        W32730  18.139   4.332  12.557
67251W        W32731  18.096  29.618  12.569
67252W        W32732  20.635  24.572   1.819
67253W        W32733  32.890   6.398   3.217
67254W        W32734  39.850  30.096  10.404
67255W        W32735  18.274  12.216   2.417
67256W        W32736   6.353  35.017  13.795
67257W        W32737  34.964  34.958   5.205
67258W        W32738  25.097  43.438  12.383
67259W        W32739  11.367  21.154  10.450
67260W        W32740  23.048   4.764   0.373
67261W        W32741  33.557  43.508   4.155
67262W        W32742  21.674  27.684  14.321
67263W        W32743   0.351   0.488  14.989
67264W        W32744  13.217  22.205  13.328
67265W        W32745  35.065  19.146   3.684
67266W        W32746  14.632  36.416   1.421
67267W        W32747  36.842  10.222   4.701
67268W        W32748  37.956  39.005  14.504
67269W        W32749   7.688  40.483  11.525
67270W        W32750  11.185  36.090  14.909
67271W        W32751  34.097  15.621   0.966
67272W        W32752  24.118   7.260  10.898
67273W        W32753   4.229   0.482   2.743
67274W        W32754  37.883  21.668  10.517
67275W        W32755  26.602  14.782  11.935
67276W        W32756  16.122  42.787  12.360
67277W        W32757   7.222  11.626  13.536
67278W        W32758  44.009  25.490  12.428
67279W        W32759  16.227  27.570  10.405
67280W        W32760  20.647  43.794  14.805
67281W        W32761  22.087   6.199  11.504
67282W        W32762  37.550  41.483  10.556
67283W        W32763  40.406  37.377   2.687
67284W        W32764  41.444  22.660  10.598
67285W        W32765  30.552  14.206  12.865
67286W        W32766  20.057  33.525  13.420
67287W        W32767  20.076  20.252  13.454
67288W        W32768   7.738  21.580  14.401
67289W        W32769  44.372  24.670  11.907
67290W        W32770  40.881  15.195  12.952
67291W        W32771  18.636  28.083   0.848
67292W        W32772  28.120  42.313   2.193
67293W        W32773  20.216  31.584   3.851
67294W        W32774  10.759  32.932   0.966
67295W        W32775  28.010   3.285  11.094
67296W        W32776  44.460   2.896  12.025
67297W        W32777  35.562   6.775   4.268
67298W        W32778   7.336  18.742   1.301
67299W        W32779   4.373  19.146   4.597
67300W        W32780  18.670   6.237   2.395
67301W        W32781   9.156  22.135  13.317
67302W        W32782  32.113  39.836  11.963
67303W        W32783   9.863  40.944  11.487
67304W        W32784  39.035   2.727   2.880
67305W        W32785  36.023  23.606   2.189
67306W        W32786  12.702   0.396   1.428
67307W        W32787  35.540   6.853  12.552
67308W        W32788  24.190  28.074   1.252
67309W        W32789  40.310  37.354  12.828
67310W        W32790   7.262  12.143  12.885
67311W        W32791   8.746  25.620  13.332
67312W        W32792  23.207  27.110  14.357
67313W        W32793  24.174  16.305   1.342
67314W        W32794  22.523  14.787   1.780
67315W        W32795  16.228  24.110   3.792
67316W        W32796   4.841  42.346   3.861
67317W        W32797  39.055  35.499   3.217
67318W        W32798   2.233   8.378   4.262
67319W        W32799  14.644  32.578   0.335
67320W        W32800   5.896   7.334  14.032
67321W        W32801  11.280   8.863   3.213
67322W        W32802   7.260  28.955  12.844
67323W        W32803  37.978  32.068  14.929
67324W        W32804  22.655  39.849   1.276
67325W        W32805   3.713  40.543  14.375
67326W        W32806  19.622  13.830   3.342
67327W        W32807  28.607  14.806  14.016
67328W        W32808  36.381  14.763   1.213
67329W        W32809   4.822  10.146   0.270
67330W        W32810  38.036  26.562  12.871
67331W        W32811  43.019  36.515   3.856
67332W        W32812  44.949  17.674   0.871
67333W        W32813  23.223  18.104  13.970
67334W        W32814  26.567  24.973  11.023
67335W        W32815  27.065  19.253  13.461
67336W        W32816  44.465  32.620   3.189
67337W        W32817   1.368  40.352   0.828
67338W        W32818   3.323  25.515   1.358
67339W        W32819  27.130  44.754  13.501
67340W        W32820  27.015  40.887   0.354
67341W        W32821  40.441  37.999  12.514
67342W        W32822  28.608  22.633  10.640
67343W        W32823  28.023  42.779  13.933
67344W        W32824  17.719   5.347  12.538
67345W        W32825  28.972  33.609  10.594
67346W        W32826  13.236  10.758  11.122
67347W        W32827   8.303  44.935   0.361
67348W        W32828   4.925  14.246   1.742
67349W        W32829  11.179   2.896  10.888
67350W        W32830   4.348   1.264  13.415
67351W        W32831   7.363  43.306  10.546
67352W        W32832  43.503   7.268   3.253
67353W        W32833  28.143  25.992   0.744
67354W        W32834  14.686   0.299   2.724
67355W        W32835   3.856  39.516  11.487
67356W        W32836  22.010  13.662  10.896
67357W        W32837  12.724   3.772  11.903
67358W        W32838  12.811  41.432  12.406
67359W        W32839  13.222   5.199  14.436
67360W        W32840  40.005  18.577   0.873
67361W        W32841  21.587  36.933  11.424
67362W        W32842  37.035  23.221   4.126
67363W        W32843   8.861  43.839  10.456
67364W        W32844  23.492  36.499  12.975
67365W        W32845  28.676  37.909  13.937
67366W        W32846  38.532  33.096  14.516
67367W        W32847  17.264   3.361  14.466
67368W        W32848  26.142  30.159  13.437
67369W        W32849  23.126  44.830   0.902
67370W        W32850  30.632  33.544   0.868
67371W        W32851  36.888   0.431  11.431
67372W        W32852  34.583   2.317   3.863
67373W        W32853  31.465  31.462  14.280
67374W        W32854   0.262  20.586   0.816
67375W        W32855   5.406   3.241  11.877
67376W        W32856  31.483   1.400   4.227
67377W        W32857  40.048  16.114   3.256
67378W        W32858  24.986  25.192   2.239
67379W        W32859  17.201  14.760  14.455
67380W        W32860  18.067   4.317   4.744
67381W        W32861   0.819  18.267  14.876
67382W        W32862  40.865  37.877  10.488
67383W        W32863   6.288  32.599   4.824
67384W        W32864  23.709  44.828  13.971
67385W        W32865  27.664   0.754  11.081
67386W        W32866  36.479  32.422   1.927
67387W        W32867   8.697  16.624  10.006
67388W        W32868  15.256  32.947   3.863
67389W        W32869  29.461  10.274  14.278
67390W        W32870  15.121  42.316  13.425
67391W        W32871  21.153  23.227  12.899
67392W        W32872  21.736  22.694   4.621
67393W        W32873  39.404  35.541  14.792
67394W        W32874  12.694  14.770   2.194
67395W        W32875  34.080  26.015   3.194
67396W        W32876   0.746  19.713   2.770
67397W        W32877  41.528  29.162  11.129
67398W        W32878   7.854   4.302   2.705
67399W        W32879   0.800  37.510  11.023
67400W        W32880  13.611   9.697  14.478
67401W        W32881  11.710  11.761  11.930
67402W        W32882  26.678  31.523  12.972
67403W        W32883  40.509  27.098  11.530
67404W        W32884  25.479  16.143  12.075
67405W        W32885  30.425  14.679  13.965
67406W        W32886  32.438   1.888   1.319
67407W        W32887  10.341  43.997   0.394
67408W        W32888  17.634   4.778  12.547
67409W        W32889  17.195   5.255  12.505
67410W        W32890  15.308  16.801   3.177
67411W        W32891  11.131  21.707   4.704
67412W        W32892  26.143  17.090  13.823
67413W        W32893   5.315  37.539   0.396
67414W        W32894  29.974   6.195  12.071
67415W        W32895   9.751  14.334  11.100
67416W        W32896  44.293   5.286  12.988
67417W        W32897  33.607   1.365   3.263
67418W        W32898  29.030  43.307   4.651
67419W        W32899  41.478  42.295   4.332
67420W        W32900   4.935   7.266  14.386
67421W        W32901  38.820   7.276   1.228
67422W        W32902  44.991   2.746  13.509
67423W        W32903  26.484  25.079   1.719
67424W        W32904  32.921  20.089   0.276
67425W        W32905  29.073  16.757   4.198
67426W        W32906  39.934  25.564  10.938
67427W        W32907  11.731  38.038  14.799
67428W        W32908   3.872   9.354   0.355
67429W        W32909  27.949  35.358  12.003
67430W        W32910  39.399   8.180  12.964
67431W        W32911  20.114  27.585  12.451
67432W        W32912  37.551  14.257   2.783
67433W        W32913  22.163   3.342  12.851
67434W        W32914  34.120  44.392  12.017
67435W        W32915  30.090  21.567   0.302
67436W        W32916  18.203  13.696   1.809
67437W        W32917   7.872   6.883  14.967
67438W        W32918  23.016  11.829   3.220
67439W        W32919  27.081  44.806  11.375
67440W        W32920   8.183  22.125   4.203
67441W        W32921  34.436   2.763   4.704
67442W        W32922   7.288   4.316   0.328
67443W        W32923  29.570   1.381   2.286
67444W        W32924  44.489  44.375  12.579
67445W        W32925   6.226  42.442  10.573
67446W        W32926  36.962  31.107   0.366
67447W        W32927  16.218  44.763  10.895
67448W        W32928  18.214  20.082  14.863
67449W        W32929  27.489  31.027   3.741
67450W        W32930  34.113  19.556  11.376
67451W        W32931  17.664  11.843   0.833
67452W        W32932  43.433   1.347  12.032
67453W        W32933  19.043  21.619  11.019
67454W        W32934  32.484   9.371   2.871
67455W        W32935  44.956  27.641  10.584
67456W        W32936  30.611  10.737   1.798
67457W        W32937  37.066   0.324   2.718
67458W        W32938  18.157  11.664  14.896
67459W        W32939  39.450  40.500   1.850
67460W        W32940  26.122  34.962   3.310
67461W        W32941  37.863  32.567   0.344
67462W        W32942   5.698  43.414  14.303
67463W        W32943  39.927  41.817  13.322
67464W        W32944  23.659  17.169   2.877
67465W        W32945   7.291  27.023   4.304
67466W        W32946   6.336  26.078  12.563
67467W        W32947   4.911  41.514   5.172
67468W        W32948  34.050   8.359   3.273
67469W        W32949   9.854  16.663   4.338
67470W        W32950  21.043  17.137   2.375
67471W        W32951  30.985   6.857   4.664
67472W        W32952  20.621  27.606  14.344
67473W        W32953  36.886  34.866   0.445
67474W        W32954  25.691  16.166  11.024
67475W        W32955  43.952  10.829   2.213
67476W        W32956  44.799  39.555  14.450
67477W        W32957  20.742  39.558   0.799
67478W        W32958  29.514  22.598  14.299
67479W        W32959  18.592  35.580   3.329
67480W        W32960  26.964  44.807  10.586
67481W        W32961   3.270  24.992   2.852
67482W        W32962   8.716  29.117  13.334
67483W        W32963  32.449  20.569   3.371
67484W        W32964   8.249  35.967   2.680
67485W        W32965  29.133  22.054  10.614
67486W        W32966  18.643   8.769   1.772
67487W        W32967  33.436  27.547  11.926
67488W        W32968  26.467   8.353  12.997
67489W        W32969  15.802  28.046   2.710
67490W        W32970  17.115  19.175   2.683
67491W        W32971   8.738  41.909   3.244
67492W        W32972  14.758  44.375   0.284
67493W        W32973  22.704  44.293   3.159
67494W        W32974  12.698   6.789   0.441
67495W        W32975  31.604  12.799  14.902
67496W        W32976  42.392  25.128   1.807
67497W        W32977  20.735  34.026   4.150
67498W        W32978  18.235   0.900   2.899
67499W        W32979  12.612  14.793   0.953
67500W        W32980  23.190   2.926   1.773
67501W        W32981  34.938  36.058  10.087
67502W        W32982  11.226   2.802  12.384
67503W        W32983  39.946   6.811  11.434
67504W        W32984  19.146   1.283  13.499
67505W        W32985  32.442  18.694   0.261
67506W        W32986  13.615  20.766  14.967
67507W        W32987  37.483  33.428   3.196
67508W        W32988  20.265   7.903  11.597
67509W        W32989  17.676  13.612  11.881
67510W        W32990  33.496   9.831  11.550
67511W        W32991  28.160  19.075  11.466
67512W        W32992  44.460  31.019  11.589
67513W        W32993   4.416  42.947  13.892
67514W        W32994   0.888   8.859  12.868
67515W        W32995  19.185  43.871   3.762
67516W        W32996  19.748  16.238   4.615
67517W        W32997  12.740   7.183   3.689
67518W        W32998   6.911  41.842  12.860
67519W        W32999  24.547  34.433   4.745
67520W        W33000  41.027  22.126   4.354
67521W        W33001  43.427  15.810  12.847
67522W        W33002   0.268  11.282  11.509
67523W        W33003  15.671  15.621   0.816
67524W        W33004  31.020  18.129   0.243
67525W        W33005   4.375  18.166  12.479
67526W        W33006   8.400  29.580  10.966
67527W        W33007  15.315  11.172  11.127
67528W        W33008  17.713  31.039   2.732
67529W        W33009  38.865   5.275   5.281
67530W        W33010   7.262   5.905  13.998
67531W        W33011  14.651  10.770   3.839
67532W        W33012  43.406  41.374  10.421
67533W        W33013  20.746  14.681  13.331
67534W        W33014  39.528  19.618  12.493
67535W        W33015   2.777  13.652   2.199
67536W        W33016  28.071  20.079   0.269
67537W        W33017  44.865  36.866   4.605
67538W        W33018  14.209  34.022  12.967
67539W        W33019  14.741  34.560  14.513
67540W        W33020   9.155  43.855   3.342
67541W        W33021  31.950  39.551  14.820
67542W        W33022  37.393  31.572   0.333
67543W        W33023  17.794  21.217   3.815
67544W        W33024  29.529  39.006   2.663
67545W        W33025  30.116  43.954  14.447
67546W        W33026   5.299  19.260  14.470
67547W        W33027  35.441   1.936   1.369
67548W        W33028  31.077  21.651   0.425
67549W        W33029  13.834  24.619  11.013
67550W        W33030  28.120   1.352   2.663
67551W        W33031   2.766  13.321  14.807
67552W        W33032   5.882   6.184   3.211
67553W        W33033  44.979  18.169   2.270
67554W        W33034   5.794  12.830   4.812
67555W        W33035  34.005   8.675  14.515
67556W        W33036  15.149  15.274  11.123
67557W        W33037  41.445  10.273  11.915
67558W        W33038  36.952   3.285   2.790
67559W        W33039  19.653  33.616   4.203
67560W        W33040  40.948  39.435  12.024
67561W        W33041   7.745  19.629   2.231
67562W        W33042  38.506  20.602  11.945
67563W        W33043  43.496   6.830  12.910
67564W        W33044  11.237  15.288   2.857
67565W        W33045  42.502  36.485   0.449
67566W        W33046  15.157  18.583   3.267
67567W        W33047  30.098   2.259  11.995
67568W        W33048  32.494   3.331   2.376
67569W        W33049  22.673  29.091  10.547
67570W        W33050  38.893  20.153   3.246
67571W        W33051   3.874  19.706   1.810
67572W        W33052  35.988  34.924  10.636
67573W        W33053  16.603   8.761  11.592
67574W        W33054  28.607  19.661  14.840
67575W        W33055  42.417  20.100   0.730
67576W        W33056   3.881  42.319  10.925
67577W        W33057   8.872  19.690  12.075
67578W        W33058  39.535  36.022  14.499
67579W        W33059  17.715  38.473   0.354
67580W        W33060  41.297  42.872  13.457
67581W        W33061  24.645  16.774  14.355
67582W        W33062   1.264   5.371  11.578
67583W        W33063  14.107  35.518  14.285
67584W        W33064  34.431   7.896   1.401
67585W        W33065  17.097  16.170   3.762
67586W        W33066  40.993  38.550   4.617
67587W        W33067  19.694  24.724   3.834
67588W        W33068  36.542  24.122   3.716
67589W        W33069   6.803   0.430   1.867
67590W        W33070  17.167  25.191  12.340
67591W        W33071  15.641  35.916   3.373
67592W        W33072   2.443   1.393  10.426
67593W        W33073  17.674   0.982   1.853
67594W        W33074  12.331   7.280   0.837
67595W        W33075   5.699  23.182   2.383
67596W        W33076   7.711  35.004  14.938
67597W        W33077  40.498   3.244   1.878
67598W        W33078  10.229  26.099   0.961
67599W        W33079  33.449  32.945   0.359
67600W        W33080  28.518  25.581   2.902
67601W        W33081  13.141  11.186   1.699
67602W        W33082  11.153  23.195  13.334
67603W        W33083  44.355   9.693  11.067
67604W        W33084   8.289  17.212  14.399
67605W        W33085  38.006  32.524  14.392
67606W        W33086  24.207  10.754  14.397
67607W        W33087  41.484  22.725   0.817
67608W        W33088   2.332  39.453   1.333
67609W        W33089   3.416  15.224   1.316
67610W        W33090  24.000  37.067   1.786
67611W        W33091  20.761  39.816  13.506
67612W        W33092  26.507  28.055  14.922
67613W        W33093  10.833  38.416   2.195
67614W        W33094  30.157  36.004   4.803
67615W        W33095  41.361  11.713   2.694
67616W        W33096   3.811  27.612   2.183
67617W        W33097   1.442   7.349  13.887
67618W        W33098   9.881  28.671  10.617
67619W        W33099  28.931  28.931   2.778
67620W        W33100  15.621  23.169  10.136
67621W        W33101  21.590  24.699  12.054
67622W        W33102  23.688  24.502   4.207
67623W        W33103  28.657  12.734   5.117
67624W        W33104   8.245  35.017  11.020
67625W        W33105  17.662  13.344   4.292
67626W        W33106  30.933  29.642  14.816
67627W        W33107   5.837  20.125   4.683
67628W        W33108   6.384  26.583  13.922
67629W        W33109  15.732  14.303  13.474
67630W        W33110  43.811  17.090  11.899
67631W        W33111  28.557  14.132  10.974
67632W        W33112  34.481  26.663   4.175
67633W        W33113  42.434  37.923  11.042
67634W        W33114  28.451  22.719   1.884
67635W        W33115  26.167  20.167   3.660
67636W        W33116  30.594   9.850   4.137
67637W        W33117   4.209  15.303  10.930
67638W        W33118  12.829  12.623   4.115
67639W        W33119   9.225  38.438   1.223
67640W        W33120  11.275  28.465  14.287
67641W        W33121  37.891   2.266   1.879
67642W        W33122  24.052  23.568   4.770
67643W        W33123  24.015  21.121   3.801
67644W        W33124  39.354  37.544  11.607
67645W        W33125  41.397   9.395   1.727
67646W        W33126  19.643   2.805  14.368
67647W        W33127  22.681  41.964  13.876
67648W        W33128   4.786  11.267   3.766
67649W        W33129  25.134   7.383  12.046
67650W        W33130  12.273  13.280   3.714
67651W        W33131  26.077  20.161   1.897
67652W        W33132  22.128   4.224  11.096
67653W        W33133  26.542  34.375  13.414
67654W        W33134  27.131  37.509   4.304
67655W        W33135  33.419   9.692  14.475
67656W        W33136  18.284   4.893  13.380
67657W        W33137  22.687  35.092  13.998
67658W        W33138  23.670  23.124  10.456
67659W        W33139  20.592  33.912  11.581
67660W        W33140  44.910   4.219   0.468
67661W        W33141   1.461   0.348  14.769
67662W        W33142   3.390   9.652   3.340
67663W        W33143  36.396   6.900   0.341
67664W        W33144  39.049   5.853   4.179
67665W        W33145  26.663  33.889   2.212
67666W        W33146   4.826  20.577  10.644
67667W        W33147   0.345  21.023  12.891
67668W        W33148  43.020  25.077   4.171
67669W        W33149  12.290  39.431  11.034
67670W        W33150  26.595  29.143  12.845
67671W        W33151  41.447  17.773  13.903
67672W        W33152  39.957   6.789   2.312
67673W        W33153   5.377  31.918   1.794
67674W        W33154  31.574  35.448  12.554
67675W        W33155   3.773   9.201  10.606
67676W        W33156  19.248   6.695   1.903
67677W        W33157  30.491  38.861  11.971
67678W        W33158  11.234   6.358   2.196
67679W        W33159  36.507   2.892   4.210
67680W        W33160  10.685  22.125   0.263
67681W        W33161  11.864   5.837   2.219
67682W        W33162  31.596  17.649  13.952
67683W        W33163  14.742  24.147   3.222
67684W        W33164  31.994  29.090  12.078
67685W        W33165   5.710  15.803  11.374
67686W        W33166  23.580  38.902   1.827
67687W        W33167  35.984  38.931  10.933
67688W        W33168   2.919  19.082   4.657
67689W        W33169   5.777  44.945   4.697
67690W        W33170  40.536   5.251  13.981
67691W        W33171  40.010  40.978  11.118
67692W        W33172  37.579   6.741  14.981
67693W        W33173  32.983  41.866  12.566
67694W        W33174   5.878   4.244   3.701
67695W        W33175   0.407   5.778  13.332
67696W        W33176  32.567  36.090   2.787
67697W        W33177   5.356   5.808   1.732
67698W        W33178  36.388  30.527   3.355
67699W        W33179  39.847   9.771  13.484
67700W        W33180  32.514  26.107   3.774
67701W        W33181  19.688  25.136  10.990
67702W        W33182  11.721  25.541   4.353
67703W        W33183  27.034  11.223  12.497
67704W        W33184  40.823  12.193   3.720
67705W        W33185  22.502  42.296  10.530
67706W        W33186  13.800   0.923   2.891
67707W        W33187  16.170  26.562  13.317
67708W        W33188  35.545  20.101  13.858
67709W        W33189  34.594  17.298  11.478
67710W        W33190   3.953  39.878  13.400
67711W        W33191  35.910   7.756  14.427
67712W        W33192  21.079  32.592  10.531
67713W        W33193  30.596  31.544  11.508
67714W        W33194  44.318   5.740  10.603
67715W        W33195  23.686  13.652   3.222
67716W        W33196   4.773  41.455   3.816
67717W        W33197  42.780   0.761   3.151
67718W        W33198  36.981  28.630   3.175
67719W        W33199  40.432  28.027  11.030
67720W        W33200  31.029  29.931   3.761
67721W        W33201   6.779  42.427  14.307
67722W        W33202   3.713  28.585  11.020
67723W        W33203  18.624  40.448   5.121
67724W        W33204   7.274  26.535   2.415
67725W        W33205  21.678  26.001   1.718
67726W        W33206  33.907  21.550   2.241
67727W        W33207   4.376  27.162   1.835
67728W        W33208   7.810  22.708  14.993
67729W        W33209  39.984   5.439   0.875
67730W        W33210   6.746  24.656   1.317
67731W        W33211  24.506  30.548  10.548
67732W        W33212  13.140  29.540   0.425
67733W        W33213  24.621   7.412  13.792
67734W        W33214   6.292   7.414   9.932
67735W        W33215   5.279  13.227   1.372
67736W        W33216  24.642  37.921   4.801
67737W        W33217  42.952   5.293   2.206
67738W        W33218  41.890   4.907   2.695
67739W        W33219  24.523  11.230   0.925
67740W        W33220  33.889   8.266   4.650
67741W        W33221  41.953   2.295   2.206
67742W        W33222  43.886  36.045   1.224
67743W        W33223   1.336  17.684  10.976
67744W        W33224   9.200  30.077  12.869
67745W        W33225  44.875  28.949  12.579
67746W        W33226  44.821  32.527   2.763
67747W        W33227  22.600  30.456  14.024
67748W        W33228   1.806  35.893  13.531
67749W        W33229  31.899   0.886  11.887
67750W        W33230   3.452  11.203   0.390
67751W        W33231  24.614  10.150   0.427
67752W        W33232  17.295   3.814   4.144
67753W        W33233  42.435  19.704  14.503
67754W        W33234  40.338  41.321   2.386
67755W        W33235  30.051  37.537  13.386
67756W        W33236  41.851  36.507  11.476
67757W        W33237  39.019   1.297  11.447
67758W        W33238  10.704   7.287   4.216
67759W        W33239   3.782  12.638  12.576
67760W        W33240  18.764  41.394   3.857
67761W        W33241   2.900  12.689   1.309
67762W        W33242  36.412   7.337   0.290
67763W        W33243  26.637  15.151   3.186
67764W        W33244  41.536  10.652  13.403
67765W        W33245  25.477  35.527  12.905
67766W        W33246  44.276  19.736   3.219
67767W        W33247   5.429  31.141   4.268
67768W        W33248   6.428  39.439  10.960
67769W        W33249  26.103  32.582  10.640
67770W        W33250  22.531  35.933  11.081
67771W        W33251  29.668  10.153  14.977
67772W        W33252  12.275   7.362   1.251
67773W        W33253   4.930  21.582  11.434
67774W        W33254   2.336  27.960  14.276
67775W        W33255  33.448  41.919   1.819
67776W        W33256  10.359   4.730  12.089
67777W        W33257  20.555   3.871  10.888
67778W        W33258  30.992   6.286  14.862
67779W        W33259  36.459  40.893  14.316
67780W        W33260  44.390   3.809   2.775
67781W        W33261  17.560  13.197  13.892
67782W        W33262  36.073  44.328   1.774
67783W        W33263  25.658  30.923   3.337
67784W        W33264  20.097  43.991   3.264
67785W        W33265  31.114  37.561  13.933
67786W        W33266  34.556  39.544   0.458
67787W        W33267  21.707  16.108  12.998
67788W        W33268  32.979  43.811   4.330
67789W        W33269  17.636  14.137   9.954
67790W        W33270  25.689  32.557  11.940
67791W        W33271  33.084  26.575  12.920
67792W        W33272  23.040  38.915   0.769
67793W        W33273   7.366  10.299   0.917
67794W        W33274   4.251  12.679  13.827
67795W        W33275   3.865  19.105  12.503
67796W        W33276  20.038  38.982   1.855
67797W        W33277  32.942   9.747   3.649
67798W        W33278  26.142  28.477   2.882
67799W        W33279  29.158  15.756  13.018
67800W        W33280  31.561  18.765   4.324
67801W        W33281  24.708  34.064  14.436
67802W        W33282  37.524  31.635   2.833
67803W        W33283  40.998  41.854  12.375
67804W        W33284  40.044   0.958  14.415
67805W        W33285  15.317  28.654   0.758
67806W        W33286   8.359  23.573   3.146
67807W        W33287  17.152  25.139  11.902
67808W        W33288   3.459  12.346  13.437
67809W        W33289  12.199  44.287  13.495
67810W        W33290  14.833  42.983   0.440
67811W        W33291  36.509  36.870  14.366
67812W        W33292  41.341  33.412   3.832
67813W        W33293  31.432  34.962   3.748
67814W        W33294  36.541   6.732  12.910
67815W        W33295  19.715   1.278  10.583
67816W        W33296  38.026  14.832   3.800
67817W        W33297   3.426  32.633  11.018
67818W        W33298  30.990   7.415  11.511
67819W        W33299   8.207  41.895   0.754
67820W        W33300  33.457   5.389   4.633
67821W        W33301  37.880   0.825  12.980
67822W        W33302  28.960  12.138   0.904
67823W        W33303  35.871  19.238   4.766
67824W        W33304  21.100   4.438  10.025
67825W        W33305  28.976  25.016   4.767
67826W        W33306  11.646  33.066   3.680
67827W        W33307   5.902  26.520   2.264
67828W        W33308  37.347  36.568   4.279
67829W        W33309   3.286   4.907  10.604
67830W        W33310  14.274   0.822   4.115
67831W        W33311  29.055  43.409  14.417
67832W        W33312  27.628  15.261   1.872
67833W        W33313   9.203  30.002  11.413
67834W        W33314  34.933  39.958   0.956
67835W        W33315   3.285  36.976  10.432
67836W        W33316  43.302  32.504   1.316
67837W        W33317  22.058  24.553  13.812
67838W        W33318  19.124  39.435   4.744
67839W        W33319  37.882   2.819  14.904
67840W        W33320  38.354  19.111  12.046
67841W        W33321   2.745  31.929  10.008
67842W        W33322  42.379  14.649   4.625
67843W        W33323   0.843   2.892  11.932
67844W        W33324   2.384  33.973   1.867
67845W        W33325   7.707  30.965   1.791
67846W        W33326  29.602  27.489   1.830
67847W        W33327  15.649   3.249  10.994
67848W        W33328  16.134   0.914  13.528
67849W        W33329  18.064   7.764  11.114
67850W        W33330  39.832  36.375   3.795
67851W        W33331  22.087  20.743   1.872
67852W        W33332  14.691  31.118   3.383
67853W        W33333  40.549  29.617  13.056
67854W        W33334  43.019  17.117   0.916
67855W        W33335  28.055  30.035  14.479
67856W        W33336  30.937  20.031  12.366
67857W        W33337  25.044  28.629   4.622
67858W        W33338  26.551  34.602   2.190
67859W        W33339  13.177  35.487   2.373
67860W        W33340  38.876  17.682  14.322
67861W        W33341  41.414  38.031  10.977
67862W        W33342  13.114  14.157  14.361
67863W        W33343  44.987   3.773  12.938
67864W        W33344  11.709  26.022   0.761
67865W        W33345  11.810  28.546  12.560
67866W        W33346   5.828  25.217   3.849
67867W        W33347  23.091   4.362  13.998
67868W        W33348  34.991  18.604  13.808
67869W        W33349  30.639  14.813  10.518
67870W        W33350  15.737   3.831  11.039
67871W        W33351  29.974   1.426  10.590
67872W        W33352   2.354  42.501   3.218
67873W        W33353  44.899  21.593  12.031
67874W        W33354  16.299  12.764   3.283
67875W        W33355   6.792  42.427   0.805
67876W        W33356  38.991   8.665   0.960
67877W        W33357  25.515   7.675   2.782
67878W        W33358   2.742  35.996  13.042
67879W        W33359  38.384   2.836  14.780
67880W        W33360  31.406  25.613  14.393
67881W        W33361  44.776  32.086  11.501
67882W        W33362  39.416  11.222   0.958
67883W        W33363  27.672  35.372  14.774
67884W        W33364  15.582  37.018   2.799
67885W        W33365  39.316  39.523  12.892
67886W        W33366  27.628  21.247  10.412
67887W        W33367   7.346  16.268  12.022
67888W        W33368  38.475  36.514   4.835
67889W        W33369  44.931  22.733   4.271
67890W        W33370  34.921  43.302  12.429
67891W        W33371   0.749   8.655  14.286
67892W        W33372  25.599  37.457   5.317
67893W        W33373  35.559  15.625   4.230
67894W        W33374   8.220  10.273   2.733
67895W        W33375  41.847  32.512  11.531
67896W        W33376   0.958  30.588   2.685
67897W        W33377  16.077  27.584   3.777
67898W        W33378  15.681  12.152   4.270
67899W        W33379  10.852  26.519   3.213
67900W        W33380  40.317  20.035   1.366
67901W        W33381   3.416  31.518  11.427
67902W        W33382  37.385  24.646   2.704
67903W        W33383  32.993  43.446  14.445
67904W        W33384  29.451  32.560  13.418
67905W        W33385  19.597  24.620  11.484
67906W        W33386  22.208  24.986  10.594
67907W        W33387   2.403   7.288   3.740
67908W        W33388  18.676  19.110   4.698
67909W        W33389  21.131  36.548   0.432
67910W        W33390  21.095  30.618   2.329
67911W        W33391  20.640  32.000   3.835
67912W        W33392  16.241  31.637  10.603
67913W        W33393  10.646   3.365  13.041
67914W        W33394   4.325  23.679   0.864
67915W        W33395   0.779   5.225   0.814
67916W        W33396  35.592  11.793  12.340
67917W        W33397  42.973  19.088  14.768
67918W        W33398   3.733  24.046  13.036
67919W        W33399  35.064  17.780   3.271
67920W        W33400   9.687   4.939  14.021
67921W        W33401  19.672  25.064   4.251
67922W        W33402   3.360  39.998  12.558
67923W        W33403  21.638   9.192   0.243
67924W        W33404  29.001  44.961   0.772
67925W        W33405  22.176  41.911   0.919
67926W        W33406  19.039  26.668   1.355
67927W        W33407  21.586  41.376   3.295
67928W        W33408  20.628  39.423   4.632
67929W        W33409  13.725  41.845   3.705
67930W        W33410  41.876  25.102   2.695
67931W        W33411  20.070  27.597  10.480
67932W        W33412  30.434  16.689  14.937
67933W        W33413   7.889  17.226   3.325
67934W        W33414   6.223  31.974  10.906
67935W        W33415  18.291  14.222   4.328
67936W        W33416  39.357  39.926  11.096
67937W        W33417  34.888  18.269   0.775
67938W        W33418  15.314  11.222  14.403
67939W        W33419  15.305  38.873  12.553
67940W        W33420   2.761  42.300  11.909
67941W        W33421  40.308  31.589   4.641
67942W        W33422  23.009  38.425   0.877
67943W        W33423  24.215  39.940  13.828
67944W        W33424   9.828   7.731   4.805
67945W        W33425  38.434  19.173   5.743
67946W        W33426  18.179  44.977   2.266
67947W        W33427   8.839   0.800   1.405
67948W        W33428  35.933   6.726   2.804
67949W        W33429  12.217  22.207   2.900
67950W        W33430  23.207   5.694  13.800
67951W        W33431   5.216   1.337   1.385
67952W        W33432   6.356  44.426   3.693
67953W        W33433  16.758  33.595   9.512
67954W        W33434  14.099  13.160  10.105
67955W        W33435  17.121  20.658  12.486
67956W        W33436  43.911  13.117  13.311
67957W        W33437  10.762  38.040  13.916
67958W        W33438   6.310  35.931  12.844
67959W        W33439   9.677  35.368   1.342
67960W        W33440  27.034  34.049   3.270
67961W        W33441  18.685  40.490  11.388
67962W        W33442  39.317   2.378   0.881
67963W        W33443  16.178  24.118  11.885
67964W        W33444   9.277  11.263   4.813
67965W        W33445   8.836  16.673   3.361
67966W        W33446  43.498  31.437  11.986
67967W        W33447  23.066   1.423  14.795
67968W        W33448  32.977  25.169   0.761
67969W        W33449  43.280  42.834   2.211
67970W        W33450   4.256   3.813   2.215
67971W        W33451  39.930  21.044  13.339
67972W        W33452  19.174  29.019   1.369
67973W        W33453  24.650  33.411  14.361
67974W        W33454   2.326   7.807  14.989
67975W        W33455  25.089  20.054  13.955
67976W        W33456   2.403  31.507  11.094
67977W        W33457   9.211   9.855  12.573
67978W        W33458  34.370  19.151   2.726
67979W        W33459  22.597  38.023  13.878
67980W        W33460   3.335   8.661  12.406
67981W        W33461  35.491   1.463  11.053
67982W        W33462  41.317  13.294  11.867
67983W        W33463  13.705  15.209   1.338
67984W        W33464  31.516  19.194  10.556
67985W        W33465  25.616  29.023  12.023
67986W        W33466  29.096  38.906  11.050
67987W        W33467  19.533  31.905  11.560
67988W        W33468  39.931  36.438  13.423
67989W        W33469  18.690  12.614   2.317
67990W        W33470  39.419   4.865   0.245
67991W        W33471  41.299  29.983  13.016
67992W        W33472  40.852  20.660   1.299
67993W        W33473  19.219   4.808  13.341
67994W        W33474   3.930  23.083  13.456
67995W        W33475  41.892  25.112  13.530
67996W        W33476  21.035  40.455  14.767
67997W        W33477  36.536  15.319  11.387
67998W        W33478   9.336  29.939   2.290
67999W        W33479  40.799  43.444  13.824
68000W        W33480  34.078  39.044   3.268
68001W        W33481  44.332  24.651   2.419
68002W        W33482  31.641  37.009   4.742
68003W        W33483  28.071   7.390   0.439
68004W        W33484   3.251   9.861  13.822
68005W        W33485  24.653  20.600  14.332
68006W        W33486  43.019  24.645   2.782
68007W        W33487  42.447  33.900  11.439
68008W        W33488  28.674  15.791   2.813
68009W        W33489  20.034  34.041   0.270
68010W        W33490   0.441  25.041  10.986
68011W        W33491  20.077  20.533   0.772
68012W        W33492  43.391  13.229   2.897
68013W        W33493  27.185   5.722   2.381
68014W        W33494  41.924  13.158   0.886
68015W        W33495  43.825   5.270  12.509
68016W        W33496  11.795  44.473   0.888
68017W        W33497  16.293  14.648  14.498
68018W        W33498  38.458  21.166   1.709
68019W        W33499  37.917  17.296  11.052
68020W        W33500  15.099  16.312   5.787
68021W        W33501  40.871  36.091   2.318
68022W        W33502  22.034  24.011  11.581
68023W        W33503  33.994  40.041   4.293
68024W        W33504  12.815   2.465  10.566
68025W        W33505   5.724  15.688   4.157
68026W        W33506  27.111  35.366   1.935
68027W        W33507  27.496  31.064   3.367
68028W        W33508   3.873  44.809  13.404
68029W        W33509  39.910  22.069   3.271
68030W        W33510  32.499  16.257  11.905
68031W        W33511  31.417  16.296   0.817
68032W        W33512  36.080  39.936   2.381
68033W        W33513  25.147  40.848  12.875
68034W        W33514  31.969  18.544  14.376
68035W        W33515  42.895  23.502  12.854
68036W        W33516   2.906  38.442  12.514
68037W        W33517   3.919  41.490   1.313
68038W        W33518  26.118  27.104  13.400
68039W        W33519   4.767  15.271   9.995
68040W        W33520  29.098  18.647  11.045
68041W        W33521  25.208  21.604   1.812
68042W        W33522  18.295  41.338  13.509
68043W        W33523  22.621  23.053   0.797
68044W        W33524  13.688   1.948   1.779
68045W        W33525   7.752   4.897  13.356
68046W        W33526  16.747  41.371  14.398
68047W        W33527  31.518  30.001   4.129
68048W        W33528   2.421  30.635  11.858
68049W        W33529   3.893  41.033  11.525
68050W        W33530  18.692  21.239  11.903
68051W        W33531  32.427   0.931  12.496
68052W        W33532   1.959  15.813   4.726
68053W        W33533   1.760  21.752  13.956
68054W        W33534   9.645  41.459   2.356
68055W        W33535  43.810  13.843   3.775
68056W        W33536   7.254  30.639   2.826
68057W        W33537  12.718  28.547  13.540
68058W        W33538  26.639  43.507   1.793
68059W        W33539   9.838   1.409  14.808
68060W        W33540   4.298  37.974  14.772
68061W        W33541  17.140  10.641   3.819
68062W        W33542   5.782   3.899  12.023
68063W        W33543  10.269  19.245  14.935
68064W        W33544  20.148  21.575   4.172
68065W        W33545  27.169  40.050   3.167
68066W        W33546   1.861  42.459   1.345
68067W        W33547   8.840  21.194   5.086
68068W        W33548   7.261  34.025  13.959
68069W        W33549  26.091  27.565  14.807
68070W        W33550  36.900  32.593   1.707
68071W        W33551  17.304  14.667   4.283
68072W        W33552  28.001  20.746  13.858
68073W        W33553  11.302  13.125   1.418
68074W        W33554  38.981  31.499   4.741
68075W        W33555  11.316   1.261   0.738
68076W        W33556  22.105  38.478   1.809
68077W        W33557  33.622  24.106   4.268
68078W        W33558  22.160  23.130  12.482
68079W        W33559  29.640  18.100   4.137
68080W        W33560  14.178  15.816  12.844
68081W        W33561  11.134  39.344   1.358
68082W        W33562  32.050  18.704   4.728
68083W        W33563  26.525  37.368   3.179
68084W        W33564  10.730  44.274  12.952
68085W        W33565   0.777  18.165   3.324
68086W        W33566  37.429  30.607  12.944
68087W        W33567  44.379  41.023   3.836
68088W        W33568  13.145   5.694   0.849
68089W        W33569  44.262  19.164   9.984
68090W        W33570  28.554  18.709   0.250
68091W        W33571   7.259   2.930  12.521
68092W        W33572  38.341  24.624  14.964
68093W        W33573  37.467  11.159   1.776
68094W        W33574  13.690  39.845  13.880
68095W        W33575  22.198  37.579   1.727
68096W        W33576  42.427  37.998   4.162
68097W        W33577  31.912   7.818  13.828
68098W        W33578  44.385   9.191  14.402
68099W        W33579  20.068  34.420   0.881
68100W        W33580  13.284  25.525  14.861
68101W        W33581  36.017   6.727  13.904
68102W        W33582   4.366   0.316  11.115
68103W        W33583  14.617  39.003  13.904
68104W        W33584  19.208  16.595   4.117
68105W        W33585   7.787   7.712  12.354
68106W        W33586   6.868  31.535  10.425
68107W        W33587  32.610  14.189  13.961
68108W        W33588   4.933   1.828  10.923
68109W        W33589  29.173  24.707  12.349
68110W        W33590  41.815  19.147   2.832
68111W        W33591  29.661  32.524  14.841
68112W        W33592  13.351   1.307  13.530
68113W        W33593  17.608  36.565   0.741
68114W        W33594  28.512  13.643  12.877
68115W        W33595  31.114   3.808  11.937
68116W        W33596  35.071  28.070  14.822
68117W        W33597  25.024  14.687   3.243
68118W        W33598   5.338   0.344  13.413
68119W        W33599  22.213   9.391   9.612
68120W        W33600  28.144  14.294   0.748
68121W        W33601  42.878  36.890   4.141
68122W        W33602  12.282  40.334   4.611
68123W        W33603  22.639   3.301  10.929
68124W        W33604  24.094  41.802   0.735
68125W        W33605   3.330  39.560  12.570
68126W        W33606  41.310  38.906   2.877
68127W        W33607  18.260   9.197   2.790
68128W        W33608   2.832  37.943  12.863
68129W        W33609  44.464  44.892   0.915
68130W        W33610   9.277   6.427  11.922
68131W        W33611  17.649   8.757   1.391
68132W        W33612   8.231  12.624  14.021
68133W        W33613  30.992  20.095   3.784
68134W        W33614  24.163  11.751  14.780
68135W        W33615  24.481   5.814   2.860
68136W        W33616  32.919   6.353  13.916
68137W        W33617  23.687  19.077   1.442
68138W        W33618  33.434   5.305  12.468
68139W        W33619  33.960  23.639   1.854
68140W        W33620  38.447  14.302  14.841
68141W        W33621  22.686  44.441   1.931
68142W        W33622  18.757  32.926  10.612
68143W        W33623  19.248  20.611   4.608
68144W        W33624   8.677  18.231  10.643
68145W        W33625  20.667  30.502  13.521
68146W        W33626   7.190  38.571  12.000
68147W        W33627  41.373   3.400  12.345
68148W        W33628  22.595   9.834  11.093
68149W        W33629  40.036  10.747  14.873
68150W        W33630  31.403  43.481  14.290
68151W        W33631  13.342  42.929   0.392
68152W        W33632  20.702  22.693   4.204
68153W        W33633  16.737   3.439  10.584
68154W        W33634  31.123  29.568   3.719
68155W        W33635  41.433   4.211  12.013
68156W        W33636  39.021  25.140   4.806
68157W        W33637   4.806  42.841  14.837
68158W        W33638  23.516   8.853  14.890
68159W        W33639  37.050   5.388  12.449
68160W        W33640  32.629  29.440  12.487
68161W        W33641   2.289  15.198   4.204
68162W        W33642  30.136  20.060   2.410
68163W        W33643   7.689  36.882   1.262
68164W        W33644  16.652  36.920  14.989
68165W        W33645  25.060   8.274   4.275
68166W        W33646  15.126  32.042  12.559
68167W        W33647  27.490  14.782  12.415
68168W        W33648  26.145  35.014   4.179
68169W        W33649   4.906  18.217  11.431
68170W        W33650  23.191  40.344  13.940
68171W        W33651  36.095  37.541  10.604
68172W        W33652   7.897   4.734  14.412
68173W        W33653  12.738  29.616  14.007
68174W        W33654  13.750  27.125   4.830
68175W        W33655  41.905  14.828  12.834
68176W        W33656  26.550  44.906  13.507
68177W        W33657  23.164  10.864   2.834
68178W        W33658  24.029  34.456  12.085
68179W        W33659  15.764   0.925  14.782
68180W        W33660  44.863   8.664  12.085
68181W        W33661  42.436  30.034   4.733
68182W        W33662  15.136  40.024   3.155
68183W        W33663  25.555   5.857  10.611
68184W        W33664  23.006   8.215   3.686
68185W        W33665   2.939  19.673   3.641
68186W        W33666  16.161   0.899   2.382
68187W        W33667  17.594   8.169   2.783
68188W        W33668  11.315  27.010   2.712
68189W        W33669  18.546  38.055  12.059
68190W        W33670  25.689  34.951   0.782
68191W        W33671  14.792   8.667  12.038
68192W        W33672  29.492  29.118   3.757
68193W        W33673  36.447  10.371  12.407
68194W        W33674  12.684  44.756  11.411
68195W        W33675  15.743  10.862  12.460
68196W        W33676  35.580  44.972   1.274
68197W        W33677  29.430   5.324   3.322
68198W        W33678  22.097  36.589   3.327
68199W        W33679  26.114   3.424   4.746
68200W        W33680   8.829  25.612   5.238
68201W        W33681  27.476   4.310  14.989
68202W        W33682  29.964   8.308  11.550
68203W        W33683  15.789  39.395   4.206
68204W        W33684  21.719  18.132   0.729
68205W        W33685  41.384  39.870  11.934
68206W        W33686  39.533  11.665   0.878
68207W        W33687  20.752  32.105   1.264
68208W        W33688   6.834  37.356  13.307
68209W        W33689   3.372  35.943  10.944
68210W        W33690  32.413  26.553   2.847
68211W        W33691   5.771   3.907   4.191
68212W        W33692  10.305   2.434  13.986
68213W        W33693   1.383  19.764   1.819
68214W        W33694  27.541  36.841  10.511
68215W        W33695  27.067  19.575   3.776
68216W        W33696   3.919   5.803  13.882
68217W        W33697  32.518  15.732   2.323
68218W        W33698  29.004   1.409  12.863
68219W        W33699  38.830  33.949   0.289
68220W        W33700  36.461   4.852  10.020
68221W        W33701  19.165  13.220  10.944
68222W        W33702  42.893  20.644   2.279
68223W        W33703  40.965  33.957   2.709
68224W        W33704  32.123  29.646   4.237
68225W        W33705   8.214  30.100  11.100
68226W        W33706  24.088  12.227  10.913
68227W        W33707  29.147  38.551  14.327
68228W        W33708  27.002  26.002  13.474
68229W        W33709  43.355  10.763  11.562
68230W        W33710  41.797  16.216   0.423
68231W        W33711  39.320   1.831  11.504
68232W        W33712  18.553  13.301  11.035
68233W        W33713  40.490  39.002   1.219
68234W        W33714  35.589  33.906  13.345
68235W        W33715   1.271  40.970   4.765
68236W        W33716  13.604  10.632  13.887
68237W        W33717  13.251   1.402   1.368
68238W        W33718  32.098  30.129  11.914
68239W        W33719  20.188  23.052  12.017
68240W        W33720   7.175  14.816  11.943
68241W        W33721   9.314  32.904  13.873
68242W        W33722  36.396  24.617  12.392
68243W        W33723  41.476  14.703   0.367
68244W        W33724  36.404   3.314  11.415
68245W        W33725  30.930   7.194  10.581
68246W        W33726  37.886  10.357   2.258
68247W        W33727   3.357  38.405   0.436
68248W        W33728  30.477   9.162   0.270
68249W        W33729  12.836   5.325  10.978
68250W        W33730  17.779   2.753   3.846
68251W        W33731  24.508  14.279  13.498
68252W        W33732  37.934  40.381   3.162
68253W        W33733  14.732  40.415   2.356
68254W        W33734   4.756  32.530  14.501
68255W        W33735  10.366  29.560  14.809
68256W        W33736  31.587  39.353  11.474
68257W        W33737  13.203  43.004  12.936
68258W        W33738  28.470  40.897   2.841
68259W        W33739  26.620   4.706   0.902
68260W        W33740  28.958  37.503  11.048
68261W        W33741  20.531   9.320  12.522
68262W        W33742  17.780  10.789  12.015
68263W        W33743   9.783  29.960   1.748
68264W        W33744  35.878  14.176   3.228
68265W        W33745  22.611   4.345  11.101
68266W        W33746  38.935  14.292   4.212
68267W        W33747  12.788  17.102   2.365
68268W        W33748  18.745  15.718  13.502
68269W        W33749  44.386  41.826   3.298
68270W        W33750  21.211  33.453   4.652
68271W        W33751  29.066  27.627   3.864
68272W        W33752  29.134  41.313   0.784
68273W        W33753  11.328  25.523   0.836
68274W        W33754  27.500  33.087  13.053
68275W        W33755  42.306  35.603   0.875
68276W        W33756  33.473  38.049   1.314
68277W        W33757   3.801  16.622  10.414
68278W        W33758  35.447   2.242   3.841
68279W        W33759  43.892   9.393   1.401
68280W        W33760  38.073  12.121  14.985
68281W        W33761  20.047  38.967   0.861
68282W        W33762  19.707  17.731   1.261
68283W        W33763   5.820  17.715   1.279
68284W        W33764  43.813   5.882   5.291
68285W        W33765  37.416  35.050  10.421
68286W        W33766  38.363  32.573  10.641
68287W        W33767   9.746   4.770   1.816
68288W        W33768  22.207  35.013  14.477
68289W        W33769  36.563  35.373  11.945
68290W        W33770  10.634  36.096  11.417
68291W        W33771  21.631  20.198   2.679
68292W        W33772  19.085  33.011   3.828
68293W        W33773   3.321   5.342  13.938
68294W        W33774  21.022  30.068  11.126
68295W        W33775  32.005  31.929  12.054
68296W        W33776  40.879  24.598  14.292
68297W        W33777  25.178  38.396  12.535
68298W        W33778  35.496   0.914   3.312
68299W        W33779  18.670  27.635   4.780
68300W        W33780   7.384  44.442  14.453
68301W        W33781  38.341   9.787  11.026
68302W        W33782  29.034  18.776  12.827
68303W        W33783  16.634  25.564   2.234
68304W        W33784  13.174   2.243  13.359
68305W        W33785  29.065  40.359   2.783
68306W        W33786  41.385  29.955   2.668
68307W        W33787   2.955  24.508   2.816
68308W        W33788  41.407  18.559   3.287
68309W        W33789  25.477  14.112   0.751
68310W        W33790  29.015  23.050  14.021
68311W        W33791  41.802  39.923   4.628
68312W        W33792  30.497   4.229  14.290
68313W        W33793  16.119  28.442  12.878
68314W        W33794   4.309   6.266   3.382
68315W        W33795  26.498  33.978   4.597
68316W        W33796   7.748  30.974  14.421
68317W        W33797   6.912  33.024   1.932
68318W        W33798  34.893  19.621  14.378
68319W        W33799  44.947   2.961  14.279
68320W        W33800   9.356  12.707  12.997
68321W        W33801  15.263   4.797   0.803
68322W        W33802   8.286  43.779  13.015
68323W        W33803  41.857  12.230   2.391
68324W        W33804  20.747  40.016  12.906
68325W        W33805  26.115  15.822   0.282
68326W        W33806  11.816  41.909  13.932
68327W        W33807  24.659  34.457  13.965
68328W        W33808   7.826  15.259  10.632
68329W        W33809  43.384   5.240  13.030
68330W        W33810   7.179   3.222  12.832
68331W        W33811  34.865  29.937  13.862
68332W        W33812  29.655  11.768   5.299
68333W        W33813  17.109  42.022  12.354
68334W        W33814  20.224  10.336   3.816
68335W        W33815   0.264   5.388  11.564
68336W        W33816  17.699   9.321   4.243
68337W        W33817  32.424  11.728  10.574
68338W        W33818   2.754  32.078   4.702
68339W        W33819  30.029  15.642  10.962
68340W        W33820  36.540  43.445   2.282
68341W        W33821  13.294  26.985  12.428
68342W        W33822  14.800  44.417  14.789
68343W        W33823  20.621  17.587  10.530
68344W        W33824  42.956  42.917  12.058
68345W        W33825  23.600  41.348   4.614
68346W        W33826  29.510  28.176  11.067
68347W        W33827  28.984   1.404  13.403
68348W        W33828  25.177  23.582  13.909
68349W        W33829  42.837  13.726   2.290
68350W        W33830  35.581   8.260   4.204
68351W        W33831  12.839  28.672  12.867
68352W        W33832  27.661  28.163  11.377
68353W        W33833  15.596  39.828   3.288
68354W        W33834  10.289  16.639   0.461
68355W        W33835  26.196  12.678   1.276
68356W        W33836  19.578  30.471  14.910
68357W        W33837   6.260  13.173  12.082
68358W        W33838  17.611  21.705   4.777
68359W        W33839   4.898  14.190  12.861
68360W        W33840  11.840  39.906  13.831
68361W        W33841   7.307  14.130   0.330
68362W        W33842  35.501  14.651  14.276
68363W        W33843  41.926  11.310  13.433
68364W        W33844   5.420  37.401  13.867
68365W        W33845  17.181  33.903   0.791
68366W        W33846  26.057  28.008   4.705
68367W        W33847  22.576  14.106   4.296
68368W        W33848   0.842  24.630   4.789
68369W        W33849  21.100  26.202  14.906
68370W        W33850  44.445  29.433   1.348
68371W        W33851   7.389  39.314  10.635
68372W        W33852  21.523  13.306   1.395
68373W        W33853  30.485  33.403   3.866
68374W        W33854  15.666  13.255  13.831
68375W        W33855  43.277  13.782  12.461
68376W        W33856  25.007   1.902  14.830
68377W        W33857  32.613  10.377  14.774
68378W        W33858  43.417  42.400  12.509
68379W        W33859  41.373   8.738   0.801
68380W        W33860  14.168  30.119   1.233
68381W        W33861  14.760  12.176  12.982
68382W        W33862  44.323  43.506  12.034
68383W        W33863  35.005   6.269   4.261
68384W        W33864  27.944   9.327   4.809
68385W        W33865  39.560  26.183  10.444
68386W        W33866  36.422  16.282  13.981
68387W        W33867  28.987  36.531  12.389
68388W        W33868  33.042  23.078  12.859
68389W        W33869   3.335   6.781  14.965
68390W        W33870  32.606  18.754  13.531
68391W        W33871  32.570  38.940  11.105
68392W        W33872   4.866  18.583  12.436
68393W        W33873  36.065   0.880   2.816
68394W        W33874  28.550  32.107  14.297
68395W        W33875  30.631   3.279  13.545
68396W        W33876  33.981   2.329  14.452
68397W        W33877  22.510  44.992   4.256
68398W        W33878   6.703  34.511   3.840
68399W        W33879  18.675   6.419  12.091
68400W        W33880  36.459  15.638   4.145
68401W        W33881  12.126  25.512   4.652
68402W        W33882   7.800  26.565   3.673
68403W        W33883   5.330  38.490  14.302
68404W        W33884  15.769  36.383  11.126
68405W        W33885  38.844  28.500   0.282
68406W        W33886  24.615  12.673  14.368
68407W        W33887  35.445   2.813   1.752
68408W        W33888  11.198  40.325   4.181
68409W        W33889  14.136  34.463   1.912
68410W        W33890   0.452  13.130   0.850
68411W        W33891  31.917  32.974   2.311
68412W        W33892  13.243  38.456  10.575
68413W        W33893  14.299   0.454  11.104
68414W        W33894  10.330  43.321  12.465
68415W        W33895  33.619   3.415   3.856
68416W        W33896  38.486  41.303  13.034
68417W        W33897  38.926  43.924  12.051
68418W        W33898  11.801  11.175   3.843
68419W        W33899   0.292  40.015   4.738
68420W        W33900  22.146  23.627   3.207
68421W        W33901  44.908  20.081   2.307
68422W        W33902  29.476  18.743   4.749
68423W        W33903  11.846  40.320  14.486
68424W        W33904  42.449  14.760  11.973
68425W        W33905  18.138   1.888   1.442
68426W        W33906  41.926  25.674  10.412
68427W        W33907   8.881  28.057  11.057
68428W        W33908   2.386   6.758  12.863
68429W        W33909  15.599  17.268  14.975
68430W        W33910  14.614   6.706   3.755
68431W        W33911   3.806  34.992  13.535
68432W        W33912  16.633  14.274   3.638
68433W        W33913  24.549  17.656   2.752
68434W        W33914  11.151  13.764  13.445
68435W        W33915   6.245  29.622   1.770
68436W        W33916  23.039  18.256  12.487
68437W        W33917  44.319  43.379   0.362
68438W        W33918  23.033  19.151  14.905
68439W        W33919  24.996  37.510   3.325
68440W        W33920  14.773  20.239   3.704
68441W        W33921  33.107  28.484   3.241
68442W        W33922  34.992  31.429   4.290
68443W        W33923   0.914  17.148   3.330
68444W        W33924  36.460  36.396   4.276
68445W        W33925  34.894   6.874  14.290
68446W        W33926  33.472   9.241   4.694
68447W        W33927  30.462  21.091   4.178
68448W        W33928  31.961  33.897   2.281
68449W        W33929  10.358  33.437  10.418
68450W        W33930   8.870  13.299  11.483
68451W        W33931  20.605  25.076  14.274
68452W        W33932  24.519   6.840   1.303
68453W        W33933   5.750  16.191  13.409
68454W        W33934   9.339  10.310   1.380
68455W        W33935  30.429   8.230   1.277
68456W        W33936  26.982  16.097   2.690
68457W        W33937  28.015  15.190   3.249
68458W        W33938   3.786  16.282   0.460
68459W        W33939   1.435  41.490  12.094
68460W        W33940  14.669   6.879   2.862
68461W        W33941  30.415  17.608   3.314
68462W        W33942  13.750  38.963   1.254
68463W        W33943   6.806   2.847   3.738
68464W        W33944  39.427  20.036   0.950
68465W        W33945   2.870  13.664  13.840
68466W        W33946  32.076  35.961  13.314
68467W        W33947  17.585   0.854   2.682
68468W        W33948  21.556  30.049   2.678
68469W        W33949   2.837  43.434  13.982
68470W        W33950   4.875   5.856   0.935
68471W        W33951   4.706  24.685   1.922
68472W        W33952  30.550  43.487   0.891
68473W        W33953  37.505  26.195  13.893
68474W        W33954  27.139  38.568   2.727
68475W        W33955  28.165  15.146   2.747
68476W        W33956  38.024  33.534   0.258
68477W        W33957  16.580   7.804   2.810
68478W        W33958  23.065  24.083  13.484
68479W        W33959  11.355  38.841  11.547
68480W        W33960  44.826   0.268  12.576
68481W        W33961  36.366   2.332  12.938
68482W        W33962  33.909  32.577   4.155
68483W        W33963  23.177   1.740   3.682
68484W        W33964   2.394  36.363   3.723
68485W        W33965   8.798  20.731   0.826
68486W        W33966  15.657   4.813  14.019
68487W        W33967  27.037  28.531   4.242
68488W        W33968   9.650  20.575   1.240
68489W        W33969  42.939  14.704  12.382
68490W        W33970   7.258  36.380  13.905
68491W        W33971  43.492   4.300   0.412
68492W        W33972  44.442  23.111   2.336
68493W        W33973  14.600  42.933  14.818
68494W        W33974  44.432  20.679  12.850
68495W        W33975  40.462  29.666   3.723
68496W        W33976  18.168   9.239   4.690
68497W        W33977  14.620   9.877   2.305
68498W        W33978  38.447  42.855   1.820
68499W        W33979  14.681   3.810  13.004
68500W        W33980  33.617  25.025   2.843
68501W        W33981  43.804  27.494   3.855
68502W        W33982   3.349  24.641   1.725
68503W        W33983  42.875  13.186  12.823
68504W        W33984  32.971   1.856   4.779
68505W        W33985  23.209   4.755   3.718
68506W        W33986  19.102  25.023  13.413
68507W        W33987  29.491   2.780   2.885
68508W        W33988  36.893  34.927   4.150
68509W        W33989  24.596  23.019   2.196
68510W        W33990  18.750  19.675  13.929
68511W        W33991  39.503  30.998   3.831
68512W        W33992  30.604  39.848  13.798
68513W        W33993  33.125   5.847   0.787
68514W        W33994  11.347  14.280  12.906
68515W        W33995   7.786   7.201  10.895
68516W        W33996  16.095  19.077  12.361
68517W        W33997   5.835  42.892  12.425
68518W        W33998   4.935   6.387  13.367
68519W        W33999  12.644   4.267   3.718
68520W        W34000  32.088  27.519  13.486
68521W        W34001  24.080  24.004  11.390
68522W        W34002  29.996  10.247   1.376
68523W        W34003  25.988  19.622  11.899
68524W        W34004   2.298  15.579   2.779
68525W        W34005  11.628  10.192   4.236
68526W        W34006   7.377  31.559   2.210
68527W        W34007  19.700   1.240   2.802
68528W        W34008  33.390  33.613  14.019
68529W        W34009  12.764  44.977   1.401
68530W        W34010  41.378  41.419  12.048
68531W        W34011  14.130  24.125   3.820
68532W        W34012   1.756   9.718  11.011
68533W        W34013  40.847   7.336   2.258
68534W        W34014  35.082  19.597  10.992
68535W        W34015  34.475  20.228   1.305
68536W        W34016  42.026   4.861   3.284
68537W        W34017  44.771  35.976   3.649
68538W        W34018  24.709  10.866   2.886
68539W        W34019  13.693  17.201   4.597
68540W        W34020  14.118  32.006  11.019
68541W        W34021  21.687  42.474   1.278
68542W        W34022   6.712   9.220  12.503
68543W        W34023  39.552  18.101   2.795
68544W        W34024   2.429   5.844  14.390
68545W        W34025  17.705  20.115  10.480
68546W        W34026  19.203  24.523  14.415
68547W        W34027  27.598  38.541   3.801
68548W        W34028  39.046   1.797   4.239
68549W        W34029  25.542  23.115  14.952
68550W        W34030   2.885  38.071  11.597
68551W        W34031  14.194  19.682   1.879
68552W        W34032  25.041  41.356  14.871
68553W        W34033  22.221  13.257   4.619
68554W        W34034  39.015  11.671  12.478
68555W        W34035  24.165  33.051   4.133
68556W        W34036  44.356  41.435   3.387
68557W        W34037  25.999  12.314  11.431
68558W        W34038  38.367   3.769  12.888
68559W        W34039  41.510  12.763   2.242
68560W        W34040  37.012   2.444   0.427
68561W        W34041  44.796  42.513   0.262
68562W        W34042   8.689   1.390   0.805
68563W        W34043   4.942  41.999   2.332
68564W        W34044  43.802  32.625   2.879
68565W        W34045  42.329  17.645  12.424
68566W        W34046  44.832  11.810  10.587
68567W        W34047  28.564  36.500  12.347
68568W        W34048  12.701   1.482  12.054
68569W        W34049   9.663  41.296  14.297
68570W        W34050  33.549  37.526  12.388
68571W        W34051   0.356  44.856   1.751
68572W        W34052  31.073  38.914   4.153
68573W        W34053   9.246  42.024   3.372
68574W        W34054  20.053  10.250  13.912
68575W        W34055   5.804   8.814  10.516
68576W        W34056  41.024  18.643  12.012
68577W        W34057  41.997   6.714  11.115
68578W        W34058  25.644  20.621   4.319
68579W        W34059  43.816   6.349   4.651
68580W        W34060  32.526  23.671   5.118
68581W        W34061  41.029  37.061   3.861
68582W        W34062  20.168  14.814  14.891
68583W        W34063  30.154   5.889   4.269
68584W        W34064  39.345  22.046   1.246
68585W        W34065   6.884   1.387  11.871
68586W        W34066  28.102  12.778  10.575
68587W        W34067  28.085  32.093   9.926
68588W        W34068  31.640  33.527   3.798
68589W        W34069   7.800  41.336  13.926
68590W        W34070   7.890  36.983  11.378
68591W        W34071  42.804  32.435  11.375
68592W        W34072  32.539  18.051  12.026
68593W        W34073  23.227  35.478  14.896
68594W        W34074  19.205  40.969  13.486
68595W        W34075  33.976   3.910   3.381
68596W        W34076  36.903  15.670   4.769
68597W        W34077  13.621  36.491   2.831
68598W        W34078   4.207  41.986  14.972
68599W        W34079  13.351  27.954  13.991
68600W        W34080  18.621   9.851   3.336
68601W        W34081   4.429  33.520  14.928
68602W        W34082  41.297  19.654  13.894
68603W        W34083   6.414   2.898   2.894
68604W        W34084  35.418  12.135   0.412
68605W        W34085  34.074  14.280   1.767
68606W        W34086  35.465  13.648   1.328
68607W        W34087  28.646  21.230  12.028
68608W        W34088  16.666  41.012  14.488
68609W        W34089  10.696  44.288  14.923
68610W        W34090   5.885  40.918  14.473
68611W        W34091  41.359  18.691   1.249
68612W        W34092   7.229  31.971  14.861
68613W        W34093   7.668  16.141  13.893
68614W        W34094  10.320  20.185   4.614
68615W        W34095  44.975  26.573  13.335
68616W        W34096  11.866  41.333   3.779
68617W        W34097  20.051   9.833   3.206
68618W        W34098  34.965   7.856   2.796
68619W        W34099   8.831  36.933   3.296
68620W        W34100  37.520  18.094  11.086
68621W        W34101   0.838  34.986   4.297
68622W        W34102  31.447  18.584   3.184
68623W        W34103  37.870  33.425   1.439
68624W        W34104  37.455  35.477  14.314
68625W        W34105  29.930  44.280  13.917
68626W        W34106  34.564  37.410  11.986
68627W        W34107  11.859  25.965  10.552
68628W        W34108  30.015  33.514   3.664
68629W        W34109  23.565   6.716  14.326
68630W        W34110  29.118  33.933  14.407
68631W        W34111  20.227  28.587   0.740
68632W        W34112  19.089  42.436  11.382
68633W        W34113  41.371  23.126  13.432
68634W        W34114  31.408  11.332   1.225
68635W        W34115  25.978  12.195   4.192
68636W        W34116  41.876   0.318  13.793
68637W        W34117  36.975  34.392  10.516
68638W        W34118   0.800   1.249   0.432
68639W        W34119  18.687  41.969  11.001
68640W        W34120   9.748   2.930   3.836
68641W        W34121   9.238  34.084  12.565
68642W        W34122  20.106  28.006   2.280
68643W        W34123   8.341  25.146   0.894
68644W        W34124   9.878  21.168   3.191
68645W        W34125  29.456  38.487  10.930
68646W        W34126  42.296  41.324   2.305
68647W        W34127   9.291  13.245   2.189
68648W        W34128  30.582  42.888   2.719
68649W        W34129  19.710  37.070  10.533
68650W        W34130   5.346  16.135   0.274
68651W        W34131  42.489  41.515   4.344
68652W        W34132  44.448  44.433   3.678
68653W        W34133   7.747  29.494   4.723
68654W        W34134  34.958  16.283   2.277
68655W        W34135   6.295  18.144  13.037
68656W        W34136  29.060  41.434   0.311
68657W        W34137  13.123  32.630   1.273
68658W        W34138  28.566  28.446   3.288
68659W        W34139  17.175  26.703  12.888
68660W        W34140  43.816  15.770   1.899
68661W        W34141  10.695  29.520  13.344
68662W        W34142   2.276  16.291   1.312
68663W        W34143   1.356   6.882   4.598
68664W        W34144  21.121  12.753  10.936
68665W        W34145   6.773  23.007  13.883
68666W        W34146  28.159   5.785   3.727
68667W        W34147  32.104   8.288   5.107
68668W        W34148  43.946   0.791  10.985
68669W        W34149  34.921   3.725  11.924
68670W        W34150   4.447  11.325   2.889
68671W        W34151   1.382  18.552  11.068
68672W        W34152  34.088  27.547   0.907
68673W        W34153  35.442  29.477   1.705
68674W        W34154  40.874   0.911  13.052
68675W        W34155   5.832   4.913  10.025
68676W        W34156  40.330  38.943   3.380
68677W        W34157  29.598  37.970   2.728
68678W        W34158  17.244  28.102  14.835
68679W        W34159  13.841   6.764   3.196
68680W        W34160   0.297   8.672   4.338
68681W        W34161  25.997  21.546   3.826
68682W        W34162  34.504  44.861  14.298
68683W        W34163  31.414   0.397   4.710
68684W        W34164  11.362   4.870  11.483
68685W        W34165  38.067  44.909  12.405
68686W        W34166   8.665  27.960   1.404
68687W        W34167  21.661  21.719   3.204
68688W        W34168  44.861  19.150  13.313
68689W        W34169  31.902  29.025  14.881
68690W        W34170  38.885  24.714  14.027
68691W        W34171   3.333  13.110  11.089
68692W        W34172   4.890   5.360   1.368
68693W        W34173  13.658  39.850  13.042
68694W        W34174  38.381   2.457   4.740
68695W        W34175  21.588   3.880   3.791
68696W        W34176  44.002  10.737  13.983
68697W        W34177  33.975  43.919  14.827
68698W        W34178  28.579  39.902  12.465
68699W        W34179  18.060  37.853  12.398
68700W        W34180  42.346  39.851  12.051
68701W        W34181  41.538   8.235  11.529
68702W        W34182  41.471   6.300  14.793
68703W        W34183  18.788  37.451  10.108
68704W        W34184   6.364  21.075   2.667
68705W        W34185  27.635  20.551   1.271
68706W        W34186  12.242   9.224   0.908
68707W        W34187  15.599  41.976   1.267
68708W        W34188  41.403  11.800   4.141
68709W        W34189  29.000  44.398  12.920
68710W        W34190  30.563  39.543   4.290
68711W        W34191  34.401  41.399  11.479
68712W        W34192  15.155  31.639   2.327
68713W        W34193  13.341  22.514   4.176
68714W        W34194   5.308   9.210  14.322
68715W        W34195  35.422   8.664  11.490
68716W        W34196  23.593  22.243  10.406
68717W        W34197   4.703   5.758   2.787
68718W        W34198  16.272  32.585   9.555
68719W        W34199   8.275   2.772  14.766
68720W        W34200  13.329   9.384   4.131
68721W        W34201  20.747  31.105  14.847
68722W        W34202  19.222  24.207   4.650
68723W        W34203   9.759  18.780  11.532
68724W        W34204  20.046  30.617   3.750
68725W        W34205   0.410  25.179  14.760
68726W        W34206  44.292   7.868   0.760
68727W        W34207  42.402  37.544   2.797
68728W        W34208  30.640  29.966   0.347
68729W        W34209  22.719  44.807  12.962
68730W        W34210  44.428   3.362   4.674
68731W        W34211  42.804  18.781  10.918
68732W        W34212  41.426   2.398   4.257
68733W        W34213  43.424  15.647  11.434
68734W        W34214  24.132   3.276  13.955
68735W        W34215   7.767   2.255  11.080
68736W        W34216  32.054  18.296   1.257
68737W        W34217  18.285  10.796   3.215
68738W        W34218  43.784  22.026   2.821
68739W        W34219  17.580  11.640  11.053
68740W        W34220  17.063   2.913   3.817
68741W        W34221  34.076  18.643  12.958
68742W        W34222  37.578   0.811   1.895
68743W        W34223  37.492   3.745   4.783
68744W        W34224   4.813  23.663   5.102
68745W        W34225  14.721   0.753  11.407
68746W        W34226   6.757  44.500  10.919
68747W        W34227  37.957   7.767  12.557
68748W        W34228   5.290   7.392   0.954
68749W        W34229  20.182  33.009  13.523
68750W        W34230  21.682  36.591   4.267
68751W        W34231   8.676   6.765  11.381
68752W        W34232  24.542  38.845   4.691
68753W        W34233   9.259  16.612  14.333
68754W        W34234  38.433  21.109   0.748
68755W        W34235  24.156  25.188  13.464
68756W        W34236  10.350  19.255  12.872
68757W        W34237  41.920  21.574  10.154
68758W        W34238  43.893  27.146   4.319
68759W        W34239  19.614  22.524   2.399
68760W        W34240  16.576  34.415   3.180
68761W        W34241  12.779  16.270   1.843
68762W        W34242  43.915  38.531  11.058
68763W        W34243   3.803  27.162   4.674
68764W        W34244  44.874  37.532  10.617
68765W        W34245   5.230  34.430  14.867
68766W        W34246  12.815  32.042   2.282
68767W        W34247  23.006  41.931  11.093
68768W        W34248  42.891  13.144  10.634
68769W        W34249   0.416   3.736  11.452
68770W        W34250  11.274   3.786   1.339
68771W        W34251  11.353  41.428   0.943
68772W        W34252   8.223   4.342  13.927
68773W        W34253   0.854  13.685  11.119
68774W        W34254  42.357  35.392   1.793
68775W        W34255  25.103  20.266  12.514
68776W        W34256  34.532   6.232   1.931
68777W        W34257  22.531  38.509   0.276
68778W        W34258  27.507  38.409   1.346
68779W        W34259  31.440  42.888   3.735
68780W        W34260  38.993  28.049   3.275
68781W        W34261  30.471  30.553  13.968
68782W        W34262  42.946  32.464   3.637
68783W        W34263  34.054  33.473  11.004
68784W        W34264  33.447  22.634   5.241
68785W        W34265   9.266  22.554  14.425
68786W        W34266  13.351  41.414  14.954
68787W        W34267  23.495  44.410  12.887
68788W        W34268   9.192  20.718  12.571
68789W        W34269  31.133  12.833  13.963
68790W        W34270  11.739  14.807   3.258
68791W        W34271   8.180   6.844   1.762
68792W        W34272  39.484  24.040   0.967
68793W        W34273   9.159  44.447  10.998
68794W        W34274   4.887  44.421   1.300
68795W        W34275   1.892  44.946   4.714
68796W        W34276  23.637  23.643   2.801
68797W        W34277  41.889  40.389   1.258
68798W        W34278  10.682   4.918   3.704
68799W        W34279  34.928  17.576  10.608
68800W        W34280  31.119  38.456  11.994
68801W        W34281   2.418  14.161   1.748
68802W        W34282  36.857  28.561  11.020
68803W        W34283  15.684  15.639  10.082
68804W        W34284   3.864  16.195   1.814
68805W        W34285  11.327  27.030  12.566
68806W        W34286  32.045  11.321   1.251
68807W        W34287   4.333  44.291   3.837
68808W        W34288  42.400  30.070   0.362
68809W        W34289  36.475  26.197   4.169
68810W        W34290  30.100  40.523   3.290
68811W        W34291  17.596  40.544  14.985
68812W        W34292  23.045  25.022   3.245
68813W        W34293  42.850  35.962   1.827
68814W        W34294  19.688  30.058  11.436
68815W        W34295  33.889  21.242  11.926
68816W        W34296  44.411  18.109  10.632
68817W        W34297  28.502  33.075   0.302
68818W        W34298  35.578   3.335   1.763
68819W        W34299  29.566   4.331  11.577
68820W        W34300  37.868  31.907  12.062
68821W        W34301   7.710  34.489  12.029
68822W        W34302  17.791  20.636  14.369
68823W        W34303  43.781  22.216   1.441
68824W        W34304  37.426   9.375  13.312
68825W        W34305  11.839  11.206   4.260
68826W        W34306  32.449  35.936   3.233
68827W        W34307  37.481  18.769   2.867
68828W        W34308  14.766  23.585   3.320
68829W        W34309   0.907  15.588  14.922
68830W        W34310  38.860  11.322  10.019
68831W        W34311  16.794  34.507  12.828
68832W        W34312  10.270   1.348   3.699
68833W        W34313  40.514  29.013   4.791
68834W        W34314   2.421   5.856   1.932
68835W        W34315   5.688  30.955  12.956
68836W        W34316  15.614   4.311  14.852
68837W        W34317  33.110  16.256  12.859
68838W        W34318  29.610  21.203  12.417
68839W        W34319  20.236  36.514   1.779
68840W        W34320  44.491   2.936   0.294
68841W        W34321  34.377   6.200   0.258
68842W        W34322  19.576  21.683  14.812
68843W        W34323  16.278  13.201  14.817
68844W        W34324   1.744  39.947   3.296
68845W        W34325  34.101  11.154  14.349
68846W        W34326  12.211  33.559  14.851
68847W        W34327  38.967  25.659   4.676
68848W        W34328  17.296  17.629   2.315
68849W        W34329  19.623   9.809  12.991
68850W        W34330  19.640  39.859  14.416
68851W        W34331  11.143  10.221   1.440
68852W        W34332  44.383  14.309  10.643
68853W        W34333  34.539  31.921   1.212
68854W        W34334   4.878  12.146   3.852
68855W        W34335  24.155  34.427  14.370
68856W        W34336  24.199   1.764   2.685
68857W        W34337  15.612  29.594   4.629
68858W        W34338  21.139  17.765  10.980
68859W        W34339  43.846  26.986  14.297
68860W        W34340  25.083  22.676   1.709
68861W        W34341   8.662  38.959   5.178
68862W        W34342   1.353  36.586   3.162
68863W        W34343  43.315   6.723   4.352
68864W        W34344  37.851  17.168   4.732
68865W        W34345  24.639   5.847   1.410
68866W        W34346  34.385  25.203  14.895
68867W        W34347  41.017  31.502   2.290
68868W        W34348   8.229  26.145   3.382
68869W        W34349  40.484   9.667  12.384
68870W        W34350  36.027   9.275  13.432
68871W        W34351  35.108   2.396   1.727
68872W        W34352  17.080  15.597   4.820
68873W        W34353  14.312  23.496   4.325
68874W        W34354  38.001  14.214   4.336
68875W        W34355   9.342  23.228   1.218
68876W        W34356  12.707  25.500   4.699
68877W        W34357   4.825  16.679   2.791
68878W        W34358   6.360  22.018  10.565
68879W        W34359  23.997  16.760  11.552
68880W        W34360   3.362   5.353   1.749
68881W        W34361  10.677  14.794   3.268
68882W        W34362   9.786  41.983   3.853
68883W        W34363   9.336  17.746   3.833
68884W        W34364  18.248  43.495   2.886
68885W        W34365  28.183  21.026   0.444
68886W        W34366   5.205  14.334   0.303
68887W        W34367  24.638  15.712   0.242
68888W        W34368  32.092  35.358   3.640
68889W        W34369  22.042   9.780  11.982
68890W        W34370  28.046  41.887  14.823
68891W        W34371   0.917  26.637  11.563
68892W        W34372  43.412  28.132  14.848
68893W        W34373  25.473  29.499  10.901
68894W        W34374  44.302  38.397  13.447
68895W        W34375  22.671  24.586  11.498
68896W        W34376   4.884  21.135   0.430
68897W        W34377  32.996  34.988   2.894
68898W        W34378  38.351   2.448  11.045
68899W        W34379  21.246  18.745  12.887
68900W        W34380  41.992  41.336  12.011
68901W        W34381  22.673  12.333  13.879
68902W        W34382  19.106   7.213  11.444
68903W        W34383  26.033   2.237  11.548
68904W        W34384  24.227  17.213  13.520
68905W        W34385  22.180  27.585  13.000
68906W        W34386  23.647  43.361  11.516
68907W        W34387  17.186  26.071  11.561
68908W        W34388  10.745  10.279  10.912
68909W        W34389  40.472  37.058   3.233
68910W        W34390  15.624  39.384   3.703
68911W        W34391  16.721   9.301   3.325
68912W        W34392   5.931  41.865   4.604
68913W        W34393  24.115  23.042   3.275
68914W        W34394  11.243  42.341   2.839
68915W        W34395   9.757  30.040  14.954
68916W        W34396   0.956  44.417  14.919
68917W        W34397   3.811   1.310  11.501
68918W        W34398  34.908  25.574   3.345
68919W        W34399  43.902  37.494   1.848
68920W        W34400  21.730  30.059   3.663
68921W        W34401  19.578  12.791  14.889
68922W        W34402   0.745  40.846  11.401
68923W        W34403  27.019  28.127  10.617
68924W        W34404  32.925   5.856  12.876
68925W        W34405  18.617  43.334   2.776
68926W        W34406  23.716  32.888  12.968
68927W        W34407  12.841  21.738   4.824
68928W        W34408  16.239  20.038   1.870
68929W        W34409  40.435  13.147   1.363
68930W        W34410   5.772  25.027  10.892
68931W        W34411  20.124  19.685  14.906
68932W        W34412  38.560   7.272   3.319
68933W        W34413  12.234  23.514   0.372
68934W        W34414  28.508  38.073  14.296
68935W        W34415   7.744  44.280   3.154
68936W        W34416   9.198  39.024  12.047
68937W        W34417   0.359  21.621   1.715
68938W        W34418  13.312  11.157  10.950
68939W        W34419  11.321  39.819  12.340
68940W        W34420  28.659  18.722  10.993
68941W        W34421  28.164  11.215  12.472
68942W        W34422   7.717   6.881  13.994
68943W        W34423   3.458  22.996   4.624
68944W        W34424   7.751  26.040   2.669
68945W        W34425  12.824  29.115   2.404
68946W        W34426  19.575  43.984  10.956
68947W        W34427  30.645   5.878   3.823
68948W        W34428  30.442  27.611  11.996
68949W        W34429  19.176  31.622  14.488
68950W        W34430   6.894  18.066   1.802
68951W        W34431  17.736  22.241  10.505
68952W        W34432  41.790  38.340  14.301
68953W        W34433  27.672  38.001   2.773
68954W        W34434   2.380   1.970   2.296
68955W        W34435  39.527  25.598   1.354
68956W        W34436  23.240  33.014   4.331
68957W        W34437  36.533  15.227   1.379
68958W        W34438   8.808  12.801  11.022
68959W        W34439  21.071  32.110  11.003
68960W        W34440  28.516  42.316  10.993
68961W        W34441  37.412  23.052   2.723
68962W        W34442  10.293  23.984  13.932
68963W        W34443   6.906   1.463  13.322
68964W        W34444  11.862  20.158   3.352
68965W        W34445  10.327  18.257  11.547
68966W        W34446  41.014  39.017   4.830
68967W        W34447   2.769   6.413   0.280
68968W        W34448   5.914  33.493  14.415
68969W        W34449  43.798  26.669   4.695
68970W        W34450  15.662  13.237  14.336
68971W        W34451  30.161   0.451   4.827
68972W        W34452  29.980  15.301  12.934
68973W        W34453   9.664  41.797   2.278
68974W        W34454  12.285  30.571   1.353
68975W        W34455   9.718  34.887  12.866
68976W        W34456  13.181  13.668   0.403
68977W        W34457  36.086  28.062  12.949
68978W        W34458  37.067  22.037  14.925
68979W        W34459  36.546   9.840  10.630
68980W        W34460   4.748  19.586  12.406
68981W        W34461  16.121  41.359   2.879
68982W        W34462  17.763  16.250   4.124
68983W        W34463  32.113  10.276  12.439
68984W        W34464  12.787  41.937   3.755
68985W        W34465  31.629  38.487   1.379
68986W        W34466  42.290  14.169   2.217
68987W        W34467  40.010   3.227  11.418
68988W        W34468   8.870  25.194   3.713
68989W        W34469  10.253  20.752  10.548
68990W        W34470  13.823  18.662   4.225
68991W        W34471  16.731  37.485   3.232
68992W        W34472  15.688  27.047   4.695
68993W        W34473  41.874   0.898   1.701
68994W        W34474  15.133  32.486  10.605
68995W        W34475  12.687  13.173   0.833
68996W        W34476  44.415  36.354   3.311
68997W        W34477   5.367  31.962  11.447
68998W        W34478   0.778  42.447   1.927
68999W        W34479  23.111  11.740   1.433
69000W        W34480  16.790  38.989  10.474
69001W        W34481   9.693   0.885   4.351
69002W        W34482   7.765  43.856  13.010
69003W        W34483  18.692  37.575   3.644
69004W        W34484  33.531  20.592   0.888
69005W        W34485   1.861  44.837   0.265
69006W        W34486   5.743  43.871  14.513
69007W        W34487  27.453  40.905  10.913
69008W        W34488  37.446  40.004   0.829
69009W        W34489  35.477  44.304  11.956
69010W        W34490  35.483  26.016   3.713
69011W        W34491  17.562  21.734   3.170
69012W        W34492  41.982  16.678  11.464
69013W        W34493  22.176  35.925   0.277
69014W        W34494  10.275   8.197  10.440
69015W        W34495  41.915  38.045  13.910
69016W        W34496  38.921  22.999  12.520
69017W        W34497  43.325   0.253  13.454
69018W        W34498  25.557  28.946   2.303
69019W        W34499  29.070   7.734  11.399
69020W        W34500  30.984  26.694  14.854
69021W        W34501   9.242  41.346   3.207
69022W        W34502  30.510  14.276   4.288
69023W        W34503  12.273  37.497   1.778
69024W        W34504   4.928   9.186   2.272
69025W        W34505  12.809  25.515  12.478
69026W        W34506  26.953  39.354   2.733
69027W        W34507   6.422  30.569   0.802
69028W        W34508  17.178  32.978  12.562
69029W        W34509  26.494  23.584   0.853
69030W        W34510  40.482  27.557   3.860
69031W        W34511   8.667  27.020   2.305
69032W        W34512  30.454   1.867  14.295
69033W        W34513  17.271  28.485  14.375
69034W        W34514   7.793   1.853   4.277
69035W        W34515  37.025   4.213  12.436
69036W        W34516   6.372  40.394   3.160
69037W        W34517  33.383  30.910  11.878
69038W        W34518  38.446  43.384   1.756
69039W        W34519  16.654  42.889   4.699
69040W        W34520  40.854   8.679   0.734
69041W        W34521  22.059  26.009   3.856
69042W        W34522  14.617  13.617   1.928
69043W        W34523  14.672  19.087  13.375
69044W        W34524  22.012  17.211  14.407
69045W        W34525  21.255  11.733  11.035
69046W        W34526  34.369   6.311  11.930
69047W        W34527  44.385   0.817  10.052
69048W        W34528   9.721   7.200   3.272
69049W        W34529  33.585  44.319  14.862
69050W        W34530  16.177  44.430  11.575
69051W        W34531  38.477  31.538  14.995
69052W        W34532  42.884   9.371   2.773
69053W        W34533  18.279  39.480  13.542
69054W        W34534  42.520   1.738  10.630
69055W        W34535  36.554  41.494  10.560
69056W        W34536  23.670  14.729  12.076
69057W        W34537  22.697  36.089  12.484
69058W        W34538  24.020   9.373   3.203
69059W        W34539  11.848  29.539  12.442
69060W        W34540  42.990  31.562   0.740
69061W        W34541  30.580  41.452  13.495
69062W        W34542  33.070   3.929  13.442
69063W        W34543  31.007  35.936   1.760
69064W        W34544  31.067  10.798  11.407
69065W        W34545  10.310  17.150  14.355
69066W        W34546  26.203   0.454  13.339
69067W        W34547  38.912  22.726  12.890
69068W        W34548  33.082  32.599  12.541
69069W        W34549  27.564  28.968   1.900
69070W        W34550  34.451  42.847  14.315
69071W        W34551  38.363  29.988  12.493
69072W        W34552   9.370   3.269   2.824
69073W        W34553  24.675  25.059  11.005
69074W        W34554   5.243  17.104  14.502
69075W        W34555  20.218  39.054   0.330
69076W        W34556   6.369  15.647   3.198
69077W        W34557  38.009  43.977   0.304
69078W        W34558   2.411   0.797   3.722
69079W        W34559   7.811  43.433  12.552
69080W        W34560  11.144  38.842  13.936
69081W        W34561  17.741  17.173  10.405
69082W        W34562  15.757  14.337   9.459
69083W        W34563  18.210  27.170   0.848
69084W        W34564  30.940   7.676  12.002
69085W        W34565  15.660  26.072  10.116
69086W        W34566  36.547   0.461  10.590
69087W        W34567  36.395  34.097   3.774
69088W        W34568  44.308   2.770  14.767
69089W        W34569  31.593  24.040  10.920
69090W        W34570  24.150  31.960  11.390
69091W        W34571  38.537  37.938  14.897
69092W        W34572  32.524  28.956   2.347
69093W        W34573  31.028  40.464   1.364
69094W        W34574  41.520   7.212   1.812
69095W        W34575  27.668  20.189   4.683
69096W        W34576  14.692   7.894  11.933
69097W        W34577  17.784  36.389  10.526
69098W        W34578  21.601  10.199  13.501
69099W        W34579  43.901   1.800   0.463
69100W        W34580   6.713  36.032   0.427
69101W        W34581  39.359  15.637   3.692
69102W        W34582  20.114  21.546  14.854
69103W        W34583  25.602  27.528  13.038
69104W        W34584  27.113  41.934  13.893
69105W        W34585  22.703  44.799   1.416
69106W        W34586  11.693  33.485  14.781
69107W        W34587  25.017   1.270  13.005
69108W        W34588  18.552   9.297  11.048
69109W        W34589  23.218   2.841   3.221
69110W        W34590   2.856   7.273   4.838
69111W        W34591  12.620   1.254   0.311
69112W        W34592  30.439  39.883   0.402
69113W        W34593  34.914  43.980  12.357
69114W        W34594  29.659  14.236   0.289
69115W        W34595  21.257   9.857  12.858
69116W        W34596   0.304  20.249   4.141
69117W        W34597  35.534  37.363  12.496
69118W        W34598  44.913  10.321  13.400
69119W        W34599  20.738  13.828   2.250
69120W        W34600  23.105  32.143   1.346
69121W        W34601  32.580  11.265   4.792
69122W        W34602  16.204  39.551  13.013
69123W        W34603  26.635   1.885  14.442
69124W        W34604  42.456  20.190  10.970
69125W        W34605  22.613   6.698   0.423
69126W        W34606  37.485  14.742   0.940
69127W        W34607  42.422  17.184   2.311
69128W        W34608  19.219  22.118  12.001
69129W        W34609  22.512   8.792   1.906
69130W        W34610  34.427   7.211  14.858
69131W        W34611  34.029  31.614   4.181
69132W        W34612   4.410   7.323   0.259
69133W        W34613  41.380  39.325   1.415
69134W        W34614  10.726   7.724  10.990
69135W        W34615  32.012  29.053   2.716
69136W        W34616  17.305  28.510   2.823
69137W        W34617  33.608  31.623  11.555
69138W        W34618  36.378  43.453   3.169
69139W        W34619  44.849  17.563   0.389
69140W        W34620  29.440  27.064  10.476
69141W        W34621   9.174  24.535  14.978
69142W        W34622  17.204  33.940  12.406
69143W        W34623  17.797   2.895   4.708
69144W        W34624   6.208  36.865   1.766
69145W        W34625   1.270  19.165   4.195
69146W        W34626   7.881  44.975  11.536
69147W        W34627  32.622  31.043   1.911
69148W        W34628  16.758  38.027   0.828
69149W        W34629   3.794   0.380  12.402
69150W        W34630  14.779  19.675  13.510
69151W        W34631  34.915  35.577   1.291
69152W        W34632   1.292  12.712  14.855
69153W        W34633   3.937  17.077   2.718
69154W        W34634   3.799  23.605  11.396
69155W        W34635  14.338  18.714   3.339
69156W        W34636  37.500  30.478   3.736
69157W        W34637  26.070  36.887   2.799
69158W        W34638  25.057  41.350  11.502
69159W        W34639  30.482  41.307  12.575
69160W        W34640   9.226  13.660   0.873
69161W        W34641  12.842   4.223  14.800
69162W        W34642  41.008  43.963  14.444
69163W        W34643   1.944   8.316  12.429
69164W        W34644  38.471  41.968  14.394
69165W        W34645  18.238   3.272   4.597
69166W        W34646   0.858  29.103  12.507
69167W        W34647  37.341  20.039   0.793
69168W        W34648  24.491  42.354  13.889
69169W        W34649   5.352  21.705   0.871
69170W        W34650  31.911  41.454   1.416
69171W        W34651  29.060  15.166  12.387
69172W        W34652  25.474  44.968  10.936
69173W        W34653  14.797  33.432   1.348
69174W        W34654   4.432   8.672   4.681
69175W        W34655  14.774  32.024  14.366
69176W        W34656  29.570  32.117  12.919
69177W        W34657   8.796  33.922   4.236
69178W        W34658  22.505  27.472  11.556
69179W        W34659  42.000  15.251   2.369
69180W        W34660  13.143  20.686   2.269
69181W        W34661  16.614  36.863  13.538
69182W        W34662  18.680  27.539   3.148
69183W        W34663  34.942  31.543  12.980
69184W        W34664  14.626  26.556   4.354
69185W        W34665   0.936  33.442   4.798
69186W        W34666  23.502  17.168   3.730
69187W        W34667  21.639   7.220   0.477
69188W        W34668  32.615   8.782  14.498
69189W        W34669  22.209  28.978   2.830
69190W        W34670   4.844   3.377   3.157
69191W        W34671  15.652  26.959   1.221
69192W        W34672  18.601  28.024   0.274
69193W        W34673  30.479  25.677   0.799
69194W        W34674  13.119  28.076  12.541
69195W        W34675   3.409   7.387   4.340
69196W        W34676  29.005  42.518  14.466
69197W        W34677  37.931  11.656  12.892
69198W        W34678  30.497  25.585   0.443
69199W        W34679   2.464  39.912   0.797
69200W        W34680  42.804   5.802  12.079
69201W        W34681   9.324  37.582   3.761
69202W        W34682  12.132   5.410  14.890
69203W        W34683  22.660  40.849  14.357
69204W        W34684  20.137  34.530  14.897
69205W        W34685  33.488  39.872  11.518
69206W        W34686  13.244  13.247   9.938
69207W        W34687  36.537   7.304  12.887
69208W        W34688  33.448  40.936   2.197
69209W        W34689   4.733  17.236   1.412
69210W        W34690  25.181  30.642   3.182
69211W        W34691  13.140   2.764  14.859
69212W        W34692  44.877  42.000   4.316
69213W        W34693  15.610   6.691   3.184
69214W        W34694  40.492  20.176   3.734
69215W        W34695  23.132  14.123  11.405
69216W        W34696  37.038  32.538   4.759
69217W        W34697  17.065  37.846  14.467
69218W        W34698  26.521   5.341  12.946
69219W        W34699  26.622   1.821   2.818
69220W        W34700  36.541  22.251   2.786
69221W        W34701  11.209  42.475   3.362
69222W        W34702  20.039  21.121  10.145
69223W        W34703   3.903  18.203   2.196
69224W        W34704  24.197  33.081  14.943
69225W        W34705  10.719  33.492   2.739
69226W        W34706  32.051  14.708  14.021
69227W        W34707  38.419  26.065   2.324
69228W        W34708  12.743   2.271  14.959
69229W        W34709  37.871  17.068  13.316
69230W        W34710  28.956  21.089   0.267
69231W        W34711   8.177  23.229   3.169
69232W        W34712  22.693  35.022  11.571
69233W        W34713  11.835   3.219   4.832
69234W        W34714  28.667  11.664  10.946
69235W        W34715   1.302  35.026   1.741
69236W        W34716  14.640   4.289   0.316
69237W        W34717  12.839  38.517  12.399
69238W        W34718  30.555  33.942   1.767
69239W        W34719  39.467  40.925  11.929
69240W        W34720  40.982  13.315   4.268
69241W        W34721  11.743  42.024   0.478
69242W        W34722  33.072  26.021  12.945
69243W        W34723  12.192   8.696   1.739
69244W        W34724  44.971   6.355   0.820
69245W        W34725  30.536   9.817   0.408
69246W        W34726   7.703  44.853  11.034
69247W        W34727  28.041  12.130   3.710
69248W        W34728  34.027  31.555   1.739
69249W        W34729  11.296  34.536  12.375
69250W        W34730  13.137  35.561  13.915
69251W        W34731  22.571  23.184  13.992
69252W        W34732  36.857  20.086  10.610
69253W        W34733  37.476  18.673  13.470
69254W        W34734  14.297  30.492  11.071
69255W        W34735  18.747  28.548  10.119
69256W        W34736  10.768   1.766  11.965
69257W        W34737  42.313  29.555   0.827
69258W        W34738  23.596  31.111   4.753
69259W        W34739   8.747  10.839  11.929
69260W        W34740  36.365  34.038   2.790
69261W        W34741  30.613  35.582  12.542
69262W        W34742   9.652  22.520   0.754
69263W        W34743  16.729  42.509  13.498
69264W        W34744  43.932  16.136   4.831
69265W        W34745   2.726  24.559  11.558
69266W        W34746  17.762  11.204  11.477
69267W        W34747  20.081  10.305  12.058
69268W        W34748  36.986  38.931   4.742
69269W        W34749  39.514  28.185  12.893
69270W        W34750  41.959   8.718   2.790
69271W        W34751   2.746  36.959   2.855
69272W        W34752  20.130   4.220  10.634
69273W        W34753  14.603  29.553  14.360
69274W        W34754   3.374   4.793  13.380
69275W        W34755  18.666   2.829   3.174
69276W        W34756   9.837   3.410  13.465
69277W        W34757  32.977   0.472  10.956
69278W        W34758  42.807  36.579   4.336
69279W        W34759  15.136  23.156  12.464
69280W        W34760  16.078  38.392   0.339
69281W        W34761   6.912   2.930   2.734
69282W        W34762  22.639   1.416   0.965
69283W        W34763  23.996   0.470   2.239
69284W        W34764  38.960   3.299  14.342
69285W        W34765   4.797  35.064   3.728
69286W        W34766   7.888  14.178   4.719
69287W        W34767  22.090  39.865  11.887
69288W        W34768  42.316   7.416  10.510
69289W        W34769  23.140  19.261  11.906
69290W        W34770  34.430  20.117  13.802
69291W        W34771  44.352  24.528  12.976
69292W        W34772  32.040  13.760  12.566
69293W        W34773  34.864  21.051  13.386
69294W        W34774  31.152  14.662  10.507
69295W        W34775   0.939  32.400   2.783
69296W        W34776  25.203  26.687   4.134
69297W        W34777  26.174  40.523  14.371
69298W        W34778  22.032   3.430   1.450
69299W        W34779   4.243  34.558   5.804
69300W        W34780  39.324  26.480  11.592
69301W        W34781  37.368  21.667   4.684
69302W        W34782  11.260  30.992   1.889
69303W        W34783  14.644  30.972   3.679
69304W        W34784  10.170  24.535  10.623
69305W        W34785  12.718  26.097  14.893
69306W        W34786  43.786  40.870   1.257
69307W        W34787  32.534   0.284   0.895
69308W        W34788  23.241   2.314  10.037
69309W        W34789  11.719  23.025  13.467
69310W        W34790   1.353  36.883   3.273
69311W        W34791  20.564  20.257  13.364
69312W        W34792  31.547   8.378   2.783
69313W        W34793  28.663   8.331   2.295
69314W        W34794  21.648  41.956   0.460
69315W        W34795  15.258  16.218  10.960
69316W        W34796   7.760  42.451   2.672
69317W        W34797  29.925  19.268  10.542
69318W        W34798  44.324  32.504   2.854
69319W        W34799  17.615  18.576  10.961
69320W        W34800  27.681  24.989   4.239
69321W        W34801  44.375  41.452  12.349
69322W        W34802   9.762  35.385   3.231
69323W        W34803  41.024  11.346   2.743
69324W        W34804  12.220  12.333   3.859
69325W        W34805  12.644  39.534   0.409
69326W        W34806   7.306   0.315   0.851
69327W        W34807   9.656   2.903   4.312
69328W        W34808  35.097   8.364  14.938
69329W        W34809  31.634  27.559   4.607
69330W        W34810  38.415  31.593   0.271
69331W        W34811   3.458  40.385   4.254
69332W        W34812  27.112  39.347  11.478
69333W        W34813   5.267  36.966  12.461
69334W        W34814  38.400   9.161  13.865
69335W        W34815  36.456  29.142   3.191
69336W        W34816  44.927  32.921   0.830
69337W        W34817  21.568  26.489  10.418
69338W        W34818  26.077   8.392   3.216
69339W        W34819   1.478  22.051  13.481
69340W        W34820  11.686  29.172   2.388
69341W        W34821  23.030  16.104  11.537
69342W        W34822  13.190  38.555  12.910
69343W        W34823  13.667  44.921  10.969
69344W        W34824  27.486  32.442  13.442
69345W        W34825   0.791  12.819   3.316
69346W        W34826  44.410  30.636   1.931
69347W        W34827   8.264  29.032  12.367
69348W        W34828   7.711  25.144  13.409
69349W        W34829   6.234  30.638  13.326
69350W        W34830  38.553  16.274   0.963
69351W        W34831  40.413  18.239  14.397
69352W        W34832  27.178  29.127  13.036
69353W        W34833   2.949   6.723  14.854
69354W        W34834  14.687  21.596   1.740
69355W        W34835  20.041   5.752  10.461
69356W        W34836  25.219  25.154   4.832
69357W        W34837  37.458  35.980  14.974
69358W        W34838  37.923  33.064   2.341
69359W        W34839  25.655   7.869   9.605
69360W        W34840  44.787   7.362   4.719
69361W        W34841  16.189  28.045  14.942
69362W        W34842   3.233  38.459  11.407
69363W        W34843  24.705  12.676  12.907
69364W        W34844  18.067  22.187  13.475
69365W        W34845  13.345  27.991  10.457
69366W        W34846  18.230  10.822   4.159
69367W        W34847  30.019  33.618   2.237
69368W        W34848  22.684  38.963   5.231
69369W        W34849  44.397  29.579  14.278
69370W        W34850  28.442  43.996  13.372
69371W        W34851   4.242  41.472  14.490
69372W        W34852  25.472  38.523   3.317
69373W        W34853   9.234  11.306  14.390
69374W        W34854  14.644  36.876  14.383
69375W        W34855  22.069  10.639   4.231
69376W        W34856   7.859   4.385  14.769
69377W        W34857   8.330   2.848  12.881
69378W        W34858   5.869   8.289   1.243
69379W        W34859  41.948  10.705   4.627
69380W        W34860   0.285  28.053  12.406
69381W        W34861  41.009   6.385  11.037
69382W        W34862  13.785  32.415  11.426
69383W        W34863  43.928  41.378   1.724
69384W        W34864  24.136  44.957  12.501
69385W        W34865  12.792  13.288   1.412
69386W        W34866  43.293   7.377   3.725
69387W        W34867  11.830  12.814   0.862
69388W        W34868   7.286  23.149   1.352
69389W        W34869   1.895  30.951   0.932
69390W        W34870   2.242  15.278   2.413
69391W        W34871   2.272  40.823  13.931
69392W        W34872  23.999  24.678  11.530
69393W        W34873   3.903  35.570   2.210
69394W        W34874  21.593  39.422  12.056
69395W        W34875  25.515  41.365   4.198
69396W        W34876  30.499   6.684   4.830
69397W        W34877   7.803  34.907   0.775
69398W        W34878  17.597  12.194  12.537
69399W        W34879  35.578  22.100   0.882
69400W        W34880  13.152  19.263   1.743
69401W        W34881  29.168  44.416   3.229
69402W        W34882  40.940   7.234   3.266
69403W        W34883   3.263  44.790   3.815
69404W        W34884  29.150  41.822  14.351
69405W        W34885  19.599   2.416   3.778
69406W        W34886  32.619   6.424  13.547
69407W        W34887  29.491  35.917  13.436
69408W        W34888  20.255  12.127  11.510
69409W        W34889   0.746  36.033  10.543
69410W        W34890  30.992  27.966  14.006
69411W        W34891  44.356  44.321  11.535
69412W        W34892  39.980  27.598  14.858
69413W        W34893  32.905  20.575  11.474
69414W        W34894  17.303  14.796   2.797
69415W        W34895  43.889  26.999   0.887
69416W        W34896  39.812  20.668  14.507
69417W        W34897  44.891  16.091   3.347
69418W        W34898  35.590  33.019   1.343
69419W        W34899  29.133  34.110  13.490
69420W        W34900  19.684  18.081   1.818
69421W        W34901  37.349  13.636  13.546
69422W        W34902  23.135   0.401   2.220
69423W        W34903   2.464   4.230  12.356
69424W        W34904  27.557   1.321   1.421
69425W        W34905  41.538  35.461  14.959
69426W        W34906  12.263  41.943  13.422
69427W        W34907  38.911  28.642  12.999
69428W        W34908  43.324  29.494  13.378
69429W        W34909  33.519  35.590  12.050
69430W        W34910  19.173  27.585   2.362
69431W        W34911  43.404  38.009   0.906
69432W        W34912  12.688   8.696   2.750
69433W        W34913   6.352  10.877   3.193
69434W        W34914  14.238  30.616  11.447
69435W        W34915  19.570  41.037   3.227
69436W        W34916   5.872  36.906   1.710
69437W        W34917   8.862  31.477   1.433
69438W        W34918  18.590  31.588  12.489
69439W        W34919   0.887  41.344   4.656
69440W        W34920   7.407  21.227  14.423
69441W        W34921   3.869  17.246  11.015
69442W        W34922  39.326   0.298   0.362
69443W        W34923  31.086   5.747   0.251
69444W        W34924  26.112  17.265   1.716
69445W        W34925  21.635  44.326  13.912
69446W        W34926  27.147   8.385   1.223
69447W        W34927   1.458   9.366  11.893
69448W        W34928   7.324  32.496   2.793
69449W        W34929  43.294   8.291   1.724
69450W        W34930  30.489  28.100   3.217
69451W        W34931  22.195  41.360  11.042
69452W        W34932  30.520  38.981   3.261
69453W        W34933  37.564   8.347   1.221
69454W        W34934  13.237   8.193  12.358
69455W        W34935   3.932  31.478   4.797
69456W        W34936  34.470  38.513   4.214
69457W        W34937  25.053  32.896   1.273
69458W        W34938  12.218   9.180   1.264
69459W        W34939  41.922  29.118  12.845
69460W        W34940  20.610   6.410  10.503
69461W        W34941   5.740  29.572   0.435
69462W        W34942  32.041  43.979  13.831
69463W        W34943  19.064  30.032   1.841
69464W        W34944   7.368  29.555   5.180
69465W        W34945  44.453  26.679   4.752
69466W        W34946  11.657   0.280   1.341
69467W        W34947  24.230  24.623  10.891
69468W        W34948   9.834  13.214   4.137
69469W        W34949   8.824  43.361   4.743
69470W        W34950  12.840   3.357   0.912
69471W        W34951  10.728  14.151   1.420
69472W        W34952  23.513  34.598   4.315
69473W        W34953  16.646  43.887  11.583
69474W        W34954  39.511  27.554  14.400
69475W        W34955  17.215  24.698  12.929
69476W        W34956  38.032  13.261  12.417
69477W        W34957  29.958  36.555  11.937
69478W        W34958   8.761  20.073   3.673
69479W        W34959  19.669   3.801  12.575
69480W        W34960  24.604  24.712  14.958
69481W        W34961  23.071  42.431   4.165
69482W        W34962  18.651  40.422  10.026
69483W        W34963   9.189  26.983  12.917
69484W        W34964   3.797  23.717   0.478
69485W        W34965   1.792  10.738  14.904
69486W        W34966   7.411  17.144   4.123
69487W        W34967   4.347  28.029   2.279
69488W        W34968  13.709   9.303  14.872
69489W        W34969  24.665  13.292  11.900
69490W        W34970  18.221  35.109   3.350
69491W        W34971  34.913  23.000   2.749
69492W        W34972  36.371  44.822   1.862
69493W        W34973  31.138  27.477   0.895
69494W        W34974  44.926  29.611  10.566
69495W        W34975  37.862   2.352  14.840
69496W        W34976  10.815  16.268   2.730
69497W        W34977   2.380  17.168  14.296
69498W        W34978  28.672   8.400   2.823
69499W        W34979  23.677   3.231  14.508
69500W        W34980  44.986   2.406  11.123
69501W        W34981  15.767   4.205  10.028
69502W        W34982  22.565  32.496   3.817
69503W        W34983  40.370  23.495   3.346
69504W        W34984  16.654  24.018   2.189
69505W        W34985  20.527   9.230   1.747
69506W        W34986  23.112  12.630   1.282
69507W        W34987   5.703  34.457   2.789
69508W        W34988  33.096   3.814  12.894
69509W        W34989   6.773  21.174  11.083
69510W        W34990  40.040  32.507  14.959
69511W        W34991  23.667  31.573   0.912
69512W        W34992  23.125   5.206  12.427
69513W        W34993  20.569   1.260   4.792
69514W        W34994  34.038  22.513  10.123
69515W        W34995  19.128  25.121   3.681
69516W        W34996  33.582  15.668  12.888
69517W        W34997   5.901  38.389   4.802
69518W        W34998  25.046  15.705  14.030
69519W        W34999  20.094   0.849   2.373
69520W        W35000  41.498  22.607   4.648
69521W        W35001  26.123   8.656  13.342
69522W        W35002  36.575  27.646   1.857
69523W        W35003  43.834  43.905   4.749
69524W        W35004  35.475  11.760  11.530
69525W        W35005  41.829  23.559   1.259
69526W        W35006  43.926   3.725  13.533
69527W        W35007   4.434  11.834  13.377
69528W        W35008  24.179  38.958   2.689
69529W        W35009  29.952  39.014   1.711
69530W        W35010  37.011  29.424  11.972
69531W        W35011  11.359  29.165   2.247
69532W        W35012   1.779  10.322   3.336
69533W        W35013   0.979  18.689   2.406
69534W        W35014  20.644   5.416  13.435
69535W        W35015  27.479  18.613   1.351
69536W        W35016  12.763  18.657  11.910
69537W        W35017  11.809   2.728  13.491
69538W        W35018   0.755  26.128   3.671
69539W        W35019  16.108  40.519  11.963
69540W        W35020  20.119   7.695  14.806
69541W        W35021  24.487  18.155  13.313
69542W        W35022  38.969  12.119   0.755
69543W        W35023  10.190  39.539   3.356
69544W        W35024  20.047  27.036   5.640
69545W        W35025  24.213  39.380  10.552
69546W        W35026  35.396  13.209   1.735
69547W        W35027  39.397  36.004   3.813
69548W        W35028  42.905   7.880  14.786
69549W        W35029  19.050   4.292  11.499
69550W        W35030  22.037  18.603   2.305
69551W        W35031  33.936   6.302  13.474
69552W        W35032  24.715  18.715   2.272
69553W        W35033  22.197   7.727   5.275
69554W        W35034  13.672  34.074  11.931
69555W        W35035  40.411  35.019   1.329
69556W        W35036   9.357  34.047   0.313
69557W        W35037   2.781  39.493  11.087
69558W        W35038  19.101  32.010  14.334
69559W        W35039   4.368  36.400   2.803
69560W        W35040  31.613   7.203  11.980
69561W        W35041  19.562  35.550   0.265
69562W        W35042  37.072  35.376   1.451
69563W        W35043  32.621  41.978   3.754
69564W        W35044  19.070  15.603  12.069
69565W        W35045  36.527  14.634  11.967
69566W        W35046  39.908   3.370  14.972
69567W        W35047   3.325  28.946   4.794
69568W        W35048   4.353  20.143   4.709
69569W        W35049  10.300  25.515  13.484
69570W        W35050  35.877  38.850   2.287
69571W        W35051  11.156   4.244  14.495
69572W        W35052   3.766  30.140  10.982
69573W        W35053  23.098  26.533   0.391
69574W        W35054  35.509  10.209   0.254
69575W        W35055  37.364  33.615   1.412
69576W        W35056  22.526   0.463   3.766
69577W        W35057   2.471  40.046  14.382
69578W        W35058  38.022  41.792   2.284
69579W        W35059   1.263  25.617   0.917
69580W        W35060  15.124  11.786   4.614
69581W        W35061  29.086  38.911  11.544
69582W        W35062  35.539  26.653  14.344
69583W        W35063  42.327  22.999  13.455
69584W        W35064  30.603  43.449  11.597
69585W        W35065  41.027  34.935   0.349
69586W        W35066  17.742  41.505   1.935
69587W        W35067  16.081  39.553  13.489
69588W        W35068  41.426  33.486  13.340
69589W        W35069   5.244   4.879   0.246
69590W        W35070  23.689   5.341  11.476
69591W        W35071  41.906   8.665  13.913
69592W        W35072  39.379  27.677   1.398
69593W        W35073  28.660  10.356  13.446
69594W        W35074  28.031  26.169   4.705
69595W        W35075   0.786   9.857  13.473
69596W        W35076   8.657   0.467  11.566
69597W        W35077  36.911  28.951  11.089
69598W        W35078  39.405  24.599  11.998
69599W        W35079  40.037  17.200   2.399
69600W        W35080  26.577  14.104   0.955
69601W        W35081  30.014  37.361   4.266
69602W        W35082   0.948  30.915  13.046
69603W        W35083   3.369  20.058   2.312
69604W        W35084  24.500  39.025   1.309
69605W        W35085  28.935   8.269   2.714
69606W        W35086  33.086   4.820   4.122
69607W        W35087  16.178  37.930   3.675
69608W        W35088  10.149   9.214   1.894
69609W        W35089  39.867  15.684  12.898
69610W        W35090  40.420  41.363   5.264
69611W        W35091  14.300  30.116  14.008
69612W        W35092  37.955   9.807  12.342
69613W        W35093  27.132   8.849  12.838
69614W        W35094  10.822  36.031   3.661
69615W        W35095  25.156  16.629  10.589
69616W        W35096  24.713  44.958  13.540
69617W        W35097  38.891  29.010  11.906
69618W        W35098  16.669   5.390   4.352
69619W        W35099  37.426  23.018   3.377
69620W        W35100   3.905  18.164   4.208
69621W        W35101   0.829  20.220  11.599
69622W        W35102  20.675  13.292  11.588
69623W        W35103   0.333  31.995   0.765
69624W        W35104  32.562  43.346  11.579
69625W        W35105  18.707  18.227  13.895
69626W        W35106  26.097   6.834   3.632
69627W        W35107  36.412  27.487  13.457
69628W        W35108  13.715  33.065  11.449
69629W        W35109  27.496  10.233  13.973
69630W        W35110  15.120  40.977  12.051
69631W        W35111  28.627   9.715   4.672
69632W        W35112   7.194  15.798   2.830
69633W        W35113   5.318   8.851   1.892
69634W        W35114  22.592   3.456  14.760
69635W        W35115  21.232  43.786  14.454
69636W        W35116  36.918  20.673   4.826
69637W        W35117  21.691   9.347  12.918
69638W        W35118  30.026  43.503   0.337
69639W        W35119  13.130  41.399  13.372
69640W        W35120  10.307  24.000   1.743
69641W        W35121  39.460   0.408  12.884
69642W        W35122  15.120  25.106   2.725
69643W        W35123   6.836  21.135   4.745
69644W        W35124   5.228  22.536  11.476
69645W        W35125  12.294  38.882  13.862
69646W        W35126  13.173  36.402   3.320
69647W        W35127  22.741  35.586  11.977
69648W        W35128  34.099   0.472   0.821
69649W        W35129  22.628   9.152  13.448
69650W        W35130  28.471  24.527   0.862
69651W        W35131  32.501   1.805  13.882
69652W        W35132  33.061   3.745   4.607
69653W        W35133  36.909  29.931  13.014
69654W        W35134  39.535  24.630  13.902
69655W        W35135  33.476  16.242  14.898
69656W        W35136  15.636   2.461   2.271
69657W        W35137  21.228  31.082  12.008
69658W        W35138  24.985  32.530  13.912
69659W        W35139  26.048  44.377  14.407
69660W        W35140  41.427  23.074   4.822
69661W        W35141  19.736  40.856   4.201
69662W        W35142  26.131  10.230   2.279
69663W        W35143  39.042   9.699   3.335
69664W        W35144   3.865  35.005   3.322
69665W        W35145   1.319  33.105   0.952
69666W        W35146  39.432  23.043  14.321
69667W        W35147  30.003  43.482  13.326
69668W        W35148  25.201   7.407  12.572
69669W        W35149   5.421  11.830  13.797
69670W        W35150  43.516   2.348   2.770
69671W        W35151  25.598  11.687   9.979
69672W        W35152   7.754  33.113  12.433
69673W        W35153   0.919  21.146  12.874
69674W        W35154  21.629   0.922   0.891
69675W        W35155  15.325  41.530  10.595
69676W        W35156  11.778  43.890  13.333
69677W        W35157  36.002  43.470   0.468
69678W        W35158  19.159  33.392   1.931
69679W        W35159  41.951  22.639  13.039
69680W        W35160  32.534  31.494   1.919
69681W        W35161  15.626  40.912  14.817
69682W        W35162  12.778  12.334   0.738
69683W        W35163  17.712  13.242   1.212
69684W        W35164  31.103  35.906   4.220
69685W        W35165  42.775  22.082  10.566
69686W        W35166  36.566   3.415  14.903
69687W        W35167  25.105  19.765   0.368
69688W        W35168  43.909   0.326  12.881
69689W        W35169   9.713   9.797  14.983
69690W        W35170   1.910  37.470   3.794
69691W        W35171  13.289  21.134  14.319
69692W        W35172  32.430  31.132   0.271
69693W        W35173  13.250  43.809   2.247
69694W        W35174  30.915  24.193  13.050
69695W        W35175  41.005   0.988  12.051
69696W        W35176   1.811   5.211  10.617
69697W        W35177   4.703  10.877   0.934
69698W        W35178   5.789   9.653   1.308
69699W        W35179  24.609  36.949  13.417
69700W        W35180   1.946  33.974   0.456
69701W        W35181  21.080  42.800  13.356
69702W        W35182  40.930  23.212   2.691
69703W        W35183  23.989  12.686   4.785
69704W        W35184  12.228  13.346   1.928
69705W        W35185  41.912  37.061  12.065
69706W        W35186  38.964  33.022  10.908
69707W        W35187  36.887  40.356   3.156
69708W        W35188   7.350  43.802  14.915
69709W        W35189  10.799  15.611   0.337
69710W        W35190  44.484   1.921  14.845
69711W        W35191  43.467  20.130   2.729
69712W        W35192  38.442  29.015   1.322
69713W        W35193   5.219  23.168  14.847
69714W        W35194  36.083  13.218   2.672
69715W        W35195  22.502  31.557   2.752
69716W        W35196   9.827  37.432   4.117
69717W        W35197  31.107  35.474   3.245
69718W        W35198  22.074  26.580  13.844
69719W        W35199  12.132   7.831  13.053
69720W        W35200  18.211  23.239   4.670
69721W        W35201  20.631  13.668  11.600
69722W        W35202  44.399  22.664   5.319
69723W        W35203  24.106  37.515  13.793
69724W        W35204   2.965  22.252  12.467
69725W        W35205  19.139  25.040  11.905
69726W        W35206  12.833   6.730  13.968
69727W        W35207  32.079  44.289  10.490
69728W        W35208  25.632   9.881  14.430
69729W        W35209  35.911  32.044  12.028
69730W        W35210  14.800  12.254  14.334
69731W        W35211   8.266  16.150  13.408
69732W        W35212   1.855  32.594  11.559
69733W        W35213  30.578  12.327   1.935
69734W        W35214  43.815  10.245   2.362
69735W        W35215   0.419   1.303   4.250
69736W        W35216  32.591  25.131  12.562
69737W        W35217  25.534  21.077  14.480
69738W        W35218  36.480  38.367  11.981
69739W        W35219   7.358  34.981   2.347
69740W        W35220  38.473  18.117  12.063
69741W        W35221  35.861  43.284  13.503
69742W        W35222  31.981   0.971   4.165
69743W        W35223  25.487  33.582   1.302
69744W        W35224  15.220  17.621  11.092
69745W        W35225   3.268  33.539  14.940
69746W        W35226  39.335  18.090  10.091
69747W        W35227  32.428  23.615   0.294
69748W        W35228  27.096  21.676   4.278
69749W        W35229  27.103  31.118   1.299
69750W        W35230  29.450  43.373   3.315
69751W        W35231  32.410  38.523   2.810
69752W        W35232   0.793   0.467   2.740
69753W        W35233  21.529  40.414   1.283
69754W        W35234  22.746  33.063  10.550
69755W        W35235  13.702  40.004   0.857
69756W        W35236  11.280  27.188   4.744
69757W        W35237  38.986  19.046  14.333
69758W        W35238  16.805  17.612  13.847
69759W        W35239  39.063  41.787  12.909
69760W        W35240   8.335  24.515  12.005
69761W        W35241  26.599   9.151  13.804
69762W        W35242  44.008  39.831  10.479
69763W        W35243  12.782  10.155  12.934
69764W        W35244  16.672  44.391   4.343
69765W        W35245  15.744  13.711   1.331
69766W        W35246  25.477  37.546  13.801
69767W        W35247  28.084  43.775   2.392
69768W        W35248  15.729   0.326  11.523
69769W        W35249  21.571  31.553   0.873
69770W        W35250   9.250  10.734   2.217
69771W        W35251  27.052   0.988  12.927
69772W        W35252  22.175   7.275   1.844
69773W        W35253  12.289   4.220  13.792
69774W        W35254  24.998  23.591  13.322
69775W        W35255  33.985  30.039  13.395
69776W        W35256  13.243  24.585   2.318
69777W        W35257  44.386   1.790   3.763
69778W        W35258  20.553  31.046  12.862
69779W        W35259  21.695   4.300   1.895
69780W        W35260  18.562  14.758  12.368
69781W        W35261  26.511  34.565   4.619
69782W        W35262  26.491  27.498   1.914
69783W        W35263  19.269  25.517   1.223
69784W        W35264   0.280  21.045  12.378
69785W        W35265  36.414  39.442  12.017
69786W        W35266  15.684  22.244   2.861
69787W        W35267  38.419  12.725  14.951
69788W        W35268  27.619  31.031   4.720
69789W        W35269  19.577   7.247  10.003
69790W        W35270   5.412  44.372  11.067
69791W        W35271  15.730  23.529   1.438
69792W        W35272  24.505  40.846   2.889
69793W        W35273  23.658  32.022  13.432
69794W        W35274  32.943  28.438  13.394
69795W        W35275  38.329  20.169   1.888
69796W        W35276  36.013   7.847  12.532
69797W        W35277  24.131  10.759  14.901
69798W        W35278  17.111   6.840  10.946
69799W        W35279  37.429  10.690  14.482
69800W        W35280   2.897  24.590   0.404
69801W        W35281  14.811  13.609   0.464
69802W        W35282  15.225   4.879  12.990
69803W        W35283  14.756  41.443   5.092
69804W        W35284  10.156  27.483   3.274
69805W        W35285  32.407  29.165  13.048
69806W        W35286  10.223  28.633   2.769
69807W        W35287  27.026  37.357  11.892
69808W        W35288  25.479   1.953   4.611
69809W        W35289  26.137  22.563   3.348
69810W        W35290  29.470  30.050   4.287
69811W        W35291   9.765  30.956  11.512
69812W        W35292  20.581  15.186   3.778
69813W        W35293  13.174  15.773   2.854
69814W        W35294  11.657  31.977  13.944
69815W        W35295  22.128  27.472  14.823
69816W        W35296  22.513  33.058   1.236
69817W        W35297   4.433   4.437  11.892
69818W        W35298  44.387  30.582  11.077
69819W        W35299  25.975   5.420  12.361
69820W        W35300  25.021  40.948   3.697
69821W        W35301   3.865  28.658   3.361
69822W        W35302   2.313  20.704   2.214
69823W        W35303   8.679   1.884  14.309
69824W        W35304  15.728  41.037  12.062
69825W        W35305  29.580  18.749  12.531
69826W        W35306  34.958  30.960  11.908
69827W        W35307  10.330  20.635   0.368
69828W        W35308   0.851   0.399  14.318
69829W        W35309  25.612   8.881  11.557
69830W        W35310  43.810  38.428  10.518
69831W        W35311  44.471  17.271   3.260
69832W        W35312  17.266   8.728  10.537
69833W        W35313   3.334   6.869   4.158
69834W        W35314  30.999  30.420   1.700
69835W        W35315  14.748  18.733   2.697
69836W        W35316  17.071  17.181   2.697
69837W        W35317  33.502  27.646   9.924
69838W        W35318  15.188   6.859  13.925
69839W        W35319  39.435  41.899  14.854
69840W        W35320   4.289  13.209   4.806
69841W        W35321  27.591  24.162   4.598
69842W        W35322  15.720   7.720  10.419
69843W        W35323  21.180  33.528  13.405
69844W        W35324  29.955  11.188  11.492
69845W        W35325  43.883  25.197  11.992
69846W        W35326  43.396  27.023  11.994
69847W        W35327  39.504  33.096   2.834
69848W        W35328  12.766  42.343   1.406
69849W        W35329  19.721   4.225   2.208
69850W        W35330   1.952  27.950  10.996
69851W        W35331  25.049  31.608  12.077
69852W        W35332   0.359  33.123   2.211
69853W        W35333  24.122  15.197  14.373
69854W        W35334  16.811  35.989   0.952
69855W        W35335  41.511  34.929  13.037
69856W        W35336  14.803   9.226  12.852
69857W        W35337  43.381  33.944   3.161
69858W        W35338   0.791  26.174  13.476
69859W        W35339  35.031  31.011   3.299
69860W        W35340  40.408  28.474  12.569
69861W        W35341  10.166   9.210  11.409
69862W        W35342  19.150   0.822   0.290
69863W        W35343  17.565  16.260  14.958
69864W        W35344   0.482  24.690  12.023
69865W        W35345   7.706  21.685   1.291
69866W        W35346  28.599   3.819   4.613
69867W        W35347  13.115   7.770  10.888
69868W        W35348   3.895  37.849   1.932
69869W        W35349  20.249  18.653   1.926
69870W        W35350  17.131  31.526  10.914
69871W        W35351   0.380  29.607   3.814
69872W        W35352  13.622   3.423   1.775
69873W        W35353   7.274  17.162   0.895
69874W        W35354   9.667  30.068   3.193
69875W        W35355  26.609  31.029  12.061
69876W        W35356  21.198   2.926  14.877
69877W        W35357   1.279  32.634  13.839
69878W        W35358  16.150   9.725   2.347
69879W        W35359  30.560  40.306   4.277
69880W        W35360   9.728  39.904  12.532
69881W        W35361  14.292   6.790   4.805
69882W        W35362  18.610  27.061  12.539
69883W        W35363  28.949  32.040  12.871
69884W        W35364  15.087  18.135  10.496
69885W        W35365  11.294  26.103   1.335
69886W        W35366   7.217  17.737  11.937
69887W        W35367  33.439  25.480  12.000
69888W        W35368  11.336   9.321  11.868
69889W        W35369  33.013  27.515  13.459
69890W        W35370   3.746   0.766  14.964
69891W        W35371  23.613  20.142  11.049
69892W        W35372  36.844  40.353   2.869
69893W        W35373   7.373   2.422  11.861
69894W        W35374  37.930  17.221   2.267
69895W        W35375  11.241  42.291  14.402
69896W        W35376  33.053  12.167   0.882
69897W        W35377  20.147  30.100   3.195
69898W        W35378  10.694  17.264  14.406
69899W        W35379  33.978  27.165   4.633
69900W        W35380  21.100  23.601  14.489
69901W        W35381   7.226  26.055   1.265
69902W        W35382  38.916  28.009  11.383
69903W        W35383  12.845  25.535  14.832
69904W        W35384  25.488  43.895   4.124
69905W        W35385  29.057  12.830   4.274
69906W        W35386  13.742  40.848  12.034
69907W        W35387  29.141  28.620   4.790
69908W        W35388  19.051   2.261  12.574
69909W        W35389  36.437  43.017  10.596
69910W        W35390  12.122  26.042   4.254
69911W        W35391  41.810   0.988  13.817
69912W        W35392  42.500  27.574  13.897
69913W        W35393  13.269  10.182   1.355
69914W        W35394  26.468  24.974  14.351
69915W        W35395   9.253  19.708  14.505
69916W        W35396  40.960  27.031   4.796
69917W        W35397  36.920  37.456  13.969
69918W        W35398   3.276  36.407   2.805
69919W        W35399  32.113  41.533   1.809
69920W        W35400  14.645  13.763   2.218
69921W        W35401   6.837  34.015   4.652
69922W        W35402  12.657  17.227   4.312
69923W        W35403   8.768   5.269  13.497
69924W        W35404  38.555  38.907  13.943
69925W        W35405  13.309   1.386  11.500
69926W        W35406  16.099  16.751  12.346
69927W        W35407  24.504  26.658  12.045
69928W        W35408   4.279  25.705  10.491
69929W        W35409  28.574  11.160  13.519
69930W        W35410   9.866  36.529  12.995
69931W        W35411  39.997  38.566  11.983
69932W        W35412  29.008  23.498  13.931
69933W        W35413  30.500  22.579  13.035
69934W        W35414  29.431  11.834   2.384
69935W        W35415   9.361  44.360  14.364
69936W        W35416   0.303   3.763   2.785
69937W        W35417  40.864  22.083  13.823
69938W        W35418  39.444  34.382   4.666
69939W        W35419  30.622  36.559   2.903
69940W        W35420  30.460  25.022   2.351
69941W        W35421  18.549  26.553   5.284
69942W        W35422   6.341  26.126   2.257
69943W        W35423   7.301   7.829  12.989
69944W        W35424  43.406   1.474   3.839
69945W        W35425  23.674  30.630  13.051
69946W        W35426  35.432  31.985  11.582
69947W        W35427  38.453  17.699  10.582
69948W        W35428   5.424  34.976  14.822
69949W        W35429  33.423  10.213   0.824
69950W        W35430  31.919   2.793   0.379
69951W        W35431   6.393   3.254  12.019
69952W        W35432  39.360  34.965  12.360
69953W        W35433  10.786  31.137   3.289
69954W        W35434  41.329   9.819  11.855
69955W        W35435  17.252  15.636   3.798
69956W        W35436   5.385   6.338   4.175
69957W        W35437  15.634   4.259   0.456
69958W        W35438  14.648  29.955  11.461
69959W        W35439  31.906   2.234  14.867
69960W        W35440  36.943   8.897   1.246
69961W        W35441  15.770  19.747   2.702
69962W        W35442  41.440  42.515   3.723
69963W        W35443   0.797  21.218  11.898
69964W        W35444  14.821  34.948  12.339
69965W        W35445  27.162  36.950  14.012
69966W        W35446  36.905  15.577   0.370
69967W        W35447  23.621  39.357   1.259
69968W        W35448  11.854  21.694   2.178
69969W        W35449  43.924  33.580   3.147
69970W        W35450  37.566  22.233  13.488
69971W        W35451  36.995  32.962   3.670
69972W        W35452   3.461   4.902   1.228
69973W        W35453  14.622   5.367  13.421
69974W        W35454  34.420   6.786  11.004
69975W        W35455  25.511   8.387   3.290
69976W        W35456  30.026  18.198  11.035
69977W        W35457  18.546  18.788  10.416
69978W        W35458  40.328  24.986   4.350
69979W        W35459   4.741  23.542   4.813
69980W        W35460  43.407   1.826  12.569
69981W        W35461  43.360   4.708  12.030
69982W        W35462  42.382   2.928  12.021
69983W        W35463   9.810  34.519  12.993
69984W        W35464  12.124  29.153   3.224
69985W        W35465   3.276  21.610  13.539
69986W        W35466   2.344  18.149  12.415
69987W        W35467  25.023   1.962   1.755
69988W        W35468  29.570  15.099  14.506
69989W        W35469  15.818  38.358  14.459
69990W        W35470  22.097   7.326   4.330
69991W        W35471  19.171  11.644   0.418
69992W        W35472   2.923  14.790   3.835
69993W        W35473  15.688  21.571  11.005
69994W        W35474  26.067  26.133  12.495
69995W        W35475  24.653  38.846   2.365
69996W        W35476  41.429  13.699  14.449
69997W        W35477  30.484  32.968  11.428
69998W        W35478   3.303   3.328   5.215
69999W        W35479  17.242  20.643  11.016
70000W        W35480   0.425  11.350  10.962
70001W        W35481  16.075  40.354   4.830
70002W        W35482  20.717   5.752  13.514
70003W        W35483   1.279  38.912   4.349
70004W        W35484  19.159  13.695   3.296
70005W        W35485  28.130  10.861   3.770
70006W        W35486  15.230  27.954  10.968
70007W        W35487  10.643  30.585  10.624
70008W        W35488   4.868  25.067   1.791
70009W        W35489  11.649  16.571  14.977
70010W        W35490   1.792  33.030  13.356
70011W        W35491  32.946  40.974  11.906
70012W        W35492   9.194  12.220  11.441
70013W        W35493  18.139  29.119   1.376
70014W        W35494   2.317  28.602   3.223
70015W        W35495  25.589  29.019   4.782
70016W        W35496  14.608  36.469  12.501
70017W        W35497   2.409  35.419  14.937
70018W        W35498  33.113  20.721   0.908
70019W        W35499  37.886  10.637  11.065
70020W        W35500  10.215  19.281  12.025
70021W        W35501   7.188  38.391   1.340
70022W        W35502  20.229  37.869   4.343
70023W        W35503  33.989  23.034   4.321
70024W        W35504   0.759  26.671   2.265
70025W        W35505   9.646  13.785   4.194
70026W        W35506  24.985   9.244   9.656
70027W        W35507   7.735  17.555  11.858
70028W        W35508   7.897  32.902   2.358
70029W        W35509   2.832  16.244   4.163
70030W        W35510  17.232  29.605  10.123
70031W        W35511  12.660  37.399   2.373
70032W        W35512  10.860  34.610   2.805
70033W        W35513  34.023  21.559   1.397
70034W        W35514  41.463  26.123  12.858
70035W        W35515  38.350  30.986  11.893
70036W        W35516  40.357   8.723   0.838
70037W        W35517  42.318  22.629   1.340
70038W        W35518  18.119   3.282  10.462
70039W        W35519  27.541  21.656  13.839
70040W        W35520  13.261  14.266  10.004
70041W        W35521  34.461  18.724   2.284
70042W        W35522   0.891  10.769   4.767
70043W        W35523  18.133  16.667  11.880
70044W        W35524  18.767  24.597   0.743
70045W        W35525   9.343  25.123  10.525
70046W        W35526  38.490   4.323  10.624
70047W        W35527   2.929  11.822   0.476
70048W        W35528  25.606  40.546   2.361
70049W        W35529  35.883  21.131   2.419
70050W        W35530  21.245   0.986  10.578
70051W        W35531  41.406  43.948   3.869
70052W        W35532  17.294  16.210  11.456
70053W        W35533  17.575  17.235   2.864
70054W        W35534  23.502  27.036  11.076
70055W        W35535  31.638  11.184  13.377
70056W        W35536  21.685  23.190   0.389
70057W        W35537  41.018  13.172   0.850
70058W        W35538  12.340  10.163  10.557
70059W        W35539  29.483  19.263   2.730
70060W        W35540  27.995  10.282   4.265
70061W        W35541  22.581  24.106  11.030
70062W        W35542  40.015  23.615  12.445
70063W        W35543  38.473  15.816  14.370
70064W        W35544   0.903  27.941   2.692
70065W        W35545  43.331  33.025   0.908
70066W        W35546  10.812  20.274   4.338
70067W        W35547  14.666  44.392   4.280
70068W        W35548  21.645  40.814   1.274
70069W        W35549  41.295   1.884  11.064
70070W        W35550  36.885  34.914   2.253
70071W        W35551  34.480  14.801  11.947
70072W        W35552  40.433  13.704   3.270
70073W        W35553  34.008  14.817  13.317
70074W        W35554  29.971  29.944  11.432
70075W        W35555  23.104  11.822   4.772
70076W        W35556   3.223   2.753  11.488
70077W        W35557  19.098  19.634  12.073
70078W        W35558  30.525   5.397   3.268
70079W        W35559  13.795  37.442   2.246
70080W        W35560  42.448  18.290   1.406
70081W        W35561  26.091   9.648   4.244
70082W        W35562  35.988  31.420   0.439
70083W        W35563  42.405  13.221   0.880
70084W        W35564   1.848  34.410  14.431
70085W        W35565  22.226  26.574   3.748
70086W        W35566  26.995  36.582   2.809
70087W        W35567   5.756  14.122   1.908
70088W        W35568  32.449   6.401   0.353
70089W        W35569  14.718  40.341  13.046
70090W        W35570  17.747  24.667  13.443
70091W        W35571  31.019  42.942  10.132
70092W        W35572  36.004  36.397  10.403
70093W        W35573  41.402  44.286   4.726
70094W        W35574  40.457  28.670  10.404
70095W        W35575  34.863  10.170   9.946
70096W        W35576  34.883  21.752   3.720
70097W        W35577  38.031  30.602   3.342
70098W        W35578  43.011  27.567  13.384
70099W        W35579  43.878  16.668  14.942
70100W        W35580  11.826  43.489   0.394
70101W        W35581  18.589  11.827  10.157
70102W        W35582  32.903  22.234  14.835
70103W        W35583   0.884  19.663  13.430
70104W        W35584  27.969  41.808   1.733
70105W        W35585   5.200  37.481   4.611
70106W        W35586  22.626  26.475   2.796
70107W        W35587  26.992   5.764   4.150
70108W        W35588  33.524  39.384   3.265
70109W        W35589  31.533  12.741   3.684
70110W        W35590  15.129  22.557   4.263
70111W        W35591  34.391   2.791  11.520
70112W        W35592  21.252  32.947  12.062
70113W        W35593  42.446   3.860   2.257
70114W        W35594   3.835  42.487   2.685
70115W        W35595  17.193  15.673   0.354
70116W        W35596  34.917  24.223   5.095
70117W        W35597   1.459   6.779   2.812
70118W        W35598   7.323  12.740   3.242
70119W        W35599   1.250   0.944   1.805
70120W        W35600  25.997   1.335  13.461
70121W        W35601  14.141  23.675  13.926
70122W        W35602  21.168  27.033  14.949
70123W        W35603   0.758  36.884   4.792
70124W        W35604   2.962  30.478   1.714
70125W        W35605  16.147  20.711  14.862
70126W        W35606  28.573  11.796  12.497
70127W        W35607   9.831  17.294   3.866
70128W        W35608  11.285  11.354   1.285
70129W        W35609  41.364  28.990   2.744
70130W        W35610   6.263   1.391   3.354
70131W        W35611   6.333   6.684   3.227
70132W        W35612  34.535  16.727   2.383
70133W        W35613  35.378  32.071   1.867
70134W        W35614  42.429   2.928   3.866
70135W        W35615  30.542  31.647  12.528
70136W        W35616  23.634   0.755   5.313
70137W        W35617   3.811  30.465  12.926
70138W        W35618  43.831   2.837  14.988
70139W        W35619  34.431  24.052  12.898
70140W        W35620  31.456  34.443  14.305
70141W        W35621  33.422  28.982  12.431
70142W        W35622  44.350  43.405   1.725
70143W        W35623   0.902  22.147  12.011
70144W        W35624  24.098  14.804  12.848
70145W        W35625  12.324  28.461  10.984
70146W        W35626  43.421  19.129  14.509
70147W        W35627  35.467  19.727  13.819
70148W        W35628  28.152  10.742  12.022
70149W        W35629  42.369  31.142  12.920
70150W        W35630  11.678  37.897   3.229
70151W        W35631   7.173  22.619   2.750
70152W        W35632  14.730  38.032  11.922
70153W        W35633   8.747  36.964  12.465
70154W        W35634  30.415  19.048   4.340
70155W        W35635  10.305  10.376   1.741
70156W        W35636  28.138  18.120  12.427
70157W        W35637  27.956  32.629   2.218
70158W        W35638  33.583  37.422   2.823
70159W        W35639  28.046  15.606   5.277
70160W        W35640  39.541  32.014  10.574
70161W        W35641  36.863   5.912   2.333
70162W        W35642  42.876   6.810   1.925
70163W        W35643   1.930   0.322  12.996
70164W        W35644   3.227  21.241  11.454
70165W        W35645  14.247  30.945  13.432
70166W        W35646  32.474  37.498  13.884
70167W        W35647  18.173  39.020  11.517
70168W        W35648  26.654   4.756  14.848
70169W        W35649   9.268  19.088  11.491
70170W        W35650   1.889  41.854   0.798
70171W        W35651   9.331  33.448   4.346
70172W        W35652  30.061  24.980  12.488
70173W        W35653  44.475   6.740  11.889
70174W        W35654  43.359  30.475   3.686
70175W        W35655   3.329   5.859   9.988
70176W        W35656  21.118   0.936  12.540
70177W        W35657   9.697   9.801   2.760
70178W        W35658  22.021  23.573  14.291
70179W        W35659  37.872  44.387   4.829
70180W        W35660   7.181  15.205  13.827
70181W        W35661   9.888  29.038   1.228
70182W        W35662   5.693   6.859   2.197
70183W        W35663   6.821   5.316  12.877
70184W        W35664  20.704  21.133  13.843
70185W        W35665  10.833  40.525  13.311
70186W        W35666   8.686  31.050  10.460
70187W        W35667   2.298  20.617  13.877
70188W        W35668   6.236  26.673   3.297
70189W        W35669  28.578   7.859  11.910
70190W        W35670   3.873  16.683  12.504
70191W        W35671  30.658  23.237   4.653
70192W        W35672  40.977  44.475   3.803
70193W        W35673   4.929  12.718   2.384
70194W        W35674  33.941  32.127  10.017
70195W        W35675  13.839  10.667   1.428
70196W        W35676  42.371  11.323   3.729
70197W        W35677   0.936  21.143   5.220
70198W        W35678  27.044  21.521  12.860
70199W        W35679  26.118  43.365  11.103
70200W        W35680  28.043  36.960   0.926
70201W        W35681  10.842   8.250  11.569
70202W        W35682  34.542  12.671  10.592
70203W        W35683  20.643  33.045   1.414
70204W        W35684   2.732  41.359   4.786
70205W        W35685   0.453   3.454   3.637
70206W        W35686  17.113  10.369  13.538
70207W        W35687  40.977  37.887   2.673
70208W        W35688  41.926   4.449  14.955
70209W        W35689  14.255  39.914  10.954
70210W        W35690  25.532  22.220   0.396
70211W        W35691  35.942  19.644   5.260
70212W        W35692  31.642  39.060  10.958
70213W        W35693   2.807   5.356  12.359
70214W        W35694   4.376  22.625  13.540
70215W        W35695  34.502  31.628  10.443
70216W        W35696  43.771  22.613  13.812
70217W        W35697  40.846  25.588   2.797
70218W        W35698  34.558  29.016   4.241
70219W        W35699  33.391   1.872   0.307
70220W        W35700  40.394   8.740  12.399
70221W        W35701  34.093   7.385  12.348
70222W        W35702   9.854  35.558  12.018
70223W        W35703  42.382  25.144  11.115
70224W        W35704   3.757  17.597   0.263
70225W        W35705  25.691  41.014   1.700
70226W        W35706  43.304  11.322   0.281
70227W        W35707  41.302  35.972   3.371
70228W        W35708  27.550   7.720  12.441
70229W        W35709  11.223  34.893  13.025
70230W        W35710  24.529  33.611  13.932
70231W        W35711  30.974  36.966  10.555
70232W        W35712  33.962  24.126  13.050
70233W        W35713  30.996  20.537   1.882
70234W        W35714  36.085  38.407  12.934
70235W        W35715  18.216   8.274   4.667
70236W        W35716   5.269  35.549  10.506
70237W        W35717   5.705  33.891   3.702
70238W        W35718  24.193  26.145   1.826
70239W        W35719  31.478   9.870  11.059
70240W        W35720  26.633  22.193   1.323
70241W        W35721  39.817  40.985  12.397
70242W        W35722  44.944  39.486  14.843
70243W        W35723  12.622  10.249   4.718
70244W        W35724  10.818  15.778   3.834
70245W        W35725  43.785   2.819   4.117
70246W        W35726  43.506  34.582   3.704
70247W        W35727  39.431  43.492   3.381
70248W        W35728  22.725  41.852   1.840
70249W        W35729  38.896  23.675  10.001
70250W        W35730  12.301  20.147   0.372
70251W        W35731  28.461  41.354   0.274
70252W        W35732   8.173  29.583   3.218
70253W        W35733  15.178  19.265   4.752
70254W        W35734  25.504  38.827   0.481
70255W        W35735  18.285  14.725   1.918
70256W        W35736   7.344   5.283   0.330
70257W        W35737  39.431  35.939  13.921
70258W        W35738   3.416  29.611   0.936
70259W        W35739   5.870  14.823   4.836
70260W        W35740   0.353  10.256   3.793
70261W        W35741   6.327   4.278   0.426
70262W        W35742  32.113  25.187   1.933
70263W        W35743   6.426  14.687   4.809
70264W        W35744  35.967  43.491   2.879
70265W        W35745  14.721  19.255  11.923
70266W        W35746  20.118   1.448   2.778
70267W        W35747  43.513  41.395   0.785
70268W        W35748  37.959   4.284  14.463
70269W        W35749  14.779  23.635   0.821
70270W        W35750  17.262  28.657   2.213
70271W        W35751   2.947  16.711   0.287
70272W        W35752  26.560  38.822   9.946
70273W        W35753  20.071  43.297  14.322
70274W        W35754   1.745  26.978   0.881
70275W        W35755  40.379   1.745  14.462
70276W        W35756  22.572  32.916   2.829
70277W        W35757  25.113  37.076   4.610
70278W        W35758  12.362  25.202   4.315
70279W        W35759  44.773  21.045  12.422
70280W        W35760  23.049  10.340  14.297
70281W        W35761  23.145  22.700   4.664
70282W        W35762  26.024  13.664   3.793
70283W        W35763   7.245  31.943   2.416
70284W        W35764  21.159  37.002   3.256
70285W        W35765  36.359   9.206  12.904
70286W        W35766  20.226  12.255  11.915
70287W        W35767  12.321   7.269  13.997
70288W        W35768   0.473  13.260  12.528
70289W        W35769  16.273  25.979  14.479
70290W        W35770  33.427   2.964   2.688
70291W        W35771  22.698   0.811  11.944
70292W        W35772  40.022   3.372   3.274
70293W        W35773  29.963  25.660  14.396
70294W        W35774  42.969  31.108  11.382
70295W        W35775  22.746  20.598  12.036
70296W        W35776  18.189  41.825  14.473
70297W        W35777  20.051  25.008   2.188
70298W        W35778  38.837   0.301   2.716
70299W        W35779  14.782  15.739  10.587
70300W        W35780  22.728  28.589  11.550
70301W        W35781   9.695  21.258  12.941
70302W        W35782  41.998  11.785  12.001
70303W        W35783  15.257  22.041   0.869
70304W        W35784  41.007  27.117  11.930
70305W        W35785  40.408   3.748  11.056
70306W        W35786  29.169  27.549  11.900
70307W        W35787  26.487   4.426   3.372
70308W        W35788  32.559  43.885   3.773
70309W        W35789  27.468  15.698  14.779
70310W        W35790  30.041  31.548   0.253
70311W        W35791  15.778  43.349  14.954
70312W        W35792  10.289  33.449   2.350
70313W        W35793  21.036   4.888   3.361
70314W        W35794  33.004  44.321  12.508
70315W        W35795  34.447  32.043  11.975
70316W        W35796  25.626  20.689   0.823
70317W        W35797  11.644  20.576  13.052
70318W        W35798  10.756  13.737   1.702
70319W        W35799   3.910  24.675  14.355
70320W        W35800  11.180  28.175  14.891
70321W        W35801  28.644  40.351  12.522
70322W        W35802  22.646  22.206   3.685
70323W        W35803  44.876  18.201  14.764
70324W        W35804  26.470  42.307  12.993
70325W        W35805  28.178  36.494   2.862
70326W        W35806  13.286  35.855  10.079
70327W        W35807   8.290  32.937   4.159
70328W        W35808  35.576  23.703   1.782
70329W        W35809   3.343  31.907  14.845
70330W        W35810  20.622  17.654   3.182
70331W        W35811  31.596   7.335   0.248
70332W        W35812  19.769  38.328  11.872
70333W        W35813  34.111   4.899   3.750
70334W        W35814   8.294   7.316   1.884
70335W        W35815  35.462  38.364  10.571
70336W        W35816   5.918  36.509   4.667
70337W        W35817  18.114  12.317  11.387
70338W        W35818  23.214  28.667  10.639
70339W        W35819   0.423  10.354   0.879
70340W        W35820  26.072  21.667  11.508
70341W        W35821  31.511  41.330   2.800
70342W        W35822  26.025   1.939  12.368
70343W        W35823  15.306  25.973   3.184
70344W        W35824  33.513  42.878   4.155
70345W        W35825  22.708   0.422   0.782
70346W        W35826  30.086   8.264   1.269
70347W        W35827  17.621  24.566  10.528
70348W        W35828  26.513  19.777   1.843
70349W        W35829  41.524  16.627   2.889
70350W        W35830  18.644  41.343  11.416
70351W        W35831  36.580  13.125  14.499
70352W        W35832  16.107  34.085  13.349
70353W        W35833  17.128  20.679   4.353
70354W        W35834  19.730   6.753   4.784
70355W        W35835  16.750  14.761  11.981
70356W        W35836  43.310  18.553  10.414
70357W        W35837  19.071  26.091  14.439
70358W        W35838  44.921  15.325   1.252
70359W        W35839  26.461  44.272   0.398
70360W        W35840  24.527  35.032  13.539
70361W        W35841   9.882  42.947  14.408
70362W        W35842  27.653   7.300  14.970
70363W        W35843   6.427  26.071   1.214
70364W        W35844  17.073  31.990  12.854
70365W        W35845  15.117  40.413   2.378
70366W        W35846  34.563  16.796  12.917
70367W        W35847   2.905  39.983  10.957
70368W        W35848   7.706  16.142  11.388
70369W        W35849   9.668  21.557  14.456
70370W        W35850   0.978  14.798  11.375
70371W        W35851  24.105  21.146   1.348
70372W        W35852  37.087  37.085   0.429
70373W        W35853  33.491  17.684  14.491
70374W        W35854   1.250   1.266   4.663
70375W        W35855  24.597  34.016   1.320
70376W        W35856   0.974  24.480  12.913
70377W        W35857  27.568   0.762  13.931
70378W        W35858  22.596  38.513  10.955
70379W        W35859  26.589  16.098  12.044
70380W        W35860  18.256  41.842  11.994
70381W        W35861  12.745  11.654  12.902
70382W        W35862  24.643  16.313  10.958
70383W        W35863  13.653  24.063  11.387
70384W        W35864  11.665  30.147   3.303
70385W        W35865  27.976   2.722   2.856
70386W        W35866  14.332  31.581   0.797
70387W        W35867  38.066  15.172  13.858
70388W        W35868  26.677  37.528  10.945
70389W        W35869  24.097  34.900   3.315
70390W        W35870  12.142  42.824   3.724
70391W        W35871  41.382  42.456  14.951
70392W        W35872  41.898  13.305  10.941
70393W        W35873   2.246  15.153  10.629
70394W        W35874  41.307   8.658   3.761
70395W        W35875  19.678   5.220  12.042
70396W        W35876  21.243  10.359   3.851
70397W        W35877  14.220   5.884   3.350
70398W        W35878  32.438  22.071  14.279
70399W        W35879   5.348  40.320  10.932
70400W        W35880   9.852  24.078  10.416
70401W        W35881  33.022  37.980   0.394
70402W        W35882  33.888  10.827   1.302
70403W        W35883   3.711   1.876   1.361
70404W        W35884  17.629  35.990  14.943
70405W        W35885   1.758  38.866   0.839
70406W        W35886  17.709   0.877  11.375
70407W        W35887   9.877  37.082   2.886
70408W        W35888  26.204  41.816  14.291
70409W        W35889   2.468  13.158   2.782
70410W        W35890  17.667  30.031   2.698
70411W        W35891  25.520   3.749  10.623
70412W        W35892   3.291  23.030  14.466
70413W        W35893  34.893  40.368   3.193
70414W        W35894  32.904  31.903   1.245
70415W        W35895  13.160  37.048   2.223
70416W        W35896  33.406   0.881  13.880
70417W        W35897  24.607  40.983   3.156
70418W        W35898  40.012  12.284   2.267
70419W        W35899  26.029  35.982   2.674
70420W        W35900  28.061  42.786   1.414
70421W        W35901  20.575  16.599   0.466
70422W        W35902   4.418  10.286  10.628
70423W        W35903   8.202  21.735   1.286
70424W        W35904  21.716  33.941  13.893
70425W        W35905  35.414  35.045   2.838
70426W        W35906   6.849  31.455  14.303
70427W        W35907  34.375  19.579  14.772
70428W        W35908  22.525  17.084  11.993
70429W        W35909  37.442  23.007  11.104
70430W        W35910   8.385   3.236  12.416
70431W        W35911  29.037  40.532   3.744
70432W        W35912  20.613  32.560  14.476
70433W        W35913   7.188  42.416  11.904
70434W        W35914  26.192  19.078  13.033
70435W        W35915  33.497   0.426  13.447
70436W        W35916  20.731  10.230  14.939
70437W        W35917   3.416  23.241   0.744
70438W        W35918  38.461  20.703  13.991
70439W        W35919  34.579  35.856   0.810
70440W        W35920  13.652  13.759   1.246
70441W        W35921  16.701  11.372   2.780
70442W        W35922  20.756  37.506  13.909
70443W        W35923   4.361  13.671   3.784
70444W        W35924  17.684  37.927  10.512
70445W        W35925   2.236  27.991  10.408
70446W        W35926  36.565   9.369   1.288
70447W        W35927  15.197  23.668   3.787
70448W        W35928   6.338  33.066  13.057
70449W        W35929  28.677  28.964  10.491
70450W        W35930  31.027  11.779   1.240
70451W        W35931   4.400  25.979  11.010
70452W        W35932  26.557  39.833   1.808
70453W        W35933   0.756  44.842  12.411
70454W        W35934   3.854  32.042   1.829
70455W        W35935  20.531  39.548  11.458
70456W        W35936  16.298  40.334  10.994
70457W        W35937  18.663   2.366  11.058
70458W        W35938  30.982   3.883   0.387
70459W        W35939  34.589  42.346  13.419
70460W        W35940  15.708  11.146  10.150
70461W        W35941  33.568  32.097  11.543
70462W        W35942   0.769  44.790   1.356
70463W        W35943  23.699  44.893  11.429
70464W        W35944   1.751   9.732   1.903
70465W        W35945   6.867   2.904  12.038
70466W        W35946   7.373  25.985  12.383
70467W        W35947   8.848  19.748   1.412
70468W        W35948   7.812  41.960  11.918
70469W        W35949  10.666  33.090   4.261
70470W        W35950  31.448   0.414  13.943
70471W        W35951  13.607   6.825   0.349
70472W        W35952  32.108  31.927   3.228
70473W        W35953   6.813  37.564   2.301
70474W        W35954  11.166   4.373   0.897
70475W        W35955  41.426   4.822  13.023
70476W        W35956   6.231  22.165  13.536
70477W        W35957   6.848  16.170   1.821
70478W        W35958  28.957   7.687  13.367
70479W        W35959  21.749  35.007  11.868
70480W        W35960  17.303  37.977  13.968
70481W        W35961  33.623   8.672   0.967
70482W        W35962  19.266  16.600   0.887
70483W        W35963  44.471  26.175  12.827
70484W        W35964  23.708  40.809  10.476
70485W        W35965   9.787  19.239  12.994
70486W        W35966  22.584  13.162  10.530
70487W        W35967  25.561  11.193   0.277
70488W        W35968  33.564  30.085  13.793
70489W        W35969  36.543  27.013   1.848
70490W        W35970  43.850   3.268   1.747
70491W        W35971   9.242   1.446   1.853
70492W        W35972  39.432  32.460   0.411
70493W        W35973  31.514  26.684   4.222
70494W        W35974  39.529  25.079   0.472
70495W        W35975   4.883  17.773  13.965
70496W        W35976  36.893  41.409   2.890
70497W        W35977   6.378  38.337  14.903
70498W        W35978  31.445   8.332   1.261
70499W        W35979   4.736  30.579   4.660
70500W        W35980  27.187  26.046  12.427
70501W        W35981  36.954  29.658   2.672
70502W        W35982  15.789  25.011  14.442
70503W        W35983  23.558  21.594  10.891
70504W        W35984  24.095  31.048  12.876
70505W        W35985   4.933   2.803  12.076
70506W        W35986  34.451  21.131  12.543
70507W        W35987   7.407  13.839  14.439
70508W        W35988  17.762  22.713  12.572
70509W        W35989  19.737  21.095   3.849
70510W        W35990  32.466   3.949  12.876
70511W        W35991  24.617  21.226   2.689
70512W        W35992  24.723  31.638  12.873
70513W        W35993  18.617  20.178   4.807
70514W        W35994  32.037  36.389   2.207
70515W        W35995  27.609  37.883   2.337
70516W        W35996   5.375  11.800   2.699
70517W        W35997  31.934  22.549   2.367
70518W        W35998  22.228   0.770   1.747
70519W        W35999  12.354  34.913  13.952
70520W        W36000   9.752  33.555  13.858
70521W        W36001  39.847   8.277  12.932
70522W        W36002  21.026  18.597   3.344
70523W        W36003  16.109  20.048   2.865
70524W        W36004  17.282  22.695  12.974
70525W        W36005   1.451  27.021  14.974
70526W        W36006  13.637  30.063  11.015
70527W        W36007  40.040  28.084  10.442
70528W        W36008  42.293   0.754  12.037
70529W        W36009  38.823   9.315  11.912
70530W        W36010  34.581  19.216   0.304
70531W        W36011  33.118  33.612   4.122
70532W        W36012   3.889  17.148  13.380
70533W        W36013  17.191  27.451   2.693
70534W        W36014  13.346  31.021   2.731
70535W        W36015  37.032   6.718  12.516
70536W        W36016   2.735  13.246  13.392
70537W        W36017  27.634  39.974   0.796
70538W        W36018  31.907  26.698   3.148
70539W        W36019   8.401  13.770   2.716
70540W        W36020  19.568   3.451  13.447
70541W        W36021  39.874  28.436  14.816
70542W        W36022   3.933   9.816  11.112
70543W        W36023  11.685  18.108   1.905
70544W        W36024  18.262  31.936   4.124
70545W        W36025  30.939   7.372  11.050
70546W        W36026   2.391  23.121  10.557
70547W        W36027  22.509  28.932   4.346
70548W        W36028   6.363  25.643   2.186
70549W        W36029  44.405  31.985  13.965
70550W        W36030  42.820  30.982   2.363
70551W        W36031  41.955   8.267   3.661
70552W        W36032  18.174  14.611   2.742
70553W        W36033  38.380   7.244  13.492
70554W        W36034  19.149  26.469   3.151
70555W        W36035  23.541  22.070   3.837
70556W        W36036  15.808  18.667   2.376
70557W        W36037  43.785   0.934  12.891
70558W        W36038  37.535  16.784   3.264
70559W        W36039  27.091  12.694   2.766
70560W        W36040  43.482  26.504  10.892
70561W        W36041  26.025   1.758  12.087
70562W        W36042  11.674  35.918  10.983
70563W        W36043   2.281  17.185   1.864
70564W        W36044  19.135  28.007   1.394
70565W        W36045  16.317  24.485  11.988
70566W        W36046  21.050  34.372   2.780
70567W        W36047  15.294  24.581   1.697
70568W        W36048  11.634  13.285   3.258
70569W        W36049  41.031   7.392   0.308
70570W        W36050  41.966  24.009  13.396
70571W        W36051  42.986   0.765   3.655
70572W        W36052  43.823  37.407  11.410
70573W        W36053  33.572  13.253  11.583
70574W        W36054  18.054  12.310  10.901
70575W        W36055   5.841  29.640   3.815
70576W        W36056  25.496  42.325  14.969
70577W        W36057  14.326  40.828  11.891
70578W        W36058  30.526  24.064  10.566
70579W        W36059  37.983   8.691  11.483
70580W        W36060   9.249  15.580   2.322
70581W        W36061  22.180  22.726   2.256
70582W        W36062  42.379   3.872   0.285
70583W        W36063  16.251  42.915  14.427
70584W        W36064  25.650   6.730   3.280
70585W        W36065  44.838   6.729   1.292
70586W        W36066   1.841   0.824  14.314
70587W        W36067  21.611   5.384  11.900
70588W        W36068  31.416   1.366   0.310
70589W        W36069  22.639   4.721  11.470
70590W        W36070  35.870  19.079   0.298
70591W        W36071  34.909   1.974  14.899
70592W        W36072   1.307  33.021  11.481
70593W        W36073   6.388  40.509  13.333
70594W        W36074   1.797   8.727  13.917
70595W        W36075  39.045  10.679   1.371
70596W        W36076   3.859  11.150   4.716
70597W        W36077  33.500  20.697  11.030
70598W        W36078  24.982  35.510   2.816
70599W        W36079  41.468  37.541   3.694
70600W        W36080  14.815  26.685   3.238
70601W        W36081   3.920  31.059   2.671
70602W        W36082   1.740  33.098   4.830
70603W        W36083  23.200  39.358  12.517
70604W        W36084  30.010  32.050   2.880
70605W        W36085  41.529  31.488   0.480
70606W        W36086  30.615  19.166   3.300
70607W        W36087  18.714   1.335  11.867
70608W        W36088  27.988  32.531  11.385
70609W        W36089  32.447   8.280  12.383
70610W        W36090  12.210   6.765   1.317
70611W        W36091  44.389  16.172   0.729
70612W        W36092  42.333  35.868  11.019
70613W        W36093  23.232  13.812   4.746
70614W        W36094  16.765  33.466  10.419
70615W        W36095  24.162  11.786  10.976
70616W        W36096  37.990  19.595   4.351
70617W        W36097  39.318  38.455  13.035
70618W        W36098   2.961  25.676   3.243
70619W        W36099  28.931  38.859   3.243
70620W        W36100  13.257  37.028  12.356
70621W        W36101  25.664  15.771   4.635
70622W        W36102  41.014  20.623  12.410
70623W        W36103  29.470  39.548  12.353
70624W        W36104  33.880  12.136   3.819
70625W        W36105  11.148  24.622   1.222
70626W        W36106  33.031  17.719  13.982
70627W        W36107   3.366  37.954  13.816
70628W        W36108  31.536  39.345  14.815
70629W        W36109  14.166  33.069  11.565
70630W        W36110  42.861  39.846   0.330
70631W        W36111  30.498  11.660  14.927
70632W        W36112   0.476   8.795  13.004
70633W        W36113  18.189  43.427  14.018
70634W        W36114  41.989  30.525  12.506
70635W        W36115  39.871  40.410  11.456
70636W        W36116  24.182  34.015  14.968
70637W        W36117  24.646  29.490   4.127
70638W        W36118  39.822  25.986   2.249
70639W        W36119  33.970  10.732  13.387
70640W        W36120  25.161  17.180  12.994
70641W        W36121  38.825  14.316  14.959
70642W        W36122  38.328  31.133  10.914
70643W        W36123  14.213  21.737   1.877
70644W        W36124   3.278  21.749   4.212
70645W        W36125  28.502  37.080  14.832
70646W        W36126   4.303   8.195  11.903
70647W        W36127  13.189   6.311  10.609
70648W        W36128  38.033  16.760  14.296
70649W        W36129  14.726  42.786   3.744
70650W        W36130   7.676  41.037   2.343
70651W        W36131  29.997   0.818  12.041
70652W        W36132  23.554   1.974   0.729
70653W        W36133   9.327  21.040  11.925
70654W        W36134  12.728  27.172  12.097
70655W        W36135   3.290  17.088   1.446
70656W        W36136  21.608  19.147  14.486
70657W        W36137  35.943  42.466   1.286
70658W        W36138  10.643  16.124  12.518
70659W        W36139  29.572  28.546   4.144
70660W        W36140  24.656   9.219  10.546
70661W        W36141  15.266  13.250  12.984
70662W        W36142  41.487   6.842  13.844
70663W        W36143   9.813  25.150   2.234
70664W        W36144   6.831  24.541   3.716
70665W        W36145  31.919  37.088   1.420
70666W        W36146  16.186   8.798  14.953
70667W        W36147  32.115  33.599  13.906
70668W        W36148  17.770  31.923  13.882
70669W        W36149  27.974  40.507   2.366
70670W        W36150  39.888  16.789   1.299
70671W        W36151  22.591  36.939   1.707
70672W        W36152  37.567  31.976   0.770
70673W        W36153  41.446  13.775   0.340
70674W        W36154   6.302  17.075  14.387
70675W        W36155  15.299   6.317  13.928
70676W        W36156  34.611   9.183   4.710
70677W        W36157   6.207  17.666  13.449
70678W        W36158   4.906  39.865  13.916
70679W        W36159  35.105  18.140   4.179
70680W        W36160   6.754  38.541  11.385
70681W        W36161  34.114  36.039  14.875
70682W        W36162  41.957  16.803   4.226
70683W        W36163  20.746  43.991  14.428
70684W        W36164  43.324  42.304  12.086
70685W        W36165  10.758  24.486   2.337
70686W        W36166   1.276  35.871   2.787
70687W        W36167   0.745  25.689  11.547
70688W        W36168  32.614   1.450   3.667
70689W        W36169  28.080  11.707   4.676
70690W        W36170  11.778  44.861  14.434
70691W        W36171  19.127  32.050  10.908
70692W        W36172  14.814  11.144   1.804
70693W        W36173  34.955  38.428  10.566
70694W        W36174  39.978  32.575  12.538
70695W        W36175  35.564  43.942   3.779
70696W        W36176   9.815   4.838   4.778
70697W        W36177  32.107  29.967  13.840
70698W        W36178  43.449  24.568   0.477
70699W        W36179  35.556  13.620  10.981
70700W        W36180  26.125   0.420   0.447
70701W        W36181   6.742   8.747  13.312
70702W        W36182  31.965  19.199   0.794
70703W        W36183   9.789  41.379  13.944
70704W        W36184  43.331   0.926   4.696
70705W        W36185  38.072  30.543  11.070
70706W        W36186  28.005  13.788   4.210
70707W        W36187  35.571  40.816   4.252
70708W        W36188   0.311  14.666   4.701
70709W        W36189  25.977  22.202  11.050
70710W        W36190  42.362  16.601  13.966
70711W        W36191  13.801   8.741  11.516
70712W        W36192  21.521   6.393  13.838
70713W        W36193  12.626  19.604  11.995
70714W        W36194   9.792  25.700   3.239
70715W        W36195   4.927  37.577  10.129
70716W        W36196  26.632  35.875  11.566
70717W        W36197  18.776  36.489   4.647
70718W        W36198  40.919  24.694   0.246
70719W        W36199  21.242  17.720  13.438
70720W        W36200  43.361  31.428  11.542
70721W        W36201  20.161  39.418  13.968
70722W        W36202  11.280  11.778  13.052
70723W        W36203  11.673  15.810  11.946
70724W        W36204  42.422  23.594   0.245
70725W        W36205  23.041  30.614   0.949
70726W        W36206  23.672  17.693   3.845
70727W        W36207  41.350  15.263  14.382
70728W        W36208  40.493  35.398  13.987
70729W        W36209  35.928   4.912   2.758
70730W        W36210   3.804  17.636   1.368
70731W        W36211  20.205   1.811  11.595
70732W        W36212  27.151  16.193   2.224
70733W        W36213  40.359  31.132   4.179
70734W        W36214  23.661  27.155  13.906
70735W        W36215   3.914  37.872  14.854
70736W        W36216  28.174   7.319   2.418
70737W        W36217  11.730   6.801   3.355
70738W        W36218  44.911  40.942   1.420
70739W        W36219  25.209  36.540   2.185
70740W        W36220  18.607   5.767   4.702
70741W        W36221  22.048  37.511   5.126
70742W        W36222   7.404  44.820   3.847
70743W        W36223  40.025   6.384  14.339
70744W        W36224   7.727  10.688  12.358
70745W        W36225  42.331   8.270  14.800
70746W        W36226  32.956   6.903  13.908
70747W        W36227  10.336   1.427  10.993
70748W        W36228  26.073  26.490  10.992
70749W        W36229  23.164   8.290   2.756
70750W        W36230  16.701  44.299   3.845
70751W        W36231  35.920   3.819  10.587
70752W        W36232  33.417  39.334   9.556
70753W        W36233   9.320  42.475   2.825
70754W        W36234   0.285  25.067   2.306
70755W        W36235  18.751   3.734  10.538
70756W        W36236  42.968  19.662  13.872
70757W        W36237  36.033  32.115   2.731
70758W        W36238  31.409  39.818  14.478
70759W        W36239   2.922  34.571  13.838
70760W        W36240  21.542  37.558  14.023
70761W        W36241  18.087  39.944  12.445
70762W        W36242  26.116   6.707  11.402
70763W        W36243  27.979  42.286  10.581
70764W        W36244  25.661  29.100   4.345
70765W        W36245  31.983  37.516   4.687
70766W        W36246  36.865  38.474   0.471
70767W        W36247  23.186   0.797  14.799
70768W        W36248   9.756  35.035  13.877
70769W        W36249  16.182  39.027  11.947
70770W        W36250   8.885  33.547   1.838
70771W        W36251  13.735  34.958   0.835
70772W        W36252  30.485  20.618  14.768
70773W        W36253  15.206   5.908  11.560
70774W        W36254   2.821  22.543   3.638
70775W        W36255  20.057  37.348   4.190
70776W        W36256  23.008  27.596   2.278
70777W        W36257  30.620   0.382   4.311
70778W        W36258   9.260  23.116   3.828
70779W        W36259  40.888   9.166  14.795
70780W        W36260  28.992  23.125   0.814
70781W        W36261  35.412  42.955   0.289
70782W        W36262  40.310  21.645   1.269
70783W        W36263  44.977  35.041  12.915
70784W        W36264  24.114  38.496   2.842
70785W        W36265  19.584   4.252   0.426
70786W        W36266  31.530  36.941  12.494
70787W        W36267  12.355  15.600  14.781
70788W        W36268  18.710  37.957   4.208
70789W        W36269  44.991   2.326   0.399
70790W        W36270   4.348   0.473   3.266
70791W        W36271  12.655  41.813  13.860
70792W        W36272  28.585  27.000  10.491
70793W        W36273   1.737  29.063   4.728
70794W        W36274  39.835  42.946  12.054
70795W        W36275   0.767  10.361   5.206
70796W        W36276   7.307  13.344   2.411
70797W        W36277  29.976   7.194  13.330
70798W        W36278   7.780  19.168  11.501
70799W        W36279  33.107   6.789   3.663
70800W        W36280  41.959  10.824   0.788
70801W        W36281  13.175  21.752  14.345
70802W        W36282   5.329  39.433  13.972
70803W        W36283  37.878  20.199  12.958
70804W        W36284  24.008  16.114   3.670
70805W        W36285  37.832  21.195  11.126
70806W        W36286  33.423  13.711  11.948
70807W        W36287  13.147  28.602  13.532
70808W        W36288  28.976  44.459  10.424
70809W        W36289  12.196  30.083   3.372
70810W        W36290  31.614  27.585   3.382
70811W        W36291   6.873  27.657   4.772
70812W        W36292  42.326   0.385   2.283
70813W        W36293  34.559   5.235   1.367
70814W        W36294   8.698  43.505   1.772
70815W        W36295  12.284  39.335   0.826
70816W        W36296  21.718  21.174   3.861
70817W        W36297  39.552  44.263  11.479
70818W        W36298  11.222   6.749   2.858
70819W        W36299  18.290  11.802  12.573
70820W        W36300  42.865  18.222   2.686
70821W        W36301   9.252  41.518   2.880
70822W        W36302  17.639  29.986   4.774
70823W        W36303   0.854  31.069   1.331
70824W        W36304  32.518  38.902   5.260
70825W        W36305   7.812  15.106   4.332
70826W        W36306  27.555   3.896   1.694
70827W        W36307   5.254   6.250  11.899
70828W        W36308  41.016   8.723  13.458
70829W        W36309  21.708   5.392  13.824
70830W        W36310  30.632  11.193  11.525
70831W        W36311  27.668  14.705  13.854
70832W        W36312  29.007  15.229   1.742
70833W        W36313  38.461   4.284  13.408
70834W        W36314  18.606  22.536  11.974
70835W        W36315   3.745  42.434  11.944
70836W        W36316  10.262  26.625   5.143
70837W        W36317  42.974  38.534   3.339
70838W        W36318  38.344   3.279   1.346
70839W        W36319  15.084  34.981  11.914
70840W        W36320  28.479  40.842  14.008
70841W        W36321  13.161   4.418  14.946
70842W        W36322  25.640  43.807  10.056
70843W        W36323   3.264  12.716  11.508
70844W        W36324  33.585   4.263   4.131
70845W        W36325  11.309  21.620  10.565
70846W        W36326   2.724  16.231   1.342
70847W        W36327  14.288   8.275  14.296
70848W        W36328  30.100  44.383  12.086
70849W        W36329  33.007  42.478   3.719
70850W        W36330   6.319   0.302   0.435
70851W        W36331  21.579   8.289   2.874
70852W        W36332   7.753  38.324  11.406
70853W        W36333   2.917  42.353   2.318
70854W        W36334  43.461  41.917  10.574
70855W        W36335  33.398   4.707  13.363
70856W        W36336  29.153  37.026   2.388
70857W        W36337  12.254  36.425   3.318
70858W        W36338  25.527   3.927  14.424
70859W        W36339  10.157   7.332  10.493
70860W        W36340  40.866  28.155  12.567
70861W        W36341  34.443  17.686   1.388
70862W        W36342  19.720  33.022  11.965
70863W        W36343  15.190  36.889   2.327
70864W        W36344   3.931  22.700  12.860
70865W        W36345  35.427  40.043   0.387
70866W        W36346  43.997  29.074  14.472
70867W        W36347  27.590  28.518  14.793
70868W        W36348  44.862   8.329  12.370
70869W        W36349  16.274  33.561  13.877
70870W        W36350   8.198  18.683   1.289
70871W        W36351  11.206  28.974  14.379
70872W        W36352  39.001  30.037   4.207
70873W        W36353   4.218  24.223  14.805
70874W        W36354  34.976  14.691   1.802
70875W        W36355  42.933  16.717  11.436
70876W        W36356  21.136  10.637  11.593
70877W        W36357   3.324  35.362  10.962
70878W        W36358  43.349  24.481  11.519
70879W        W36359   9.672  37.946   3.229
70880W        W36360  32.603  27.954  10.613
70881W        W36361  26.703   6.841  14.814
70882W        W36362  20.156  13.738   1.782
70883W        W36363  43.017  23.521  10.135
70884W        W36364  28.522  28.181  11.913
70885W        W36365  37.900  31.561  10.630
70886W        W36366  37.844   6.779  11.923
70887W        W36367  43.454   8.389   3.759
70888W        W36368  23.075  26.125  14.443
70889W        W36369  31.016  31.515   2.679
70890W        W36370  19.594   5.832   4.318
70891W        W36371  31.474   1.432  13.493
70892W        W36372   7.842  41.346   0.437
70893W        W36373  31.643  41.303   4.805
70894W        W36374   0.360   0.350  13.921
70895W        W36375   8.743  22.191  12.401
70896W        W36376  13.826  32.001  14.004
70897W        W36377   8.182  10.146   0.420
70898W        W36378  16.749  31.633   2.336
70899W        W36379  18.184  20.625  11.108
70900W        W36380  12.278   7.875  11.868
70901W        W36381  30.466  42.914  13.449
70902W        W36382   9.888   2.446   1.326
70903W        W36383  15.733  11.697  13.502
70904W        W36384   7.852  20.033   4.119
70905W        W36385  41.844   6.293  14.024
70906W        W36386  38.074  29.563   4.601
70907W        W36387  15.596  25.568   4.602
70908W        W36388   9.159  38.351  14.328
70909W        W36389  41.020  18.174   4.245
70910W        W36390   1.434  16.639   0.463
70911W        W36391  12.194   0.970   2.410
70912W        W36392  13.310  36.879  11.012
70913W        W36393  32.919  27.623   2.392
70914W        W36394   3.862   8.210  10.564
70915W        W36395  28.058  25.704  10.644
70916W        W36396  41.437  26.031   2.303
70917W        W36397   7.411  11.360  12.359
70918W        W36398  30.462  41.372  11.897
70919W        W36399  30.988  22.583   3.866
70920W        W36400  25.971  32.569   0.453
70921W        W36401  27.465  24.991  14.417
70922W        W36402  31.939  30.437   3.267
70923W        W36403  39.376  36.071   1.371
70924W        W36404  15.291  33.970   1.791
70925W        W36405   9.284  44.947   4.152
70926W        W36406  10.727  41.907  14.342
70927W        W36407  12.332   4.871  11.889
70928W        W36408  17.756  15.168  11.968
70929W        W36409  30.597  44.332  13.050
70930W        W36410  28.056   6.208   2.289
70931W        W36411  39.958  20.674   1.752
70932W        W36412  26.027  18.193  11.079
70933W        W36413  44.875   8.713  10.474
70934W        W36414  11.832  35.388  13.390
70935W        W36415  10.722  18.682   1.775
70936W        W36416  22.627   1.238   0.255
70937W        W36417  40.330  25.613   0.788
70938W        W36418  18.228   8.704  14.313
70939W        W36419  15.096  19.722   1.219
70940W        W36420   6.852  38.540  13.470
70941W        W36421  42.947   4.385   5.582
70942W        W36422  37.407   2.760  12.445
70943W        W36423   4.809  31.152  12.942
70944W        W36424  28.998  40.850   1.909
70945W        W36425  11.749  41.295  11.562
70946W        W36426  41.001  17.598  10.460
70947W        W36427  12.359  43.792  11.571
70948W        W36428  25.534  33.565   3.366
70949W        W36429  25.511  19.574   4.166
70950W        W36430   1.800  16.626   0.249
70951W        W36431  24.509  42.835  13.351
70952W        W36432  20.259  18.583   4.226
70953W        W36433  25.018  41.978   4.645
70954W        W36434  10.166  43.342   2.775
70955W        W36435  23.989  12.328   3.658
70956W        W36436  22.066  20.727  11.456
70957W        W36437  32.436  37.969  11.444
70958W        W36438   7.279  17.696  14.509
70959W        W36439  40.315  14.099  12.884
70960W        W36440   0.410  27.177  14.880
70961W        W36441  12.692   0.789  14.277
70962W        W36442  31.061  25.596  14.367
70963W        W36443  32.126  32.471  13.797
70964W        W36444   4.768  17.097   1.785
70965W        W36445  26.494  11.866   0.269
70966W        W36446  19.240   4.426   1.368
70967W        W36447  32.438  14.189  14.301
70968W        W36448  14.711   9.737   2.679
70969W        W36449  13.818  12.238  14.277
70970W        W36450  27.636  31.947  14.418
70971W        W36451  14.284  40.836  11.117
70972W        W36452  32.888   9.237   2.317
70973W        W36453  35.597   6.690  10.640
70974W        W36454  28.642  13.137   3.708
70975W        W36455  34.584  30.003   1.397
70976W        W36456  11.796   4.896   0.465
70977W        W36457  32.102  37.362   3.676
70978W        W36458  29.003  11.269   3.801
70979W        W36459  20.197  19.728   2.814
70980W        W36460  12.851  40.435  13.811
70981W        W36461  13.209  37.071  13.381
70982W        W36462  17.123   6.787   2.668
70983W        W36463  40.879  33.109   1.431
70984W        W36464   2.413  36.478   4.651
70985W        W36465   4.934  22.015   4.647
70986W        W36466  37.504  35.387  14.974
70987W        W36467  14.780  25.566   2.414
70988W        W36468  11.344   6.204  14.873
70989W        W36469  30.162  18.754   2.198
70990W        W36470  44.971  30.549   4.250
70991W        W36471  27.124  43.953  10.583
70992W        W36472  27.019  23.241  12.017
70993W        W36473  30.648  42.807   0.394
70994W        W36474  34.959  21.206   3.320
70995W        W36475   0.863  16.300   2.207
70996W        W36476  17.612  16.117   1.798
70997W        W36477   7.701  40.930   2.706
70998W        W36478  36.027  42.477  13.905
70999W        W36479   9.665  43.413  13.996
71000W        W36480  43.899  32.904   0.746
71001W        W36481  14.758  39.002   0.947
71002W        W36482   5.742  20.172  12.444
71003W        W36483  41.040  40.809   3.720
71004W        W36484  42.775  16.216  12.080
71005W        W36485  12.687  39.883   2.685
71006W        W36486  18.607   5.825  10.095
71007W        W36487  44.848  36.909  11.901
71008W        W36488  25.706  14.684   3.636
71009W        W36489  23.627  16.651  10.917
71010W        W36490   0.912  21.539  10.990
71011W        W36491  32.491  27.615  14.931
71012W        W36492  15.149   1.301  13.907
71013W        W36493   1.307  27.646  12.452
71014W        W36494  37.522   1.974  14.877
71015W        W36495  39.811  24.073  14.320
71016W        W36496  43.015  30.506   1.362
71017W        W36497   4.445  41.395   0.479
71018W        W36498   4.759  12.614   9.998
71019W        W36499   6.396  43.810   2.889
71020W        W36500  20.524  30.634  14.969
71021W        W36501  23.582   7.833   1.430
71022W        W36502  18.778  26.060   3.812
71023W        W36503   6.916   1.256   1.882
71024W        W36504  31.631  24.627   0.286
71025W        W36505  32.975   5.432   0.346
71026W        W36506   3.765   1.802   1.798
71027W        W36507   1.386  25.991  12.352
71028W        W36508  24.696  20.083   1.811
71029W        W36509  39.927  30.913  10.545
71030W        W36510  28.014  38.570   1.446
71031W        W36511  39.489  25.966  11.520
71032W        W36512  39.868  13.814  12.081
71033W        W36513  24.119   3.943   4.682
71034W        W36514   6.360  35.538   1.870
71035W        W36515  12.312  41.368   4.326
71036W        W36516  39.414  28.955   2.695
71037W        W36517  30.526   0.339  14.311
71038W        W36518  17.209  19.625   0.304
71039W        W36519  21.651  35.057   0.411
71040W        W36520  11.713  39.446  13.439
71041W        W36521   1.954  25.038  14.957
71042W        W36522  32.491   4.289  13.033
71043W        W36523   6.723  41.958   2.373
71044W        W36524  16.659  36.938  10.952
71045W        W36525  44.261   7.384  11.029
71046W        W36526  26.071   5.226  14.857
71047W        W36527  27.126  39.065   2.273
71048W        W36528  29.614   3.312   5.187
71049W        W36529   6.389  17.690   3.865
71050W        W36530   2.957  31.401   5.295
71051W        W36531  32.991  37.915  12.504
71052W        W36532  22.050  37.377   2.694
71053W        W36533  22.513  29.146  10.895
71054W        W36534  29.474   7.334   3.835
71055W        W36535  25.637  38.938  13.483
71056W        W36536  31.458   7.192   3.679
71057W        W36537  21.240   9.221  11.571
71058W        W36538   1.952   8.327  11.114
71059W        W36539   9.363  29.100   0.276
71060W        W36540  15.579  36.580   0.950
71061W        W36541  20.592   8.857  10.972
71062W        W36542   3.431  39.320   1.780
71063W        W36543  15.107  12.852   5.105
71064W        W36544  22.692  30.162   4.806
71065W        W36545  38.840  39.475   4.152
71066W        W36546   8.286  28.599  11.924
71067W        W36547  24.206  37.055  12.850
71068W        W36548   1.314  21.036  13.866
71069W        W36549  26.671  34.086   1.229
71070W        W36550  32.892  35.031   0.925
71071W        W36551   4.328  29.643   1.836
71072W        W36552  10.708  11.812  13.941
71073W        W36553  34.098   9.870  12.384
71074W        W36554  35.985  11.713  10.495
71075W        W36555   1.371  34.601   9.582
71076W        W36556   7.900  41.324   5.085
71077W        W36557  32.563   7.889   3.380
71078W        W36558  42.412  30.059  14.807
71079W        W36559  35.042   8.336  10.946
71080W        W36560  33.098  22.684  12.989
71081W        W36561  24.177  33.460  10.424
71082W        W36562  34.091  30.434   1.719
71083W        W36563  28.085  22.646   3.336
71084W        W36564   3.718  20.623   2.308
71085W        W36565   5.382  22.644  13.468
71086W        W36566   2.766   5.870   1.390
71087W        W36567  32.074   1.875   3.255
71088W        W36568  23.490  31.474   2.280
71089W        W36569  40.004  41.536  14.462
71090W        W36570  36.354  22.136   1.894
71091W        W36571  42.324   8.886   3.813
71092W        W36572  34.565  39.541   1.713
71093W        W36573  31.597   9.354  11.128
71094W        W36574  36.537  28.628  10.428
71095W        W36575  37.576  24.585   4.274
71096W        W36576  10.809   8.819  13.020
71097W        W36577  15.598  30.968   4.208
71098W        W36578  18.056   4.764   2.188
71099W        W36579   6.908  13.213   4.206
71100W        W36580  33.516  42.442   1.919
71101W        W36581  35.503  12.720   3.696
71102W        W36582  10.842  28.150   4.818
71103W        W36583   6.913  15.261   0.386
71104W        W36584  16.578   4.936  14.344
71105W        W36585   6.366  41.457  12.874
71106W        W36586   6.355  29.994   1.322
71107W        W36587  33.101  41.528   1.245
71108W        W36588  23.654  29.604  10.422
71109W        W36589  38.374  31.083  12.931
71110W        W36590  31.417   8.755  11.879
71111W        W36591  25.523  40.985   1.283
71112W        W36592   1.238   2.853   2.304
71113W        W36593  17.587  15.314   1.798
71114W        W36594  37.495   2.944  11.609
71115W        W36595  34.907  30.065   3.355
71116W        W36596  10.821  17.611  14.783
71117W        W36597  15.151  42.795  14.831
71118W        W36598  22.095   4.927  13.950
71119W        W36599  30.123  12.284  13.985
71120W        W36600  10.364  10.805   1.370
71121W        W36601   3.814  44.432   0.333
71122W        W36602  39.889   7.243  13.485
71123W        W36603  41.884  27.169   2.376
71124W        W36604  44.791   2.266  10.454
71125W        W36605  21.087   1.970  13.805
71126W        W36606   2.227  42.931   2.805
71127W        W36607  35.403  25.090  14.026
71128W        W36608  31.949  26.554   1.883
71129W        W36609  33.038  37.075  14.409
71130W        W36610   7.177  40.495   0.835
71131W        W36611  31.613  30.482  12.013
71132W        W36612  41.520  12.726   4.618
71133W        W36613  18.555  24.546  12.992
71134W        W36614  11.318   6.347  12.427
71135W        W36615  26.981  11.829   3.801
71136W        W36616   0.755  25.118   3.312
71137W        W36617   6.742  31.508   2.699
71138W        W36618  25.546  13.111   0.266
71139W        W36619  39.551  42.310   2.189
71140W        W36620   8.402  40.878  13.847
71141W        W36621  30.571  23.113  10.534
71142W        W36622  33.113  32.392  14.899
71143W        W36623   8.296  24.228  14.879
71144W        W36624  37.477  26.588   2.862
71145W        W36625  13.758  20.204  10.510
71146W        W36626  12.239  18.244   4.677
71147W        W36627  26.027  25.129   4.145
71148W        W36628   3.263  12.154   2.663
71149W        W36629  31.065  19.213  11.087
71150W        W36630   8.788   6.220   3.213
71151W        W36631  40.808  37.508  10.608
71152W        W36632   2.862  13.240  10.461
71153W        W36633  44.465  19.120  12.011
71154W        W36634  40.524  21.207   4.815
71155W        W36635  16.661   2.847  13.538
71156W        W36636   4.265  28.095  13.423
71157W        W36637   6.857  13.166   0.788
71158W        W36638  21.019  18.272   1.753
71159W        W36639  16.600  22.017   1.705
71160W        W36640  40.341  20.706   0.462
71161W        W36641   8.272  40.362   1.450
71162W        W36642  43.894   7.320   1.372
71163W        W36643   6.364   3.777   3.239
71164W        W36644  13.756  15.141  13.849
71165W        W36645  23.675  28.632  12.479
71166W        W36646  28.078  29.159  10.042
71167W        W36647  16.648   0.797  14.024
71168W        W36648  23.196  27.163   0.344
71169W        W36649   5.926  18.159  13.371
71170W        W36650  28.572  14.617  14.389
71171W        W36651  31.996   4.343   1.916
71172W        W36652  42.430  13.291  12.939
71173W        W36653  39.503  25.685  13.526
71174W        W36654  35.456  37.929   0.923
71175W        W36655  33.546  22.055   1.737
71176W        W36656  13.195  40.972  12.517
71177W        W36657  44.952  43.851  13.413
71178W        W36658  21.555  21.165  13.492
71179W        W36659   7.877  38.499   4.833
71180W        W36660  38.861  39.533  10.449
71181W        W36661  17.170  20.573  10.496
71182W        W36662  19.185  32.986  14.767
71183W        W36663  30.098  26.576  12.047
71184W        W36664   8.360  25.587  12.057
71185W        W36665   6.761   1.334   3.368
71186W        W36666  39.961   3.459  13.939
71187W        W36667  25.497   1.837   1.903
71188W        W36668  36.078  33.912   3.642
71189W        W36669  42.477  39.314  13.492
71190W        W36670  43.980   0.886   4.636
71191W        W36671  24.602  23.708  11.561
71192W        W36672   2.890  33.045   3.200
71193W        W36673  23.619  26.998  10.534
71194W        W36674  20.590  28.667   0.430
71195W        W36675  10.298  18.640   1.257
71196W        W36676  17.080  15.723  13.344
71197W        W36677  36.095  38.464   1.705
71198W        W36678  21.734   2.960  12.441
71199W        W36679  29.526  12.803   4.331
71200W        W36680  38.048   5.238   0.435
71201W        W36681  20.652  35.036   1.410
71202W        W36682  37.355  22.623  14.501
71203W        W36683  22.575  10.177   2.206
71204W        W36684   9.206  22.609  14.854
71205W        W36685   7.836   0.411  12.510
71206W        W36686  26.179  30.444  13.040
71207W        W36687  12.743   8.689  13.853
71208W        W36688  43.935  26.117  13.365
71209W        W36689  15.108  37.071  14.774
71210W        W36690  43.841  12.210   3.264
71211W        W36691   5.377  19.585  13.405
71212W        W36692  42.909  25.016  10.978
71213W        W36693  10.761  11.688   2.236
71214W        W36694  43.783   5.257  11.901
71215W        W36695  19.726  40.396  11.030
71216W        W36696  25.184  26.619   3.214
71217W        W36697  14.330  11.768   1.403
71218W        W36698  30.570  29.623  13.972
71219W        W36699  42.878  30.102   4.332
71220W        W36700  12.647  37.530  12.371
71221W        W36701  33.436  39.515  13.385
71222W        W36702  16.652   8.280  10.901
71223W        W36703  27.445  41.001  14.857
71224W        W36704  25.965  29.090  13.339
71225W        W36705  39.439  10.830   0.449
71226W        W36706  38.877  42.342  14.900
71227W        W36707  41.488  40.322   2.272
71228W        W36708   6.698  22.031   0.847
71229W        W36709  33.425   6.718   1.807
71230W        W36710  34.041   8.754  11.048
71231W        W36711  20.240  17.565   1.284
71232W        W36712  31.456  43.989   3.378
71233W        W36713  13.185  31.023  14.004
71234W        W36714  39.845   8.808   0.389
71235W        W36715  44.485  39.373  12.489
71236W        W36716  43.471   3.947  13.424
71237W        W36717  39.013  30.034  11.418
71238W        W36718   5.286  18.144   4.218
71239W        W36719   5.885  10.364  10.946
71240W        W36720  31.087  11.150   4.113
71241W        W36721   0.885  42.015  11.374
71242W        W36722   0.821   0.455   9.979
71243W        W36723  41.998   6.866  12.393
71244W        W36724  31.098   4.798  13.366
71245W        W36725  27.948  22.719   3.692
71246W        W36726  34.912  11.319   4.718
71247W        W36727  22.124  36.996   1.299
71248W        W36728  28.587   0.753   4.612
71249W        W36729   7.280  39.349  13.852
71250W        W36730  40.868  39.505  12.916
71251W        W36731  29.995  19.284  14.450
71252W        W36732  13.181   1.902  12.956
71253W        W36733  26.157  30.658  12.483
71254W        W36734  22.997  40.478   4.616
71255W        W36735  25.043  38.001  11.112
71256W        W36736  36.040  19.658  10.569
71257W        W36737  21.570  18.180  13.940
71258W        W36738  34.981   7.212  10.128
71259W        W36739  27.983  29.659   0.303
71260W        W36740  40.890   7.399  13.037
71261W        W36741  19.608  15.799  13.802
71262W        W36742  13.132  24.212   1.314
71263W        W36743  17.138   0.322   2.725
71264W        W36744  22.522   8.756  10.420
71265W        W36745   9.701  21.732   4.835
71266W        W36746  19.766  11.250   3.781
71267W        W36747  39.974   2.761  14.438
71268W        W36748  20.659  14.185   2.764
71269W        W36749  27.473   4.811   4.113
71270W        W36750  12.125  42.841  11.913
71271W        W36751  39.475  13.107  14.838
71272W        W36752  15.112   2.848   0.763
71273W        W36753  29.527  21.230   5.236
71274W        W36754  26.045  17.137   3.801
71275W        W36755   5.358  19.238  12.920
71276W        W36756  39.056  19.199  13.831
71277W        W36757  23.997  14.191   5.299
71278W        W36758  40.548   4.251  13.898
71279W        W36759  36.875  36.847  13.369
71280W        W36760  11.162   8.810  14.389
71281W        W36761   4.863  35.935  13.915
71282W        W36762  22.161  44.910   3.672
71283W        W36763   6.711   8.710   3.639
71284W        W36764   2.448  23.719   5.238
71285W        W36765  34.089  18.638   2.866
71286W        W36766   9.173  23.547   5.145
71287W        W36767  38.041   1.273   2.675
71288W        W36768  33.881  16.657  13.365
71289W        W36769  37.414  10.816   2.698
71290W        W36770  36.410  19.187  10.985
71291W        W36771  24.581  38.987  14.472
71292W        W36772  43.319  38.906  11.945
71293W        W36773  29.078  15.299   4.125
71294W        W36774  32.479  20.159  14.027
71295W        W36775  23.205  23.540   4.182
71296W        W36776   3.813   1.285  12.846
71297W        W36777  41.849  42.943   2.774
71298W        W36778   7.800   6.343   9.953
71299W        W36779  19.039   1.362  13.875
71300W        W36780  34.995  18.280  10.112
71301W        W36781  13.632  32.899  13.886
71302W        W36782  33.551  10.200  11.989
71303W        W36783  38.983  27.496   4.114
71304W        W36784  27.446  17.600  11.973
71305W        W36785  36.962  33.027  10.954
71306W        W36786  25.992  31.601   1.358
71307W        W36787  38.835  12.192   0.414
71308W        W36788   8.359  30.606  11.891
71309W        W36789   0.295  21.155  14.767
71310W        W36790  29.082  33.019   1.261
71311W        W36791  33.393  13.686  11.574
71312W        W36792   9.263  42.971  13.327
71313W        W36793  33.104  21.532  13.935
71314W        W36794  25.591  21.590  13.931
71315W        W36795  21.067  11.633   3.715
71316W        W36796  33.918  18.763  12.458
71317W        W36797  27.179  36.073  11.605
71318W        W36798  21.553   4.781   1.761
71319W        W36799  22.538   6.296   0.781
71320W        W36800  21.569  14.206   1.830
71321W        W36801  17.751   2.278  12.396
71322W        W36802  13.270  14.302  14.909
71323W        W36803  31.584  29.050   2.691
71324W        W36804  14.286  25.170   2.776
71325W        W36805   3.377  11.639   4.193
71326W        W36806  30.012  33.507   0.792
71327W        W36807  43.440  17.691  12.519
71328W        W36808  36.844  25.621   2.376
71329W        W36809  14.130  40.016  13.959
71330W        W36810  40.919  36.537   3.159
71331W        W36811   4.336  16.679   3.206
71332W        W36812   4.806   0.946  14.306
71333W        W36813  18.597  44.987   3.271
71334W        W36814   7.180  22.118  12.876
71335W        W36815  40.049  34.881  14.417
71336W        W36816  40.030  24.592  14.453
71337W        W36817  27.543  13.712   4.622
71338W        W36818   6.773  25.072  10.631
71339W        W36819  35.494  16.775   3.200
71340W        W36820  24.031  23.991   2.295
71341W        W36821  27.602  40.958  12.576
71342W        W36822  41.511   2.413  13.929
71343W        W36823   9.162  13.221  11.458
71344W        W36824  42.314  23.665  13.038
71345W        W36825  30.996  31.575  14.388
71346W        W36826  24.647  27.062  11.393
71347W        W36827  39.996  36.909   0.391
71348W        W36828  23.180  29.456  14.317
71349W        W36829  35.057  12.647  11.922
71350W        W36830   0.963  10.875   0.474
71351W        W36831  22.126  43.349   3.157
71352W        W36832   7.882   5.415  12.356
71353W        W36833  14.235  22.736   2.713
71354W        W36834  31.052  13.729  13.349
71355W        W36835  32.423  17.663  14.405
71356W        W36836   5.243  12.621   4.766
71357W        W36837   6.846  10.364   3.237
71358W        W36838  44.888   4.449  14.912
71359W        W36839   3.388  16.577  13.412
71360W        W36840  22.145  33.033  14.315
71361W        W36841  36.412   9.822  12.557
71362W        W36842  25.060  28.946   2.260
71363W        W36843  26.618  41.912  11.957
71364W        W36844  44.418  44.286   3.198
71365W        W36845  25.686  23.704  14.790
71366W        W36846   6.409  30.954   1.369
71367W        W36847  35.599  18.585  14.994
71368W        W36848  17.798  20.104  13.892
71369W        W36849  28.483  23.580   4.182
71370W        W36850  39.896  10.160  13.851
71371W        W36851  30.477   3.847   2.794
71372W        W36852  34.590  37.427  13.823
71373W        W36853   9.672  15.263   1.327
71374W        W36854  19.147  12.677   3.859
71375W        W36855  15.682  22.203   0.746
71376W        W36856  40.981  16.770  10.580
71377W        W36857  34.539  30.546  13.544
71378W        W36858  34.882  35.927  11.069
71379W        W36859  36.396  18.082  11.540
71380W        W36860  15.282  36.920  12.881
71381W        W36861   5.275  21.259  10.549
71382W        W36862  28.185   0.398  11.024
71383W        W36863   6.687  22.252   3.363
71384W        W36864  18.629  26.643  10.617
71385W        W36865  26.096  39.903   3.714
71386W        W36866  21.109  38.566   0.884
71387W        W36867  37.563  11.289  14.006
71388W        W36868   1.960  23.601   4.802
71389W        W36869   1.378  24.497   4.181
71390W        W36870  13.803  21.596   0.435
71391W        W36871  32.399  29.107  13.855
71392W        W36872   7.828  27.179  11.926
71393W        W36873  31.600  34.464  10.900
71394W        W36874   3.327  17.688  12.372
71395W        W36875  14.606  27.474  13.844
71396W        W36876  16.124  25.539  14.793
71397W        W36877  30.523  44.288  11.564
71398W        W36878  19.571  31.569   2.817
71399W        W36879   3.805  36.053   2.393
71400W        W36880  23.072  44.983  14.468
71401W        W36881  44.818  19.181   1.921
71402W        W36882  37.532  38.549  13.035
71403W        W36883  32.887  15.106   3.270
71404W        W36884  33.384  34.378   2.314
71405W        W36885  17.700   4.248  12.932
71406W        W36886  18.254   6.862   3.225
71407W        W36887   5.364  40.548  14.331
71408W        W36888  29.566   3.247   1.747
71409W        W36889  20.681  42.474   1.262
71410W        W36890   1.839  31.643   0.343
71411W        W36891  15.177  18.659  10.480
71412W        W36892   2.307  20.143  11.566
71413W        W36893  15.665   8.163   0.279
71414W        W36894  23.622  17.681   4.206
71415W        W36895  18.109  40.833   4.830
71416W        W36896   3.349  37.042  11.922
71417W        W36897  36.495  36.863  13.059
71418W        W36898  29.159  19.279   3.351
71419W        W36899  20.185  38.921  12.369
71420W        W36900  25.570  16.174   1.838
71421W        W36901  26.140   1.412  14.923
71422W        W36902   0.889  11.787  11.565
71423W        W36903  41.455  23.535  13.980
71424W        W36904  29.622  19.675  12.444
71425W        W36905  44.954  14.259  11.060
71426W        W36906  35.084  16.702   2.693
71427W        W36907  28.604  24.590   3.857
71428W        W36908  18.582  37.498  14.437
71429W        W36909   7.718  30.468  10.974
71430W        W36910   9.746  40.850  13.051
71431W        W36911  20.271  38.384   2.225
71432W        W36912  16.671  25.509  12.478
71433W        W36913  36.934  25.623   3.287
71434W        W36914  21.095  16.314  12.978
71435W        W36915  44.795  44.775   1.408
71436W        W36916  37.460  23.099  10.440
71437W        W36917  18.602  12.655  10.066
71438W        W36918  41.438   0.319  11.930
71439W        W36919  36.347  21.109   3.731
71440W        W36920  20.678   9.221   4.793
71441W        W36921  24.506  31.016   2.372
71442W        W36922   7.385  12.639   3.768
71443W        W36923  20.725  30.948   0.412
71444W        W36924  11.793  18.185   5.092
71445W        W36925  25.187  18.663  11.379
71446W        W36926   3.276  26.587  11.483
71447W        W36927  30.133  24.639  11.937
71448W        W36928  30.044  30.603  13.021
71449W        W36929   8.307  13.343  13.523
71450W        W36930  25.121  23.154   0.281
71451W        W36931  29.084  43.504  14.904
71452W        W36932  21.698  22.687  10.570
71453W        W36933  28.658   1.801   1.745
71454W        W36934  33.070  32.077  12.940
71455W        W36935  28.150  37.897   1.755
71456W        W36936  17.782  18.233   2.412
71457W        W36937  27.100  29.651   0.957
71458W        W36938  38.908  38.931  13.981
71459W        W36939  43.342  38.494  14.001
71460W        W36940  28.071  24.520   1.423
71461W        W36941  18.712   7.716  14.439
71462W        W36942  16.318  31.607  11.969
71463W        W36943  33.512  36.009  13.823
71464W        W36944  42.422  11.161   4.164
71465W        W36945  17.064   9.752  13.387
71466W        W36946  22.715  16.771   2.699
71467W        W36947  27.484   7.379   2.419
71468W        W36948   2.823  43.955  14.875
71469W        W36949  28.153  39.974   0.413
71470W        W36950  13.653  16.264  12.092
71471W        W36951  10.781  35.375  10.960
71472W        W36952   0.477  27.646  11.420
71473W        W36953  43.893   0.275   1.232
71474W        W36954   4.866  16.590   2.179
71475W        W36955   3.801   9.343   2.852
71476W        W36956  44.304  41.508  11.003
71477W        W36957  23.541  16.187  11.064
71478W        W36958   1.254  28.168   1.269
71479W        W36959  23.218  29.538   4.775
71480W        W36960  14.669  21.657  14.452
71481W        W36961  25.556   8.241   4.177
71482W        W36962  13.635  23.038   0.807
71483W        W36963   4.862   0.846   4.221
71484W        W36964   1.869   2.895   2.368
71485W        W36965  10.736  34.927   4.240
71486W        W36966   0.294  42.855  10.633
71487W        W36967   5.699  40.409   1.261
71488W        W36968  24.110  27.991  14.903
71489W        W36969  23.571  10.849   3.770
71490W        W36970  34.935  15.790   1.934
71491W        W36971  14.238   7.749   3.344
71492W        W36972  39.547  31.981   3.240
71493W        W36973  33.042  28.075  10.475
71494W        W36974  37.537  31.562  14.774
71495W        W36975  42.853   2.386  11.374
71496W        W36976  36.980  15.159   3.686
71497W        W36977   9.646  14.299   0.287
71498W        W36978  20.143   0.883  13.353
71499W        W36979  30.489  31.926  11.575
71500W        W36980  36.973  14.183   4.231
71501W        W36981  17.574  31.606  14.981
71502W        W36982  13.265   7.415  14.015
71503W        W36983  22.663  41.981   3.823
71504W        W36984   6.920  27.649  13.802
71505W        W36985  40.328   3.819   2.829
71506W        W36986   8.335  27.508  13.844
71507W        W36987  18.556  42.874   3.354
71508W        W36988  28.055  30.052  14.941
71509W        W36989  41.020  14.270   4.238
71510W        W36990  37.404  27.601  13.906
71511W        W36991  33.086  43.845  12.928
71512W        W36992  20.704  42.436  14.970
71513W        W36993  10.378  38.398   1.256
71514W        W36994  31.550  36.084   4.148
71515W        W36995  39.426  44.961  12.839
71516W        W36996  19.762   6.363   3.817
71517W        W36997  44.959   9.351  13.812
71518W        W36998  34.572   3.794  14.935
71519W        W36999  28.601  26.145   4.249
71520W        W37000   3.824  12.222  10.526
71521W        W37001  36.932   3.937   3.746
71522W        W37002   7.714  22.566  13.865
71523W        W37003  15.689   0.830   1.328
71524W        W37004  21.069  44.480  11.876
71525W        W37005  11.809  13.825   3.811
71526W        W37006  27.962  26.142  13.967
71527W        W37007   6.348  33.937  11.444
71528W        W37008  28.986  24.566   1.721
71529W        W37009  32.019  40.051   3.737
71530W        W37010   4.924  44.322   3.741
71531W        W37011   6.248  28.078  11.975
71532W        W37012  26.130  28.593  10.953
71533W        W37013  27.045   3.871  11.582
71534W        W37014  12.850  33.571  11.081
71535W        W37015   5.249  32.127   0.334
71536W        W37016  35.962   6.738   4.347
71537W        W37017  32.534  23.623  11.068
71538W        W37018  19.231  28.102   4.316
71539W        W37019  31.407  37.389   2.835
71540W        W37020  22.704  10.785  10.638
71541W        W37021  31.977  27.482  13.984
71542W        W37022   9.388   9.338  11.407
71543W        W37023  37.067  32.475   2.304
71544W        W37024  25.495  24.113  14.315
71545W        W37025  17.302  32.581  11.976
71546W        W37026  27.685  32.086   0.949
71547W        W37027  18.643  34.995   2.200
71548W        W37028  28.443  35.532  12.984
71549W        W37029   4.778  12.233  13.454
71550W        W37030  22.101  44.417   3.860
71551W        W37031  39.494  37.009  14.927
71552W        W37032   8.237  25.089  13.448
71553W        W37033  11.849  15.153   1.421
71554W        W37034  18.137   6.813  11.991
71555W        W37035  12.229  21.239   2.862
71556W        W37036  22.641   9.832  13.348
71557W        W37037   7.227  30.601  12.379
71558W        W37038  16.315  33.491   1.753
71559W        W37039  13.299  43.430   3.223
71560W        W37040  20.180  11.262   4.264
71561W        W37041  27.030  28.089   4.796
71562W        W37042  31.575   2.965   3.211
71563W        W37043  40.338  21.135   2.879
71564W        W37044  33.427   9.254   3.811
71565W        W37045  40.991  37.021  13.860
71566W        W37046  21.740  11.646  11.917
71567W        W37047  43.497  44.495   2.262
71568W        W37048  30.072  15.745  13.026
71569W        W37049  23.100  22.249   4.832
71570W        W37050  31.502  13.323  11.583
71571W        W37051  31.596  25.068   0.749
71572W        W37052  15.102  24.140  13.843
71573W        W37053  40.866  21.110   3.338
71574W        W37054  20.725   9.709   1.326
71575W        W37055  32.967  32.065  14.410
71576W        W37056  44.328   6.316  12.476
71577W        W37057  24.504  19.280   0.302
71578W        W37058  34.946  22.602  12.046
71579W        W37059  19.613   3.272   4.310
71580W        W37060  37.982  21.517   4.619
71581W        W37061  24.655  41.905   2.286
71582W        W37062  24.617   1.457  14.785
71583W        W37063   2.383  30.983  13.931
71584W        W37064  34.094  44.379   0.458
71585W        W37065  21.724  38.004  11.437
71586W        W37066  41.395  21.752   3.710
71587W        W37067  43.383  36.535   1.348
71588W        W37068  27.008   6.396   0.264
71589W        W37069  24.573   3.330   2.682
71590W        W37070  12.344  11.267   4.691
71591W        W37071  34.547  36.966   3.781
71592W        W37072   3.430  11.646  12.018
71593W        W37073  23.212  12.279   2.857
71594W        W37074  22.228  33.423  11.087
71595W        W37075   5.435  44.294  13.386
71596W        W37076  31.107  44.923   4.119
71597W        W37077   1.818  12.123  13.889
71598W        W37078  12.748  28.620   3.244
71599W        W37079  29.570  37.557  11.541
71600W        W37080  43.920  18.243  11.875
71601W        W37081  44.881  44.435   1.726
71602W        W37082   8.806   0.963  11.869
71603W        W37083   5.414  15.297  13.867
71604W        W37084  42.907  12.153  11.477
71605W        W37085   2.839  35.970  11.076
71606W        W37086   7.396  20.030   2.412
71607W        W37087  22.143  22.116  12.063
71608W        W37088  38.958  31.995   4.815
71609W        W37089  37.006  36.361  13.957
71610W        W37090  28.050  13.659   0.746
71611W        W37091   4.889  28.543   1.783
71612W        W37092  22.015   5.394  12.089
71613W        W37093  18.087  25.009  10.540
71614W        W37094  39.491  31.971  11.870
71615W        W37095  35.094  34.060   4.816
71616W        W37096  35.509   6.222  13.983
71617W        W37097  34.488  20.071  10.929
71618W        W37098   3.914  20.083  13.015
71619W        W37099  22.597  15.608  14.891
71620W        W37100  28.011  24.092  13.328
71621W        W37101  40.000  15.747  11.565
71622W        W37102  15.132  32.128  13.843
71623W        W37103   4.888  29.551  14.924
71624W        W37104   0.967  30.591  10.516
71625W        W37105  37.358  30.517  11.905
71626W        W37106  35.386  44.434   4.189
71627W        W37107  21.207  22.037  14.774
71628W        W37108  29.094  23.005   4.220
71629W        W37109  41.479  13.798  10.962
71630W        W37110  18.597  13.279   0.884
71631W        W37111  39.026   4.223   1.387
71632W        W37112  10.300  38.360  12.479
71633W        W37113  28.665  15.808   3.183
71634W        W37114   8.361  38.921  13.818
71635W        W37115  28.973   4.219  12.026
71636W        W37116  41.341  16.581  14.792
71637W        W37117  21.076  41.434   4.305
71638W        W37118  35.032  37.026   0.921
71639W        W37119  24.079  37.489  12.018
71640W        W37120  22.647  33.585   1.398
71641W        W37121  16.805  36.974  11.883
71642W        W37122  27.679  13.794   0.874
71643W        W37123   5.747  20.221   1.448
71644W        W37124   1.314  19.552  13.956
71645W        W37125  12.277  32.924  12.903
71646W        W37126  11.859   7.687   4.260
71647W        W37127   0.841  23.196  11.908
71648W        W37128   7.178  12.340  11.442
71649W        W37129  18.777  15.225  14.383
71650W        W37130   2.808  37.042  13.010
71651W        W37131  15.624  26.983   0.435
71652W        W37132  36.981  15.121   2.313
71653W        W37133  23.493  29.970   4.248
71654W        W37134   0.742  26.698   1.269
71655W        W37135   0.905  16.144   0.290
71656W        W37136  43.424  33.524  11.443
71657W        W37137   7.866  25.064   0.924
71658W        W37138  39.342  12.613  13.810
71659W        W37139   2.877  38.071   2.310
71660W        W37140  21.262   1.283  10.983
71661W        W37141  39.343  20.028  12.390
71662W        W37142  11.226  27.681  13.429
71663W        W37143  20.673  12.240   1.441
71664W        W37144  35.492  32.095  11.028
71665W        W37145  29.112  30.503  11.583
71666W        W37146  19.172  36.946   1.449
71667W        W37147   9.299  11.827  10.089
71668W        W37148  12.642  42.455   2.229
71669W        W37149  12.681  25.066   4.785
71670W        W37150  27.641  31.449  14.936
71671W        W37151  34.557   9.388  12.905
71672W        W37152  28.669  14.098  11.990
71673W        W37153  28.954   5.404   2.300
71674W        W37154  41.817  37.939   4.835
71675W        W37155  34.519   6.228  14.460
71676W        W37156  17.194   9.854   1.292
71677W        W37157  25.080  21.547   0.818
71678W        W37158   8.201  33.100   2.415
71679W        W37159  27.552  11.769  14.392
71680W        W37160  12.266  11.139   3.370
71681W        W37161  43.802  37.454  13.852
71682W        W37162  31.147  20.173   3.160
71683W        W37163  27.626  36.404  12.015
71684W        W37164  44.793   4.930   0.894
71685W        W37165  27.979  29.484  11.856
71686W        W37166  21.648  24.154  11.925
71687W        W37167  32.502  33.549  10.151
71688W        W37168  20.596  20.754  10.490
71689W        W37169  43.349  44.937  10.582
71690W        W37170  40.018   6.736  13.986
71691W        W37171  10.152  28.541  14.850
71692W        W37172  28.672  34.113  10.518
71693W        W37173  43.466   4.262   3.225
71694W        W37174  15.110  31.025  14.785
71695W        W37175   0.350   1.906   4.274
71696W        W37176  18.256  18.711   3.689
71697W        W37177  41.497  20.148  12.509
71698W        W37178  18.099  15.105  11.866
71699W        W37179  22.656  16.270  13.387
71700W        W37180  20.654  29.565  14.514
71701W        W37181  12.355  18.230  11.994
71702W        W37182  19.616  42.342   2.348
71703W        W37183  31.629  15.156   3.832
71704W        W37184  16.277  11.653  14.884
71705W        W37185  30.074   7.194   1.293
71706W        W37186  22.195   3.235  10.456
71707W        W37187  10.693   0.819   1.908
71708W        W37188  11.222   1.287  12.487
71709W        W37189   5.842  19.615   1.284
71710W        W37190  15.670  15.718   5.316
71711W        W37191   2.448  43.845   0.309
71712W        W37192  42.358  34.491   3.779
71713W        W37193  32.541   6.779  11.594
71714W        W37194   2.842  23.112  13.957
71715W        W37195  42.022  28.992  10.447
71716W        W37196   3.785   1.810  14.876
71717W        W37197  21.202   8.765   3.177
71718W        W37198  16.777   8.830   0.384
71719W        W37199  27.996  14.611  10.570
71720W        W37200  39.428  22.673  11.115
71721W        W37201  34.077   8.287   0.467
71722W        W37202  21.697  39.316   2.803
71723W        W37203   0.297  26.581   1.354
71724W        W37204  39.896   1.365  14.839
71725W        W37205  32.448  35.989   0.280
71726W        W37206  25.630  15.757   0.814
71727W        W37207  42.816   8.738   3.352
71728W        W37208  20.191  21.699  13.310
71729W        W37209  33.049  18.241   0.427
71730W        W37210  44.399  40.910  13.815
71731W        W37211   0.342  12.809  10.607
71732W        W37212   3.792   8.311   4.173
71733W        W37213  44.378  12.334   2.769
71734W        W37214  19.241  41.911   3.666
71735W        W37215  16.302   8.268  11.896
71736W        W37216  26.018  13.163  11.443
71737W        W37217  21.138  20.040  10.491
71738W        W37218  15.628  33.052  10.493
71739W        W37219  22.568  43.966  12.415
71740W        W37220   6.284   7.266  14.464
71741W        W37221  20.668  17.273   1.252
71742W        W37222  31.453   7.381   0.947
71743W        W37223  19.234  43.339   4.183
71744W        W37224  10.670  44.903   1.421
71745W        W37225  19.258  25.994  13.888
71746W        W37226  20.617  36.959  12.575
71747W        W37227   8.705  12.214  13.470
71748W        W37228  14.765  17.579   3.159
71749W        W37229  40.991  25.578   1.367
71750W        W37230  18.110  40.490  13.966
71751W        W37231  34.997  42.935  11.905
71752W        W37232  37.059  41.502  10.938
71753W        W37233  32.391  44.005  12.467
71754W        W37234   8.718  27.149  11.100
71755W        W37235  43.443  41.986  14.820
71756W        W37236  26.615   1.369  11.887
71757W        W37237   4.227   6.247   0.897
71758W        W37238   0.943  24.557   0.347
71759W        W37239  23.026  25.622  11.501
71760W        W37240  20.589  30.583   2.846
71761W        W37241   9.812  27.085   3.801
71762W        W37242  34.031  19.572  11.053
71763W        W37243  27.137  15.214   0.781
71764W        W37244  23.641   3.854   4.316
71765W        W37245  14.692  27.186  12.954
71766W        W37246  22.712  40.472   0.920
71767W        W37247  22.716   1.277   3.778
71768W        W37248  10.281  43.461   5.239
71769W        W37249  15.735  27.520   1.337
71770W        W37250  10.807  44.350  14.477
71771W        W37251  11.813   7.846   4.836
71772W        W37252  16.721  30.639  14.308
71773W        W37253  14.183   3.291   0.372
71774W        W37254  36.435  29.543   0.835
71775W        W37255   8.240   4.786   1.913
71776W        W37256  17.280   3.348   0.838
71777W        W37257  31.070   0.404   2.296
71778W        W37258  20.106  28.054  13.456
71779W        W37259  40.856  16.589   3.198
71780W        W37260  44.311  14.667   2.663
71781W        W37261  39.871   4.738   2.410
71782W        W37262  16.785   4.224  10.603
71783W        W37263  35.404  24.574   4.242
71784W        W37264  19.763  34.492   1.329
71785W        W37265  37.387  21.592   3.820
71786W        W37266  17.260  26.985   2.663
71787W        W37267   3.832  11.367  14.029
71788W        W37268  38.965  25.610  14.964
71789W        W37269  32.943  14.340  13.473
71790W        W37270  29.527  20.139  14.015
71791W        W37271  17.121  23.127  12.987
71792W        W37272   9.716  36.421   1.813
71793W        W37273  44.925   6.745   0.796
71794W        W37274  44.908   4.235  10.970
71795W        W37275  10.308  43.459   4.274
71796W        W37276  35.599  35.957  12.368
71797W        W37277  34.084  14.790   4.815
71798W        W37278  37.362  10.720   1.319
71799W        W37279  29.595  29.649   1.433
71800W        W37280  40.349  10.277   5.253
71801W        W37281  20.213  11.638  13.860
71802W        W37282   4.902  32.070  11.978
71803W        W37283   8.195  30.056  13.064
71804W        W37284  36.896   4.341  12.940
71805W        W37285  27.139   5.222   2.412
71806W        W37286  10.787  30.420   0.449
71807W        W37287  26.184  24.135  14.903
71808W        W37288  32.478   2.899  13.492
71809W        W37289  12.173  31.065   4.757
71810W        W37290   2.408   2.794   3.629
71811W        W37291  26.112   1.746   4.294
71812W        W37292  19.128  39.376  14.022
71813W        W37293  22.622  17.203   1.911
71814W        W37294  35.018  33.493   1.383
71815W        W37295   1.834  22.241   0.763
71816W        W37296  42.862  44.921  11.921
71817W        W37297  13.127  24.122  10.579
71818W        W37298  29.137  41.994  10.910
71819W        W37299   8.225  16.606   2.836
71820W        W37300  33.386  15.675   4.695
71821W        W37301   9.656  17.125  11.871
71822W        W37302  18.658  13.190   3.660
71823W        W37303   6.776  28.520  12.970
71824W        W37304  19.257  44.465   4.747
71825W        W37305  30.107  41.506   5.238
71826W        W37306   1.941  41.976   2.805
71827W        W37307  17.147  34.500  12.829
71828W        W37308  18.237  13.258  11.083
71829W        W37309  10.359  13.742   3.653
71830W        W37310  21.514   6.277  11.442
71831W        W37311  39.960  34.430   2.328
71832W        W37312   9.184  30.962  11.603
71833W        W37313  21.197  20.078   2.330
71834W        W37314   3.360   0.779  11.106
71835W        W37315  26.622   8.773  10.013
71836W        W37316   4.864  34.456  10.029
71837W        W37317  29.149   2.260   3.644
71838W        W37318  31.143  24.618  12.430
71839W        W37319  11.710  21.563  10.920
71840W        W37320  26.472  44.419   2.290
71841W        W37321  41.882  22.172  14.881
71842W        W37322  25.501  30.620   0.264
71843W        W37323  41.939  24.020  10.642
71844W        W37324  37.348  22.043   4.660
71845W        W37325  12.739  14.138  12.446
71846W        W37326  28.649  30.496   3.251
71847W        W37327  23.593   8.794   9.675
71848W        W37328   2.400  14.621  12.996
71849W        W37329   8.277  38.508   0.312
71850W        W37330  17.745   1.411   1.697
71851W        W37331  28.929  10.275  14.369
71852W        W37332  10.747  27.636  14.283
71853W        W37333  35.497  33.571   4.652
71854W        W37334  19.193  23.516  12.556
71855W        W37335  16.074   6.886   1.929
71856W        W37336  36.570  23.720   0.760
71857W        W37337  42.284  31.996   2.782
71858W        W37338  42.892   5.300  13.389
71859W        W37339   6.767   9.206  13.813
71860W        W37340  41.791  22.741   3.376
71861W        W37341  24.722  43.007  11.899
71862W        W37342  12.271  11.761   2.825
71863W        W37343   2.353  25.070   0.926
71864W        W37344  31.599  21.559  14.488
71865W        W37345  35.046  20.653   1.737
71866W        W37346  16.582  42.498  12.542
71867W        W37347  41.374  16.573  12.078
71868W        W37348   5.771  36.908  13.316
71869W        W37349  43.478  40.435  13.490
71870W        W37350   9.253  22.525   3.711
71871W        W37351  18.284   4.780   0.265
71872W        W37352   2.403   0.450   2.401
71873W        W37353  27.498  43.848  14.959
71874W        W37354  16.621  26.153   3.853
71875W        W37355  26.068   1.815   2.304
71876W        W37356  30.545  22.084   3.152
71877W        W37357   4.338  31.115   2.362
71878W        W37358  35.056  33.109  12.974
71879W        W37359   6.706   5.697   1.795
71880W        W37360  38.927   9.884   0.817
71881W        W37361  15.818  18.118   3.361
71882W        W37362  18.614  11.828  12.951
71883W        W37363  29.596  36.474   4.285
71884W        W37364  29.666  38.819   0.959
71885W        W37365  26.964  21.716   3.222
71886W        W37366  34.481   4.335  13.011
71887W        W37367  13.143  15.235   4.281
71888W        W37368   3.455  41.292   2.872
71889W        W37369  33.059  20.630  12.030
71890W        W37370  13.773  43.318   1.290
71891W        W37371   2.964  11.761  13.841
71892W        W37372  38.936   0.839   2.762
71893W        W37373  29.983  13.282  10.461
71894W        W37374  31.437  40.433   1.342
71895W        W37375  28.099  32.578   1.444
71896W        W37376  37.463  25.052  11.486
71897W        W37377  39.935  22.551  11.034
71898W        W37378   2.914  19.640  13.925
71899W        W37379  30.162   8.834  11.480
71900W        W37380   9.288  33.967   4.292
71901W        W37381  29.031  14.753   0.768
71902W        W37382  10.292  43.775  12.979
71903W        W37383  44.956  18.194   0.949
71904W        W37384   6.895  28.151  14.820
71905W        W37385  15.132   6.282  13.422
71906W        W37386  27.940  14.232   2.195
71907W        W37387  14.597  28.095   0.355
71908W        W37388  33.435  22.656  10.535
71909W        W37389  42.445   2.293  12.520
71910W        W37390  27.185   8.765   0.415
71911W        W37391  42.995  34.893   0.291
71912W        W37392  18.194  39.004   4.325
71913W        W37393  29.028   4.763   3.269
71914W        W37394  20.077  18.768   0.752
71915W        W37395  34.482  40.042  14.980
71916W        W37396   5.824  10.139   2.775
71917W        W37397   7.345  39.033   3.834
71918W        W37398  41.476   5.694   0.793
71919W        W37399  40.336  25.600   2.380
71920W        W37400  34.451  13.337  12.354
71921W        W37401  18.681  30.107  12.550
71922W        W37402  20.054  11.823   4.276
71923W        W37403   6.709   0.857   2.732
71924W        W37404  42.370  15.218  12.570
71925W        W37405  36.850  12.331  13.869
71926W        W37406  40.979  37.993  13.482
71927W        W37407  22.500  27.669   3.261
71928W        W37408  40.886   3.846  13.802
71929W        W37409  28.180  12.660   2.757
71930W        W37410  43.868  28.670  13.994
71931W        W37411   1.899  24.098   4.838
71932W        W37412  42.307  19.265   2.860
71933W        W37413  35.945  19.192  13.039
71934W        W37414  21.691  42.991  13.881
71935W        W37415   4.435   1.738  12.010
71936W        W37416  34.388  35.886   3.765
71937W        W37417  42.823  18.097   1.931
71938W        W37418  21.157  34.395  12.559
71939W        W37419   0.985   8.751   3.278
71940W        W37420  25.214   6.790   0.462
71941W        W37421  11.262  26.969  12.862
71942W        W37422  10.264  10.267   4.316
71943W        W37423  26.666  12.813   3.210
71944W        W37424   2.790  26.045  10.554
71945W        W37425  39.517  22.632  12.465
71946W        W37426  34.485  41.005   4.608
71947W        W37427  23.120  40.838  13.337
71948W        W37428   5.926  38.888  10.952
71949W        W37429  16.567   0.486  11.602
71950W        W37430  17.658  13.700   3.269
71951W        W37431  24.192  33.104   3.781
71952W        W37432  43.365  36.984   3.700
71953W        W37433  23.680  18.289   3.279
71954W        W37434   5.847  30.552  12.876
71955W        W37435  20.554  12.647  14.940
71956W        W37436  38.878   0.426   0.919
71957W        W37437  23.122  30.447   3.637
71958W        W37438   2.239  27.109  13.013
71959W        W37439  18.161  22.149   0.410
71960W        W37440  34.396  40.054  13.063
71961W        W37441  37.077  11.793  10.411
71962W        W37442  34.479  14.611   2.739
71963W        W37443  37.572   7.292   3.313
71964W        W37444  33.502  39.433   1.705
71965W        W37445  40.862  39.908  11.434
71966W        W37446  38.343  38.912  14.841
71967W        W37447  28.176  12.183  12.362
71968W        W37448   3.411  24.526   3.244
71969W        W37449  19.612  42.030  11.865
71970W        W37450  40.462  17.649  11.594
71971W        W37451  13.335  38.452  13.970
71972W        W37452  35.936   4.321  10.641
71973W        W37453  30.907  40.362   1.840
71974W        W37454  24.582  32.450  13.417
71975W        W37455  12.249  19.592  11.119
71976W        W37456   6.357  23.585  14.462
71977W        W37457  25.024  39.409  11.455
71978W        W37458  24.224  43.948   2.238
71979W        W37459   8.803  42.878  14.991
71980W        W37460  17.263  43.356  10.161
71981W        W37461  19.040   3.260   1.252
71982W        W37462  40.824  11.749  14.506
71983W        W37463  27.181  32.571  11.383
71984W        W37464  39.860  16.255  11.006
71985W        W37465  41.515  42.915   1.847
71986W        W37466  20.156  27.667   2.192
71987W        W37467  26.038   7.670   4.281
71988W        W37468  25.678  12.278   4.760
71989W        W37469   9.704  43.459   3.176
71990W        W37470  17.285  27.666   3.680
71991W        W37471  21.087  43.801   4.181
71992W        W37472  35.507  30.419  13.362
71993W        W37473   0.404  39.507  11.003
71994W        W37474   3.232  18.619   2.208
71995W        W37475  33.959  32.957  11.517
71996W        W37476   9.325  10.727  12.968
71997W        W37477   7.687   0.435   0.252
71998W        W37478  11.804  28.440  13.313
71999W        W37479  43.403   3.942   3.743
72000W        W37480  15.311  35.979   2.751
72001W        W37481  33.985  16.763  12.344
72002W        W37482  33.001  34.928   2.316
72003W        W37483   4.345   2.851  14.782
72004W        W37484  24.627  27.976   1.888
72005W        W37485   0.957   3.878  14.990
72006W        W37486  35.447  23.052  12.994
72007W        W37487  21.096  33.583  12.926
72008W        W37488  39.904   6.800   0.331
72009W        W37489  32.533  23.156   0.961
72010W        W37490  31.495  22.252  10.537
72011W        W37491  10.833   2.876   2.846
72012W        W37492  17.116  29.558  11.030
72013W        W37493  21.185  27.144   2.831
72014W        W37494  37.476  15.622  11.426
72015W        W37495  37.520   0.264   2.767
72016W        W37496   5.831  14.170  10.431
72017W        W37497   3.272  12.173  14.975
72018W        W37498  27.501  32.499  11.975
72019W        W37499  42.931  30.165  11.604
72020W        W37500  44.409  44.758  12.826
72021W        W37501  22.176  22.157  11.009
72022W        W37502   6.392   4.943   1.730
72023W        W37503  13.728   0.390  12.450
72024W        W37504  39.837  17.742   4.176
72025W        W37505   0.482  10.817  12.517
72026W        W37506  37.920  34.969   1.773
72027W        W37507  40.927  28.434  14.335
72028W        W37508  36.056  20.031   3.708
72029W        W37509  14.619  10.148  11.469
72030W        W37510  40.448  27.174  12.437
72031W        W37511  31.957  42.846  10.528
72032W        W37512  26.620  11.339   0.481
72033W        W37513   8.197   6.876  12.389
72034W        W37514  16.105  31.419  14.276
72035W        W37515  26.130  36.466   0.431
72036W        W37516  15.125  39.887   1.833
72037W        W37517  27.568  27.457  11.517
72038W        W37518  19.184  11.842  12.467
72039W        W37519  12.154   8.848  12.042
72040W        W37520  30.103   2.735  10.468
72041W        W37521  24.997  13.199  14.905
72042W        W37522  20.241  41.480  11.114
72043W        W37523  25.594  11.658  13.501
72044W        W37524  37.856  34.021  14.476
72045W        W37525  23.189  10.633   4.824
72046W        W37526  31.979  22.570  14.969
72047W        W37527  29.000   8.243   0.762
72048W        W37528   4.323  11.689   2.259
72049W        W37529   0.317  22.681   2.385
72050W        W37530  38.888  16.295  10.468
72051W        W37531  21.578   9.708   1.828
72052W        W37532  17.797   8.865   2.309
72053W        W37533  21.649   6.334   3.361
72054W        W37534  29.628  40.866   2.318
72055W        W37535  12.140  18.649  11.476
72056W        W37536  42.962  43.852  11.063
72057W        W37537  11.817   2.261  10.632
72058W        W37538  30.545  39.906  14.786
72059W        W37539   7.708  37.344  13.916
72060W        W37540  12.826  21.662   3.766
72061W        W37541  40.848  28.603  13.387
72062W        W37542  14.168  14.657  12.496
72063W        W37543   3.844  19.591   1.219
72064W        W37544  32.975  21.605  11.863
72065W        W37545  38.456  18.729   2.748
72066W        W37546  24.128  40.346   2.248
72067W        W37547  23.240  34.371   3.773
72068W        W37548  33.458  28.677   0.777
72069W        W37549  24.682   3.413  11.900
72070W        W37550   9.316   7.381  14.965
72071W        W37551  19.070   5.266  13.880
72072W        W37552  30.951   1.733   4.676
72073W        W37553   1.395  20.592   2.670
72074W        W37554  22.067   8.191   3.204
72075W        W37555   2.470  15.191   3.376
72076W        W37556  43.424   1.349   3.385
72077W        W37557  39.409  25.034   1.374
72078W        W37558  33.031   3.369  11.868
72079W        W37559  29.955  39.909   1.736
72080W        W37560  36.373  10.865   4.175
72081W        W37561  38.892  14.291  13.401
72082W        W37562  30.597  27.166   2.751
72083W        W37563  19.761   1.962  10.089
72084W        W37564  12.627  13.107   4.683
72085W        W37565   6.345  12.136   0.761
72086W        W37566  23.103  21.675   2.722
72087W        W37567  15.146  27.032  11.374
72088W        W37568  20.053  32.494  13.792
72089W        W37569  37.856  37.020  14.292
72090W        W37570   2.924  26.103   2.889
72091W        W37571  25.107  27.532  11.476
72092W        W37572  23.210  33.130   1.805
72093W        W37573  12.684  14.737  12.461
72094W        W37574  16.121  33.044   0.454
72095W        W37575  24.551   5.872   2.388
72096W        W37576  19.621  17.209   2.212
72097W        W37577  27.469  16.589   2.810
72098W        W37578  42.955  27.628   4.667
72099W        W37579  44.810  42.968  12.881
72100W        W37580   1.474  37.997   3.264
72101W        W37581   0.840   8.215  12.422
72102W        W37582  24.205  44.908   1.779
72103W        W37583  17.100   1.465  14.377
72104W        W37584  26.554   9.677  12.895
72105W        W37585  32.950  10.768  11.406
72106W        W37586  20.085  43.954  12.349
72107W        W37587  10.696   9.802  12.452
72108W        W37588  10.254  28.125   1.890
72109W        W37589  44.947  23.151   3.690
72110W        W37590  32.083  33.127  12.960
72111W        W37591  34.419  43.803  12.084
72112W        W37592  13.702  34.453   1.715
72113W        W37593   6.923  42.946  11.890
72114W        W37594  42.957  14.621   3.732
72115W        W37595  30.472  36.846  11.484
72116W        W37596  25.712  28.095  10.426
72117W        W37597  29.619  38.055   4.818
72118W        W37598  44.301  15.764  11.551
72119W        W37599  39.551  29.450  10.994
72120W        W37600  25.126  24.589   4.633
72121W        W37601  41.336  17.758   3.690
72122W        W37602  28.613  14.597   3.864
72123W        W37603  18.760  37.482  11.965
72124W        W37604  28.547  20.150   3.757
72125W        W37605  33.969  40.814   0.871
72126W        W37606  25.468  16.779   4.171
72127W        W37607  23.069  28.564   3.174
72128W        W37608  11.360   7.220   0.415
72129W        W37609  11.214  33.063   2.293
72130W        W37610  35.580   5.724   4.161
72131W        W37611  36.499  39.039   3.636
72132W        W37612  31.420  21.057  11.081
72133W        W37613  33.961  26.672   0.276
72134W        W37614  39.911  15.723  14.338
72135W        W37615  44.340  19.256  13.376
72136W        W37616  14.101  14.329  13.867
72137W        W37617   1.469  22.642   3.330
72138W        W37618  28.072  32.914  11.094
72139W        W37619  12.813  39.517   1.706
72140W        W37620  40.388   1.399  13.870
72141W        W37621  10.175   4.846   1.773
72142W        W37622  27.179  10.170   1.275
72143W        W37623  28.031  17.643  14.790
72144W        W37624  26.960  39.356   0.942
72145W        W37625   4.775  24.161   3.180
72146W        W37626  21.254  15.209  13.887
72147W        W37627  44.321  11.677   0.460
72148W        W37628  26.132  18.249   3.854
72149W        W37629  12.631   3.337   1.211
72150W        W37630  41.514   9.758   3.780
72151W        W37631   1.822   5.738   1.795
72152W        W37632  19.212  10.762  11.051
72153W        W37633  25.595  10.278  11.048
72154W        W37634   5.809  10.708  13.327
72155W        W37635  33.903  37.945   4.719
72156W        W37636  26.178  18.787   2.321
72157W        W37637  15.142   2.899   2.206
72158W        W37638  11.372  16.213   4.166
72159W        W37639   9.228  30.524   0.432
72160W        W37640  26.537  25.708   3.824
72161W        W37641  35.376  32.934   0.957
72162W        W37642  44.985   3.802   4.239
72163W        W37643  37.859  38.035   4.729
72164W        W37644  35.865  13.615  14.887
72165W        W37645  21.591  12.753   2.254
72166W        W37646  25.097  17.652  14.509
72167W        W37647  24.165  34.915  12.578
72168W        W37648   8.691  33.117   4.785
72169W        W37649  36.020  31.088   4.313
72170W        W37650   4.773  20.711   0.400
72171W        W37651  31.600  38.885  13.810
72172W        W37652  20.635  10.664   2.196
72173W        W37653  26.575  43.931   1.775
72174W        W37654  15.767  10.271   2.713
72175W        W37655   2.409  18.156   1.885
72176W        W37656   5.921  29.095   0.847
72177W        W37657  26.700  18.697  11.585
72178W        W37658  23.519  19.542  11.875
72179W        W37659  26.533  25.117   3.288
72180W        W37660  38.007  29.497   2.320
72181W        W37661  23.717  14.627   3.180
72182W        W37662  39.003   2.383  12.056
72183W        W37663  28.063  16.074  12.372
72184W        W37664  15.611  15.267  14.435
72185W        W37665   4.728  10.846  11.382
72186W        W37666  42.787  25.497  13.838
72187W        W37667  28.509  37.360  12.965
72188W        W37668   6.370  16.305  14.979
72189W        W37669  35.048  19.251   2.414
72190W        W37670   1.940  18.106   1.223
72191W        W37671   7.415  14.225  12.842
72192W        W37672  19.105  37.570  10.428
72193W        W37673  21.182  38.414  10.421
72194W        W37674  38.552  18.110   3.210
72195W        W37675  10.360  25.965   3.832
72196W        W37676  30.923  39.005  14.478
72197W        W37677  15.216   5.256   4.600
72198W        W37678  18.787  34.054  12.825
72199W        W37679   7.786  11.805   0.890
72200W        W37680  29.473  30.061  10.957
72201W        W37681   2.387  43.361   2.395
72202W        W37682  18.603  29.160   0.935
72203W        W37683  31.618   0.411   1.290
72204W        W37684  28.560   9.681  13.388
72205W        W37685  33.461  37.832  12.999
72206W        W37686  22.067  32.899   4.623
72207W        W37687  18.635  21.518   1.218
72208W        W37688  35.070  26.573   4.812
72209W        W37689  38.542  32.986  13.884
72210W        W37690  21.544  30.134   1.703
72211W        W37691   6.686   6.831   0.759
72212W        W37692   0.263   0.409   4.172
72213W        W37693  26.952  28.026  11.457
72214W        W37694  38.006  16.283  12.523
72215W        W37695  24.165   9.888   1.836
72216W        W37696   3.942   8.403  12.890
72217W        W37697  24.141   4.862  11.879
72218W        W37698  41.455  19.546  13.477
72219W        W37699  43.488   7.876  11.597
72220W        W37700  41.430  19.052  10.112
72221W        W37701  39.322  39.351  11.128
72222W        W37702  12.234  39.440   1.213
72223W        W37703   8.236  31.950  13.032
72224W        W37704  24.532  40.012   0.280
72225W        W37705  32.911   3.884   0.278
72226W        W37706   5.760  43.407  11.071
72227W        W37707  16.113   5.888   4.768
72228W        W37708  18.621  25.631  12.868
72229W        W37709   9.340  33.599  12.375
72230W        W37710  27.673  14.736   1.711
72231W        W37711  25.133   7.339   2.729
72232W        W37712   0.853  43.447   4.720
72233W        W37713  26.058  30.463   3.669
72234W        W37714  33.089  41.822  11.508
72235W        W37715  15.101   6.834  11.083
72236W        W37716  14.217  29.511  12.363
72237W        W37717  44.880  29.509  11.564
72238W        W37718  43.479  40.506  14.350
72239W        W37719   1.269   6.695  12.982
72240W        W37720  13.116  29.951   2.357
72241W        W37721  16.681  18.656  11.430
72242W        W37722  16.144   4.895   3.235
72243W        W37723  24.652   6.909   1.906
72244W        W37724   3.415  39.971   2.800
72245W        W37725  11.813  34.561  10.894
72246W        W37726   8.364  39.889   0.779
72247W        W37727   8.330  22.524   1.256
72248W        W37728  32.948  31.059  13.983
72249W        W37729   5.718  25.490   4.799
72250W        W37730   3.842   2.928   3.214
72251W        W37731  18.127  22.210   4.326
72252W        W37732   7.251  28.933  10.444
72253W        W37733   4.719   7.689  13.004
72254W        W37734  21.158  41.962   2.181
72255W        W37735  24.660  31.407   2.399
72256W        W37736  16.677  40.040   2.320
72257W        W37737  20.643  17.255  13.851
72258W        W37738  10.333  42.448   0.282
72259W        W37739  29.539  12.677  11.516
72260W        W37740  32.928  27.488   0.782
72261W        W37741  22.695  13.599   3.733
72262W        W37742  36.397  27.996  12.449
72263W        W37743  38.045  41.797  13.451
72264W        W37744  29.015  14.683  14.371
72265W        W37745  13.185  23.145   0.854
72266W        W37746  34.095   0.463  14.329
72267W        W37747  22.019  33.066   3.348
72268W        W37748  42.494   1.276  11.091
72269W        W37749  12.610   1.828  11.442
72270W        W37750  17.227   2.839  14.492
72271W        W37751  16.722  21.757   3.819
72272W        W37752  29.600  40.913   1.926
72273W        W37753  17.681  38.965  11.037
72274W        W37754  12.781  16.291   4.645
72275W        W37755  19.619   0.324  10.952
72276W        W37756  17.619  34.602   3.323
72277W        W37757  20.070  15.816  12.425
72278W        W37758  13.235   5.923   3.341
72279W        W37759  35.512  43.010  13.061
72280W        W37760  27.107  35.601  13.928
72281W        W37761  40.037  28.622   2.844
72282W        W37762  23.691   4.818   0.422
72283W        W37763  40.483  19.561  14.859
72284W        W37764  16.748  19.662  12.972
72285W        W37765   9.253  25.118  10.896
72286W        W37766  44.379   0.324   3.252
72287W        W37767   7.300  41.463   3.197
72288W        W37768  21.582  37.994   1.734
72289W        W37769  41.999  19.718   3.289
72290W        W37770  44.877  43.916  14.380
72291W        W37771  16.759  22.510  11.983
72292W        W37772  42.379  43.857  11.916
72293W        W37773  17.149  10.652  13.025
72294W        W37774   2.264  21.027   4.207
72295W        W37775  36.448  41.808  14.322
72296W        W37776  39.553  13.705  12.368
72297W        W37777  36.863   7.820   4.231
72298W        W37778   9.810  29.462  12.422
72299W        W37779  21.252  30.540  10.957
72300W        W37780  19.193  32.943   1.359
72301W        W37781  44.834   0.292  11.899
72302W        W37782  20.271  39.056  10.897
72303W        W37783  38.381  29.629  11.544
72304W        W37784  27.659   4.272   0.264
72305W        W37785  25.637  16.566   4.696
72306W        W37786  31.438  42.425   4.738
72307W        W37787  18.122   9.709   2.832
72308W        W37788  34.562   0.976  11.424
72309W        W37789  16.679  26.581  14.865
72310W        W37790  42.903  34.612   2.787
72311W        W37791  19.045  19.685  12.380
72312W        W37792  41.930   2.889   3.205
72313W        W37793  35.535   5.214  13.868
72314W        W37794   8.365  11.370  11.503
72315W        W37795  19.670  39.453   4.205
72316W        W37796  42.785  10.331  12.942
72317W        W37797  36.576  14.763  12.880
72318W        W37798  37.967  37.957  13.037
72319W        W37799  35.518  43.976   0.278
72320W        W37800  18.100  25.215  10.965
72321W        W37801  42.016  30.940  14.320
72322W        W37802  29.970  38.394   1.890
72323W        W37803  43.366  36.577  11.887
72324W        W37804  12.140  42.499   4.233
72325W        W37805   8.741  36.577  12.536
72326W        W37806  16.245  44.884  11.579
72327W        W37807   6.401  41.021  12.506
72328W        W37808  10.271  30.489  14.766
72329W        W37809  16.145  20.044   3.370
72330W        W37810   6.259  37.403   4.202
72331W        W37811  44.440  20.598  14.365
72332W        W37812  44.868  20.106   3.786
72333W        W37813  19.536  15.606   2.283
72334W        W37814  13.619  27.616  11.469
72335W        W37815  21.553  33.959   3.864
72336W        W37816   6.692   1.860   0.931
72337W        W37817  18.777   0.271   1.893
72338W        W37818  19.150   0.788   3.305
72339W        W37819  42.508  13.680  11.485
72340W        W37820  17.233  15.797   2.750
72341W        W37821  12.655  44.283  12.851
72342W        W37822  37.446  23.709  12.502
72343W        W37823   4.705  23.992  11.032
72344W        W37824  40.433  23.098   2.790
72345W        W37825   4.355  18.559  11.516
72346W        W37826  24.184  20.151   0.810
72347W        W37827   9.662  20.695   2.390
72348W        W37828  14.823  23.526  14.345
72349W        W37829  19.617  39.835  13.919
72350W        W37830   5.238  38.945  14.905
72351W        W37831  11.300   4.853  13.874
72352W        W37832  34.419  42.451  12.859
72353W        W37833   2.384   5.334  10.905
72354W        W37834  31.425  24.491   0.877
72355W        W37835  23.506   8.845  13.504
72356W        W37836  41.835  33.502  13.791
72357W        W37837   2.948   8.228   3.842
72358W        W37838  31.024  42.929  11.475
72359W        W37839  23.170  24.493   4.778
72360W        W37840   6.768  21.520   0.316
72361W        W37841  20.168  39.822   1.895
72362W        W37842  18.611  33.543  14.388
72363W        W37843  15.210  39.328   0.314
72364W        W37844  14.306   4.431   1.877
72365W        W37845  26.123  22.590   1.730
72366W        W37846  37.418  35.941  12.414
72367W        W37847  43.481  35.898   1.339
72368W        W37848  23.500  11.151   0.431
72369W        W37849  33.552  16.671  10.902
72370W        W37850  32.578  36.592  13.369
72371W        W37851   5.224  40.507  11.425
72372W        W37852  28.449  32.081  11.383
72373W        W37853  28.581   7.406  12.962
72374W        W37854  22.104   6.409   0.473
72375W        W37855  31.061   2.390  13.991
72376W        W37856   7.792  22.576   0.795
72377W        W37857   6.796  28.578   0.383
72378W        W37858  28.963  28.136   1.911
72379W        W37859  26.683   5.286  12.549
72380W        W37860  38.025   9.266  11.125
72381W        W37861   7.240  10.351   4.164
72382W        W37862   8.182   6.314   3.745
72383W        W37863  16.759  11.770  11.955
72384W        W37864   2.391   0.457  13.396
72385W        W37865  28.527  13.161   0.733
72386W        W37866   3.333  37.506   5.097
72387W        W37867  33.390  18.658  13.005
72388W        W37868  40.339  20.153  10.055
72389W        W37869  21.518   8.295  13.378
72390W        W37870  43.794  10.141   4.214
72391W        W37871   8.846  30.587   4.330
72392W        W37872  31.009  29.947  11.053
72393W        W37873  23.063  42.786   4.793
72394W        W37874  25.026  20.254   3.334
72395W        W37875  26.595  29.500   0.812
72396W        W37876   7.822   4.868  11.910
72397W        W37877   6.858  31.460  11.473
72398W        W37878   7.250  15.809  11.887
72399W        W37879  42.939  16.651  14.791
72400W        W37880  22.553  36.865   4.704
72401W        W37881  41.865  40.836  13.316
72402W        W37882  24.049  12.668   5.286
72403W        W37883  31.963  13.340   4.124
72404W        W37884  22.507  30.588   3.787
72405W        W37885  33.487  38.952   1.351
72406W        W37886  17.076  17.075   1.294
72407W        W37887  30.580   7.812  10.508
72408W        W37888  17.202  28.488   1.295
72409W        W37889  35.968  37.386   5.246
72410W        W37890  39.973  44.948  14.428
72411W        W37891  31.940  40.025  14.311
72412W        W37892   3.329   8.688   1.826
72413W        W37893  24.196  18.295   4.346
72414W        W37894  18.089  44.882  12.408
72415W        W37895   3.871  38.833   3.315
72416W        W37896  15.185  30.553   4.200
72417W        W37897  29.668  24.483  11.940
72418W        W37898  11.636  19.126   3.336
72419W        W37899  37.931  33.949   2.700
72420W        W37900   9.742  20.064   2.672
72421W        W37901   0.339  13.719  10.911
72422W        W37902  40.521  26.593   2.281
72423W        W37903  26.519  17.123  10.417
72424W        W37904  42.343  13.600   2.775
72425W        W37905  37.005  41.804   3.147
72426W        W37906  17.606  36.954   0.342
72427W        W37907  23.158  43.822  13.032
72428W        W37908  15.096  12.753   1.281
72429W        W37909  25.978   3.841  12.095
72430W        W37910  26.002   5.781  13.425
72431W        W37911   0.380   8.849   3.707
72432W        W37912  13.226  25.102   3.775
72433W        W37913  29.609   6.790  12.402
72434W        W37914  35.110  16.693  14.932
72435W        W37915  19.680  23.131  12.447
72436W        W37916  38.066  22.528   0.371
72437W        W37917  13.164   8.768  12.568
72438W        W37918   0.478  21.026   2.405
72439W        W37919  15.751  39.515   2.672
72440W        W37920   8.276  33.462   0.966
72441W        W37921  33.429  35.982  14.759
72442W        W37922  31.564  14.209  14.826
72443W        W37923  11.180  12.763   4.638
72444W        W37924  39.420   1.411  13.417
72445W        W37925  11.176  42.516   5.146
72446W        W37926   8.256  41.828  14.969
72447W        W37927  37.988  41.042   4.741
72448W        W37928   5.257   7.810  12.851
72449W        W37929   3.362   9.378  11.987
72450W        W37930  30.942  31.998  14.503
72451W        W37931  25.708   2.321   0.920
72452W        W37932  41.333  42.432   0.761
72453W        W37933  16.657   2.232  14.337
72454W        W37934  38.360  34.403  13.458
72455W        W37935   8.239  26.520   9.923
72456W        W37936  29.664  31.617  13.383
72457W        W37937   8.196  25.521  11.408
72458W        W37938   7.673  28.012   3.276
72459W        W37939   5.210  41.943   2.417
72460W        W37940  30.627  34.016   4.115
72461W        W37941  23.125  29.058   2.294
72462W        W37942  18.763  30.003  10.536
72463W        W37943  20.091  10.322  13.039
72464W        W37944  31.617  38.888  12.847
72465W        W37945  30.450  20.765  11.457
72466W        W37946  36.865  38.567   4.609
72467W        W37947  11.655   9.777   3.861
72468W        W37948   1.361  10.238  10.931
72469W        W37949  10.809  26.130  13.974
72470W        W37950  11.204   7.859   3.175
72471W        W37951  20.590  29.112   3.777
72472W        W37952   8.669  17.155  10.619
72473W        W37953  29.442   9.863   2.893
72474W        W37954   9.690  38.949  11.445
72475W        W37955  44.399  34.480  10.942
72476W        W37956  26.596  25.568   2.780
72477W        W37957  30.084  11.255  13.003
72478W        W37958  23.701   5.724   3.385
72479W        W37959   2.849  17.658   0.793
72480W        W37960  18.688  32.045  14.934
72481W        W37961  40.941  20.590   3.253
72482W        W37962  42.907  35.871   1.263
72483W        W37963  29.575  31.914   3.282
72484W        W37964  37.882  40.890   3.809
72485W        W37965  22.104  25.624  12.501
72486W        W37966  16.196  20.077  14.959
72487W        W37967  13.819   3.307  12.490
72488W        W37968  32.139  31.128  12.425
72489W        W37969  34.581  19.205  14.282
72490W        W37970   6.205  35.482   3.190
72491W        W37971  27.982  11.254  11.477
72492W        W37972  24.213  19.565  13.806
72493W        W37973  35.449  40.026  10.529
72494W        W37974  11.324  34.939  12.351
72495W        W37975  19.283  29.058   2.732
72496W        W37976   4.230   4.257  12.854
72497W        W37977  15.253  24.114  14.489
72498W        W37978  32.908   7.341  13.873
72499W        W37979  17.787  21.085  13.917
72500W        W37980  12.235  15.770  12.901
72501W        W37981   5.835  41.927   3.637
72502W        W37982  33.027  32.565   3.316
72503W        W37983   8.291  21.586   0.262
72504W        W37984   3.783  30.614  11.859
72505W        W37985  32.490  41.819  11.607
72506W        W37986  18.548   9.217  14.845
72507W        W37987  20.263  23.637  11.002
72508W        W37988  42.320   8.178  12.088
72509W        W37989  12.210  15.247   0.346
72510W        W37990  37.560  18.566   3.777
72511W        W37991  22.222  12.152   3.732
72512W        W37992  28.475  14.723   4.326
72513W        W37993   8.247  31.444  12.381
72514W        W37994  42.010  15.245   0.946
72515W        W37995  28.680  29.516   9.930
72516W        W37996  44.930  12.772  11.856
72517W        W37997  14.134  36.033  11.508
72518W        W37998  39.872   4.891  12.855
72519W        W37999  22.076  32.524  13.798
72520W        W38000  21.543  13.630   0.378
72521W        W38001  16.725  39.467   2.310
72522W        W38002  15.822  18.280  11.040
72523W        W38003  31.120  41.391   1.695
72524W        W38004   7.898  27.584   2.223
72525W        W38005  35.496  41.909  12.942
72526W        W38006  26.477  20.757  14.365
72527W        W38007  31.110   8.309  14.515
72528W        W38008   0.392  32.514  11.952
72529W        W38009  26.083  34.388  13.337
72530W        W38010  31.552   3.818   0.934
72531W        W38011  18.124  12.696   3.653
72532W        W38012  31.509  37.863   2.703
72533W        W38013   2.285  36.449   0.430
72534W        W38014  40.847  36.922   4.251
72535W        W38015  32.885  13.730   2.841
72536W        W38016  25.684  28.626  13.840
72537W        W38017   2.243  23.732   0.838
72538W        W38018  41.486  16.213   2.359
72539W        W38019  11.630  18.637   4.685
72540W        W38020  35.079  41.492  11.431
72541W        W38021  34.042  30.489  10.504
72542W        W38022  42.782  21.633   2.357
72543W        W38023  41.369  23.685   0.780
72544W        W38024  31.991  31.121   0.338
72545W        W38025  16.574  43.464   3.350
72546W        W38026  12.200  36.971  12.846
72547W        W38027  17.797  11.310   2.364
72548W        W38028  10.742  37.077  14.924
72549W        W38029  16.711   2.731  10.458
72550W        W38030  32.928   4.757  10.989
72551W        W38031   6.746  43.371   1.251
72552W        W38032  28.577  38.050  12.367
72553W        W38033  26.497   0.354  12.416
72554W        W38034   0.975   2.728  12.926
72555W        W38035  18.268  33.028  13.955
72556W        W38036  21.207  17.689   0.837
72557W        W38037   0.958  27.007   0.841
72558W        W38038  31.002  44.881   4.797
72559W        W38039   9.275  35.496  13.959
72560W        W38040  24.029  12.726  12.513
72561W        W38041  24.164  38.567   3.773
72562W        W38042  24.681   1.388   4.713
72563W        W38043  28.947  30.538  10.620
72564W        W38044  38.500   5.368  14.027
72565W        W38045  39.374  17.775  12.825
72566W        W38046  18.216   9.342   2.345
72567W        W38047   9.378  32.969   0.800
72568W        W38048  41.982  36.444   4.163
72569W        W38049  32.899  24.172  10.644
72570W        W38050  26.658  15.307  11.933
72571W        W38051  34.541  35.409  10.529
72572W        W38052   7.731  40.528   2.676
72573W        W38053  32.056  17.190   3.165
72574W        W38054  25.496  25.063  10.600
72575W        W38055   9.706  37.460   2.745
72576W        W38056  37.944  12.725   1.789
72577W        W38057  42.919   3.227   1.385
72578W        W38058  36.547  42.938  13.838
72579W        W38059  39.369  44.911   0.870
72580W        W38060  13.155  38.527  11.113
72581W        W38061  29.449   8.358   0.802
72582W        W38062  25.699   2.922  14.888
72583W        W38063  28.964   0.254  12.863
72584W        W38064  30.448  35.360  10.592
72585W        W38065  25.982  27.077  11.384
72586W        W38066  39.466  23.706   3.173
72587W        W38067  44.878  22.036  11.078
72588W        W38068   1.377  11.635   0.766
72589W        W38069  37.893  31.413   0.730
72590W        W38070  33.934  23.105  14.813
72591W        W38071  33.903  26.484   4.612
72592W        W38072  25.582  30.139  12.944
72593W        W38073  26.962  25.074   4.635
72594W        W38074  35.406  22.073  11.079
72595W        W38075  39.369  40.386  10.959
72596W        W38076  41.524  44.406  14.331
72597W        W38077  14.224  10.782  13.019
72598W        W38078  12.688   6.190   1.846
72599W        W38079   9.858   0.871  12.477
72600W        W38080  38.455   4.717  11.389
72601W        W38081  37.403  43.872   4.199
72602W        W38082   4.759  27.495   2.729
72603W        W38083  13.314  28.127   1.267
72604W        W38084  21.246  17.304   0.362
72605W        W38085  31.435   4.223   0.342
72606W        W38086  17.234  33.014  11.522
72607W        W38087  16.596  29.623   2.755
72608W        W38088   5.414  42.910  14.369
72609W        W38089  25.213  36.063  13.893
72610W        W38090   6.727  27.966  10.119
72611W        W38091   1.764  42.895  10.623
72612W        W38092  11.787  34.888   4.810
72613W        W38093  39.824  29.640   3.839
72614W        W38094  13.700   0.813  12.444
72615W        W38095  15.257  22.065  13.798
72616W        W38096  16.208  31.935  13.424
72617W        W38097  36.993  28.011   3.768
72618W        W38098  14.768  34.065  12.872
72619W        W38099  11.153  23.031   0.881
72620W        W38100   0.765  19.779   5.300
72621W        W38101  38.362  15.612   0.451
72622W        W38102  38.350   7.696   2.348
72623W        W38103   8.336  32.404   4.811
72624W        W38104   4.828  38.430  10.069
72625W        W38105   3.304  11.183  10.944
72626W        W38106  31.519   9.249   1.367
72627W        W38107  25.655  23.564  12.435
72628W        W38108  22.539  40.322  11.435
72629W        W38109  16.074   2.910   4.689
72630W        W38110  11.163  21.114  13.409
72631W        W38111  22.222  24.187  11.862
72632W        W38112   3.733  16.117   4.278
72633W        W38113  28.527  34.898  10.439
72634W        W38114  11.188  23.665  10.480
72635W        W38115   3.790   9.756  14.809
72636W        W38116  31.564  13.226  12.973
72637W        W38117  36.379  11.752  10.435
72638W        W38118  40.484   3.772  12.891
72639W        W38119  44.988   0.795   2.825
72640W        W38120  16.597  12.201  11.977
72641W        W38121  32.455   4.703  11.545
72642W        W38122   7.682  28.450   0.402
72643W        W38123   7.672  18.602  11.473
72644W        W38124  22.147  35.512   0.249
72645W        W38125  26.688  16.763   0.247
72646W        W38126  21.083  31.962  12.510
72647W        W38127  28.449  20.243   4.235
72648W        W38128  28.089  39.919   3.778
72649W        W38129   5.746  31.925  11.020
72650W        W38130  19.751   8.805   0.281
72651W        W38131  17.225  22.059  13.004
72652W        W38132  24.038  39.064   5.116
72653W        W38133  41.911  27.679   3.285
72654W        W38134  35.972  16.796   3.644
72655W        W38135  41.507   8.257  14.934
72656W        W38136   2.305  12.264  14.370
72657W        W38137  39.865   5.886  14.459
72658W        W38138  37.000   5.690  13.825
72659W        W38139  32.502  39.962   2.291
72660W        W38140  24.659  41.514   3.717
72661W        W38141  11.343  42.845  14.779
72662W        W38142   3.353   2.393   4.660
72663W        W38143  13.726   1.367   3.837
72664W        W38144   7.895  35.489  12.339
72665W        W38145  38.878  17.738  11.010
72666W        W38146  42.380  43.300   0.411
72667W        W38147  32.401  39.439   0.336
72668W        W38148  43.010  36.016  11.442
72669W        W38149  39.512   2.917   4.168
72670W        W38150  10.138  35.499  12.478
72671W        W38151  38.920  34.459   4.681
72672W        W38152  25.963   4.413  13.508
72673W        W38153  17.558  12.142   3.829
72674W        W38154   5.391   7.852  10.495
72675W        W38155   8.685  13.799  13.852
72676W        W38156  34.432  10.798   3.307
72677W        W38157   9.722  44.892  12.087
72678W        W38158  18.698  12.791  11.007
72679W        W38159  29.079  27.975   0.321
72680W        W38160  33.455  27.189  14.777
72681W        W38161  10.148  31.621   4.697
72682W        W38162  27.584  33.432   1.317
72683W        W38163  17.575  37.527  13.408
72684W        W38164  31.461  42.029  12.512
72685W        W38165   6.820  19.580  12.018
72686W        W38166  41.477  39.005   1.819
72687W        W38167  37.972  43.348   4.262
72688W        W38168  34.081  32.625  14.923
72689W        W38169  42.827   4.254   9.658
72690W        W38170   0.311  22.171   2.820
72691W        W38171  32.076  26.654  11.533
72692W        W38172  28.985  36.076   0.355
72693W        W38173  44.499  28.652   3.737
72694W        W38174  34.438  22.022  14.768
72695W        W38175  29.003   0.436   4.718
72696W        W38176   1.829  23.056  10.949
72697W        W38177  15.278  28.165   3.363
72698W        W38178  21.757  19.600   1.799
72699W        W38179  28.673  16.604  13.308
72700W        W38180  29.034  31.596   1.227
72701W        W38181   6.284  35.598  11.885
72702W        W38182   5.219  35.562   4.161
72703W        W38183   7.367   8.264  11.456
72704W        W38184   7.884  16.806  13.910
72705W        W38185   7.209  30.983   1.385
72706W        W38186  29.088  18.581  14.501
72707W        W38187  28.553  24.720  13.541
72708W        W38188  13.807  27.006   1.835
72709W        W38189  27.028  27.598   4.597
72710W        W38190  21.232   8.812   2.213
72711W        W38191  43.458  32.061  11.968
72712W        W38192  15.229  40.507   4.731
72713W        W38193  41.984  11.210  14.762
72714W        W38194  41.299  36.012  12.351
72715W        W38195  10.663  41.422  12.404
72716W        W38196  39.843  42.442   0.779
72717W        W38197  21.096  35.394   3.659
72718W        W38198  44.504  35.578  14.403
72719W        W38199  19.644  36.586  13.916
72720W        W38200  40.411  44.359   1.438
72721W        W38201  13.162   1.408  11.045
72722W        W38202   0.439  12.624   4.116
72723W        W38203  42.466  15.266   3.153
72724W        W38204  40.320   3.322  12.482
72725W        W38205  31.591  37.431  10.903
72726W        W38206  19.768  18.557  13.039
72727W        W38207  11.711  27.679  13.992
72728W        W38208  42.031  22.603   0.383
72729W        W38209  12.684   3.797   0.909
72730W        W38210  34.892  27.553  12.436
72731W        W38211  18.691  32.061   9.965
72732W        W38212  18.554   2.827  10.447
72733W        W38213  37.506  40.993   3.836
72734W        W38214  19.188  44.010  12.036
72735W        W38215   1.867  15.138   3.658
72736W        W38216  28.640  40.841  14.370
72737W        W38217  19.154   8.845  14.880
72738W        W38218  33.623  11.799   1.906
72739W        W38219  40.377  22.536   1.775
72740W        W38220  16.653   8.731  13.312
72741W        W38221  14.761  28.973  14.420
72742W        W38222  38.409  40.507  12.404
72743W        W38223  40.804  31.069   4.757
72744W        W38224  44.772  39.478   2.256
72745W        W38225  10.206  25.649  12.423
72746W        W38226   2.461  14.211   3.725
72747W        W38227  14.295  11.348  12.350
72748W        W38228  18.195  27.669   5.279
72749W        W38229  43.980  30.464  12.065
72750W        W38230  22.018  29.473   1.214
72751W        W38231  30.526  39.063   1.816
72752W        W38232   4.929  37.456   4.686
72753W        W38233  19.771   7.185  13.327
72754W        W38234  42.788  21.018  10.617
72755W        W38235  16.094  28.437  13.414
72756W        W38236  16.807  19.705   1.249
72757W        W38237  12.857  14.131  13.829
72758W        W38238  35.868  38.479   0.857
72759W        W38239  20.666  42.343   2.769
72760W        W38240  29.138  13.340   4.817
72761W        W38241   2.338  42.979  10.107
72762W        W38242  32.997  41.822  14.929
72763W        W38243   8.719  39.969  13.932
72764W        W38244  27.065  36.585  11.513
72765W        W38245  28.570   8.203  12.471
72766W        W38246  21.632  36.440  11.002
72767W        W38247  23.606  26.701   1.335
72768W        W38248  43.768  37.582   2.316
72769W        W38249  39.336  33.072   0.455
72770W        W38250  13.246  31.951   0.742
72771W        W38251  44.465  40.518   4.814
72772W        W38252  12.208  18.554  12.455
72773W        W38253  20.081  14.235   1.426
72774W        W38254  26.550   6.240   3.366
72775W        W38255  33.436  16.635   0.439
72776W        W38256  21.665   1.748  14.958
72777W        W38257   2.927  18.588   4.803
72778W        W38258   5.840  44.474  14.854
72779W        W38259   2.903  10.302  11.418
72780W        W38260   8.750  29.165  12.897
72781W        W38261  21.077  42.017   4.749
72782W        W38262  36.919  42.846  11.603
72783W        W38263  37.421  40.940   3.370
72784W        W38264   3.773  26.694   4.231
72785W        W38265  21.547  35.462   3.305
72786W        W38266  38.492   5.816   4.238
72787W        W38267  26.468  36.537  14.350
72788W        W38268  31.545  23.047   4.807
72789W        W38269  25.041   6.749  12.375
72790W        W38270  21.574   2.932  13.884
72791W        W38271  35.603   4.707  10.925
72792W        W38272   7.355  35.497   0.248
72793W        W38273   8.698  18.576  14.325
72794W        W38274  26.966  23.662  13.362
72795W        W38275  13.269  28.621  14.494
72796W        W38276  12.353  31.107  12.496
72797W        W38277   4.905   9.715  11.949
72798W        W38278  40.372  26.110  11.462
72799W        W38279   9.876  40.308   1.699
72800W        W38280  16.666  20.713   2.901
72801W        W38281  15.195   2.854   3.295
72802W        W38282  14.637  39.046   3.264
72803W        W38283   0.395  28.065  13.498
72804W        W38284  10.643   0.312   0.320
72805W        W38285  18.160  24.647   1.232
72806W        W38286  21.758  35.408   1.894
72807W        W38287  15.714   2.866   2.775
72808W        W38288  40.352  33.076   0.453
72809W        W38289   0.298  41.926  11.391
72810W        W38290  20.559  31.994   3.305
72811W        W38291  44.465  25.590   0.259
72812W        W38292  42.977  40.482  13.461
72813W        W38293  41.334  39.047  10.057
72814W        W38294   4.306  36.519  14.297
72815W        W38295  14.258  20.206   5.141
72816W        W38296   0.323  29.928   4.654
72817W        W38297  22.612  30.540  14.758
72818W        W38298   4.945   5.759   1.746
72819W        W38299  21.022  30.417   0.939
72820W        W38300  18.247  22.641   2.357
72821W        W38301  19.722  25.471  10.144
72822W        W38302  23.156  38.060  13.932
72823W        W38303   0.965  29.628  13.876
72824W        W38304   0.932   8.784  10.558
72825W        W38305  37.959  37.463   3.758
72826W        W38306  44.416  41.489  14.003
72827W        W38307  21.515  40.925  11.415
72828W        W38308  11.655  29.427   4.694
72829W        W38309  18.669  10.874   1.836
72830W        W38310  31.900  16.765   2.369
72831W        W38311   4.415  44.758   1.757
72832W        W38312  39.065  12.256  11.933
72833W        W38313  29.626  31.611   4.819
72834W        W38314  16.569   9.695  14.364
72835W        W38315   8.163   3.257  11.116
72836W        W38316  30.570  43.786   2.412
72837W        W38317   0.460  33.469   2.206
72838W        W38318  18.085   5.408   3.217
72839W        W38319  11.807   5.847  12.919
72840W        W38320   4.325   7.315   2.209
72841W        W38321  27.489  28.622   3.334
72842W        W38322  39.441  13.808  13.902
72843W        W38323  22.603  25.047  13.042
72844W        W38324  10.737  34.113  14.358
72845W        W38325  11.796  28.499  11.414
72846W        W38326  42.458   8.773  13.061
72847W        W38327  20.732  25.531  14.000
72848W        W38328  16.249  25.136  14.364
72849W        W38329  16.178  26.104   1.349
72850W        W38330   3.852  41.897   1.277
72851W        W38331  36.381  41.500  12.421
72852W        W38332  17.739  13.151  14.516
72853W        W38333   1.466  13.308  10.517
72854W        W38334  14.184  21.669  12.355
72855W        W38335  15.194  14.205   3.306
72856W        W38336  14.314   1.276   1.226
72857W        W38337   5.273  21.090   3.815
72858W        W38338  10.739  17.296   4.833
72859W        W38339   1.341  38.364  14.301
72860W        W38340  40.827  44.317  12.565
72861W        W38341   1.443   9.305  10.901
72862W        W38342  35.978  27.531   1.307
72863W        W38343  32.067  13.294   4.821
72864W        W38344   7.201  40.466  11.438
72865W        W38345  29.002  21.112   2.714
72866W        W38346  20.723   7.275  12.938
72867W        W38347  13.601  11.261  12.057
72868W        W38348  41.992  36.374  14.444
72869W        W38349  30.088  15.636  13.792
72870W        W38350  19.116  10.772   2.822
72871W        W38351  33.435  10.873   1.267
72872W        W38352  30.162  13.328   4.316
72873W        W38353   0.775  14.736   2.231
72874W        W38354  25.987   1.831  12.938
72875W        W38355  28.554  29.969   4.713
72876W        W38356  39.451  42.479   0.347
72877W        W38357  32.462  24.009  14.369
72878W        W38358   3.446   3.386   2.361
72879W        W38359  32.085  19.167  14.872
72880W        W38360   7.380  16.233   1.830
72881W        W38361  26.109  19.675  10.512
72882W        W38362  38.014  42.409  13.852
72883W        W38363  33.410  32.581   3.640
72884W        W38364  22.503  27.995   0.798
72885W        W38365   9.215  16.233   4.204
72886W        W38366   7.716   2.298  10.624
72887W        W38367   3.386  38.334  10.624
72888W        W38368   3.239  31.581  13.965
72889W        W38369  25.620  24.214  13.956
72890W        W38370   1.261  32.015   2.188
72891W        W38371  12.852  35.015  11.449
72892W        W38372  27.076  40.372  11.470
72893W        W38373  40.525  14.274   1.932
72894W        W38374   1.313  21.656  13.345
72895W        W38375   9.174  35.098  14.427
72896W        W38376  34.935   8.170   3.335
72897W        W38377  12.672  37.405   4.739
72898W        W38378   4.779  26.603   2.772
72899W        W38379  36.848  26.988  12.985
72900W        W38380  21.678  14.697   1.922
72901W        W38381   9.215  13.124  14.009
72902W        W38382   9.879  27.047   0.940
72903W        W38383  14.720  17.149  14.869
72904W        W38384  31.905  37.974  12.971
72905W        W38385  26.681  34.923   2.662
72906W        W38386  23.645  31.953   4.264
72907W        W38387  20.260   6.189  11.960
72908W        W38388  30.105  25.489   0.311
72909W        W38389  22.559  14.603  14.869
72910W        W38390   3.786   6.804   2.758
72911W        W38391   0.306  41.494  13.002
72912W        W38392  18.590  13.228   3.267
72913W        W38393  30.482  30.498  12.384
72914W        W38394   7.174  26.203  10.437
72915W        W38395   3.333   0.461   2.332
72916W        W38396  21.134  32.625  12.477
72917W        W38397   7.178  31.440  11.081
72918W        W38398   6.416  12.170  14.466
72919W        W38399  11.635   7.322  14.853
72920W        W38400  37.897   0.296   3.272
72921W        W38401   3.778  43.468  13.821
72922W        W38402  31.584  25.508   1.905
72923W        W38403  42.908  28.168  13.410
72924W        W38404   3.943   0.899  13.353
72925W        W38405  21.143  14.620   1.707
72926W        W38406   0.922  29.920   3.727
72927W        W38407  30.963   6.244  11.478
72928W        W38408  23.563  33.401   4.799
72929W        W38409  32.482  40.326  13.494
72930W        W38410  12.636   0.482   3.262
72931W        W38411  13.159   3.858   4.344
72932W        W38412  29.113   7.813   4.265
72933W        W38413  35.908  44.488  10.415
72934W        W38414  29.615  42.878  12.887
72935W        W38415  20.239  24.186   1.315
72936W        W38416   8.307   3.450   1.351
72937W        W38417   3.342  40.946  12.454
72938W        W38418  28.039  23.115   1.800
72939W        W38419   3.430   2.336   3.772
72940W        W38420  27.634  11.690  10.611
72941W        W38421  18.784   3.289  14.899
72942W        W38422  17.248  18.665   3.850
72943W        W38423  24.996  42.984  14.344
72944W        W38424  15.585  27.990  11.481
72945W        W38425  27.943  20.746   2.354
72946W        W38426  35.082   7.902   1.920
72947W        W38427   1.776  40.999   4.702
72948W        W38428  34.871  25.035  12.053
72949W        W38429  13.793  15.111  12.945
72950W        W38430  28.085  17.127   3.860
72951W        W38431  15.603  36.883   1.920
72952W        W38432  44.798  22.103   0.743
72953W        W38433  11.737  13.130   4.653
72954W        W38434  28.051  34.528  10.104
72955W        W38435  35.041  18.734   1.817
72956W        W38436  18.206  36.900   1.829
72957W        W38437   9.744  17.765  13.878
72958W        W38438   8.220  15.266  12.496
72959W        W38439  13.634  38.463   1.842
72960W        W38440  11.640  36.353   4.220
72961W        W38441  35.083   1.808   5.168
72962W        W38442  18.093  32.616  13.955
72963W        W38443   2.465  40.495  12.846
72964W        W38444  37.841  25.600   2.373
72965W        W38445   5.416  18.731  10.616
72966W        W38446  31.467   5.321  11.079
72967W        W38447  35.369  19.768  11.885
72968W        W38448  22.033   3.330   3.630
72969W        W38449  33.879  26.660  13.350
72970W        W38450  42.795  26.052  14.292
72971W        W38451  35.367  39.009   2.264
72972W        W38452   1.843  25.213   3.381
72973W        W38453   6.294  43.502  13.429
72974W        W38454   7.828  36.941  13.429
72975W        W38455  38.980  31.405  13.884
72976W        W38456  31.932  12.770   1.840
72977W        W38457  41.518  29.089   0.769
72978W        W38458  33.031  38.532  11.456
72979W        W38459  11.749   0.318   2.844
72980W        W38460  29.487  31.931   4.607
72981W        W38461  32.426  25.991   0.791
72982W        W38462  38.528   0.282  10.943
72983W        W38463  28.956   8.792  12.917
72984W        W38464  13.682  28.142   4.173
72985W        W38465   3.891   0.441   0.781
72986W        W38466  16.798  13.246   9.974
72987W        W38467   1.841  32.091  12.853
72988W        W38468   3.729   6.886   1.326
72989W        W38469  36.431  22.093   3.767
72990W        W38470  41.988  31.041   4.648
72991W        W38471  13.647   2.772  11.534
72992W        W38472   9.212  41.301  11.027
72993W        W38473  13.615   8.372  10.486
72994W        W38474  22.611  10.190  11.939
72995W        W38475  21.638  22.665   1.885
72996W        W38476   0.279  39.836   3.184
72997W        W38477   3.901  40.531   1.299
72998W        W38478  20.718  44.911  11.953
72999W        W38479   4.935  37.863  13.877
73000W        W38480  17.142  44.986   4.255
73001W        W38481   8.664   1.910   3.294
73002W        W38482  33.094  20.102  13.433
73003W        W38483   8.197   1.415   3.663
73004W        W38484   3.745   3.279  13.345
73005W        W38485   7.678  40.400   4.317
73006W        W38486  14.779  11.661   0.882
73007W        W38487  30.535  16.652  14.371
73008W        W38488  43.415  24.528  10.905
73009W        W38489   5.419  29.596  10.467
73010W        W38490   0.977  26.556   3.187
73011W        W38491  11.284  24.177   3.155
73012W        W38492   2.897   8.778   1.914
73013W        W38493   0.922  34.568   1.721
73014W        W38494  43.771  17.108  14.847
73015W        W38495  24.623  18.639  13.059
73016W        W38496   6.251   5.283  12.477
73017W        W38497  41.845  10.821  13.960
73018W        W38498  41.887  26.166  14.025
73019W        W38499  19.663  38.399  13.320
73020W        W38500   5.289   6.828   2.880
73021W        W38501  29.485  25.149  12.349
73022W        W38502   3.325  33.981   2.690
73023W        W38503  33.909  12.326  13.815
73024W        W38504   3.789  44.008   2.265
73025W        W38505  18.133  35.986  12.565
73026W        W38506  17.625   3.762  13.331
73027W        W38507  36.907  33.572   1.409
73028W        W38508  36.530  22.685   2.374
73029W        W38509  29.485  37.389   2.740
73030W        W38510  29.439   7.813  10.940
73031W        W38511   9.744   0.865   3.778
73032W        W38512  38.510   3.836  10.604
73033W        W38513  28.047   1.813   1.273
73034W        W38514   8.225  40.454   3.681
73035W        W38515  25.663  11.153  12.494
73036W        W38516  21.104   9.797   4.765
73037W        W38517  35.883   7.251   4.225
73038W        W38518  35.542  19.100  11.919
73039W        W38519  30.508   8.733  11.964
73040W        W38520   9.783  11.217   1.857
73041W        W38521  10.339   0.388   1.262
73042W        W38522  14.765  39.961   5.251
73043W        W38523  18.269  14.734  13.432
73044W        W38524  25.064  38.958  12.949
73045W        W38525  43.770  19.740  11.436
73046W        W38526   2.863   7.177   1.853
73047W        W38527  36.954  41.956   0.480
73048W        W38528  12.762  26.167   3.381
73049W        W38529  22.151  41.885  13.494
73050W        W38530  34.885  44.473   1.246
73051W        W38531  31.906  41.483   0.965
73052W        W38532  19.099   7.858  11.563
73053W        W38533  15.115  22.742  12.920
73054W        W38534  20.042   2.749  10.980
73055W        W38535  25.194  27.055   2.237
73056W        W38536   7.695  37.469   3.347
73057W        W38537  18.108  25.510  11.038
73058W        W38538  28.501  43.909  12.052
73059W        W38539  19.694  23.728   3.794
73060W        W38540   9.181   7.409  13.475
73061W        W38541   4.230  44.928   3.667
73062W        W38542  19.597  23.216  10.435
73063W        W38543   0.395  35.512  14.468
73064W        W38544  11.704   0.771  11.382
73065W        W38545  38.497  31.034  12.571
73066W        W38546   9.164  19.748   4.758
73067W        W38547  44.755  15.607  14.316
73068W        W38548  37.947  40.805  11.081
73069W        W38549  34.061  29.461   1.410
73070W        W38550  27.964  32.445  13.968
73071W        W38551   5.729  14.739   2.846
73072W        W38552  39.548  31.970   1.844
73073W        W38553  11.646   1.754   0.442
73074W        W38554  37.562  43.829  13.999
73075W        W38555  21.746   0.854   1.228
73076W        W38556  30.941  10.632   3.655
73077W        W38557   3.410  30.652  13.946
73078W        W38558  24.551   3.801   3.748
73079W        W38559  11.224   0.446  13.820
73080W        W38560   0.445  40.359  13.945
73081W        W38561  21.155  27.166   0.828
73082W        W38562  24.192  26.642  14.311
73083W        W38563  43.287  38.345   1.721
73084W        W38564  13.764  24.583  10.482
73085W        W38565  15.127   1.321  14.376
73086W        W38566   5.907  33.478   4.236
73087W        W38567  38.007  19.652  14.805
73088W        W38568  39.344  22.714  10.082
73089W        W38569  22.199   9.815  14.384
73090W        W38570  36.024  25.108   3.860
73091W        W38571  25.210  22.586  13.485
73092W        W38572  20.694  31.542  13.026
73093W        W38573  44.913  37.990  12.042
73094W        W38574  16.800  42.396  11.490
73095W        W38575  21.673  22.248  14.788
73096W        W38576  30.585   0.802   0.298
73097W        W38577  22.118  17.096  11.567
73098W        W38578   8.303  27.063  13.941
73099W        W38579  31.614   6.696   1.436
73100W        W38580  21.021   6.262  14.306
73101W        W38581   4.748   9.262  12.013
73102W        W38582  31.917  35.888  11.401
73103W        W38583  43.295  16.297  10.446
73104W        W38584  43.413  31.151  14.288
73105W        W38585   6.400  41.485  10.554
73106W        W38586   6.740  13.684   1.869
73107W        W38587  42.950  25.609  11.541
73108W        W38588   7.695  43.321  10.404
73109W        W38589   6.904  16.151  11.936
73110W        W38590  10.169  14.190   4.340
73111W        W38591  36.027  19.672   4.228
73112W        W38592  37.948  24.985   2.704
73113W        W38593  41.804  16.794  12.909
73114W        W38594  22.025  17.063   2.198
73115W        W38595  11.707  26.482   2.324
73116W        W38596  34.395  31.917  13.970
73117W        W38597  37.458  26.556  14.283
73118W        W38598  29.573  24.109   1.820
73119W        W38599  25.041  23.664   4.265
73120W        W38600   6.293  34.516  14.897
73121W        W38601   7.417  21.169  11.123
73122W        W38602  44.825  14.277   4.817
73123W        W38603   4.255  35.408  13.541
73124W        W38604  32.888  38.538   4.633
73125W        W38605   2.331  42.293  13.491
73126W        W38606  16.222  42.790   3.668
73127W        W38607  11.279  38.956   4.319
73128W        W38608  14.597  18.618   4.622
73129W        W38609   0.379  26.598  10.949
73130W        W38610  28.660  40.051   2.233
73131W        W38611  25.548  43.391  11.053
73132W        W38612  11.843  11.316  13.009
73133W        W38613  26.580  36.570   2.702
73134W        W38614  29.992  33.602   3.209
73135W        W38615  24.501   5.410   0.399
73136W        W38616  24.558  25.996   2.251
73137W        W38617  17.186  22.095   1.272
73138W        W38618  13.112  10.649  11.437
73139W        W38619  28.065  11.817  11.444
73140W        W38620  15.166  21.242  14.892
73141W        W38621  24.003  20.585   0.931
73142W        W38622  37.896  28.044  10.481
73143W        W38623  31.126   5.701  14.800
73144W        W38624  28.084  27.136   1.728
73145W        W38625  40.490   3.359  11.075
73146W        W38626  13.337  11.138  12.405
73147W        W38627  44.761  29.988  11.046
73148W        W38628  42.916   2.320  10.975
73149W        W38629  26.068  29.458   2.300
73150W        W38630  44.927  38.408  14.919
73151W        W38631   3.821  12.674   1.788
73152W        W38632  28.543  41.483   3.351
73153W        W38633  43.393  36.984  12.484
73154W        W38634  44.847  37.537   4.655
73155W        W38635  36.591  44.376  11.865
73156W        W38636   8.222   6.821   3.812
73157W        W38637  11.745   9.192   0.837
73158W        W38638  34.613  30.912   1.904
73159W        W38639  33.557  22.011  12.876
73160W        W38640  18.596  32.028  13.960
73161W        W38641   7.894  25.544   3.344
73162W        W38642  30.091   0.420  14.880
73163W        W38643  33.476   5.371   2.217
73164W        W38644  44.480  10.694   4.598
73165W        W38645  10.303  10.835  10.584
73166W        W38646  22.179   5.732  10.620
73167W        W38647  19.713   4.356  14.906
73168W        W38648   6.751  22.176  11.601
73169W        W38649   3.389  38.870   3.789
73170W        W38650  32.990  24.030  11.964
73171W        W38651   6.818   1.940  14.800
73172W        W38652  26.169  32.089  13.996
73173W        W38653  39.434  19.122   0.963
73174W        W38654  42.916  10.295  11.501
73175W        W38655  18.176  40.981  11.075
73176W        W38656   5.889  34.948  10.927
73177W        W38657  28.008  28.612  14.010
73178W        W38658  13.201  30.028  10.429
73179W        W38659  25.476  12.848  10.571
73180W        W38660   9.348  19.039   1.714
73181W        W38661   6.872  43.810   3.281
73182W        W38662  16.138  23.995  10.077
73183W        W38663  18.150  29.031   4.190
73184W        W38664  24.221  38.344   4.710
73185W        W38665  15.634  16.753  11.402
73186W        W38666  34.446  12.151   3.335
73187W        W38667  37.864  11.144  12.991
73188W        W38668   7.264  14.760   3.711
73189W        W38669   1.327   7.342  11.551
73190W        W38670  24.640  33.963   1.856
73191W        W38671  35.453  39.874   3.274
73192W        W38672  12.290   2.845   2.841
73193W        W38673  21.757  26.579   2.690
73194W        W38674   8.803  23.993   0.249
73195W        W38675   0.958   6.329   1.400
73196W        W38676  28.667  16.655  14.813
73197W        W38677  24.064  12.766  10.550
73198W        W38678   6.296  32.589  12.950
73199W        W38679   8.895  40.381   4.194
73200W        W38680  24.658  19.778  13.338
73201W        W38681  36.866  43.933  10.989
73202W        W38682  20.089  17.662  11.556
73203W        W38683  26.007   8.845  14.360
73204W        W38684  38.848  16.289   4.117
73205W        W38685  13.290  15.278   4.662
73206W        W38686  39.474   1.312  11.460
73207W        W38687  31.105  43.289  14.432
73208W        W38688  15.735  44.794   2.676
73209W        W38689  35.869  41.839  13.356
73210W        W38690   0.463   4.730  10.535
73211W        W38691  30.075  24.202  12.072
73212W        W38692  21.559  32.413   4.741
73213W        W38693  11.675   3.458  12.458
73214W        W38694  27.005  10.795  13.327
73215W        W38695  24.200  38.412  10.983
73216W        W38696  31.071  21.224   2.293
73217W        W38697   1.438  14.315  11.606
73218W        W38698   6.861  29.541  10.988
73219W        W38699  19.067  24.055  13.977
73220W        W38700  38.822  20.614  14.854
73221W        W38701   6.369  24.038   1.890
73222W        W38702  41.789  43.976  11.033
73223W        W38703  29.490   9.790  12.464
73224W        W38704  40.477  27.947   4.134
73225W        W38705  36.488  40.420  11.943
73226W        W38706  36.477   2.434  10.567
73227W        W38707  23.711  36.388   4.274
73228W        W38708   9.820  44.810   2.407
73229W        W38709  15.585  14.714  12.932
73230W        W38710  42.390  14.823  10.629
73231W        W38711  32.094  31.936  13.921
73232W        W38712  26.000   3.737  13.482
73233W        W38713  27.088  40.465   3.808
73234W        W38714  20.583   6.737  13.001
73235W        W38715  43.878  39.026  13.440
73236W        W38716   9.683  12.210   2.239
73237W        W38717   1.340  38.552  13.990
73238W        W38718  32.403  41.846  14.783
73239W        W38719  13.151  39.955  13.824
73240W        W38720  41.818   3.777  14.426
73241W        W38721   7.870  10.671   4.318
73242W        W38722   4.739  11.243   3.285
73243W        W38723  27.654  10.652  10.924
73244W        W38724   4.334  27.518  13.328
73245W        W38725  37.897  17.270   4.235
73246W        W38726  16.216  34.599  14.933
73247W        W38727  20.174  12.742  14.376
73248W        W38728  40.820  31.471  14.946
73249W        W38729   6.393  23.999  11.556
73250W        W38730  10.712  13.311   0.966
73251W        W38731  28.012  19.655   3.741
73252W        W38732   8.222  31.418   1.836
73253W        W38733  20.033   9.765  14.434
73254W        W38734   5.831   4.248  12.050
73255W        W38735  11.822  40.481   3.228
73256W        W38736  42.883  19.105   3.244
73257W        W38737  14.288   9.321   3.668
73258W        W38738  15.759   6.754   4.351
73259W        W38739  33.620  25.054  11.031
73260W        W38740  35.022  29.542   1.424
73261W        W38741  10.320  10.237   0.761
73262W        W38742  34.113  32.526  13.534
73263W        W38743  41.508  34.103  12.990
73264W        W38744   4.420  40.413  12.920
73265W        W38745  41.031  44.311   3.323
73266W        W38746  32.532  36.541   0.361
73267W        W38747  43.931  20.097   1.831
73268W        W38748  15.712  31.537  14.766
73269W        W38749   3.719  32.067   9.922
73270W        W38750  22.726   7.806   3.345
73271W        W38751  33.577  30.457  10.057
73272W        W38752  33.495  24.695   3.294
73273W        W38753  26.043   2.941   4.335
73274W        W38754  31.978  17.114   5.300
73275W        W38755  41.468  36.024  11.592
73276W        W38756   7.240  11.314  13.361
73277W        W38757   7.192  30.620   4.647
73278W        W38758  23.045   4.902   1.836
73279W        W38759   9.370  27.131   4.605
73280W        W38760  37.909  36.043   1.271
73281W        W38761  11.291  10.703   4.162
73282W        W38762  13.742  43.459  11.494
73283W        W38763   3.716  43.490  10.914
73284W        W38764  22.576  26.695  14.894
73285W        W38765  15.803  28.939  14.937
73286W        W38766  29.523  44.841  14.332
73287W        W38767   4.310  44.302   1.746
73288W        W38768  29.921  13.816  10.987
73289W        W38769   1.961  10.786  14.481
73290W        W38770  34.981  20.170   3.717
73291W        W38771  33.131  29.520  14.288
73292W        W38772   3.893  40.371   3.807
73293W        W38773  25.216  30.008  11.379
73294W        W38774  41.300  35.989   0.280
73295W        W38775   6.920  44.840  13.882
73296W        W38776  17.593  16.800   4.277
73297W        W38777  29.500  21.566   1.294
73298W        W38778  22.226   6.679   3.182
73299W        W38779  43.365  15.666  12.393
73300W        W38780  22.026  23.694  11.432
73301W        W38781  17.130  31.127   1.781
73302W        W38782  10.855  37.030   0.288
73303W        W38783  28.178  28.450  14.811
73304W        W38784  34.502   6.808   4.142
73305W        W38785   7.186  34.874   3.251
73306W        W38786   2.445   5.233   3.351
73307W        W38787  32.532  17.180   4.800
73308W        W38788  38.510   3.386  12.951
73309W        W38789  38.522  18.646   3.784
73310W        W38790   0.456  33.935  12.534
73311W        W38791  11.696  38.393   3.757
73312W        W38792   5.897  27.519  13.337
73313W        W38793   3.918  19.767  11.571
73314W        W38794  13.210  31.534   3.202
73315W        W38795   0.328  37.887   3.283
73316W        W38796  24.161  28.186  11.457
73317W        W38797   5.300  16.669   3.753
73318W        W38798  25.528  43.398   3.821
73319W        W38799  27.186   0.816  12.560
73320W        W38800  40.024   6.204  10.949
73321W        W38801  22.643  11.372   2.785
73322W        W38802  39.404  36.093  11.374
73323W        W38803  28.566   7.255   4.800
73324W        W38804  31.446  23.721   2.268
73325W        W38805  11.282   6.296  11.605
73326W        W38806  32.516  23.221   2.315
73327W        W38807  19.699  30.147   3.840
73328W        W38808   8.778  38.453   3.332
73329W        W38809  12.161  34.931   1.309
73330W        W38810  19.728  11.347   0.305
73331W        W38811   0.278  28.061   1.813
73332W        W38812  16.293  16.216  10.894
73333W        W38813  41.359   4.205  14.929
73334W        W38814  36.079  15.312  10.476
73335W        W38815  24.078  22.610   3.148
73336W        W38816   8.171   5.300  10.995
73337W        W38817   5.391  37.386   1.799
73338W        W38818  26.515  40.002  11.418
73339W        W38819   7.173   2.920  11.531
73340W        W38820  41.915  10.870  11.911
73341W        W38821  34.989  35.591   0.760
73342W        W38822  13.287   0.833  14.774
73343W        W38823   0.851  41.988   3.350
73344W        W38824  31.910  24.006   5.172
73345W        W38825  18.056  31.525  12.064
73346W        W38826  41.872  27.155   3.289
73347W        W38827  36.511  32.445   4.329
73348W        W38828   8.774  36.571   2.672
73349W        W38829   0.747  36.945   0.827
73350W        W38830   3.332  12.835   1.709
73351W        W38831  20.757  12.720   0.459
73352W        W38832  32.923   6.890  11.559
73353W        W38833  20.190   7.352   0.252
73354W        W38834  29.980   3.755  12.064
73355W        W38835  43.499  18.573  11.978
73356W        W38836  13.127  29.948  11.931
73357W        W38837   7.870  42.965  10.529
73358W        W38838  33.985  10.194  13.325
73359W        W38839  42.464   2.773   2.256
73360W        W38840  15.223  38.480   0.418
73361W        W38841  18.698  15.758  10.600
73362W        W38842  21.748  16.659  13.417
73363W        W38843  44.760   3.856   3.338
73364W        W38844  29.424  10.647  10.488
73365W        W38845  32.568  28.672   4.780
73366W        W38846  33.999  14.181   2.673
73367W        W38847  26.188  35.981  12.555
73368W        W38848  33.539  11.783   3.345
73369W        W38849  22.211  19.555   3.214
73370W        W38850  35.361   0.941  14.454
73371W        W38851   6.303  30.619   0.391
73372W        W38852  18.125   8.182   0.941
73373W        W38853  11.249   9.712   4.819
73374W        W38854  34.951   4.215   3.770
73375W        W38855  37.510   7.870   5.301
73376W        W38856  29.508  29.563  12.902
73377W        W38857  25.041  18.731   3.852
73378W        W38858   5.700   8.852  13.797
73379W        W38859   1.911   2.873  12.042
73380W        W38860  14.264   5.312  13.442
73381W        W38861   3.278  39.822   4.229
73382W        W38862  20.540   4.769  12.047
73383W        W38863  36.018  30.988   1.397
73384W        W38864  14.288   1.364   3.222
73385W        W38865  15.751  41.429   4.794
73386W        W38866   7.889  39.555  13.043
73387W        W38867  24.523  14.589   1.763
73388W        W38868  22.215   8.265  11.414
73389W        W38869   2.457   6.690   1.767
73390W        W38870   9.238   1.882   3.343
73391W        W38871   6.206   5.749  14.318
73392W        W38872  44.384  25.490  14.918
73393W        W38873  31.417   3.275   0.382
73394W        W38874   8.755  12.312   1.801
73395W        W38875  10.775  38.401  10.537
73396W        W38876   3.739   0.860  14.482
73397W        W38877  44.327  37.901   2.233
73398W        W38878  27.077  36.993   0.392
73399W        W38879  26.614  12.694   4.141
73400W        W38880  14.715  43.021   2.407
73401W        W38881  16.610  28.525   4.320
73402W        W38882  25.067   9.270  13.541
73403W        W38883   5.220  12.350  11.495
73404W        W38884  29.608   3.251   0.910
73405W        W38885  11.187  39.463   3.330
73406W        W38886  31.042  23.502   0.798
73407W        W38887  10.244  15.248   1.219
73408W        W38888  36.437  41.913   1.721
73409W        W38889  15.157   3.331  14.855
73410W        W38890   9.686   2.955   1.377
73411W        W38891  28.986   7.692  12.009
73412W        W38892  44.917   0.831   4.232
73413W        W38893  19.074   4.432   0.959
73414W        W38894  28.603  40.047   3.686
73415W        W38895  32.561  34.989   1.445
73416W        W38896  31.402  33.440  13.307
73417W        W38897  21.705  12.656   0.438
73418W        W38898   0.858   8.786   9.982
73419W        W38899   5.234  30.012  14.833
73420W        W38900  13.700  25.078  13.351
73421W        W38901  26.963  10.803  14.015
73422W        W38902  42.781  38.861   2.216
73423W        W38903  44.763  31.639  11.501
73424W        W38904   2.356   7.293   2.259
73425W        W38905  20.218  32.897  10.625
73426W        W38906  41.370  39.326   1.780
73427W        W38907   4.388  27.132  10.893
73428W        W38908  20.654  23.128   4.241
73429W        W38909  10.370  16.667   1.331
73430W        W38910  23.730  20.127  11.592
73431W        W38911  35.384  37.378   0.738
73432W        W38912  25.611  17.695   1.801
73433W        W38913  44.799  27.470  13.967
73434W        W38914   0.966  20.229  11.038
73435W        W38915  39.946  40.304   1.912
73436W        W38916  25.143  28.966  13.467
73437W        W38917  38.348  19.534  14.812
73438W        W38918   5.203  21.623   3.762
73439W        W38919  36.864  15.605  12.841
73440W        W38920  33.961   8.255  13.806
73441W        W38921   7.410  34.560  11.954
73442W        W38922   7.778   9.239   2.734
73443W        W38923  15.793   8.261   2.822
73444W        W38924  24.693   8.303   1.910
73445W        W38925  10.821  21.072  14.427
73446W        W38926  32.524  16.689  10.491
73447W        W38927  31.026  41.358   3.855
73448W        W38928  15.622  37.498  13.519
73449W        W38929  23.088  37.465  11.070
73450W        W38930  15.184  37.020  13.397
73451W        W38931  25.060  33.470  10.912
73452W        W38932  42.976  28.554  11.518
73453W        W38933   2.899  13.840   1.730
73454W        W38934  16.207  33.898  12.399
73455W        W38935  24.164  43.275  12.577
73456W        W38936  43.293   7.785   1.224
73457W        W38937  38.008  24.695   3.654
73458W        W38938   7.342  32.044  12.412
73459W        W38939  10.266  12.623   3.269
73460W        W38940   8.787   0.435   4.156
73461W        W38941   8.787   9.241   4.639
73462W        W38942  33.121  29.947  10.899
73463W        W38943  41.461  24.195   0.449
73464W        W38944  13.123  28.006   3.796
73465W        W38945   2.403  35.392   2.731
73466W        W38946   5.774  33.409  13.413
73467W        W38947  18.092  44.999   2.831
73468W        W38948  23.713  30.500  13.510
73469W        W38949  13.346   7.733   3.681
73470W        W38950  21.160  25.201  13.045
73471W        W38951  30.638   7.307   3.716
73472W        W38952  23.684  32.536  11.075
73473W        W38953  39.553  35.571  10.507
73474W        W38954  43.397  18.783   2.294
73475W        W38955  41.953  29.005  14.998
73476W        W38956   6.701  32.611  11.423
73477W        W38957  18.188   6.845   4.708
73478W        W38958  28.185  26.700   3.304
73479W        W38959  31.053  27.551  11.034
73480W        W38960   4.933  40.303  12.414
73481W        W38961  18.653   8.741   5.281
73482W        W38962  44.427  18.650  10.541
73483W        W38963  38.046  14.225   1.919
73484W        W38964  41.357  37.352  12.497
73485W        W38965  22.703  37.394  10.618
73486W        W38966  26.530   5.696   3.384
73487W        W38967  34.102   0.434  12.881
73488W        W38968  33.071  37.934   1.239
73489W        W38969  20.707  18.289   0.260
73490W        W38970  26.488  26.607   0.471
73491W        W38971  40.370   8.874  11.534
73492W        W38972  14.789  27.025   0.963
73493W        W38973  10.265  25.984   2.235
73494W        W38974  40.998   6.827  12.344
73495W        W38975  21.090  33.931   3.744
73496W        W38976   7.686  24.696   1.326
73497W        W38977  35.365   3.286   2.903
73498W        W38978  17.661  34.538  12.567
73499W        W38979   0.379  20.031   0.780
73500W        W38980  12.647  34.539  13.313
73501W        W38981   1.752   1.767   3.819
73502W        W38982  12.715  18.570   2.392
73503W        W38983  42.808  16.196   0.804
73504W        W38984  29.938  43.932  11.126
73505W        W38985  29.572  36.098  14.797
73506W        W38986  34.910  16.806   0.915
73507W        W38987  40.913  40.824   0.850
73508W        W38988   0.965  32.561   3.353
73509W        W38989  13.125  29.481   3.773
73510W        W38990   2.299  43.863   4.598
73511W        W38991  20.062  36.922   1.771
73512W        W38992   2.727   3.904  12.921
73513W        W38993  31.457   5.284   3.798
73514W        W38994   1.820  21.073  10.490
73515W        W38995  11.861   2.352   0.732
73516W        W38996  30.523  13.703  12.405
73517W        W38997  18.782  13.650  10.580
73518W        W38998  12.816   6.735   0.863
73519W        W38999  24.100  24.010  14.823
73520W        W39000  34.049  34.024   3.352
73521W        W39001  11.860  24.214  13.993
73522W        W39002  36.030  40.875   3.865
73523W        W39003  18.687  28.085   9.462
73524W        W39004   2.766  24.017   0.370
73525W        W39005  28.498  11.629   2.778
73526W        W39006  28.997  38.375  11.107
73527W        W39007  42.025  29.050  14.350
73528W        W39008  29.948  29.474  11.021
73529W        W39009  26.523  18.109   0.320
73530W        W39010  30.075  14.211   3.339
73531W        W39011   8.682  13.757  14.472
73532W        W39012  13.838  33.497   0.479
73533W        W39013  24.975  26.098   3.265
73534W        W39014  12.838  15.586   2.794
73535W        W39015  39.828   9.676  12.040
73536W        W39016   3.887  15.094   4.152
73537W        W39017  21.159   7.268   1.444
73538W        W39018  40.013   1.438   2.826
73539W        W39019  14.811  16.802  12.055
73540W        W39020  27.553  44.817   2.229
73541W        W39021  41.022  14.745  13.809
73542W        W39022   6.418   4.226   3.371
73543W        W39023  38.027  17.643   3.749
73544W        W39024  43.976  13.151   2.794
73545W        W39025  13.621  41.367  11.893
73546W        W39026  29.528  38.561   1.784
73547W        W39027   8.771  19.599  14.883
73548W        W39028   5.722  34.924  12.536
73549W        W39029  30.128  10.867  13.421
73550W        W39030  35.479  36.370  12.884
73551W        W39031   4.873  12.181   1.282
73552W        W39032  30.077  22.640   1.841
73553W        W39033  26.205   0.963   0.882
73554W        W39034   9.279  43.460  11.068
73555W        W39035  40.020  36.515   3.378
73556W        W39036  36.976  15.611  11.478
73557W        W39037  26.701  38.070   4.723
73558W        W39038   3.736  39.055  12.533
73559W        W39039  29.662  10.296   0.795
73560W        W39040  23.536   0.802   0.762
73561W        W39041  14.769  23.099  12.524
73562W        W39042  25.167  20.070  14.825
73563W        W39043  35.462   0.329  12.493
73564W        W39044  40.517  25.013  14.289
73565W        W39045   4.745  24.980   3.325
73566W        W39046   4.206  43.908  11.859
73567W        W39047  41.036  31.559  14.383
73568W        W39048   0.928  41.449   0.795
73569W        W39049   3.405  14.341  14.389
73570W        W39050  26.094   7.873  12.077
73571W        W39051  12.355  14.827   1.451
73572W        W39052  30.043   4.941  11.118
73573W        W39053  11.812   1.477   2.350
73574W        W39054  25.034  19.539   3.370
73575W        W39055   9.761  23.613   3.810
73576W        W39056  28.134  44.283   0.952
73577W        W39057   6.874  14.296  12.467
73578W        W39058  38.891  28.979   3.770
73579W        W39059  29.918  34.522  14.280
73580W        W39060  23.172  14.196   2.293
73581W        W39061  18.644   1.844  11.117
73582W        W39062  34.491  14.755   4.810
73583W        W39063   8.853  31.040  14.459
73584W        W39064   3.742  33.899  11.495
73585W        W39065  36.846  35.877   1.774
73586W        W39066   1.436  44.318   4.328
73587W        W39067  43.860  23.077  12.399
73588W        W39068  29.537  41.801   2.745
73589W        W39069   0.284  31.621  12.528
73590W        W39070  14.590  43.343   3.866
73591W        W39071  34.921  22.108   4.680
73592W        W39072  17.065  32.133  12.501
73593W        W39073  35.491  14.600  11.007
73594W        W39074  33.461   7.231  10.064
73595W        W39075  16.231   3.337  10.469
73596W        W39076  41.360  27.598   4.328
73597W        W39077  15.790  39.438   1.916
73598W        W39078  36.841   3.794  11.565
73599W        W39079  12.698  17.278   3.791
73600W        W39080  25.015  11.290   0.766
73601W        W39081  39.974  19.066  14.394
73602W        W39082  13.617  27.060   0.960
73603W        W39083   2.433  37.551  10.005
73604W        W39084  37.019  35.435   3.829
73605W        W39085   6.342   4.787  12.388
73606W        W39086  10.189  33.050   0.917
73607W        W39087  30.052   5.380   1.923
73608W        W39088   0.377  43.299  10.954
73609W        W39089  32.480  31.439  11.004
73610W        W39090  21.615  10.211   2.190
73611W        W39091  14.797  23.708   9.934
73612W        W39092  31.107  31.005   1.849
73613W        W39093   5.856  39.323   3.856
73614W        W39094  29.452  15.821  10.160
73615W        W39095  40.971   0.823  11.601
73616W        W39096  13.616  17.662   3.316
73617W        W39097  40.371  39.363   3.385
73618W        W39098   5.279  12.748  13.003
73619W        W39099  30.009   8.399   4.621
73620W        W39100  28.564  23.548   2.349
73621W        W39101  38.004  25.703  10.949
73622W        W39102   9.326  33.402  13.483
73623W        W39103   0.957  40.899   4.736
73624W        W39104   5.353  35.090   2.375
73625W        W39105  31.033  11.213  12.486
73626W        W39106  32.090  41.883   0.288
73627W        W39107  36.551   9.362  12.577
73628W        W39108  30.614  32.462  12.952
73629W        W39109  29.514   5.905   3.184
73630W        W39110  33.519  36.051   4.668
73631W        W39111  29.919  22.252  14.341
73632W        W39112  42.449  33.957   1.381
73633W        W39113  43.368  26.482  11.892
73634W        W39114   2.965  19.184   0.281
73635W        W39115  25.982  30.998  10.457
73636W        W39116  32.078  39.444  14.460
73637W        W39117  30.147   9.152  11.503
73638W        W39118  40.983  17.207   9.947
73639W        W39119  42.332  29.606   2.897
73640W        W39120  21.697   0.263  12.367
73641W        W39121  11.867  30.617  10.557
73642W        W39122  10.664  35.373   4.185
73643W        W39123  26.053  20.218   0.870
73644W        W39124  41.449   3.774  11.596
73645W        W39125  26.479   6.202   1.363
73646W        W39126  42.439  27.995   4.704
73647W        W39127   1.751   3.415  10.598
73648W        W39128  25.682  38.941   4.616
73649W        W39129  20.206  14.789   3.215
73650W        W39130  18.749   4.748  13.027
73651W        W39131   3.221  12.735  10.488
73652W        W39132  19.671  40.983   0.414
73653W        W39133   8.726   4.251  11.919
73654W        W39134  20.104   7.842   0.348
73655W        W39135  37.465  35.079  13.048
73656W        W39136  17.685  12.154  12.848
73657W        W39137  40.492  15.306  11.372
73658W        W39138  30.546  21.563  14.352
73659W        W39139  29.085   2.767   4.241
73660W        W39140  10.302  38.391  10.622
73661W        W39141   2.251  14.226  13.416
73662W        W39142  10.376   1.468  11.598
73663W        W39143  26.995  14.599  11.418
73664W        W39144  13.134   7.311   2.745
73665W        W39145  24.548  36.890   0.870
73666W        W39146  38.362  40.408   3.168
73667W        W39147  14.136  40.821  13.062
73668W        W39148  25.659  41.811   0.417
73669W        W39149  15.322  20.223   1.872
73670W        W39150  23.083   2.785  11.514
73671W        W39151  31.463  39.976   0.830
73672W        W39152  30.651  35.502  14.776
73673W        W39153  25.707  20.597  14.998
73674W        W39154  14.097  34.502   2.715
73675W        W39155  19.099  15.595  11.517
73676W        W39156  11.184  14.668   1.792
73677W        W39157  36.900  29.624   1.830
73678W        W39158  24.982  25.593  10.452
73679W        W39159  13.799  30.444  14.952
73680W        W39160  32.516  43.313   3.652
73681W        W39161  37.896  10.774   3.795
73682W        W39162  10.250  19.619  13.978
73683W        W39163  12.662  23.010   4.337
73684W        W39164  36.847   1.320  14.929
73685W        W39165  11.284   7.788  11.096
73686W        W39166  25.572  24.185  13.515
73687W        W39167  11.247   5.206  13.855
73688W        W39168  44.489   5.388  14.947
73689W        W39169   0.823  36.456   2.416
73690W        W39170  36.463  22.212   3.358
73691W        W39171  33.439  26.467   2.762
73692W        W39172  37.944  22.205  11.533
73693W        W39173  44.767   6.323  10.494
73694W        W39174  25.528  14.188  12.423
73695W        W39175   8.346  30.546   2.274
73696W        W39176  41.442  14.748  14.501
73697W        W39177  13.615  31.959   1.397
73698W        W39178   4.422  17.269  10.988
73699W        W39179  38.821  30.952  12.397
73700W        W39180  22.619  41.866   4.793
73701W        W39181  12.839  31.924  14.945
73702W        W39182   0.462   1.476  13.948
73703W        W39183   8.860  10.291  14.774
73704W        W39184  20.738   6.385   0.260
73705W        W39185  22.512   6.248  10.928
73706W        W39186  34.051  10.686  12.514
73707W        W39187  38.475  36.463  13.543
73708W        W39188  25.137  18.067   0.298
73709W        W39189  34.449  14.789   1.313
73710W        W39190  11.793  25.533  14.474
73711W        W39191  14.178  36.962   3.798
73712W        W39192  14.721  14.236   0.404
73713W        W39193  41.805  15.640   0.279
73714W        W39194  21.193   9.803   0.385
73715W        W39195  15.578  11.269  10.593
73716W        W39196  11.638  39.961  11.498
73717W        W39197  32.028  29.953  14.326
73718W        W39198  43.421  25.689   4.791
73719W        W39199  32.492  37.029   4.335
73720W        W39200  27.051   2.806   4.314
73721W        W39201   4.375  28.177   0.833
73722W        W39202  18.699  11.630   1.273
73723W        W39203  19.122  44.279  14.807
73724W        W39204  18.106   8.792   1.217
73725W        W39205  41.441  15.639  14.386
73726W        W39206  42.801   9.674   2.348
73727W        W39207  13.818  39.065   4.267
73728W        W39208   1.347  32.015  12.374
73729W        W39209  36.851  25.591  14.458
73730W        W39210  18.167  20.652  13.045
73731W        W39211  17.063   2.901  13.353
73732W        W39212  34.121   0.916   2.215
73733W        W39213  22.738  43.435  12.497
73734W        W39214  33.882   5.327   2.324
73735W        W39215  39.938  24.713   2.676
73736W        W39216  21.561  13.313  12.341
73737W        W39217  18.155  12.305  10.452
73738W        W39218  15.598  29.658   0.876
73739W        W39219  29.555  19.281  11.558
73740W        W39220  11.327  36.943   2.899
73741W        W39221  12.233   9.881  12.838
73742W        W39222  36.409  39.902  13.491
73743W        W39223  12.184   2.820   1.444
73744W        W39224  43.862   8.296   1.354
73745W        W39225   1.261  18.756   0.884
73746W        W39226  41.794   1.872  14.961
73747W        W39227   1.763  18.242   4.606
73748W        W39228  13.262   9.339  11.571
73749W        W39229  29.471   7.308   0.850
73750W        W39230  19.268  37.934   1.449
73751W        W39231  36.912   5.753  11.858
73752W        W39232  19.173  14.300  13.422
73753W        W39233  24.984  15.099   1.294
73754W        W39234  10.324  12.694   1.228
73755W        W39235   9.307  41.358  14.863
73756W        W39236  23.635  24.723   3.654
73757W        W39237  21.641  21.689  12.935
73758W        W39238  27.946  27.597   1.221
73759W        W39239   0.902   3.756  13.383
73760W        W39240   5.394   6.248   2.225
73761W        W39241  32.053  38.015  14.283
73762W        W39242  25.536  10.740   3.150
73763W        W39243  26.095   7.377   4.605
73764W        W39244   4.932  19.185  11.393
73765W        W39245  44.297  39.411   9.972
73766W        W39246  41.923  34.469   5.274
73767W        W39247  33.117  12.676  13.912
73768W        W39248   7.774   0.743   2.728
73769W        W39249  25.574  21.570   1.265
73770W        W39250  40.890   7.235  12.436
73771W        W39251  30.074  32.103   5.314
73772W        W39252  43.479  20.592  13.429
73773W        W39253  31.597  21.085   1.825
73774W        W39254  28.580  19.112  12.925
73775W        W39255   2.231  35.593   3.372
73776W        W39256  33.443  40.906  14.508
73777W        W39257  21.213  23.196   3.163
73778W        W39258  43.873   1.763  12.960
73779W        W39259  33.931  31.581  12.016
73780W        W39260  38.921  23.571  13.348
73781W        W39261   5.424  13.126   4.801
73782W        W39262  22.579  34.975   4.716
73783W        W39263  35.491   9.749   1.899
73784W        W39264  21.543  21.683   4.800
73785W        W39265  25.492   9.879  13.525
73786W        W39266  24.053  18.116  11.105
73787W        W39267   0.253  44.850  11.539
73788W        W39268   5.205  33.493  12.929
73789W        W39269  37.897   3.746   2.347
73790W        W39270  40.999  12.240  12.891
73791W        W39271  17.715  43.985   1.292
73792W        W39272  21.725  12.319   3.382
73793W        W39273  18.099  26.977  12.477
73794W        W39274  24.181  11.690   2.821
73795W        W39275  12.722   6.305  14.802
73796W        W39276  35.865   1.476  14.367
73797W        W39277  21.185  41.905   0.909
73798W        W39278   6.204   8.183  12.937
73799W        W39279  29.161  27.130   1.722
73800W        W39280   2.818   2.895  10.965
73801W        W39281  31.557  38.506  13.506
73802W        W39282   5.223  32.033   1.312
73803W        W39283   8.774  39.914  11.455
73804W        W39284   9.842  40.312   3.649
73805W        W39285  37.920  42.835   3.830
73806W        W39286  27.452  43.375   0.741
73807W        W39287   8.886  41.901  13.977
73808W        W39288  33.601  26.608  13.049
73809W        W39289  40.836  13.166  11.899
73810W        W39290  23.673  43.329   0.959
73811W        W39291   8.278  40.039  13.870
73812W        W39292  37.510   1.310  13.470
73813W        W39293  44.299  36.550   3.781
73814W        W39294  33.934  40.819   3.341
73815W        W39295  44.969  38.520  10.404
73816W        W39296   6.919  37.341   4.234
73817W        W39297  11.765  30.465   0.921
73818W        W39298   7.702  40.464  12.893
73819W        W39299  29.496  27.012  12.878
73820W        W39300   5.439  30.491   4.818
73821W        W39301  21.127   7.849  12.487
73822W        W39302   9.865  25.476  13.476
73823W        W39303  34.021  32.508   2.407
73824W        W39304  34.493  42.955   2.797
73825W        W39305  16.222  11.783   2.872
73826W        W39306  35.953   2.246  12.905
73827W        W39307  12.248  35.448  10.562
73828W        W39308  28.538  44.916  11.962
73829W        W39309  15.705  10.204   3.278
73830W        W39310  32.516  37.897   1.281
73831W        W39311  12.675  39.902  11.577
73832W        W39312   6.715  13.796  11.440
73833W        W39313  23.707  37.889  13.019
73834W        W39314  16.697  23.230   1.377
73835W        W39315  11.770  27.077  10.469
73836W        W39316  21.237  42.873  10.932
73837W        W39317  35.521  19.662   2.376
73838W        W39318  22.067   0.370   1.899
73839W        W39319   3.285  38.409   1.915
73840W        W39320  29.610  39.873   0.482
73841W        W39321  12.341   1.851  11.557
73842W        W39322   1.747  40.891   2.384
73843W        W39323   6.691  39.863   0.390
73844W        W39324   3.323   8.820  13.892
73845W        W39325   9.349  13.196   1.377
73846W        W39326  24.631   8.810   3.346
73847W        W39327  28.059  14.754   1.904
73848W        W39328   8.852  43.951  13.498
73849W        W39329  14.140  31.451   4.238
73850W        W39330  40.385  41.907   3.704
73851W        W39331  36.466  39.988  12.094
73852W        W39332  30.506  11.241  12.452
73853W        W39333  43.842  37.878   4.172
73854W        W39334  35.863  22.013  13.391
73855W        W39335  11.841  44.783  11.384
73856W        W39336  33.058  27.461  12.344
73857W        W39337  16.083  40.809   0.327
73858W        W39338  22.529   3.251   3.335
73859W        W39339   9.846   0.400   4.128
73860W        W39340  34.394  21.122   3.852
73861W        W39341  11.178  15.758  12.911
73862W        W39342  27.121  32.977   4.346
73863W        W39343  22.527  40.805   4.168
73864W        W39344  13.151  44.904   1.329
73865W        W39345   5.917   0.777  11.587
73866W        W39346  26.530  24.722  13.870
73867W        W39347  27.945  26.010  14.293
73868W        W39348  24.136  38.048  11.061
73869W        W39349  15.688  27.094   4.306
73870W        W39350  10.145   7.405   2.342
73871W        W39351  11.320   4.250   3.853
73872W        W39352   2.903  21.170   1.773
73873W        W39353  20.268  23.072  14.509
73874W        W39354   3.803  17.100   4.215
73875W        W39355  42.334  20.547  14.362
73876W        W39356  14.141  42.801   3.260
73877W        W39357  39.827  14.703   2.284
73878W        W39358  28.932  24.665   0.457
73879W        W39359  14.733  30.506   2.247
73880W        W39360  27.503   0.491   4.817
73881W        W39361  25.981  15.290   0.251
73882W        W39362  32.516  10.181   2.676
73883W        W39363  40.976  19.088   3.640
73884W        W39364  17.186  17.212   1.820
73885W        W39365  30.953  33.987   0.298
73886W        W39366   3.414   1.250   0.734
73887W        W39367  19.634  19.585  11.524
73888W        W39368  28.580  32.934  10.918
73889W        W39369   4.339   3.367   4.242
73890W        W39370  42.930  21.033   4.192
73891W        W39371  30.008  18.156   1.244
73892W        W39372   0.327  32.491  14.875
73893W        W39373  13.224  31.407   0.300
73894W        W39374  37.830  15.227  11.935
73895W        W39375  13.201  34.466  11.035
73896W        W39376  14.255  21.189   0.867
73897W        W39377  39.396  31.402  11.554
73898W        W39378  24.692  22.572   1.350
73899W        W39379  18.790  15.774   3.193
73900W        W39380  36.939   3.387  11.009
73901W        W39381  40.826  35.022   0.909
73902W        W39382  25.185  36.460  10.605
73903W        W39383  26.473  44.913  14.509
73904W        W39384  44.992  27.949  13.492
73905W        W39385  24.602  40.388  12.920
73906W        W39386  24.088  12.699  10.061
73907W        W39387  44.274  29.946   1.242
73908W        W39388  23.539   4.726  13.971
73909W        W39389   7.333  10.200  14.765
73910W        W39390  34.898   5.729   4.673
73911W        W39391  33.968  41.956   2.892
73912W        W39392  22.134  35.554   3.149
73913W        W39393  14.186  29.453   1.373
73914W        W39394  28.170  17.204   1.290
73915W        W39395  32.564  31.092   0.896
73916W        W39396  36.503  12.121   0.327
73917W        W39397  40.324  19.230  12.558
73918W        W39398  16.296  29.441   2.212
73919W        W39399  17.250   1.903   3.643
73920W        W39400  39.367   7.304   2.333
73921W        W39401  10.871   6.772   0.357
73922W        W39402   3.731  36.401  11.451
73923W        W39403  36.961   6.707  13.969
73924W        W39404  28.576  13.145  12.462
73925W        W39405  40.962   9.706  11.096
73926W        W39406   3.225  29.126  12.860
73927W        W39407  13.110   1.330   2.247
73928W        W39408  11.820  32.609  12.485
73929W        W39409  12.281   9.812  12.008
73930W        W39410  39.447  36.529   4.609
73931W        W39411  30.530  38.070   2.270
73932W        W39412  21.126  41.345   1.858
73933W        W39413  43.296  35.000   3.650
73934W        W39414  43.507  11.742  10.587
73935W        W39415   4.721  44.289   0.249
73936W        W39416  19.096   5.217   3.728
73937W        W39417   5.201  34.880   1.743
73938W        W39418  21.109  29.600  14.772
73939W        W39419   3.832   7.287  12.839
73940W        W39420  17.615  42.998   1.866
73941W        W39421  26.632  27.151   2.786
73942W        W39422  14.747  39.351  14.814
73943W        W39423  14.340   7.214  13.448
73944W        W39424   1.264  22.745   1.831
73945W        W39425  43.274  25.707  12.903
73946W        W39426  10.158   4.244  10.158
73947W        W39427  18.115  39.967  13.865
73948W        W39428   5.912  22.107   3.642
73949W        W39429  10.698  28.138   2.746
73950W        W39430  26.132   0.853  13.991
73951W        W39431   6.882  40.993  14.331
73952W        W39432  38.827  37.854   2.391
73953W        W39433  20.764  20.152   4.201
73954W        W39434  30.968  11.279   3.649
73955W        W39435  36.879  41.536   0.862
73956W        W39436  32.986  33.615   1.385
73957W        W39437   3.435  17.234  11.035
73958W        W39438  12.717  15.706   1.332
73959W        W39439  33.581  44.859  11.923
73960W        W39440  32.962   8.793  13.540
73961W        W39441   8.867  16.695  12.369
73962W        W39442  32.489  44.795  11.569
73963W        W39443  28.528  35.921  12.339
73964W        W39444  19.568  10.798  12.450
73965W        W39445  35.397   6.188  11.891
73966W        W39446  43.328  25.577  11.586
73967W        W39447   8.813  22.247  13.810
73968W        W39448  20.097   0.473   4.312
73969W        W39449   0.397  30.617  13.863
73970W        W39450  23.010   1.352   5.175
73971W        W39451  32.459  41.793   1.867
73972W        W39452  31.001  11.726   0.921
73973W        W39453  21.221   8.739   1.698
73974W        W39454   9.790  12.683  12.411
73975W        W39455  14.608  12.348  10.583
73976W        W39456  24.094  18.265   1.399
73977W        W39457  31.016  38.388   2.849
73978W        W39458   3.431  30.956   1.407
73979W        W39459   6.771  43.936  12.908
73980W        W39460  38.329   8.226  11.052
73981W        W39461  22.234  13.756   2.708
73982W        W39462  12.118  39.394   1.899
73983W        W39463  34.982  42.909   5.212
73984W        W39464  32.577  13.275  13.880
73985W        W39465  34.088   6.398   3.800
73986W        W39466   2.285  15.740   3.381
73987W        W39467   8.771   9.214  14.855
73988W        W39468   6.219  39.538  13.408
73989W        W39469  40.521   0.943   5.265
73990W        W39470  16.649   1.367  12.543
73991W        W39471   7.816  17.765  11.019
73992W        W39472  16.156   6.875   2.190
73993W        W39473   2.879  28.681   4.736
73994W        W39474  17.139  41.517   1.326
73995W        W39475  19.086  44.436  11.581
73996W        W39476  34.580  24.505  14.869
73997W        W39477  32.969  21.604  10.416
73998W        W39478  10.670   6.400   1.794
73999W        W39479   6.297  21.167  11.525
74000W        W39480  25.031  18.620  14.371
74001W        W39481  36.507  44.881  14.434
74002W        W39482  26.007  28.020  11.055
74003W        W39483  25.977  24.977  14.952
74004W        W39484  17.686  36.465  12.951
74005W        W39485  38.945  14.198  13.998
74006W        W39486   3.248  19.125   1.391
74007W        W39487  20.682  23.042   3.320
74008W        W39488   3.243  24.083  10.606
74009W        W39489  10.699  38.516  10.997
74010W        W39490  11.191  31.648   4.679
74011W        W39491  31.442   4.847  14.364
74012W        W39492  23.500   8.755   0.766
74013W        W39493   9.206  28.455  10.519
74014W        W39494  19.638  37.440   0.393
74015W        W39495  22.743  19.683  13.885
74016W        W39496  33.458  12.665  13.348
74017W        W39497  38.853  32.406   2.370
74018W        W39498  27.996   5.866   4.352
74019W        W39499  20.155  19.570  10.447
74020W        W39500  25.621  32.488   2.200
74021W        W39501  32.636  24.531  12.988
74022W        W39502  37.971  42.952   3.360
74023W        W39503   0.489  10.235   0.433
74024W        W39504  21.515  22.530   2.236
74025W        W39505  43.779  11.867   1.824
74026W        W39506   5.893  37.398   4.170
74027W        W39507  16.705   3.910   4.730
74028W        W39508   8.682  16.116   1.255
74029W        W39509   2.920  35.038   5.243
74030W        W39510   5.311  16.280   1.379
74031W        W39511  27.587  25.704   3.288
74032W        W39512  18.736   9.679  11.448
74033W        W39513  33.464  29.481   4.644
74034W        W39514  32.908  35.892  12.911
74035W        W39515  44.493  24.141  12.968
74036W        W39516  21.558  26.602   3.715
74037W        W39517  25.609   6.317   3.202
74038W        W39518   2.787  42.466   1.289
74039W        W39519  40.426  39.383  11.014
74040W        W39520   8.228  41.808  11.039
74041W        W39521  41.940  41.406   1.220
74042W        W39522  32.943  31.499   3.216
74043W        W39523  27.541  25.471   4.826
74044W        W39524  11.325  40.035  13.986
74045W        W39525  21.629  10.740  12.538
74046W        W39526  19.156  13.197   0.310
74047W        W39527  11.357   0.951  12.981
74048W        W39528   2.831  21.536   4.725
74049W        W39529  39.019  18.269   0.879
74050W        W39530  15.159  10.839   4.246
74051W        W39531  33.998   5.263   1.211
74052W        W39532   2.831   9.773   0.369
74053W        W39533  31.574  29.510   0.751
74054W        W39534   8.844  43.497  14.021
74055W        W39535  17.139  39.489  10.993
74056W        W39536   6.852   0.824   3.755
74057W        W39537  29.543  37.396   4.710
74058W        W39538  38.401  31.441   1.859
74059W        W39539  14.175  23.564   0.432
74060W        W39540  18.166  13.788  13.797
74061W        W39541   4.765  19.240  14.431
74062W        W39542  22.082  33.053  10.592
74063W        W39543  43.471  31.955  14.507
74064W        W39544   8.705  17.078  13.379
74065W        W39545  39.380   0.411  11.128
74066W        W39546  26.476  13.810  12.459
74067W        W39547  19.609  10.380  10.566
74068W        W39548  10.213  35.583   1.925
74069W        W39549  36.040  38.837  10.553
74070W        W39550  37.379  10.654  11.006
74071W        W39551   7.690  22.212   0.371
74072W        W39552   2.364  25.523  11.467
74073W        W39553  24.145  28.667  14.474
74074W        W39554  19.715   9.769   4.267
74075W        W39555  30.912  14.274   2.342
74076W        W39556  27.522   1.307   0.944
74077W        W39557  16.577  44.438   3.289
74078W        W39558  37.434  18.292  13.532
74079W        W39559  12.678  12.337  12.019
74080W        W39560  43.831  34.593  10.583
74081W        W39561  18.093   3.229   0.864
74082W        W39562  38.051  44.429   0.828
74083W        W39563  35.571  30.490  11.958
74084W        W39564  15.246  17.633  12.413
74085W        W39565  25.150  20.527  14.829
74086W        W39566  34.917  19.580   1.781
74087W        W39567  44.798  14.748  10.544
74088W        W39568  17.226   7.343  12.483
74089W        W39569  15.116  11.732  12.861
74090W        W39570  44.772  17.304  10.091
74091W        W39571  38.376  15.091   1.301
74092W        W39572  34.925  24.670  13.986
74093W        W39573  22.240   0.789  12.478
74094W        W39574  12.341  19.156   2.201
74095W        W39575   4.379  20.148  14.290
74096W        W39576  20.722  41.976  12.840
74097W        W39577   7.258  44.366   3.384
74098W        W39578  25.207  39.944  10.578
74099W        W39579  31.968   5.701  11.409
74100W        W39580  35.003   8.794  10.123
74101W        W39581  32.940  42.858   3.216
74102W        W39582  22.654   6.892  12.937
74103W        W39583   3.306   6.273  10.912
74104W        W39584  38.982   5.689  14.789
74105W        W39585   9.212  19.647  11.057
74106W        W39586  12.625  19.238   4.691
74107W        W39587  38.391  31.944  12.084
74108W        W39588  17.571  27.956  13.443
74109W        W39589  14.242  32.549   0.881
74110W        W39590  19.236  23.195  13.010
74111W        W39591   4.304  19.187   0.820
74112W        W39592  15.711  22.216   3.299
74113W        W39593  38.024  41.812   3.265
74114W        W39594  19.778  35.569   3.855
74115W        W39595  17.734  33.900  14.304
74116W        W39596  43.927   7.195  10.586
74117W        W39597  37.420  39.938   1.899
74118W        W39598  27.155   1.313   2.666
74119W        W39599  38.374   3.274   4.613
74120W        W39600  32.417  42.428   2.315
74121W        W39601  43.409  38.883  10.919
74122W        W39602  29.972   9.382   0.346
74123W        W39603  17.748  44.344   3.757
74124W        W39604  35.602  44.463   2.304
74125W        W39605  37.869  29.493   1.849
74126W        W39606  35.862   2.908   0.892
74127W        W39607  39.401  38.330  12.488
74128W        W39608  38.381   8.850   4.804
74129W        W39609  24.207  16.783  12.849
74130W        W39610  34.539  10.694   2.414
74131W        W39611  44.949  33.398   3.162
74132W        W39612  34.972  23.711   0.426
74133W        W39613  43.845  39.879   2.763
74134W        W39614  19.099   8.692  14.394
74135W        W39615  16.073  17.622  12.382
74136W        W39616  43.387  34.875   2.283
74137W        W39617  27.989   9.726   1.774
74138W        W39618  20.706  40.342   1.837
74139W        W39619   5.304  27.970  10.428
74140W        W39620  23.661  21.046  13.442
74141W        W39621  21.634  18.619   1.713
74142W        W39622  23.522  28.476  10.967
74143W        W39623  32.988  25.142  14.358
74144W        W39624  13.725  44.486  14.847
74145W        W39625   7.282  33.063   0.830
74146W        W39626  21.581   4.710   1.222
74147W        W39627  32.476  40.983  12.973
74148W        W39628  43.766  22.097  11.965
74149W        W39629  24.151   0.449  14.330
74150W        W39630  17.141  30.512   4.185
74151W        W39631  44.296  39.052  11.865
74152W        W39632  40.529  25.573   2.725
74153W        W39633  42.861  27.473   0.793
74154W        W39634  34.016  15.748   0.320
74155W        W39635  16.245  21.655  12.973
74156W        W39636  29.988  19.770   4.149
74157W        W39637  32.141   7.797  10.957
74158W        W39638  36.003  37.003  10.965
74159W        W39639   6.303  17.212  11.951
74160W        W39640  28.062  36.384   3.314
74161W        W39641   6.858  20.544   3.784
74162W        W39642  43.488   1.776  13.962
74163W        W39643  15.751  41.481   2.697
74164W        W39644  16.621   7.398   1.262
74165W        W39645   9.251  44.798   1.213
74166W        W39646  15.692  26.561   3.227
74167W        W39647  36.581  22.011  13.865
74168W        W39648  41.838  17.100   4.201
74169W        W39649  23.490  18.613  11.407
74170W        W39650  18.229  19.615   4.701
74171W        W39651  21.733  28.656   2.786
74172W        W39652  24.047   8.748   3.838
74173W        W39653   9.388  40.976  11.033
74174W        W39654  21.228  14.325   9.925
74175W        W39655  39.928  31.140   4.244
74176W        W39656   3.235  11.277   2.195
74177W        W39657   7.898  16.775   4.815
74178W        W39658  28.490   3.306  13.513
74179W        W39659  26.687  17.270  11.608
74180W        W39660   9.683  13.719   0.369
74181W        W39661  33.932  28.673  13.844
74182W        W39662  12.195  22.031   0.430
74183W        W39663  16.281  18.613  12.024
74184W        W39664  12.130  41.338   3.688
74185W        W39665  33.059  11.170   2.322
74186W        W39666  38.011   8.181   4.702
74187W        W39667  31.519  28.103   0.768
74188W        W39668  14.280   2.942  10.567
74189W        W39669  16.742   5.404  11.033
74190W        W39670  32.958  35.080  12.407
74191W        W39671  18.566  28.449   3.636
74192W        W39672  14.771  17.683  11.964
74193W        W39673  43.286  27.608   4.161
74194W        W39674  22.233  28.497  14.362
74195W        W39675  18.249  17.725   2.886
74196W        W39676  31.925  27.149   2.281
74197W        W39677  23.075   0.433  14.366
74198W        W39678  33.081  14.693   3.203
74199W        W39679  10.768  37.474  14.921
74200W        W39680  31.455  16.791  13.393
74201W        W39681  35.035  31.999  10.491
74202W        W39682  10.174   9.382   3.832
74203W        W39683  16.683  42.960   1.758
74204W        W39684  22.541   8.778  11.014
74205W        W39685   4.365  29.053   4.178
74206W        W39686  39.978  34.043  13.023
74207W        W39687   8.205  14.303  12.373
74208W        W39688   3.900  22.731   3.634
74209W        W39689  41.004  16.155  11.461
74210W        W39690   3.301  44.503  12.425
74211W        W39691   3.240  10.663  13.381
74212W        W39692  29.647  42.779   0.356
74213W        W39693  33.947  16.738   1.344
74214W        W39694  23.037  31.460   0.929
74215W        W39695   3.242   3.897  14.285
74216W        W39696  19.152  31.967  12.072
74217W        W39697   4.404   3.877   4.606
74218W        W39698  17.227  17.670  12.961
74219W        W39699   3.793  33.097   3.834
74220W        W39700  26.088  11.200   1.894
74221W        W39701  21.214   7.702  13.431
74222W        W39702   8.725  38.453  13.312
74223W        W39703  27.517  31.542  10.628
74224W        W39704  28.983  28.481  14.995
74225W        W39705  25.076   7.757   4.814
74226W        W39706  24.509  33.419  10.613
74227W        W39707   1.289  29.530  11.896
74228W        W39708  34.562  30.079   4.640
74229W        W39709  29.664  19.699   2.761
74230W        W39710  27.453  31.003  14.770
74231W        W39711  29.666  42.868  11.957
74232W        W39712  28.579  34.570  13.466
74233W        W39713  37.533   0.472   2.188
74234W        W39714  13.324   7.243   2.317
74235W        W39715  11.778  11.669  12.457
74236W        W39716  25.482  23.026   0.923
74237W        W39717   8.311   4.448   1.914
74238W        W39718  16.673  37.072  11.607
74239W        W39719   9.725   8.801  13.450
74240W        W39720  19.630  41.928  14.978
74241W        W39721  12.782  22.031  11.523
74242W        W39722  13.682  32.061   4.653
74243W        W39723   0.790   3.710   2.747
74244W        W39724  14.293   9.326   3.157
74245W        W39725  12.827   7.191  11.583
74246W        W39726  44.274  29.567  13.982
74247W        W39727  44.483   7.268  12.080
74248W        W39728  27.497  41.947   2.360
74249W        W39729  20.105  17.288   4.245
74250W        W39730  12.222  17.625  10.598
74251W        W39731  16.775  23.540   4.216
74252W        W39732  21.178  13.184  12.038
74253W        W39733  24.559  12.613  10.599
74254W        W39734  38.938  16.701  13.948
74255W        W39735  42.016  30.068  14.809
74256W        W39736   9.751  44.846   0.473
74257W        W39737  38.363  30.651  12.405
74258W        W39738  36.499   1.285   0.831
74259W        W39739  30.507  31.419   2.266
74260W        W39740   3.371  17.262   0.780
74261W        W39741  42.518   6.859  11.864
74262W        W39742  36.424   9.817  14.274
74263W        W39743   6.193   2.791   0.954
74264W        W39744  21.725  28.133  11.935
74265W        W39745  35.034  42.021  13.050
74266W        W39746  23.554  29.060  13.469
74267W        W39747  39.486  31.921  12.403
74268W        W39748  37.008  36.943   2.886
74269W        W39749   1.904  34.927  11.424
74270W        W39750  44.926  28.181  14.424
74271W        W39751  12.313   2.935   3.302
74272W        W39752  30.158  18.144   0.731
74273W        W39753   6.315  34.548   4.124
74274W        W39754  22.554  35.511  12.992
74275W        W39755   4.776  14.210   4.824
74276W        W39756  44.819   0.767  10.495
74277W        W39757  37.908   0.435  14.002
74278W        W39758  38.057  35.400  12.545
74279W        W39759   4.265   2.861  12.854
74280W        W39760  32.488  31.055  10.949
74281W        W39761  21.141  27.606  13.479
74282W        W39762  39.316  29.056   4.218
74283W        W39763  23.564  31.998   1.736
74284W        W39764  20.624   7.200   2.833
74285W        W39765  36.430  26.643   0.729
74286W        W39766  26.082  25.505   0.790
74287W        W39767  44.753  40.836  13.865
74288W        W39768  20.724   3.750  13.373
74289W        W39769   8.779  20.533   4.679
74290W        W39770  18.182   4.822  14.809
74291W        W39771   1.284  29.078  13.477
74292W        W39772  10.323  26.205   1.283
74293W        W39773  34.993  11.352  14.451
74294W        W39774  44.454  24.499  14.410
74295W        W39775  24.697  13.654  11.421
74296W        W39776  32.962  38.332  14.282
74297W        W39777  22.692  34.066   2.186
74298W        W39778  33.587   4.913  13.046
74299W        W39779  32.436  15.125   2.278
74300W        W39780  24.521  25.688  10.478
74301W        W39781  15.652  42.855   0.469
74302W        W39782  41.514   6.898  14.344
74303W        W39783  27.965   6.223   4.834
74304W        W39784  33.500  25.979  10.506
74305W        W39785  24.123  39.397  12.520
74306W        W39786   3.383  17.245  10.552
74307W        W39787  16.267  18.185   4.250
74308W        W39788  16.765  18.137   1.783
74309W        W39789  20.527   8.394   3.707
74310W        W39790  41.876  33.916  13.339
74311W        W39791  15.221  21.262   2.389
74312W        W39792   2.818  20.265  13.373
74313W        W39793   0.913  33.554  10.128
74314W        W39794   1.761  39.066  13.906
74315W        W39795  32.119  44.277   2.669
74316W        W39796  14.266   9.677   3.819
74317W        W39797  43.796   8.223  14.503
74318W        W39798  33.584  29.006  14.818
74319W        W39799  31.138  16.167  12.361
74320W        W39800  24.166   0.885   4.663
74321W        W39801  25.560  30.417  14.278
74322W        W39802   3.433  11.316  12.469
74323W        W39803   9.231  22.562   0.426
74324W        W39804   9.373   8.225  14.014
74325W        W39805  43.337  33.397   9.948
74326W        W39806   7.403  31.641   2.797
74327W        W39807  28.680  29.030  12.567
74328W        W39808   6.253  15.722  12.553
74329W        W39809  41.855  15.745  12.576
74330W        W39810   1.937  10.307   4.257
74331W        W39811  25.128  19.737  11.071
74332W        W39812  25.055  21.140   1.240
74333W        W39813  42.954  39.905  11.069
74334W        W39814  13.109  42.460  14.840
74335W        W39815   7.816  20.667  13.861
74336W        W39816  12.145  37.470   4.189
74337W        W39817  40.312  40.549   0.468
74338W        W39818  28.976  40.851   1.377
74339W        W39819  21.026  39.494  14.414
74340W        W39820  35.393  11.270  11.999
74341W        W39821  21.638  33.071   3.862
74342W        W39822  24.509  42.501  12.530
74343W        W39823   6.871   0.989   3.147
74344W        W39824  17.162   2.925  14.855
74345W        W39825  25.686  44.502  11.887
74346W        W39826   8.704   4.344   4.779
74347W        W39827  35.476  27.099   4.168
74348W        W39828  23.157  26.521  10.609
74349W        W39829  40.848   1.340  14.790
74350W        W39830   1.483  40.396   2.414
74351W        W39831  26.503  14.799  13.545
74352W        W39832  29.966  20.558  14.882
74353W        W39833  40.452  24.206   4.212
74354W        W39834  15.093  10.776  14.792
74355W        W39835  13.222  11.732   1.747
74356W        W39836  23.722  23.545   4.809
74357W        W39837  31.506   9.777  14.322
74358W        W39838  34.527   7.261   1.369
74359W        W39839   6.810  24.700  11.022
74360W        W39840  41.529  25.624  14.927
74361W        W39841   0.758  40.385   5.256
74362W        W39842  24.191   3.824  11.943
74363W        W39843  42.422  29.138  12.901
74364W        W39844   2.832  34.881  14.965
74365W        W39845  26.525  34.580  12.825
74366W        W39846   4.926  42.988  11.391
74367W        W39847   3.391  42.925   1.221
74368W        W39848  23.590  12.318  12.416
74369W        W39849  41.992   1.369  14.892
74370W        W39850  32.986  33.604   3.369
74371W        W39851  22.551   6.225  10.092
74372W        W39852  44.361  23.683   4.792
74373W        W39853   8.697  30.969  13.967
74374W        W39854  17.663  34.059  12.057
74375W        W39855  41.031  27.459  13.022
74376W        W39856   2.339  29.452  10.890
74377W        W39857   7.749  13.176  10.639
74378W        W39858   5.218   3.218   3.382
74379W        W39859   4.349  29.541  10.978
74380W        W39860  25.993  27.978  13.961
74381W        W39861  20.536  42.875   5.246
74382W        W39862  22.726  29.624   4.260
74383W        W39863  32.454  32.434  12.406
74384W        W39864  30.048  17.079   1.825
74385W        W39865  14.641   1.304   4.757
74386W        W39866   1.777   3.365   0.380
74387W        W39867  19.068  28.562   1.794
74388W        W39868  28.612  36.080  13.881
74389W        W39869   9.785   0.457  12.534
74390W        W39870   3.873   7.230  14.003
74391W        W39871  26.637   5.238  13.973
74392W        W39872  18.092  17.789  10.411
74393W        W39873  29.923   4.821  14.889
74394W        W39874  35.937   6.874  14.439
74395W        W39875  39.915  35.435   3.287
74396W        W39876  39.829  44.337  12.974
74397W        W39877  22.235  29.942  14.977
74398W        W39878  17.108  24.174   5.296
74399W        W39879  24.974   7.877  10.043
74400W        W39880  32.523  15.238  10.626
74401W        W39881  43.845  10.692  14.868
74402W        W39882   4.399  30.432  13.859
74403W        W39883  41.452  39.042   2.180
74404W        W39884  20.141  20.104  14.968
74405W        W39885  35.476  14.791   0.817
74406W        W39886  13.762  14.792   0.252
74407W        W39887  13.264  33.074  10.622
74408W        W39888  17.705  11.737  13.512
74409W        W39889  19.245  19.192   3.223
74410W        W39890  38.987   3.333  13.945
74411W        W39891  44.481   0.753   1.863
74412W        W39892  27.043   8.773  11.375
74413W        W39893  30.438  16.720  11.468
74414W        W39894  20.259  33.130  12.004
74415W        W39895   3.363   5.238  12.911
74416W        W39896  38.923  30.925   1.736
74417W        W39897  34.962   3.798   2.403
74418W        W39898  42.294   6.302   0.789
74419W        W39899  13.137  37.959  13.915
74420W        W39900   8.809  17.172   2.388
74421W        W39901  33.598  21.172  13.028
74422W        W39902  35.553  18.737  11.020
74423W        W39903   5.887  40.960   0.384
74424W        W39904  38.422   0.945  14.807
74425W        W39905  42.355  34.504   0.771
74426W        W39906  21.075  12.160   0.740
74427W        W39907  27.970   1.296  13.936
74428W        W39908  44.350  38.488  10.427
74429W        W39909  44.330  12.765  11.575
74430W        W39910  44.295  25.570   2.753
74431W        W39911  11.236  12.223  11.378
74432W        W39912   2.906   0.383  11.019
74433W        W39913   5.846  10.817  12.345
74434W        W39914  41.880  40.411  12.036
74435W        W39915  44.459  16.571   2.223
74436W        W39916  27.021  10.782   3.214
74437W        W39917  19.575  44.924  11.530
74438W        W39918   4.264   3.891  10.912
74439W        W39919   6.212   9.338  11.373
74440W        W39920  37.568  38.868   0.461
74441W        W39921  26.078  19.214  14.391
74442W        W39922  10.177  12.160  13.426
74443W        W39923  43.351  21.608   4.316
74444W        W39924  40.904   2.305  13.531
74445W        W39925  35.056  20.113   2.756
74446W        W39926  34.069  13.769  10.985
74447W        W39927  22.504   2.723  12.031
74448W        W39928  42.341  37.395  13.547
74449W        W39929   4.344  28.946  11.007
74450W        W39930  27.964   7.281   0.791
74451W        W39931  22.194  37.474  12.387
74452W        W39932  38.495  43.430  11.033
74453W        W39933  12.187  43.452  11.914
74454W        W39934  10.836   4.410  14.948
74455W        W39935  23.237  44.982   4.225
74456W        W39936  39.327   0.343  14.315
74457W        W39937   9.394  26.508   1.332
74458W        W39938  37.557  30.934  14.413
74459W        W39939   7.213  20.230  12.556
74460W        W39940  11.720   5.333  10.547
74461W        W39941  22.595  12.690   5.096
74462W        W39942  42.783  20.088  13.406
74463W        W39943  24.539  39.406   1.417
74464W        W39944  18.711  28.012  11.859
74465W        W39945  43.796  20.627   1.720
74466W        W39946  37.860  19.594   1.321
74467W        W39947   9.698  27.160  12.981
74468W        W39948  20.756  33.110   2.875
74469W        W39949  13.202  39.935  11.078
74470W        W39950  10.310  36.877  14.364
74471W        W39951  11.661  43.333  10.590
74472W        W39952   7.780  23.130  10.553
74473W        W39953   3.715  43.437  12.897
74474W        W39954  21.236  22.501   1.342
74475W        W39955  18.775  16.241   2.662
74476W        W39956  32.506  32.966   2.666
74477W        W39957  40.314  40.408   4.748
74478W        W39958   5.339  23.679  12.444
74479W        W39959  24.707   6.189   1.792
74480W        W39960  29.564  20.116   3.381
74481W        W39961  38.449  37.064  12.948
74482W        W39962  43.013  33.471   2.840
74483W        W39963  33.542  20.642   2.204
74484W        W39964  29.550   4.383  12.400
74485W        W39965   8.399   3.726   3.193
74486W        W39966  43.817   7.904   3.377
74487W        W39967  22.631  27.170  12.042
74488W        W39968  35.933  21.672   3.854
74489W        W39969  38.487  37.894  13.889
74490W        W39970  15.777  29.031  12.515
74491W        W39971   3.377   0.290  13.986
74492W        W39972  21.656  37.954   4.307
74493W        W39973  15.196  31.048  13.510
74494W        W39974  24.187  43.512  13.832
74495W        W39975  31.976  20.217  12.895
74496W        W39976  44.459  11.729   2.798
74497W        W39977  28.131  33.453   5.224
74498W        W39978  35.015  26.118   3.864
74499W        W39979  39.846   1.806   1.892
74500W        W39980  14.691  30.084   4.298
74501W        W39981  37.541  26.157  14.354
74502W        W39982   8.161   5.277   3.194
74503W        W39983  29.164  18.776   1.311
74504W        W39984  32.577  30.097   2.263
74505W        W39985  35.931  36.920   3.302
74506W        W39986  32.545   6.792  13.995
74507W        W39987  17.275  43.280   5.204
74508W        W39988   9.723  28.056  14.799
74509W        W39989  36.910  18.578  11.016
74510W        W39990  31.549  38.523   2.189
74511W        W39991  22.735  35.429  12.344
74512W        W39992   9.304  10.181   2.258
74513W        W39993  33.914   3.266  13.435
74514W        W39994  19.770  19.754  12.353
74515W        W39995  13.351  38.364   1.780
74516W        W39996  44.769   0.894   1.863
74517W        W39997  35.958  34.044   2.318
74518W        W39998  31.507  27.999  13.522
74519W        W39999  36.067  32.024  13.499
74520W        W40000   7.365  34.867  14.355
74521W        W40001  16.088  18.586   1.260
74522W        W40002  13.113   1.765   0.370
74523W        W40003   4.754  28.174   0.880
74524W        W40004  28.128  44.986   0.338
74525W        W40005  12.260  12.250   3.200
74526W        W40006  37.489  34.040  12.845
74527W        W40007  23.026  19.074   0.458
74528W        W40008  28.052  36.844  12.895
74529W        W40009  17.157  41.969   3.803
74530W        W40010  23.699  23.591   1.781
74531W        W40011  23.058  25.090  10.450
74532W        W40012  17.112  10.342  12.440
74533W        W40013  24.142  34.067   1.273
74534W        W40014  22.216  39.970  13.862
74535W        W40015   7.241   0.894  11.867
74536W        W40016  23.046  11.681   0.379
74537W        W40017  25.180   7.821  11.471
74538W        W40018   6.705   4.267   1.920
74539W        W40019   8.232   5.923  12.973
74540W        W40020  18.270  28.989  12.021
74541W        W40021  17.575   8.188  12.089
74542W        W40022  20.234  33.900  12.049
74543W        W40023  24.612   4.809  14.402
74544W        W40024  17.651   4.335   2.876
74545W        W40025  39.405  25.602  10.425
74546W        W40026  21.072  19.536  12.460
74547W        W40027  36.502   1.873   0.910
74548W        W40028   1.763   2.237  11.004
74549W        W40029   9.356  43.404   1.339
74550W        W40030  20.195  13.655  13.402
74551W        W40031  20.174  33.063  12.879
74552W        W40032  13.317  33.923   1.359
74553W        W40033  38.514   8.196  14.935
74554W        W40034  23.144  17.605  14.323
74555W        W40035   7.406  40.353  10.984
74556W        W40036  29.114  35.360   2.344
74557W        W40037   6.782  17.267   2.204
74558W        W40038  32.402  37.072   1.251
74559W        W40039  22.533  10.282   1.737
74560W        W40040  29.497  42.778   2.227
74561W        W40041  40.364  17.093  12.891
74562W        W40042   8.725  14.150   4.120
74563W        W40043  16.720  37.889   3.230
74564W        W40044  19.165  17.105  11.403
74565W        W40045  23.193   1.767  12.838
74566W        W40046  25.982   0.905   4.270
74567W        W40047  32.040  25.665  14.868
74568W        W40048  36.070   9.157  11.875
74569W        W40049   9.341  34.067  10.419
74570W        W40050  16.615  26.577   2.325
74571W        W40051   4.428  44.314  12.358
74572W        W40052  11.834  34.588  12.566
74573W        W40053  17.746  37.966   5.271
74574W        W40054  11.309  20.756   2.206
74575W        W40055  14.701  12.704   0.405
74576W        W40056  42.296  41.949  13.411
74577W        W40057   1.828  41.321   2.872
74578W        W40058  39.424  25.610   2.393
74579W        W40059  27.012  40.035  11.112
74580W        W40060  44.768  27.641   0.818
74581W        W40061  15.286   1.799   2.355
74582W        W40062  11.679   6.294   3.632
74583W        W40063  27.968  39.318   0.758
74584W        W40064  32.951  33.898   0.848
74585W        W40065  41.483  23.198   3.777
74586W        W40066  41.041  13.230   1.695
74587W        W40067  12.764  35.020   1.735
74588W        W40068  26.697  11.636  11.071
74589W        W40069  24.014  39.005   3.292
74590W        W40070  17.246  39.815   4.234
74591W        W40071  14.317  43.940   2.339
74592W        W40072  35.431  13.240   4.185
74593W        W40073  28.012  10.373  13.333
74594W        W40074  38.860  16.236  13.024
74595W        W40075  19.097  40.309   4.723
74596W        W40076   0.276  29.131   0.774
74597W        W40077  40.945  35.928   4.309
74598W        W40078  28.110  21.708  12.499
74599W        W40079  30.971  28.991  13.530
74600W        W40080  30.479  20.033  10.590
74601W        W40081   7.807  15.731   4.166
74602W        W40082   9.292  43.492  10.429
74603W        W40083  12.804  16.318  12.450
74604W        W40084  21.711  34.460  11.530
74605W        W40085  12.197  36.498  11.376
74606W        W40086  25.177  40.360  13.962
74607W        W40087  37.993  11.821  13.876
74608W        W40088  43.874  15.162  14.826
74609W        W40089  40.345  35.978   1.361
74610W        W40090  44.873  32.590   4.301
74611W        W40091  25.971  21.062  12.344
74612W        W40092  13.209  36.491  12.941
74613W        W40093  29.126  13.242   1.227
74614W        W40094  18.269   0.329  12.573
74615W        W40095  24.642  44.927   1.224
74616W        W40096  44.966   2.290   2.209
74617W        W40097   2.439  15.634  13.055
74618W        W40098   3.817  15.593  12.403
74619W        W40099  29.572  44.765   2.300
74620W        W40100  13.296  23.541  11.043
74621W        W40101  33.393   3.866  14.791
74622W        W40102  15.750   4.797  14.808
74623W        W40103   7.352   6.715  12.030
74624W        W40104   5.695  34.078  13.415
74625W        W40105  32.932  24.057   4.721
74626W        W40106  22.653  35.978   4.753
74627W        W40107  10.670  29.016   4.830
74628W        W40108   0.958  34.004  10.569
74629W        W40109  19.580  19.749   2.858
74630W        W40110  24.028  23.990  14.299
74631W        W40111   2.846  40.857  10.576
74632W        W40112  18.752   9.342   0.823
74633W        W40113  27.499  13.163  11.578
74634W        W40114  36.848  14.765  13.351
74635W        W40115  34.909  11.859   0.468
74636W        W40116  17.558  16.636   3.779
74637W        W40117   9.802  25.589  14.829
74638W        W40118  18.618  26.123   5.132
74639W        W40119  32.593   2.814  12.010
74640W        W40120  39.521  40.505  11.937
74641W        W40121   8.380  35.092   3.262
74642W        W40122  43.954  11.718   2.247
74643W        W40123  12.730  36.586   3.701
74644W        W40124  22.633  16.721   1.759
74645W        W40125   1.884  10.322   2.276
74646W        W40126  11.789  36.356   2.781
74647W        W40127  16.780  20.575  12.501
74648W        W40128  11.772   7.806  14.986
74649W        W40129   8.861  31.128   2.860
74650W        W40130  44.965  10.317   4.119
74651W        W40131  13.218   2.740   4.676
74652W        W40132  37.538  29.618   1.348
74653W        W40133  21.649   5.220  11.466
74654W        W40134  32.627   8.681  13.474
74655W        W40135  10.265   0.783  13.449
74656W        W40136  21.151   1.322  10.470
74657W        W40137   5.335  27.158  12.494
74658W        W40138  27.047  24.193  13.858
74659W        W40139  14.253  21.152   2.253
74660W        W40140  39.970  39.945   2.881
74661W        W40141  15.289  17.757   3.812
74662W        W40142  30.014  39.345  12.893
74663W        W40143  35.506  15.822   1.413
74664W        W40144  32.482  16.085   1.242
74665W        W40145  24.607  39.328  14.375
74666W        W40146  30.479  31.103  12.880
74667W        W40147  28.011   8.695   2.298
74668W        W40148  29.526  39.043  11.081
74669W        W40149  28.086  25.471   2.879
74670W        W40150  10.705   4.425  13.807
74671W        W40151   7.850  42.960  10.036
74672W        W40152  30.061  29.021   1.281
74673W        W40153  10.653  13.305   2.743
74674W        W40154  14.212   4.929  10.523
74675W        W40155   1.768   7.788  14.373
74676W        W40156  31.918  20.172   1.817
74677W        W40157   3.257  19.185  13.044
74678W        W40158   8.770  21.703   1.742
74679W        W40159  18.262  16.097  11.953
74680W        W40160  34.425  34.045   1.820
74681W        W40161  41.792  11.671   4.645
74682W        W40162  41.945  33.554   0.963
74683W        W40163  29.075  18.178   2.679
74684W        W40164  31.425  41.905  12.849
74685W        W40165  35.593  25.646   3.306
74686W        W40166  26.047   3.390  14.393
74687W        W40167  26.553   1.458   0.925
74688W        W40168   1.283   3.795  13.921
74689W        W40169  33.067  18.287  12.917
74690W        W40170   4.355  18.159   4.293
74691W        W40171  15.265  31.437  11.111
74692W        W40172  23.655  32.433   0.290
74693W        W40173  21.640   9.374   0.837
74694W        W40174  31.057  11.833   3.303
74695W        W40175  23.116   5.795  13.531
74696W        W40176  23.158  30.969   0.779
74697W        W40177  44.000  13.742  12.840
74698W        W40178  23.035  38.343   2.809
74699W        W40179  34.381  17.209   1.384
74700W        W40180  38.405  33.037   3.190
74701W        W40181  36.989  12.614  13.415
74702W        W40182  19.250  24.184  10.985
74703W        W40183  42.469  21.193  11.058
74704W        W40184  34.578  41.352   2.865
74705W        W40185  40.323  36.069   2.896
74706W        W40186   3.734  42.416   3.308
74707W        W40187  38.949  25.068  11.053
74708W        W40188  15.234  15.662  13.941
74709W        W40189  25.617  37.931   2.405
74710W        W40190   4.931  32.565   2.405
74711W        W40191  27.465   1.346   1.934
74712W        W40192  11.333  16.733  11.538
74713W        W40193  19.094   4.258   2.289
74714W        W40194  29.073  44.761  11.550
74715W        W40195   2.945  40.840  11.126
74716W        W40196   9.882   9.798  13.477
74717W        W40197   4.295  32.433  14.478
74718W        W40198  42.975  37.039  12.356
74719W        W40199  40.874  22.526   5.228
74720W        W40200  28.654  17.591  10.508
74721W        W40201  13.268  14.753  14.394
74722W        W40202  33.506   1.269  14.883
74723W        W40203  15.115  26.104   2.319
74724W        W40204  44.480  24.038   0.898
74725W        W40205  13.301  37.841   0.770
74726W        W40206  19.663  22.529  11.507
74727W        W40207  43.281  12.727  13.930
74728W        W40208  12.646  14.194   3.178
74729W        W40209  16.665  31.946   0.294
74730W        W40210  23.194  34.113  14.869
74731W        W40211   1.800  37.058  13.826
74732W        W40212  24.055  41.413   5.314
74733W        W40213  32.060  13.229  11.107
74734W        W40214  32.934   9.756   4.598
74735W        W40215   2.274  24.637   0.320
74736W        W40216   2.411   0.983   2.206
74737W        W40217  13.332  31.547   4.353
74738W        W40218  24.165  34.896   1.386
74739W        W40219   4.823  34.484  12.407
74740W        W40220  30.452   2.927   0.819
74741W        W40221  14.161  14.137  11.605
74742W        W40222  38.841  43.448  14.828
74743W        W40223  25.118  32.547  12.382
74744W        W40224  18.736   3.845   0.413
74745W        W40225  24.990  44.989   2.847
74746W        W40226  32.139  13.639   2.330
74747W        W40227  28.476   0.778  10.461
74748W        W40228  27.989  39.457  12.416
74749W        W40229  14.166  17.717   2.220
74750W        W40230  12.766  32.591  13.357
74751W        W40231  32.003  10.147   2.242
74752W        W40232  38.978  14.665   0.338
74753W        W40233   5.924  41.343  14.984
74754W        W40234  20.589   1.441  12.834
74755W        W40235  39.818  43.387  14.986
74756W        W40236  28.619  17.780   3.690
74757W        W40237  25.023  39.818  10.969
74758W        W40238  17.172  40.851  11.878
74759W        W40239  23.071  19.655  14.832
74760W        W40240  25.182   3.345  13.992
74761W        W40241  42.401  39.909  12.434
74762W        W40242  23.491   3.748  13.322
74763W        W40243  37.382  21.180  10.082
74764W        W40244  27.051  12.780  14.778
74765W        W40245  25.678  42.832  10.978
74766W        W40246  31.019  27.034  10.598
74767W        W40247   5.848  35.013   4.768
74768W        W40248  13.348  44.857  12.851
74769W        W40249  43.357  35.486   2.770
74770W        W40250  17.266  42.306   0.859
74771W        W40251  35.983   3.715  10.978
74772W        W40252  29.992  24.020   2.755
74773W        W40253   3.924  36.923   3.645
74774W        W40254  31.513   0.987   3.304
74775W        W40255  18.748  12.344  11.947
74776W        W40256  31.986  38.357  10.899
74777W        W40257  15.268  31.548  12.912
74778W        W40258   5.358  41.801  11.562
74779W        W40259  24.980  27.075   0.777
74780W        W40260  26.531  42.329   1.331
74781W        W40261  32.391  22.686   4.178
74782W        W40262  27.624   0.767   0.319
74783W        W40263  23.605  41.883  11.946
74784W        W40264  30.574  29.658   2.861
74785W        W40265  18.189  24.071  10.920
74786W        W40266  30.477  28.127   5.249
74787W        W40267  32.027  23.153   4.159
74788W        W40268  20.694  43.276   4.202
74789W        W40269  21.158  19.594   0.400
74790W        W40270  36.426  38.980   5.202
74791W        W40271  30.988   8.380   4.641
74792W        W40272  44.997  40.459  10.576
74793W        W40273  14.625  26.629   1.735
74794W        W40274  15.310  35.377   3.174
74795W        W40275  40.943  17.732  11.044
74796W        W40276  29.140  43.887   2.723
74797W        W40277   2.422  28.176   2.335
74798W        W40278   0.825   4.921  11.060
74799W        W40279  19.634   4.218   3.825
74800W        W40280  12.173  29.635  11.951
74801W        W40281  29.587   1.363   0.242
74802W        W40282  23.114  23.532   1.710
74803W        W40283  17.754   4.368  14.326
74804W        W40284  26.188  11.753  12.400
74805W        W40285  42.450   7.787   4.750
74806W        W40286  17.650  43.436  13.370
74807W        W40287  25.646  35.022  13.431
74808W        W40288   2.779  18.221  10.923
74809W        W40289  37.353  33.483  12.031
74810W        W40290  35.381  15.701  10.541
74811W        W40291  24.014  19.610   0.418
74812W        W40292  43.361   4.438  12.359
74813W        W40293  19.643  33.540   0.273
74814W        W40294  28.091   1.966  14.759
74815W        W40295  29.948  16.253   2.824
74816W        W40296  30.046  26.208  12.405
74817W        W40297  29.097  30.915  14.326
74818W        W40298  28.085  13.724  11.517
74819W        W40299  42.816  23.530   2.849
74820W        W40300   9.375   0.418  11.100
74821W        W40301  24.651   7.793   1.806
74822W        W40302   8.207   9.709  12.874
74823W        W40303  42.491  25.130   4.268
74824W        W40304  34.111  34.952   1.422
74825W        W40305  37.877  21.743  14.978
74826W        W40306  19.575  14.814   2.348
74827W        W40307  19.768  27.605  13.476
74828W        W40308   4.322  24.130   2.674
74829W        W40309  15.269  15.230  10.105
74830W        W40310   8.788  21.120  10.450
74831W        W40311  25.677   0.443   4.328
74832W        W40312  11.341  40.861  11.548
74833W        W40313   0.410  15.662   2.399
74834W        W40314  32.483  41.366  14.377
74835W        W40315  15.317  21.686   0.934
74836W        W40316  31.959  42.515  12.893
74837W        W40317   9.890  20.679  13.886
74838W        W40318  24.576   2.264  12.541
74839W        W40319  42.964  39.045  11.387
74840W        W40320  26.613  15.133  13.396
74841W        W40321  13.224  37.057  14.859
74842W        W40322  18.156  10.364   4.234
74843W        W40323  33.434  35.077   2.699
74844W        W40324  28.054  12.307   4.265
74845W        W40325  39.515  18.637   2.307
74846W        W40326  15.085  41.478  12.382
74847W        W40327  31.141   0.406  10.579
74848W        W40328  19.049  23.117   2.269
74849W        W40329  31.642  16.610   4.301
74850W        W40330   0.812  26.202  12.370
74851W        W40331  11.310  37.907   4.636
74852W        W40332  32.539  32.941  14.999
74853W        W40333  28.438  38.910   0.389
74854W        W40334  21.636   5.838   4.277
74855W        W40335   1.467   6.729  10.574
74856W        W40336  41.301  41.902   3.706
74857W        W40337  18.294  43.284   3.239
74858W        W40338   5.867  29.597  10.514
74859W        W40339  33.464  11.212  12.836
74860W        W40340  39.557  29.083  13.897
74861W        W40341   2.259  26.525   1.447
74862W        W40342  20.720  21.141   3.227
74863W        W40343  35.947  42.991   0.945
74864W        W40344  40.011  10.677   0.441
74865W        W40345  22.712  26.524   2.225
74866W        W40346   1.450  35.917   3.718
74867W        W40347  40.820  36.560  13.515
74868W        W40348  21.599  27.095   4.711
74869W        W40349   3.782   8.882   1.216
74870W        W40350  30.634  28.020  11.880
74871W        W40351  12.662  31.928   0.878
74872W        W40352  25.541  40.977   3.773
74873W        W40353  38.346   9.227   2.289
74874W        W40354   1.320  18.573   1.346
74875W        W40355  41.395  39.443  13.397
74876W        W40356  22.212   7.361  10.126
74877W        W40357  12.118  14.154   3.381
74878W        W40358  31.931   0.862  13.060
74879W        W40359  23.090  41.471  14.891
74880W        W40360  19.579  31.960  10.476
74881W        W40361  15.681  29.509   1.266
74882W        W40362  39.491  18.176   5.314
74883W        W40363  36.898  27.561   0.731
74884W        W40364  11.244  41.916  11.457
74885W        W40365  15.180  14.274  11.906
74886W        W40366  14.272  11.154  12.931
74887W        W40367  24.551  24.007  11.896
74888W        W40368  14.181  36.550   4.687
74889W        W40369  16.651  31.614  13.805
74890W        W40370  24.615  15.736   1.271
74891W        W40371  42.469  35.544  12.091
74892W        W40372  30.488  14.131   2.347
74893W        W40373   6.257   4.833  10.416
74894W        W40374   3.361  41.018  14.961
74895W        W40375  25.000   8.882   0.369
74896W        W40376  33.899   3.402  10.632
74897W        W40377  42.008  28.665   0.799
74898W        W40378  30.054  14.645  12.994
74899W        W40379  23.648  13.304   1.227
74900W        W40380  43.820  11.679  10.546
74901W        W40381  26.516  32.457   1.219
74902W        W40382  10.140   7.718   1.442
74903W        W40383  33.508  36.418  11.599
74904W        W40384  33.058  23.618   2.289
74905W        W40385   8.882   8.196  14.495
74906W        W40386  41.790  11.774  13.446
74907W        W40387  21.053  34.065  13.462
74908W        W40388  15.125  20.049   0.862
74909W        W40389  35.098  19.082   4.755
74910W        W40390  39.402  30.106   1.866
74911W        W40391   5.808  41.880   0.942
74912W        W40392  12.126  39.025  13.347
74913W        W40393   8.675  41.337  12.577
74914W        W40394   2.920  37.507  10.596
74915W        W40395  24.723  21.670  12.445
74916W        W40396  34.904  44.434   3.236
74917W        W40397  35.892   5.288  14.965
74918W        W40398   4.844  11.317  14.507
74919W        W40399   6.402  38.327   4.741
74920W        W40400  33.549  31.968   3.366
74921W        W40401  23.719  10.172   3.270
74922W        W40402  11.275  36.091  11.032
74923W        W40403  36.424  14.098  14.971
74924W        W40404  15.325  16.217  13.433
74925W        W40405   5.860  43.844   1.342
74926W        W40406  15.783  22.210  12.458
74927W        W40407  33.974   3.729   1.367
74928W        W40408  44.944  21.248  14.388
74929W        W40409   1.314   3.357   2.860
74930W        W40410  37.399  28.572  11.428
74931W        W40411  27.680   3.336   1.241
74932W        W40412  38.859  31.940   5.261
74933W        W40413  12.762  39.525  11.489
74934W        W40414  15.109  39.511  12.509
74935W        W40415  24.990  14.805  11.001
74936W        W40416  33.094  33.021   3.725
74937W        W40417  24.152  24.491   1.293
74938W        W40418  43.298   8.170   3.317
74939W        W40419  32.894  19.578  10.490
74940W        W40420  26.102  44.489   2.323
74941W        W40421   0.493  44.334   4.814
74942W        W40422  16.129  19.202   2.178
74943W        W40423  35.004  42.325   2.667
74944W        W40424  30.639  33.435  12.453
74945W        W40425  21.650  35.449   2.803
74946W        W40426  42.439  31.430  11.490
74947W        W40427  26.973  40.909   2.364
74948W        W40428  42.329  40.861  11.420
74949W        W40429  13.619  12.662   5.156
74950W        W40430  12.173  14.651   1.805
74951W        W40431  31.496   9.673  13.401
74952W        W40432  25.546  42.387  11.607
74953W        W40433  40.543  17.220  11.941
74954W        W40434  20.668  11.338   2.375
74955W        W40435   8.381  22.633   0.804
74956W        W40436  11.710   0.325  12.441
74957W        W40437   4.290  36.531   4.289
74958W        W40438  30.984  17.292  11.010
74959W        W40439  25.700   8.346  11.056
74960W        W40440  39.370  15.204   2.884
74961W        W40441   2.285  18.065   2.415
74962W        W40442   9.379  14.743   0.949
74963W        W40443  28.459  40.871   0.480
74964W        W40444  21.713  36.387   3.772
74965W        W40445  14.832  24.178  14.479
74966W        W40446   3.367  22.023   1.426
74967W        W40447   1.969  10.156  11.081
74968W        W40448  22.611  17.704  13.509
74969W        W40449  25.537  16.283  10.514
74970W        W40450  23.529   8.206  10.962
74971W        W40451  28.583   1.358  14.482
74972W        W40452  10.878  24.505  13.853
74973W        W40453  34.502  42.401  11.542
74974W        W40454  36.847  11.146  11.445
74975W        W40455  31.136   9.834   0.296
74976W        W40456  31.515   9.306  13.365
74977W        W40457  11.226  29.640  10.494
74978W        W40458   3.338  19.687  14.943
74979W        W40459  24.673  35.419  10.480
74980W        W40460  41.317   5.797   2.343
74981W        W40461  10.156  34.937  12.836
74982W        W40462  25.031  18.226   0.896
74983W        W40463  20.064  16.642   3.320
74984W        W40464  12.317  30.014  12.849
74985W        W40465  42.965  41.797   2.813
74986W        W40466  11.759  20.181  11.077
74987W        W40467  44.007  38.880  12.914
74988W        W40468   2.389  11.829   3.374
74989W        W40469  32.969   7.907  11.061
74990W        W40470  21.146  22.007  13.870
74991W        W40471  27.447   9.784  14.006
74992W        W40472  25.681  41.949  10.903
74993W        W40473  27.944  36.517   0.829
74994W        W40474   4.398  24.570  12.504
74995W        W40475  31.566  32.122  11.539
74996W        W40476  14.674  36.500   4.649
74997W        W40477  19.625   1.875  10.436
74998W        W40478  10.217   6.359  13.045
74999W        W40479   1.929  31.975  11.587
75000W        W40480  14.726  41.505   3.326
75001W        W40481  22.679  37.468   5.185
75002W        W40482   8.865  41.312   0.245
75003W        W40483   9.152  43.780   2.767
75004W        W40484   4.418  16.678  12.045
75005W        W40485   1.361   7.264   4.766
75006W        W40486   0.439  25.649   1.336
75007W        W40487  29.660  22.509   2.327
75008W        W40488  21.676  35.918   5.261
75009W        W40489  36.856   5.737  12.385
75010W        W40490  29.093   7.199  13.975
75011W        W40491   1.962   5.432   4.605
75012W        W40492  38.865  33.522  13.831
75013W        W40493  15.781  27.614   2.394
75014W        W40494   2.731   3.777  11.480
75015W        W40495  34.516  14.629  13.920
75016W        W40496  27.173   5.424   4.721
75017W        W40497  11.772  19.178   4.818
75018W        W40498   3.357   6.734  12.881
75019W        W40499  36.378  10.158   1.424
75020W        W40500  23.093  16.083  13.451
75021W        W40501  12.145  35.072  10.474
75022W        W40502  34.970  36.040   5.285
75023W        W40503  29.583  33.422   2.222
75024W        W40504  34.521   3.756   4.704
75025W        W40505  25.102   2.877   3.225
75026W        W40506  12.334  44.440   0.439
75027W        W40507  25.996  15.655   1.782
75028W        W40508  35.937  15.686   2.717
75029W        W40509  34.030  15.761  10.014
75030W        W40510  25.112  18.761  12.510
75031W        W40511  44.997  44.005  12.523
75032W        W40512   3.266  27.167   0.792
75033W        W40513   0.449  41.463   3.869
75034W        W40514  25.677   4.868  14.457
75035W        W40515  32.057  20.759  12.428
75036W        W40516  25.964   2.292  12.092
75037W        W40517   8.818  26.513  14.967
75038W        W40518   4.268  22.156   3.192
75039W        W40519  42.012  13.678  12.961
75040W        W40520  34.988  14.799   0.842
75041W        W40521  30.424   3.921   0.900
75042W        W40522   9.854   4.712   2.662
75043W        W40523  40.457  27.690   0.834
75044W        W40524  14.723  30.017  13.426
75045W        W40525  16.088  29.478   4.778
75046W        W40526   4.404  41.946  10.641
75047W        W40527  43.831  13.704   4.336
75048W        W40528  41.336  43.330  11.128
75049W        W40529  10.768  11.137  11.078
75050W        W40530  42.451  10.150  13.501
75051W        W40531  21.757  40.442   3.152
75052W        W40532   3.762  36.010   4.620
75053W        W40533   1.909   8.175  10.605
75054W        W40534  18.145  33.019   2.851
75055W        W40535  35.537  29.462  13.388
75056W        W40536   1.925  13.335   3.667
75057W        W40537  23.099  16.791   3.161
75058W        W40538  34.610  35.904  13.810
75059W        W40539  35.483  29.475  13.810
75060W        W40540  37.362  20.091   4.300
75061W        W40541   4.884  26.465  14.493
75062W        W40542  31.578  17.238  14.769
75063W        W40543  30.435   7.357  12.932
75064W        W40544   3.932  21.558   0.939
75065W        W40545   1.313  44.814  11.913
75066W        W40546  40.001  34.419  12.094
75067W        W40547  17.724  40.941  14.456
75068W        W40548   2.798   0.768  14.380
75069W        W40549  26.644  29.629   3.356
75070W        W40550  36.872   8.844   0.854
75071W        W40551   0.961  27.130   1.904
75072W        W40552  39.555  28.131  14.766
75073W        W40553  13.614  18.150   4.687
75074W        W40554  20.250  35.584   4.779
75075W        W40555  41.345  22.521  12.348
75076W        W40556   6.816   7.236  14.444
75077W        W40557  28.047  21.622   1.783
75078W        W40558   3.834  32.485  10.973
75079W        W40559  24.196  30.523   2.216
75080W        W40560  26.479  29.936  14.809
75081W        W40561  11.821   1.254   2.724
75082W        W40562  27.103  25.194  11.592
75083W        W40563  42.910  23.201  10.438
75084W        W40564   1.419   1.335  12.879
75085W        W40565  30.481  36.056  13.506
75086W        W40566  30.625  21.128   0.841
75087W        W40567  13.754  39.520  13.854
75088W        W40568   2.961   0.464   2.770
75089W        W40569  44.820  37.923   2.821
75090W        W40570  35.444  16.085  12.056
75091W        W40571  17.139  13.149  14.303
75092W        W40572   9.651  42.314  13.463
75093W        W40573  22.168   5.410   1.797
75094W        W40574  41.920   1.805  10.949
75095W        W40575   1.320  42.369  13.529
75096W        W40576  19.253  26.013  14.995
75097W        W40577  19.099  44.776  14.764
75098W        W40578  22.150  40.992  11.371
75099W        W40579  27.039   7.377   1.699
75100W        W40580  32.093  23.000   0.296
75101W        W40581  11.733  23.137  12.035
75102W        W40582   8.704  23.612  12.491
75103W        W40583   2.358  34.892   1.432
75104W        W40584  14.667  18.584  11.083
75105W        W40585  29.094  19.729  13.901
75106W        W40586  35.988   9.651   2.418
75107W        W40587  32.434  44.446   1.918
75108W        W40588  40.046  39.430   0.739
75109W        W40589   7.358  43.842   4.814
75110W        W40590  41.905  41.489   1.836
75111W        W40591  40.890  13.115   1.364
75112W        W40592  41.927   7.285   9.941
75113W        W40593  14.618  13.831  11.562
75114W        W40594   9.883  22.700  14.793
75115W        W40595  19.686  40.840   2.734
75116W        W40596  25.003   1.388   0.761
75117W        W40597   5.326  15.217   0.827
75118W        W40598  11.140   7.192  13.909
75119W        W40599  19.777  30.988  12.981
75120W        W40600  41.514  28.672   3.286
75121W        W40601  29.097  10.195   1.311
75122W        W40602  17.087  18.737   2.707
75123W        W40603  41.812  11.731  14.926
75124W        W40604  38.911   5.840  10.588
75125W        W40605  23.227   6.763   2.236
75126W        W40606  41.377  24.552   1.358
75127W        W40607  11.643  11.650  13.407
75128W        W40608  42.852   2.782  12.918
75129W        W40609   8.859  39.927  12.473
75130W        W40610  28.973   4.789   1.771
75131W        W40611  26.596  31.458  11.118
75132W        W40612   3.753  10.775   1.255
75133W        W40613  14.806  16.794   3.651
75134W        W40614  15.713  10.846   1.264
75135W        W40615  13.122  20.723  14.882
75136W        W40616   7.814  19.711   1.766
75137W        W40617  15.115  11.631  14.345
75138W        W40618  44.765  38.047   4.220
75139W        W40619  38.926  33.478   1.276
75140W        W40620  37.042   1.278   4.702
75141W        W40621  11.834  26.163  14.859
75142W        W40622  17.142  42.914   4.800
75143W        W40623  14.317  24.659   2.871
75144W        W40624  31.535   5.348  12.447
75145W        W40625  41.397   9.383  14.837
75146W        W40626   1.443  41.893  10.969
75147W        W40627  44.433   3.876  10.553
75148W        W40628  17.239  26.645   2.712
75149W        W40629  23.081  25.026  14.416
75150W        W40630   7.885  41.497  10.627
75151W        W40631  41.795  40.803   4.255
75152W        W40632   9.741  30.467  10.576
75153W        W40633  20.146   9.838   0.771
75154W        W40634   3.920  43.353  12.071
75155W        W40635  20.607   2.746   2.189
75156W        W40636   2.372  31.066  12.047
75157W        W40637  19.770  35.047  10.631
75158W        W40638  32.106  25.987   1.755
75159W        W40639   0.436  33.396  11.532
75160W        W40640   6.759  22.247   3.641
75161W        W40641  12.246  25.682   2.332
75162W        W40642  25.189  31.062  11.477
75163W        W40643  40.985   6.816   4.788
75164W        W40644  37.904  15.706   0.939
75165W        W40645  37.571  35.513   4.316
75166W        W40646  24.573  35.499  12.838
75167W        W40647  44.359  17.137  14.804
75168W        W40648  40.957  20.573   9.973
75169W        W40649  11.175   3.929  11.035
75170W        W40650  14.168  31.631  13.007
75171W        W40651  23.082  39.031   1.342
75172W        W40652  36.471  19.586   4.114
75173W        W40653  20.569  31.108   4.790
75174W        W40654  37.428  26.608   3.230
75175W        W40655  35.031  17.730  12.925
75176W        W40656  35.471   0.295  13.920
75177W        W40657  20.533  39.498   4.138
75178W        W40658  14.737   8.892  13.915
75179W        W40659  40.954  17.797   2.681
75180W        W40660  32.468  41.344   2.229
75181W        W40661   9.352  29.164   3.856
75182W        W40662  29.439  27.553   2.842
75183W        W40663   9.174  27.994  13.929
75184W        W40664  22.695  30.000   4.193
75185W        W40665   5.793   2.850  10.943
75186W        W40666   0.930  24.486   1.810
75187W        W40667  14.246  11.157   3.661
75188W        W40668  16.107  39.532   2.759
75189W        W40669  31.047  30.600   4.229
75190W        W40670   0.944   4.291  14.884
75191W        W40671  32.984   4.717   0.929
75192W        W40672  19.702  20.154  11.943
75193W        W40673  42.498   2.923  11.046
75194W        W40674  11.795  28.087  14.825
75195W        W40675  13.266  28.990   0.741
75196W        W40676  22.667  36.560   0.314
75197W        W40677  35.561   6.898  14.470
75198W        W40678  19.748  19.567   3.200
75199W        W40679  20.097   5.879   2.285
75200W        W40680  27.540  30.625   3.231
75201W        W40681  19.673  14.588   2.845
75202W        W40682  37.434  27.142   0.395
75203W        W40683  11.187  34.435   2.745
75204W        W40684   3.448  44.380   2.315
75205W        W40685  41.925  31.568   1.446
75206W        W40686   2.758  41.949  11.377
75207W        W40687  40.387  36.868   2.416
75208W        W40688  34.402  43.302  12.578
75209W        W40689  27.035  40.492   2.243
75210W        W40690   9.743  35.951  13.475
75211W        W40691  13.674  22.024   2.182
75212W        W40692  40.456   0.438  11.455
75213W        W40693  27.580   1.797  10.457
75214W        W40694  17.603  33.555   4.115
75215W        W40695  16.676   9.812   4.210
75216W        W40696  15.189  43.771  14.819
75217W        W40697   1.820  44.298   3.189
75218W        W40698  16.280  28.148  14.478
75219W        W40699  10.689  36.934   4.291
75220W        W40700  12.177  32.595  14.836
75221W        W40701  30.150  25.125  14.873
75222W        W40702  32.005  31.003   0.832
75223W        W40703  33.106  10.156  11.037
75224W        W40704  29.153  28.505   0.742
75225W        W40705   4.424  32.123  13.464
75226W        W40706  29.478   4.248  10.982
75227W        W40707   8.369  43.284  11.516
75228W        W40708  29.004   0.849   3.231
75229W        W40709   3.329   4.391   0.772
75230W        W40710   9.290  13.710  12.567
75231W        W40711  24.559  34.044   3.870
75232W        W40712  29.621   8.727  14.906
75233W        W40713  36.037   9.155  11.385
75234W        W40714  13.776   6.302  13.535
75235W        W40715  38.050  11.138  12.031
75236W        W40716  39.917   1.850   0.887
75237W        W40717   2.841  30.124   1.839
75238W        W40718  35.860   1.346   1.216
75239W        W40719  10.787  28.153   1.443
75240W        W40720  30.944  36.006  12.913
75241W        W40721  27.575  20.622  10.432
75242W        W40722  40.548  37.889  13.325
75243W        W40723   3.455  31.046   5.212
75244W        W40724  11.769  10.771   4.168
75245W        W40725   9.814  42.879   5.322
75246W        W40726  37.844  14.808   4.241
75247W        W40727  39.418  42.355   0.795
75248W        W40728  44.882   1.978  13.329
75249W        W40729  43.772  10.811   4.778
75250W        W40730  24.094   9.867  14.856
75251W        W40731  15.718   6.779  14.432
75252W        W40732  16.779   0.853   3.182
75253W        W40733  40.869  27.015   3.201
75254W        W40734  18.731   8.376  10.614
75255W        W40735  12.803  43.335  11.552
75256W        W40736   7.409  33.045   4.269
75257W        W40737   7.838  24.982   1.356
75258W        W40738  29.531  18.759   1.430
75259W        W40739  24.230  20.744   2.401
75260W        W40740  15.223  20.110   4.729
75261W        W40741  26.543  36.509  12.826
75262W        W40742  40.838  19.163  10.617
75263W        W40743  43.327  25.691   2.698
75264W        W40744  38.446   4.940   1.790
75265W        W40745  35.516  13.266   3.662
75266W        W40746  17.797  21.517  12.085
75267W        W40747   5.903  18.569   3.198
75268W        W40748  29.135  43.849   3.246
75269W        W40749  21.626  24.106  12.369
75270W        W40750  21.522   7.908  11.574
75271W        W40751  44.821  31.639   3.697
75272W        W40752  11.237  12.358   1.258
75273W        W40753  20.269   6.341  14.835
75274W        W40754  13.266  22.014   4.658
75275W        W40755   4.285  40.325  13.993
75276W        W40756  20.619   8.377  13.022
75277W        W40757   9.867  31.923  10.087
75278W        W40758   4.895   9.768  14.939
75279W        W40759   8.763   0.977   2.733
75280W        W40760  15.701   4.276   2.212
75281W        W40761   0.790  37.952   3.664
75282W        W40762  22.035  11.340  10.964
75283W        W40763  15.591  31.110   1.390
75284W        W40764  15.140  22.023   4.635
75285W        W40765  24.138   4.715  12.512
75286W        W40766  16.768  34.459   0.844
75287W        W40767  25.968  34.391   1.250
75288W        W40768  22.546  22.590   4.706
75289W        W40769  32.116  33.584  10.459
75290W        W40770   7.719  39.546  14.811
75291W        W40771   4.808   7.185  11.580
75292W        W40772   1.767  36.994   1.311
75293W        W40773  16.777  25.044   3.741
75294W        W40774   8.692  29.476   1.751
75295W        W40775   6.804  27.150   4.734
75296W        W40776   7.674  29.002   0.420
75297W        W40777  19.277  25.571  12.065
75298W        W40778  33.481  31.625   2.793
75299W        W40779   5.384   9.356  13.368
75300W        W40780  17.306   4.322   0.450
75301W        W40781  27.972  44.763   4.274
75302W        W40782  29.173  31.115   0.900
75303W        W40783   4.402  22.209  13.524
75304W        W40784   1.413  24.534  10.547
75305W        W40785  13.201  27.548   3.331
75306W        W40786   7.303  43.988  12.566
75307W        W40787  24.642   2.846   2.229
75308W        W40788   6.870   6.390   0.854
75309W        W40789  29.438  16.109  11.562
75310W        W40790  34.373  40.811  13.445
75311W        W40791  30.588  33.906   3.866
75312W        W40792  40.310  36.041   5.312
75313W        W40793  30.030  42.400  13.879
75314W        W40794   7.866  18.638   2.418
75315W        W40795   0.374  43.769   2.886
75316W        W40796  30.108  35.566   0.838
75317W        W40797  16.272  24.647  13.050
75318W        W40798  27.001  13.267   2.852
75319W        W40799  36.352  25.535   0.340
75320W        W40800   3.409   8.391   1.882
75321W        W40801  20.174   2.409   4.692
75322W        W40802  40.487  44.327  11.116
75323W        W40803  21.158   1.423  14.306
75324W        W40804  17.693  37.524  11.572
75325W        W40805  40.840   0.977   0.465
75326W        W40806  11.858  15.120  11.115
75327W        W40807  25.190  20.681   3.754
75328W        W40808  42.407   4.227  13.446
75329W        W40809  39.819  17.234  12.002
75330W        W40810   7.786  38.524   0.882
75331W        W40811   0.297  38.057   1.760
75332W        W40812  13.171   6.732  12.094
75333W        W40813  37.432  42.853   1.366
75334W        W40814   2.904  22.737   1.731
75335W        W40815  21.101   0.320   4.607
75336W        W40816  13.616  32.451   4.709
75337W        W40817  21.557  22.088  10.472
75338W        W40818  40.873   0.927  13.911
75339W        W40819  25.983  22.011  13.024
75340W        W40820  33.028  13.282  13.376
75341W        W40821  44.482  32.452  14.361
75342W        W40822  26.626  13.751  10.511
75343W        W40823  34.601  37.387  13.508
75344W        W40824  11.797  19.185  13.873
75345W        W40825  12.762   3.795   3.185
75346W        W40826   3.431  23.720   2.743
75347W        W40827   2.416  31.012  10.568
75348W        W40828  24.640  11.154   2.353
75349W        W40829   2.448  13.775  13.886
75350W        W40830  42.330  32.056   1.929
75351W        W40831  32.442  34.507  11.502
75352W        W40832   1.736  25.575   3.377
75353W        W40833   2.924  32.113  12.478
75354W        W40834  28.945  35.526   4.599
75355W        W40835  13.325  17.287  14.330
75356W        W40836  11.324  19.587   2.700
75357W        W40837   1.867  14.208   3.724
75358W        W40838   3.438  12.317  11.885
75359W        W40839  11.130  18.225   1.423
75360W        W40840  24.714  40.898   4.310
75361W        W40841  23.098  12.662  10.934
75362W        W40842  18.663   1.312  13.530
75363W        W40843  14.148  23.610  10.459
75364W        W40844  44.295  44.465  14.031
75365W        W40845   3.947  31.603   1.284
75366W        W40846  16.144   0.908  13.793
75367W        W40847  42.024  44.317   2.680
75368W        W40848   8.289  32.134   4.673
75369W        W40849   9.781  11.161   2.709
75370W        W40850   6.292  18.162  14.791
75371W        W40851  18.286   4.928  14.304
75372W        W40852  17.631  20.654  13.460
75373W        W40853  43.473   9.375   4.317
75374W        W40854  20.538  33.501  14.504
75375W        W40855  19.759  24.111   1.759
75376W        W40856  24.653  30.482  12.004
75377W        W40857  42.308   3.401   3.340
75378W        W40858   1.741  28.111   5.087
75379W        W40859  24.588  24.168  13.437
75380W        W40860  12.138  25.214  13.809
75381W        W40861  16.155  40.962   3.387
75382W        W40862  35.862   8.816  11.926
75383W        W40863  15.814  18.790   5.147
75384W        W40864  38.529  21.106  11.911
75385W        W40865   0.836  14.792   1.789
75386W        W40866  26.173   9.747   0.932
75387W        W40867  33.416  18.114   1.260
75388W        W40868  25.515  15.707  11.082
75389W        W40869   1.948  35.425   2.401
75390W        W40870  41.532   6.730   1.845
75391W        W40871  27.157  26.017  13.988
75392W        W40872  29.101  31.936  10.511
75393W        W40873   2.472  35.425  12.523
75394W        W40874  16.624  15.580   4.180
75395W        W40875  42.475   1.904   2.384
75396W        W40876  10.665  27.160  12.344
75397W        W40877  27.540   1.305  13.444
75398W        W40878   3.220   2.386   5.221
75399W        W40879  21.557  29.598   4.187
75400W        W40880   3.736  38.039   3.237
75401W        W40881  28.569  36.437  14.920
75402W        W40882  26.158   2.808  11.996
75403W        W40883  27.449   3.744  11.385
75404W        W40884   8.748   1.434   1.272
75405W        W40885  23.229   3.728   1.810
75406W        W40886  44.903  38.966  10.140
75407W        W40887  33.605  42.420  12.009
75408W        W40888  35.892  44.936   1.700
75409W        W40889   3.363  18.752  10.414
75410W        W40890  32.511  27.692   4.237
75411W        W40891  12.731   2.793   4.789
75412W        W40892  10.871  34.457   3.259
75413W        W40893  42.511  24.484   4.810
75414W        W40894  37.504   0.413   3.152
75415W        W40895   6.341  29.436  10.641
75416W        W40896  39.991  33.112  13.541
75417W        W40897  20.058  30.159   1.933
75418W        W40898  25.204  12.285  11.490
75419W        W40899   9.218  42.472  10.572
75420W        W40900  24.996  35.391  14.340
75421W        W40901  16.200   5.193  13.043
75422W        W40902  19.667  36.923  12.048
75423W        W40903  25.144  16.285   3.836
75424W        W40904  13.281  26.158   1.867
75425W        W40905  18.679   0.477  11.537
75426W        W40906   2.274  10.698   0.880
75427W        W40907  34.515  13.161   0.953
75428W        W40908  35.999   7.839  14.764
75429W        W40909   2.279   4.764  10.119
75430W        W40910  41.420  33.394   2.292
75431W        W40911  40.489  31.084   4.687
75432W        W40912  17.210   4.442  11.520
75433W        W40913  25.131   8.364   4.636
75434W        W40914  20.227  40.447  11.025
75435W        W40915   5.397  33.130   3.166
75436W        W40916  11.810   1.425  11.990
75437W        W40917  28.099  23.175  13.333
75438W        W40918  42.863   4.778   1.848
75439W        W40919  15.650   1.843   1.836
75440W        W40920  42.828  13.257   0.469
75441W        W40921  42.366   0.937  11.073
75442W        W40922  30.441  23.678   1.842
75443W        W40923  37.947  13.150   4.156
75444W        W40924  12.759   2.931   3.783
75445W        W40925  14.751   7.909  13.804
75446W        W40926  34.893  39.343  11.504
75447W        W40927  15.740  27.943   0.843
75448W        W40928  29.174   3.765   2.249
75449W        W40929  44.810   3.436  12.888
75450W        W40930  15.644  41.334  14.024
75451W        W40931  16.257   5.706  13.340
75452W        W40932  31.996  35.903   0.450
75453W        W40933  18.219  11.163   2.251
75454W        W40934  34.512   3.390   0.786
75455W        W40935  27.061   3.374   3.377
75456W        W40936  24.500   3.755  12.085
75457W        W40937   2.877  35.862  13.964
75458W        W40938  15.224  17.301   9.926
75459W        W40939   5.813  14.225   2.222
75460W        W40940  33.580  35.512  13.988
75461W        W40941   0.973  42.789   0.458
75462W        W40942  18.116   8.232  14.384
75463W        W40943  35.423   8.340   1.334
75464W        W40944  23.558  18.161  12.004
75465W        W40945   6.295  31.544  14.430
75466W        W40946  25.661  11.137   0.871
75467W        W40947  39.470  24.171  10.912
75468W        W40948  41.295  40.865   3.732
75469W        W40949  27.153  40.943  10.934
75470W        W40950   6.333  36.409  11.500
75471W        W40951  30.110  15.788   1.921
75472W        W40952  36.903  37.389  13.410
75473W        W40953  29.967  26.488   0.765
75474W        W40954   5.868  22.694  12.967
75475W        W40955  29.085   7.911  10.456
75476W        W40956  22.512  23.549   1.765
75477W        W40957  27.006   6.846   1.373
75478W        W40958  16.282   2.755   0.261
75479W        W40959  40.818   9.256  11.976
75480W        W40960   6.738  14.163  14.019
75481W        W40961   2.236  17.790   3.253
75482W        W40962  44.973  29.592  13.997
75483W        W40963   9.211  10.763   2.867
75484W        W40964  10.725  28.608   2.808
75485W        W40965  36.077  15.680  14.952
75486W        W40966  28.968  12.659   3.246
75487W        W40967  11.777   1.732   4.675
75488W        W40968  37.442  11.183   1.408
75489W        W40969  14.119  15.667   2.670
75490W        W40970  42.811  23.498   3.348
75491W        W40971  14.776   7.280  10.899
75492W        W40972  13.810  37.453   3.230
75493W        W40973  31.581  32.127  10.450
75494W        W40974  40.922  17.076  12.054
75495W        W40975  43.344  34.876   4.828
75496W        W40976  38.825  26.057   4.748
75497W        W40977   7.254  15.181   0.899
75498W        W40978  24.589  43.979  11.543
75499W        W40979  43.411  11.831   0.917
75500W        W40980  29.098  43.352   4.174
75501W        W40981  15.762   4.333  11.382
75502W        W40982  24.127  13.720  11.606
75503W        W40983  43.397   8.845  11.019
75504W        W40984  26.524  23.230  11.943
75505W        W40985  38.376  34.458  11.603
75506W        W40986  31.906  34.986   0.828
75507W        W40987  17.206  32.983   0.376
75508W        W40988  28.147  29.498   2.182
75509W        W40989  27.991  25.079   3.862
75510W        W40990  31.948  26.552  13.513
75511W        W40991  25.493  36.992   4.226
75512W        W40992  28.490   6.832  13.001
75513W        W40993   4.793  15.581   1.790
75514W        W40994  21.216  28.481   2.409
75515W        W40995  43.966  29.962   2.321
75516W        W40996   0.258  13.722   2.811
75517W        W40997  14.646  29.093   2.704
75518W        W40998   0.864  28.534   1.357
75519W        W40999  34.990  41.902   4.242
75520W        W41000  29.055   2.747   0.902
75521W        W41001  15.735  28.613   0.927
75522W        W41002   8.171  37.917   3.227
75523W        W41003  25.069  41.467   2.848
75524W        W41004  37.574   1.891  12.930
75525W        W41005  41.864  13.172  12.972
75526W        W41006   7.754   6.327   1.782
75527W        W41007  15.598  27.591   4.196
75528W        W41008  37.499   9.267  13.913
75529W        W41009  33.507  10.790  11.901
75530W        W41010   1.842  34.059   2.414
75531W        W41011  44.868  30.521  14.434
75532W        W41012  30.535  17.120   1.887
75533W        W41013   0.433   1.308   0.882
75534W        W41014  13.296  15.703  13.861
75535W        W41015   8.821   3.448   0.365
75536W        W41016  36.383   2.329   4.114
75537W        W41017  39.495  28.989  14.943
75538W        W41018   9.284   5.847  13.990
75539W        W41019  24.203  25.205  11.581
75540W        W41020  40.867  39.367   1.798
75541W        W41021   7.382  18.682  14.026
75542W        W41022  24.019  23.526   3.779
75543W        W41023  40.390  10.142  10.025
75544W        W41024  17.687  43.942   2.293
75545W        W41025  24.667   8.896   4.828
75546W        W41026  26.035   6.237  14.779
75547W        W41027   7.348  28.041   2.675
75548W        W41028  16.182  40.836   1.267
75549W        W41029  28.648  34.438  11.427
75550W        W41030  29.496   2.955  12.383
75551W        W41031  17.303   4.298  13.959
75552W        W41032  44.789  17.130  10.604
75553W        W41033  17.584  30.420  11.881
75554W        W41034  24.227  15.809  10.539
75555W        W41035  30.021  26.599   3.858
75556W        W41036  24.628  42.981   4.744
75557W        W41037  36.401  41.857   2.187
75558W        W41038   5.276  18.707   0.368
75559W        W41039   7.212  12.286   3.694
75560W        W41040  28.116  31.525   2.234
75561W        W41041  19.618  30.524  13.996
75562W        W41042  17.294   4.937  10.889
75563W        W41043  20.079   4.929   2.325
75564W        W41044  36.910  43.455  14.831
75565W        W41045  20.598  25.572  14.917
75566W        W41046   6.831  14.161   2.247
75567W        W41047   0.257  11.862  12.070
75568W        W41048  29.930  44.428   2.799
75569W        W41049  30.957  25.620  10.601
75570W        W41050  26.951   3.294   3.829
75571W        W41051   7.877  23.170  11.574
75572W        W41052  21.687  43.921  13.064
75573W        W41053   8.293  10.339   4.740
75574W        W41054  30.065  18.673  11.098
75575W        W41055  32.080  40.395  11.895
75576W        W41056  23.008  27.475   1.272
75577W        W41057  28.581  31.146   0.783
75578W        W41058  26.609  33.950   1.888
75579W        W41059  20.069  30.048  14.437
75580W        W41060  23.164  28.112  14.889
75581W        W41061  23.192  43.944  14.378
75582W        W41062  14.800  30.544  12.557
75583W        W41063  20.608  36.543  13.942
75584W        W41064  19.170   5.342   4.295
75585W        W41065  44.928   4.325   4.824
75586W        W41066  25.005  21.237   2.316
75587W        W41067  34.387  37.989   0.957
75588W        W41068  14.222  26.021   3.269
75589W        W41069  44.269  26.690  13.380
75590W        W41070   0.355  37.533  12.877
75591W        W41071   1.751  11.726   2.686
75592W        W41072  16.310   8.679   0.391
75593W        W41073  23.084  24.062   2.275
75594W        W41074  15.594  17.213  13.310
75595W        W41075  23.710  29.536  13.499
75596W        W41076  18.680  43.785   4.702
75597W        W41077  39.399   3.787   0.748
75598W        W41078  12.656   7.873  11.125
75599W        W41079  26.015   7.232  13.963
75600W        W41080  28.530  12.711   1.324
75601W        W41081  22.515  27.005  11.485
75602W        W41082   3.290  23.014  11.559
75603W        W41083  11.274  26.091  11.547
75604W        W41084  41.320  38.360   2.705
75605W        W41085   3.315  36.951   1.342
75606W        W41086  34.991  29.439   4.184
75607W        W41087   4.813  31.086   3.248
75608W        W41088  10.251   5.390   1.913
75609W        W41089  27.985  20.737  10.452
75610W        W41090  29.153  36.041  10.558
75611W        W41091   1.261  15.157  10.953
75612W        W41092  37.534  21.194   0.744
75613W        W41093  29.155  27.518  13.368
75614W        W41094  33.493  13.815  13.475
75615W        W41095  27.508  35.516   3.219
75616W        W41096  22.569  39.830  12.839
75617W        W41097   0.847  37.861   1.272
75618W        W41098   8.658  36.981   1.845
75619W        W41099  25.061  29.932  11.090
75620W        W41100   9.848   3.903  12.017
75621W        W41101  31.435  22.030  14.374
75622W        W41102  31.096   0.935  10.893
75623W        W41103   8.220  23.615   2.282
75624W        W41104  41.983   3.338   4.233
75625W        W41105  41.312  26.024  14.300
75626W        W41106   7.195   9.279  11.407
75627W        W41107  16.166   7.667   4.203
75628W        W41108  26.156  20.240  14.505
75629W        W41109  15.643  32.410  12.091
75630W        W41110  42.406   0.833   4.831
75631W        W41111  16.759  32.458   4.118
75632W        W41112  22.529  38.413   0.903
75633W        W41113  29.131  39.453  12.494
75634W        W41114  42.967  41.000  14.394
75635W        W41115   3.720  37.970   1.387
75636W        W41116  41.366  22.713   2.384
75637W        W41117   1.437   9.879   2.367
75638W        W41118  26.052  23.221   3.189
75639W        W41119  18.788   6.725   1.373
75640W        W41120  16.139  40.001  12.511
75641W        W41121  32.478   7.863  11.408
75642W        W41122   9.339  25.021  13.992
75643W        W41123  29.992  44.367  10.501
75644W        W41124  41.914  10.325   4.312
75645W        W41125  24.114   7.280   3.676
75646W        W41126  34.599  25.002   3.714
75647W        W41127  37.375  38.517  14.794
75648W        W41128  31.445  30.533   3.188
75649W        W41129   8.322   8.360   1.723
75650W        W41130  17.244  33.515  14.826
75651W        W41131   6.741  32.038  10.918
75652W        W41132  24.589  12.700   2.328
75653W        W41133  40.377  25.703   1.340
75654W        W41134   4.397  23.698  11.516
75655W        W41135  10.265  10.378  12.542
75656W        W41136  33.116  21.194   3.686
75657W        W41137   6.231   2.467  12.985
75658W        W41138  37.018  20.101   1.728
75659W        W41139  32.591  39.540  10.149
75660W        W41140  21.627  16.111  12.526
75661W        W41141  24.702  26.548   1.340
75662W        W41142   8.894  10.717   4.314
75663W        W41143   2.232  18.555   4.260
75664W        W41144   0.438   2.883   3.267
75665W        W41145  34.532  29.547   2.300
75666W        W41146  24.682  23.030   1.369
75667W        W41147   6.705  24.652   4.353
75668W        W41148  43.513  29.002  11.417
75669W        W41149  41.880  30.956   2.677
75670W        W41150  24.053   6.228  12.021
75671W        W41151  29.458  12.169   3.693
75672W        W41152  25.574  38.538  14.326
75673W        W41153  10.286   6.194  10.630
75674W        W41154   5.256   1.310   0.478
75675W        W41155  31.633  40.452  11.900
75676W        W41156   0.325  26.693  12.988
75677W        W41157  25.126  26.151  10.481
75678W        W41158   0.457  36.422  12.069
75679W        W41159  34.571   3.384  10.989
75680W        W41160   7.332  42.391   4.209
75681W        W41161   0.392  13.814   3.743
75682W        W41162  29.043  26.559   4.340
75683W        W41163  20.678  44.908  10.931
75684W        W41164   1.286   0.348  11.469
75685W        W41165  44.966  32.465   0.412
75686W        W41166  16.242   2.246   1.405
75687W        W41167  29.102   9.763   3.864
75688W        W41168  28.123  22.050   3.655
75689W        W41169  41.034   0.304   4.173
75690W        W41170  16.219   7.290  12.551
75691W        W41171  30.573  33.575  13.947
75692W        W41172  10.733  36.554   2.792
75693W        W41173   4.745  12.354   4.769
75694W        W41174  14.243  35.425  10.969
75695W        W41175  30.095  31.960   0.779
75696W        W41176  26.077  11.763   4.688
75697W        W41177  11.360  33.098  12.012
75698W        W41178  14.139  27.956   5.200
75699W        W41179  42.948  41.349  10.423
75700W        W41180   6.226  35.416  11.049
75701W        W41181  37.868   8.737   0.817
75702W        W41182  25.530   0.855   2.868
75703W        W41183  33.954  34.515  13.036
75704W        W41184  37.377   4.819   1.258
75705W        W41185  34.893  41.431   4.317
75706W        W41186  24.599  25.973  10.450
75707W        W41187  23.609   7.791  14.924
75708W        W41188  26.136  18.595  11.972
75709W        W41189  28.982  43.498   3.188
75710W        W41190  37.579  21.246   3.194
75711W        W41191  15.742   4.769   1.895
75712W        W41192  30.003   9.825  12.079
75713W        W41193  26.168  22.014  12.466
75714W        W41194  20.044   2.311  14.451
75715W        W41195  21.663   7.832  14.355
75716W        W41196  35.527  34.955   3.238
75717W        W41197  33.549   3.317  12.879
75718W        W41198  29.638  34.920  13.921
75719W        W41199  18.180  23.665  12.859
75720W        W41200  25.143  19.555  11.445
75721W        W41201  30.623  20.597   1.837
75722W        W41202  25.041  18.050   3.821
75723W        W41203  44.809  44.334  10.100
75724W        W41204  28.625  30.079  14.314
75725W        W41205  33.045  17.251   2.753
75726W        W41206  37.554  21.551   2.870
75727W        W41207   7.779  21.041  10.922
75728W        W41208  21.200  26.678   2.186
75729W        W41209  22.671   1.469  13.825
75730W        W41210  25.546  40.898  11.060
75731W        W41211  25.542  19.590  13.478
75732W        W41212  32.075  18.678  10.437
75733W        W41213  42.799  39.895   4.203
75734W        W41214  15.182  33.881  12.437
75735W        W41215  20.760   0.901   2.678
75736W        W41216  14.639   5.806   4.752
75737W        W41217   6.317  30.558   3.202
75738W        W41218  30.555  21.537   3.751
75739W        W41219  37.399  34.968  14.496
75740W        W41220  22.126  41.316   3.701
75741W        W41221  41.987   4.886  14.813
75742W        W41222  19.679  28.180   0.465
75743W        W41223  20.741  25.668   3.211
75744W        W41224  40.530  35.017   3.712
75745W        W41225  23.985   5.343  11.545
75746W        W41226  37.554  17.581  13.874
75747W        W41227  12.352   4.364  14.932
75748W        W41228  40.379  29.073  10.898
75749W        W41229  14.818  16.567  14.490
75750W        W41230   2.901  30.998   3.350
75751W        W41231  38.901   4.860  12.066
75752W        W41232   4.916  10.875   4.783
75753W        W41233  44.269  35.544   1.225
75754W        W41234  37.965  28.016   0.883
75755W        W41235  40.328  10.719   2.845
75756W        W41236  40.472  11.148   0.439
75757W        W41237  41.303  31.036  12.532
75758W        W41238  38.028  10.330   2.797
75759W        W41239  43.413  43.437   1.869
75760W        W41240  22.534  18.749   0.905
75761W        W41241  30.921  40.820  13.332
75762W        W41242  28.550  32.411  12.351
75763W        W41243  19.060  44.875  13.891
75764W        W41244   9.183  22.148   4.333
75765W        W41245  12.813  27.157   3.765
75766W        W41246  36.423  44.321   1.908
75767W        W41247  25.668   2.853  13.339
75768W        W41248   9.791  10.764  11.999
75769W        W41249  44.282  14.694  13.501
75770W        W41250  31.088  22.052   1.732
75771W        W41251   0.967   9.269   4.660
75772W        W41252   1.273  27.177   2.396
75773W        W41253  21.570  10.153   3.234
75774W        W41254   4.425  21.031   4.809
75775W        W41255  11.764  35.378   4.305
75776W        W41256  29.998  44.988  11.509
75777W        W41257  19.121  33.446   3.830
75778W        W41258  33.051   0.368  11.989
75779W        W41259  19.543  15.226   1.447
75780W        W41260  34.557  10.806  13.315
75781W        W41261   2.229  14.710  13.443
75782W        W41262  23.143  20.200  10.528
75783W        W41263  43.296   1.421  14.484
75784W        W41264  16.209  35.890  13.466
75785W        W41265  26.952  22.178   1.362
75786W        W41266  34.956  15.174   4.241
75787W        W41267  13.164  13.124   2.712
75788W        W41268   8.879  10.818   2.735
75789W        W41269  35.410  41.969   1.853
75790W        W41270  29.146  14.332  14.285
75791W        W41271  31.118   0.312   3.172
75792W        W41272   2.760  12.694   0.390
75793W        W41273  36.504  36.985  10.433
75794W        W41274  35.377  22.110  13.895
75795W        W41275   5.394  13.105  12.472
75796W        W41276  34.878   3.318   3.781
75797W        W41277   6.883   2.754   4.773
75798W        W41278  16.723   7.707  13.338
75799W        W41279  13.188  44.932   4.267
75800W        W41280   8.349  43.320   3.728
75801W        W41281  37.083  29.459   2.314
75802W        W41282   2.329  35.523   4.601
75803W        W41283   1.792  41.927   0.414
75804W        W41284  19.718  44.380  12.093
75805W        W41285  33.584  35.900  14.498
75806W        W41286  12.132   6.205  14.781
75807W        W41287  34.009  10.209   1.737
75808W        W41288  22.208  41.992   4.253
75809W        W41289  18.674  35.591   4.201
75810W        W41290  31.525  17.198  13.380
75811W        W41291  35.945  40.939  13.329
75812W        W41292  25.663  37.337  12.855
75813W        W41293  15.710  14.763   2.274
75814W        W41294  22.505  16.191   2.305
75815W        W41295  42.923   5.419   3.308
75816W        W41296  44.958  36.495   1.448
75817W        W41297  29.599  11.746   0.404
75818W        W41298  26.206  31.539   4.688
75819W        W41299  23.073  14.286  14.020
75820W        W41300   7.911   8.858  12.439
75821W        W41301  25.142   0.968  14.793
75822W        W41302  10.662  39.817  12.342
75823W        W41303  33.439   7.760  13.793
75824W        W41304  34.915  42.023   0.247
75825W        W41305   8.842  27.983  12.560
75826W        W41306  43.872   6.287  14.911
75827W        W41307   3.956  10.295  13.365
75828W        W41308  27.559   1.791   4.343
75829W        W41309  25.538  29.941   1.262
75830W        W41310  19.616  20.076   3.789
75831W        W41311  15.688  22.040  11.478
75832W        W41312   1.776  26.060  13.993
75833W        W41313  33.012  43.464   0.414
75834W        W41314  39.812  25.095   1.298
75835W        W41315  14.165  11.861   0.846
75836W        W41316  35.483  37.929   4.285
75837W        W41317  28.108  24.145   0.864
75838W        W41318   0.957  32.104   2.379
75839W        W41319  32.635   0.810  10.562
75840W        W41320  21.112   4.928  12.928
75841W        W41321  10.701  15.289  11.437
75842W        W41322   6.420  32.045  14.809
75843W        W41323  25.629  13.243   1.350
75844W        W41324  36.502  32.100   0.878
75845W        W41325  16.233  12.759  12.490
75846W        W41326  15.785  13.210   2.772
75847W        W41327  20.712   3.827  14.478
75848W        W41328  15.618  12.270   2.732
75849W        W41329  29.125  25.061   1.795
75850W        W41330  14.650  42.018  14.001
75851W        W41331  21.693  13.738  14.935
75852W        W41332  22.095  25.209  14.899
75853W        W41333  33.621   3.439   0.396
75854W        W41334  31.138  44.391   1.797
75855W        W41335  37.410  40.917   2.291
75856W        W41336  18.089  18.553   2.345
75857W        W41337   5.832  29.512   4.220
75858W        W41338   9.357  11.749   3.793
75859W        W41339   6.880   1.341   4.699
75860W        W41340  42.371   0.285  13.364
75861W        W41341  12.172  35.388   1.440
75862W        W41342  19.596   8.303   3.361
75863W        W41343  24.167   0.402  12.973
75864W        W41344  14.764   3.215   5.247
75865W        W41345  40.885  36.568   1.900
75866W        W41346   2.783  37.904   1.852
75867W        W41347  28.671   1.474  11.610
75868W        W41348   3.384   6.770   4.819
75869W        W41349  29.105  18.651  13.819
75870W        W41350   3.714  30.919  11.471
75871W        W41351  11.711  25.672  12.535
75872W        W41352  23.586  17.558   0.823
75873W        W41353  44.931  15.626   3.253
75874W        W41354  19.652   1.248   0.851
75875W        W41355  41.339  15.295   4.805
75876W        W41356  37.485  23.084   0.960
75877W        W41357   2.816   5.216   0.340
75878W        W41358  35.535  22.602   4.312
75879W        W41359  38.911  44.481   3.188
75880W        W41360  31.032  35.562  14.402
75881W        W41361  21.567  43.411  11.561
75882W        W41362  12.695  16.178   3.162
75883W        W41363  36.993   6.405   0.887
75884W        W41364  11.774  14.797  10.024
75885NA+    NA+41365   9.348  42.471  11.513
75886NA+    NA+41366   0.902  31.009   0.940
75887NA+    NA+41367  16.637  14.664   9.627
75888NA+    NA+41368  30.081  36.439   1.395
75889NA+    NA+41369  11.852  14.210   2.251
75890NA+    NA+41370  21.079  21.171  10.135
75891NA+    NA+41371  32.549   5.233   2.716
75892NA+    NA+41372   6.334  15.680   5.299
75893NA+    NA+41373  16.203  24.533   3.755
75894NA+    NA+41374  25.613  36.035   0.876
75895NA+    NA+41375   3.445  43.516  13.534
75896NA+    NA+41376   4.338  27.496   2.378
75897NA+    NA+41377  40.327  40.462   0.806
75898NA+    NA+41378  28.516  17.273  10.999
75899NA+    NA+41379   3.826  10.180  11.587
75900NA+    NA+41380  23.192   5.265  14.962
75901NA+    NA+41381  37.075  10.219  13.801
75902NA+    NA+41382  38.872  39.486  13.400
75903NA+    NA+41383  44.976  16.800  13.954
75904NA+    NA+41384  31.607  27.982   3.383
75905NA+    NA+41385   7.211  32.447  12.382
75906NA+    NA+41386   6.784  40.006  12.874
75907NA+    NA+41387   6.861  20.222  13.485
75908NA+    NA+41388  44.276  30.657  10.607
75909NA+    NA+41389  10.345  41.361  12.009
75910NA+    NA+41390  32.079  36.383  13.877
75911NA+    NA+41391  34.390   3.882  11.460
75912NA+    NA+41392  18.633  16.294   4.117
75913NA+    NA+41393  16.120   2.735  10.479
75914NA+    NA+41394   7.883  32.592   1.270
75915NA+    NA+41395  20.672   2.839   0.435
75916NA+    NA+41396   9.350  27.692  14.945
75917NA+    NA+41397   7.718   5.825  12.580
75918NA+    NA+41398  26.964  21.611  13.386
75919NA+    NA+41399  18.164  12.645   1.300
75920NA+    NA+41400  38.972  35.886   5.187
75921NA+    NA+41401  35.857  21.148  14.512
75922NA+    NA+41402  27.652  34.572  14.922
75923NA+    NA+41403  24.116  36.443  13.502
75924NA+    NA+41404  30.025   4.765  12.931
75925NA+    NA+41405   8.745  39.451  13.548
75926NA+    NA+41406  34.984   1.746   0.267
75927NA+    NA+41407   8.377  25.105  12.003
75928NA+    NA+41408  22.193  32.978   2.748
75929NA+    NA+41409  24.210  33.471   2.837
75930NA+    NA+41410  41.424  11.697  12.580
75931NA+    NA+41411  34.572  31.496  11.998
75932NA+    NA+41412  27.610  39.415  11.530
75933NA+    NA+41413   2.830  25.693  14.336
75934NA+    NA+41414  14.588   1.242  11.561
75935NA+    NA+41415  15.728  12.823   2.857
75936NA+    NA+41416  39.878  27.967  13.840
75937NA+    NA+41417  33.546  29.167  10.090
75938NA+    NA+41418   8.849  25.621   1.807
75939NA+    NA+41419  27.025   3.850   3.238
75940NA+    NA+41420  14.225   1.263   4.675
75941NA+    NA+41421  39.377  14.261  14.326
75942NA+    NA+41422  11.305  43.939   2.183
75943NA+    NA+41423  11.710   5.399   1.325
75944NA+    NA+41424  22.683   6.188   2.347
75945NA+    NA+41425   8.163  24.502  13.797
75946NA+    NA+41426  18.180   6.317   0.323
75947NA+    NA+41427  36.845  37.958  10.954
75948NA+    NA+41428  23.587  29.918   3.831
75949NA+    NA+41429  34.399  40.895   0.482
75950NA+    NA+41430  41.923  20.545   1.784
75951NA+    NA+41431   2.834  41.302  12.380
75952NA+    NA+41432  37.004   9.840   1.224
75953NA+    NA+41433  10.833  22.162  14.958
75954NA+    NA+41434  15.751   1.740   0.771
75955NA+    NA+41435  30.062  28.177  14.837
75956NA+    NA+41436  12.326   2.955  14.502
75957NA+    NA+41437  41.322   9.645  12.402
75958NA+    NA+41438  26.204  11.718  11.049
75959NA+    NA+41439  19.114  28.512   0.399
75960NA+    NA+41440  25.555  31.935   3.825
75961NA+    NA+41441   0.254  18.635  12.925
75962NA+    NA+41442  21.117  41.917   3.828
75963NA+    NA+41443  19.762  33.483   4.694
75964NA+    NA+41444  32.627  36.414  10.544
75965NA+    NA+41445  41.937   4.824   1.852
75966NA+    NA+41446  38.508  40.038   2.675
75967NA+    NA+41447   8.216  42.397   3.149
75968NA+    NA+41448   3.262  40.429   3.267
75969NA+    NA+41449  24.004   9.863   0.296
75970NA+    NA+41450  42.782  26.026  10.582
75971NA+    NA+41451  39.835  19.730   1.243
75972NA+    NA+41452  31.507  19.753  11.460
75973NA+    NA+41453  43.967  21.514   1.719
75974NA+    NA+41454  30.483  40.446  13.375
75975NA+    NA+41455  30.944  24.215  14.857
75976NA+    NA+41456   2.280  21.608   4.183
75977NA+    NA+41457  20.240  19.639   0.482
75978NA+    NA+41458   4.749   5.237  14.887
75979NA+    NA+41459  25.098  42.392  13.978
75980NA+    NA+41460  36.484   4.349  14.981
75981NA+    NA+41461  28.441   9.223  13.904
75982NA+    NA+41462  40.437   8.690   3.739
75983NA+    NA+41463  27.945   6.278   5.164
75984NA+    NA+41464  28.490   2.744   2.214
75985NA+    NA+41465  15.296  28.139  10.608
75986NA+    NA+41466  30.981  36.508  12.992
75987NA+    NA+41467  25.548  19.223  11.984
75988NA+    NA+41468  38.879   7.404  11.579
75989NA+    NA+41469  37.958  29.534   2.740
75990NA+    NA+41470  34.004   8.850   1.264
75991NA+    NA+41471  11.800  30.519  14.948
75992NA+    NA+41472  38.508  27.945  14.965
75993NA+    NA+41473  33.899  35.866   2.386
75994NA+    NA+41474   3.734  30.025   4.828
75995NA+    NA+41475  22.577  41.424  11.389
75996NA+    NA+41476  11.365  18.252  12.478
75997NA+    NA+41477  37.081   7.335  10.637
75998NA+    NA+41478   1.771  19.253   0.341
75999NA+    NA+41479  29.610  20.077   3.770
76000NA+    NA+41480  39.890  30.147   3.730
76001NA+    NA+41481  24.662  18.725   4.796
76002NA+    NA+41482  42.361  18.551  14.025
76003NA+    NA+41483  40.849  14.727   3.312
76004NA+    NA+41484   9.868  35.919   3.279
76005NA+    NA+41485  37.465  12.239   2.404
76006NA+    NA+41486  34.994  21.573   0.399
76007NA+    NA+41487   4.220   2.873  10.974
76008NA+    NA+41488  29.028  20.587   1.706
76009NA+    NA+41489  26.524  11.299   2.197
76010NA+    NA+41490  21.583  26.503   0.481
76011NA+    NA+41491  31.503  23.066  13.978
76012NA+    NA+41492  28.652   2.235   4.797
76013NA+    NA+41493  11.734  14.253  12.400
76014NA+    NA+41494  12.821  25.006   3.315
76015NA+    NA+41495  41.956   0.304   3.371
76016NA+    NA+41496  13.653  37.389   4.701
76017NA+    NA+41497  25.625   6.427   2.785
76018NA+    NA+41498  33.104  19.041   3.271
76019NA+    NA+41499  14.315  27.175   3.309
76020NA+    NA+41500   6.333   7.780  11.960
76021NA+    NA+41501   0.393  42.007  14.308
76022NA+    NA+41502  34.920  29.484  12.847
76023NA+    NA+41503  28.059   1.291  14.865
76024NA+    NA+41504  38.981   4.330  12.339
76025NA+    NA+41505   3.954  11.205  13.337
76026NA+    NA+41506   7.691  22.132  12.919
76027NA+    NA+41507   0.855  17.769  13.442
76028NA+    NA+41508  44.479  16.691  11.061
76029NA+    NA+41509  30.044  10.712  12.003
76030NA+    NA+41510  16.592  37.050   4.745
76031NA+    NA+41511   6.228   8.876   9.961
76032NA+    NA+41512   5.891   9.368  11.950
76033NA+    NA+41513  27.679  10.161   3.372
76034NA+    NA+41514  12.335   3.439   0.823
76035NA+    NA+41515   5.310  40.029   2.729
76036NA+    NA+41516  37.035  42.426   0.248
76037NA+    NA+41517   8.897  28.937   2.792
76038NA+    NA+41518  23.037  19.159  14.287
76039NA+    NA+41519  43.293  37.941   1.932
76040NA+    NA+41520  16.139  22.511  12.544
76041NA+    NA+41521  40.332  22.688   9.959
76042NA+    NA+41522   7.363  38.558  14.398
76043NA+    NA+41523   2.923  26.178  12.466
76044NA+    NA+41524  28.933  16.231   4.263
76045NA+    NA+41525   1.843  41.870  12.995
76046NA+    NA+41526  34.439  17.722   4.197
76047NA+    NA+41527  35.370  33.109   4.759
76048NA+    NA+41528  31.989  30.954  13.327
76049NA+    NA+41529   6.247   0.460  14.358
76050NA+    NA+41530   8.374  40.549  14.435
76051NA+    NA+41531   0.873  34.569  14.876
76052NA+    NA+41532  24.489  36.048   1.342
76053NA+    NA+41533  26.084  14.603   1.726
76054NA+    NA+41534  25.213  27.606  11.003
76055NA+    NA+41535  26.056  39.043  11.513
76056NA+    NA+41536   3.339   8.713  11.552
76057NA+    NA+41537  33.902  15.259  13.464
76058NA+    NA+41538  42.853  15.086   2.802
76059NA+    NA+41539   6.766   9.677  10.516
76060NA+    NA+41540  11.828  40.408   1.705
76061NA+    NA+41541  44.311   1.852  13.546
76062NA+    NA+41542  20.114  27.534  13.984
76063NA+    NA+41543  43.862   2.869  13.949
76064NA+    NA+41544   8.889   1.772   2.773
76065NA+    NA+41545   0.490  27.669  13.933
76066NA+    NA+41546  35.593  15.108   4.204
76067NA+    NA+41547   2.801  10.342  11.882
76068NA+    NA+41548  10.206   3.855  13.984
76069NA+    NA+41549  12.705  36.091  13.948
76070NA+    NA+41550  16.687   0.451  12.481
76071NA+    NA+41551  22.023  12.843   2.685
76072NA+    NA+41552  25.139   0.923   3.728
76073NA+    NA+41553  44.793  29.648  12.862
76074NA+    NA+41554  27.178  44.965   2.354
76075NA+    NA+41555  41.442   4.221   4.696
76076NA+    NA+41556  43.013  32.004  14.009
76077NA+    NA+41557  26.966  41.419  13.833
76078NA+    NA+41558  41.910  40.891  14.416
76079NA+    NA+41559  33.939  40.857   2.381
76080NA+    NA+41560   1.338  10.380  12.956
76081NA+    NA+41561  44.297  16.244   2.373
76082NA+    NA+41562  14.121  14.776  14.951
76083NA+    NA+41563   8.344  32.063   1.443
76084NA+    NA+41564  29.048  25.201  11.909
76085NA+    NA+41565  23.525   0.866   2.213
76086NA+    NA+41566  31.950  13.655   1.417
76087NA+    NA+41567  20.624  35.968  14.312
76088NA+    NA+41568  37.901  27.075  14.008
76089NA+    NA+41569  23.556  43.959  12.072
76090NA+    NA+41570  42.436  25.712   1.851
76091NA+    NA+41571  14.616  29.485   0.280
76092NA+    NA+41572  31.010  16.628  14.420
76093NA+    NA+41573   0.868  38.401  12.951
76094NA+    NA+41574  18.210  43.384  11.589
76095NA+    NA+41575  14.139  25.172   0.758
76096NA+    NA+41576  30.980  26.139  11.524
76097NA+    NA+41577  35.486   1.387   1.373
76098NA+    NA+41578  41.409  15.788   1.714
76099NA+    NA+41579  32.418  15.660  13.449
76100NA+    NA+41580  20.563  41.810  11.938
76101NA+    NA+41581  25.030  19.762   9.970
76102NA+    NA+41582   6.369   3.399   4.221
76103NA+    NA+41583  43.411  24.083   0.282
76104NA+    NA+41584  42.998  21.095   1.292
76105NA+    NA+41585  20.542  27.460  11.611
76106NA+    NA+41586  40.967  33.585  13.858
76107NA+    NA+41587   7.683  17.729   0.403
76108NA+    NA+41588  18.721   8.222   3.813
76109NA+    NA+41589  40.334  35.060   3.253
76110NA+    NA+41590  32.473   6.693  12.006
76111NA+    NA+41591   2.341  12.194  10.891
76112NA+    NA+41592  44.968   3.300   3.311
76113NA+    NA+41593  21.232  15.089   4.270
76114NA+    NA+41594  34.486   6.690   2.767
76115NA+    NA+41595  14.661  40.841   0.310
76116NA+    NA+41596  43.767   3.730  10.891
76117NA+    NA+41597   6.749  26.609  13.972
76118NA+    NA+41598  44.346  35.519   2.903
76119NA+    NA+41599  32.555  44.359  11.889
76120NA+    NA+41600  20.080  26.163  11.542
76121NA+    NA+41601  29.465  32.958   1.815
76122NA+    NA+41602  17.220  35.467   2.300
76123NA+    NA+41603  31.404   9.689   3.146
76124NA+    NA+41604   7.348  14.692  10.572
76125NA+    NA+41605  12.288  22.145   1.298
76126NA+    NA+41606  30.442  33.039  10.565
76127NA+    NA+41607   2.895  39.036  12.511
76128NA+    NA+41608   8.706  43.473   1.434
76129NA+    NA+41609  23.198  25.701   3.172
76130NA+    NA+41610  19.643  11.148  11.555
76131NA+    NA+41611   0.811  41.360  13.925
76132NA+    NA+41612   6.354   2.438  12.095
76133NA+    NA+41613  38.962  30.565   1.738
76134NA+    NA+41614   3.295  38.495   3.245
76135NA+    NA+41615   4.778  26.096  10.456
76136NA+    NA+41616  26.038   7.672  14.996
76137NA+    NA+41617  44.776  25.159   5.320
76138NA+    NA+41618  25.966  29.099   2.792
76139NA+    NA+41619  39.012  12.272  12.890
76140NA+    NA+41620  19.205   7.262  13.872
76141NA+    NA+41621  20.123  36.957  12.356
76142NA+    NA+41622  12.255  20.051   2.197
76143NA+    NA+41623  17.689  36.965  14.903
76144NA+    NA+41624   1.804   5.741   4.248
76145NA+    NA+41625  27.000  42.513  14.810
76146NA+    NA+41626  44.764  32.888   2.757
76147NA+    NA+41627   7.292   3.394   1.782
76148NA+    NA+41628  13.329  37.067   0.800
76149NA+    NA+41629   0.347  36.068  10.483
76150NA+    NA+41630   0.783  11.731  11.946
76151NA+    NA+41631  26.163  40.376   3.251
76152NA+    NA+41632   2.849  32.631  10.497
76153NA+    NA+41633  21.618  40.974   4.121
76154NA+    NA+41634  27.128  44.820  14.411
76155NA+    NA+41635  19.182  41.350   1.747
76156NA+    NA+41636   8.855  14.700   2.858
76157NA+    NA+41637  17.156   0.434   1.877
76158NA+    NA+41638  21.216  29.969   1.306
76159NA+    NA+41639   9.761   1.239   0.938
76160NA+    NA+41640  35.552  11.266  12.563
76161NA+    NA+41641  17.598  16.794  11.502
76162NA+    NA+41642  16.752   4.887   2.379
76163NA+    NA+41643  17.230   7.236   0.438
76164NA+    NA+41644   2.863  19.224  12.457
76165NA+    NA+41645   1.915   8.363   0.754
76166NA+    NA+41646  21.090   4.233  12.833
76167NA+    NA+41647  23.028  27.049   3.257
76168NA+    NA+41648  25.126   1.305   3.795
76169NA+    NA+41649  25.675  26.183  13.411
76170NA+    NA+41650   6.394  26.545  14.996
76171NA+    NA+41651  41.991  30.631   5.289
76172NA+    NA+41652   6.393  27.633   2.247
76173NA+    NA+41653  34.509  14.106   0.848
76174NA+    NA+41654   2.952  39.370   0.445
76175NA+    NA+41655  35.359  13.761  14.861
76176NA+    NA+41656  17.248  30.610  12.935
76177NA+    NA+41657  12.651   8.296   2.735
76178NA+    NA+41658  34.063  21.167   1.844
76179NA+    NA+41659  44.754  34.532   0.871
76180NA+    NA+41660  39.873  31.486  14.955
76181NA+    NA+41661  27.593  36.498   3.702
76182NA+    NA+41662  23.579   8.893  14.297
76183NA+    NA+41663   6.264   7.903  11.383
76184NA+    NA+41664  37.020  42.899  14.349
76185NA+    NA+41665  16.781  38.409  13.417
76186NA+    NA+41666  38.559  40.913   2.883
76187NA+    NA+41667   9.866   2.766  12.057
76188NA+    NA+41668   0.281  20.614  14.883
76189NA+    NA+41669  40.909  25.016  12.459
76190NA+    NA+41670  38.945  15.325  14.858
76191NA+    NA+41671  17.078  37.874   1.780
76192NA+    NA+41672   6.856  38.340   3.159
76193NA+    NA+41673  36.486  27.633   4.708
76194NA+    NA+41674  12.724   9.668  11.892
76195NA+    NA+41675   5.767  44.385  11.472
76196NA+    NA+41676  41.974  23.543  14.836
76197NA+    NA+41677  21.640  31.049  11.077
76198NA+    NA+41678  19.609  30.063   0.334
76199NA+    NA+41679  21.205  24.038  14.456
76200NA+    NA+41680   2.471  15.251  12.420
76201NA+    NA+41681  10.291   5.335   0.859
76202NA+    NA+41682  44.434  42.794   4.290
76203NA+    NA+41683  25.990  16.181   0.871
76204NA+    NA+41684  29.016  20.047  12.430
76205NA+    NA+41685  42.966  40.382   0.473
76206NA+    NA+41686   2.385   5.710   1.383
76207NA+    NA+41687  13.750  13.179   0.328
76208NA+    NA+41688  36.975   7.826  13.526
76209NA+    NA+41689   7.775   1.913  10.538
76210NA+    NA+41690   3.794  38.861   9.960
76211NA+    NA+41691  25.711  43.426   2.741
76212NA+    NA+41692  21.513  39.011   2.802
76213NA+    NA+41693  32.933  39.884   4.298
76214NA+    NA+41694  29.055  15.178  10.607
76215NA+    NA+41695  27.670   3.436   1.814
76216NA+    NA+41696   5.196  24.646  11.888
76217NA+    NA+41697  28.596   4.313  12.552
76218NA+    NA+41698  18.290  37.911  14.969
76219NA+    NA+41699  28.986  18.663  13.468
76220NA+    NA+41700  33.386   5.887   0.307
76221NA+    NA+41701  12.655  19.075   1.260
76222NA+    NA+41702  20.210   8.768   1.821
76223NA+    NA+41703  23.590  16.752   1.321
76224NA+    NA+41704  28.585  17.080  12.511
76225NA+    NA+41705   8.810  25.602  12.457
76226NA+    NA+41706  20.677  42.779   4.207
76227NA+    NA+41707   3.287  30.136  12.446
76228NA+    NA+41708  25.071  30.418   2.315
76229NA+    NA+41709  42.974  34.539  12.044
76230NA+    NA+41710  40.402   3.824   3.341
76231NA+    NA+41711   2.834  33.397  13.968
76232NA+    NA+41712  17.675  14.610   5.124
76233NA+    NA+41713   2.914  40.467   2.797
76234NA+    NA+41714  30.132  10.343   4.194
76235NA+    NA+41715  11.858  16.142  11.539
76236NA+    NA+41716   4.243   3.220  11.894
76237NA+    NA+41717  15.157  14.746   0.923
76238NA+    NA+41718  23.715  12.210  14.411
76239NA+    NA+41719   0.467  40.407  10.443
76240NA+    NA+41720  38.414  19.246  12.381
76241NA+    NA+41721  10.844  26.568  14.967
76242NA+    NA+41722  25.044  44.342  11.515
76243NA+    NA+41723  14.101   8.773   0.853
76244NA+    NA+41724   9.217  35.579  14.446
76245NA+    NA+41725  23.099  19.105   3.834
76246NA+    NA+41726   3.436  24.573  13.935
76247NA+    NA+41727  16.133  13.638  12.929
76248NA+    NA+41728  32.453   0.779   9.970
76249NA+    NA+41729  10.691   8.763   3.866
76250NA+    NA+41730  11.243  29.926  10.597
76251NA+    NA+41731   1.350   0.331  12.833
76252NA+    NA+41732  40.869  22.695  14.314
76253NA+    NA+41733   7.345  19.538  10.584
76254NA+    NA+41734  24.225  36.448   0.267
76255NA+    NA+41735  28.084  21.050   1.275
76256NA+    NA+41736  31.040  40.856  14.362
76257NA+    NA+41737  12.164  14.179   5.217
76258NA+    NA+41738  20.640  39.848   0.730
76259NA+    NA+41739  12.220  38.561  14.962
76260NA+    NA+41740   8.853  22.230  13.022
76261NA+    NA+41741   7.672  41.798   1.719
76262NA+    NA+41742   4.903  40.040   2.723
76263NA+    NA+41743  26.670   1.897  14.001
76264NA+    NA+41744  11.781  13.147   3.765
76265NA+    NA+41745  29.490  30.506  12.071
76266NA+    NA+41746  25.136  33.501   2.214
76267NA+    NA+41747  14.143  10.320   2.857
76268NA+    NA+41748  10.696  43.976   3.715
76269NA+    NA+41749   4.729  38.360   3.778
76270NA+    NA+41750  13.776   3.253  11.972
76271NA+    NA+41751  23.092  40.343   1.887
76272NA+    NA+41752  33.495  40.322  11.067
76273NA+    NA+41753  41.509  10.323   5.154
76274NA+    NA+41754  41.373  35.497   1.226
76275NA+    NA+41755  34.927  22.520  12.948
76276NA+    NA+41756  25.125  23.999  14.321
76277NA+    NA+41757  35.488  34.931  12.463
76278NA+    NA+41758  12.166  28.097  14.329
76279NA+    NA+41759  15.725   5.843  12.052
76280NA+    NA+41760   0.909   7.898   0.371
76281NA+    NA+41761  32.042  33.965  10.932
76282NA+    NA+41762  34.532  23.508   2.766
76283NA+    NA+41763   7.234  19.043   2.888
76284NA+    NA+41764  17.125  19.599  14.801
76285NA+    NA+41765  14.330   6.299   0.864
76286NA+    NA+41766  17.209  37.522   0.733
76287NA+    NA+41767   2.853  26.994   1.386
76288NA+    NA+41768   7.849  28.175   4.137
76289NA+    NA+41769  11.229  38.042  14.928
76290NA+    NA+41770  36.574  11.324  12.418
76291NA+    NA+41771  42.016  37.920   2.365
76292NA+    NA+41772  38.046  40.493  12.887
76293NA+    NA+41773   1.482   8.834   0.423
76294NA+    NA+41774  41.904  26.658   1.837
76295NA+    NA+41775  28.966  11.235  13.397
76296NA+    NA+41776  21.097  16.673   2.665
76297NA+    NA+41777   1.733  23.078   3.849
76298NA+    NA+41778  42.351  43.313   2.819
76299NA+    NA+41779  21.614  30.987   0.827
76300NA+    NA+41780  15.131  30.650  10.502
76301NA+    NA+41781  30.056   5.195   0.840
76302NA+    NA+41782  42.970   9.233  10.632
76303NA+    NA+41783  17.769  10.141  11.933
76304NA+    NA+41784  27.138  44.492  13.985
76305NA+    NA+41785  37.554  11.339  12.391
76306NA+    NA+41786  31.421  25.987  10.932
76307NA+    NA+41787  16.193  41.430  10.536
76308NA+    NA+41788   7.775  35.908   4.735
76309NA+    NA+41789  43.992  33.486  13.484
76310NA+    NA+41790  13.680  24.002   3.326
76311NA+    NA+41791  33.494  22.070   3.659
76312NA+    NA+41792  35.500  36.016   0.380
76313NA+    NA+41793  32.004  14.296   1.405
76314NA+    NA+41794   4.405  19.550  12.828
76315NA+    NA+41795   4.315  36.098  11.969
76316NA+    NA+41796  37.067   4.905   2.886
76317NA+    NA+41797  18.589  28.108   4.239
76318NA+    NA+41798   5.430   6.313   1.733
76319NA+    NA+41799   6.758  10.273   0.460
76320NA+    NA+41800  19.235  39.357  10.470
76321NA+    NA+41801  28.643  28.633  13.383
76322NA+    NA+41802  44.477   2.847   4.144
76323NA+    NA+41803   7.719   9.165   0.890
76324NA+    NA+41804  32.021  31.040   2.876
76325NA+    NA+41805   2.880  40.798   3.318
76326NA+    NA+41806  43.877  10.276  12.046
76327NA+    NA+41807  20.692  17.267   3.341
76328NA+    NA+41808   8.818  28.079   4.680
76329NA+    NA+41809  26.969  16.713   0.744
76330NA+    NA+41810  14.202  43.449   3.180
76331NA+    NA+41811  26.655  35.968  10.501
76332NA+    NA+41812  11.143  25.664   2.872
76333NA+    NA+41813  39.466  39.376   0.400
76334NA+    NA+41814   1.401  16.091   1.221
76335NA+    NA+41815  36.494  27.659  10.551
76336NA+    NA+41816  31.934   6.408   4.776
76337NA+    NA+41817  20.250  35.892  14.022
76338NA+    NA+41818  15.591   4.418   1.746
76339NA+    NA+41819  35.906   9.356  10.556
76340NA+    NA+41820  18.627   8.223   2.893
76341NA+    NA+41821  19.534  15.304  14.505
76342NA+    NA+41822  15.308  35.974  10.575
76343NA+    NA+41823   7.344  24.999  10.972
76344NA+    NA+41824  31.509  30.657   1.420
76345NA+    NA+41825  32.917   9.171  11.593
76346NA+    NA+41826  12.318  34.024  14.475
76347NA+    NA+41827  27.661   8.746   0.294
76348NA+    NA+41828  40.515  26.480   2.836
76349NA+    NA+41829  11.686  36.453  12.880
76350NA+    NA+41830  42.944  29.537   0.741
76351NA+    NA+41831  16.229  21.085  11.489
76352NA+    NA+41832   5.228  30.425  11.036
76353NA+    NA+41833  37.030  19.131   2.332
76354NA+    NA+41834  21.083  10.671   4.146
76355NA+    NA+41835   9.241  34.118   0.956
76356NA+    NA+41836  27.065  25.060   0.437
76357NA+    NA+41837  37.057   1.336   4.234
76358NA+    NA+41838  22.639  11.706   2.816
76359NA+    NA+41839  12.259  33.569  11.592
76360NA+    NA+41840  25.984  20.172  10.509
76361NA+    NA+41841   2.274  14.795   4.325
76362NA+    NA+41842  17.771  42.853  10.407
76363NA+    NA+41843  18.090  32.458  14.853
76364NA+    NA+41844   1.418  26.648  14.438
76365NA+    NA+41845  23.044  24.164   3.384
76366NA+    NA+41846  20.059  32.135  14.459
76367NA+    NA+41847  24.683   3.952   0.911
76368NA+    NA+41848  27.110   2.397   4.769
76369NA+    NA+41849  15.660  12.263  11.856
76370NA+    NA+41850  34.485  34.474   0.439
76371NA+    NA+41851  20.716  12.185  13.461
76372NA+    NA+41852   9.883  23.215  11.867
76373NA+    NA+41853   9.163  35.492  14.849
76374NA+    NA+41854  11.656   8.673   4.650
76375NA+    NA+41855  18.257  32.470  11.544
76376NA+    NA+41856  42.985  32.902   1.254
76377NA+    NA+41857  15.309  33.961  11.440
76378NA+    NA+41858  17.196   6.713   1.333
76379NA+    NA+41859  42.368  33.089  13.835
76380NA+    NA+41860  43.019  24.659  12.547
76381NA+    NA+41861   8.748  25.547  12.851
76382NA+    NA+41862  33.043  12.159  12.994
76383NA+    NA+41863  28.533  10.732  14.448
76384NA+    NA+41864  30.078  15.582  10.498
76385NA+    NA+41865  13.213   1.474   3.812
76386NA+    NA+41866  13.165  39.451   4.820
76387NA+    NA+41867  12.764  34.483   2.221
76388NA+    NA+41868  32.541  26.038  10.617
76389NA+    NA+41869   0.763  40.928  11.858
76390NA+    NA+41870   6.253  42.824  10.557
76391NA+    NA+41871   1.238  22.570  10.472
76392NA+    NA+41872  24.608  29.932   3.207
76393NA+    NA+41873  22.053  31.105   3.650
76394NA+    NA+41874  13.703   0.822  11.049
76395NA+    NA+41875  22.106  41.877  11.985
76396NA+    NA+41876  44.838  37.035  12.523
76397NA+    NA+41877  24.686  14.668   4.311
76398NA+    NA+41878   9.203  17.172  11.941
76399NA+    NA+41879   6.401  11.191  10.609
76400NA+    NA+41880  38.967  34.395  12.356
76401NA+    NA+41881  25.154  20.534  10.622
76402NA+    NA+41882   6.840  15.302  11.412
76403NA+    NA+41883  11.698   6.832  12.424
76404NA+    NA+41884  30.523  42.298   5.700
76405NA+    NA+41885   3.214   6.348   0.457
76406NA+    NA+41886   2.911  41.913  12.976
76407NA+    NA+41887   7.681  12.639  14.770
76408NA+    NA+41888  42.997  10.170   2.412
76409NA+    NA+41889  10.178  10.833  13.823
76410NA+    NA+41890  11.327  20.665   3.770
76411NA+    NA+41891   9.825  37.346  10.483
76412NA+    NA+41892  32.548   4.923  14.878
76413NA+    NA+41893   0.895   5.299   3.197
76414NA+    NA+41894  17.615  14.225  11.462
76415NA+    NA+41895  42.888   4.811   3.808
76416NA+    NA+41896  34.516   2.952   0.745
76417NA+    NA+41897  25.049  11.675  14.403
76418NA+    NA+41898  22.115   8.355   1.850
76419NA+    NA+41899   8.263  37.880   2.284
76420NA+    NA+41900  41.463   1.472  10.955
76421NA+    NA+41901  19.098  24.493   4.264
76422NA+    NA+41902  13.346  23.111   2.676
76423NA+    NA+41903  44.926  37.848  14.021
76424NA+    NA+41904   6.280   0.816   0.347
76425NA+    NA+41905   9.710  31.601   0.851
76426NA+    NA+41906  41.997  19.660   2.300
76427NA+    NA+41907  23.142  19.103   1.817
76428NA+    NA+41908  26.168  30.072  12.078
76429NA+    NA+41909  26.986  10.875  14.429
76430NA+    NA+41910  40.947  23.131  13.377
76431NA+    NA+41911  26.686  35.381   1.746
76432NA+    NA+41912  11.648   6.900   0.965
76433NA+    NA+41913  27.600  10.238  10.417
76434NA+    NA+41914   1.873   6.427  13.535
76435NA+    NA+41915  22.632   3.433  12.868
76436NA+    NA+41916  18.729  32.114   2.272
76437NA+    NA+41917  22.705  30.154  11.510
76438NA+    NA+41918  41.527  39.442  11.004
76439NA+    NA+41919  33.960   5.859  11.565
76440NA+    NA+41920  28.481  25.137   2.392
76441NA+    NA+41921   7.802  36.461  13.820
76442NA+    NA+41922  36.445  26.071   2.670
76443NA+    NA+41923  24.700  42.855   1.883
76444NA+    NA+41924   8.723  25.569   2.773
76445NA+    NA+41925   2.278  44.007  12.028
76446NA+    NA+41926  43.819  27.459  12.048
76447NA+    NA+41927   3.392  35.035   2.256
76448NA+    NA+41928   9.193  20.561   2.743
76449NA+    NA+41929   5.848   2.724   1.782
76450NA+    NA+41930  19.643  19.611   0.439
76451NA+    NA+41931  27.981  19.160   1.737
76452NA+    NA+41932  13.183  24.150  13.962
76453NA+    NA+41933  23.572  16.210   0.819
76454NA+    NA+41934  27.457  35.390   0.391
76455NA+    NA+41935  10.693  30.470  11.123
76456NA+    NA+41936  33.587  25.117  14.496
76457NA+    NA+41937  32.918   6.248   1.924
76458NA+    NA+41938  28.634  31.500  12.347
76459NA+    NA+41939   3.906  32.564   1.258
76460NA+    NA+41940   8.304  21.086   3.854
76461NA+    NA+41941   6.708  13.604  14.945
76462NA+    NA+41942  21.017   8.871   3.651
76463NA+    NA+41943  23.212  34.934  14.296
76464NA+    NA+41944   0.447  22.139   1.763
76465NA+    NA+41945   4.834  17.743  11.076
76466NA+    NA+41946  33.036  23.182   4.242
76467NA+    NA+41947  43.852   8.854  11.864
76468NA+    NA+41948  38.543  42.812   3.340
76469NA+    NA+41949  36.900   3.426   1.435
76470NA+    NA+41950  21.135  37.898  11.393
76471NA+    NA+41951   4.324  29.175  10.411
76472NA+    NA+41952  17.280  30.051   4.306
76473NA+    NA+41953  44.864  17.563  14.775
76474NA+    NA+41954  22.246  37.080  11.608
76475NA+    NA+41955   5.843  28.616  12.953
76476NA+    NA+41956  34.880   9.887  12.998
76477NA+    NA+41957  22.020   6.689   1.432
76478NA+    NA+41958  19.219  12.783   2.342
76479NA+    NA+41959   9.823  43.790  14.363
76480NA+    NA+41960   9.390   7.675   4.758
76481NA+    NA+41961  33.059   4.230  11.518
76482NA+    NA+41962   4.206  15.213  14.491
76483NA+    NA+41963  11.746  44.424  10.612
76484NA+    NA+41964  41.536   0.305   1.908
76485NA+    NA+41965   5.750  21.746  11.474
76486NA+    NA+41966  42.369  21.200   3.188
76487NA+    NA+41967  17.165  24.582   4.306
76488NA+    NA+41968  39.850  33.936  14.929
76489NA+    NA+41969  14.719  27.971  11.917
76490NA+    NA+41970  24.142  27.059   3.161
76491NA+    NA+41971  39.051  22.027   1.825
76492NA+    NA+41972  40.526  43.879   3.819
76493NA+    NA+41973  27.998  22.516  14.961
76494NA+    NA+41974  18.247  18.172   1.888
76495NA+    NA+41975  40.954  33.411   1.353
76496NA+    NA+41976  33.611   5.223  13.534
76497NA+    NA+41977  37.048   0.796   0.924
76498NA+    NA+41978  34.910  42.915  10.594
76499NA+    NA+41979  15.626  16.257  13.846
76500NA+    NA+41980  13.670   1.780  12.470
76501NA+    NA+41981  26.165  29.047   1.393
76502NA+    NA+41982  19.620  36.854  13.319
76503NA+    NA+41983  10.166   1.847   1.268
76504NA+    NA+41984  14.125  35.067  13.330
76505NA+    NA+41985  41.511  23.118  10.424
76506NA+    NA+41986  30.144   2.335  14.855
76507NA+    NA+41987   3.350  40.047   0.301
76508NA+    NA+41988  31.062   5.240   3.299
76509NA+    NA+41989  26.966   3.791  13.434
76510NA+    NA+41990  21.656   4.892  10.135
76511NA+    NA+41991  10.328  39.059   1.890
76512NA+    NA+41992  17.118  10.166   3.792
76513NA+    NA+41993  24.105  43.908  12.490
76514NA+    NA+41994   4.903  38.957   3.800
76515NA+    NA+41995  37.998  15.205   3.744
76516NA+    NA+41996  30.642  32.531   2.816
76517NA+    NA+41997  23.189  24.567   0.965
76518NA+    NA+41998  10.718  39.841   1.404
76519NA+    NA+41999  21.053  31.962  14.346
76520NA+    NA+42000  22.720  43.299  13.841
76521NA+    NA+42001   3.874  18.109  11.561
76522NA+    NA+42002  10.724  23.518   4.635
76523NA+    NA+42003  20.114  31.981  12.025
76524NA+    NA+42004   2.255  29.664   1.391
76525NA+    NA+42005  26.205  23.148  11.104
76526NA+    NA+42006  25.681  44.774   9.955
76527NA+    NA+42007   6.885   3.320  12.548
76528NA+    NA+42008  33.574  25.973   0.438
76529NA+    NA+42009  25.998   0.290   9.934
76530NA+    NA+42010  43.853  22.721   3.766
76531NA+    NA+42011  28.997  26.060  10.582
76532NA+    NA+42012  32.900  42.862  11.424
76533NA+    NA+42013  40.524   0.958  12.991
76534NA+    NA+42014  20.574  13.713   4.241
76535NA+    NA+42015  20.199   3.808   0.795
76536NA+    NA+42016  27.547  32.931  11.479
76537NA+    NA+42017  35.602   2.460   1.874
76538NA+    NA+42018  36.348  42.320   4.746
76539NA+    NA+42019  25.991  14.299   4.734
76540NA+    NA+42020  24.652  37.502  12.492
76541NA+    NA+42021  44.830  42.888  11.064
76542NA+    NA+42022  35.495  35.437  11.021
76543NA+    NA+42023   2.423   9.812   4.160
76544NA+    NA+42024  19.595  13.723  14.003
76545NA+    NA+42025   8.839  30.522   2.280
76546NA+    NA+42026  32.991  13.342   2.741
76547NA+    NA+42027  36.036  41.472  14.877
76548NA+    NA+42028  29.463  15.799   3.687
76549NA+    NA+42029  39.974  38.917  10.589
76550NA+    NA+42030  44.317  26.573  14.011
76551NA+    NA+42031  36.002   6.830   2.274
76552NA+    NA+42032   1.445  21.639   0.753
76553NA+    NA+42033  10.867  34.456   1.411
76554NA+    NA+42034   3.734  44.976   2.701
76555NA+    NA+42035   7.820  29.950  11.105
76556NA+    NA+42036  15.120  17.243   0.331
76557NA+    NA+42037  18.614  43.910   3.225
76558NA+    NA+42038  37.000  37.514   4.779
76559NA+    NA+42039  25.068  24.043  14.826
76560NA+    NA+42040   4.391  16.272   0.425
76561NA+    NA+42041  18.172  37.839  10.467
76562NA+    NA+42042  43.317  20.141  14.001
76563NA+    NA+42043  42.468  12.660  13.493
76564NA+    NA+42044  27.069  11.680   3.210
76565NA+    NA+42045   8.730  34.520   1.403
76566NA+    NA+42046   1.743  27.489  11.948
76567NA+    NA+42047  35.076  38.515   1.736
76568NA+    NA+42048   0.277  34.931   2.886
76569NA+    NA+42049  10.666  10.180   2.685
76570NA+    NA+42050   9.824  16.790   0.423
76571NA+    NA+42051  16.582  33.119  13.517
76572NA+    NA+42052  18.687  38.979   4.792
76573NA+    NA+42053  14.769   5.794  10.423
76574NA+    NA+42054  38.934   5.824  13.870
76575NA+    NA+42055  32.970  44.984  14.477
76576NA+    NA+42056  34.044  41.445   1.917
76577NA+    NA+42057  15.311  12.216   1.823
76578NA+    NA+42058   8.347  29.500  14.282
76579NA+    NA+42059  33.619  38.517   2.196
76580NA+    NA+42060  36.509  40.375   4.632
76581NA+    NA+42061  41.890  23.662   3.843
76582NA+    NA+42062   7.231   2.809   4.236
76583NA+    NA+42063  25.009  30.565  13.009
76584NA+    NA+42064   5.394   1.791  14.855
76585NA+    NA+42065  37.002  21.689   4.805
76586NA+    NA+42066  42.814   0.448   2.244
76587NA+    NA+42067  11.334  21.571   1.744
76588NA+    NA+42068   7.308  35.875  11.378
76589NA+    NA+42069   7.193  11.809  14.293
76590NA+    NA+42070  39.360  26.094   0.962
76591NA+    NA+42071  42.525  10.653  14.507
76592NA+    NA+42072  35.084  40.367   4.173
76593NA+    NA+42073  31.141  27.964   1.841
76594NA+    NA+42074   5.335  22.072  13.961
76595NA+    NA+42075  35.929  22.682  11.112
76596NA+    NA+42076  25.974  30.909  14.299
76597NA+    NA+42077   6.417  42.023   3.158
76598NA+    NA+42078  27.622  25.050  10.517
76599NA+    NA+42079  26.494   3.248  14.950
76600NA+    NA+42080  24.026   0.447   1.351
76601NA+    NA+42081  14.642  27.644   2.879
76602NA+    NA+42082  17.727   3.711   3.859
76603NA+    NA+42083  32.071  23.493  12.378
76604NA+    NA+42084  33.041  38.978   1.796
76605NA+    NA+42085  31.969  30.587  11.595
76606NA+    NA+42086  22.196  23.707   4.115
76607NA+    NA+42087  23.186  16.181   1.928
76608NA+    NA+42088   4.803   2.458   1.917
76609NA+    NA+42089   5.250  28.993  12.556
76610NA+    NA+42090  13.196  21.531   1.428
76611NA+    NA+42091  11.294  37.347   5.104
76612NA+    NA+42092   9.714  13.833  13.876
76613NA+    NA+42093  10.361  41.523  13.363
76614NA+    NA+42094  41.028  23.491   0.303
76615NA+    NA+42095  40.394  43.860   2.354
76616NA+    NA+42096  14.316  32.523   3.722
76617NA+    NA+42097  30.153  16.307  14.422
76618NA+    NA+42098  13.163  12.346   2.290
76619NA+    NA+42099  24.604  11.811   2.876
76620NA+    NA+42100   2.301  42.839   0.738
76621NA+    NA+42101  10.177  19.215   4.169
76622NA+    NA+42102   9.672  28.673   2.888
76623NA+    NA+42103  29.130  10.693   1.869
76624NA+    NA+42104  44.456  28.020   3.818
76625NA+    NA+42105  19.631  41.827  13.348
76626NA+    NA+42106  33.548  38.325  13.914
76627NA+    NA+42107  20.701  36.967   3.632
76628NA+    NA+42108  17.570  38.869  13.539
76629NA+    NA+42109  28.943  12.616   4.720
76630NA+    NA+42110  39.386  20.232  14.978
76631NA+    NA+42111  20.046   4.406   3.379
76632NA+    NA+42112  39.408  28.125  13.353
76633NA+    NA+42113  13.267  31.000   4.180
76634NA+    NA+42114   8.287  24.045  13.809
76635NA+    NA+42115   3.873   9.702   2.834
76636NA+    NA+42116  41.381  26.470   0.483
76637NA+    NA+42117  29.099  31.921   4.114
76638NA+    NA+42118  20.567   0.488   2.895
76639NA+    NA+42119   8.270  20.135   1.906
76640NA+    NA+42120  12.249  22.718  12.525
76641NA+    NA+42121  19.276  17.718   4.134
76642NA+    NA+42122  10.686  12.199   2.415
76643NA+    NA+42123  20.158  44.973  11.081
76644NA+    NA+42124  38.483  14.109  11.424
76645NA+    NA+42125  27.491  28.450  11.436
76646NA+    NA+42126  19.712  30.599   1.279
76647NA+    NA+42127   2.949  20.063   3.252
76648NA+    NA+42128  13.120   2.934  13.911
76649NA+    NA+42129  22.616  29.155  10.141
76650NA+    NA+42130  44.264  38.946   4.293
76651NA+    NA+42131  39.366  29.667   4.298
76652NA+    NA+42132  13.326   2.413   1.295
76653NA+    NA+42133  23.697   4.208   0.936
76654NA+    NA+42134  41.324  24.011  11.988
76655NA+    NA+42135  17.213  29.503   3.324
76656NA+    NA+42136  43.474   1.332  14.974
76657NA+    NA+42137  24.584  25.113  11.405
76658NA+    NA+42138   7.255  42.816  11.930
76659NA+    NA+42139  15.614  40.305   3.318
76660NA+    NA+42140  20.226  12.264   2.360
76661NA+    NA+42141  34.911  30.490   3.252
76662NA+    NA+42142   7.691  12.814  12.056
76663NA+    NA+42143  17.585   9.732  11.557
76664NA+    NA+42144   7.171  33.611   4.794
76665NA+    NA+42145  38.974   1.456   0.367
76666NA+    NA+42146   9.385   5.721  11.884
76667NA+    NA+42147  39.398   1.913   4.219
76668NA+    NA+42148  25.096  37.037  14.507
76669NA+    NA+42149  18.779   3.226  10.956
76670NA+    NA+42150  32.958  15.298   2.325
76671NA+    NA+42151  24.489  30.620  14.452
76672NA+    NA+42152   6.349  40.957   2.306
76673NA+    NA+42153  35.911  34.023  11.471
76674NA+    NA+42154  17.098  23.528   3.365
76675NA+    NA+42155  16.292  43.848  12.947
76676NA+    NA+42156  32.604  25.979  11.951
76677NA+    NA+42157  24.177  41.368  14.991
76678NA+    NA+42158  24.998  28.451  11.063
76679NA+    NA+42159  21.525   1.471  14.297
76680NA+    NA+42160  28.104  18.615   1.757
76681NA+    NA+42161  22.157  37.954  13.792
76682NA+    NA+42162  15.816  33.002   0.895
76683NA+    NA+42163  16.639   7.336   3.754
76684NA+    NA+42164  41.820   9.774   2.723
76685NA+    NA+42165  29.581  29.145  12.942
76686NA+    NA+42166  35.587  23.160   3.201
76687NA+    NA+42167  17.228  15.254   0.956
76688NA+    NA+42168  38.524  44.858  10.918
76689NA+    NA+42169  19.138  16.619  11.448
76690NA+    NA+42170  37.508  28.534  14.281
76691NA+    NA+42171  32.475  37.525   3.199
76692NA+    NA+42172   8.720  36.347  13.496
76693NA+    NA+42173   1.482  29.144   2.662
76694NA+    NA+42174  22.564  28.450  10.952
76695NA+    NA+42175  21.142  28.475  12.848
76696NA+    NA+42176  39.985  16.572  10.504
76697NA+    NA+42177  24.048  21.670  12.537
76698NA+    NA+42178  17.671  42.318   3.746
76699NA+    NA+42179  20.206  24.691   3.292
76700NA+    NA+42180   6.381  20.131   1.313
76701NA+    NA+42181  10.755  26.168   3.215
76702NA+    NA+42182  32.493  11.264   3.867
76703NA+    NA+42183  23.534  18.070   4.622
76704NA+    NA+42184  14.267  32.899  13.967
76705NA+    NA+42185  24.696  42.806  14.406
76706NA+    NA+42186  27.068  27.191   0.769
76707NA+    NA+42187  27.630   3.885  14.845
76708NA+    NA+42188  34.445   8.721   0.253
76709NA+    NA+42189  29.041  28.170   2.233
76710NA+    NA+42190  39.522  43.888   1.237
76711NA+    NA+42191  16.088  34.007  10.924
76712NA+    NA+42192   0.404  36.517   4.659
76713NA+    NA+42193  11.762  13.249   1.753
76714NA+    NA+42194  38.977  28.064   2.287
76715NA+    NA+42195  44.311   5.894  14.991
76716NA+    NA+42196  39.891   4.420   4.756
76717NA+    NA+42197  43.475  44.469   1.738
76718NA+    NA+42198  32.122  12.752   2.753
76719NA+    NA+42199   1.887  33.595   1.267
76720NA+    NA+42200  25.135  20.073  13.445
76721NA+    NA+42201  21.061  32.490  11.058
76722NA+    NA+42202  43.895   9.327  11.552
76723NA+    NA+42203  11.324  35.014  14.463
76724NA+    NA+42204  34.995  40.862   2.786
76725NA+    NA+42205   5.866  22.541  14.798
76726NA+    NA+42206  19.214   3.772  13.514
76727NA+    NA+42207  17.698  11.277  12.919
76728NA+    NA+42208  35.945  44.275  12.428
76729NA+    NA+42209  12.268  35.091  11.076
76730NA+    NA+42210  36.004  12.284   3.833
76731NA+    NA+42211  39.534  18.178   9.439
76732NA+    NA+42212   5.230  25.611  11.955
76733NA+    NA+42213  30.547  33.537  13.388
76734NA+    NA+42214  20.765  20.149  14.462
76735NA+    NA+42215  29.106  27.690   2.296
76736NA+    NA+42216  18.625  37.001  14.004
76737NA+    NA+42217  16.161  12.688  13.387
76738NA+    NA+42218  40.474   4.228  14.944
76739NA+    NA+42219  44.435  27.491  10.987
76740NA+    NA+42220   0.463  17.656   3.329
76741NA+    NA+42221  35.991  35.926  10.414
76742NA+    NA+42222  33.530   7.268   4.734
76743NA+    NA+42223  27.602  37.545   1.415
76744NA+    NA+42224  28.600  10.372   2.844
76745NA+    NA+42225  31.460  25.653   2.754
76746NA+    NA+42226  16.600  26.178   5.675
76747NA+    NA+42227  28.500   2.830  13.836
76748NA+    NA+42228  12.132  26.006   2.781
76749NA+    NA+42229  29.627  10.246  10.564
76750NA+    NA+42230  38.907  10.878   4.177
76751NA+    NA+42231   6.339  38.352  14.390
76752NA+    NA+42232  34.501   1.342  10.645
76753NA+    NA+42233  39.432   3.867  10.485
76754NA+    NA+42234   5.851  24.585  14.289
76755NA+    NA+42235   6.333   3.901  11.402
76756NA+    NA+42236   5.726  15.706  10.902
76757NA+    NA+42237  16.189  18.243   3.762
76758NA+    NA+42238  31.513  12.743   1.832
76759NA+    NA+42239  13.175  43.801  11.407
76760NA+    NA+42240   1.865   3.316  13.547
76761NA+    NA+42241  28.665  33.594  12.459
76762NA+    NA+42242  36.067  35.938   3.696
76763NA+    NA+42243  34.056  18.051  14.337
76764NA+    NA+42244  21.068   5.930  14.958
76765NA+    NA+42245   5.717  16.316  12.393
76766NA+    NA+42246  27.559  17.220   4.268
76767NA+    NA+42247  25.587   1.260  10.412
76768NA+    NA+42248  11.209  39.322   2.851
76769NA+    NA+42249  43.482   6.334  14.449
76770NA+    NA+42250  39.383  14.117  14.934
76771NA+    NA+42251   6.310  44.845   2.800
76772NA+    NA+42252  33.007  18.645  13.403
76773NA+    NA+42253  32.558  33.571  11.085
76774NA+    NA+42254  16.123  21.022  14.289
76775NA+    NA+42255   7.706  14.311   1.368
76776NA+    NA+42256  35.957   7.737   2.886
76777NA+    NA+42257   9.288  21.212   3.742
76778NA+    NA+42258  22.060  15.666  10.543
76779NA+    NA+42259  40.926   6.365  10.443
76780NA+    NA+42260  13.286  16.144   0.742
76781NA+    NA+42261  18.161  43.297   2.327
76782NA+    NA+42262  28.555  13.321  14.953
76783NA+    NA+42263  13.344  26.172  11.593
76784NA+    NA+42264   3.769  36.428  13.981
76785NA+    NA+42265   3.865  39.529  14.922
76786NA+    NA+42266  31.149   8.831   0.802
76787NA+    NA+42267  41.836  12.268   0.874
76788NA+    NA+42268  27.008  17.604  10.551
76789NA+    NA+42269  27.154  40.489  10.018
76790NA+    NA+42270  28.632   8.291   0.792
76791NA+    NA+42271  12.722  39.469  14.292
76792NA+    NA+42272  10.226  16.149   0.885
76793NA+    NA+42273  39.323  34.985   1.922
76794NA+    NA+42274  33.458  31.117   0.457
76795NA+    NA+42275  14.776  22.125  13.538
76796NA+    NA+42276  37.562   2.810   1.851
76797NA+    NA+42277   9.289  42.851   0.843
76798NA+    NA+42278  29.051   0.860   0.866
76799NA+    NA+42279   5.389  18.780  14.019
76800NA+    NA+42280  44.378  33.066   1.366
76801NA+    NA+42281  28.656  19.202  11.983
76802NA+    NA+42282  37.471   1.295   0.270
76803NA+    NA+42283   0.401  13.301  10.608
76804NA+    NA+42284  20.613  28.482   2.339
76805NA+    NA+42285   0.278  15.662  11.126
76806NA+    NA+42286  38.570  38.384   4.829
76807NA+    NA+42287  37.573  37.476   2.774
76808NA+    NA+42288  10.253  12.263  11.083
76809NA+    NA+42289  14.800  13.118  13.401
76810NA+    NA+42290  33.398  41.411   4.787
76811NA+    NA+42291  11.210  40.962  10.628
76812NA+    NA+42292  24.077   2.440   0.842
76813NA+    NA+42293  25.496  20.656   2.866
76814NA+    NA+42294  20.720  41.916   3.764
76815NA+    NA+42295  36.439  36.072   4.622
76816NA+    NA+42296  32.934   0.429   1.403
76817NA+    NA+42297   0.254  31.055  11.529
76818NA+    NA+42298  17.664  31.481   0.289
76819NA+    NA+42299  24.636  28.130  14.807
76820NA+    NA+42300   4.402  16.127  10.926
76821NA+    NA+42301  16.289  17.268   1.891
76822NA+    NA+42302   6.363   0.373  12.898
76823NA+    NA+42303  42.859  36.035   2.878
76824NA+    NA+42304  20.160  43.888  12.040
76825NA+    NA+42305   7.831   5.923  10.957
76826NA+    NA+42306  14.208   9.833  14.340
76827NA+    NA+42307   6.899  42.334  14.886
76828NA+    NA+42308  25.600  27.618   3.318
76829NA+    NA+42309  42.010  24.020   1.853
76830NA+    NA+42310  41.514  42.438  11.932
76831NA+    NA+42311  35.958  35.103  14.355
76832NA+    NA+42312  40.521  33.976  13.853
76833NA+    NA+42313   8.348  19.601  10.975
76834NA+    NA+42314  29.578  27.493  10.530
76835NA+    NA+42315  14.096  37.887  13.938
76836NA+    NA+42316  30.512  29.918  13.547
76837NA+    NA+42317  13.329  26.551  11.413
76838NA+    NA+42318  12.813  23.618   0.430
76839NA+    NA+42319  44.463  39.918  10.046
76840NA+    NA+42320  28.091  15.692  14.885
76841NA+    NA+42321  12.335   8.668  12.946
76842NA+    NA+42322  16.598  28.948  13.795
76843NA+    NA+42323   6.839   4.283   3.248
76844NA+    NA+42324  21.672  39.847   0.872
76845NA+    NA+42325   7.176  30.977  11.890
76846NA+    NA+42326  20.690   8.168  13.818
76847NA+    NA+42327  32.590   9.778   0.392
76848NA+    NA+42328   8.684  18.182   3.761
76849NA+    NA+42329  24.046  35.453  10.934
76850NA+    NA+42330  15.616  43.366   2.828
76851NA+    NA+42331  21.253  26.146  14.294
76852NA+    NA+42332  31.577   8.823  10.490
76853NA+    NA+42333  12.679  14.661  12.946
76854NA+    NA+42334  12.295  34.875  13.515
76855NA+    NA+42335  17.176   4.277   4.740
76856NA+    NA+42336  18.668   1.900  12.002
76857NA+    NA+42337  44.953  11.347   3.155
76858NA+    NA+42338  23.501   2.728   4.329
76859NA+    NA+42339  12.824   2.373   4.707
76860NA+    NA+42340  21.691  37.405   1.386
76861NA+    NA+42341  11.131  20.545   0.840
76862NA+    NA+42342  27.688  43.384   3.743
76863NA+    NA+42343  12.754  27.651  12.349
76864NA+    NA+42344  26.484   5.348   0.748
76865NA+    NA+42345   6.220  18.719  14.347
76866NA+    NA+42346  35.529  39.049  13.461
76867NA+    NA+42347  18.233  34.915   3.708
76868NA+    NA+42348  41.458  29.507   0.760
76869NA+    NA+42349  41.420  10.810   1.383
76870NA+    NA+42350  36.989  17.067  12.080
76871NA+    NA+42351   7.332  42.358  11.066
76872NA+    NA+42352  16.663  36.372   2.725
76873NA+    NA+42353  12.138  37.547   1.241
76874NA+    NA+42354   8.174  25.645   2.837
76875NA+    NA+42355  38.450  41.920  11.042
76876NA+    NA+42356  32.993  20.250  13.890
76877NA+    NA+42357   0.827  17.234   1.323
76878NA+    NA+42358   6.197  15.327   0.761
76879NA+    NA+42359  36.050  16.590  14.002
76880NA+    NA+42360  17.723  26.058   3.816
76881NA+    NA+42361  25.497  21.535  13.033
76882NA+    NA+42362  24.539   3.302  10.487
76883NA+    NA+42363  18.674  20.720  13.450
76884NA+    NA+42364  16.637  24.083  11.466
76885NA+    NA+42365  36.573  44.273   1.423
76886NA+    NA+42366   7.835  28.102   2.261
76887NA+    NA+42367  33.455  15.799   3.852
76888NA+    NA+42368  25.965  42.981  13.884
76889NA+    NA+42369  36.897  14.298  11.964
76890NA+    NA+42370  14.301  28.467   4.612
76891NA+    NA+42371   7.181   7.675   5.147
76892NA+    NA+42372  13.229  38.051  14.408
76893NA+    NA+42373  25.171   0.844   4.200
76894NA+    NA+42374  26.674  22.729  11.433
76895NA+    NA+42375  29.576  36.498  13.804
76896NA+    NA+42376  44.934  44.811   0.812
76897NA+    NA+42377   7.409  20.621  14.810
76898NA+    NA+42378  27.999   7.323  14.953
76899NA+    NA+42379  34.095  33.443   2.193
76900NA+    NA+42380   3.875  38.986   4.180
76901NA+    NA+42381   8.174  17.091  11.095
76902NA+    NA+42382  16.100  34.099   2.261
76903NA+    NA+42383  20.151   4.317   0.779
76904NA+    NA+42384  28.507   1.977   2.742
76905NA+    NA+42385  37.958   3.831  10.505
76906NA+    NA+42386   6.251  23.095  11.507
76907NA+    NA+42387   3.752  12.196  11.464
76908NA+    NA+42388  25.558  35.556   1.704
76909NA+    NA+42389  41.378  42.897   3.170
76910NA+    NA+42390  32.616   7.407  13.977
76911NA+    NA+42391  14.217  42.913  11.405
76912NA+    NA+42392  30.536  32.607  10.529
76913NA+    NA+42393  18.579  24.512  13.352
76914NA+    NA+42394   2.923  39.055  13.888
76915NA+    NA+42395  43.986  17.797   2.702
76916NA+    NA+42396  22.192  17.641  14.846
76917NA+    NA+42397   8.323  41.869   4.807
76918NA+    NA+42398   5.224  11.242  12.981
76919NA+    NA+42399  41.905  42.311   1.225
76920NA+    NA+42400  18.554  38.440   3.160
76921NA+    NA+42401  22.999  41.498  10.451
76922NA+    NA+42402  35.877  29.580   3.837
76923NA+    NA+42403  28.999  39.540  11.014
76924NA+    NA+42404  20.538   2.282   4.297
76925NA+    NA+42405  43.826  24.158  12.954
76926NA+    NA+42406  42.494  37.484  12.955
76927NA+    NA+42407  22.624   1.383  12.405
76928NA+    NA+42408   4.262  40.549   1.236
76929NA+    NA+42409  32.494   5.857   2.311
76930NA+    NA+42410   1.785  37.364  14.507
76931NA+    NA+42411  36.568  22.608   3.177
76932NA+    NA+42412  29.660  24.006   4.217
76933NA+    NA+42413  33.038  14.263  14.805
76934NA+    NA+42414   2.416  18.666   3.763
76935NA+    NA+42415  30.084  10.689   0.956
76936NA+    NA+42416  16.106  11.732   1.436
76937NA+    NA+42417  21.532  11.165   1.723
76938NA+    NA+42418  29.999  11.141  12.412
76939NA+    NA+42419   8.766  18.780   2.869
76940NA+    NA+42420  18.669  14.641  14.446
76941NA+    NA+42421   9.861   5.809   1.358
76942NA+    NA+42422  26.166  34.906   0.889
76943NA+    NA+42423  17.180   3.310   3.356
76944NA+    NA+42424  40.032   2.826  11.026
76945NA+    NA+42425  15.184  13.693  14.827
76946NA+    NA+42426  25.666   9.220   1.300
76947NA+    NA+42427  20.123   6.724   1.341
76948NA+    NA+42428   6.377  39.382   4.143
76949NA+    NA+42429   1.958   0.260  11.454
76950NA+    NA+42430   1.848  15.640  12.443
76951NA+    NA+42431   7.729  29.443  11.579
76952NA+    NA+42432  38.940   4.266   3.193
76953NA+    NA+42433   3.303  37.377   1.821
76954NA+    NA+42434   8.397  26.959  11.486
76955NA+    NA+42435  35.478  14.715   1.299
76956NA+    NA+42436  18.197  29.011   1.717
76957NA+    NA+42437  18.555  24.068   4.688
76958NA+    NA+42438  14.287  10.229   0.816
76959NA+    NA+42439  42.358   7.392   0.277
76960NA+    NA+42440  11.798  27.137  14.759
76961NA+    NA+42441  12.834   8.714   4.638
76962NA+    NA+42442  33.493   9.802   1.328
76963NA+    NA+42443  14.739  35.946  11.505
76964NA+    NA+42444  10.349  44.472   4.723
76965NA+    NA+42445  40.441   5.822  12.877
76966NA+    NA+42446  15.596   2.316   2.738
76967NA+    NA+42447  36.962  13.329  12.355
76968NA+    NA+42448  16.630  29.087   4.665
76969NA+    NA+42449  34.603  11.286  11.522
76970NA+    NA+42450  29.429  23.493  14.277
76971NA+    NA+42451  35.594   3.322  12.842
76972NA+    NA+42452  28.448   4.781   2.357
76973NA+    NA+42453  11.716  38.459  10.584
76974NA+    NA+42454  39.998  40.999  13.357
76975NA+    NA+42455  30.497  38.525   5.795
76976NA+    NA+42456   9.352  32.505  14.315
76977NA+    NA+42457  42.286  30.443   2.711
76978NA+    NA+42458  21.166   3.875  13.430
76979NA+    NA+42459  34.588  31.977  10.452
76980NA+    NA+42460  39.835   3.812   2.896
76981NA+    NA+42461  42.454  30.005   3.684
76982NA+    NA+42462   3.768  23.160   0.314
76983NA+    NA+42463  19.260  14.148   0.856
76984NA+    NA+42464  24.999  24.977  10.404
76985NA+    NA+42465  18.090  10.139  14.467
76986NA+    NA+42466  27.948  33.416  11.462
76987NA+    NA+42467  20.606  21.646  14.356
76988NA+    NA+42468  20.172  36.485   4.775
76989NA+    NA+42469  17.696  13.638   0.460
76990NA+    NA+42470  43.876  28.576  10.443
76991NA+    NA+42471  19.103  31.043  12.563
76992NA+    NA+42472  12.275  21.071  10.525
76993NA+    NA+42473  20.184  33.051  12.387
76994NA+    NA+42474  42.416  37.396   1.817
76995NA+    NA+42475  27.187  27.548   1.751
76996NA+    NA+42476  37.406   6.316   4.300
76997NA+    NA+42477  15.114  38.991  12.956
76998NA+    NA+42478  28.103   3.824  14.487
76999NA+    NA+42479   1.935  33.944   3.243
77000NA+    NA+42480  22.211  10.738   0.415
77001NA+    NA+42481  12.800  35.497  11.458
77002NA+    NA+42482  11.747  42.995  10.946
77003NA+    NA+42483  31.952  19.534   1.368
77004NA+    NA+42484   0.787   1.370   2.349
77005NA+    NA+42485  22.173  19.090   2.674
77006NA+    NA+42486   2.226  36.439  13.432
77007NA+    NA+42487  19.720   7.295  11.082
77008NA+    NA+42488  21.607  27.550   1.234
77009NA+    NA+42489  20.072  20.113  11.076
77010NA+    NA+42490   6.806   2.461   2.389
77011NA+    NA+42491  40.054  22.104   1.772
77012NA+    NA+42492  35.365  10.312   0.833
77013NA+    NA+42493  22.193   6.375   2.763
77014NA+    NA+42494  11.807  20.745  13.317
77015NA+    NA+42495  22.638  29.624  13.796
77016NA+    NA+42496  41.909  25.034  12.052
77017NA+    NA+42497  14.337  18.220   3.865
77018NA+    NA+42498  36.470  24.223   2.316
77019NA+    NA+42499  34.875  14.630  14.927
77020NA+    NA+42500  41.947  32.081   4.647
77021NA+    NA+42501  26.628  14.642   2.255
77022NA+    NA+42502  36.541  15.769   3.267
77023NA+    NA+42503  24.670  28.522   4.747
77024NA+    NA+42504  37.575  24.580   4.652
77025NA+    NA+42505  25.566   4.838  12.372
77026NA+    NA+42506  41.394  42.898   2.858
77027NA+    NA+42507   0.331  18.057   4.256
77028NA+    NA+42508  19.203  38.977  10.589
77029NA+    NA+42509  13.350  39.887   1.874
77030NA+    NA+42510  43.312  13.274   3.297
77031NA+    NA+42511   3.259  23.671   0.770
77032NA+    NA+42512  41.415  34.028   3.250
77033NA+    NA+42513   2.726  37.513  13.409
77034NA+    NA+42514  32.627   2.952   1.410
77035NA+    NA+42515  31.511  18.271  11.453
77036NA+    NA+42516  30.927  24.510   3.737
77037NA+    NA+42517  36.042  17.165   2.852
77038NA+    NA+42518  31.428  15.134  14.405
77039NA+    NA+42519  12.171  22.585  12.904
77040NA+    NA+42520  18.770   2.317   4.176
77041NA+    NA+42521  43.896  20.565  11.936
77042NA+    NA+42522  28.937  11.848   1.348
77043NA+    NA+42523   8.740  35.965   2.207
77044NA+    NA+42524  37.854  28.436  10.902
77045NA+    NA+42525  24.563  40.450   0.360
77046NA+    NA+42526  31.484  37.060  11.539
77047NA+    NA+42527  28.574  27.012   4.113
77048NA+    NA+42528  35.557  40.044   3.840
77049NA+    NA+42529  21.738  14.642   1.377
77050NA+    NA+42530  35.450  11.340   2.717
77051NA+    NA+42531  29.601   2.945   2.358
77052NA+    NA+42532  18.635  37.535  12.883
77053NA+    NA+42533  30.049  41.353  11.979
77054NA+    NA+42534  18.696  40.008  12.923
77055NA+    NA+42535  13.762   5.822  11.932
77056NA+    NA+42536   7.227   9.183   1.259
77057NA+    NA+42537  21.154  16.714  12.402
77058NA+    NA+42538  29.459   5.257   2.843
77059NA+    NA+42539  16.805   1.840   3.753
77060NA+    NA+42540  41.803  39.476  10.911
77061NA+    NA+42541  37.538  18.072   5.304
77062NA+    NA+42542   8.249  24.132  13.033
77063NA+    NA+42543  22.514  11.788  10.497
77064NA+    NA+42544  28.080  11.306   3.805
77065NA+    NA+42545  42.920  13.173  13.957
77066NA+    NA+42546  42.824  43.347   0.771
77067NA+    NA+42547  24.696  35.087  13.998
77068NA+    NA+42548  14.785   9.395   0.923
77069NA+    NA+42549   8.342  20.695   4.762
77070NA+    NA+42550  18.707  17.710   2.359
77071NA+    NA+42551   7.682  21.648  11.385
77072NA+    NA+42552  22.222  26.963  13.801
77073NA+    NA+42553  29.919   7.849   0.251
77074NA+    NA+42554   9.214  17.624   4.628
77075NA+    NA+42555  12.135  13.812   2.859
77076NA+    NA+42556   4.428   7.772  12.390
77077NA+    NA+42557  16.634  15.682   3.865
77078NA+    NA+42558  35.414  25.643  13.969
77079NA+    NA+42559  25.189  14.793  12.881
77080NA+    NA+42560   0.368  31.423   4.200
77081NA+    NA+42561  21.593  44.383  14.425
77082NA+    NA+42562   9.820   7.183  14.825
77083NA+    NA+42563  41.041  33.054   2.704
77084NA+    NA+42564   6.899   0.811  10.553
77085NA+    NA+42565   4.356  43.831  11.588
77086NA+    NA+42566  23.581  40.799  14.002
77087NA+    NA+42567  16.085  25.132   3.161
77088NA+    NA+42568  30.141   0.968  13.016
77089NA+    NA+42569  26.527   7.197  14.772
77090NA+    NA+42570  33.419  25.190   0.373
77091NA+    NA+42571   4.852  17.637  12.365
77092NA+    NA+42572  13.667  37.404   2.798
77093NA+    NA+42573  30.037  11.349  13.415
77094NA+    NA+42574  23.190  16.094  14.000
77095NA+    NA+42575  13.329   4.748  10.102
77096NA+    NA+42576  38.543  14.235   3.267
77097NA+    NA+42577  21.754  12.194   4.630
77098NA+    NA+42578  36.418  25.059  10.077
77099NA+    NA+42579   4.854   9.321  14.775
77100NA+    NA+42580  32.531  36.471  14.861
77101NA+    NA+42581   8.687  28.965   4.351
77102NA+    NA+42582  19.152  29.557  13.537
77103NA+    NA+42583  33.985   5.739  14.848
77104NA+    NA+42584   1.483  31.596   4.798
77105NA+    NA+42585   5.916   1.280   3.171
77106NA+    NA+42586   6.840  34.941   0.813
77107NA+    NA+42587  33.930  12.216   4.282
77108NA+    NA+42588   7.377   1.411  11.015
77109NA+    NA+42589  40.434  36.365  14.844
77110NA+    NA+42590  38.488  15.325  14.899
77111NA+    NA+42591  16.668  38.512  10.939
77112NA+    NA+42592  20.525   9.354  13.368
77113NA+    NA+42593   7.740   8.374   1.413
77114NA+    NA+42594  13.803  22.083   0.793
77115NA+    NA+42595  37.553  25.607   1.909
77116NA+    NA+42596  16.253  14.725   3.217
77117NA+    NA+42597  17.733  12.619   0.925
77118NA+    NA+42598  41.393  18.052  11.873
77119NA+    NA+42599  41.995  18.660  13.865
77120NA+    NA+42600   3.896   5.727  11.458
77121NA+    NA+42601   0.360  13.685  13.873
77122NA+    NA+42602   1.935  30.913   4.293
77123NA+    NA+42603   1.790  44.431   2.749
77124NA+    NA+42604  35.421  41.305   2.407
77125NA+    NA+42605  39.538  43.955  11.985
77126NA+    NA+42606  44.904   0.962  12.051
77127NA+    NA+42607  20.599  16.676  14.438
77128NA+    NA+42608  43.855  37.346  12.971
77129NA+    NA+42609   1.429  43.484   3.671
77130NA+    NA+42610  14.157   8.162   0.263
77131NA+    NA+42611  33.064  11.742   0.797
77132NA+    NA+42612   0.857  38.826   5.248
77133NA+    NA+42613  11.788  29.155  13.536
77134NA+    NA+42614  15.673  35.068   1.922
77135NA+    NA+42615  39.913   7.414   1.763
77136NA+    NA+42616   1.311  19.728   1.433
77137NA+    NA+42617  26.462  33.601  12.472
77138NA+    NA+42618  10.808  29.153  14.449
77139NA+    NA+42619  31.915  18.107  11.931
77140NA+    NA+42620  36.919   9.681   3.783
77141NA+    NA+42621  20.086  10.328  12.572
77142NA+    NA+42622  30.560  37.357   3.704
77143NA+    NA+42623  38.903   0.806  10.911
77144NA+    NA+42624  24.672   8.811   0.323
77145NA+    NA+42625   9.348  16.177   4.705
77146NA+    NA+42626  39.365   6.880  10.440
77147NA+    NA+42627  10.696  25.083  10.567
77148NA+    NA+42628  44.304  30.047  14.926
77149NA+    NA+42629  34.378  13.821  11.494
77150NA+    NA+42630  14.131  31.530  13.457
77151NA+    NA+42631   9.296  13.713   4.808
77152NA+    NA+42632  32.465  35.583   1.708
77153NA+    NA+42633  37.867  26.152   4.278
77154NA+    NA+42634  20.701  31.004  12.511
77155NA+    NA+42635  37.394  38.407   3.668
77156NA+    NA+42636  28.514  43.934   3.267
77157NA+    NA+42637  41.451  17.200   0.420
77158NA+    NA+42638   3.340  30.928   3.296
77159NA+    NA+42639  17.638  31.058   1.346
77160NA+    NA+42640  41.446   9.270  11.483
77161NA+    NA+42641  35.383  28.041  10.611
77162NA+    NA+42642  36.508  40.371  13.530
77163NA+    NA+42643  41.937  37.460   1.216
77164NA+    NA+42644  11.715  24.674  11.011
77165NA+    NA+42645  35.549  43.808  11.474
77166NA+    NA+42646  44.342  38.843  14.909
77167NA+    NA+42647  29.173  13.700   1.233
77168NA+    NA+42648  27.623  42.452  12.885
77169NA+    NA+42649  19.207  22.584   4.187
77170NA+    NA+42650  23.154  18.582   3.655
77171NA+    NA+42651   5.293  21.538  14.371
77172NA+    NA+42652  44.329  19.078  14.335
77173NA+    NA+42653  26.478  43.493  10.901
77174NA+    NA+42654  25.214   3.339   0.430
77175NA+    NA+42655  27.655  39.841   3.175
77176NA+    NA+42656  12.272  10.765   3.715
77177NA+    NA+42657   3.431  23.151  12.439
77178NA+    NA+42658   0.901  30.995  12.363
77179NA+    NA+42659  18.084  23.236   0.874
77180NA+    NA+42660   3.789   2.390   4.258
77181NA+    NA+42661   5.728  21.204   4.203
77182NA+    NA+42662  37.833  30.646  14.497
77183NA+    NA+42663  31.108  17.250   2.855
77184NA+    NA+42664  11.631   1.454  14.024
77185NA+    NA+42665  22.525  43.392   2.833
77186NA+    NA+42666  32.469  35.956  13.808
77187NA+    NA+42667  41.325  42.782   0.850
77188NA+    NA+42668   3.932   9.762  11.465
77189NA+    NA+42669  29.628   3.893   0.883
77190NA+    NA+42670  11.212  31.509  12.973
77191NA+    NA+42671  33.387  34.449  14.001
77192NA+    NA+42672  19.105  35.571   9.518
77193NA+    NA+42673   9.195  30.151   1.713
77194NA+    NA+42674  38.336   7.872  14.991
77195NA+    NA+42675  22.537  30.422  14.444
77196NA+    NA+42676   5.885   0.807  13.857
77197NA+    NA+42677  16.781  11.296  14.929
77198NA+    NA+42678  25.594  28.655   3.328
77199NA+    NA+42679  38.341   3.800   2.345
77200NA+    NA+42680   3.716  38.488  11.477
77201NA+    NA+42681   0.755  13.674  12.908
77202NA+    NA+42682  38.985  18.158  11.536
77203NA+    NA+42683  37.455  28.169   5.278
77204NA+    NA+42684  20.184  42.350   4.608
77205NA+    NA+42685  23.633  44.500   0.242
77206NA+    NA+42686   1.339  29.150  11.486
77207NA+    NA+42687  18.565  19.091   0.882
77208NA+    NA+42688  12.652  28.522   4.716
77209NA+    NA+42689  23.524  36.044   2.209
77210NA+    NA+42690  18.679   4.416   2.345
77211NA+    NA+42691  24.015  28.474   3.325
77212NA+    NA+42692  34.589  15.683  11.024
77213NA+    NA+42693  40.528  39.957  12.417
77214NA+    NA+42694  41.809  33.127   3.855
77215NA+    NA+42695   2.322  27.057  13.907
77216NA+    NA+42696  20.672  28.997   3.224
77217NA+    NA+42697  27.595  16.207   0.824
77218NA+    NA+42698  27.071  25.637   0.746
77219NA+    NA+42699  14.270  26.128  14.428
77220NA+    NA+42700   5.382  32.895   2.205
77221NA+    NA+42701  12.177  36.944   2.266
77222NA+    NA+42702  33.439  16.709  11.472
77223NA+    NA+42703  18.181  40.466   3.291
77224NA+    NA+42704   9.349  22.172  10.959
77225NA+    NA+42705  40.469  11.719   0.399
77226NA+    NA+42706  36.437  24.160  11.557
77227NA+    NA+42707  38.923  22.119   3.704
77228NA+    NA+42708  16.169  39.023  14.952
77229NA+    NA+42709   6.850   0.857   2.211
77230NA+    NA+42710  23.023  37.005   2.397
77231NA+    NA+42711  25.633   3.449  11.922
77232NA+    NA+42712  35.456  18.653   1.276
77233NA+    NA+42713  43.305  15.658   3.851
77234NA+    NA+42714  40.403  28.556   2.313
77235NA+    NA+42715  22.165  34.462  11.606
77236NA+    NA+42716  25.572  41.957   4.789
77237NA+    NA+42717  20.647  28.492  10.478
77238NA+    NA+42718  21.072  44.913  13.451
77239NA+    NA+42719   4.752  20.613   2.408
77240NA+    NA+42720  39.962   6.344  12.537
77241NA+    NA+42721   7.837  32.950   3.668
77242NA+    NA+42722  28.521  39.344   4.221
77243NA+    NA+42723   6.770  14.705   2.865
77244NA+    NA+42724   9.735  23.730   4.328
77245NA+    NA+42725  12.829   2.741  10.463
77246NA+    NA+42726   2.864   5.392   3.234
77247NA+    NA+42727  19.754  38.003   2.281
77248NA+    NA+42728  32.423  32.110  14.026
77249NA+    NA+42729  22.028  31.585  12.503
77250NA+    NA+42730  41.501  13.804   2.180
77251NA+    NA+42731  42.005  27.153  12.512
77252NA+    NA+42732   4.277   1.427  12.450
77253NA+    NA+42733  33.012   5.863  11.406
77254NA+    NA+42734  21.531  23.582  14.871
77255NA+    NA+42735  21.730  13.261  11.593
77256NA+    NA+42736  11.664  17.660   3.755
77257NA+    NA+42737   1.370   1.756  13.827
77258NA+    NA+42738   8.664  12.226  11.905
77259NA+    NA+42739  19.735   5.267  14.346
77260NA+    NA+42740   2.332  40.325  13.826
77261NA+    NA+42741  34.073   7.208  13.848
77262NA+    NA+42742  10.635  17.110   0.371
77263NA+    NA+42743  20.221  34.983   3.637
77264NA+    NA+42744  34.454   7.350  13.381
77265NA+    NA+42745  22.995  38.877  13.430
77266NA+    NA+42746   5.742  18.742   1.314
77267NA+    NA+42747  22.662  13.129  12.902
77268NA+    NA+42748  37.383  30.508  14.976
77269NA+    NA+42749   3.281   9.827  12.902
77270NA+    NA+42750  26.016  35.090   1.356
77271NA+    NA+42751  30.050  43.861   0.399
77272NA+    NA+42752  38.901  37.923  10.618
77273NA+    NA+42753  21.536  32.414   1.910
77274NA+    NA+42754   1.405  42.862  11.546
77275NA+    NA+42755  30.022  14.101  13.916
77276NA+    NA+42756  18.175  13.225   0.827
77277NA+    NA+42757   8.695   3.756  10.446
77278NA+    NA+42758  20.042   7.287  11.081
77279NA+    NA+42759  44.479  22.731  14.485
77280NA+    NA+42760  18.684  14.227   0.874
77281NA+    NA+42761   8.867  16.609  12.031
77282NA+    NA+42762  19.232  41.030   3.167
77283NA+    NA+42763  39.406  12.226  10.441
77284NA+    NA+42764  17.757  38.886  13.841
77285NA+    NA+42765  16.307  28.971   1.819
77286NA+    NA+42766   6.265  19.719  14.018
77287NA+    NA+42767  29.936  38.400   0.314
77288NA+    NA+42768  37.582  13.710   1.739
77289NA+    NA+42769  37.417  34.056   4.347
77290NA+    NA+42770   7.819  30.439   4.636
77291NA+    NA+42771  39.985  34.052   2.767
77292NA+    NA+42772  21.105  37.052  12.405
77293NA+    NA+42773  29.098  37.078  10.916
77294NA+    NA+42774  25.999  20.523  12.531
77295NA+    NA+42775  13.186  10.860  14.368
77296NA+    NA+42776  35.099  22.622   0.738
77297NA+    NA+42777   0.878  33.907   1.304
77298NA+    NA+42778   8.784   3.938  11.387
77299NA+    NA+42779  13.683  37.046   3.180
77300NA+    NA+42780  35.400  32.078  14.480
77301NA+    NA+42781  21.751  13.218   1.886
77302NA+    NA+42782  15.743   0.777   3.687
77303NA+    NA+42783  35.017  30.064  10.536
77304NA+    NA+42784  32.505   3.228   1.328
77305NA+    NA+42785  40.376  43.926  10.460
77306NA+    NA+42786   7.755  34.513  14.381
77307NA+    NA+42787  30.982   9.678  14.905
77308NA+    NA+42788  23.089   8.858   2.311
77309NA+    NA+42789  33.021  30.516   4.721
77310NA+    NA+42790  34.009  39.346  11.963
77311NA+    NA+42791  44.923  37.988   0.302
77312NA+    NA+42792   0.453  28.974   1.790
77313NA+    NA+42793  21.225   6.428  12.045
77314NA+    NA+42794  44.466  37.016  10.562
77315NA+    NA+42795  20.717  34.484   0.381
77316NA+    NA+42796  40.929  35.378   3.335
77317NA+    NA+42797  26.638  13.774   2.674
77318NA+    NA+42798  40.407  38.939   4.806
77319NA+    NA+42799   2.768  28.575  13.509
77320NA+    NA+42800  42.032  14.262  11.946
77321NA+    NA+42801  40.989  35.998  12.943
77322NA+    NA+42802  23.519  27.041   0.783
77323NA+    NA+42803  33.025  41.902   0.274
77324NA+    NA+42804  40.861   5.411  13.005
77325NA+    NA+42805  37.339   8.240   0.867
77326NA+    NA+42806  12.836  43.428   2.751
77327NA+    NA+42807  15.282   1.405   0.806
77328NA+    NA+42808   4.855  24.486   2.798
77329NA+    NA+42809  39.400  39.927   3.201
77330NA+    NA+42810  22.140  28.658   1.802
77331NA+    NA+42811  32.949   9.303  14.346
77332NA+    NA+42812   4.915  18.103  13.466
77333NA+    NA+42813  16.182  33.623  12.905
77334NA+    NA+42814  20.762  33.539  11.581
77335NA+    NA+42815  33.388   6.275  11.067
77336NA+    NA+42816  42.347  34.023  12.915
77337NA+    NA+42817  12.728  28.677   2.326
77338NA+    NA+42818  30.545  42.943  14.975
77339NA+    NA+42819  21.512   1.899   1.366
77340NA+    NA+42820   7.264  30.573  13.863
77341NA+    NA+42821  22.217  16.281   2.243
77342NA+    NA+42822  25.171   9.820   2.717
77343NA+    NA+42823  24.630  14.698   2.861
77344NA+    NA+42824  19.628  38.460  10.613
77345NA+    NA+42825  34.577   0.490  11.011
77346NA+    NA+42826  25.554  31.053  11.906
77347NA+    NA+42827  25.592  21.050   4.639
77348NA+    NA+42828   2.311  44.002  11.128
77349NA+    NA+42829  27.177  23.984   0.740
77350NA+    NA+42830  20.539  23.719   3.742
77351NA+    NA+42831  36.420  37.442  11.978
77352NA+    NA+42832  28.108  33.085  13.470
77353NA+    NA+42833  31.560  10.352   4.287
77354NA+    NA+42834  28.095  28.947  14.813
77355NA+    NA+42835  22.575   7.860  11.971
77356NA+    NA+42836  27.965   4.309   2.866
77357NA+    NA+42837  25.670  31.646  10.996
77358NA+    NA+42838  23.650  11.695  13.498
77359NA+    NA+42839  40.802  14.702  10.472
77360NA+    NA+42840  18.597  30.085  14.514
77361NA+    NA+42841  21.152  33.507  11.872
77362NA+    NA+42842  16.639   6.705  12.833
77363NA+    NA+42843  17.684  27.961  12.578
77364NA+    NA+42844  39.061   5.208   0.963
77365NA+    NA+42845  12.722  33.128  12.374
77366NA+    NA+42846  24.191  32.550   3.632
77367NA+    NA+42847  34.061  26.498  11.520
77368NA+    NA+42848  40.409  40.903  12.915
77369NA+    NA+42849  29.043  28.153  11.116
77370NA+    NA+42850  22.998  36.079  13.926
77371NA+    NA+42851  31.972  30.992   1.446
77372NA+    NA+42852   2.956  16.286  13.337
77373NA+    NA+42853  38.502  35.972  11.577
77374NA+    NA+42854  41.522   6.682   0.843
77375NA+    NA+42855  27.642  30.116  13.809
77376NA+    NA+42856   2.965  21.121   3.836
77377NA+    NA+42857   2.735  22.160  12.879
77378NA+    NA+42858   0.298  39.422   0.350
77379NA+    NA+42859  25.663   8.760   0.739
77380NA+    NA+42860   3.746  11.254   0.248
77381NA+    NA+42861  27.449   2.441   4.141
77382NA+    NA+42862   0.829  32.072   3.226
77383NA+    NA+42863   6.370  15.774   2.184
77384NA+    NA+42864  25.128  35.555   4.777
77385NA+    NA+42865  43.512  29.167   2.344
77386NA+    NA+42866  28.541  31.906   4.350
77387NA+    NA+42867   6.344  18.057  10.551
77388NA+    NA+42868  31.998  28.675   1.729
77389NA+    NA+42869  15.612   1.944  14.995
77390NA+    NA+42870  17.612   3.422   0.796
77391NA+    NA+42871   9.677  30.013  14.508
77392NA+    NA+42872  34.001  11.866  12.074
77393NA+    NA+42873   4.844  17.788   3.325
77394NA+    NA+42874   9.199  38.521  11.024
77395NA+    NA+42875   3.817   8.239  13.841
77396NA+    NA+42876   3.275  26.980   3.165
77397NA+    NA+42877  41.017  28.623   4.116
77398NA+    NA+42878  35.071  31.963   5.262
77399NA+    NA+42879  31.461  37.413   4.258
77400NA+    NA+42880  14.337  41.331  10.890
77401NA+    NA+42881  11.209  42.384   0.956
77402NA+    NA+42882  26.517  27.681  14.818
77403NA+    NA+42883  41.896  20.622  13.412
77404NA+    NA+42884   0.983   2.965   0.956
77405NA+    NA+42885   0.402   6.315  11.883
77406NA+    NA+42886  37.363  41.347  13.364
77407NA+    NA+42887  38.330  34.603   0.832
77408NA+    NA+42888  21.542  20.263   0.399
77409NA+    NA+42889  25.566  44.383  13.337
77410NA+    NA+42890  11.708  34.057  12.071
77411NA+    NA+42891  22.008  13.170   1.369
77412NA+    NA+42892  12.294   1.466  10.529
77413NA+    NA+42893  27.665  39.468   1.445
77414NA+    NA+42894   6.387   6.910  10.115
77415NA+    NA+42895   4.931  13.240  11.106
77416NA+    NA+42896  11.729   4.770  13.828
77417NA+    NA+42897  10.854  23.606  14.800
77418NA+    NA+42898  36.532  17.782   1.850
77419NA+    NA+42899  37.059  31.086  14.932
77420NA+    NA+42900  42.301   4.391   3.154
77421NA+    NA+42901  37.972  10.154  11.026
77422NA+    NA+42902  16.582   1.389  11.560
77423NA+    NA+42903  42.311  44.755   3.708
77424NA+    NA+42904  36.044  12.274  11.493
77425NA+    NA+42905  22.744  36.417  10.592
77426NA+    NA+42906  10.202  42.371  10.962
77427NA+    NA+42907  13.791  38.350   3.220
77428NA+    NA+42908   5.701  14.288   0.926
77429NA+    NA+42909  40.469   6.259  12.452
77430NA+    NA+42910  43.931   2.442   0.244
77431NA+    NA+42911   7.401  22.579   0.920
77432NA+    NA+42912  22.652  30.031   2.824
77433NA+    NA+42913  39.842  42.979  14.953
77434NA+    NA+42914   1.294  38.469  12.894
77435NA+    NA+42915  17.627  16.745  11.892
77436NA+    NA+42916   7.357  24.661  14.477
77437NA+    NA+42917  29.956  31.533   3.378
77438NA+    NA+42918  10.664  38.952  11.603
77439NA+    NA+42919  25.654   1.946  13.033
77440NA+    NA+42920  10.249  36.077  11.447
77441NA+    NA+42921  44.927  29.438   2.834
77442NA+    NA+42922  25.076  27.070   1.878
77443NA+    NA+42923  41.394  42.485   1.427
77444NA+    NA+42924   0.279   6.735   2.671
77445NA+    NA+42925  35.492   4.322  14.994
77446NA+    NA+42926  16.173  18.714   4.156
77447NA+    NA+42927  27.545  21.263  10.946
77448NA+    NA+42928  26.953  14.197  14.954
77449NA+    NA+42929  11.671  13.105  13.417
77450NA+    NA+42930  36.026  20.556  12.036
77451NA+    NA+42931  21.261  23.213   0.950
77452NA+    NA+42932  43.799  42.808   0.466
77453NA+    NA+42933  14.127  38.915  11.607
77454NA+    NA+42934   1.977  39.432   2.875
77455NA+    NA+42935  20.056  19.250   4.767
77456NA+    NA+42936  12.811   3.895  13.477
77457NA+    NA+42937  16.098  18.790  13.429
77458NA+    NA+42938  39.465   6.922  13.493
77459NA+    NA+42939  34.583  16.170  13.320
77460NA+    NA+42940  35.890   5.245   0.409
77461NA+    NA+42941  42.892  30.147   0.322
77462NA+    NA+42942  13.710   0.250   0.345
77463NA+    NA+42943  19.552  43.915   4.185
77464NA+    NA+42944   7.411  40.356   1.229
77465NA+    NA+42945  36.080   1.297   0.922
77466NA+    NA+42946  13.288  32.433  10.450
77467NA+    NA+42947   3.314  35.868   1.309
77468NA+    NA+42948  26.565   6.878  13.881
77469NA+    NA+42949  13.268   3.323  12.890
77470NA+    NA+42950  17.253  30.147  13.021
77471NA+    NA+42951  18.591  15.151  11.456
77472NA+    NA+42952  40.437  36.899   0.397
77473NA+    NA+42953  34.404  31.045  12.826
77474NA+    NA+42954   1.864   4.842  12.835
77475NA+    NA+42955  26.540  20.599  14.879
77476NA+    NA+42956  14.636  36.080   1.450
77477NA+    NA+42957  27.683  14.674  10.463
77478NA+    NA+42958  10.298  14.121   2.850
77479NA+    NA+42959  29.509  10.314   2.744
77480NA+    NA+42960   4.891  29.955  11.052
77481NA+    NA+42961  23.633   2.809   0.918
77482NA+    NA+42962  19.568   1.395  14.449
77483NA+    NA+42963  25.180   6.408  10.469
77484NA+    NA+42964  31.033  21.189   4.270
77485NA+    NA+42965  39.841  16.317  13.977
77486NA+    NA+42966  43.473  43.342   4.270
77487NA+    NA+42967  33.468  41.516  13.951
77488NA+    NA+42968  33.498   1.928  14.309
77489NA+    NA+42969  25.137  13.810   4.239
77490NA+    NA+42970  26.483  10.215   1.827
77491NA+    NA+42971  24.670  32.625   2.871
77492NA+    NA+42972  33.971  15.279   4.258
77493NA+    NA+42973  28.081  26.128  11.561
77494NA+    NA+42974  14.615   6.309   1.876
77495NA+    NA+42975  35.369  16.149   2.854
77496NA+    NA+42976   9.208  29.026  13.817
77497NA+    NA+42977  44.360  44.816  13.412
77498NA+    NA+42978  11.737  25.163  13.062
77499NA+    NA+42979  21.673  10.857  10.437
77500NA+    NA+42980  26.515  44.787   1.794
77501NA+    NA+42981  41.010  41.985   1.305
77502NA+    NA+42982  41.906  36.847   3.188
77503NA+    NA+42983   5.206  29.065   3.264
77504NA+    NA+42984  25.710  40.429  11.529
77505NA+    NA+42985  34.043   1.261   3.290
77506NA+    NA+42986  21.092   2.449  11.940
77507NA+    NA+42987   1.463  16.243   1.897
77508NA+    NA+42988  33.622  21.146   2.234
77509NA+    NA+42989   9.184  22.581  10.001
77510NA+    NA+42990   4.704  38.955   4.342
77511NA+    NA+42991  23.493  25.515   1.401
77512NA+    NA+42992  32.023  31.086   3.696
77513NA+    NA+42993   2.909  36.359  10.943
77514NA+    NA+42994  35.579  22.656   2.381
77515NA+    NA+42995  14.679  20.143  12.541
77516NA+    NA+42996  30.584  14.176   0.251
77517NA+    NA+42997  43.826  33.539  12.472
77518NA+    NA+42998  35.880   5.721   3.357
77519NA+    NA+42999  37.391  40.798  12.520
77520NA+    NA+43000  26.160  13.215  10.597
77521NA+    NA+43001   3.427  28.465   3.234
77522NA+    NA+43002  29.971  19.726   2.898
77523NA+    NA+43003  42.436   8.178   1.736
77524NA+    NA+43004  43.279   1.811  13.008
77525NA+    NA+43005  10.287  34.504  14.388
77526NA+    NA+43006  18.707  20.610   4.116
77527NA+    NA+43007  13.222   4.790   2.704
77528NA+    NA+43008  35.055  33.943  13.504
77529NA+    NA+43009  28.546  27.594  14.475
77530NA+    NA+43010  32.111  34.398   3.633
77531NA+    NA+43011  37.550  13.616  11.411
77532NA+    NA+43012  21.705  18.722  14.306
77533NA+    NA+43013  43.832  38.371  14.987
77534NA+    NA+43014  16.642  40.798   3.338
77535NA+    NA+43015   0.878   4.825  14.360
77536NA+    NA+43016  21.149  38.947   0.336
77537NA+    NA+43017  19.749  28.650  12.989
77538NA+    NA+43018  21.686   4.311  10.430
77539NA+    NA+43019  10.332  24.595  14.933
77540NA+    NA+43020  35.995   7.678  11.974
77541NA+    NA+43021  44.914  30.595   4.668
77542NA+    NA+43022  28.059  41.043  10.532
77543NA+    NA+43023  36.497  32.591   2.756
77544NA+    NA+43024  32.949  42.868   3.666
77545NA+    NA+43025   0.922  20.142  13.972
77546NA+    NA+43026  31.047  17.283   1.300
77547NA+    NA+43027  31.050  41.978  10.895
77548NA+    NA+43028  17.178  12.233   3.840
77549NA+    NA+43029   4.885  38.828   3.368
77550NA+    NA+43030   4.784  29.026  11.039
77551NA+    NA+43031  28.624  38.454  13.316
77552NA+    NA+43032  17.627  44.953   2.773
77553NA+    NA+43033  28.499  34.532   0.774
77554NA+    NA+43034  33.903   1.304  12.920
77555NA+    NA+43035  21.114  43.437   2.189
77556NA+    NA+43036   6.873  37.830   4.701
77557NA+    NA+43037  18.659  11.223   1.908
77558NA+    NA+43038   9.739  24.674  11.036
77559NA+    NA+43039  36.975  20.171  11.099
77560NA+    NA+43040  40.472  29.919   2.765
77561NA+    NA+43041  18.138  20.127   4.309
77562NA+    NA+43042   6.384   6.297   0.415
77563NA+    NA+43043  32.920   5.873   1.850
77564NA+    NA+43044  18.132  25.493  13.941
77565NA+    NA+43045   9.778  30.005   4.288
77566NA+    NA+43046  21.255  41.036  12.385
77567NA+    NA+43047  21.662   2.931   2.765
77568NA+    NA+43048  34.445  18.548  14.428
77569NA+    NA+43049  15.660  16.311  10.974
77570NA+    NA+43050  32.955  11.662   1.787
77571NA+    NA+43051  10.669  25.157  12.392
77572NA+    NA+43052  13.321   6.205   3.686
77573NA+    NA+43053  27.164   3.238   2.824
77574NA+    NA+43054  34.961  41.431   9.928
77575NA+    NA+43055   6.709   5.328   4.789
77576NA+    NA+43056  15.128  23.493   2.776
77577NA+    NA+43057  44.964  40.917   0.930
77578NA+    NA+43058  30.106  42.821  14.400
77579NA+    NA+43059  11.775  18.216  13.442
77580NA+    NA+43060  22.549   2.296   4.236
77581NA+    NA+43061  11.188  10.848   1.297
77582NA+    NA+43062   7.369  40.892   1.830
77583NA+    NA+43063   7.233  39.875   1.379
77584NA+    NA+43064  38.913  41.795   2.804
77585NA+    NA+43065  12.248  42.400  13.032
77586NA+    NA+43066   4.829   2.794  11.550
77587NA+    NA+43067  26.471   1.333   3.688
77588NA+    NA+43068   7.195  21.712  14.828
77589NA+    NA+43069  29.576  40.463  12.878
77590NA+    NA+43070  16.774  20.583   1.754
77591NA+    NA+43071  22.537  29.164   1.821
77592NA+    NA+43072  35.576  15.282   0.448
77593NA+    NA+43073  31.516   2.405   4.194
77594NA+    NA+43074  39.821  27.945   2.219
77595NA+    NA+43075  38.044   1.379   1.329
77596NA+    NA+43076   3.939  32.078  12.892
77597NA+    NA+43077  11.193  11.858   1.369
77598NA+    NA+43078  20.167  13.714  11.948
77599NA+    NA+43079  11.700  21.054  10.434
77600NA+    NA+43080   6.755  34.120   0.320
77601NA+    NA+43081  33.877  38.473   3.282
77602NA+    NA+43082  36.077  39.971   3.375
77603NA+    NA+43083  35.549  19.669   4.692
77604NA+    NA+43084  34.597   6.877  12.964
77605NA+    NA+43085   7.887  14.154  12.022
77606NA+    NA+43086  40.447  20.145   1.755
77607NA+    NA+43087  24.156  16.568  13.477
77608NA+    NA+43088  35.021  14.315  12.916
77609NA+    NA+43089  13.825   4.922  10.896
77610NA+    NA+43090  23.227   2.247   3.769
77611NA+    NA+43091  23.548   2.427  12.574
77612NA+    NA+43092  41.795   9.266   2.894
77613NA+    NA+43093  41.361   2.936  12.344
77614NA+    NA+43094  11.242  18.762  11.611
77615NA+    NA+43095   3.368  26.501   0.894
77616NA+    NA+43096  36.441  23.496  12.419
77617NA+    NA+43097  28.518  36.903  13.356
77618NA+    NA+43098  30.023   1.880  11.519
77619NA+    NA+43099   4.219   7.378   0.738
77620NA+    NA+43100  40.006  21.590  13.429
77621NA+    NA+43101  13.319  41.379   1.445
77622NA+    NA+43102  40.817   6.721  10.568
77623NA+    NA+43103   8.762   0.827  14.916
77624NA+    NA+43104  14.670   8.403   0.848
77625NA+    NA+43105  22.249  37.852  10.530
77626NA+    NA+43106  36.359   1.798   5.252
77627NA+    NA+43107   0.754  10.708   0.953
77628NA+    NA+43108  14.154  44.927  10.123
77629NA+    NA+43109  25.517  38.821   3.238
77630NA+    NA+43110  22.214  43.306   0.436
77631NA+    NA+43111   6.193   0.313   3.338
77632NA+    NA+43112  22.015  22.603  11.029
77633NA+    NA+43113  20.590  44.455   1.837
77634NA+    NA+43114  33.596  19.555  10.618
77635NA+    NA+43115  34.540  40.398  14.893
77636NA+    NA+43116  39.434   5.326  14.453
77637NA+    NA+43117  43.333   1.941   4.704
77638NA+    NA+43118   6.730  26.155  12.050
77639NA+    NA+43119  23.635   4.440  12.973
77640NA+    NA+43120   4.895  12.767   2.701
77641NA+    NA+43121  10.827  22.676  11.414
77642NA+    NA+43122   6.353  27.129   4.758
77643NA+    NA+43123  33.493  22.701   4.816
77644NA+    NA+43124   5.843  38.826   1.326
77645NA+    NA+43125  41.987  37.989   4.343
77646NA+    NA+43126  15.607  24.517  11.583
77647NA+    NA+43127  20.678  18.774   0.928
77648NA+    NA+43128  12.155  25.559  12.088
77649NA+    NA+43129   4.802  18.694  10.431
77650NA+    NA+43130   0.787  35.434  11.589
77651NA+    NA+43131  38.355  34.069  13.484
77652NA+    NA+43132  38.395   0.973   3.155
77653NA+    NA+43133  41.387  25.077   3.324
77654NA+    NA+43134  20.230   0.931   1.225
77655NA+    NA+43135  37.428  44.427   0.275
77656NA+    NA+43136  39.546  10.224  14.288
77657NA+    NA+43137  36.974  28.150   0.455
77658NA+    NA+43138  30.508  24.625  12.447
77659NA+    NA+43139  36.533  29.988   0.734
77660NA+    NA+43140  22.127  17.194   0.906
77661NA+    NA+43141  10.654  41.399   1.409
77662NA+    NA+43142  10.743  25.657  13.923
77663NA+    NA+43143  28.634  17.094   1.338
77664NA+    NA+43144   7.698   6.735  11.054
77665NA+    NA+43145   6.832  17.219  14.318
77666NA+    NA+43146  29.093  32.582   4.754
77667NA+    NA+43147  21.229  39.331   3.281
77668NA+    NA+43148  18.713  40.969  13.432
77669NA+    NA+43149  18.137  10.813   3.695
77670NA+    NA+43150   4.886  39.327   0.849
77671NA+    NA+43151  14.127  12.730   2.678
77672NA+    NA+43152   2.236  15.610   3.645
77673NA+    NA+43153  30.009  15.192   3.860
77674NA+    NA+43154   2.832  23.124   1.765
77675NA+    NA+43155  43.483  24.126   1.711
77676NA+    NA+43156  18.177  13.662   4.345
77677NA+    NA+43157   9.375  35.873   2.301
77678NA+    NA+43158  22.667  11.253  12.558
77679NA+    NA+43159  12.620  21.242   4.759
77680NA+    NA+43160  20.090  35.029   3.210
77681NA+    NA+43161  43.775   2.943  14.446
77682NA+    NA+43162  13.220   5.234   4.694
77683NA+    NA+43163   8.229   1.904   2.709
77684NA+    NA+43164  10.861  35.853   3.260
77685NA+    NA+43165   4.307   2.942   0.362
77686NA+    NA+43166  17.139  16.201   3.304
77687NA+    NA+43167  25.583  36.487   3.764
77688NA+    NA+43168  16.632  15.092   1.905
77689NA+    NA+43169  28.454  37.927   2.283
77690NA+    NA+43170   5.371  32.062  14.989
77691NA+    NA+43171  39.523  31.473   3.827
77692NA+    NA+43172  23.535  38.465  12.023
77693NA+    NA+43173  39.013  15.295  12.004
77694NA+    NA+43174  26.598  34.901  14.303
77695NA+    NA+43175  21.722   9.735  10.943
77696NA+    NA+43176  30.138  19.779  13.372
77697NA+    NA+43177   5.383  42.973  12.346
77698NA+    NA+43178  40.414  21.544  12.924
77699CL-    CL-43179  31.598  35.515   0.425
77700CL-    CL-43180  41.527  38.544  14.352
77701CL-    CL-43181  17.640  12.313   2.188
77702CL-    CL-43182  23.524  41.367  11.982
77703CL-    CL-43183  13.839  11.131  11.564
77704CL-    CL-43184   9.719  31.617  14.494
77705CL-    CL-43185   3.882  41.513   4.154
77706CL-    CL-43186  32.037  38.539   3.289
77707CL-    CL-43187  15.135  42.429  13.035
77708CL-    CL-43188  10.301  20.728  12.843
77709CL-    CL-43189  41.475  11.743   3.360
77710CL-    CL-43190  38.017   4.879  13.868
77711CL-    CL-43191  32.105   4.944  13.926
77712CL-    CL-43192  44.006   0.421  13.415
77713CL-    CL-43193  24.019  35.391   4.341
77714CL-    CL-43194  42.526  12.155  13.519
77715CL-    CL-43195  37.466  31.000  12.346
77716CL-    CL-43196  31.019  43.513  11.432
77717CL-    CL-43197  11.192  23.986  12.494
77718CL-    CL-43198  27.031  41.451  11.519
77719CL-    CL-43199  11.801  31.640   4.260
77720CL-    CL-43200  10.748  30.531  12.413
77721CL-    CL-43201  30.470   1.864  10.989
77722CL-    CL-43202  33.968  37.961  12.361
77723CL-    CL-43203  10.635  15.216  12.039
77724CL-    CL-43204  29.022  29.485   4.751
77725CL-    CL-43205  34.576  18.637  10.584
77726CL-    CL-43206  15.313  38.561  10.619
77727CL-    CL-43207  18.201   3.806  10.456
77728CL-    CL-43208  20.601  26.621   3.181
77729CL-    CL-43209  31.080  18.639  14.513
77730CL-    CL-43210  31.087   3.318   2.855
77731CL-    CL-43211  24.527  11.340   4.284
77732CL-    CL-43212   9.281  13.285   4.676
77733CL-    CL-43213  21.657  24.044  10.143
77734CL-    CL-43214  25.698   1.413   1.340
77735CL-    CL-43215   2.427  15.812  12.400
77736CL-    CL-43216  37.977   9.680   4.833
77737CL-    CL-43217   8.754  21.032  11.529
77738CL-    CL-43218  40.505  32.424  12.482
77739CL-    CL-43219  42.375  28.453  11.399
77740CL-    CL-43220  17.686  13.188   4.681
77741CL-    CL-43221  10.228  39.390   0.289
77742CL-    CL-43222  13.176  32.400  11.117
77743CL-    CL-43223  13.283  32.125   2.684
77744CL-    CL-43224  24.490  43.855   3.320
77745CL-    CL-43225  43.440   0.480  13.888
77746CL-    CL-43226  44.871  27.041   4.811
77747CL-    CL-43227  28.472  22.025   0.737
77748CL-    CL-43228  19.079   6.242   4.666
77749CL-    CL-43229  33.452  26.993   1.892
77750CL-    CL-43230  17.153   7.729   4.148
77751CL-    CL-43231  33.022  10.831  12.938
77752CL-    CL-43232   8.677  24.045  14.499
77753CL-    CL-43233  24.994   0.348   2.336
77754CL-    CL-43234   1.395   7.754   0.344
77755CL-    CL-43235   8.368  39.939   3.838
77756CL-    CL-43236  35.907  10.685  14.454
77757CL-    CL-43237  27.071   1.303  10.405
77758CL-    CL-43238  29.967   7.840   3.788
77759CL-    CL-43239   3.717  42.493   0.840
77760CL-    CL-43240  42.340   3.321  13.853
77761CL-    CL-43241  28.081  26.633   4.609
77762CL-    CL-43242  30.996  35.889  14.338
77763CL-    CL-43243  41.819  21.142  11.961
77764CL-    CL-43244  44.435  13.306  10.568
77765CL-    CL-43245   1.311  10.184   1.740
77766CL-    CL-43246   2.739  21.120  11.107
77767CL-    CL-43247  13.784  17.119  13.383
77768CL-    CL-43248   8.741  41.845   5.169
77769CL-    CL-43249  24.200  16.123  14.971
77770CL-    CL-43250  20.740   1.386  13.369
77771CL-    CL-43251  29.150  29.062  12.897
77772CL-    CL-43252  31.467  11.217  13.938
77773CL-    CL-43253  23.640  27.555  12.519
77774CL-    CL-43254  35.068  44.861  14.448
77775CL-    CL-43255   1.450   4.304   4.159
77776CL-    CL-43256  43.992   2.804  11.945
77777CL-    CL-43257  27.616  25.082   4.809
77778CL-    CL-43258  33.491  27.642  14.821
77779CL-    CL-43259  31.114  37.927  13.916
77780CL-    CL-43260  23.588  39.355  11.107
77781CL-    CL-43261  13.773  13.343   3.363
77782CL-    CL-43262  13.673   1.798  11.964
77783CL-    CL-43263  37.972  11.163   3.191
77784CL-    CL-43264  42.401  37.453  11.899
77785CL-    CL-43265  39.974   5.199  14.363
77786CL-    CL-43266  39.845   4.389   2.815
77787CL-    CL-43267  33.026  19.115   0.844
77788CL-    CL-43268  11.172  36.872   0.819
77789CL-    CL-43269  16.168  17.149   3.768
77790CL-    CL-43270  13.289  30.151   3.322
77791CL-    CL-43271   8.867  17.695   0.354
77792CL-    CL-43272  38.035  36.492  11.532
77793CL-    CL-43273  28.171  17.621   0.926
77794CL-    CL-43274  25.986  21.744   4.694
77795CL-    CL-43275  28.184  14.609  12.057
77796CL-    CL-43276   6.905  33.062   2.278
77797CL-    CL-43277  41.348   0.382   3.305
77798CL-    CL-43278   0.803   9.690   1.794
77799CL-    CL-43279  28.972   8.741  14.980
77800CL-    CL-43280  24.154  37.407   0.433
77801CL-    CL-43281   9.220  32.632   4.323
77802CL-    CL-43282  32.569  37.023   0.953
77803CL-    CL-43283  23.030  33.461   1.436
77804CL-    CL-43284  42.960  13.256  14.829
77805CL-    CL-43285  21.655  10.274   1.850
77806CL-    CL-43286  21.522  37.062   1.366
77807CL-    CL-43287   3.931  14.322   4.286
77808CL-    CL-43288  14.780  29.442   0.802
77809CL-    CL-43289  13.328   2.415   0.931
77810CL-    CL-43290  30.439  41.333  11.015
77811CL-    CL-43291  12.778  44.474  14.781
77812CL-    CL-43292  19.635  20.099   2.805
77813CL-    CL-43293  35.952  27.048  10.629
77814CL-    CL-43294  35.102  24.719  10.487
77815CL-    CL-43295   6.812  29.456  13.498
77816CL-    CL-43296  20.236  20.191  12.422
77817CL-    CL-43297  30.943  22.613  12.578
77818CL-    CL-43298  11.146  27.588  12.539
77819CL-    CL-43299  32.394  38.016   4.263
77820CL-    CL-43300  16.715  11.323   4.801
77821CL-    CL-43301  34.454   1.958   2.749
77822CL-    CL-43302   7.206  33.975  13.459
77823CL-    CL-43303  29.163  13.142   0.913
77824CL-    CL-43304  26.571  40.483  10.497
77825CL-    CL-43305  30.924   7.833  12.997
77826CL-    CL-43306   1.900  44.448   0.854
77827CL-    CL-43307  23.057   2.468   0.251
77828CL-    CL-43308  29.587  17.180   4.242
77829CL-    CL-43309  25.643  40.526  14.509
77830CL-    CL-43310   1.262  16.616   2.898
77831CL-    CL-43311  21.178  25.554   1.268
77832CL-    CL-43312  26.958  44.448   4.332
77833CL-    CL-43313   7.359  32.072   1.357
77834CL-    CL-43314  12.623   8.767   1.826
77835CL-    CL-43315  12.338   1.849  10.483
77836CL-    CL-43316  15.220  38.409   2.332
77837CL-    CL-43317  10.685  15.594  12.401
77838CL-    CL-43318  26.528  40.453  14.376
77839CL-    CL-43319  33.980   5.284  14.843
77840CL-    CL-43320  25.164  36.386  12.412
77841CL-    CL-43321  20.121  40.417  11.479
77842CL-    CL-43322  37.840  36.861  12.877
77843CL-    CL-43323  12.778  19.655  11.085
77844CL-    CL-43324  31.000   8.211  13.999
77845CL-    CL-43325   6.771  14.225   0.475
77846CL-    CL-43326  10.644  35.410   2.407
77847CL-    CL-43327  19.274  21.178  11.909
77848CL-    CL-43328  13.350   5.409  12.970
77849CL-    CL-43329   9.728  21.606  14.962
77850CL-    CL-43330  44.920  29.020  11.924
77851CL-    CL-43331   1.739   0.973   2.815
77852CL-    CL-43332  42.892  16.802  12.824
77853CL-    CL-43333   4.247  26.610   1.238
77854CL-    CL-43334  27.558  13.256  13.503
77855CL-    CL-43335  42.870  44.355   0.885
77856CL-    CL-43336  19.204   4.709   4.221
77857CL-    CL-43337  29.565  13.715   0.350
77858CL-    CL-43338  40.332   4.339  12.921
77859CL-    CL-43339  18.287  24.047  12.840
77860CL-    CL-43340  14.102  22.514  10.892
77861CL-    CL-43341   3.934  42.457  12.484
77862CL-    CL-43342   2.928  22.517   1.327
77863CL-    CL-43343  21.680  17.647  14.439
77864CL-    CL-43344   4.282  28.151   1.449
77865CL-    CL-43345  35.422  18.137  12.964
77866CL-    CL-43346   3.362  28.110  11.067
77867CL-    CL-43347  26.104  29.978   0.897
77868CL-    CL-43348  29.472   7.202   1.308
77869CL-    CL-43349  18.199   8.865  12.995
77870CL-    CL-43350  44.761  22.066   1.695
77871CL-    CL-43351   7.831   9.654  10.983
77872CL-    CL-43352  26.501  11.781   1.249
77873CL-    CL-43353   4.387  17.788  10.955
77874CL-    CL-43354   9.871  17.656   2.724
77875CL-    CL-43355  23.588   1.467  14.359
77876CL-    CL-43356  36.976   3.947   1.429
77877CL-    CL-43357  16.774   1.469   0.381
77878CL-    CL-43358  23.062  43.368  13.009
77879CL-    CL-43359  44.805   8.707  13.001
77880CL-    CL-43360  44.479   2.436   0.384
77881CL-    CL-43361  35.039   3.249   1.860
77882CL-    CL-43362  18.609  42.319  11.891
77883CL-    CL-43363   3.784  30.458   1.916
77884CL-    CL-43364  10.866  34.028  11.528
77885CL-    CL-43365  36.493   9.333   2.370
77886CL-    CL-43366  37.930  16.304  10.587
77887CL-    CL-43367  30.413  12.663   3.792
77888CL-    CL-43368  23.156   9.719   0.885
77889CL-    CL-43369   6.250  10.858  10.602
77890CL-    CL-43370  12.254  40.459  13.382
77891CL-    CL-43371  43.010  24.009   0.418
77892CL-    CL-43372  11.740   3.821   2.790
77893CL-    CL-43373   5.287   5.207   0.942
77894CL-    CL-43374  27.045   8.873   2.729
77895CL-    CL-43375  29.026  32.039   3.828
77896CL-    CL-43376   1.313  13.243   1.310
77897CL-    CL-43377  41.356  29.472   3.322
77898CL-    CL-43378   9.392  12.694  11.892
77899CL-    CL-43379  21.087  42.862   0.276
77900CL-    CL-43380  38.876  43.816   0.765
77901CL-    CL-43381  37.863  33.556  10.096
77902CL-    CL-43382  28.128  16.574   0.321
77903CL-    CL-43383  25.094  14.132   2.849
77904CL-    CL-43384  30.085  38.407   4.286
77905CL-    CL-43385   4.289  18.189   3.315
77906CL-    CL-43386  28.472   5.872  12.933
77907CL-    CL-43387  43.824  35.996   0.268
77908CL-    CL-43388  27.154  44.268  13.547
77909CL-    CL-43389  22.576   5.857  10.574
77910CL-    CL-43390  16.290  37.065   4.244
77911CL-    CL-43391   4.809  31.638  13.430
77912CL-    CL-43392  22.501  26.693   1.277
77913CL-    CL-43393  19.711  11.338  14.409
77914CL-    CL-43394  16.741  18.676   3.743
77915CL-    CL-43395  18.751  31.937  10.942
77916CL-    CL-43396   6.281  44.935   9.931
77917CL-    CL-43397  26.671  38.939   2.726
77918CL-    CL-43398   4.343  18.660  14.422
77919CL-    CL-43399  31.949  38.420   0.483
77920CL-    CL-43400  25.583  23.194  13.346
77921CL-    CL-43401  42.856   4.400  10.619
77922CL-    CL-43402  44.441  11.730   4.754
77923CL-    CL-43403   3.325  32.480   2.406
77924CL-    CL-43404  40.991  30.032   4.701
77925CL-    CL-43405  36.059  18.059  13.402
77926CL-    CL-43406  11.717  33.048   2.359
77927CL-    CL-43407  31.437  14.828   3.331
77928CL-    CL-43408   8.812   2.751   3.673
77929CL-    CL-43409   1.879  26.166   4.759
77930CL-    CL-43410   6.301   8.179   0.387
77931CL-    CL-43411  43.924  22.220  12.340
77932CL-    CL-43412  18.101   3.910  14.823
77933CL-    CL-43413  11.698  18.097  10.432
77934CL-    CL-43414  18.189  35.499   4.190
77935CL-    CL-43415  18.689   2.803   2.684
77936CL-    CL-43416  43.448   5.233   1.313
77937CL-    CL-43417  30.921  24.078   0.446
77938CL-    CL-43418  25.673   3.315   4.133
77939CL-    CL-43419  26.968  28.464  11.526
77940CL-    CL-43420  15.614  27.956  12.451
77941CL-    CL-43421  27.161  32.957   3.374
77942CL-    CL-43422  38.990   9.338   4.612
77943CL-    CL-43423  26.470  35.378   4.723
77944CL-    CL-43424  27.051  35.057   0.830
77945CL-    CL-43425  11.348  35.541   4.747
77946CL-    CL-43426  29.980  40.962  12.838
77947CL-    CL-43427   2.914   4.700  14.499
77948CL-    CL-43428  20.234  10.847  13.436
77949CL-    CL-43429   4.867  36.046   0.962
77950CL-    CL-43430  36.541  38.957  12.993
77951CL-    CL-43431   0.478   8.741  13.351
77952CL-    CL-43432  31.029  20.172  10.590
77953CL-    CL-43433   2.962  41.307   0.245
77954CL-    CL-43434  15.309   4.835   4.602
77955CL-    CL-43435  35.396  40.917  14.766
77956CL-    CL-43436  25.190  21.238  14.374
77957CL-    CL-43437  44.377  26.970  10.421
77958CL-    CL-43438  34.530   7.780  14.764
77959CL-    CL-43439  40.021  26.635  10.425
77960CL-    CL-43440   1.860  31.637   1.282
77961CL-    CL-43441   1.881  39.545   3.273
77962CL-    CL-43442  27.654  42.910  11.088
77963CL-    CL-43443  23.123  28.063   2.888
77964CL-    CL-43444  15.775  23.204   1.330
77965CL-    CL-43445   0.289  40.367  13.371
77966CL-    CL-43446  22.530  26.475  13.918
77967CL-    CL-43447  41.404  35.475  13.924
77968CL-    CL-43448  36.538  37.944  10.442
77969CL-    CL-43449  39.939  13.189  12.378
77970CL-    CL-43450   4.219  13.713   0.375
77971CL-    CL-43451  14.195  30.553   1.803
77972CL-    CL-43452  42.006  25.984  13.513
77973CL-    CL-43453  19.662  34.907  14.318
77974CL-    CL-43454  29.039   5.302   0.462
77975CL-    CL-43455   9.266  36.088   5.258
77976CL-    CL-43456  36.097  24.988  12.563
77977CL-    CL-43457  38.929  19.224   0.286
77978CL-    CL-43458  22.656  17.779  14.316
77979CL-    CL-43459   2.296  29.573   4.142
77980CL-    CL-43460   3.930  26.476  11.907
77981CL-    CL-43461  32.114  37.849   4.258
77982CL-    CL-43462  10.204   9.235  13.802
77983CL-    CL-43463  13.261  28.651   0.921
77984CL-    CL-43464  10.364  30.095   0.318
77985CL-    CL-43465  10.801   8.304   3.188
77986CL-    CL-43466  15.130   1.754   1.355
77987CL-    CL-43467  37.917  23.594   0.929
77988CL-    CL-43468  16.255   6.380  11.078
77989CL-    CL-43469  41.860   4.335  12.420
77990CL-    CL-43470   3.899  10.344  11.045
77991CL-    CL-43471   3.812  33.878  10.625
77992CL-    CL-43472  25.017   6.887   3.367
77993CL-    CL-43473  23.601   7.363   1.846
77994CL-    CL-43474   0.430  39.880   1.903
77995CL-    CL-43475   0.793  32.929  14.858
77996CL-    CL-43476  39.979  24.191  13.853
77997CL-    CL-43477  23.637  15.086   4.340
77998CL-    CL-43478   9.772  19.567   5.238
77999CL-    CL-43479  27.493  37.358  12.028
78000CL-    CL-43480  28.527  18.624  13.316
78001CL-    CL-43481  31.077  34.532  12.837
78002CL-    CL-43482  26.639  36.549  13.964
78003CL-    CL-43483  39.349  15.305  13.430
78004CL-    CL-43484  12.641  43.009   3.742
78005CL-    CL-43485  27.504  35.963   2.188
78006CL-    CL-43486  41.938  38.978  13.405
78007CL-    CL-43487   9.890   6.218  12.049
78008CL-    CL-43488  43.842   9.387   0.961
78009CL-    CL-43489   3.246  30.981   2.362
78010CL-    CL-43490  31.104   0.462   4.341
78011CL-    CL-43491  27.547  41.902   3.814
78012CL-    CL-43492  18.260  30.930   0.481
78013CL-    CL-43493  42.429  37.369   3.750
78014CL-    CL-43494  13.297  40.813   5.722
78015CL-    CL-43495  20.660  36.943   4.600
78016CL-    CL-43496  41.819  19.267   1.873
78017CL-    CL-43497  35.367  32.004   3.775
78018CL-    CL-43498  11.211  28.564   4.755
78019CL-    CL-43499  21.067   3.833   4.323
78020CL-    CL-43500   7.335  28.091   0.827
78021CL-    CL-43501  15.735   9.750   0.882
78022CL-    CL-43502  23.025   1.398  14.428
78023CL-    CL-43503  26.489   1.754   1.743
78024CL-    CL-43504  27.551  13.221   4.320
78025CL-    CL-43505  37.881  34.575   2.214
78026CL-    CL-43506  20.590  11.178   1.368
78027CL-    CL-43507  40.345  43.936  12.072
78028CL-    CL-43508  27.030  27.056  13.494
78029CL-    CL-43509   3.403  20.681   2.780
78030CL-    CL-43510   7.196  15.643   1.746
78031CL-    CL-43511  14.594  38.927   3.815
78032CL-    CL-43512  10.659  32.007   4.321
78033CL-    CL-43513  34.978  44.379  13.397
78034CL-    CL-43514   3.862  41.024  11.125
78035CL-    CL-43515  40.515  40.422  13.862
78036CL-    CL-43516  24.090  34.516  12.925
78037CL-    CL-43517  33.004  44.297   0.873
78038CL-    CL-43518   1.942   8.274  11.499
78039CL-    CL-43519  31.516   6.791  10.446
78040CL-    CL-43520   7.873  13.716   2.210
78041CL-    CL-43521   9.388  26.467  12.981
78042CL-    CL-43522  19.569  13.718  11.124
78043CL-    CL-43523  41.516  10.734  14.772
78044CL-    CL-43524   8.782   1.913  13.816
78045CL-    CL-43525  27.527  23.137  12.481
78046CL-    CL-43526  24.030   7.363   4.140
78047CL-    CL-43527  30.485  21.185   3.683
78048CL-    CL-43528  34.610  42.822   0.339
78049CL-    CL-43529  24.114  18.156  14.842
78050CL-    CL-43530   7.250  42.972  12.824
78051CL-    CL-43531  31.402  23.502   4.142
78052CL-    CL-43532  31.573   6.401   1.732
78053CL-    CL-43533  30.995  43.823   1.852
78054CL-    CL-43534  44.454  41.788  13.845
78055CL-    CL-43535   2.729   7.735   1.339
78056CL-    CL-43536  32.490  29.523   0.471
78057CL-    CL-43537   7.759   1.459   4.134
78058CL-    CL-43538   2.798  35.082   0.922
78059CL-    CL-43539  31.997   6.353   1.736
78060CL-    CL-43540   3.262   3.328   3.233
78061CL-    CL-43541  23.163  13.107   2.866
78062CL-    CL-43542  36.467  16.183   1.386
78063CL-    CL-43543   9.204  32.558  11.892
78064CL-    CL-43544   3.739  34.108   4.229
78065CL-    CL-43545  22.188  18.169   2.280
78066CL-    CL-43546  27.532  18.776  10.927
78067CL-    CL-43547  32.405   7.307  10.997
78068CL-    CL-43548  33.544  11.343  11.045
78069CL-    CL-43549  19.100  26.170   3.681
78070CL-    CL-43550  39.417  17.762   0.417
78071CL-    CL-43551  32.922   8.336  11.439
78072CL-    CL-43552  31.057   4.792   2.222
78073CL-    CL-43553  36.505  16.590  11.554
78074CL-    CL-43554  12.161  20.203  14.929
78075CL-    CL-43555  17.647  14.700  14.450
78076CL-    CL-43556  31.146  25.504  13.792
78077CL-    CL-43557  19.279   2.826  11.956
78078CL-    CL-43558  18.171   7.840  10.553
78079CL-    CL-43559  24.050  34.892   2.256
78080CL-    CL-43560  34.016   9.886   2.363
78081CL-    CL-43561  10.815  33.468  14.933
78082CL-    CL-43562  14.608  24.202  10.536
78083CL-    CL-43563   4.838  17.289   2.382
78084CL-    CL-43564  20.165  31.928   0.475
78085CL-    CL-43565  27.607  16.758   4.808
78086CL-    CL-43566  36.458  28.102   0.883
78087CL-    CL-43567   8.253  27.128   0.307
78088CL-    CL-43568  10.860  41.508   3.204
78089CL-    CL-43569  10.793   7.310  11.066
78090CL-    CL-43570  44.397  17.593  14.504
78091CL-    CL-43571  16.701   2.797  13.973
78092CL-    CL-43572  42.918  28.477  10.627
78093CL-    CL-43573  41.825  33.519  12.368
78094CL-    CL-43574  14.269   4.418  12.462
78095CL-    CL-43575  43.807  15.779  14.313
78096CL-    CL-43576  18.140   1.251   1.860
78097CL-    CL-43577  18.756  29.130  14.417
78098CL-    CL-43578   2.438  38.892   0.438
78099CL-    CL-43579   8.336  19.168   1.751
78100CL-    CL-43580  43.769  43.431  14.933
78101CL-    CL-43581   2.837  26.583  14.781
78102CL-    CL-43582  34.578  37.912  11.956
78103CL-    CL-43583   5.702  27.998   0.790
78104CL-    CL-43584  11.651   5.898   1.433
78105CL-    CL-43585  18.580  32.488   0.872
78106CL-    CL-43586  30.146   4.925   0.375
78107CL-    CL-43587   7.800   9.278   3.379
78108CL-    CL-43588  25.020  41.847   0.888
78109CL-    CL-43589  34.537  26.024  10.491
78110CL-    CL-43590  20.664  17.663  10.942
78111CL-    CL-43591  21.220  42.031   1.748
78112CL-    CL-43592   8.360  37.340   0.463
78113CL-    CL-43593  32.467   0.812  12.974
78114CL-    CL-43594   8.757  23.674   1.737
78115CL-    CL-43595  41.843  12.625  11.593
78116CL-    CL-43596  17.691  40.833  14.945
78117CL-    CL-43597  25.217  21.221  12.362
78118CL-    CL-43598  44.352  12.648   1.902
78119CL-    CL-43599  17.802   7.356  13.829
78120CL-    CL-43600   8.691  35.050  11.411
78121CL-    CL-43601  38.874   0.949  14.448
78122CL-    CL-43602   2.793  23.517   0.293
78123CL-    CL-43603  10.373  39.383  13.401
78124CL-    CL-43604  35.590   0.328   0.900
78125CL-    CL-43605  23.062  41.033  11.035
78126CL-    CL-43606  15.771  19.222  14.846
78127CL-    CL-43607  21.150  13.614  14.964
78128CL-    CL-43608  18.575  12.781   3.161
78129CL-    CL-43609  41.499  43.948   4.300
78130CL-    CL-43610  40.547  37.382  10.464
78131CL-    CL-43611  41.965  35.883   3.807
78132CL-    CL-43612  30.022  22.561  10.575
78133CL-    CL-43613  36.944  13.733  11.924
78134CL-    CL-43614  40.503   1.943   0.342
78135CL-    CL-43615  40.431  17.666   4.736
78136CL-    CL-43616  10.772  18.154   0.466
78137CL-    CL-43617  27.571  14.271   0.351
78138CL-    CL-43618  32.893  16.570  13.964
78139CL-    CL-43619   2.872  41.374  13.437
78140CL-    CL-43620   1.273  15.142  13.384
78141CL-    CL-43621  34.912  31.620  11.517
78142CL-    CL-43622  26.025  15.302  11.505
78143CL-    CL-43623  39.482  22.184   4.173
78144CL-    CL-43624  17.709   3.233   5.235
78145CL-    CL-43625  33.557   7.773  12.443
78146CL-    CL-43626  34.579  43.020  14.860
78147CL-    CL-43627  32.006  35.895   1.325
78148CL-    CL-43628  16.119  25.616   2.713
78149CL-    CL-43629  30.524  25.579  14.487
78150CL-    CL-43630  38.501  22.140  14.935
78151CL-    CL-43631  24.691   1.454   0.441
78152CL-    CL-43632  23.039  15.636   2.368
78153CL-    CL-43633   1.306  11.277   3.344
78154CL-    CL-43634  27.504   5.432  12.886
78155CL-    CL-43635  34.409  14.793   3.360
78156CL-    CL-43636  15.709  31.475   2.749
78157CL-    CL-43637  13.714  11.727  12.450
78158CL-    CL-43638  33.118  21.029   1.234
78159CL-    CL-43639  18.709   0.798   3.355
78160CL-    CL-43640  21.192  33.453  13.938
78161CL-    CL-43641   8.821  18.781   0.791
78162CL-    CL-43642  14.300   5.785   4.125
78163CL-    CL-43643  22.627   1.481   2.843
78164CL-    CL-43644  21.072  22.503  11.066
78165CL-    CL-43645  16.250   2.402   2.400
78166CL-    CL-43646  43.427   7.884  12.933
78167CL-    CL-43647  19.154  36.940   2.379
78168CL-    CL-43648  18.238  19.104  13.511
78169CL-    CL-43649  33.977  13.716   3.857
78170CL-    CL-43650  14.279  10.763   4.149
78171CL-    CL-43651  25.681   3.724   1.864
78172CL-    CL-43652  27.656  23.669   2.843
78173CL-    CL-43653  20.220  44.753   9.478
78174CL-    CL-43654  37.536  37.052   1.366
78175CL-    CL-43655  17.649  28.487  13.381
78176CL-    CL-43656  16.589  30.155  11.947
78177CL-    CL-43657  36.978  24.974  10.618
78178CL-    CL-43658  41.823  24.147  13.025
78179CL-    CL-43659  10.673  41.827  12.428
78180CL-    CL-43660   3.904  13.647   2.288
78181CL-    CL-43661  29.453  34.872   2.889
78182CL-    CL-43662  12.124  36.507   1.841
78183CL-    CL-43663  21.758  29.082  10.447
78184CL-    CL-43664   4.442  14.300  11.478
78185CL-    CL-43665  42.399  39.490   4.275
78186CL-    CL-43666  11.208  12.282  12.916
78187CL-    CL-43667  20.639   6.718  10.892
78188CL-    CL-43668  37.996  17.663   2.419
78189CL-    CL-43669   8.397  44.276   3.723
78190CL-    CL-43670  17.799  39.854  11.493
78191CL-    CL-43671  12.168   9.866   0.774
78192CL-    CL-43672  28.124  13.832  14.277
78193CL-    CL-43673  15.772  42.344   0.275
78194CL-    CL-43674   8.859  17.799   4.214
78195CL-    CL-43675   2.808  43.464  14.482
78196CL-    CL-43676  36.368   6.368  14.824
78197CL-    CL-43677  28.163  40.878  10.131
78198CL-    CL-43678  29.131  37.407   3.850
78199CL-    CL-43679  34.064  38.400   0.758
78200CL-    CL-43680   4.242  21.651  12.496
78201CL-    CL-43681   4.336  33.444  12.824
78202CL-    CL-43682   7.178  39.958   2.179
78203CL-    CL-43683  30.577  37.342   1.350
78204CL-    CL-43684  34.069  28.660   3.237
78205CL-    CL-43685  11.303  27.117  13.999
78206CL-    CL-43686  37.558   3.360   0.414
78207CL-    CL-43687   7.837  10.311   1.780
78208CL-    CL-43688   9.833  27.060  11.419
78209CL-    CL-43689  29.482  32.574  10.577
78210CL-    CL-43690  44.001  32.048  14.435
78211CL-    CL-43691  24.669   0.434  13.449
78212CL-    CL-43692  23.708   1.781  13.954
78213CL-    CL-43693   3.780   4.719  14.884
78214CL-    CL-43694  27.459  39.329  13.896
78215CL-    CL-43695  35.600  23.022   2.256
78216CL-    CL-43696   7.317  24.044   2.668
78217CL-    CL-43697  28.025   7.286  11.038
78218CL-    CL-43698   5.754  15.139   1.427
78219CL-    CL-43699  21.030  40.924  13.840
78220CL-    CL-43700  26.509  44.452  12.457
78221CL-    CL-43701  23.721  37.079   0.361
78222CL-    CL-43702   3.408  24.574   4.818
78223CL-    CL-43703  28.150  24.553   4.338
78224CL-    CL-43704  20.207  30.056   4.817
78225CL-    CL-43705  30.964  28.018  12.406
78226CL-    CL-43706  21.597  36.352   0.350
78227CL-    CL-43707  25.024  23.180   3.168
78228CL-    CL-43708  14.800   3.790  14.905
78229CL-    CL-43709  41.012   6.882   9.949
78230CL-    CL-43710  20.129  27.635  10.090
78231CL-    CL-43711  36.436  38.925   3.279
78232CL-    CL-43712   3.415  23.578   1.865
78233CL-    CL-43713  12.742  21.218   2.738
78234CL-    CL-43714   9.224  41.324   0.794
78235CL-    CL-43715  43.922  34.954   2.351
78236CL-    CL-43716  44.923  32.910  10.503
78237CL-    CL-43717   9.796   8.334   0.748
78238CL-    CL-43718   2.740   8.838  13.445
78239CL-    CL-43719  25.537  13.255  13.460
78240CL-    CL-43720  10.812  38.499   1.707
78241CL-    CL-43721  21.632  15.757   3.641
78242CL-    CL-43722  16.133   1.860  13.004
78243CL-    CL-43723  25.707  41.417  13.404
78244CL-    CL-43724  20.561  22.147   3.381
78245CL-    CL-43725   3.876  42.429  13.976
78246CL-    CL-43726  30.452  19.181   0.726
78247CL-    CL-43727  12.692   3.806   0.319
78248CL-    CL-43728  23.603   5.688   0.812
78249CL-    CL-43729  31.604  11.200  14.455
78250CL-    CL-43730  33.926  18.685  14.022
78251CL-    CL-43731  25.480  10.192  13.436
78252CL-    CL-43732  37.873  37.040  11.098
78253CL-    CL-43733  42.785  35.081  13.330
78254CL-    CL-43734  43.921  35.593  12.448
78255CL-    CL-43735  11.328  13.608   0.297
78256CL-    CL-43736  10.765  31.940  13.351
78257CL-    CL-43737  33.996  13.839   0.316
78258CL-    CL-43738  21.041   1.247   0.961
78259CL-    CL-43739   0.348  20.083   1.906
78260CL-    CL-43740   2.792  28.485   1.332
78261CL-    CL-43741   7.321  28.154  10.979
78262CL-    CL-43742  40.906  37.943  12.927
78263CL-    CL-43743  36.517  29.506  10.135
78264CL-    CL-43744  36.446  41.525  11.389
78265CL-    CL-43745  42.844  20.671  10.910
78266CL-    CL-43746   8.368  11.348   1.292
78267CL-    CL-43747  11.841   4.801   4.351
78268CL-    CL-43748  18.654  15.664   0.917
78269CL-    CL-43749  22.006  21.685   4.661
78270CL-    CL-43750  24.043  18.608   2.248
78271CL-    CL-43751  26.661  24.586   0.418
78272CL-    CL-43752  16.709  27.187   0.312
78273CL-    CL-43753   2.229   0.284  11.000
78274CL-    CL-43754   5.210  37.081  14.483
78275CL-    CL-43755  31.113   6.906  12.547
78276CL-    CL-43756   6.854  27.974  11.441
78277CL-    CL-43757  39.951  28.956  12.545
78278CL-    CL-43758  41.416  37.973  12.431
78279CL-    CL-43759  14.671  31.480  12.365
78280CL-    CL-43760  13.333  36.400  14.309
78281CL-    CL-43761   4.857  25.963  14.934
78282CL-    CL-43762  13.345  27.101  10.493
78283CL-    CL-43763  12.613  38.863   3.169
78284CL-    CL-43764   3.270  25.018   1.320
78285CL-    CL-43765  44.762  27.625  13.346
78286CL-    CL-43766  36.535  30.088  13.517
78287CL-    CL-43767  42.834  41.388  13.909
78288CL-    CL-43768  18.648   0.490   9.956
78289CL-    CL-43769   1.865   8.846   4.792
78290CL-    CL-43770  17.086   2.793   1.360
78291CL-    CL-43771   9.815  26.183  12.362
78292CL-    CL-43772   7.871   3.422   1.392
78293CL-    CL-43773  27.562  29.506   2.325
78294CL-    CL-43774  32.448   9.872  10.432
78295CL-    CL-43775  17.572  30.152  14.866
78296CL-    CL-43776  18.286  18.574   4.204
78297CL-    CL-43777  39.985   2.417  11.528
78298CL-    CL-43778  41.945  35.579  14.759
78299CL-    CL-43779   8.235   3.305   4.742
78300CL-    CL-43780   5.316  27.947   3.289
78301CL-    CL-43781  35.410   0.409  11.084
78302CL-    CL-43782  29.045  27.458  12.550
78303CL-    CL-43783  19.249   8.802   0.966
78304CL-    CL-43784   9.327  10.148  11.901
78305CL-    CL-43785   0.274  24.676   0.807
78306CL-    CL-43786   9.794  41.864  12.497
78307CL-    CL-43787  40.402  21.545   1.716
78308CL-    CL-43788  26.006  15.098   0.931
78309CL-    CL-43789  17.587  14.609  11.442
78310CL-    CL-43790  14.722  16.801  14.856
78311CL-    CL-43791  12.308   6.846  13.026
78312CL-    CL-43792  22.652  18.239   2.355
78313CL-    CL-43793   6.246  36.436   0.326
78314CL-    CL-43794  32.058  43.814   0.792
78315CL-    CL-43795  17.191  41.438   5.200
78316CL-    CL-43796  35.019  34.454  10.908
78317CL-    CL-43797  26.570  14.631   1.758
78318CL-    CL-43798  25.667  10.789  11.076
78319CL-    CL-43799   4.329  35.933   1.388
78320CL-    CL-43800  12.305  44.448  12.403
78321CL-    CL-43801   3.824  43.966   4.249
78322CL-    CL-43802  19.580   3.710  13.958
78323CL-    CL-43803  32.510   1.420   3.195
78324CL-    CL-43804  28.488  23.026   0.853
78325CL-    CL-43805  32.026  10.176   0.365
78326CL-    CL-43806  12.646  25.065   2.700
78327CL-    CL-43807  35.884  29.525   1.337
78328CL-    CL-43808  30.097   6.390   0.290
78329CL-    CL-43809  23.057  23.613  13.855
78330CL-    CL-43810  13.303  17.718   0.459
78331CL-    CL-43811  22.639  21.665  11.598
78332CL-    CL-43812  25.638  38.926  13.898
78333CL-    CL-43813  32.006   0.414   0.881
78334CL-    CL-43814  37.068  26.040  14.025
78335CL-    CL-43815  14.589  23.083  10.981
78336CL-    CL-43816  37.377   6.733  13.469
78337CL-    CL-43817   6.186  34.530   3.679
78338CL-    CL-43818  10.762  31.906   1.274
78339CL-    CL-43819  23.033  42.456  13.322
78340CL-    CL-43820  32.949  23.732   0.303
78341CL-    CL-43821  27.588  15.285   4.707
78342CL-    CL-43822   9.188  24.176  14.425
78343CL-    CL-43823   8.173  23.639   3.861
78344CL-    CL-43824   1.734  33.498   3.658
78345CL-    CL-43825  23.231   3.853   2.363
78346CL-    CL-43826  22.226  17.666   4.765
78347CL-    CL-43827  44.298  20.264  11.860
78348CL-    CL-43828  37.567   6.256  14.327
78349CL-    CL-43829  25.638  32.130  12.480
78350CL-    CL-43830  14.224  43.949  12.571
78351CL-    CL-43831  22.183   9.782   1.724
78352CL-    CL-43832  25.029   9.154   3.657
78353CL-    CL-43833  14.176  17.734  10.461
78354CL-    CL-43834  30.037  18.623  12.007
78355CL-    CL-43835  21.160   7.362   2.352
78356CL-    CL-43836  38.344   4.843   2.270
78357CL-    CL-43837  17.609   7.188   2.664
78358CL-    CL-43838  20.191  13.235  12.357
78359CL-    CL-43839   2.343   5.786  12.573
78360CL-    CL-43840   4.767  39.034  14.927
78361CL-    CL-43841  30.975   0.346   4.695
78362CL-    CL-43842  36.503  12.653  11.404
78363CL-    CL-43843   1.361  36.569  13.801
78364CL-    CL-43844  24.634   3.403   3.146
78365CL-    CL-43845  34.378  37.455   2.685
78366CL-    CL-43846  30.516  29.471  11.439
78367CL-    CL-43847  43.512  20.639   4.836
78368CL-    CL-43848  23.139  27.634  14.877
78369CL-    CL-43849   2.858   0.462  10.603
78370CL-    CL-43850  17.071  32.622   2.204
78371CL-    CL-43851  20.228  14.718  11.928
78372CL-    CL-43852  20.706  31.952  13.941
78373CL-    CL-43853  37.964   6.267   1.748
78374CL-    CL-43854  13.608  14.764  10.640
78375CL-    CL-43855  25.668  19.719   2.799
78376CL-    CL-43856  34.379  34.442   3.188
78377CL-    CL-43857   4.727   0.352   1.919
78378CL-    CL-43858  21.582  18.640  13.005
78379CL-    CL-43859  11.756   6.295   4.728
78380CL-    CL-43860  41.827  32.069   3.747
78381CL-    CL-43861  41.452  27.581  13.991
78382CL-    CL-43862  30.487  13.258   3.854
78383CL-    CL-43863  21.247  12.168  10.930
78384CL-    CL-43864  22.603  12.230  14.814
78385CL-    CL-43865   9.760  15.300  14.495
78386CL-    CL-43866  20.139   5.331  14.450
78387CL-    CL-43867   9.188  44.006   4.215
78388CL-    CL-43868  12.819  10.166   0.338
78389CL-    CL-43869  24.487  31.110   1.450
78390CL-    CL-43870  12.129  38.387  13.843
78391CL-    CL-43871  21.703   6.235  13.507
78392CL-    CL-43872  41.791   1.344   1.802
78393CL-    CL-43873  14.635   6.761  14.408
78394CL-    CL-43874  16.217  19.590   4.602
78395CL-    CL-43875  16.684   9.693   1.393
78396CL-    CL-43876  33.558   0.447   4.245
78397CL-    CL-43877  29.585  13.183  11.020
78398CL-    CL-43878  35.086  30.429  10.001
78399CL-    CL-43879  21.606  30.513   1.210
78400CL-    CL-43880   7.198  39.943  14.923
78401CL-    CL-43881   3.816   1.935   2.374
78402CL-    CL-43882  16.266   3.461   4.689
78403CL-    CL-43883  22.530  34.081   1.815
78404CL-    CL-43884  20.154   6.356   1.392
78405CL-    CL-43885  35.552  35.414  11.971
78406CL-    CL-43886  44.799  33.413   4.304
78407CL-    CL-43887  33.092  41.960   4.736
78408CL-    CL-43888   1.770  17.634  11.534
78409CL-    CL-43889  26.622   3.379  12.548
78410CL-    CL-43890  38.563  39.041  12.439
78411CL-    CL-43891  35.873  22.636  10.557
78412CL-    CL-43892  42.997   7.297   0.806
78413CL-    CL-43893  31.062  16.804  12.523
78414CL-    CL-43894  34.437  36.074   2.333
78415CL-    CL-43895  43.930  26.628   3.861
78416CL-    CL-43896  22.061   0.757   1.266
78417CL-    CL-43897  39.932   5.716  11.963
78418CL-    CL-43898  23.098  27.070   4.268
78419CL-    CL-43899   8.381  12.849   0.266
78420CL-    CL-43900  12.308   9.212  12.064
78421CL-    CL-43901  16.296  29.621   0.916
78422CL-    CL-43902  18.060  15.788  10.486
78423CL-    CL-43903   1.829  34.573  11.554
78424CL-    CL-43904  28.606  13.831  13.308
78425CL-    CL-43905  41.306  38.944  14.827
78426CL-    CL-43906  39.036   0.361  12.011
78427CL-    CL-43907   4.420  29.638  13.873
78428CL-    CL-43908  26.515  14.171   4.194
78429CL-    CL-43909  11.833  42.471   0.968
78430CL-    CL-43910   6.278  35.950   3.293
78431CL-    CL-43911  43.910  21.164   4.608
78432CL-    CL-43912   4.917  34.459  11.454
78433CL-    CL-43913  42.787  31.503  14.991
78434CL-    CL-43914  13.816  37.072  14.452
78435CL-    CL-43915  32.569  20.651  11.450
78436CL-    CL-43916  22.557   6.413   4.309
78437CL-    CL-43917  38.397   0.808   0.269
78438CL-    CL-43918  19.133   7.194   1.917
78439CL-    CL-43919   7.875   3.348  10.545
78440CL-    CL-43920  31.511  24.686  12.870
78441CL-    CL-43921  24.504  15.756  14.368
78442CL-    CL-43922  11.291  12.769  12.459
78443CL-    CL-43923  26.046  32.577   3.697
78444CL-    CL-43924   1.743  16.183  14.826
78445CL-    CL-43925  39.937  29.496   0.844
78446CL-    CL-43926  37.350  43.789  14.424
78447CL-    CL-43927  31.576  38.502  11.514
78448CL-    CL-43928   7.702   1.894  12.824
78449CL-    CL-43929  12.361   4.265  13.338
78450CL-    CL-43930   9.698  28.047  14.360
78451CL-    CL-43931   8.778  26.967   2.814
78452CL-    CL-43932  15.650   8.745   2.801
78453CL-    CL-43933  31.145  17.681   3.799
78454CL-    CL-43934   4.399  24.627  11.424
78455CL-    CL-43935  35.005   7.908   2.183
78456CL-    CL-43936  21.696  29.663   1.741
78457CL-    CL-43937  14.103  16.585   2.297
78458CL-    CL-43938  18.075  11.274   1.852
78459CL-    CL-43939  15.765  40.418   2.779
78460CL-    CL-43940   3.868   3.334  14.013
78461CL-    CL-43941  32.061  33.880  14.504
78462CL-    CL-43942  17.215   5.698  10.562
78463CL-    CL-43943  13.190  24.128   0.914
78464CL-    CL-43944  27.056  24.182   2.235
78465CL-    CL-43945  18.718  22.120  10.589
78466CL-    CL-43946  32.391  15.165  13.394
78467CL-    CL-43947  35.002   2.764   2.330
78468CL-    CL-43948  17.637   0.463   1.417
78469CL-    CL-43949  21.618  24.506   2.711
78470CL-    CL-43950  28.515   5.750   0.270
78471CL-    CL-43951  43.394  42.422   4.217
78472CL-    CL-43952   5.843  19.674  13.815
78473CL-    CL-43953   4.448  10.215  12.028
78474CL-    CL-43954  33.974   4.435  14.932
78475CL-    CL-43955  41.908   4.375  13.345
78476CL-    CL-43956  38.988  30.952  10.511
78477CL-    CL-43957  12.211  41.519  12.987
78478CL-    CL-43958  17.125  21.234  10.532
78479CL-    CL-43959  43.869  25.500  12.836
78480CL-    CL-43960   6.400   6.742  11.467
78481CL-    CL-43961  30.047   2.313   2.192
78482CL-    CL-43962   5.700  13.109  10.607
78483CL-    CL-43963  26.536  12.634   2.668
78484CL-    CL-43964  40.421  26.699  10.442
78485CL-    CL-43965  23.121   4.205  15.000
78486CL-    CL-43966  41.912   9.844   1.221
78487CL-    CL-43967  38.509   0.476  14.841
78488CL-    CL-43968  11.672  37.542  11.968
78489CL-    CL-43969   5.803  16.658  10.450
78490CL-    CL-43970  17.292  14.118  14.382
78491CL-    CL-43971  13.352  24.651  10.407
78492CL-    CL-43972   0.871  12.187  10.887
78493CL-    CL-43973  41.029  12.322   1.443
78494CL-    CL-43974  40.962  38.454  11.046
78495CL-    CL-43975   9.643  29.570   4.335
78496CL-    CL-43976  33.562   5.725  12.365
78497CL-    CL-43977  40.539  14.718   4.757
78498CL-    CL-43978   0.798  43.469  10.562
78499CL-    CL-43979  30.514  29.159  14.791
78500CL-    CL-43980   0.259  32.573   2.398
78501CL-    CL-43981  13.188  12.629   2.745
78502CL-    CL-43982   1.920  34.884   3.284
78503CL-    CL-43983  14.694  44.489  14.392
78504CL-    CL-43984   3.344  32.901  12.439
78505CL-    CL-43985  30.497  40.408  14.302
78506CL-    CL-43986  14.305  16.732   4.292
78507CL-    CL-43987  21.612  24.039  13.861
78508CL-    CL-43988  21.512   4.265  11.606
78509CL-    CL-43989  20.741  11.768  13.995
78510CL-    CL-43990   2.746  13.817  10.534
78511CL-    CL-43991  19.655  28.177  11.856
78512CL-    CL-43992  16.665  20.543   3.274
78513CL-    CL-43993  20.063  13.143  13.060
78514CL-    CL-43994   4.891   8.860  13.820
78515CL-    CL-43995  32.124  27.955   3.776
78516CL-    CL-43996  35.048   7.703  10.454
78517CL-    CL-43997  20.583  12.734  12.927
78518CL-    CL-43998  21.197  17.607   3.756
78519CL-    CL-43999  19.734  39.875  14.834
78520CL-    CL-44000  31.525  10.354  13.036
78521CL-    CL-44001  22.602  15.241   4.653
78522CL-    CL-44002   5.754  18.164  10.925
78523CL-    CL-44003  34.083  17.607  12.059
78524CL-    CL-44004  12.615  10.279   2.718
78525CL-    CL-44005  22.672  15.603   2.341
78526CL-    CL-44006  20.535  14.168  14.874
78527CL-    CL-44007  12.704  41.889  14.297
78528CL-    CL-44008  22.704  15.085  11.923
78529CL-    CL-44009  13.672  29.521  11.989
78530CL-    CL-44010  10.774  30.100   3.149
78531CL-    CL-44011  26.051  44.467  11.857
78532CL-    CL-44012  24.604  22.698  12.016
78533CL-    CL-44013  22.625  25.640   0.309
78534CL-    CL-44014  36.535  27.188  13.427
78535CL-    CL-44015  43.358  35.431  13.907
78536CL-    CL-44016   6.840  40.946   1.322
78537CL-    CL-44017  26.690   8.757  11.502
78538CL-    CL-44018  42.979  18.201  12.339
78539CL-    CL-44019  33.040  39.384  12.058
78540CL-    CL-44020  44.806   9.682   2.712
78541CL-    CL-44021  36.477   1.279   4.772
78542CL-    CL-44022  17.254  14.177  11.938
78543CL-    CL-44023  42.806  31.587   1.831
78544CL-    CL-44024  13.123  30.955  11.943
78545CL-    CL-44025  28.023  18.233  13.358
78546CL-    CL-44026  22.240  32.058   2.740
78547CL-    CL-44027  42.456   2.409   2.332
78548CL-    CL-44028   2.763  26.568  11.875
78549CL-    CL-44029   6.254  13.827   2.819
78550CL-    CL-44030  13.624  44.342  14.310
78551CL-    CL-44031   3.351   2.433   1.716
78552CL-    CL-44032  43.324  28.977   0.918
78553CL-    CL-44033   0.962  13.172   3.338
78554CL-    CL-44034  39.814   0.481   2.708
78555CL-    CL-44035   7.680  37.050  12.445
78556CL-    CL-44036  44.795   9.875  13.988
78557CL-    CL-44037   9.157  33.601  14.478
78558CL-    CL-44038  29.980  38.410  10.113
78559CL-    CL-44039  29.645   9.876   4.213
78560CL-    CL-44040  10.832  38.033   0.733
78561CL-    CL-44041  13.789   4.312  11.019
78562CL-    CL-44042  36.053  11.162  11.462
78563CL-    CL-44043  12.680  16.306  14.991
78564CL-    CL-44044  14.317  19.094  11.909
78565CL-    CL-44045  36.061  10.171  12.396
78566CL-    CL-44046  34.874  17.754   0.860
78567CL-    CL-44047  20.243  10.286   4.776
78568CL-    CL-44048  14.729   8.254  10.625
78569CL-    CL-44049   9.676  36.082  11.897
78570CL-    CL-44050  44.267  34.474  13.497
78571CL-    CL-44051  34.065  18.172   0.801
78572CL-    CL-44052  36.003  33.535  14.873
78573CL-    CL-44053  11.679  22.661  12.975
78574CL-    CL-44054  33.433  24.031   3.711
78575CL-    CL-44055  26.483   5.336   2.213
78576CL-    CL-44056  25.487  14.295   3.685
78577CL-    CL-44057  33.087  13.199   2.419
78578CL-    CL-44058  37.057  20.272   2.731
78579CL-    CL-44059  34.982  40.457   2.247
78580CL-    CL-44060  31.901   5.380   3.280
78581CL-    CL-44061  25.507  14.238   4.691
78582CL-    CL-44062   8.756  10.350  12.040
78583CL-    CL-44063  44.287  32.510  13.485
78584CL-    CL-44064  20.524  22.144  12.364
78585CL-    CL-44065  17.227  13.784  13.928
78586CL-    CL-44066  24.612  30.913  14.922
78587CL-    CL-44067  32.467   1.899   2.254
78588CL-    CL-44068  35.031   9.672   4.641
78589CL-    CL-44069  13.670  30.123  11.564
78590CL-    CL-44070  33.570  26.659   9.970
78591CL-    CL-44071  39.384  33.952   1.372
78592CL-    CL-44072  39.318  39.921   0.273
78593CL-    CL-44073   5.889  10.874  11.497
78594CL-    CL-44074  43.276   7.727  13.530
78595CL-    CL-44075  17.612   7.700  14.011
78596CL-    CL-44076  22.245  39.444  11.918
78597CL-    CL-44077   7.286  20.552  13.938
78598CL-    CL-44078  21.119  16.304  13.957
78599CL-    CL-44079  35.530  11.818  14.003
78600CL-    CL-44080   7.748  44.377   9.945
78601CL-    CL-44081  44.474  41.301   3.702
78602CL-    CL-44082  20.222   7.771  11.086
78603CL-    CL-44083   1.393  40.386   0.283
78604CL-    CL-44084  39.894   8.780   3.790
78605CL-    CL-44085   1.846  38.403   1.743
78606CL-    CL-44086  27.502  35.548   2.354
78607CL-    CL-44087  16.738  43.289  11.008
78608CL-    CL-44088   8.760  41.356   1.385
78609CL-    CL-44089  14.647  38.439   4.162
78610CL-    CL-44090   2.267  41.500  10.533
78611CL-    CL-44091  22.233  18.122   1.390
78612CL-    CL-44092  28.075  15.724   1.411
78613CL-    CL-44093  20.649  41.933  10.568
78614CL-    CL-44094  33.934  35.408   4.653
78615CL-    CL-44095  33.088  35.604   1.434
78616CL-    CL-44096  30.530  36.991   1.441
78617CL-    CL-44097   6.826  22.027  10.449
78618CL-    CL-44098  36.000  15.124   0.370
78619CL-    CL-44099  39.031   9.747   1.353
78620CL-    CL-44100  16.659  27.649   1.304
78621CL-    CL-44101  14.283  35.575  13.829
78622CL-    CL-44102   8.360  41.039   4.786
78623CL-    CL-44103  38.839  28.476  10.976
78624CL-    CL-44104  27.561  17.115   3.181
78625CL-    CL-44105   9.857  26.550   3.348
78626CL-    CL-44106  33.982  31.117  10.976
78627CL-    CL-44107   8.823  44.791  14.777
78628CL-    CL-44108  37.563  19.651   0.483
78629CL-    CL-44109  15.640  24.520   0.360
78630CL-    CL-44110   5.268  14.127  13.483
78631CL-    CL-44111   1.260   9.848   1.254
78632CL-    CL-44112  15.768  35.049   3.281
78633CL-    CL-44113  17.125  29.599  10.516
78634CL-    CL-44114  16.738  33.061   5.313
78635CL-    CL-44115  21.676  10.708   1.827
78636CL-    CL-44116  21.026  39.469  14.835
78637CL-    CL-44117  19.624  30.470  12.507
78638CL-    CL-44118  37.853  30.566  13.804
78639CL-    CL-44119  22.195  20.101   3.314
78640CL-    CL-44120   5.311  24.046   2.899
78641CL-    CL-44121  39.553  30.568   3.192
78642CL-    CL-44122  12.220  10.847   2.214
78643CL-    CL-44123   2.933  30.480  14.410
78644CL-    CL-44124  33.887   8.302   3.687
78645CL-    CL-44125  22.521   5.871   2.293
78646CL-    CL-44126  23.540  44.999   3.379
78647CL-    CL-44127   9.754  34.056   3.854
78648CL-    CL-44128   6.261  35.988   4.655
78649CL-    CL-44129  33.934  44.359  13.458
78650CL-    CL-44130   1.446  21.097   3.293
78651CL-    CL-44131  15.245  28.012  14.316
78652CL-    CL-44132  12.778  34.471  11.003
78653CL-    CL-44133  10.722  29.057   2.859
78654CL-    CL-44134   9.804  25.694   1.335
78655CL-    CL-44135  23.233  24.676  10.904
78656CL-    CL-44136  10.250  19.724  10.532
78657CL-    CL-44137  32.516  13.247   3.787
78658CL-    CL-44138  31.628  13.824   3.827
78659CL-    CL-44139  31.640  14.763   1.868
78660CL-    CL-44140  39.424   0.432   3.173
78661CL-    CL-44141   6.807  29.429   1.795
78662CL-    CL-44142  33.107  43.433  12.356
78663CL-    CL-44143   7.807  24.028  11.514
78664CL-    CL-44144  30.952  30.472   3.694
78665CL-    CL-44145  30.918  13.805   2.782
78666CL-    CL-44146  32.070  11.783  14.379
78667CL-    CL-44147  26.207  37.997  12.377
78668CL-    CL-44148   5.837   2.935   3.727
78669CL-    CL-44149  23.120  26.969  13.919
78670CL-    CL-44150  18.265  37.533  11.496
78671CL-    CL-44151  16.230  21.151  12.439
78672CL-    CL-44152  23.221  14.113  11.026
78673CL-    CL-44153  37.354  36.907  11.449
78674CL-    CL-44154   2.808  36.512  11.884
78675CL-    CL-44155  30.938  43.396  11.127
78676CL-    CL-44156  40.425  30.107   0.825
78677CL-    CL-44157  41.028  41.325  13.515
78678CL-    CL-44158  37.055  28.570  14.282
78679CL-    CL-44159  26.492  40.971  10.993
78680CL-    CL-44160  15.783   6.242   1.835
78681CL-    CL-44161  17.212   2.297  11.485
78682CL-    CL-44162  11.744  13.292  13.832
78683CL-    CL-44163  40.858  18.091   3.329
78684CL-    CL-44164   9.780  22.082  13.978
78685CL-    CL-44165  22.127  14.182   4.785
78686CL-    CL-44166  22.607  37.059  11.057
78687CL-    CL-44167  35.022  16.184   2.852
78688CL-    CL-44168  40.024  18.276  13.538
78689CL-    CL-44169  11.206   7.183   0.949
78690CL-    CL-44170  31.440  12.612  10.456
78691CL-    CL-44171   0.360  25.085  14.484
78692CL-    CL-44172   1.962  14.805  12.061
78693CL-    CL-44173  19.138  28.968   9.981
78694CL-    CL-44174   4.289  38.076   4.805
78695CL-    CL-44175  40.421  42.464   3.707
78696CL-    CL-44176  37.356  23.509   2.217
78697CL-    CL-44177  28.098  38.014  11.111
78698CL-    CL-44178  10.208  15.771  14.884
78699CL-    CL-44179  37.976  11.161  14.515
78700CL-    CL-44180  19.776  18.160   2.282
78701CL-    CL-44181  15.275  31.468  12.044
78702CL-    CL-44182  23.560  35.934   0.908
78703CL-    CL-44183  19.220  31.937  12.937
78704CL-    CL-44184  12.681  37.031  11.603
78705CL-    CL-44185  37.337   6.319   0.288
78706CL-    CL-44186   7.912  37.573   4.152
78707CL-    CL-44187  11.735  43.765   4.662
78708CL-    CL-44188  36.527  40.032   4.136
78709CL-    CL-44189  38.872  35.572  12.959
78710CL-    CL-44190  16.228  19.106   1.300
78711CL-    CL-44191  26.179  37.395   1.796
78712CL-    CL-44192  40.940   0.304   0.439
78713CL-    CL-44193  17.597  19.121  13.898
78714CL-    CL-44194   6.920  11.633  11.874
78715CL-    CL-44195  41.003   1.461   4.799
78716CL-    CL-44196  21.710   0.481  12.049
78717CL-    CL-44197  34.931  15.607  12.515
78718CL-    CL-44198   9.232  15.623  11.121
78719CL-    CL-44199  18.636  43.004  10.079
78720CL-    CL-44200   8.687  44.978   3.736
78721CL-    CL-44201  43.488  21.246  14.508
78722CL-    CL-44202  15.580  40.456   3.709
78723CL-    CL-44203  10.288   4.798   3.836
78724CL-    CL-44204  19.283  11.843  10.597
78725CL-    CL-44205  33.515   2.225  10.541
78726CL-    CL-44206  27.039  38.528   1.779
78727CL-    CL-44207   8.220  31.914   3.688
78728CL-    CL-44208  22.543  19.101  11.947
78729CL-    CL-44209  22.084   4.445  12.925
78730CL-    CL-44210  19.669   8.680   2.373
78731CL-    CL-44211  33.487  18.720  10.529
78732CL-    CL-44212   3.864  10.162  14.862
78733CL-    CL-44213  23.024  42.371   3.820
78734CL-    CL-44214  34.484  44.428  14.346
78735CL-    CL-44215   7.860  19.638   4.348
78736CL-    CL-44216  17.731  10.742   4.635
78737CL-    CL-44217  10.374   4.433  14.395
78738CL-    CL-44218  40.014   2.233   2.812
78739CL-    CL-44219  41.984  44.983   0.266
78740CL-    CL-44220  23.702  29.511  12.550
78741CL-    CL-44221  30.976  42.956  13.049
78742CL-    CL-44222  40.030  30.486   2.370
78743CL-    CL-44223  23.986  18.765   0.396
78744CL-    CL-44224   1.451  21.034   1.262
78745CL-    CL-44225  14.153  27.556   4.136
78746CL-    CL-44226   7.296   8.849   3.779
78747CL-    CL-44227  42.510  17.598  11.115
78748CL-    CL-44228  27.656  15.322  10.453
78749CL-    CL-44229  39.534  15.249   2.266
78750CL-    CL-44230  43.360  43.429  12.474
78751CL-    CL-44231  18.112  10.790   1.854
78752CL-    CL-44232  38.570   5.827   4.629
78753CL-    CL-44233  10.238  22.566   5.285
78754CL-    CL-44234   6.686  17.740  10.412
78755CL-    CL-44235  36.937  38.459  12.883
78756CL-    CL-44236   8.315  13.709   3.372
78757CL-    CL-44237  39.381  12.706   3.693
78758CL-    CL-44238  18.733   4.347  12.339
78759CL-    CL-44239   6.725  31.064  10.996
78760CL-    CL-44240  33.022  41.969  13.020
78761CL-    CL-44241  28.070  32.947  13.800
78762CL-    CL-44242  13.237  40.449  13.794
78763CL-    CL-44243  32.621  21.586  14.484
78764CL-    CL-44244   4.382  26.986  11.870
78765CL-    CL-44245  18.604  25.480  14.007
78766CL-    CL-44246   2.275  19.072  12.542
78767CL-    CL-44247  19.773  23.152  13.029
78768CL-    CL-44248  19.539   1.396   1.865
78769CL-    CL-44249   9.303  11.670   2.671
78770CL-    CL-44250  30.951   6.199  12.383
78771CL-    CL-44251  19.245   8.316  14.820
78772CL-    CL-44252  43.374  37.880  13.961
78773CL-    CL-44253  22.070   1.388   1.408
78774CL-    CL-44254  25.001  33.040   3.284
78775CL-    CL-44255  22.543  15.146   1.703
78776CL-    CL-44256  23.505  26.139   1.341
78777CL-    CL-44257  40.868  28.492  12.951
78778CL-    CL-44258   7.866  10.868  14.385
78779CL-    CL-44259  44.294  40.324  12.362
78780CL-    CL-44260  23.649  25.123   3.832
78781CL-    CL-44261  28.490  21.142   9.967
78782CL-    CL-44262  18.567  31.420  14.430
78783CL-    CL-44263  13.276  28.977  13.427
78784CL-    CL-44264   6.923  24.041  10.465
78785CL-    CL-44265   3.830  33.411   1.738
78786CL-    CL-44266  33.621   8.213   1.789
78787CL-    CL-44267  40.369  18.078   2.836
78788CL-    CL-44268   6.332   9.736   0.255
78789CL-    CL-44269  23.229  36.856  13.978
78790CL-    CL-44270  43.503  21.104  10.447
78791CL-    CL-44271  38.472  34.076   2.864
78792CL-    CL-44272  18.772   8.202   4.689
78793CL-    CL-44273   3.879  34.995   5.311
78794CL-    CL-44274  11.369   8.394   2.737
78795CL-    CL-44275  25.568   5.429  12.379
78796CL-    CL-44276  24.216   3.317   1.327
78797CL-    CL-44277  11.851   8.708  11.476
78798CL-    CL-44278   6.837  14.641  12.346
78799CL-    CL-44279  13.707  34.485  10.471
78800CL-    CL-44280  44.459  13.828   4.223
78801CL-    CL-44281  14.701  39.341   4.756
78802CL-    CL-44282  15.602  15.176   4.315
78803CL-    CL-44283   9.801  14.599  13.480
78804CL-    CL-44284   3.888  39.820  12.471
78805CL-    CL-44285  20.678  33.584   2.364
78806CL-    CL-44286  15.248  33.119  13.850
78807CL-    CL-44287   8.218  28.456   4.339
78808CL-    CL-44288   6.302  28.569   1.922
78809CL-    CL-44289  22.529  35.549   2.319
78810CL-    CL-44290  28.930  12.780  12.540
78811CL-    CL-44291  37.576   1.404   4.714
78812CL-    CL-44292  38.488  36.553  10.414
78813CL-    CL-44293  11.248  33.067   3.287
78814CL-    CL-44294  10.765  29.945  14.458
78815CL-    CL-44295  16.221  21.604  13.962
78816CL-    CL-44296  37.461   9.862  13.907
78817CL-    CL-44297  26.953  10.690   1.900
78818CL-    CL-44298   3.953  12.633   1.322
78819CL-    CL-44299  20.139   3.721   3.376
78820CL-    CL-44300  23.540  13.307  11.097
78821CL-    CL-44301  27.049   8.836   4.118
78822CL-    CL-44302  40.853  19.716  12.039
78823CL-    CL-44303  17.584  26.997  12.859
78824CL-    CL-44304  16.203  27.073  11.012
78825CL-    CL-44305  11.682  36.419  12.096
78826CL-    CL-44306  42.962   2.247  14.966
78827CL-    CL-44307  15.761  16.813  10.069
78828CL-    CL-44308   6.812  10.171  13.428
78829CL-    CL-44309  44.502  36.422  12.016
78830CL-    CL-44310   2.309  11.826   1.306
78831CL-    CL-44311  25.080  43.360  12.076
78832CL-    CL-44312   7.841  10.187   3.344
78833CL-    CL-44313  40.341  18.751   1.227
78834CL-    CL-44314  19.104  31.003   4.821
78835CL-    CL-44315  21.258   5.278  13.311
78836CL-    CL-44316  18.574  30.043   0.817
78837CL-    CL-44317  26.619  14.244  14.870
78838CL-    CL-44318  16.773  33.431   5.679
78839CL-    CL-44319  44.837  11.179   4.181
78840CL-    CL-44320  25.062  25.164   3.678
78841CL-    CL-44321   8.713  21.057   2.358
78842CL-    CL-44322  43.847  28.528   3.198
78843CL-    CL-44323  33.479  17.122   4.290
78844CL-    CL-44324  15.323  27.197   1.276
78845CL-    CL-44325   3.758  21.553   0.464
78846CL-    CL-44326  10.323  36.049  12.049
78847CL-    CL-44327   4.332  43.382   4.723
78848CL-    CL-44328  12.262   6.741  10.544
78849CL-    CL-44329   2.778  34.887   3.723
78850CL-    CL-44330  43.341   6.359  12.392
78851CL-    CL-44331  21.555  28.621   0.326
78852CL-    CL-44332   9.245  20.248   3.152
78853CL-    CL-44333  38.062  31.442  13.866
78854CL-    CL-44334  21.021  36.446   2.753
78855CL-    CL-44335   9.395   5.322  14.799
78856CL-    CL-44336  33.461  13.212  11.906
78857CL-    CL-44337  34.902   8.710   0.738
78858CL-    CL-44338  25.479  11.691   1.432
78859CL-    CL-44339  29.498   2.932   0.927
78860CL-    CL-44340   5.319  16.794   4.351
78861CL-    CL-44341   9.784  11.372  13.013
78862CL-    CL-44342  35.407  26.624   1.892
78863CL-    CL-44343  24.006  19.152   1.864
78864CL-    CL-44344  31.034  32.078  10.528
78865CL-    CL-44345  17.108  38.382   2.259
78866CL-    CL-44346  18.129  21.112   4.211
78867CL-    CL-44347  29.524   2.363  11.110
78868CL-    CL-44348  13.227  13.801  10.935
78869CL-    CL-44349   0.426  40.887  11.083
78870CL-    CL-44350   6.407  38.429   1.705
78871CL-    CL-44351  30.164  29.530  12.844
78872CL-    CL-44352  36.500  33.981   1.339
78873CL-    CL-44353  16.746   9.649  11.371
78874CL-    CL-44354  17.283  25.609   0.309
78875CL-    CL-44355  22.236  10.340  11.563
78876CL-    CL-44356  21.159  29.924   2.837
78877CL-    CL-44357  42.526  17.201  13.833
78878CL-    CL-44358   6.321  21.243   3.664
78879CL-    CL-44359   9.736  43.887   1.232
78880CL-    CL-44360  42.395   1.784  14.880
78881CL-    CL-44361   3.902   5.227  11.101
78882CL-    CL-44362  28.983  33.971   2.718
78883CL-    CL-44363   7.687  21.623   1.761
78884CL-    CL-44364  36.413  12.159  11.907
78885CL-    CL-44365  29.534  34.976   3.828
78886CL-    CL-44366  38.061  42.949  12.455
78887CL-    CL-44367  28.570   2.772  10.626
78888CL-    CL-44368   0.282  41.328  11.603
78889CL-    CL-44369  30.076  29.047  12.446
78890CL-    CL-44370  14.803  37.581   3.221
78891CL-    CL-44371  19.599   2.817  10.482
78892CL-    CL-44372  15.127  44.894   2.188
78893CL-    CL-44373  36.975  26.650  14.974
78894CL-    CL-44374  22.163  12.135  12.401
78895CL-    CL-44375  27.164  35.383   4.704
78896CL-    CL-44376  29.153  32.474  10.987
78897CL-    CL-44377  14.663  16.568  12.855
78898CL-    CL-44378  13.808  35.974   4.715
78899CL-    CL-44379  40.850  42.342   2.867
78900CL-    CL-44380  15.330  31.628  13.940
78901CL-    CL-44381  33.911  19.564   3.203
78902CL-    CL-44382  43.457   3.793  10.919
78903CL-    CL-44383  16.757  26.195  11.529
78904CL-    CL-44384   8.756  28.093   2.404
78905CL-    CL-44385  24.011  29.095   4.690
78906CL-    CL-44386   8.290  11.666  10.553
78907CL-    CL-44387  32.954  17.112   4.276
78908CL-    CL-44388   0.287   7.704  10.943
78909CL-    CL-44389  44.815  39.060   2.768
78910CL-    CL-44390  40.021   9.327  10.496
78911CL-    CL-44391   8.301  23.545  11.907
78912CL-    CL-44392  10.780  33.909   2.186
78913CL-    CL-44393  39.390  30.965  13.809
78914CL-    CL-44394  17.629  34.929  12.856
78915CL-    CL-44395  43.388  24.681  12.823
78916CL-    CL-44396  16.282   8.737   4.158
78917CL-    CL-44397  40.504  15.636  11.980
78918CL-    CL-44398   4.442  34.980  11.606
78919CL-    CL-44399  21.133  30.079   1.697
78920CL-    CL-44400  42.931   0.379   3.679
78921CL-    CL-44401  11.134   5.711   4.735
78922CL-    CL-44402   2.299  34.107  12.387
78923CL-    CL-44403  26.571  20.563  13.948
78924CL-    CL-44404  38.975  35.067  12.494
78925CL-    CL-44405  22.085   1.450   0.782
78926CL-    CL-44406  32.986  37.471  11.384
78927CL-    CL-44407  33.049   2.907  13.419
78928CL-    CL-44408   9.229  32.034   0.357
78929CL-    CL-44409  23.110   8.390  12.475
78930CL-    CL-44410  33.973   4.721   3.333
78931CL-    CL-44411   6.252  26.179  14.992
78932CL-    CL-44412  28.111  27.131  13.379
78933CL-    CL-44413  40.890  17.243  11.417
78934CL-    CL-44414  12.237  34.452   0.272
78935CL-    CL-44415  16.592  12.129  10.975
78936CL-    CL-44416  20.256   0.253  11.896
78937CL-    CL-44417   4.877   6.685   5.131
78938CL-    CL-44418  17.078  43.002   1.357
78939CL-    CL-44419  30.617  32.393   1.395
78940CL-    CL-44420  43.464  21.553   2.705
78941CL-    CL-44421  39.358  29.124  12.574
78942CL-    CL-44422  37.357  18.755  11.586
78943CL-    CL-44423  11.694   1.410   0.956
78944CL-    CL-44424  41.039  12.725  14.278
78945CL-    CL-44425  20.039  27.099   1.378
78946CL-    CL-44426  41.312  34.413   1.215
78947CL-    CL-44427  37.391  32.983   4.122
78948CL-    CL-44428  33.541  24.124   0.419
78949CL-    CL-44429  26.160  29.631   1.333
78950CL-    CL-44430  27.599  37.421   0.424
78951CL-    CL-44431  44.367   0.256   1.219
78952CL-    CL-44432  32.052  40.883   0.845
78953CL-    CL-44433   4.419  18.551   1.808
78954CL-    CL-44434  29.640   7.864  11.380
78955CL-    CL-44435  16.209  31.496  12.573
78956CL-    CL-44436  12.195   8.780   3.281
78957CL-    CL-44437  32.118  24.544   3.843
78958CL-    CL-44438  32.433   7.280  13.019
78959CL-    CL-44439  44.832  34.035   1.386
78960CL-    CL-44440  35.922  23.141   1.737
78961CL-    CL-44441  18.766  29.433  14.922
78962CL-    CL-44442  37.957  24.645  11.881
78963CL-    CL-44443  26.073   2.307  14.862
78964CL-    CL-44444  31.476  29.562  12.920
78965CL-    CL-44445  28.062   5.351  10.541
78966CL-    CL-44446   0.825  21.554  12.040
78967CL-    CL-44447  31.551  27.167  13.501
78968CL-    CL-44448  38.512  38.548   0.381
78969CL-    CL-44449  39.328  20.751   0.786
78970CL-    CL-44450   8.840  35.386   0.247
78971CL-    CL-44451   1.795  18.099   2.370
78972CL-    CL-44452  11.248   2.255  11.592
78973CL-    CL-44453  25.602   9.292   2.411
78974CL-    CL-44454  13.324  34.592  11.926
78975CL-    CL-44455   6.413   0.273   1.870
78976CL-    CL-44456   3.344  44.778  13.798
78977CL-    CL-44457  43.919   9.721   0.345
78978CL-    CL-44458  32.400  38.878  12.966
78979CL-    CL-44459  32.007   1.433   0.856
78980CL-    CL-44460   1.278  37.053  10.913
78981CL-    CL-44461  16.112  43.972   1.424
78982CL-    CL-44462  28.586   9.811  14.380
78983CL-    CL-44463  13.266  12.629  12.476
78984CL-    CL-44464  30.159  35.084  11.472
78985CL-    CL-44465  42.956  33.586  10.596
78986CL-    CL-44466   1.836   9.245  11.481
78987CL-    CL-44467  29.653   9.173  12.926
78988CL-    CL-44468  38.481  29.956   2.242
78989CL-    CL-44469  12.346  34.102   1.238
78990CL-    CL-44470  39.843  16.689   3.726
78991CL-    CL-44471  14.665  27.555   3.708
78992CL-    CL-44472   6.322  43.310  14.998
78993CL-    CL-44473  18.273  44.754   1.414
78994CL-    CL-44474  19.234  41.021  10.986
78995CL-    CL-44475  26.458  18.288   3.758
78996CL-    CL-44476  10.873  36.901   0.902
78997CL-    CL-44477  44.378  24.611  13.926
78998CL-    CL-44478  15.244  22.059   2.362
78999CL-    CL-44479   2.378   5.837  11.403
79000CL-    CL-44480   5.372  39.472  11.078
79001CL-    CL-44481  23.678  33.508  11.102
79002CL-    CL-44482   4.876   4.270   2.808
79003CL-    CL-44483  27.967   3.722   1.805
79004CL-    CL-44484  33.518   3.422  10.633
79005CL-    CL-44485  26.659  27.666  11.008
79006CL-    CL-44486   0.828  39.980  13.038
79007CL-    CL-44487  15.273  27.067   3.841
79008CL-    CL-44488  18.143  30.085   4.683
79009CL-    CL-44489  20.679  31.443   4.750
79010CL-    CL-44490  25.011  36.547  14.287
79011CL-    CL-44491  40.954  23.154   3.707
79012CL-    CL-44492   5.276  36.410   0.415
79013CL-    CL-44493   4.794  34.457   0.481
79014CL-    CL-44494  26.986  33.406  11.913
79015CL-    CL-44495   4.927   7.366  10.966
79016CL-    CL-44496  20.061  39.465   3.674
79017CL-    CL-44497  25.495  35.568   4.287
79018CL-    CL-44498   2.362   8.699  12.025
79019CL-    CL-44499  36.096  34.079  13.816
79020CL-    CL-44500   0.312  10.235   1.247
79021CL-    CL-44501   1.244  18.292   0.943
79022CL-    CL-44502  33.910   6.367  14.382
79023CL-    CL-44503  14.713  22.549  10.132
79024CL-    CL-44504  43.866  16.725   4.140
79025CL-    CL-44505  44.770  34.558  14.777
79026CL-    CL-44506   5.397  21.190   0.424
79027CL-    CL-44507  27.456  19.690   2.196
79028CL-    CL-44508  44.295  14.811  10.932
79029CL-    CL-44509  13.742   9.681  11.121
79030CL-    CL-44510  23.561  40.332   2.798
79031CL-    CL-44511  33.955   3.756   3.737
79032CL-    CL-44512  35.426  30.003   4.171
79033CL-    CL-44513  37.442  44.861  13.380
79034CL-    CL-44514  27.645  33.042   2.829
79035CL-    CL-44515  31.136   7.698   0.831
79036CL-    CL-44516  25.973  44.795  12.417
79037CL-    CL-44517  40.957   9.336  10.600
79038CL-    CL-44518  31.437  16.103   4.717
79039CL-    CL-44519   7.821  27.530   4.827
79040CL-    CL-44520  28.557   4.420   3.339
79041CL-    CL-44521  26.139  17.699  11.578
79042CL-    CL-44522  43.944  19.074   2.227
79043CL-    CL-44523  12.767  29.664  14.466
79044CL-    CL-44524  22.238   9.167   3.736
79045CL-    CL-44525  18.050  42.447  10.481
79046CL-    CL-44526  20.203   4.767   0.797
79047CL-    CL-44527  28.044  42.838  10.574
79048CL-    CL-44528  35.900  22.590  14.492
79049CL-    CL-44529  10.875   6.848  13.916
79050CL-    CL-44530   9.795  34.893   0.955
79051CL-    CL-44531  33.897  39.962   2.267
79052CL-    CL-44532  23.686   4.256   4.791
79053CL-    CL-44533  17.254  23.699  13.009
79054CL-    CL-44534  35.400   6.247   1.275
79055CL-    CL-44535  24.712   8.663  14.347
79056CL-    CL-44536  28.938  20.627   3.208
79057CL-    CL-44537   7.217   9.761   1.276
79058CL-    CL-44538  42.032  13.689  11.121
79059CL-    CL-44539  20.073   3.891  14.942
79060CL-    CL-44540  34.374  37.413   0.362
79061CL-    CL-44541  41.031  32.909   4.216
79062CL-    CL-44542  33.949  38.547   1.350
79063CL-    CL-44543  19.251  34.885  13.320
79064CL-    CL-44544   3.815   7.215   5.212
79065CL-    CL-44545   4.224   4.281  11.584
79066CL-    CL-44546  21.085  16.164  11.877
79067CL-    CL-44547  25.138  38.870   2.245
79068CL-    CL-44548   1.792  17.076  14.893
79069CL-    CL-44549   7.706  18.190  12.913
79070CL-    CL-44550  18.198   5.333  14.482
79071CL-    CL-44551  35.479  36.905  12.488
79072CL-    CL-44552   3.325  30.650  10.512
79073CL-    CL-44553  42.960  38.022  11.040
79074CL-    CL-44554  12.205   9.286   0.259
79075CL-    CL-44555  19.577  13.631  12.961
79076CL-    CL-44556  15.776  30.650  10.974
79077CL-    CL-44557  11.632  19.183   3.640
79078CL-    CL-44558  13.800  37.867   0.256
79079CL-    CL-44559   9.330  20.750  12.879
79080CL-    CL-44560   4.895  20.561  14.810
79081CL-    CL-44561  12.631  34.051   3.848
79082CL-    CL-44562  41.408  16.813   3.343
79083CL-    CL-44563  15.086   5.710   0.422
79084CL-    CL-44564  43.829   6.792  11.384
79085CL-    CL-44565  12.314  35.552   2.182
79086CL-    CL-44566  28.540  12.289  11.949
79087CL-    CL-44567  36.054  14.712   0.778
79088CL-    CL-44568  10.765  16.091  14.328
79089CL-    CL-44569  21.106  12.337  14.904
79090CL-    CL-44570  34.066   2.453   2.772
79091CL-    CL-44571  25.667  38.000  13.958
79092CL-    CL-44572  19.739  40.476  12.369
79093CL-    CL-44573  26.189  37.059   1.719
79094CL-    CL-44574  30.632   5.399  13.474
79095CL-    CL-44575  17.158  43.007   3.237
79096CL-    CL-44576  14.788   4.928  10.547
79097CL-    CL-44577  42.499  23.101   1.290
79098CL-    CL-44578   3.278  17.758   2.721
79099CL-    CL-44579   5.405  28.981   1.796
79100CL-    CL-44580  41.423  17.256  14.963
79101CL-    CL-44581  20.626  27.117   0.468
79102CL-    CL-44582  21.536  23.229  12.044
79103CL-    CL-44583  34.896  22.205  12.457
79104CL-    CL-44584  44.296  37.013   2.669
79105CL-    CL-44585  12.295  44.458   0.862
79106CL-    CL-44586  24.521   9.834  11.505
79107CL-    CL-44587  14.620  20.756   4.772
79108CL-    CL-44588  12.850  18.598   0.893
79109CL-    CL-44589  22.603  14.146   4.685
79110CL-    CL-44590   9.743  40.050   4.808
79111CL-    CL-44591  33.624   2.759  13.307
79112CL-    CL-44592  36.367  37.064  14.020
79113CL-    CL-44593   8.873  11.692   2.411
79114CL-    CL-44594  22.997  38.848  11.914
79115CL-    CL-44595  37.875  29.612   3.782
79116CL-    CL-44596  15.659  31.494  11.945
79117CL-    CL-44597  19.699  33.580  11.534
79118CL-    CL-44598  37.020   8.887  11.998
79119CL-    CL-44599  32.469  21.188   4.759
79120CL-    CL-44600  21.693   4.399   3.177
79121CL-    CL-44601   4.291  29.446  12.857
79122CL-    CL-44602  31.539  31.403  12.081
79123CL-    CL-44603  12.678  25.102   0.446
79124CL-    CL-44604  14.741   8.325  12.542
79125CL-    CL-44605  25.514   6.283  10.565
79126CL-    CL-44606  20.240  42.992   2.232
79127CL-    CL-44607  12.300  19.246  14.435
79128CL-    CL-44608  37.002  27.005   4.148
79129CL-    CL-44609  17.255  37.426  13.859
79130CL-    CL-44610  20.257  37.492  10.408
79131CL-    CL-44611  12.317  22.583   3.330
79132CL-    CL-44612  15.121  30.067  13.942
79133CL-    CL-44613  17.234   2.285   3.806
79134CL-    CL-44614  42.392  21.590  13.921
79135CL-    CL-44615  15.210  30.569   0.913
79136CL-    CL-44616  43.512  42.922  11.413
79137CL-    CL-44617  23.230  32.616   2.767
79138CL-    CL-44618  24.506  34.991   0.789
79139CL-    CL-44619  25.581  15.289   3.160
79140CL-    CL-44620  36.915  16.616   0.965
79141CL-    CL-44621  14.593  26.658  12.018
79142CL-    CL-44622  21.517   5.363   3.321
79143CL-    CL-44623   5.767  31.970   3.723
79144CL-    CL-44624  43.471  28.480  14.334
79145CL-    CL-44625  15.233  36.428  14.321
79146CL-    CL-44626  10.826  29.475  11.497
79147CL-    CL-44627  28.653  17.597  13.038
79148CL-    CL-44628  23.137   5.732  14.841
79149CL-    CL-44629  36.480  16.072   4.343
79150CL-    CL-44630  16.133  24.619   0.453
79151CL-    CL-44631   7.289  32.046   0.417
79152CL-    CL-44632  36.430   0.766   5.266
79153CL-    CL-44633  21.229  36.571  14.483
79154CL-    CL-44634  43.462  18.213   2.253
79155CL-    CL-44635  20.766   1.286  10.914
79156CL-    CL-44636   6.776  30.043  14.003
79157CL-    CL-44637  38.862  30.957  14.449
79158CL-    CL-44638  43.945  23.139   1.878
79159CL-    CL-44639  16.157  33.601   2.379
79160CL-    CL-44640  12.158  17.567  11.596
79161CL-    CL-44641  21.629  23.539  13.830
79162CL-    CL-44642  23.712  34.391   3.220
79163CL-    CL-44643   4.322  38.994   4.263
79164CL-    CL-44644  17.110  37.033  11.919
79165CL-    CL-44645  22.207  25.043  11.515
79166CL-    CL-44646  36.910  41.964  14.821
79167CL-    CL-44647  38.520  13.644   0.931
79168CL-    CL-44648  35.462  28.515   2.305
79169CL-    CL-44649  19.660   7.833  12.529
79170CL-    CL-44650  20.579  25.118   3.290
79171CL-    CL-44651   7.233  34.613   1.777
79172CL-    CL-44652  24.551   9.736  10.965
79173CL-    CL-44653  21.077  12.722   0.382
79174CL-    CL-44654   2.410  15.658   1.357
79175CL-    CL-44655  13.784  14.652  12.844
79176CL-    CL-44656  21.560   8.868   1.886
79177CL-    CL-44657  28.154  42.504  12.401
79178CL-    CL-44658  16.691  16.120   0.303
79179CL-    CL-44659  43.403  22.088   3.826
79180CL-    CL-44660  28.007  32.557  12.832
79181CL-    CL-44661  30.056  30.565   1.275
79182CL-    CL-44662  19.557  30.971  12.534
79183CL-    CL-44663  40.346  43.503  10.588
79184CL-    CL-44664   4.746  31.555   1.273
79185CL-    CL-44665  17.781  42.869   4.140
79186CL-    CL-44666  18.730   0.962   4.277
79187CL-    CL-44667  36.874  10.664  12.872
79188CL-    CL-44668   4.241   3.896   4.353
79189CL-    CL-44669  10.790  16.617  11.918
79190CL-    CL-44670  15.179   0.759   4.271
79191CL-    CL-44671  26.080  41.929  14.919
79192CL-    CL-44672  36.933  33.505   1.732
79193CL-    CL-44673  41.952  22.573  13.854
79194CL-    CL-44674  36.931  22.095   4.833
79195CL-    CL-44675  41.991   9.756  14.289
79196CL-    CL-44676  38.903  44.505   1.927
79197CL-    CL-44677  28.165   7.822   4.691
79198CL-    CL-44678  41.344  13.282   4.704
79199CL-    CL-44679  23.658  11.257  10.574
79200CL-    CL-44680  44.856  10.795  13.838
79201CL-    CL-44681  37.932  10.710   0.315
79202CL-    CL-44682  12.793  26.534   2.265
79203CL-    CL-44683   6.219  21.118   9.964
79204CL-    CL-44684   2.353   1.785   1.380
79205CL-    CL-44685  36.937  43.849  12.064
79206CL-    CL-44686  13.173  37.558  12.404
79207CL-    CL-44687  20.601  15.736   4.217
79208CL-    CL-44688  18.185  17.723   0.904
79209CL-    CL-44689  33.531  41.986  14.901
79210CL-    CL-44690  36.928  34.455   4.717
79211CL-    CL-44691   4.211  29.008  14.445
79212CL-    CL-44692  19.107  17.278   0.848
79213CL-    CL-44693  14.168   0.890  12.908
79214CL-    CL-44694  12.286   5.808   1.227
79215CL-    CL-44695  37.427  26.549  13.451
79216CL-    CL-44696  38.049  44.877   1.381
79217CL-    CL-44697  20.639  21.165   2.747
79218CL-    CL-44698  15.130   3.452  11.603
79219CL-    CL-44699  22.710  40.958   1.820
79220CL-    CL-44700  24.136   1.804   1.850
79221CL-    CL-44701  44.824  25.125   1.875
79222CL-    CL-44702  23.213   7.244  11.903
79223CL-    CL-44703  24.707   7.302  14.847
79224CL-    CL-44704  21.222   9.270  13.855
79225CL-    CL-44705  15.103  10.669  10.447
79226CL-    CL-44706  39.932  25.182  13.421
79227CL-    CL-44707  26.637  16.254  10.609
79228CL-    CL-44708  16.632  38.890  12.094
79229CL-    CL-44709  10.871  33.979   1.228
79230CL-    CL-44710  18.736  10.266  13.900
79231CL-    CL-44711  38.512  30.959  10.577
79232CL-    CL-44712   5.700  11.295   4.333
79233CL-    CL-44713  20.103  11.860   2.277
79234CL-    CL-44714  14.760  28.176  13.892
79235CL-    CL-44715   3.730  32.556   0.899
79236CL-    CL-44716  13.730  31.479  10.955
79237CL-    CL-44717  25.658  37.076  11.917
79238CL-    CL-44718  11.163   3.803  14.765
79239CL-    CL-44719  33.508  16.660   3.701
79240CL-    CL-44720  11.798  33.556  12.444
79241CL-    CL-44721  35.411  35.877  12.934
79242CL-    CL-44722  28.586  19.559  13.792
79243CL-    CL-44723  21.063   7.360  10.108
79244CL-    CL-44724  22.156  21.045  14.401
79245CL-    CL-44725  26.027   8.741   0.764
79246CL-    CL-44726  31.551  25.531   0.457
79247CL-    CL-44727  15.734   8.771   4.190
79248CL-    CL-44728   2.871  17.128   4.220
79249CL-    CL-44729  24.140  23.029  14.830
79250CL-    CL-44730  22.605  38.976  12.577
79251CL-    CL-44731  16.616  38.056  13.443
79252CL-    CL-44732  43.911  24.671  14.996
79253CL-    CL-44733  31.635  11.717   4.622
79254CL-    CL-44734   8.660  10.222  11.062
79255CL-    CL-44735  37.967  12.673   4.148
79256CL-    CL-44736  43.467  43.300   3.697
79257CL-    CL-44737  12.738  27.110   0.868
79258CL-    CL-44738  33.933   3.375   4.171
79259CL-    CL-44739   2.957  24.073   3.702
79260CL-    CL-44740  36.956  24.160   1.329
79261CL-    CL-44741  34.978   9.787   3.176
79262CL-    CL-44742  30.062   8.349  13.396
79263CL-    CL-44743   6.268  16.293   4.607
79264CL-    CL-44744  18.597  24.076   1.779
79265CL-    CL-44745  16.660  14.756  13.884
79266CL-    CL-44746  33.006   5.409  10.609
79267CL-    CL-44747  16.114  15.701  10.469
79268CL-    CL-44748  20.761  43.498   1.422
79269CL-    CL-44749  15.232  39.477  14.315
79270CL-    CL-44750   0.320  20.596   0.393
79271CL-    CL-44751   3.378   0.384  11.436
79272CL-    CL-44752  19.193  14.667  14.017
79273CL-    CL-44753  19.061  27.002   3.810
79274CL-    CL-44754  24.986  17.272  11.877
79275CL-    CL-44755  24.637  12.230  10.584
79276CL-    CL-44756  17.609  28.437  10.571
79277CL-    CL-44757  40.804  33.058  13.041
79278CL-    CL-44758  23.724  41.397  14.401
79279CL-    CL-44759   6.712  19.720  14.476
79280CL-    CL-44760  44.786  27.640   0.373
79281CL-    CL-44761  37.854   2.257   3.272
79282CL-    CL-44762  33.501  25.017  14.854
79283CL-    CL-44763  15.305  43.993   5.082
79284CL-    CL-44764  23.632  14.811  13.315
79285CL-    CL-44765   2.471  32.994   1.317
79286CL-    CL-44766  24.979  28.626   3.269
79287CL-    CL-44767  19.659  16.773  13.019
79288CL-    CL-44768   5.283  33.960   3.754
79289CL-    CL-44769  29.648  17.288   0.397
79290CL-    CL-44770   3.328  40.323   0.880
79291CL-    CL-44771  30.152   0.811   4.259
79292CL-    CL-44772  38.895   8.253  13.939
79293CL-    CL-44773  20.032  12.846  10.928
79294CL-    CL-44774  30.915  40.306   4.299
79295CL-    CL-44775   4.929  10.674   3.762
79296CL-    CL-44776  27.947  30.109   0.869
79297CL-    CL-44777  22.554   9.773   2.703
79298CL-    CL-44778   1.840  29.573  13.898
79299CL-    CL-44779  27.569  24.513  10.516
79300CL-    CL-44780  18.177   1.770   3.330
79301CL-    CL-44781   5.708  36.460   3.870
79302CL-    CL-44782  39.887  28.639  13.897
79303CL-    CL-44783   3.286  10.163   0.346
79304CL-    CL-44784  27.685  43.399   0.424
79305CL-    CL-44785  30.562  42.953  13.805
79306CL-    CL-44786   5.705   1.268   3.681
79307CL-    CL-44787  41.343  14.101  12.455
79308CL-    CL-44788  20.162  43.769   2.390
79309CL-    CL-44789  36.475  30.015  14.331
79310CL-    CL-44790  43.866  11.687   4.717
79311CL-    CL-44791  12.162  12.315   0.464
79312CL-    CL-44792  23.098  28.128   1.389
79313CL-    CL-44793  24.110   5.854  10.944
79314CL-    CL-44794  39.386  10.827   3.765
79315CL-    CL-44795  17.115  16.115   1.878
79316CL-    CL-44796  23.734  23.624   0.875
79317CL-    CL-44797  15.787  27.039  14.489
79318CL-    CL-44798  22.107   2.241   3.380
79319CL-    CL-44799  41.314   6.418   3.695
79320CL-    CL-44800  43.842  16.578  12.827
79321CL-    CL-44801   7.866  43.774   0.773
79322CL-    CL-44802  42.387  42.377  14.915
79323CL-    CL-44803  29.521  24.108   1.425
79324CL-    CL-44804  41.977  21.641   3.631
79325CL-    CL-44805  18.073  16.579  12.376
79326CL-    CL-44806   1.447  21.701   3.220
79327CL-    CL-44807  15.244  19.100  11.938
79328CL-    CL-44808   4.877  24.605   0.344
79329CL-    CL-44809  40.446  12.829  14.327
79330CL-    CL-44810   4.888  17.571   1.929
79331CL-    CL-44811  30.057  27.132  14.872
79332CL-    CL-44812  14.258   6.870   4.272
79333CL-    CL-44813  26.695   0.861   5.230
79334CL-    CL-44814  34.881   9.725  11.989
79335CL-    CL-44815  26.192  18.568  12.397
79336CL-    CL-44816  13.247  36.512   3.735
79337CL-    CL-44817  28.492   6.253  10.999
79338CL-    CL-44818  12.755  31.575   1.836
79339CL-    CL-44819   2.389   3.746  14.981
79340CL-    CL-44820  24.992  36.920  10.610
79341CL-    CL-44821  43.868  12.793   4.247
79342CL-    CL-44822  30.983   7.199   4.729
79343CL-    CL-44823  38.961  24.605   3.206
79344CL-    CL-44824   4.355   9.165   0.797
79345CL-    CL-44825  36.508   2.787  11.039
79346CL-    CL-44826  41.449  16.305   3.653
79347CL-    CL-44827  27.072  27.954   2.386
79348CL-    CL-44828  32.501  13.763  13.895
79349CL-    CL-44829  16.292  19.080  11.914
79350CL-    CL-44830  12.698  40.493  11.378
79351CL-    CL-44831  12.280  38.963  14.276
79352CL-    CL-44832  36.977  16.253   1.901
79353CL-    CL-44833  31.440  19.125   1.449
79354CL-    CL-44834  21.216   8.692   9.576
79355CL-    CL-44835  33.002  19.135   3.868
79356CL-    CL-44836  24.053  11.358  12.418
79357CL-    CL-44837   3.340  26.180  10.495
79358CL-    CL-44838  26.140  17.284  13.349
79359CL-    CL-44839  36.406  13.275  12.374
79360CL-    CL-44840  31.460  20.036   3.816
79361CL-    CL-44841  36.430  24.674  14.390
79362CL-    CL-44842  34.406  16.711   4.772
79363CL-    CL-44843  17.086  27.969  13.504
79364CL-    CL-44844  44.907  30.466  14.028
79365CL-    CL-44845  41.360  19.080  13.871
79366CL-    CL-44846  41.898   2.353   1.360
79367CL-    CL-44847  21.561   5.754   1.811
79368CL-    CL-44848  23.153  18.647   0.923
79369CL-    CL-44849   4.870  23.528  14.003
79370CL-    CL-44850  26.024   7.878  12.470
79371CL-    CL-44851  12.330  12.159   0.964
79372CL-    CL-44852  35.523  26.095  13.872
79373CL-    CL-44853  29.557  24.562   2.224
79374CL-    CL-44854  21.184  19.638   0.824
79375CL-    CL-44855  11.320  12.151  10.983
79376CL-    CL-44856  19.216   7.392   4.771
79377CL-    CL-44857  39.430  39.513   1.325
79378CL-    CL-44858  31.994  15.120   4.604
79379CL-    CL-44859  25.019  29.480   4.837
79380CL-    CL-44860  15.318  43.397  14.018
79381CL-    CL-44861  43.815   5.272   2.385
79382CL-    CL-44862  18.613  39.366  14.002
79383CL-    CL-44863  26.608   2.316   0.460
79384CL-    CL-44864  42.840   7.869   4.244
79385CL-    CL-44865   1.426  16.781   1.930
79386CL-    CL-44866  26.556  43.295   0.763
79387CL-    CL-44867  39.556  20.668  14.286
79388CL-    CL-44868  28.667  16.574   1.395
79389CL-    CL-44869  24.068  34.435   1.256
79390CL-    CL-44870  27.525  42.938  10.457
79391CL-    CL-44871   4.416  19.059   1.237
79392CL-    CL-44872  31.064   1.776   5.115
79393CL-    CL-44873  40.334  23.163   3.686
79394CL-    CL-44874  39.902  17.621  10.515
79395CL-    CL-44875   5.254  22.124   1.386
79396CL-    CL-44876  39.979  38.983   2.308
79397CL-    CL-44877   0.353  42.950  10.898
79398CL-    CL-44878  40.029  35.451  13.398
79399CL-    CL-44879   7.180  28.639   3.763
79400CL-    CL-44880  27.097  13.600  12.485
79401CL-    CL-44881   1.877  20.235   4.207
79402CL-    CL-44882  17.242  41.791  10.438
79403CL-    CL-44883  38.944  39.997   3.863
79404CL-    CL-44884  29.096  28.632  14.500
79405CL-    CL-44885  17.627   5.916   4.146
79406CL-    CL-44886  27.970  44.824  14.327
79407CL-    CL-44887  21.169  25.042   1.933
79408CL-    CL-44888  42.880  19.582   4.148
79409CL-    CL-44889  14.809  29.439  13.487
79410CL-    CL-44890  14.695   1.481  14.324
79411CL-    CL-44891  11.314  22.745  14.341
79412CL-    CL-44892   9.871  32.133   4.781
79413CL-    CL-44893  42.987  15.769  10.040
79414CL-    CL-44894  29.569  14.829   3.761
79415CL-    CL-44895  10.659   1.839  12.426
79416CL-    CL-44896  14.742  41.343   0.767
79417CL-    CL-44897   3.874  32.421  11.409
79418CL-    CL-44898  24.025   0.389   2.787
79419CL-    CL-44899  12.662  26.635   2.814
79420CL-    CL-44900  27.545  14.141   2.759
79421CL-    CL-44901  19.567  28.026  12.914
79422CL-    CL-44902  32.005  35.366   0.482
79423CL-    CL-44903  43.021  23.237  14.957
79424CL-    CL-44904  15.111  10.832   1.769
79425CL-    CL-44905   2.233   3.761   2.730
79426CL-    CL-44906  36.902  14.832   0.270
79427CL-    CL-44907  27.541   8.748  14.005
79428CL-    CL-44908  24.034  42.447   2.282
79429CL-    CL-44909  21.720  10.203  14.453
79430CL-    CL-44910  28.482  31.100   1.386
79431CL-    CL-44911  16.710  11.225  13.893
79432CL-    CL-44912  26.170   5.352  13.500
79433CL-    CL-44913  23.712  13.688   0.740
79434CL-    CL-44914  24.081   8.682   0.857
79435CL-    CL-44915   1.741  11.828   3.710
79436CL-    CL-44916  32.533  37.005   4.828
79437CL-    CL-44917  15.649  34.381   0.898
79438CL-    CL-44918  19.221  32.014   4.796
79439CL-    CL-44919  24.506  20.541   1.794
79440CL-    CL-44920   5.790   9.367  11.095
79441CL-    CL-44921  39.863  28.625   0.335
79442CL-    CL-44922  32.416  15.114   3.319
79443CL-    CL-44923  43.002  24.619  13.868
79444CL-    CL-44924  39.049  21.712   3.859
79445CL-    CL-44925  11.806  31.435  12.434
79446CL-    CL-44926  10.660   5.781   2.275
79447CL-    CL-44927   6.764   7.233   0.405
79448CL-    CL-44928   3.378  34.375   1.255
79449CL-    CL-44929   5.294  13.326   0.395
79450CL-    CL-44930  17.750  17.077   4.638
79451CL-    CL-44931  39.506  31.515  13.004
79452CL-    CL-44932  42.818  41.925   0.455
79453CL-    CL-44933  24.692   7.781  11.541
79454CL-    CL-44934  44.785  37.961  11.608
79455CL-    CL-44935  42.849  24.535   1.763
79456CL-    CL-44936  19.551  22.180   4.266
79457CL-    CL-44937  23.624   9.723  14.874
79458CL-    CL-44938  18.182  28.586  14.787
79459CL-    CL-44939  13.673  40.828  10.961
79460CL-    CL-44940  34.422  24.536   2.755
79461CL-    CL-44941  13.180  38.514   3.298
79462CL-    CL-44942  13.334  17.182  11.493
79463CL-    CL-44943  40.319  27.056  13.478
79464CL-    CL-44944  44.762  40.334   4.789
79465CL-    CL-44945   4.761  27.622  14.455
79466CL-    CL-44946   6.256   7.396  13.846
79467CL-    CL-44947  37.841  19.273   4.123
79468CL-    CL-44948  32.982  14.764  14.363
79469CL-    CL-44949  10.211  35.005   1.864
79470CL-    CL-44950  26.047  13.302   3.775
79471CL-    CL-44951  25.676  12.644  14.424
79472CL-    CL-44952   9.255  44.002  12.398
79473CL-    CL-44953   8.781  33.896   1.755
79474CL-    CL-44954  26.631   5.371  14.433
79475CL-    CL-44955   4.910  17.199   2.674
79476CL-    CL-44956   4.295   6.900   4.197
79477CL-    CL-44957  23.516  40.367  11.085
79478CL-    CL-44958  14.129  36.422  10.585
79479CL-    CL-44959  43.364  18.138  13.033
79480CL-    CL-44960  11.216  33.976   1.696
79481CL-    CL-44961  39.944  34.464   0.431
79482CL-    CL-44962  44.478  18.106   0.264
79483CL-    CL-44963  18.568  44.923  12.847
79484CL-    CL-44964   0.823  28.447   4.656
79485CL-    CL-44965  25.080  18.613   2.729
79486CL-    CL-44966  11.179  39.992  10.575
79487CL-    CL-44967  35.603  18.119   1.242
79488CL-    CL-44968  11.813  30.092   3.871
79489CL-    CL-44969  25.113  19.147  13.319
79490CL-    CL-44970  18.623  25.524   2.300
79491CL-    CL-44971  21.147  40.853   3.177
79492CL-    CL-44972  14.602  20.654  13.860
79493CL-    CL-44973  14.665   8.365  14.968
79494CL-    CL-44974  36.447  12.745   4.274
79495CL-    CL-44975  14.240  16.808  11.857
79496CL-    CL-44976   6.730  41.923   2.874
79497CL-    CL-44977  15.668   4.910   2.401
79498CL-    CL-44978  34.002  34.500   0.466
79499CL-    CL-44979   6.183  29.445   3.363
79500CL-    CL-44980  39.348  21.037   2.801
79501CL-    CL-44981  22.526  24.981   1.807
79502CL-    CL-44982  12.780  25.180  13.349
79503CL-    CL-44983  24.160   4.314   4.672
79504CL-    CL-44984  13.658  20.616  12.073
79505CL-    CL-44985   2.343   2.265   1.269
79506CL-    CL-44986  24.114  14.627  11.555
79507CL-    CL-44987  14.697  15.243  14.905
79508CL-    CL-44988  30.093  14.663  13.461
79509CL-    CL-44989  38.878  42.931  13.801
79510CL-    CL-44990   3.840  22.200  10.898
79511CL-    CL-44991  40.867  10.683  11.946
79512CL-    CL-44992  10.725  10.197   0.834
  45.00000  45.00000  15.00000   0.00000   0.00000   0.00000   0.00000   0.00000   0.00000

